          AutoDock 4.2 Release 4.2.6   
         (C) 1989-2012 The Scripps Research Institute
        AutoDock comes with ABSOLUTELY NO WARRANTY.
        AutoDock is free software, and you are welcome
        to redistribute it under certain conditions;
        for details type 'autodock4 -C'

                     main.cc  $Revision: 1.213 $

                   Compiled on Jul 18 2014 at 15:34:58


This file was created at:			5:31 49" p.m., 10/02/2025
                   on host:		"ACER"
Current Working Directory = "D:\Protein_go_brrr\autodock\final\mut_D99N\heme"

      ________________________________________________________________

                   SETTING UP DEFAULT PARAMETER LIBRARY
      ________________________________________________________________


Random number generator was seeded with values 146028, 1759419109.
Docking parameter file (DPF) used for this docking:		D:/Protein_go_brrr/autodock/final/mut_D99N/heme/dock.dpf
DPF> autodock_parameter_version 4.2       # used by autodock to validate parameter set

	Autodock parameter version 4.2.
DPF> outlev 1                             # diagnostic output level

Output Level = 1  ADT-COMPATIBLE OUTPUT DURING DOCKING.
DPF> intelec                              # calculate internal electrostatics

Electrostatic energies will be calculated for all non-bonds between moving atoms.
DPF> seed pid time                        # seeds for random generator

Random number generator was seeded with values 146028, 1759419109.
DPF> ligand_types A C NA OA N HD          # atoms types in ligand

DPF> fld mut_D99N_m0.maps.fld             # grid_data_file

Opening Grid Map Dimensions file:		mut_D99N_m0.maps.fld
Grid Point Spacing =				0.447 Angstroms

Even Number of User-specified Grid Points =	126 x-points
						126 y-points
						126 z-points

Coordinates of Central Grid Point of Maps =	(-0.119, -0.072, -0.886)
Macromolecule file used to create Grid Maps =	mut_D99N_m0.pdbqt
Grid Parameter file used to create Grid Maps =	D:/Protein_go_brrr/autodock/final/mut_D99N/heme/grid.gpf
Minimum coordinates in grid = (-28.280, -28.233, -29.047)
Maximum coordinates in grid = (28.042, 28.089, 27.275)

DPF> map mut_D99N_m0.A.map                # atom-specific affinity map

DPF> map mut_D99N_m0.C.map                # atom-specific affinity map

DPF> map mut_D99N_m0.NA.map               # atom-specific affinity map

DPF> map mut_D99N_m0.OA.map               # atom-specific affinity map

DPF> map mut_D99N_m0.N.map                # atom-specific affinity map

DPF> map mut_D99N_m0.HD.map               # atom-specific affinity map

DPF> elecmap mut_D99N_m0.e.map            # electrostatics map

DPF> desolvmap mut_D99N_m0.d.map          # desolvation map

DPF> move heme_opt.pdbqt                  # small molecule

1,4-interactions will be _ignored_ in the non-bonded internal energy calculation.

Ligand PDBQT file = "heme_opt.pdbqt"

INPUT LIGAND PDBQT FILE:
________________________

INPUT-LIGAND-PDBQT: REMARK  13 active torsions:
INPUT-LIGAND-PDBQT: REMARK  status: ('A' for Active; 'I' for Inactive)
INPUT-LIGAND-PDBQT: REMARK    1  A    between atoms: O_3  and  C_38 
INPUT-LIGAND-PDBQT: REMARK    2  A    between atoms: O_4  and  C_40 
INPUT-LIGAND-PDBQT: REMARK    3  A    between atoms: O_7  and  C_46 
INPUT-LIGAND-PDBQT: REMARK    4  A    between atoms: O_9  and  C_48 
INPUT-LIGAND-PDBQT: REMARK    5  A    between atoms: C_15  and  C_20 
INPUT-LIGAND-PDBQT: REMARK    6  A    between atoms: C_16  and  C_23 
INPUT-LIGAND-PDBQT: REMARK    7  A    between atoms: C_20  and  C_38 
INPUT-LIGAND-PDBQT: REMARK    8  A    between atoms: C_23  and  C_40 
INPUT-LIGAND-PDBQT: REMARK    9  A    between atoms: C_32  and  C_41 
INPUT-LIGAND-PDBQT: REMARK   10  A    between atoms: C_37  and  C_45 
INPUT-LIGAND-PDBQT: REMARK   11  A    between atoms: C_41  and  C_44 
INPUT-LIGAND-PDBQT: REMARK   12  A    between atoms: C_44  and  C_46 
INPUT-LIGAND-PDBQT: REMARK   13  A    between atoms: C_47  and  C_48 
INPUT-LIGAND-PDBQT: ROOT
INPUT-LIGAND-PDBQT: ATOM      1  O   UNL d   1      -5.458   1.707   0.620  0.00  0.00    -0.289 OA
INPUT-LIGAND-PDBQT: ATOM      2  O   UNL d   1      -2.504  -4.828  -1.607  0.00  0.00    -0.289 OA
INPUT-LIGAND-PDBQT: ATOM      3  N   UNL d   1      -2.063   1.218   0.259  0.00  0.00    -0.247 NA
INPUT-LIGAND-PDBQT: ATOM      4  N   UNL d   1      -1.851  -1.684  -0.343  0.00  0.00    -0.247 NA
INPUT-LIGAND-PDBQT: ATOM      5  N   UNL d   1       0.972  -1.489   0.166  0.00  0.00    -0.354 N 
INPUT-LIGAND-PDBQT: ATOM      6  N   UNL d   1       0.740   1.517   0.808  0.00  0.00    -0.354 N 
INPUT-LIGAND-PDBQT: ATOM      7  C   UNL d   1      -3.467   3.037   1.112  0.00  0.00     0.084 A 
INPUT-LIGAND-PDBQT: ATOM      8  C   UNL d   1      -3.784  -2.753  -1.388  0.00  0.00     0.084 A 
INPUT-LIGAND-PDBQT: ATOM      9  C   UNL d   1      -3.156  -1.511  -0.747  0.00  0.00     0.058 A 
INPUT-LIGAND-PDBQT: ATOM     10  C   UNL d   1      -2.069   2.485   0.818  0.00  0.00     0.058 A 
INPUT-LIGAND-PDBQT: ATOM     11  C   UNL d   1      -4.251   1.865   0.603  0.00  0.00     0.193 A 
INPUT-LIGAND-PDBQT: ATOM     12  C   UNL d   1      -3.288   0.840   0.089  0.00  0.00     0.109 A 
INPUT-LIGAND-PDBQT: ATOM     13  C   UNL d   1      -2.606  -3.674  -1.239  0.00  0.00     0.193 A 
INPUT-LIGAND-PDBQT: ATOM     14  C   UNL d   1      -3.721   3.188   2.614  0.00  0.00     0.026 C 
INPUT-LIGAND-PDBQT: ATOM     15  C   UNL d   1      -3.838  -0.372  -0.551  0.00  0.00     0.055 C 
INPUT-LIGAND-PDBQT: ATOM     16  C   UNL d   1      -4.060  -2.544  -2.880  0.00  0.00     0.026 C 
INPUT-LIGAND-PDBQT: ATOM     17  C   UNL d   1      -1.503  -2.907  -0.585  0.00  0.00     0.109 A 
INPUT-LIGAND-PDBQT: ATOM     18  C   UNL d   1      -0.964   3.229   1.013  0.00  0.00     0.050 C 
INPUT-LIGAND-PDBQT: ATOM     19  C   UNL d   1       0.360   2.835   0.692  0.00  0.00     0.045 A 
INPUT-LIGAND-PDBQT: ATOM     20  C   UNL d   1       0.841  -2.851   0.084  0.00  0.00     0.045 A 
INPUT-LIGAND-PDBQT: ATOM     21  C   UNL d   1      -0.229  -3.570  -0.270  0.00  0.00     0.057 C 
INPUT-LIGAND-PDBQT: ATOM     22  C   UNL d   1       2.967  -2.353   0.755  0.00  0.00    -0.019 A 
INPUT-LIGAND-PDBQT: ATOM     23  C   UNL d   1       2.221  -1.093   0.564  0.00  0.00     0.045 A 
INPUT-LIGAND-PDBQT: ATOM     24  C   UNL d   1       2.145  -3.390   0.468  0.00  0.00    -0.022 A 
INPUT-LIGAND-PDBQT: ATOM     25  C   UNL d   1       2.081   1.375   0.536  0.00  0.00     0.049 A 
INPUT-LIGAND-PDBQT: ATOM     26  C   UNL d   1       1.473   3.562   0.299  0.00  0.00    -0.018 A 
INPUT-LIGAND-PDBQT: ATOM     27  C   UNL d   1       2.552   2.632   0.183  0.00  0.00     0.003 A 
INPUT-LIGAND-PDBQT: ATOM     28  C   UNL d   1       2.739   0.132   0.742  0.00  0.00     0.052 C 
INPUT-LIGAND-PDBQT: ATOM     29  C   UNL d   1       2.440  -4.851   0.501  0.00  0.00     0.046 C 
INPUT-LIGAND-PDBQT: ATOM     30  C   UNL d   1       1.533   5.030   0.044  0.00  0.00     0.046 C 
INPUT-LIGAND-PDBQT: ATOM     31  H   UNL d   1       0.223  -0.870  -0.125  0.00  0.00     0.166 HD
INPUT-LIGAND-PDBQT: ATOM     32  H   UNL d   1       0.112   0.776   1.096  0.00  0.00     0.166 HD
INPUT-LIGAND-PDBQT: ENDROOT
INPUT-LIGAND-PDBQT: BRANCH   7  33
INPUT-LIGAND-PDBQT: ATOM     33  C   UNL d   1      -3.845   4.310   0.347  0.00  0.00     0.141 C 
INPUT-LIGAND-PDBQT: BRANCH  33  34
INPUT-LIGAND-PDBQT: ATOM     34  C   UNL d   1      -3.538   4.215  -1.123  0.00  0.00     0.306 C 
INPUT-LIGAND-PDBQT: ATOM     35  O   UNL d   1      -3.917   3.340  -1.883  0.00  0.00    -0.251 OA
INPUT-LIGAND-PDBQT: BRANCH  34  36
INPUT-LIGAND-PDBQT: ATOM     36  O   UNL d   1      -2.771   5.230  -1.559  0.00  0.00    -0.481 OA
INPUT-LIGAND-PDBQT: ATOM     37  H   UNL d   1      -2.612   5.030  -2.506  0.00  0.00     0.295 HD
INPUT-LIGAND-PDBQT: ENDBRANCH  34  36
INPUT-LIGAND-PDBQT: ENDBRANCH  33  34
INPUT-LIGAND-PDBQT: ENDBRANCH   7  33
INPUT-LIGAND-PDBQT: BRANCH  27  38
INPUT-LIGAND-PDBQT: ATOM     38  C   UNL d   1       3.894   2.967  -0.187  0.00  0.00     0.017 C 
INPUT-LIGAND-PDBQT: ATOM     39  C   UNL d   1       4.701   2.208  -0.944  0.00  0.00     0.092 C 
INPUT-LIGAND-PDBQT: BRANCH  39  40
INPUT-LIGAND-PDBQT: ATOM     40  C   UNL d   1       6.052   2.675  -1.266  0.00  0.00     0.330 C 
INPUT-LIGAND-PDBQT: ATOM     41  O   UNL d   1       6.568   3.731  -0.953  0.00  0.00    -0.246 OA
INPUT-LIGAND-PDBQT: BRANCH  40  42
INPUT-LIGAND-PDBQT: ATOM     42  O   UNL d   1       6.703   1.746  -1.983  0.00  0.00    -0.477 OA
INPUT-LIGAND-PDBQT: ATOM     43  H   UNL d   1       7.581   2.148  -2.146  0.00  0.00     0.295 HD
INPUT-LIGAND-PDBQT: ENDBRANCH  40  42
INPUT-LIGAND-PDBQT: ENDBRANCH  39  40
INPUT-LIGAND-PDBQT: ENDBRANCH  27  38
INPUT-LIGAND-PDBQT: BRANCH   8  44
INPUT-LIGAND-PDBQT: ATOM     44  C   UNL d   1      -5.015  -3.316  -0.670  0.00  0.00     0.141 C 
INPUT-LIGAND-PDBQT: BRANCH  44  45
INPUT-LIGAND-PDBQT: ATOM     45  C   UNL d   1      -4.806  -3.504   0.809  0.00  0.00     0.306 C 
INPUT-LIGAND-PDBQT: ATOM     46  O   UNL d   1      -3.825  -3.985   1.349  0.00  0.00    -0.251 OA
INPUT-LIGAND-PDBQT: BRANCH  45  47
INPUT-LIGAND-PDBQT: ATOM     47  O   UNL d   1      -5.864  -3.098   1.534  0.00  0.00    -0.481 OA
INPUT-LIGAND-PDBQT: ATOM     48  H   UNL d   1      -5.613  -3.283   2.464  0.00  0.00     0.295 HD
INPUT-LIGAND-PDBQT: ENDBRANCH  45  47
INPUT-LIGAND-PDBQT: ENDBRANCH  44  45
INPUT-LIGAND-PDBQT: ENDBRANCH   8  44
INPUT-LIGAND-PDBQT: BRANCH  22  49
INPUT-LIGAND-PDBQT: ATOM     49  C   UNL d   1       4.395  -2.426   1.210  0.00  0.00     0.048 C 
INPUT-LIGAND-PDBQT: BRANCH  49  50
INPUT-LIGAND-PDBQT: ATOM     50  C   UNL d   1       5.372  -2.242   0.049  0.00  0.00     0.125 C 
INPUT-LIGAND-PDBQT: BRANCH  50  51
INPUT-LIGAND-PDBQT: ATOM     51  C   UNL d   1       6.794  -2.339   0.524  0.00  0.00     0.305 C 
INPUT-LIGAND-PDBQT: ATOM     52  O   UNL d   1       7.189  -2.431   1.673  0.00  0.00    -0.251 OA
INPUT-LIGAND-PDBQT: BRANCH  51  53
INPUT-LIGAND-PDBQT: ATOM     53  O   UNL d   1       7.671  -2.302  -0.499  0.00  0.00    -0.481 OA
INPUT-LIGAND-PDBQT: ATOM     54  H   UNL d   1       8.547  -2.365  -0.064  0.00  0.00     0.295 HD
INPUT-LIGAND-PDBQT: ENDBRANCH  51  53
INPUT-LIGAND-PDBQT: ENDBRANCH  50  51
INPUT-LIGAND-PDBQT: ENDBRANCH  49  50
INPUT-LIGAND-PDBQT: ENDBRANCH  22  49
INPUT-LIGAND-PDBQT: TORSDOF 13
________________________________________________________________________________

Total charge on ligand                               =	-0.002 e
REMARK  13 active torsions:
REMARK  status: ('A' for Active; 'I' for Inactive)
REMARK    1  A    between atoms: O_3  and  C_38 
REMARK    2  A    between atoms: O_4  and  C_40 
REMARK    3  A    between atoms: O_7  and  C_46 
REMARK    4  A    between atoms: O_9  and  C_48 
REMARK    5  A    between atoms: C_15  and  C_20 
REMARK    6  A    between atoms: C_16  and  C_23 
REMARK    7  A    between atoms: C_20  and  C_38 
REMARK    8  A    between atoms: C_23  and  C_40 
REMARK    9  A    between atoms: C_32  and  C_41 
REMARK   10  A    between atoms: C_37  and  C_45 
REMARK   11  A    between atoms: C_41  and  C_44 
REMARK   12  A    between atoms: C_44  and  C_46 
REMARK   13  A    between atoms: C_47  and  C_48 


Number of Rotatable Bonds in Small Molecule =	13 torsions
Number of atoms in ligand:  54

Number of non-hydrogen atoms in ligand:  48

Number of vibrational degrees of freedom of ligand:  156


Number of torsional degrees of freedom = 13
Estimated loss of torsional free energy upon binding = +3.8779 kcal/mol


DPF> about 0.153 0.018 -0.028            # small molecule center

Small molecule center of rotation =	(+0.153, +0.018, -0.028)

DPF> tran0 random                         # initial coordinates/A or random

Initial translation =			(-26.513, 15.197, 27.199) Angstroms
DPF> quaternion0 random                   # initial orientation

Each run will begin with a new, random initial orientation.
Initial quaternion,  (x,y,z,w) =	( -0.002, -0.084, -0.993, -0.088 ),
DPF> dihe0 random                         # initial dihedrals (relative) or random

DPF> torsdof 13                            # torsional degrees of freedom

Number of torsional degrees of freedom = 13
Free energy coefficient for torsional degrees of freedom = 0.2983, the factory default value.

Estimated loss of torsional free energy upon binding = +3.8779 kcal/mol

DPF> rmstol 2.0                           # cluster_tolerance/A

Maximum RMS tolerance for conformational cluster analysis = 2.00 Angstroms
DPF> extnrg 1000.0                        # external grid energy

External grid energy (beyond grid map walls) = 1000.00

DPF> e0max 0.0 10000                      # max initial energy; max number of retries

Using user-specified maximum number of retries for simanneal initialization, 10000 retries.
If the simanneal initial energy is greater than e0max, 0.000,
then a new, random initial state will be created.

DPF> ga_pop_size 150                      # number of individuals in population

A population of 150 individuals will be used
DPF> ga_num_evals 25000000                # maximum number of energy evaluations

There will be at most 25000000 function evaluations used.
DPF> ga_num_generations 27000             # maximum number of generations

The GA will run for at most 27000 generations.
DPF> ga_elitism 1                         # number of top individuals to survive to next generation

The 1 best will be preserved each GA generation.
DPF> ga_mutation_rate 0.02                # rate of gene mutation

The mutation rate is 0.020000.
DPF> ga_crossover_rate 0.8                # rate of crossover

The crossover rate is 0.800000.
DPF> ga_window_size 10                    # 

The GA's selection window is 10 generations.
DPF> ga_cauchy_alpha 0.0                  # Alpha parameter of Cauchy distribution

The alpha parameter (for the Cauchy distribution) is being set to 0.000000.
DPF> ga_cauchy_beta 1.0                   # Beta parameter Cauchy distribution

The beta parameter (for the Cauchy distribution) is being set to 1.000000.
DPF> set_ga                               # set the above parameters for GA or LGA

DPF> sw_max_its 300                       # iterations of Solis & Wets local search

Solis & Wets algorithms will perform at most 300 iterations.
DPF> sw_max_succ 4                        # consecutive successes before changing rho

Solis & Wets algorithms expand rho every 4 in a row successes.
DPF> sw_max_fail 4                        # consecutive failures before changing rho

Solis & Wets algorithms contract rho every 4 in a row failures.
DPF> sw_rho 1.0                           # size of local search space to sample

rho is set to 1.000000.
DPF> sw_lb_rho 0.01                       # lower bound on rho

rho will never get smaller than 0.010000.
DPF> ls_search_freq 0.06                  # probability of performing local search on individual

Local search will be performed with frequency 0.060000.
DPF> set_psw1                             # set the above pseudo-Solis & Wets parameters

Creating a new Local Search object using the pseudo-Solis-Wets algorithm (pSW1) with the current settings.

DPF> unbound_model bound                  # state of unbound ligand

DPF> ga_run 100                           # do this many hybrid GA-LS runs

centering ligand on specified point: 0.153 0.018 -0.028
Furthest true ligand atom from "about" center is 8.726 Angstroms (maxrad).
Number of requested GA dockings = 100 runs
Unbound model to be used is 'same as bound' [AutoDock 4.2 default].

	BEGINNING GENETIC ALGORITHM DOCKING 1 of 100
Run: 1 Seed: 1569269106 1801472483 [ Run 1 of 100 GA/GALS ]
Beginning LAMARCKIAN GENETIC ALGORITHM (LGA), with a maximum of 25000000 energy evaluations.

Final-Value: -9.401


	FINAL GENETIC ALGORITHM DOCKED STATE
	_______________________________________________


Detailed state:  trans -14.039 3.616 8.919 quatxyzw 0.273474 0.750489 -0.388841 0.459109 center 0.153 0.018 -0.028 ntor 13 -43.5939 20.8155 31.5940 -87.0345 -29.4142 67.3289 -1.6543 -94.8915 -9.1674 130.1723 -145.6833 47.8979 147.4138
State:	-14.039   3.616   8.919   0.308  0.845 -0.438 125.341    -43.59   20.82   31.59  -87.03  -29.41   67.33   -1.65  -94.89   -9.17  130.17 -145.68   47.90  147.41

DOCKED: MODEL        1
DOCKED: USER    Run = 1
DOCKED: USER    DPF = D:/Protein_go_brrr/autodock/final/mut_D99N/heme/dock.dpf
DOCKED: USER  
DOCKED: USER    Estimated Free Energy of Binding    =   -4.18 kcal/mol  [=(1)+(2)+(3)-(4)]
DOCKED: USER    Estimated Inhibition Constant, Ki   =  860.65 uM (micromolar)  [Temperature = 298.15 K]
DOCKED: USER    
DOCKED: USER    (1) Final Intermolecular Energy     =   -8.06 kcal/mol
DOCKED: USER        vdW + Hbond + desolv Energy     =   -7.58 kcal/mol
DOCKED: USER        Electrostatic Energy            =   -0.48 kcal/mol
DOCKED: USER    (2) Final Total Internal Energy     =   -1.34 kcal/mol
DOCKED: USER    (3) Torsional Free Energy           =   +3.88 kcal/mol
DOCKED: USER    (4) Unbound System's Energy  [=(2)] =   -1.34 kcal/mol
DOCKED: USER    
DOCKED: USER    
DOCKED: USER    NEWDPF move heme_opt.pdbqt
DOCKED: USER    NEWDPF about 0.153000 0.018000 -0.028000
DOCKED: USER    NEWDPF tran0 -14.038596 3.616030 8.918692
DOCKED: USER    NEWDPF quaternion0 0.273474 0.750489 -0.388841 0.459109
DOCKED: USER    NEWDPF axisangle0 0.307834 0.844784 -0.437697 125.340790
DOCKED: USER    NEWDPF quat0 0.307834 0.844784 -0.437697 125.340790
DOCKED: USER    NEWDPF dihe0 -43.59 20.82 31.59 -87.03 -29.41 67.33 -1.65 -94.89 -9.17 130.17 -145.68 47.90 147.41 
DOCKED: USER  keepresnum = 1 
DOCKED: USER  
DOCKED: REMARK  13 active torsions:
DOCKED: REMARK  status: ('A' for Active; 'I' for Inactive)
DOCKED: REMARK    1  A    between atoms: O_3  and  C_38 
DOCKED: REMARK    2  A    between atoms: O_4  and  C_40 
DOCKED: REMARK    3  A    between atoms: O_7  and  C_46 
DOCKED: REMARK    4  A    between atoms: O_9  and  C_48 
DOCKED: REMARK    5  A    between atoms: C_15  and  C_20 
DOCKED: REMARK    6  A    between atoms: C_16  and  C_23 
DOCKED: REMARK    7  A    between atoms: C_20  and  C_38 
DOCKED: REMARK    8  A    between atoms: C_23  and  C_40 
DOCKED: REMARK    9  A    between atoms: C_32  and  C_41 
DOCKED: REMARK   10  A    between atoms: C_37  and  C_45 
DOCKED: REMARK   11  A    between atoms: C_41  and  C_44 
DOCKED: REMARK   12  A    between atoms: C_44  and  C_46 
DOCKED: REMARK   13  A    between atoms: C_47  and  C_48 
DOCKED: USER                              x       y       z     vdW  Elec       q    Type
DOCKED: USER                           _______ _______ _______ _____ _____    ______ ____
DOCKED: ROOT
DOCKED: ATOM      1  O   UNL d   1     -12.126   0.020   4.657 -0.71 -0.40    -0.289 OA
DOCKED: ATOM      2  O   UNL d   1     -11.734  -0.554  12.134 -0.16 -0.10    -0.289 OA
DOCKED: ATOM      3  N   UNL d   1     -13.283   2.477   6.782 -0.05 -0.07    -0.247 NA
DOCKED: ATOM      4  N   UNL d   1     -12.986   1.250   9.472 -0.07 -0.08    -0.247 NA
DOCKED: ATOM      5  N   UNL d   1     -14.645   3.354  10.513 -0.07 -0.14    -0.354 N 
DOCKED: ATOM      6  N   UNL d   1     -14.964   4.610   7.716 -0.03 -0.07    -0.354 N 
DOCKED: ATOM      7  C   UNL d   1     -13.353   2.113   4.359 -0.13 +0.03    +0.084 A 
DOCKED: ATOM      8  C   UNL d   1     -11.272  -0.472   9.731 -0.27 +0.03    +0.084 A 
DOCKED: ATOM      9  C   UNL d   1     -12.053   0.477   8.817 -0.21 +0.02    +0.058 A 
DOCKED: ATOM     10  C   UNL d   1     -13.717   2.981   5.567 -0.09 +0.01    +0.058 A 
DOCKED: ATOM     11  C   UNL d   1     -12.620   1.038   5.104 -0.12 +0.13    +0.193 A 
DOCKED: ATOM     12  C   UNL d   1     -12.624   1.387   6.561 -0.14 +0.05    +0.109 A 
DOCKED: ATOM     13  C   UNL d   1     -11.961  -0.122  11.020 -0.16 +0.06    +0.193 A 
DOCKED: ATOM     14  C   UNL d   1     -14.590   1.501   3.698 -0.15 +0.01    +0.026 C 
DOCKED: ATOM     15  C   UNL d   1     -11.876   0.513   7.487 -0.16 +0.03    +0.055 C 
DOCKED: ATOM     16  C   UNL d   1      -9.797  -0.073   9.837 -0.50 +0.01    +0.026 C 
DOCKED: ATOM     17  C   UNL d   1     -12.982   0.927  10.725 -0.14 +0.04    +0.109 A 
DOCKED: ATOM     18  C   UNL d   1     -14.327   4.172   5.419 -0.11 +0.01    +0.050 C 
DOCKED: ATOM     19  C   UNL d   1     -14.626   5.079   6.467 -0.08 +0.01    +0.045 A 
DOCKED: ATOM     20  C   UNL d   1     -14.588   2.535  11.610 -0.16 +0.02    +0.045 A 
DOCKED: ATOM     21  C   UNL d   1     -13.848   1.437  11.799 -0.18 +0.03    +0.057 C 
DOCKED: ATOM     22  C   UNL d   1     -16.078   4.216  12.022 -0.11 -0.01    -0.019 A 
DOCKED: ATOM     23  C   UNL d   1     -15.519   4.398  10.668 +0.03 +0.02    +0.045 A 
DOCKED: ATOM     24  C   UNL d   1     -15.522   3.112  12.576 -0.14 -0.01    -0.022 A 
DOCKED: ATOM     25  C   UNL d   1     -15.302   5.652   8.549 -0.07 +0.01    +0.049 A 
DOCKED: ATOM     26  C   UNL d   1     -14.710   6.463   6.499 -0.12 -0.00    -0.018 A 
DOCKED: ATOM     27  C   UNL d   1     -15.118   6.820   7.821 -0.13 +0.00    +0.003 A 
DOCKED: ATOM     28  C   UNL d   1     -15.836   5.407   9.843 +0.04 +0.02    +0.052 C 
DOCKED: ATOM     29  C   UNL d   1     -15.757   2.527  13.927 -0.11 +0.03    +0.046 C 
DOCKED: ATOM     30  C   UNL d   1     -14.428   7.398   5.373 -0.17 -0.00    +0.046 C 
DOCKED: ATOM     31  H   UNL d   1     -14.029   3.215   9.720 +0.05 +0.06    +0.166 HD
DOCKED: ATOM     32  H   UNL d   1     -14.994   3.626   7.956 +0.03 +0.04    +0.166 HD
DOCKED: ENDROOT
DOCKED: BRANCH   7  33
DOCKED: ATOM     33  C   UNL d   1     -12.433   2.775   3.328 -0.21 +0.04    +0.141 C 
DOCKED: BRANCH  33  34
DOCKED: ATOM     34  C   UNL d   1     -11.370   3.630   3.963 -0.18 +0.05    +0.306 C 
DOCKED: ATOM     35  O   UNL d   1     -10.927   3.507   5.093 -0.23 -0.03    -0.251 OA
DOCKED: BRANCH  34  36
DOCKED: ATOM     36  O   UNL d   1     -10.920   4.594   3.141 -0.09 -0.05    -0.481 OA
DOCKED: ATOM     37  H   UNL d   1     -10.908   5.404   3.694 +0.18 +0.01    +0.295 HD
DOCKED: ENDBRANCH  34  36
DOCKED: ENDBRANCH  33  34
DOCKED: ENDBRANCH   7  33
DOCKED: BRANCH  27  38
DOCKED: ATOM     38  C   UNL d   1     -15.342   8.156   8.283 -0.16 +0.00    +0.017 C 
DOCKED: ATOM     39  C   UNL d   1     -14.443   8.913   8.930 -0.28 -0.00    +0.092 C 
DOCKED: BRANCH  39  40
DOCKED: ATOM     40  C   UNL d   1     -14.792  10.277   9.336 -0.18 -0.10    +0.330 C 
DOCKED: ATOM     41  O   UNL d   1     -15.632  10.619  10.147 -0.14 +0.07    -0.246 OA
DOCKED: BRANCH  40  42
DOCKED: ATOM     42  O   UNL d   1     -14.030  11.164   8.678 -0.11 +0.35    -0.477 OA
DOCKED: ATOM     43  H   UNL d   1     -14.079  11.971   9.231 -0.32 -0.50    +0.295 HD
DOCKED: ENDBRANCH  40  42
DOCKED: ENDBRANCH  39  40
DOCKED: ENDBRANCH  27  38
DOCKED: BRANCH   8  44
DOCKED: ATOM     44  C   UNL d   1     -11.421  -1.964   9.417 -0.20 +0.05    +0.141 C 
DOCKED: BRANCH  44  45
DOCKED: ATOM     45  C   UNL d   1     -10.547  -2.422   8.280 -0.27 +0.13    +0.306 C 
DOCKED: ATOM     46  O   UNL d   1     -10.397  -1.862   7.208 -0.70 -0.17    -0.251 OA
DOCKED: BRANCH  45  47
DOCKED: ATOM     47  O   UNL d   1      -9.926  -3.586   8.545 -0.17 -0.12    -0.481 OA
DOCKED: ATOM     48  H   UNL d   1      -9.081  -3.533   8.050 -0.04 +0.02    +0.295 HD
DOCKED: ENDBRANCH  45  47
DOCKED: ENDBRANCH  44  45
DOCKED: ENDBRANCH   8  44
DOCKED: BRANCH  22  49
DOCKED: ATOM     49  C   UNL d   1     -17.105   5.121  12.638 -0.07 +0.01    +0.048 C 
DOCKED: BRANCH  49  50
DOCKED: ATOM     50  C   UNL d   1     -18.427   5.085  11.872 -0.01 +0.02    +0.125 C 
DOCKED: BRANCH  50  51
DOCKED: ATOM     51  C   UNL d   1     -18.698   3.708  11.334 +0.00 +0.05    +0.305 C 
DOCKED: ATOM     52  O   UNL d   1     -18.535   3.311  10.194 -0.00 -0.04    -0.251 OA
DOCKED: BRANCH  51  53
DOCKED: ATOM     53  O   UNL d   1     -19.185   2.883  12.282 +0.01 -0.07    -0.481 OA
DOCKED: ATOM     54  H   UNL d   1     -20.158   2.969  12.196 +0.00 +0.03    +0.295 HD
DOCKED: ENDBRANCH  51  53
DOCKED: ENDBRANCH  50  51
DOCKED: ENDBRANCH  49  50
DOCKED: ENDBRANCH  22  49
DOCKED: TORSDOF 13
DOCKED: TER
DOCKED: ENDMDL
________________________________________________________________________________


	BEGINNING GENETIC ALGORITHM DOCKING 2 of 100
Run: 2 Seed: 67369700 1655920294 [ Run 2 of 100 GA/GALS ]
Beginning LAMARCKIAN GENETIC ALGORITHM (LGA), with a maximum of 25000000 energy evaluations.

Final-Value: -13.047


	FINAL GENETIC ALGORITHM DOCKED STATE
	_______________________________________________


Detailed state:  trans 15.971 -13.071 5.269 quatxyzw -0.440064 -0.849060 -0.143109 -0.254875 center 0.153 0.018 -0.028 ntor 13 138.7185 164.0745 -167.2595 -174.6115 -137.3526 42.0105 139.8474 61.3608 16.4834 -7.3114 5.1230 -80.5093 18.8166
State:	 15.971 -13.071   5.269  -0.455 -0.878 -0.148 -150.468    138.72  164.07 -167.26 -174.61 -137.35   42.01  139.85   61.36   16.48   -7.31    5.12  -80.51   18.82

DOCKED: MODEL        2
DOCKED: USER    Run = 2
DOCKED: USER    DPF = D:/Protein_go_brrr/autodock/final/mut_D99N/heme/dock.dpf
DOCKED: USER  
DOCKED: USER    Estimated Free Energy of Binding    =   -5.53 kcal/mol  [=(1)+(2)+(3)-(4)]
DOCKED: USER    Estimated Inhibition Constant, Ki   =   88.77 uM (micromolar)  [Temperature = 298.15 K]
DOCKED: USER    
DOCKED: USER    (1) Final Intermolecular Energy     =   -9.41 kcal/mol
DOCKED: USER        vdW + Hbond + desolv Energy     =   -9.18 kcal/mol
DOCKED: USER        Electrostatic Energy            =   -0.23 kcal/mol
DOCKED: USER    (2) Final Total Internal Energy     =   -3.64 kcal/mol
DOCKED: USER    (3) Torsional Free Energy           =   +3.88 kcal/mol
DOCKED: USER    (4) Unbound System's Energy  [=(2)] =   -3.64 kcal/mol
DOCKED: USER    
DOCKED: USER    
DOCKED: USER    NEWDPF move heme_opt.pdbqt
DOCKED: USER    NEWDPF about 0.153000 0.018000 -0.028000
DOCKED: USER    NEWDPF tran0 15.970790 -13.070677 5.268863
DOCKED: USER    NEWDPF quaternion0 -0.440064 -0.849060 -0.143109 -0.254875
DOCKED: USER    NEWDPF axisangle0 -0.455094 -0.878058 -0.147997 -150.467611
DOCKED: USER    NEWDPF quat0 -0.455094 -0.878058 -0.147997 -150.467611
DOCKED: USER    NEWDPF dihe0 138.72 164.07 -167.26 -174.61 -137.35 42.01 139.85 61.36 16.48 -7.31 5.12 -80.51 18.82 
DOCKED: USER  keepresnum = 1 
DOCKED: USER  
DOCKED: REMARK  13 active torsions:
DOCKED: REMARK  status: ('A' for Active; 'I' for Inactive)
DOCKED: REMARK    1  A    between atoms: O_3  and  C_38 
DOCKED: REMARK    2  A    between atoms: O_4  and  C_40 
DOCKED: REMARK    3  A    between atoms: O_7  and  C_46 
DOCKED: REMARK    4  A    between atoms: O_9  and  C_48 
DOCKED: REMARK    5  A    between atoms: C_15  and  C_20 
DOCKED: REMARK    6  A    between atoms: C_16  and  C_23 
DOCKED: REMARK    7  A    between atoms: C_20  and  C_38 
DOCKED: REMARK    8  A    between atoms: C_23  and  C_40 
DOCKED: REMARK    9  A    between atoms: C_32  and  C_41 
DOCKED: REMARK   10  A    between atoms: C_37  and  C_45 
DOCKED: REMARK   11  A    between atoms: C_41  and  C_44 
DOCKED: REMARK   12  A    between atoms: C_44  and  C_46 
DOCKED: REMARK   13  A    between atoms: C_47  and  C_48 
DOCKED: USER                              x       y       z     vdW  Elec       q    Type
DOCKED: USER                           _______ _______ _______ _____ _____    ______ ____
DOCKED: ROOT
DOCKED: ATOM      1  O   UNL d   1      19.866 -15.586   1.628 -0.02 +0.01    -0.289 OA
DOCKED: ATOM      2  O   UNL d   1      13.763 -18.371   5.003 -0.02 -0.02    -0.289 OA
DOCKED: ATOM      3  N   UNL d   1      17.937 -13.745   3.815 -0.04 +0.15    -0.247 NA
DOCKED: ATOM      4  N   UNL d   1      15.639 -15.542   4.378 +0.08 +0.19    -0.247 NA
DOCKED: ATOM      5  N   UNL d   1      14.280 -13.289   5.537 +0.14 +0.35    -0.354 N 
DOCKED: ATOM      6  N   UNL d   1      16.660 -11.427   4.932 -0.16 +0.23    -0.354 N 
DOCKED: ATOM      7  C   UNL d   1      19.845 -13.253   2.357 -0.17 +0.00    +0.084 A 
DOCKED: ATOM      8  C   UNL d   1      16.016 -17.945   4.145 -0.03 -0.00    +0.084 A 
DOCKED: ATOM      9  C   UNL d   1      16.535 -16.512   3.987 -0.08 -0.02    +0.058 A 
DOCKED: ATOM     10  C   UNL d   1      18.807 -12.763   3.372 -0.11 -0.01    +0.058 A 
DOCKED: ATOM     11  C   UNL d   1      19.418 -14.690   2.319 -0.06 -0.02    +0.193 A 
DOCKED: ATOM     12  C   UNL d   1      18.270 -14.866   3.265 -0.09 -0.04    +0.109 A 
DOCKED: ATOM     13  C   UNL d   1      14.646 -17.608   4.662 -0.05 +0.00    +0.193 A 
DOCKED: ATOM     14  C   UNL d   1      19.630 -12.636   0.973 -0.27 -0.00    +0.026 C 
DOCKED: ATOM     15  C   UNL d   1      17.738 -16.229   3.465 -0.08 -0.01    +0.055 C 
DOCKED: ATOM     16  C   UNL d   1      16.778 -18.709   5.232 -0.00 -0.00    +0.026 C 
DOCKED: ATOM     17  C   UNL d   1      14.542 -16.120   4.751 -0.12 -0.03    +0.109 A 
DOCKED: ATOM     18  C   UNL d   1      18.824 -11.502   3.842 -0.35 -0.00    +0.050 C 
DOCKED: ATOM     19  C   UNL d   1      17.961 -10.984   4.840 -0.36 -0.01    +0.045 A 
DOCKED: ATOM     20  C   UNL d   1      13.251 -14.195   5.507 -0.18 -0.02    +0.045 A 
DOCKED: ATOM     21  C   UNL d   1      13.286 -15.493   5.189 -0.18 -0.01    +0.057 C 
DOCKED: ATOM     22  C   UNL d   1      12.427 -12.163   6.148 -0.28 +0.01    -0.019 A 
DOCKED: ATOM     23  C   UNL d   1      13.879 -12.035   5.913 -0.28 -0.03    +0.045 A 
DOCKED: ATOM     24  C   UNL d   1      12.062 -13.444   5.907 -0.23 +0.01    -0.022 A 
DOCKED: ATOM     25  C   UNL d   1      15.980 -10.731   5.904 -0.31 -0.02    +0.049 A 
DOCKED: ATOM     26  C   UNL d   1      18.140 -10.002   5.802 -0.31 -0.00    -0.018 A 
DOCKED: ATOM     27  C   UNL d   1      16.892  -9.860   6.483 -0.28 -0.00    +0.003 A 
DOCKED: ATOM     28  C   UNL d   1      14.580 -10.902   6.078 -0.34 -0.03    +0.052 C 
DOCKED: ATOM     29  C   UNL d   1      10.711 -14.065   6.017 -0.27 -0.01    +0.046 C 
DOCKED: ATOM     30  C   UNL d   1      19.393  -9.241   6.074 -0.27 +0.01    +0.046 C 
DOCKED: ATOM     31  H   UNL d   1      15.238 -13.576   5.372 -0.46 -0.21    +0.166 HD
DOCKED: ATOM     32  H   UNL d   1      16.267 -12.140   4.328 -0.51 -0.28    +0.166 HD
DOCKED: ENDROOT
DOCKED: BRANCH   7  33
DOCKED: ATOM     33  C   UNL d   1      21.306 -13.138   2.804 -0.12 +0.03    +0.141 C 
DOCKED: BRANCH  33  34
DOCKED: ATOM     34  C   UNL d   1      21.619 -14.005   3.993 -0.03 +0.06    +0.306 C 
DOCKED: ATOM     35  O   UNL d   1      21.416 -13.725   5.163 -0.03 -0.06    -0.251 OA
DOCKED: BRANCH  34  36
DOCKED: ATOM     36  O   UNL d   1      22.167 -15.183   3.646 +0.01 -0.06    -0.481 OA
DOCKED: ATOM     37  H   UNL d   1      21.632 -15.489   2.883 +0.03 +0.02    +0.295 HD
DOCKED: ENDBRANCH  34  36
DOCKED: ENDBRANCH  33  34
DOCKED: ENDBRANCH   7  33
DOCKED: BRANCH  27  38
DOCKED: ATOM     38  C   UNL d   1      16.632  -8.936   7.546 -0.25 -0.00    +0.017 C 
DOCKED: ATOM     39  C   UNL d   1      15.531  -8.179   7.662 -0.19 -0.04    +0.092 C 
DOCKED: BRANCH  39  40
DOCKED: ATOM     40  C   UNL d   1      15.379  -7.283   8.812 -0.14 -0.11    +0.330 C 
DOCKED: ATOM     41  O   UNL d   1      16.234  -6.597   9.338 -0.10 +0.05    -0.246 OA
DOCKED: BRANCH  40  42
DOCKED: ATOM     42  O   UNL d   1      14.108  -7.297   9.243 -0.12 +0.20    -0.477 OA
DOCKED: ATOM     43  H   UNL d   1      13.613  -7.699   8.500 -0.32 -0.18    +0.295 HD
DOCKED: ENDBRANCH  40  42
DOCKED: ENDBRANCH  39  40
DOCKED: ENDBRANCH  27  38
DOCKED: BRANCH   8  44
DOCKED: ATOM     44  C   UNL d   1      15.928 -18.762   2.851 -0.03 +0.02    +0.141 C 
DOCKED: BRANCH  44  45
DOCKED: ATOM     45  C   UNL d   1      15.071 -18.114   1.796 -0.06 +0.16    +0.306 C 
DOCKED: ATOM     46  O   UNL d   1      15.456 -17.409   0.880 -0.22 -0.18    -0.251 OA
DOCKED: BRANCH  45  47
DOCKED: ATOM     47  O   UNL d   1      13.762 -18.367   1.970 -0.04 -0.37    -0.481 OA
DOCKED: ATOM     48  H   UNL d   1      13.702 -18.760   2.867 +0.03 +0.11    +0.295 HD
DOCKED: ENDBRANCH  45  47
DOCKED: ENDBRANCH  44  45
DOCKED: ENDBRANCH   8  44
DOCKED: BRANCH  22  49
DOCKED: ATOM     49  C   UNL d   1      11.538 -11.029   6.567 -0.32 -0.02    +0.048 C 
DOCKED: BRANCH  49  50
DOCKED: ATOM     50  C   UNL d   1      11.903 -10.504   7.956 -0.14 -0.05    +0.125 C 
DOCKED: BRANCH  50  51
DOCKED: ATOM     51  C   UNL d   1      10.913  -9.471   8.415 -0.16 -0.11    +0.305 C 
DOCKED: ATOM     52  O   UNL d   1       9.704  -9.587   8.500 -0.76 +0.07    -0.251 OA
DOCKED: BRANCH  51  53
DOCKED: ATOM     53  O   UNL d   1      11.513  -8.309   8.741 -0.07 +0.20    -0.481 OA
DOCKED: ATOM     54  H   UNL d   1      12.453  -8.450   8.501 -0.46 -0.18    +0.295 HD
DOCKED: ENDBRANCH  51  53
DOCKED: ENDBRANCH  50  51
DOCKED: ENDBRANCH  49  50
DOCKED: ENDBRANCH  22  49
DOCKED: TORSDOF 13
DOCKED: TER
DOCKED: ENDMDL
________________________________________________________________________________


	BEGINNING GENETIC ALGORITHM DOCKING 3 of 100
Run: 3 Seed: 2144580100 1081916750 [ Run 3 of 100 GA/GALS ]
Beginning LAMARCKIAN GENETIC ALGORITHM (LGA), with a maximum of 25000000 energy evaluations.

Final-Value: -11.480


	FINAL GENETIC ALGORITHM DOCKED STATE
	_______________________________________________


Detailed state:  trans 19.128 -2.882 2.556 quatxyzw 0.730199 0.061557 -0.407272 -0.545114 center 0.153 0.018 -0.028 ntor 13 122.8473 -111.9863 116.1040 -6.8756 -131.0140 -111.3826 -55.0511 175.7520 33.5945 -136.9900 -67.2840 -13.3756 44.7604
State:	 19.128  -2.882   2.556   0.871  0.073 -0.486 -113.935    122.85 -111.99  116.10   -6.88 -131.01 -111.38  -55.05  175.75   33.59 -136.99  -67.28  -13.38   44.76

DOCKED: MODEL        3
DOCKED: USER    Run = 3
DOCKED: USER    DPF = D:/Protein_go_brrr/autodock/final/mut_D99N/heme/dock.dpf
DOCKED: USER  
DOCKED: USER    Estimated Free Energy of Binding    =   -4.40 kcal/mol  [=(1)+(2)+(3)-(4)]
DOCKED: USER    Estimated Inhibition Constant, Ki   =  596.78 uM (micromolar)  [Temperature = 298.15 K]
DOCKED: USER    
DOCKED: USER    (1) Final Intermolecular Energy     =   -8.28 kcal/mol
DOCKED: USER        vdW + Hbond + desolv Energy     =   -8.18 kcal/mol
DOCKED: USER        Electrostatic Energy            =   -0.10 kcal/mol
DOCKED: USER    (2) Final Total Internal Energy     =   -3.20 kcal/mol
DOCKED: USER    (3) Torsional Free Energy           =   +3.88 kcal/mol
DOCKED: USER    (4) Unbound System's Energy  [=(2)] =   -3.20 kcal/mol
DOCKED: USER    
DOCKED: USER    
DOCKED: USER    NEWDPF move heme_opt.pdbqt
DOCKED: USER    NEWDPF about 0.153000 0.018000 -0.028000
DOCKED: USER    NEWDPF tran0 19.127555 -2.881740 2.555725
DOCKED: USER    NEWDPF quaternion0 0.730199 0.061557 -0.407272 -0.545114
DOCKED: USER    NEWDPF axisangle0 0.870984 0.073426 -0.485795 -113.935067
DOCKED: USER    NEWDPF quat0 0.870984 0.073426 -0.485795 -113.935067
DOCKED: USER    NEWDPF dihe0 122.85 -111.99 116.10 -6.88 -131.01 -111.38 -55.05 175.75 33.59 -136.99 -67.28 -13.38 44.76 
DOCKED: USER  keepresnum = 1 
DOCKED: USER  
DOCKED: REMARK  13 active torsions:
DOCKED: REMARK  status: ('A' for Active; 'I' for Inactive)
DOCKED: REMARK    1  A    between atoms: O_3  and  C_38 
DOCKED: REMARK    2  A    between atoms: O_4  and  C_40 
DOCKED: REMARK    3  A    between atoms: O_7  and  C_46 
DOCKED: REMARK    4  A    between atoms: O_9  and  C_48 
DOCKED: REMARK    5  A    between atoms: C_15  and  C_20 
DOCKED: REMARK    6  A    between atoms: C_16  and  C_23 
DOCKED: REMARK    7  A    between atoms: C_20  and  C_38 
DOCKED: REMARK    8  A    between atoms: C_23  and  C_40 
DOCKED: REMARK    9  A    between atoms: C_32  and  C_41 
DOCKED: REMARK   10  A    between atoms: C_37  and  C_45 
DOCKED: REMARK   11  A    between atoms: C_41  and  C_44 
DOCKED: REMARK   12  A    between atoms: C_44  and  C_46 
DOCKED: REMARK   13  A    between atoms: C_47  and  C_48 
DOCKED: USER                              x       y       z     vdW  Elec       q    Type
DOCKED: USER                           _______ _______ _______ _____ _____    ______ ____
DOCKED: ROOT
DOCKED: ATOM      1  O   UNL d   1      15.980  -2.116   7.482 -0.55 -0.02    -0.289 OA
DOCKED: ATOM      2  O   UNL d   1      15.618   1.325   0.816 -0.09 +0.00    -0.289 OA
DOCKED: ATOM      3  N   UNL d   1      18.153  -2.818   4.896 -0.12 +0.01    -0.247 NA
DOCKED: ATOM      4  N   UNL d   1      17.061  -1.228   2.636 -0.12 +0.01    -0.247 NA
DOCKED: ATOM      5  N   UNL d   1      18.762  -2.736   0.875 -0.08 +0.04    -0.354 N 
DOCKED: ATOM      6  N   UNL d   1      19.875  -4.394   3.224 -0.09 -0.03    -0.354 N 
DOCKED: ATOM      7  C   UNL d   1      17.746  -3.766   7.119 -0.17 -0.01    +0.084 A 
DOCKED: ATOM      8  C   UNL d   1      15.765   0.766   3.195 -0.15 -0.00    +0.084 A 
DOCKED: ATOM      9  C   UNL d   1      16.504  -0.493   3.659 -0.19 -0.00    +0.058 A 
DOCKED: ATOM     10  C   UNL d   1      18.530  -3.793   5.804 -0.15 +0.00    +0.058 A 
DOCKED: ATOM     11  C   UNL d   1      16.871  -2.591   6.802 -0.21 -0.01    +0.193 A 
DOCKED: ATOM     12  C   UNL d   1      17.231  -2.089   5.438 -0.20 -0.01    +0.109 A 
DOCKED: ATOM     13  C   UNL d   1      15.973   0.590   1.717 -0.06 -0.00    +0.193 A 
DOCKED: ATOM     14  C   UNL d   1      16.866  -5.008   7.289 -0.28 -0.01    +0.026 C 
DOCKED: ATOM     15  C   UNL d   1      16.559  -0.871   4.945 -0.25 -0.00    +0.055 C 
DOCKED: ATOM     16  C   UNL d   1      16.481   2.044   3.644 -0.06 +0.00    +0.026 C 
DOCKED: ATOM     17  C   UNL d   1      16.766  -0.659   1.511 -0.10 -0.00    +0.109 A 
DOCKED: ATOM     18  C   UNL d   1      19.555  -4.645   5.613 -0.17 +0.01    +0.050 C 
DOCKED: ATOM     19  C   UNL d   1      20.388  -4.686   4.467 -0.20 +0.01    +0.045 A 
DOCKED: ATOM     20  C   UNL d   1      17.991  -2.078  -0.048 -0.24 -0.01    +0.045 A 
DOCKED: ATOM     21  C   UNL d   1      17.087  -1.113   0.150 -0.26 -0.01    +0.057 C 
DOCKED: ATOM     22  C   UNL d   1      19.308  -3.597  -1.133 -0.31 +0.00    -0.019 A 
DOCKED: ATOM     23  C   UNL d   1      19.588  -3.673   0.314 -0.26 -0.01    +0.045 A 
DOCKED: ATOM     24  C   UNL d   1      18.362  -2.650  -1.342 -0.25 +0.01    -0.022 A 
DOCKED: ATOM     25  C   UNL d   1      20.828  -4.582   2.250 -0.22 +0.00    +0.049 A 
DOCKED: ATOM     26  C   UNL d   1      21.719  -5.037   4.301 -0.18 -0.01    -0.018 A 
DOCKED: ATOM     27  C   UNL d   1      21.997  -4.951   2.902 -0.19 +0.00    +0.003 A 
DOCKED: ATOM     28  C   UNL d   1      20.491  -4.494   0.872 -0.29 -0.00    +0.052 C 
DOCKED: ATOM     29  C   UNL d   1      17.760  -2.201  -2.629 -0.47 -0.01    +0.046 C 
DOCKED: ATOM     30  C   UNL d   1      22.677  -5.427   5.376 -0.13 +0.02    +0.046 C 
DOCKED: ATOM     31  H   UNL d   1      18.751  -2.471   1.854 +0.06 -0.01    +0.166 HD
DOCKED: ATOM     32  H   UNL d   1      18.912  -4.120   3.065 +0.06 +0.00    +0.166 HD
DOCKED: ENDROOT
DOCKED: BRANCH   7  33
DOCKED: ATOM     33  C   UNL d   1      18.580  -3.492   8.376 -0.05 -0.00    +0.141 C 
DOCKED: BRANCH  33  34
DOCKED: ATOM     34  C   UNL d   1      18.857  -2.027   8.579 -0.01 +0.00    +0.306 C 
DOCKED: ATOM     35  O   UNL d   1      19.678  -1.359   7.973 -0.01 -0.01    -0.251 OA
DOCKED: BRANCH  34  36
DOCKED: ATOM     36  O   UNL d   1      18.082  -1.480   9.532 -0.01 -0.00    -0.481 OA
DOCKED: ATOM     37  H   UNL d   1      17.165  -1.619   9.214 +0.05 +0.00    +0.295 HD
DOCKED: ENDBRANCH  34  36
DOCKED: ENDBRANCH  33  34
DOCKED: ENDBRANCH   7  33
DOCKED: BRANCH  27  38
DOCKED: ATOM     38  C   UNL d   1      23.258  -5.246   2.291 -0.15 +0.01    +0.017 C 
DOCKED: ATOM     39  C   UNL d   1      23.674  -4.772   1.107 -0.08 +0.02    +0.092 C 
DOCKED: BRANCH  39  40
DOCKED: ATOM     40  C   UNL d   1      24.999  -5.138   0.600 -0.02 +0.06    +0.330 C 
DOCKED: ATOM     41  O   UNL d   1      25.959  -4.410   0.434 -0.01 -0.03    -0.246 OA
DOCKED: BRANCH  40  42
DOCKED: ATOM     42  O   UNL d   1      25.043  -6.452   0.329 -0.01 -0.12    -0.477 OA
DOCKED: ATOM     43  H   UNL d   1      24.440  -6.554  -0.436 +0.05 +0.06    +0.295 HD
DOCKED: ENDBRANCH  40  42
DOCKED: ENDBRANCH  39  40
DOCKED: ENDBRANCH  27  38
DOCKED: BRANCH   8  44
DOCKED: ATOM     44  C   UNL d   1      14.272   0.819   3.537 -0.29 -0.00    +0.141 C 
DOCKED: BRANCH  44  45
DOCKED: ATOM     45  C   UNL d   1      13.632   2.140   3.201 -0.14 +0.02    +0.306 C 
DOCKED: ATOM     46  O   UNL d   1      13.399   3.052   3.975 -0.15 -0.02    -0.251 OA
DOCKED: BRANCH  45  47
DOCKED: ATOM     47  O   UNL d   1      13.290   2.231   1.903 -0.10 -0.03    -0.481 OA
DOCKED: ATOM     48  H   UNL d   1      14.143   2.204   1.420 +0.11 +0.01    +0.295 HD
DOCKED: ENDBRANCH  45  47
DOCKED: ENDBRANCH  44  45
DOCKED: ENDBRANCH   8  44
DOCKED: BRANCH  22  49
DOCKED: ATOM     49  C   UNL d   1      19.972  -4.459  -2.167 -0.31 -0.00    +0.048 C 
DOCKED: BRANCH  49  50
DOCKED: ATOM     50  C   UNL d   1      21.452  -4.679  -1.857 -0.22 +0.01    +0.125 C 
DOCKED: BRANCH  50  51
DOCKED: ATOM     51  C   UNL d   1      21.723  -6.120  -1.527 -0.19 +0.02    +0.305 C 
DOCKED: ATOM     52  O   UNL d   1      22.807  -6.664  -1.408 -0.10 -0.03    -0.251 OA
DOCKED: BRANCH  51  53
DOCKED: ATOM     53  O   UNL d   1      20.584  -6.824  -1.373 -0.18 +0.04    -0.481 OA
DOCKED: ATOM     54  H   UNL d   1      20.888  -7.751  -1.284 -0.44 -0.06    +0.295 HD
DOCKED: ENDBRANCH  51  53
DOCKED: ENDBRANCH  50  51
DOCKED: ENDBRANCH  49  50
DOCKED: ENDBRANCH  22  49
DOCKED: TORSDOF 13
DOCKED: TER
DOCKED: ENDMDL
________________________________________________________________________________


	BEGINNING GENETIC ALGORITHM DOCKING 4 of 100
Run: 4 Seed: 2132243498 1580427375 [ Run 4 of 100 GA/GALS ]
Beginning LAMARCKIAN GENETIC ALGORITHM (LGA), with a maximum of 25000000 energy evaluations.

Final-Value: -12.582


	FINAL GENETIC ALGORITHM DOCKED STATE
	_______________________________________________


Detailed state:  trans 0.764 15.803 15.970 quatxyzw -0.102560 -0.607620 0.733988 -0.285556 center 0.153 0.018 -0.028 ntor 13 178.4134 -169.4639 -118.8337 -48.1161 -148.1491 -61.1708 126.4571 -89.5298 26.9302 -34.7833 -101.6450 23.2037 -9.9459
State:	  0.764  15.803  15.970  -0.107 -0.634  0.766 -146.816    178.41 -169.46 -118.83  -48.12 -148.15  -61.17  126.46  -89.53   26.93  -34.78 -101.65   23.20   -9.95

DOCKED: MODEL        4
DOCKED: USER    Run = 4
DOCKED: USER    DPF = D:/Protein_go_brrr/autodock/final/mut_D99N/heme/dock.dpf
DOCKED: USER  
DOCKED: USER    Estimated Free Energy of Binding    =   -3.88 kcal/mol  [=(1)+(2)+(3)-(4)]
DOCKED: USER    Estimated Inhibition Constant, Ki   =    1.44 mM (millimolar)  [Temperature = 298.15 K]
DOCKED: USER    
DOCKED: USER    (1) Final Intermolecular Energy     =   -7.75 kcal/mol
DOCKED: USER        vdW + Hbond + desolv Energy     =   -7.72 kcal/mol
DOCKED: USER        Electrostatic Energy            =   -0.03 kcal/mol
DOCKED: USER    (2) Final Total Internal Energy     =   -4.83 kcal/mol
DOCKED: USER    (3) Torsional Free Energy           =   +3.88 kcal/mol
DOCKED: USER    (4) Unbound System's Energy  [=(2)] =   -4.83 kcal/mol
DOCKED: USER    
DOCKED: USER    
DOCKED: USER    NEWDPF move heme_opt.pdbqt
DOCKED: USER    NEWDPF about 0.153000 0.018000 -0.028000
DOCKED: USER    NEWDPF tran0 0.763534 15.802862 15.969552
DOCKED: USER    NEWDPF quaternion0 -0.102560 -0.607620 0.733988 -0.285556
DOCKED: USER    NEWDPF axisangle0 -0.107016 -0.634019 0.765877 -146.815857
DOCKED: USER    NEWDPF quat0 -0.107016 -0.634019 0.765877 -146.815857
DOCKED: USER    NEWDPF dihe0 178.41 -169.46 -118.83 -48.12 -148.15 -61.17 126.46 -89.53 26.93 -34.78 -101.65 23.20 -9.95 
DOCKED: USER  keepresnum = 1 
DOCKED: USER  
DOCKED: REMARK  13 active torsions:
DOCKED: REMARK  status: ('A' for Active; 'I' for Inactive)
DOCKED: REMARK    1  A    between atoms: O_3  and  C_38 
DOCKED: REMARK    2  A    between atoms: O_4  and  C_40 
DOCKED: REMARK    3  A    between atoms: O_7  and  C_46 
DOCKED: REMARK    4  A    between atoms: O_9  and  C_48 
DOCKED: REMARK    5  A    between atoms: C_15  and  C_20 
DOCKED: REMARK    6  A    between atoms: C_16  and  C_23 
DOCKED: REMARK    7  A    between atoms: C_20  and  C_38 
DOCKED: REMARK    8  A    between atoms: C_23  and  C_40 
DOCKED: REMARK    9  A    between atoms: C_32  and  C_41 
DOCKED: REMARK   10  A    between atoms: C_37  and  C_45 
DOCKED: REMARK   11  A    between atoms: C_41  and  C_44 
DOCKED: REMARK   12  A    between atoms: C_44  and  C_46 
DOCKED: REMARK   13  A    between atoms: C_47  and  C_48 
DOCKED: USER                              x       y       z     vdW  Elec       q    Type
DOCKED: USER                           _______ _______ _______ _____ _____    ______ ____
DOCKED: ROOT
DOCKED: ATOM      1  O   UNL d   1       4.522  12.045  13.418 -0.21 +0.01    -0.289 OA
DOCKED: ATOM      2  O   UNL d   1       5.144  16.151  19.674 -0.02 +0.02    -0.289 OA
DOCKED: ATOM      3  N   UNL d   1       2.075  14.240  14.463 -0.13 +0.07    -0.247 NA
DOCKED: ATOM      4  N   UNL d   1       3.057  15.143  17.118 -0.12 +0.06    -0.247 NA
DOCKED: ATOM      5  N   UNL d   1       0.443  16.235  17.610 +0.02 +0.10    -0.354 N 
DOCKED: ATOM      6  N   UNL d   1      -0.573  15.278  14.861 -0.07 +0.10    -0.354 N 
DOCKED: ATOM      7  C   UNL d   1       2.261  12.587  12.663 -0.48 -0.01    +0.084 A 
DOCKED: ATOM      8  C   UNL d   1       5.469  15.068  17.503 -0.09 -0.01    +0.084 A 
DOCKED: ATOM      9  C   UNL d   1       4.271  14.753  16.600 -0.18 -0.01    +0.058 A 
DOCKED: ATOM     10  C   UNL d   1       1.429  13.646  13.392 -0.37 -0.01    +0.058 A 
DOCKED: ATOM     11  C   UNL d   1       3.499  12.700  13.500 -0.29 -0.02    +0.193 A 
DOCKED: ATOM     12  C   UNL d   1       3.271  13.753  14.540 -0.25 -0.02    +0.109 A 
DOCKED: ATOM     13  C   UNL d   1       4.705  15.675  18.646 -0.06 -0.02    +0.193 A 
DOCKED: ATOM     14  C   UNL d   1       1.676  11.182  12.831 -0.76 -0.00    +0.026 C 
DOCKED: ATOM     15  C   UNL d   1       4.395  14.107  15.430 -0.21 -0.00    +0.055 C 
DOCKED: ATOM     16  C   UNL d   1       6.375  16.141  16.891 -0.04 -0.00    +0.026 C 
DOCKED: ATOM     17  C   UNL d   1       3.253  15.655  18.291 -0.13 -0.02    +0.109 A 
DOCKED: ATOM     18  C   UNL d   1       0.211  14.012  12.948 -0.25 -0.01    +0.050 C 
DOCKED: ATOM     19  C   UNL d   1      -0.593  15.038  13.506 -0.29 -0.01    +0.045 A 
DOCKED: ATOM     20  C   UNL d   1       0.992  16.366  18.859 -0.15 -0.01    +0.045 A 
DOCKED: ATOM     21  C   UNL d   1       2.252  16.150  19.247 -0.14 -0.01    +0.057 C 
DOCKED: ATOM     22  C   UNL d   1      -1.224  16.914  18.964 -0.11 +0.00    -0.019 A 
DOCKED: ATOM     23  C   UNL d   1      -0.891  16.544  17.574 -0.07 -0.01    +0.045 A 
DOCKED: ATOM     24  C   UNL d   1      -0.105  16.809  19.720 -0.11 +0.00    -0.022 A 
DOCKED: ATOM     25  C   UNL d   1      -1.490  16.248  15.194 -0.16 -0.01    +0.049 A 
DOCKED: ATOM     26  C   UNL d   1      -1.520  15.899  12.939 -0.20 +0.00    -0.018 A 
DOCKED: ATOM     27  C   UNL d   1      -2.069  16.674  14.007 -0.11 -0.00    +0.003 A 
DOCKED: ATOM     28  C   UNL d   1      -1.763  16.556  16.554 -0.12 -0.01    +0.052 C 
DOCKED: ATOM     29  C   UNL d   1       0.069  17.085  21.174 -0.05 -0.01    +0.046 C 
DOCKED: ATOM     30  C   UNL d   1      -1.875  16.000  11.494 -0.27 -0.01    +0.046 C 
DOCKED: ATOM     31  H   UNL d   1       1.016  16.009  16.804 -0.40 -0.07    +0.166 HD
DOCKED: ATOM     32  H   UNL d   1       0.014  14.769  15.511 -0.40 -0.10    +0.166 HD
DOCKED: ENDROOT
DOCKED: BRANCH   7  33
DOCKED: ATOM     33  C   UNL d   1       2.575  12.893  11.195 -0.38 -0.03    +0.141 C 
DOCKED: BRANCH  33  34
DOCKED: ATOM     34  C   UNL d   1       3.631  13.953  11.037 -0.13 -0.06    +0.306 C 
DOCKED: ATOM     35  O   UNL d   1       3.436  15.148  10.890 -0.16 +0.02    -0.251 OA
DOCKED: BRANCH  34  36
DOCKED: ATOM     36  O   UNL d   1       4.878  13.452  11.076 -0.03 +0.14    -0.481 OA
DOCKED: ATOM     37  H   UNL d   1       4.755  12.498  11.270 -0.29 -0.10    +0.295 HD
DOCKED: ENDBRANCH  34  36
DOCKED: ENDBRANCH  33  34
DOCKED: ENDBRANCH   7  33
DOCKED: BRANCH  27  38
DOCKED: ATOM     38  C   UNL d   1      -3.078  17.679  13.863 -0.05 -0.00    +0.017 C 
DOCKED: ATOM     39  C   UNL d   1      -2.938  18.971  14.196 -0.01 -0.01    +0.092 C 
DOCKED: BRANCH  39  40
DOCKED: ATOM     40  C   UNL d   1      -4.046  19.905  13.982 +0.00 -0.02    +0.330 C 
DOCKED: ATOM     41  O   UNL d   1      -4.553  20.227  12.924 -0.00 +0.01    -0.246 OA
DOCKED: BRANCH  40  42
DOCKED: ATOM     42  O   UNL d   1      -4.474  20.392  15.157 +0.00 +0.03    -0.477 OA
DOCKED: ATOM     43  H   UNL d   1      -3.793  20.096  15.796 +0.00 -0.02    +0.295 HD
DOCKED: ENDBRANCH  40  42
DOCKED: ENDBRANCH  39  40
DOCKED: ENDBRANCH  27  38
DOCKED: BRANCH   8  44
DOCKED: ATOM     44  C   UNL d   1       6.281  13.856  17.969 -0.12 -0.01    +0.141 C 
DOCKED: BRANCH  44  45
DOCKED: ATOM     45  C   UNL d   1       5.708  13.190  19.191 -0.11 -0.03    +0.306 C 
DOCKED: ATOM     46  O   UNL d   1       4.798  12.379  19.218 -0.17 +0.01    -0.251 OA
DOCKED: BRANCH  45  47
DOCKED: ATOM     47  O   UNL d   1       6.297  13.604  20.327 -0.01 +0.06    -0.481 OA
DOCKED: ATOM     48  H   UNL d   1       6.128  14.570  20.356 +0.04 -0.03    +0.295 HD
DOCKED: ENDBRANCH  45  47
DOCKED: ENDBRANCH  44  45
DOCKED: ENDBRANCH   8  44
DOCKED: BRANCH  22  49
DOCKED: ATOM     49  C   UNL d   1      -2.594  17.319  19.424 -0.07 -0.00    +0.048 C 
DOCKED: BRANCH  49  50
DOCKED: ATOM     50  C   UNL d   1      -2.780  18.835  19.389 -0.01 -0.01    +0.125 C 
DOCKED: BRANCH  50  51
DOCKED: ATOM     51  C   UNL d   1      -3.060  19.309  17.991 -0.00 -0.02    +0.305 C 
DOCKED: ATOM     52  O   UNL d   1      -2.262  19.748  17.181 -0.00 +0.02    -0.251 OA
DOCKED: BRANCH  51  53
DOCKED: ATOM     53  O   UNL d   1      -4.368  19.216  17.680 +0.00 +0.04    -0.481 OA
DOCKED: ATOM     54  H   UNL d   1      -4.585  20.092  17.297 +0.00 -0.02    +0.295 HD
DOCKED: ENDBRANCH  51  53
DOCKED: ENDBRANCH  50  51
DOCKED: ENDBRANCH  49  50
DOCKED: ENDBRANCH  22  49
DOCKED: TORSDOF 13
DOCKED: TER
DOCKED: ENDMDL
________________________________________________________________________________


	BEGINNING GENETIC ALGORITHM DOCKING 5 of 100
Run: 5 Seed: 985300012 11615690 [ Run 5 of 100 GA/GALS ]
Beginning LAMARCKIAN GENETIC ALGORITHM (LGA), with a maximum of 25000000 energy evaluations.

Final-Value: -10.445


	FINAL GENETIC ALGORITHM DOCKED STATE
	_______________________________________________


Detailed state:  trans 1.679 5.940 -13.480 quatxyzw -0.817947 0.294213 -0.162907 -0.466758 center 0.153 0.018 -0.028 ntor 13 155.4245 114.5212 143.8271 -119.3913 -140.2197 85.4812 163.4099 -53.1735 23.1040 -10.2114 94.6679 63.4176 -17.2092
State:	  1.679   5.940 -13.480  -0.925  0.333 -0.184 -124.352    155.42  114.52  143.83 -119.39 -140.22   85.48  163.41  -53.17   23.10  -10.21   94.67   63.42  -17.21

DOCKED: MODEL        5
DOCKED: USER    Run = 5
DOCKED: USER    DPF = D:/Protein_go_brrr/autodock/final/mut_D99N/heme/dock.dpf
DOCKED: USER  
DOCKED: USER    Estimated Free Energy of Binding    =   -4.31 kcal/mol  [=(1)+(2)+(3)-(4)]
DOCKED: USER    Estimated Inhibition Constant, Ki   =  697.11 uM (micromolar)  [Temperature = 298.15 K]
DOCKED: USER    
DOCKED: USER    (1) Final Intermolecular Energy     =   -8.18 kcal/mol
DOCKED: USER        vdW + Hbond + desolv Energy     =   -7.83 kcal/mol
DOCKED: USER        Electrostatic Energy            =   -0.35 kcal/mol
DOCKED: USER    (2) Final Total Internal Energy     =   -2.26 kcal/mol
DOCKED: USER    (3) Torsional Free Energy           =   +3.88 kcal/mol
DOCKED: USER    (4) Unbound System's Energy  [=(2)] =   -2.26 kcal/mol
DOCKED: USER    
DOCKED: USER    
DOCKED: USER    NEWDPF move heme_opt.pdbqt
DOCKED: USER    NEWDPF about 0.153000 0.018000 -0.028000
DOCKED: USER    NEWDPF tran0 1.679254 5.939774 -13.480260
DOCKED: USER    NEWDPF quaternion0 -0.817947 0.294213 -0.162907 -0.466758
DOCKED: USER    NEWDPF axisangle0 -0.924876 0.332675 -0.184204 -124.351926
DOCKED: USER    NEWDPF quat0 -0.924876 0.332675 -0.184204 -124.351926
DOCKED: USER    NEWDPF dihe0 155.42 114.52 143.83 -119.39 -140.22 85.48 163.41 -53.17 23.10 -10.21 94.67 63.42 -17.21 
DOCKED: USER  keepresnum = 1 
DOCKED: USER  
DOCKED: REMARK  13 active torsions:
DOCKED: REMARK  status: ('A' for Active; 'I' for Inactive)
DOCKED: REMARK    1  A    between atoms: O_3  and  C_38 
DOCKED: REMARK    2  A    between atoms: O_4  and  C_40 
DOCKED: REMARK    3  A    between atoms: O_7  and  C_46 
DOCKED: REMARK    4  A    between atoms: O_9  and  C_48 
DOCKED: REMARK    5  A    between atoms: C_15  and  C_20 
DOCKED: REMARK    6  A    between atoms: C_16  and  C_23 
DOCKED: REMARK    7  A    between atoms: C_20  and  C_38 
DOCKED: REMARK    8  A    between atoms: C_23  and  C_40 
DOCKED: REMARK    9  A    between atoms: C_32  and  C_41 
DOCKED: REMARK   10  A    between atoms: C_37  and  C_45 
DOCKED: REMARK   11  A    between atoms: C_41  and  C_44 
DOCKED: REMARK   12  A    between atoms: C_44  and  C_46 
DOCKED: REMARK   13  A    between atoms: C_47  and  C_48 
DOCKED: USER                              x       y       z     vdW  Elec       q    Type
DOCKED: USER                           _______ _______ _______ _____ _____    ______ ____
DOCKED: ROOT
DOCKED: ATOM      1  O   UNL d   1      -2.868   9.266 -15.217 -0.11 -0.01    -0.289 OA
DOCKED: ATOM      2  O   UNL d   1       0.364   8.464  -8.487 -0.28 +0.07    -0.289 OA
DOCKED: ATOM      3  N   UNL d   1      -0.275   7.066 -14.640 -0.06 +0.01    -0.247 NA
DOCKED: ATOM      4  N   UNL d   1       0.518   7.664 -11.840 -0.01 +0.05    -0.247 NA
DOCKED: ATOM      5  N   UNL d   1       2.914   6.140 -12.291 -0.10 -0.04    -0.354 N 
DOCKED: ATOM      6  N   UNL d   1       2.092   5.540 -15.201 +0.04 -0.10    -0.354 N 
DOCKED: ATOM      7  C   UNL d   1      -1.499   7.813 -16.628 -0.04 +0.01    +0.084 A 
DOCKED: ATOM      8  C   UNL d   1      -1.191   8.609 -10.371 -0.24 -0.01    +0.084 A 
DOCKED: ATOM      9  C   UNL d   1      -0.767   8.154 -11.772 -0.09 -0.01    +0.058 A 
DOCKED: ATOM     10  C   UNL d   1      -0.395   6.947 -16.015 -0.09 +0.01    +0.058 A 
DOCKED: ATOM     11  C   UNL d   1      -1.995   8.428 -15.354 -0.06 +0.01    +0.193 A 
DOCKED: ATOM     12  C   UNL d   1      -1.191   7.876 -14.218 -0.09 -0.00    +0.109 A 
DOCKED: ATOM     13  C   UNL d   1       0.105   8.323  -9.666 -0.23 -0.03    +0.193 A 
DOCKED: ATOM     14  C   UNL d   1      -0.932   8.918 -17.524 -0.01 +0.00    +0.026 C 
DOCKED: ATOM     15  C   UNL d   1      -1.564   8.271 -12.845 -0.15 -0.01    +0.055 C 
DOCKED: ATOM     16  C   UNL d   1      -2.281   7.706  -9.786 -0.54 -0.00    +0.026 C 
DOCKED: ATOM     17  C   UNL d   1       1.059   7.761 -10.668 -0.19 -0.01    +0.109 A 
DOCKED: ATOM     18  C   UNL d   1       0.321   6.086 -16.763 -0.08 +0.01    +0.050 C 
DOCKED: ATOM     19  C   UNL d   1       1.302   5.188 -16.271 -0.02 +0.01    +0.045 A 
DOCKED: ATOM     20  C   UNL d   1       3.217   6.701 -11.077 -0.19 +0.01    +0.045 A 
DOCKED: ATOM     21  C   UNL d   1       2.434   7.424 -10.270 -0.05 +0.01    +0.057 C 
DOCKED: ATOM     22  C   UNL d   1       5.061   5.608 -11.866 -0.10 -0.00    -0.019 A 
DOCKED: ATOM     23  C   UNL d   1       3.966   5.460 -12.845 -0.14 +0.01    +0.045 A 
DOCKED: ATOM     24  C   UNL d   1       4.611   6.342 -10.821 -0.16 -0.00    -0.022 A 
DOCKED: ATOM     25  C   UNL d   1       3.030   4.564 -14.951 -0.04 +0.01    +0.049 A 
DOCKED: ATOM     26  C   UNL d   1       1.711   3.936 -16.704 -0.07 -0.01    -0.018 A 
DOCKED: ATOM     27  C   UNL d   1       2.789   3.539 -15.854 -0.09 +0.00    +0.003 A 
DOCKED: ATOM     28  C   UNL d   1       4.059   4.771 -13.993 -0.13 +0.01    +0.052 C 
DOCKED: ATOM     29  C   UNL d   1       5.338   6.749  -9.585 -0.14 +0.02    +0.046 C 
DOCKED: ATOM     30  C   UNL d   1       1.136   3.153 -17.836 -0.07 +0.02    +0.046 C 
DOCKED: ATOM     31  H   UNL d   1       1.973   6.178 -12.668 -0.08 +0.01    +0.166 HD
DOCKED: ATOM     32  H   UNL d   1       2.006   6.420 -14.706 +0.01 +0.03    +0.166 HD
DOCKED: ENDROOT
DOCKED: BRANCH   7  33
DOCKED: ATOM     33  C   UNL d   1      -2.625   7.044 -17.328 -0.04 +0.03    +0.141 C 
DOCKED: BRANCH  33  34
DOCKED: ATOM     34  C   UNL d   1      -3.511   6.307 -16.361 -0.07 +0.09    +0.306 C 
DOCKED: ATOM     35  O   UNL d   1      -3.316   5.189 -15.914 -0.15 -0.11    -0.251 OA
DOCKED: BRANCH  34  36
DOCKED: ATOM     36  O   UNL d   1      -4.595   7.019 -16.005 -0.05 -0.09    -0.481 OA
DOCKED: ATOM     37  H   UNL d   1      -4.319   7.954 -16.104 +0.08 +0.03    +0.295 HD
DOCKED: ENDBRANCH  34  36
DOCKED: ENDBRANCH  33  34
DOCKED: ENDBRANCH   7  33
DOCKED: BRANCH  27  38
DOCKED: ATOM     38  C   UNL d   1       3.517   2.311 -15.964 -0.14 +0.00    +0.017 C 
DOCKED: ATOM     39  C   UNL d   1       3.101   1.120 -15.505 -0.25 +0.03    +0.092 C 
DOCKED: BRANCH  39  40
DOCKED: ATOM     40  C   UNL d   1       3.936  -0.068 -15.698 -0.21 +0.10    +0.330 C 
DOCKED: ATOM     41  O   UNL d   1       4.869  -0.441 -15.012 -0.31 -0.07    -0.246 OA
DOCKED: BRANCH  40  42
DOCKED: ATOM     42  O   UNL d   1       3.526  -0.751 -16.778 -0.32 -0.16    -0.477 OA
DOCKED: ATOM     43  H   UNL d   1       2.631  -1.063 -16.533 -0.44 +0.04    +0.295 HD
DOCKED: ENDBRANCH  40  42
DOCKED: ENDBRANCH  39  40
DOCKED: ENDBRANCH  27  38
DOCKED: BRANCH   8  44
DOCKED: ATOM     44  C   UNL d   1      -1.570  10.089 -10.245 -0.22 -0.03    +0.141 C 
DOCKED: BRANCH  44  45
DOCKED: ATOM     45  C   UNL d   1      -0.448  11.023 -10.615 -0.07 -0.08    +0.306 C 
DOCKED: ATOM     46  O   UNL d   1      -0.457  11.850 -11.510 -0.03 +0.04    -0.251 OA
DOCKED: BRANCH  45  47
DOCKED: ATOM     47  O   UNL d   1       0.643  10.845  -9.849 -0.07 +0.28    -0.481 OA
DOCKED: ATOM     48  H   UNL d   1       0.290  10.648  -8.955 -0.38 -0.36    +0.295 HD
DOCKED: ENDBRANCH  45  47
DOCKED: ENDBRANCH  44  45
DOCKED: ENDBRANCH   8  44
DOCKED: BRANCH  22  49
DOCKED: ATOM     49  C   UNL d   1       6.436   5.036 -12.047 -0.11 +0.01    +0.048 C 
DOCKED: BRANCH  49  50
DOCKED: ATOM     50  C   UNL d   1       6.624   3.744 -11.252 -0.04 +0.02    +0.125 C 
DOCKED: BRANCH  50  51
DOCKED: ATOM     51  C   UNL d   1       7.016   4.040  -9.832 -0.12 +0.09    +0.305 C 
DOCKED: ATOM     52  O   UNL d   1       7.997   4.651  -9.444 -0.36 -0.08    -0.251 OA
DOCKED: BRANCH  51  53
DOCKED: ATOM     53  O   UNL d   1       6.137   3.528  -8.949 -0.65 -0.16    -0.481 OA
DOCKED: ATOM     54  H   UNL d   1       6.158   2.563  -9.124 -0.29 -0.02    +0.295 HD
DOCKED: ENDBRANCH  51  53
DOCKED: ENDBRANCH  50  51
DOCKED: ENDBRANCH  49  50
DOCKED: ENDBRANCH  22  49
DOCKED: TORSDOF 13
DOCKED: TER
DOCKED: ENDMDL
________________________________________________________________________________


	BEGINNING GENETIC ALGORITHM DOCKING 6 of 100
Run: 6 Seed: 561390701 645558232 [ Run 6 of 100 GA/GALS ]
Beginning LAMARCKIAN GENETIC ALGORITHM (LGA), with a maximum of 25000000 energy evaluations.

Final-Value: -11.590


	FINAL GENETIC ALGORITHM DOCKED STATE
	_______________________________________________


Detailed state:  trans 3.821 16.674 0.991 quatxyzw 0.744540 0.391552 0.526148 0.124562 center 0.153 0.018 -0.028 ntor 13 -132.7592 149.3370 -175.6256 -61.9431 60.6655 -49.0057 -69.0063 -21.6178 159.5212 -143.6267 -64.1123 -5.9685 9.1753
State:	  3.821  16.674   0.991   0.750  0.395  0.530 165.689   -132.76  149.34 -175.63  -61.94   60.67  -49.01  -69.01  -21.62  159.52 -143.63  -64.11   -5.97    9.18

DOCKED: MODEL        6
DOCKED: USER    Run = 6
DOCKED: USER    DPF = D:/Protein_go_brrr/autodock/final/mut_D99N/heme/dock.dpf
DOCKED: USER  
DOCKED: USER    Estimated Free Energy of Binding    =   -3.41 kcal/mol  [=(1)+(2)+(3)-(4)]
DOCKED: USER    Estimated Inhibition Constant, Ki   =    3.16 mM (millimolar)  [Temperature = 298.15 K]
DOCKED: USER    
DOCKED: USER    (1) Final Intermolecular Energy     =   -7.29 kcal/mol
DOCKED: USER        vdW + Hbond + desolv Energy     =   -7.13 kcal/mol
DOCKED: USER        Electrostatic Energy            =   -0.16 kcal/mol
DOCKED: USER    (2) Final Total Internal Energy     =   -4.30 kcal/mol
DOCKED: USER    (3) Torsional Free Energy           =   +3.88 kcal/mol
DOCKED: USER    (4) Unbound System's Energy  [=(2)] =   -4.30 kcal/mol
DOCKED: USER    
DOCKED: USER    
DOCKED: USER    NEWDPF move heme_opt.pdbqt
DOCKED: USER    NEWDPF about 0.153000 0.018000 -0.028000
DOCKED: USER    NEWDPF tran0 3.821491 16.674341 0.991151
DOCKED: USER    NEWDPF quaternion0 0.744540 0.391552 0.526148 0.124562
DOCKED: USER    NEWDPF axisangle0 0.750384 0.394626 0.530278 165.689108
DOCKED: USER    NEWDPF quat0 0.750384 0.394626 0.530278 165.689108
DOCKED: USER    NEWDPF dihe0 -132.76 149.34 -175.63 -61.94 60.67 -49.01 -69.01 -21.62 159.52 -143.63 -64.11 -5.97 9.18 
DOCKED: USER  keepresnum = 1 
DOCKED: USER  
DOCKED: REMARK  13 active torsions:
DOCKED: REMARK  status: ('A' for Active; 'I' for Inactive)
DOCKED: REMARK    1  A    between atoms: O_3  and  C_38 
DOCKED: REMARK    2  A    between atoms: O_4  and  C_40 
DOCKED: REMARK    3  A    between atoms: O_7  and  C_46 
DOCKED: REMARK    4  A    between atoms: O_9  and  C_48 
DOCKED: REMARK    5  A    between atoms: C_15  and  C_20 
DOCKED: REMARK    6  A    between atoms: C_16  and  C_23 
DOCKED: REMARK    7  A    between atoms: C_20  and  C_38 
DOCKED: REMARK    8  A    between atoms: C_23  and  C_40 
DOCKED: REMARK    9  A    between atoms: C_32  and  C_41 
DOCKED: REMARK   10  A    between atoms: C_37  and  C_45 
DOCKED: REMARK   11  A    between atoms: C_41  and  C_44 
DOCKED: REMARK   12  A    between atoms: C_44  and  C_46 
DOCKED: REMARK   13  A    between atoms: C_47  and  C_48 
DOCKED: USER                              x       y       z     vdW  Elec       q    Type
DOCKED: USER                           _______ _______ _______ _____ _____    ______ ____
DOCKED: ROOT
DOCKED: ATOM      1  O   UNL d   1       4.688  13.407  -3.839 -0.17 +0.00    -0.289 OA
DOCKED: ATOM      2  O   UNL d   1      -1.093  17.740  -1.792 -0.05 -0.04    -0.289 OA
DOCKED: ATOM      3  N   UNL d   1       4.566  15.049  -0.809 -0.16 -0.01    -0.247 NA
DOCKED: ATOM      4  N   UNL d   1       2.110  16.708  -1.029 -0.14 -0.01    -0.247 NA
DOCKED: ATOM      5  N   UNL d   1       2.993  18.159   1.291 -0.07 -0.02    -0.354 N 
DOCKED: ATOM      6  N   UNL d   1       5.547  16.446   1.501 -0.05 -0.01    -0.354 N 
DOCKED: ATOM      7  C   UNL d   1       6.254  13.720  -1.988 -0.16 +0.01    +0.084 A 
DOCKED: ATOM      8  C   UNL d   1       0.360  15.918  -2.540 -0.19 +0.00    +0.084 A 
DOCKED: ATOM      9  C   UNL d   1       1.774  15.762  -1.972 -0.22 -0.00    +0.058 A 
DOCKED: ATOM     10  C   UNL d   1       5.853  14.542  -0.759 -0.21 +0.00    +0.058 A 
DOCKED: ATOM     11  C   UNL d   1       4.958  13.838  -2.732 -0.17 +0.01    +0.193 A 
DOCKED: ATOM     12  C   UNL d   1       4.008  14.645  -1.903 -0.22 -0.00    +0.109 A 
DOCKED: ATOM     13  C   UNL d   1      -0.031  17.149  -1.773 -0.11 +0.01    +0.193 A 
DOCKED: ATOM     14  C   UNL d   1       7.356  14.402  -2.801 -0.06 +0.00    +0.026 C 
DOCKED: ATOM     15  C   UNL d   1       2.627  14.816  -2.396 -0.31 -0.00    +0.055 C 
DOCKED: ATOM     16  C   UNL d   1      -0.553  14.763  -2.117 -0.43 +0.00    +0.026 C 
DOCKED: ATOM     17  C   UNL d   1       1.119  17.530  -0.899 -0.18 +0.01    +0.109 A 
DOCKED: ATOM     18  C   UNL d   1       6.673  14.665   0.302 -0.22 +0.00    +0.050 C 
DOCKED: ATOM     19  C   UNL d   1       6.356  15.332   1.513 -0.21 +0.00    +0.045 A 
DOCKED: ATOM     20  C   UNL d   1       1.946  18.952   0.901 -0.18 +0.00    +0.045 A 
DOCKED: ATOM     21  C   UNL d   1       1.040  18.734  -0.058 -0.18 +0.00    +0.057 C 
DOCKED: ATOM     22  C   UNL d   1       3.059  19.984   2.608 -0.10 -0.00    -0.019 A 
DOCKED: ATOM     23  C   UNL d   1       3.723  18.699   2.316 -0.12 +0.00    +0.045 A 
DOCKED: ATOM     24  C   UNL d   1       2.006  20.128   1.768 -0.10 -0.00    -0.022 A 
DOCKED: ATOM     25  C   UNL d   1       5.447  16.984   2.763 -0.02 +0.00    +0.049 A 
DOCKED: ATOM     26  C   UNL d   1       6.761  15.119   2.821 -0.27 +0.00    -0.018 A 
DOCKED: ATOM     27  C   UNL d   1       6.168  16.153   3.609 -0.25 -0.00    +0.003 A 
DOCKED: ATOM     28  C   UNL d   1       4.792  18.228   2.976 -0.13 +0.00    +0.052 C 
DOCKED: ATOM     29  C   UNL d   1       1.027  21.249   1.683 -0.05 +0.00    +0.046 C 
DOCKED: ATOM     30  C   UNL d   1       7.643  14.021   3.313 -0.29 -0.00    +0.046 C 
DOCKED: ATOM     31  H   UNL d   1       3.131  17.236   0.892 +0.04 +0.01    +0.166 HD
DOCKED: ATOM     32  H   UNL d   1       5.128  16.825   0.660 +0.04 +0.01    +0.166 HD
DOCKED: ENDROOT
DOCKED: BRANCH   7  33
DOCKED: ATOM     33  C   UNL d   1       6.585  12.249  -1.715 -0.20 +0.04    +0.141 C 
DOCKED: BRANCH  33  34
DOCKED: ATOM     34  C   UNL d   1       7.549  11.676  -2.718 -0.13 +0.11    +0.306 C 
DOCKED: ATOM     35  O   UNL d   1       8.682  11.288  -2.488 -0.07 -0.07    -0.251 OA
DOCKED: BRANCH  34  36
DOCKED: ATOM     36  O   UNL d   1       7.034  11.621  -3.959 -0.57 -0.42    -0.481 OA
DOCKED: ATOM     37  H   UNL d   1       6.597  12.491  -4.084 +0.08 +0.22    +0.295 HD
DOCKED: ENDBRANCH  34  36
DOCKED: ENDBRANCH  33  34
DOCKED: ENDBRANCH   7  33
DOCKED: BRANCH  27  38
DOCKED: ATOM     38  C   UNL d   1       6.341  16.317   5.021 -0.24 -0.00    +0.017 C 
DOCKED: ATOM     39  C   UNL d   1       5.431  16.838   5.858 -0.24 -0.00    +0.092 C 
DOCKED: BRANCH  39  40
DOCKED: ATOM     40  C   UNL d   1       5.725  16.935   7.290 -0.09 -0.01    +0.330 C 
DOCKED: ATOM     41  O   UNL d   1       6.126  16.054   8.027 -0.12 +0.02    -0.246 OA
DOCKED: BRANCH  40  42
DOCKED: ATOM     42  O   UNL d   1       5.499  18.184   7.725 -0.01 +0.00    -0.477 OA
DOCKED: ATOM     43  H   UNL d   1       5.693  18.743   6.945 +0.04 -0.00    +0.295 HD
DOCKED: ENDBRANCH  40  42
DOCKED: ENDBRANCH  39  40
DOCKED: ENDBRANCH  27  38
DOCKED: BRANCH   8  44
DOCKED: ATOM     44  C   UNL d   1       0.278  16.163  -4.051 -0.12 -0.00    +0.141 C 
DOCKED: BRANCH  44  45
DOCKED: ATOM     45  C   UNL d   1      -1.111  15.994  -4.606 -0.10 +0.01    +0.306 C 
DOCKED: ATOM     46  O   UNL d   1      -1.485  15.126  -5.376 -0.32 -0.00    -0.251 OA
DOCKED: BRANCH  45  47
DOCKED: ATOM     47  O   UNL d   1      -1.956  16.950  -4.180 -0.04 -0.07    -0.481 OA
DOCKED: ATOM     48  H   UNL d   1      -1.398  17.553  -3.645 +0.06 +0.03    +0.295 HD
DOCKED: ENDBRANCH  45  47
DOCKED: ENDBRANCH  44  45
DOCKED: ENDBRANCH   8  44
DOCKED: BRANCH  22  49
DOCKED: ATOM     49  C   UNL d   1       3.518  20.950   3.661 -0.05 +0.00    +0.048 C 
DOCKED: BRANCH  49  50
DOCKED: ATOM     50  C   UNL d   1       3.182  20.459   5.069 -0.06 +0.00    +0.125 C 
DOCKED: BRANCH  50  51
DOCKED: ATOM     51  C   UNL d   1       4.433  20.217   5.865 -0.02 +0.01    +0.305 C 
DOCKED: ATOM     52  O   UNL d   1       5.535  19.911   5.443 -0.02 -0.00    -0.251 OA
DOCKED: BRANCH  51  53
DOCKED: ATOM     53  O   UNL d   1       4.225  20.363   7.188 +0.00 -0.01    -0.481 OA
DOCKED: ATOM     54  H   UNL d   1       4.415  19.476   7.559 +0.04 +0.00    +0.295 HD
DOCKED: ENDBRANCH  51  53
DOCKED: ENDBRANCH  50  51
DOCKED: ENDBRANCH  49  50
DOCKED: ENDBRANCH  22  49
DOCKED: TORSDOF 13
DOCKED: TER
DOCKED: ENDMDL
________________________________________________________________________________


	BEGINNING GENETIC ALGORITHM DOCKING 7 of 100
Run: 7 Seed: 322073360 924883669 [ Run 7 of 100 GA/GALS ]
Beginning LAMARCKIAN GENETIC ALGORITHM (LGA), with a maximum of 25000000 energy evaluations.

Final-Value: -10.520


	FINAL GENETIC ALGORITHM DOCKED STATE
	_______________________________________________


Detailed state:  trans -13.946 5.283 8.829 quatxyzw -0.849271 0.243170 0.286579 0.370783 center 0.153 0.018 -0.028 ntor 13 133.8082 19.5004 70.6055 -134.3672 -135.8484 -179.9924 -54.6724 -101.1399 18.2848 -179.1792 75.5442 -102.8418 178.0519
State:	-13.946   5.283   8.829  -0.914  0.262  0.309 136.472    133.81   19.50   70.61 -134.37 -135.85 -179.99  -54.67 -101.14   18.28 -179.18   75.54 -102.84  178.05

DOCKED: MODEL        7
DOCKED: USER    Run = 7
DOCKED: USER    DPF = D:/Protein_go_brrr/autodock/final/mut_D99N/heme/dock.dpf
DOCKED: USER  
DOCKED: USER    Estimated Free Energy of Binding    =   -4.77 kcal/mol  [=(1)+(2)+(3)-(4)]
DOCKED: USER    Estimated Inhibition Constant, Ki   =  320.10 uM (micromolar)  [Temperature = 298.15 K]
DOCKED: USER    
DOCKED: USER    (1) Final Intermolecular Energy     =   -8.65 kcal/mol
DOCKED: USER        vdW + Hbond + desolv Energy     =   -8.08 kcal/mol
DOCKED: USER        Electrostatic Energy            =   -0.57 kcal/mol
DOCKED: USER    (2) Final Total Internal Energy     =   -1.87 kcal/mol
DOCKED: USER    (3) Torsional Free Energy           =   +3.88 kcal/mol
DOCKED: USER    (4) Unbound System's Energy  [=(2)] =   -1.87 kcal/mol
DOCKED: USER    
DOCKED: USER    
DOCKED: USER    NEWDPF move heme_opt.pdbqt
DOCKED: USER    NEWDPF about 0.153000 0.018000 -0.028000
DOCKED: USER    NEWDPF tran0 -13.945754 5.282562 8.828531
DOCKED: USER    NEWDPF quaternion0 -0.849271 0.243170 0.286579 0.370783
DOCKED: USER    NEWDPF axisangle0 -0.914453 0.261833 0.308575 136.472131
DOCKED: USER    NEWDPF quat0 -0.914453 0.261833 0.308575 136.472131
DOCKED: USER    NEWDPF dihe0 133.81 19.50 70.61 -134.37 -135.85 -179.99 -54.67 -101.14 18.28 -179.18 75.54 -102.84 178.05 
DOCKED: USER  keepresnum = 1 
DOCKED: USER  
DOCKED: REMARK  13 active torsions:
DOCKED: REMARK  status: ('A' for Active; 'I' for Inactive)
DOCKED: REMARK    1  A    between atoms: O_3  and  C_38 
DOCKED: REMARK    2  A    between atoms: O_4  and  C_40 
DOCKED: REMARK    3  A    between atoms: O_7  and  C_46 
DOCKED: REMARK    4  A    between atoms: O_9  and  C_48 
DOCKED: REMARK    5  A    between atoms: C_15  and  C_20 
DOCKED: REMARK    6  A    between atoms: C_16  and  C_23 
DOCKED: REMARK    7  A    between atoms: C_20  and  C_38 
DOCKED: REMARK    8  A    between atoms: C_23  and  C_40 
DOCKED: REMARK    9  A    between atoms: C_32  and  C_41 
DOCKED: REMARK   10  A    between atoms: C_37  and  C_45 
DOCKED: REMARK   11  A    between atoms: C_41  and  C_44 
DOCKED: REMARK   12  A    between atoms: C_44  and  C_46 
DOCKED: REMARK   13  A    between atoms: C_47  and  C_48 
DOCKED: USER                              x       y       z     vdW  Elec       q    Type
DOCKED: USER                           _______ _______ _______ _____ _____    ______ ____
DOCKED: ROOT
DOCKED: ATOM      1  O   UNL d   1     -18.742   7.450  11.484 -0.01 -0.02    -0.289 OA
DOCKED: ATOM      2  O   UNL d   1     -13.827  10.659   6.801 -0.16 +0.10    -0.289 OA
DOCKED: ATOM      3  N   UNL d   1     -15.968   5.800  10.270 +0.06 -0.09    -0.247 NA
DOCKED: ATOM      4  N   UNL d   1     -14.832   7.723   8.310 -0.10 -0.01    -0.247 NA
DOCKED: ATOM      5  N   UNL d   1     -13.185   5.590   7.310 -0.09 -0.03    -0.354 N 
DOCKED: ATOM      6  N   UNL d   1     -14.383   3.596   9.333 -0.05 -0.13    -0.354 N 
DOCKED: ATOM      7  C   UNL d   1     -17.909   5.156  11.621 -0.03 +0.02    +0.084 A 
DOCKED: ATOM      8  C   UNL d   1     -15.308  10.094   8.666 -0.15 -0.02    +0.084 A 
DOCKED: ATOM      9  C   UNL d   1     -15.534   8.633   9.070 -0.14 +0.00    +0.058 A 
DOCKED: ATOM     10  C   UNL d   1     -16.599   4.761  10.933 -0.07 +0.02    +0.058 A 
DOCKED: ATOM     11  C   UNL d   1     -17.897   6.607  11.245 -0.02 +0.03    +0.193 A 
DOCKED: ATOM     12  C   UNL d   1     -16.657   6.879  10.450 -0.01 +0.02    +0.109 A 
DOCKED: ATOM     13  C   UNL d   1     -14.377   9.843   7.513 -0.14 -0.04    +0.193 A 
DOCKED: ATOM     14  C   UNL d   1     -19.123   4.487  10.972 -0.01 +0.00    +0.026 C 
DOCKED: ATOM     15  C   UNL d   1     -16.382   8.272  10.045 -0.10 +0.01    +0.055 C 
DOCKED: ATOM     16  C   UNL d   1     -14.552  10.871   9.748 -0.10 -0.01    +0.026 C 
DOCKED: ATOM     17  C   UNL d   1     -14.176   8.366   7.399 -0.19 -0.01    +0.109 A 
DOCKED: ATOM     18  C   UNL d   1     -16.085   3.522  11.057 -0.09 +0.02    +0.050 C 
DOCKED: ATOM     19  C   UNL d   1     -14.842   3.091  10.528 -0.12 +0.02    +0.045 A 
DOCKED: ATOM     20  C   UNL d   1     -12.952   6.538   6.348 -0.23 -0.00    +0.045 A 
DOCKED: ATOM     21  C   UNL d   1     -13.339   7.817   6.322 -0.24 -0.01    +0.057 C 
DOCKED: ATOM     22  C   UNL d   1     -11.974   4.577   5.703 -0.28 -0.00    -0.019 A 
DOCKED: ATOM     23  C   UNL d   1     -12.634   4.373   7.008 -0.23 +0.01    +0.045 A 
DOCKED: ATOM     24  C   UNL d   1     -12.164   5.861   5.319 -0.28 +0.00    -0.022 A 
DOCKED: ATOM     25  C   UNL d   1     -13.211   2.977   8.965 -0.18 +0.01    +0.049 A 
DOCKED: ATOM     26  C   UNL d   1     -13.927   2.146  10.967 -0.18 -0.01    -0.018 A 
DOCKED: ATOM     27  C   UNL d   1     -12.889   2.092   9.986 -0.22 +0.00    +0.003 A 
DOCKED: ATOM     28  C   UNL d   1     -12.627   3.218   7.692 -0.24 +0.01    +0.052 C 
DOCKED: ATOM     29  C   UNL d   1     -11.681   6.547   4.086 -0.38 -0.00    +0.046 C 
DOCKED: ATOM     30  C   UNL d   1     -14.009   1.343  12.220 -0.17 +0.02    +0.046 C 
DOCKED: ATOM     31  H   UNL d   1     -13.653   5.825   8.178 +0.05 +0.03    +0.166 HD
DOCKED: ATOM     32  H   UNL d   1     -14.877   4.297   8.794 +0.04 +0.06    +0.166 HD
DOCKED: ENDROOT
DOCKED: BRANCH   7  33
DOCKED: ATOM     33  C   UNL d   1     -17.925   4.995  13.145 -0.02 +0.03    +0.141 C 
DOCKED: BRANCH  33  34
DOCKED: ATOM     34  C   UNL d   1     -16.972   5.932  13.836 -0.05 +0.10    +0.306 C 
DOCKED: ATOM     35  O   UNL d   1     -15.772   5.764  13.977 -0.16 -0.14    -0.251 OA
DOCKED: BRANCH  34  36
DOCKED: ATOM     36  O   UNL d   1     -17.580   7.033  14.311 +0.00 -0.10    -0.481 OA
DOCKED: ATOM     37  H   UNL d   1     -18.119   7.361  13.560 +0.03 +0.04    +0.295 HD
DOCKED: ENDBRANCH  34  36
DOCKED: ENDBRANCH  33  34
DOCKED: ENDBRANCH   7  33
DOCKED: BRANCH  27  38
DOCKED: ATOM     38  C   UNL d   1     -11.747   1.231  10.040 -0.29 +0.01    +0.017 C 
DOCKED: ATOM     39  C   UNL d   1     -11.493   0.227   9.186 -0.30 +0.03    +0.092 C 
DOCKED: BRANCH  39  40
DOCKED: ATOM     40  C   UNL d   1     -10.274  -0.572   9.341 -0.27 +0.10    +0.330 C 
DOCKED: ATOM     41  O   UNL d   1      -9.922  -1.527   8.676 -0.44 -0.09    -0.246 OA
DOCKED: BRANCH  40  42
DOCKED: ATOM     42  O   UNL d   1      -9.537  -0.098  10.357 -0.29 -0.09    -0.477 OA
DOCKED: ATOM     43  H   UNL d   1      -8.643  -0.459  10.187 -0.36 -0.01    +0.295 HD
DOCKED: ENDBRANCH  40  42
DOCKED: ENDBRANCH  39  40
DOCKED: ENDBRANCH  27  38
DOCKED: BRANCH   8  44
DOCKED: ATOM     44  C   UNL d   1     -16.557  10.853   8.208 -0.04 -0.03    +0.141 C 
DOCKED: BRANCH  44  45
DOCKED: ATOM     45  C   UNL d   1     -16.716  12.193   8.876 -0.04 -0.14    +0.306 C 
DOCKED: ATOM     46  O   UNL d   1     -17.431  12.449   9.829 -0.03 +0.08    -0.251 OA
DOCKED: BRANCH  45  47
DOCKED: ATOM     47  O   UNL d   1     -15.982  13.153   8.286 -0.04 +0.40    -0.481 OA
DOCKED: ATOM     48  H   UNL d   1     -15.277  13.361   8.935 -0.43 -0.55    +0.295 HD
DOCKED: ENDBRANCH  45  47
DOCKED: ENDBRANCH  44  45
DOCKED: ENDBRANCH   8  44
DOCKED: BRANCH  22  49
DOCKED: ATOM     49  C   UNL d   1     -11.238   3.505   4.955 -0.27 +0.01    +0.048 C 
DOCKED: BRANCH  49  50
DOCKED: ATOM     50  C   UNL d   1     -12.133   2.813   3.926 -0.21 +0.03    +0.125 C 
DOCKED: BRANCH  50  51
DOCKED: ATOM     51  C   UNL d   1     -12.569   1.462   4.418 -0.11 +0.18    +0.305 C 
DOCKED: ATOM     52  O   UNL d   1     -12.191   0.371   4.027 -0.76 -0.29    -0.251 OA
DOCKED: BRANCH  51  53
DOCKED: ATOM     53  O   UNL d   1     -13.494   1.555   5.394 -0.02 -0.23    -0.481 OA
DOCKED: ATOM     54  H   UNL d   1     -14.123   2.229   5.063 +0.07 +0.10    +0.295 HD
DOCKED: ENDBRANCH  51  53
DOCKED: ENDBRANCH  50  51
DOCKED: ENDBRANCH  49  50
DOCKED: ENDBRANCH  22  49
DOCKED: TORSDOF 13
DOCKED: TER
DOCKED: ENDMDL
________________________________________________________________________________


	BEGINNING GENETIC ALGORITHM DOCKING 8 of 100
Run: 8 Seed: 893019132 2144464277 [ Run 8 of 100 GA/GALS ]
Beginning LAMARCKIAN GENETIC ALGORITHM (LGA), with a maximum of 25000000 energy evaluations.

Final-Value: -10.329


	FINAL GENETIC ALGORITHM DOCKED STATE
	_______________________________________________


Detailed state:  trans 8.251 12.991 2.409 quatxyzw -0.478694 -0.524112 -0.703836 0.027798 center 0.153 0.018 -0.028 ntor 13 -179.0392 76.9000 -169.7227 81.8282 -154.6827 -175.5322 -60.7223 96.9361 9.7752 -138.3990 123.2059 -60.5665 -179.9043
State:	  8.251  12.991   2.409  -0.479 -0.524 -0.704 176.814   -179.04   76.90 -169.72   81.83 -154.68 -175.53  -60.72   96.94    9.78 -138.40  123.21  -60.57 -179.90

DOCKED: MODEL        8
DOCKED: USER    Run = 8
DOCKED: USER    DPF = D:/Protein_go_brrr/autodock/final/mut_D99N/heme/dock.dpf
DOCKED: USER  
DOCKED: USER    Estimated Free Energy of Binding    =   -3.94 kcal/mol  [=(1)+(2)+(3)-(4)]
DOCKED: USER    Estimated Inhibition Constant, Ki   =    1.29 mM (millimolar)  [Temperature = 298.15 K]
DOCKED: USER    
DOCKED: USER    (1) Final Intermolecular Energy     =   -7.82 kcal/mol
DOCKED: USER        vdW + Hbond + desolv Energy     =   -7.39 kcal/mol
DOCKED: USER        Electrostatic Energy            =   -0.43 kcal/mol
DOCKED: USER    (2) Final Total Internal Energy     =   -2.51 kcal/mol
DOCKED: USER    (3) Torsional Free Energy           =   +3.88 kcal/mol
DOCKED: USER    (4) Unbound System's Energy  [=(2)] =   -2.51 kcal/mol
DOCKED: USER    
DOCKED: USER    
DOCKED: USER    NEWDPF move heme_opt.pdbqt
DOCKED: USER    NEWDPF about 0.153000 0.018000 -0.028000
DOCKED: USER    NEWDPF tran0 8.250524 12.990640 2.408908
DOCKED: USER    NEWDPF quaternion0 -0.478694 -0.524112 -0.703836 0.027798
DOCKED: USER    NEWDPF axisangle0 -0.478879 -0.524315 -0.704108 176.814230
DOCKED: USER    NEWDPF quat0 -0.478879 -0.524315 -0.704108 176.814230
DOCKED: USER    NEWDPF dihe0 -179.04 76.90 -169.72 81.83 -154.68 -175.53 -60.72 96.94 9.78 -138.40 123.21 -60.57 -179.90 
DOCKED: USER  keepresnum = 1 
DOCKED: USER  
DOCKED: REMARK  13 active torsions:
DOCKED: REMARK  status: ('A' for Active; 'I' for Inactive)
DOCKED: REMARK    1  A    between atoms: O_3  and  C_38 
DOCKED: REMARK    2  A    between atoms: O_4  and  C_40 
DOCKED: REMARK    3  A    between atoms: O_7  and  C_46 
DOCKED: REMARK    4  A    between atoms: O_9  and  C_48 
DOCKED: REMARK    5  A    between atoms: C_15  and  C_20 
DOCKED: REMARK    6  A    between atoms: C_16  and  C_23 
DOCKED: REMARK    7  A    between atoms: C_20  and  C_38 
DOCKED: REMARK    8  A    between atoms: C_23  and  C_40 
DOCKED: REMARK    9  A    between atoms: C_32  and  C_41 
DOCKED: REMARK   10  A    between atoms: C_37  and  C_45 
DOCKED: REMARK   11  A    between atoms: C_41  and  C_44 
DOCKED: REMARK   12  A    between atoms: C_44  and  C_46 
DOCKED: REMARK   13  A    between atoms: C_47  and  C_48 
DOCKED: USER                              x       y       z     vdW  Elec       q    Type
DOCKED: USER                           _______ _______ _______ _____ _____    ______ ____
DOCKED: ROOT
DOCKED: ATOM      1  O   UNL d   1      12.518   9.658   0.078 -0.00 -0.01    -0.289 OA
DOCKED: ATOM      2  O   UNL d   1       6.334  12.607  -2.996 -0.29 -0.10    -0.289 OA
DOCKED: ATOM      3  N   UNL d   1      10.204  11.457   1.895 -0.07 -0.02    -0.247 NA
DOCKED: ATOM      4  N   UNL d   1       8.324  12.447  -0.182 -0.64 -0.08    -0.247 NA
DOCKED: ATOM      5  N   UNL d   1       7.247  14.248   1.783 -0.09 -0.02    -0.354 N 
DOCKED: ATOM      6  N   UNL d   1       9.215  13.230   3.927 -0.07 +0.00    -0.354 N 
DOCKED: ATOM      7  C   UNL d   1      12.404  10.488   2.374 -0.02 +0.00    +0.084 A 
DOCKED: ATOM      8  C   UNL d   1       8.139  11.138  -2.237 -0.16 +0.03    +0.084 A 
DOCKED: ATOM      9  C   UNL d   1       8.825  11.376  -0.888 +0.01 +0.02    +0.058 A 
DOCKED: ATOM     10  C   UNL d   1      11.187  11.283   2.856 -0.06 +0.00    +0.058 A 
DOCKED: ATOM     11  C   UNL d   1      11.927  10.228   0.977 -0.01 +0.01    +0.193 A 
DOCKED: ATOM     12  C   UNL d   1      10.572  10.843   0.818 -0.07 +0.01    +0.109 A 
DOCKED: ATOM     13  C   UNL d   1       7.181  12.295  -2.183 -0.15 +0.05    +0.193 A 
DOCKED: ATOM     14  C   UNL d   1      13.667  11.351   2.314 -0.00 +0.00    +0.026 C 
DOCKED: ATOM     15  C   UNL d   1       9.858  10.635  -0.458 -0.11 +0.01    +0.055 C 
DOCKED: ATOM     16  C   UNL d   1       7.336   9.834  -2.244 -0.34 +0.01    +0.026 C 
DOCKED: ATOM     17  C   UNL d   1       7.400  13.012  -0.890 -0.15 +0.02    +0.109 A 
DOCKED: ATOM     18  C   UNL d   1      11.071  11.685   4.135 -0.08 +0.00    +0.050 C 
DOCKED: ATOM     19  C   UNL d   1       9.948  12.350   4.690 -0.12 +0.00    +0.045 A 
DOCKED: ATOM     20  C   UNL d   1       6.630  14.731   0.659 -0.19 +0.00    +0.045 A 
DOCKED: ATOM     21  C   UNL d   1       6.627  14.223  -0.578 -0.22 +0.01    +0.057 C 
DOCKED: ATOM     22  C   UNL d   1       6.184  16.134   2.405 -0.21 -0.00    -0.019 A 
DOCKED: ATOM     23  C   UNL d   1       7.036  15.029   2.888 -0.25 -0.00    +0.045 A 
DOCKED: ATOM     24  C   UNL d   1       5.946  15.951   1.084 -0.17 -0.00    -0.022 A 
DOCKED: ATOM     25  C   UNL d   1       8.233  13.825   4.685 -0.22 -0.00    +0.049 A 
DOCKED: ATOM     26  C   UNL d   1       9.407  12.346   5.966 -0.15 +0.00    -0.018 A 
DOCKED: ATOM     27  C   UNL d   1       8.312  13.264   5.952 -0.21 -0.00    +0.003 A 
DOCKED: ATOM     28  C   UNL d   1       7.448  14.886   4.157 -0.25 -0.00    +0.052 C 
DOCKED: ATOM     29  C   UNL d   1       5.134  16.790   0.157 -0.16 +0.00    +0.046 C 
DOCKED: ATOM     30  C   UNL d   1       9.875  11.538   7.129 -0.16 +0.00    +0.046 C 
DOCKED: ATOM     31  H   UNL d   1       7.734  13.358   1.776 +0.05 +0.02    +0.166 HD
DOCKED: ATOM     32  H   UNL d   1       9.414  13.427   2.953 +0.04 +0.00    +0.166 HD
DOCKED: ENDROOT
DOCKED: BRANCH   7  33
DOCKED: ATOM     33  C   UNL d   1      12.659   9.167   3.109 -0.02 +0.01    +0.141 C 
DOCKED: BRANCH  33  34
DOCKED: ATOM     34  C   UNL d   1      11.484   8.230   3.042 -0.04 +0.01    +0.306 C 
DOCKED: ATOM     35  O   UNL d   1      10.659   8.046   3.921 -0.08 -0.02    -0.251 OA
DOCKED: BRANCH  34  36
DOCKED: ATOM     36  O   UNL d   1      11.409   7.576   1.870 -0.02 -0.01    -0.481 OA
DOCKED: ATOM     37  H   UNL d   1      12.161   7.923   1.345 +0.04 +0.01    +0.295 HD
DOCKED: ENDBRANCH  34  36
DOCKED: ENDBRANCH  33  34
DOCKED: ENDBRANCH   7  33
DOCKED: BRANCH  27  38
DOCKED: ATOM     38  C   UNL d   1       7.482  13.577   7.076 -0.23 -0.00    +0.017 C 
DOCKED: ATOM     39  C   UNL d   1       6.779  14.710   7.229 -0.22 -0.02    +0.092 C 
DOCKED: BRANCH  39  40
DOCKED: ATOM     40  C   UNL d   1       5.952  14.900   8.423 -0.19 -0.05    +0.330 C 
DOCKED: ATOM     41  O   UNL d   1       5.231  15.844   8.685 -0.16 +0.02    -0.246 OA
DOCKED: BRANCH  40  42
DOCKED: ATOM     42  O   UNL d   1       6.077  13.846   9.244 -0.15 +0.12    -0.477 OA
DOCKED: ATOM     43  H   UNL d   1       5.252  13.338   9.102 -0.43 -0.19    +0.295 HD
DOCKED: ENDBRANCH  40  42
DOCKED: ENDBRANCH  39  40
DOCKED: ENDBRANCH  27  38
DOCKED: BRANCH   8  44
DOCKED: ATOM     44  C   UNL d   1       9.048  11.236  -3.466 -0.07 +0.04    +0.141 C 
DOCKED: BRANCH  44  45
DOCKED: ATOM     45  C   UNL d   1       8.372  10.807  -4.741 -0.02 +0.21    +0.306 C 
DOCKED: ATOM     46  O   UNL d   1       8.546   9.760  -5.340 -0.64 -0.22    -0.251 OA
DOCKED: BRANCH  45  47
DOCKED: ATOM     47  O   UNL d   1       7.525  11.740  -5.213 -0.42 -0.48    -0.481 OA
DOCKED: ATOM     48  H   UNL d   1       7.695  12.532  -4.660 +0.05 +0.16    +0.295 HD
DOCKED: ENDBRANCH  45  47
DOCKED: ENDBRANCH  44  45
DOCKED: ENDBRANCH   8  44
DOCKED: BRANCH  22  49
DOCKED: ATOM     49  C   UNL d   1       5.699  17.263   3.266 -0.17 +0.00    +0.048 C 
DOCKED: BRANCH  49  50
DOCKED: ATOM     50  C   UNL d   1       6.588  18.499   3.138 -0.06 +0.00    +0.125 C 
DOCKED: BRANCH  50  51
DOCKED: ATOM     51  C   UNL d   1       8.018  18.167   3.457 -0.01 +0.00    +0.305 C 
DOCKED: ATOM     52  O   UNL d   1       8.887  17.803   2.683 -0.01 -0.00    -0.251 OA
DOCKED: BRANCH  51  53
DOCKED: ATOM     53  O   UNL d   1       8.286  18.301   4.771 +0.00 +0.00    -0.481 OA
DOCKED: ATOM     54  H   UNL d   1       8.708  19.183   4.839 +0.00 -0.00    +0.295 HD
DOCKED: ENDBRANCH  51  53
DOCKED: ENDBRANCH  50  51
DOCKED: ENDBRANCH  49  50
DOCKED: ENDBRANCH  22  49
DOCKED: TORSDOF 13
DOCKED: TER
DOCKED: ENDMDL
________________________________________________________________________________


	BEGINNING GENETIC ALGORITHM DOCKING 9 of 100
Run: 9 Seed: 735138487 1606103326 [ Run 9 of 100 GA/GALS ]
Beginning LAMARCKIAN GENETIC ALGORITHM (LGA), with a maximum of 25000000 energy evaluations.

Final-Value: -10.712


	FINAL GENETIC ALGORITHM DOCKED STATE
	_______________________________________________


Detailed state:  trans 13.315 3.482 1.506 quatxyzw 0.389315 -0.631444 -0.040888 0.669358 center 0.153 0.018 -0.028 ntor 13 178.7936 -59.5726 109.4969 171.1876 -155.0877 -178.5110 -53.7121 140.1798 8.0795 -128.4179 97.1036 -170.3627 167.7151
State:	 13.315   3.482   1.506   0.524 -0.850 -0.055 95.965    178.79  -59.57  109.50  171.19 -155.09 -178.51  -53.71  140.18    8.08 -128.42   97.10 -170.36  167.72

DOCKED: MODEL        9
DOCKED: USER    Run = 9
DOCKED: USER    DPF = D:/Protein_go_brrr/autodock/final/mut_D99N/heme/dock.dpf
DOCKED: USER  
DOCKED: USER    Estimated Free Energy of Binding    =   -4.40 kcal/mol  [=(1)+(2)+(3)-(4)]
DOCKED: USER    Estimated Inhibition Constant, Ki   =  597.78 uM (micromolar)  [Temperature = 298.15 K]
DOCKED: USER    
DOCKED: USER    (1) Final Intermolecular Energy     =   -8.28 kcal/mol
DOCKED: USER        vdW + Hbond + desolv Energy     =   -7.93 kcal/mol
DOCKED: USER        Electrostatic Energy            =   -0.35 kcal/mol
DOCKED: USER    (2) Final Total Internal Energy     =   -2.44 kcal/mol
DOCKED: USER    (3) Torsional Free Energy           =   +3.88 kcal/mol
DOCKED: USER    (4) Unbound System's Energy  [=(2)] =   -2.44 kcal/mol
DOCKED: USER    
DOCKED: USER    
DOCKED: USER    NEWDPF move heme_opt.pdbqt
DOCKED: USER    NEWDPF about 0.153000 0.018000 -0.028000
DOCKED: USER    NEWDPF tran0 13.314928 3.481963 1.505936
DOCKED: USER    NEWDPF quaternion0 0.389315 -0.631444 -0.040888 0.669358
DOCKED: USER    NEWDPF axisangle0 0.524020 -0.849926 -0.055035 95.964997
DOCKED: USER    NEWDPF quat0 0.524020 -0.849926 -0.055035 95.964997
DOCKED: USER    NEWDPF dihe0 178.79 -59.57 109.50 171.19 -155.09 -178.51 -53.71 140.18 8.08 -128.42 97.10 -170.36 167.72 
DOCKED: USER  keepresnum = 1 
DOCKED: USER  
DOCKED: REMARK  13 active torsions:
DOCKED: REMARK  status: ('A' for Active; 'I' for Inactive)
DOCKED: REMARK    1  A    between atoms: O_3  and  C_38 
DOCKED: REMARK    2  A    between atoms: O_4  and  C_40 
DOCKED: REMARK    3  A    between atoms: O_7  and  C_46 
DOCKED: REMARK    4  A    between atoms: O_9  and  C_48 
DOCKED: REMARK    5  A    between atoms: C_15  and  C_20 
DOCKED: REMARK    6  A    between atoms: C_16  and  C_23 
DOCKED: REMARK    7  A    between atoms: C_20  and  C_38 
DOCKED: REMARK    8  A    between atoms: C_23  and  C_40 
DOCKED: REMARK    9  A    between atoms: C_32  and  C_41 
DOCKED: REMARK   10  A    between atoms: C_37  and  C_45 
DOCKED: REMARK   11  A    between atoms: C_41  and  C_44 
DOCKED: REMARK   12  A    between atoms: C_44  and  C_46 
DOCKED: REMARK   13  A    between atoms: C_47  and  C_48 
DOCKED: USER                              x       y       z     vdW  Elec       q    Type
DOCKED: USER                           _______ _______ _______ _____ _____    ______ ____
DOCKED: ROOT
DOCKED: ATOM      1  O   UNL d   1      11.801   7.476   5.569 -0.03 -0.04    -0.289 OA
DOCKED: ATOM      2  O   UNL d   1      14.149   0.378   6.271 -0.22 -0.03    -0.289 OA
DOCKED: ATOM      3  N   UNL d   1      12.451   5.447   2.857 +0.10 -0.01    -0.247 NA
DOCKED: ATOM      4  N   UNL d   1      13.589   2.997   4.095 -0.11 -0.02    -0.247 NA
DOCKED: ATOM      5  N   UNL d   1      14.459   2.190   1.476 -0.09 -0.00    -0.354 N 
DOCKED: ATOM      6  N   UNL d   1      13.293   4.744   0.203 +0.02 +0.00    -0.354 N 
DOCKED: ATOM      7  C   UNL d   1      11.872   7.810   3.149 -0.06 +0.00    +0.084 A 
DOCKED: ATOM      8  C   UNL d   1      12.938   2.501   6.397 -0.21 +0.02    +0.084 A 
DOCKED: ATOM      9  C   UNL d   1      12.906   3.455   5.199 -0.16 +0.01    +0.058 A 
DOCKED: ATOM     10  C   UNL d   1      12.213   6.648   2.212 -0.05 +0.00    +0.058 A 
DOCKED: ATOM     11  C   UNL d   1      11.942   7.049   4.438 -0.04 +0.02    +0.193 A 
DOCKED: ATOM     12  C   UNL d   1      12.275   5.623   4.127 -0.08 +0.01    +0.109 A 
DOCKED: ATOM     13  C   UNL d   1      13.797   1.433   5.781 -0.19 +0.02    +0.193 A 
DOCKED: ATOM     14  C   UNL d   1      12.960   8.886   3.150 -0.02 +0.00    +0.026 C 
DOCKED: ATOM     15  C   UNL d   1      12.308   4.656   5.242 -0.15 +0.01    +0.055 C 
DOCKED: ATOM     16  C   UNL d   1      11.555   1.912   6.691 -0.41 +0.01    +0.026 C 
DOCKED: ATOM     17  C   UNL d   1      14.130   1.858   4.388 -0.20 +0.00    +0.109 A 
DOCKED: ATOM     18  C   UNL d   1      12.185   6.793   0.873 -0.05 +0.00    +0.050 C 
DOCKED: ATOM     19  C   UNL d   1      12.403   5.758  -0.071 +0.17 -0.00    +0.045 A 
DOCKED: ATOM     20  C   UNL d   1      15.111   1.256   2.238 -0.18 +0.00    +0.045 A 
DOCKED: ATOM     21  C   UNL d   1      15.002   1.022   3.550 -0.25 +0.00    +0.057 C 
DOCKED: ATOM     22  C   UNL d   1      15.808   1.057   0.072 -0.19 +0.00    -0.019 A 
DOCKED: ATOM     23  C   UNL d   1      14.816   2.147   0.154 -0.20 -0.00    +0.045 A 
DOCKED: ATOM     24  C   UNL d   1      15.977   0.532   1.309 -0.13 +0.00    -0.022 A 
DOCKED: ATOM     25  C   UNL d   1      13.416   3.904  -0.879 -0.16 +0.00    +0.049 A 
DOCKED: ATOM     26  C   UNL d   1      11.907   5.550  -1.349 -0.11 -0.00    -0.018 A 
DOCKED: ATOM     27  C   UNL d   1      12.536   4.368  -1.847 -0.19 +0.00    +0.003 A 
DOCKED: ATOM     28  C   UNL d   1      14.394   2.872  -0.893 -0.21 +0.00    +0.052 C 
DOCKED: ATOM     29  C   UNL d   1      16.861  -0.591   1.733 -0.19 -0.00    +0.046 C 
DOCKED: ATOM     30  C   UNL d   1      10.910   6.396  -2.065 -0.17 +0.00    +0.046 C 
DOCKED: ATOM     31  H   UNL d   1      13.735   2.780   1.871 +0.04 +0.01    +0.166 HD
DOCKED: ATOM     32  H   UNL d   1      13.807   4.669   1.073 +0.01 +0.00    +0.166 HD
DOCKED: ENDROOT
DOCKED: BRANCH   7  33
DOCKED: ATOM     33  C   UNL d   1      10.478   8.420   2.960 -0.13 +0.01    +0.141 C 
DOCKED: BRANCH  33  34
DOCKED: ATOM     34  C   UNL d   1       9.379   7.400   3.077 -0.17 +0.02    +0.306 C 
DOCKED: ATOM     35  O   UNL d   1       8.781   6.876   2.152 -0.26 -0.01    -0.251 OA
DOCKED: BRANCH  34  36
DOCKED: ATOM     36  O   UNL d   1       9.092   7.091   4.354 -0.07 -0.06    -0.481 OA
DOCKED: ATOM     37  H   UNL d   1       9.747   7.595   4.883 +0.11 +0.04    +0.295 HD
DOCKED: ENDBRANCH  34  36
DOCKED: ENDBRANCH  33  34
DOCKED: ENDBRANCH   7  33
DOCKED: BRANCH  27  38
DOCKED: ATOM     38  C   UNL d   1      12.320   3.802  -3.144 -0.25 +0.00    +0.017 C 
DOCKED: ATOM     39  C   UNL d   1      12.307   4.489  -4.297 -0.19 +0.00    +0.092 C 
DOCKED: BRANCH  39  40
DOCKED: ATOM     40  C   UNL d   1      12.091   3.785  -5.564 -0.11 -0.00    +0.330 C 
DOCKED: ATOM     41  O   UNL d   1      12.044   4.263  -6.681 -0.15 -0.00    -0.246 OA
DOCKED: BRANCH  40  42
DOCKED: ATOM     42  O   UNL d   1      11.950   2.469  -5.343 -0.58 -0.02    -0.477 OA
DOCKED: ATOM     43  H   UNL d   1      11.058   2.266  -5.693 -0.31 -0.18    +0.295 HD
DOCKED: ENDBRANCH  40  42
DOCKED: ENDBRANCH  39  40
DOCKED: ENDBRANCH  27  38
DOCKED: BRANCH   8  44
DOCKED: ATOM     44  C   UNL d   1      13.585   3.060   7.669 -0.12 +0.04    +0.141 C 
DOCKED: BRANCH  44  45
DOCKED: ATOM     45  C   UNL d   1      13.630   2.066   8.799 -0.14 +0.10    +0.306 C 
DOCKED: ATOM     46  O   UNL d   1      12.845   1.984   9.727 -0.54 -0.16    -0.251 OA
DOCKED: BRANCH  45  47
DOCKED: ATOM     47  O   UNL d   1      14.687   1.238   8.713 -0.09 -0.06    -0.481 OA
DOCKED: ATOM     48  H   UNL d   1      14.480   0.649   7.956 +0.08 +0.05    +0.295 HD
DOCKED: ENDBRANCH  45  47
DOCKED: ENDBRANCH  44  45
DOCKED: ENDBRANCH   8  44
DOCKED: BRANCH  22  49
DOCKED: ATOM     49  C   UNL d   1      16.502   0.643  -1.192 -0.15 -0.01    +0.048 C 
DOCKED: BRANCH  49  50
DOCKED: ATOM     50  C   UNL d   1      17.730   1.509  -1.476 -0.11 -0.01    +0.125 C 
DOCKED: BRANCH  50  51
DOCKED: ATOM     51  C   UNL d   1      17.334   2.798  -2.139 -0.07 -0.00    +0.305 C 
DOCKED: ATOM     52  O   UNL d   1      17.715   3.922  -1.864 -0.02 -0.00    -0.251 OA
DOCKED: BRANCH  51  53
DOCKED: ATOM     53  O   UNL d   1      16.446   2.602  -3.134 -0.54 -0.05    -0.481 OA
DOCKED: ATOM     54  H   UNL d   1      16.421   1.628  -3.242 -0.43 -0.05    +0.295 HD
DOCKED: ENDBRANCH  51  53
DOCKED: ENDBRANCH  50  51
DOCKED: ENDBRANCH  49  50
DOCKED: ENDBRANCH  22  49
DOCKED: TORSDOF 13
DOCKED: TER
DOCKED: ENDMDL
________________________________________________________________________________


	BEGINNING GENETIC ALGORITHM DOCKING 10 of 100
Run: 10 Seed: 33194015 1137152312 [ Run 10 of 100 GA/GALS ]
Beginning LAMARCKIAN GENETIC ALGORITHM (LGA), with a maximum of 25000000 energy evaluations.

Final-Value: -12.518


	FINAL GENETIC ALGORITHM DOCKED STATE
	_______________________________________________


Detailed state:  trans -9.080 16.302 10.597 quatxyzw 0.727527 0.495063 -0.390518 -0.270391 center 0.153 0.018 -0.028 ntor 13 147.2297 -108.9091 -137.0324 49.4720 -140.8263 22.5474 130.5060 -108.5482 49.1495 -9.6000 -84.7371 -83.3517 -0.6818
State:	 -9.080  16.302  10.597   0.756  0.514 -0.406 -148.625    147.23 -108.91 -137.03   49.47 -140.83   22.55  130.51 -108.55   49.15   -9.60  -84.74  -83.35   -0.68

DOCKED: MODEL       10
DOCKED: USER    Run = 10
DOCKED: USER    DPF = D:/Protein_go_brrr/autodock/final/mut_D99N/heme/dock.dpf
DOCKED: USER  
DOCKED: USER    Estimated Free Energy of Binding    =   -3.88 kcal/mol  [=(1)+(2)+(3)-(4)]
DOCKED: USER    Estimated Inhibition Constant, Ki   =    1.42 mM (millimolar)  [Temperature = 298.15 K]
DOCKED: USER    
DOCKED: USER    (1) Final Intermolecular Energy     =   -7.76 kcal/mol
DOCKED: USER        vdW + Hbond + desolv Energy     =   -7.74 kcal/mol
DOCKED: USER        Electrostatic Energy            =   -0.02 kcal/mol
DOCKED: USER    (2) Final Total Internal Energy     =   -4.76 kcal/mol
DOCKED: USER    (3) Torsional Free Energy           =   +3.88 kcal/mol
DOCKED: USER    (4) Unbound System's Energy  [=(2)] =   -4.76 kcal/mol
DOCKED: USER    
DOCKED: USER    
DOCKED: USER    NEWDPF move heme_opt.pdbqt
DOCKED: USER    NEWDPF about 0.153000 0.018000 -0.028000
DOCKED: USER    NEWDPF tran0 -9.080395 16.301666 10.596752
DOCKED: USER    NEWDPF quaternion0 0.727527 0.495063 -0.390518 -0.270391
DOCKED: USER    NEWDPF axisangle0 0.755676 0.514218 -0.405628 -148.624875
DOCKED: USER    NEWDPF quat0 0.755676 0.514218 -0.405628 -148.624875
DOCKED: USER    NEWDPF dihe0 147.23 -108.91 -137.03 49.47 -140.83 22.55 130.51 -108.55 49.15 -9.60 -84.74 -83.35 -0.68 
DOCKED: USER  keepresnum = 1 
DOCKED: USER  
DOCKED: REMARK  13 active torsions:
DOCKED: REMARK  status: ('A' for Active; 'I' for Inactive)
DOCKED: REMARK    1  A    between atoms: O_3  and  C_38 
DOCKED: REMARK    2  A    between atoms: O_4  and  C_40 
DOCKED: REMARK    3  A    between atoms: O_7  and  C_46 
DOCKED: REMARK    4  A    between atoms: O_9  and  C_48 
DOCKED: REMARK    5  A    between atoms: C_15  and  C_20 
DOCKED: REMARK    6  A    between atoms: C_16  and  C_23 
DOCKED: REMARK    7  A    between atoms: C_20  and  C_38 
DOCKED: REMARK    8  A    between atoms: C_23  and  C_40 
DOCKED: REMARK    9  A    between atoms: C_32  and  C_41 
DOCKED: REMARK   10  A    between atoms: C_37  and  C_45 
DOCKED: REMARK   11  A    between atoms: C_41  and  C_44 
DOCKED: REMARK   12  A    between atoms: C_44  and  C_46 
DOCKED: REMARK   13  A    between atoms: C_47  and  C_48 
DOCKED: USER                              x       y       z     vdW  Elec       q    Type
DOCKED: USER                           _______ _______ _______ _____ _____    ______ ____
DOCKED: ROOT
DOCKED: ATOM      1  O   UNL d   1      -8.851  12.325  14.943 -0.19 +0.09    -0.289 OA
DOCKED: ATOM      2  O   UNL d   1     -13.664  17.943  13.652 -0.00 +0.06    -0.289 OA
DOCKED: ATOM      3  N   UNL d   1      -8.503  14.513  12.300 -0.10 +0.07    -0.247 NA
DOCKED: ATOM      4  N   UNL d   1     -10.982  16.146  12.433 -0.09 +0.13    -0.247 NA
DOCKED: ATOM      5  N   UNL d   1     -10.375  17.115   9.795 -0.02 +0.33    -0.354 N 
DOCKED: ATOM      6  N   UNL d   1      -7.815  15.403   9.657 -0.14 +0.10    -0.354 N 
DOCKED: ATOM      7  C   UNL d   1      -7.352  12.471  13.018 -0.35 -0.02    +0.084 A 
DOCKED: ATOM      8  C   UNL d   1     -12.059  16.366  14.615 -0.02 -0.02    +0.084 A 
DOCKED: ATOM      9  C   UNL d   1     -10.966  15.734  13.747 -0.07 -0.02    +0.058 A 
DOCKED: ATOM     10  C   UNL d   1      -7.492  13.613  12.007 -0.29 -0.01    +0.058 A 
DOCKED: ATOM     11  C   UNL d   1      -8.451  12.896  13.944 -0.18 -0.05    +0.193 A 
DOCKED: ATOM     12  C   UNL d   1      -9.055  14.159  13.415 -0.13 -0.03    +0.109 A 
DOCKED: ATOM     13  C   UNL d   1     -12.721  17.184  13.543 -0.02 -0.06    +0.193 A 
DOCKED: ATOM     14  C   UNL d   1      -7.715  11.116  12.407 -0.56 -0.01    +0.026 C 
DOCKED: ATOM     15  C   UNL d   1     -10.104  14.819  14.217 -0.10 -0.01    +0.055 C 
DOCKED: ATOM     16  C   UNL d   1     -11.473  17.313  15.666 -0.01 -0.00    +0.026 C 
DOCKED: ATOM     17  C   UNL d   1     -11.977  16.957  12.267 -0.08 -0.06    +0.109 A 
DOCKED: ATOM     18  C   UNL d   1      -6.631  13.753  10.981 -0.38 -0.01    +0.050 C 
DOCKED: ATOM     19  C   UNL d   1      -6.630  14.821  10.048 -0.31 -0.01    +0.045 A 
DOCKED: ATOM     20  C   UNL d   1     -11.646  17.608   9.941 +0.00 -0.04    +0.045 A 
DOCKED: ATOM     21  C   UNL d   1     -12.428  17.601  11.025 -0.09 -0.04    +0.057 C 
DOCKED: ATOM     22  C   UNL d   1     -10.948  17.986   7.799 -0.09 +0.01    -0.019 A 
DOCKED: ATOM     23  C   UNL d   1      -9.870  17.297   8.536 -0.12 -0.03    +0.045 A 
DOCKED: ATOM     24  C   UNL d   1     -11.996  18.168   8.636 -0.07 +0.02    -0.022 A 
DOCKED: ATOM     25  C   UNL d   1      -7.591  16.350   8.685 -0.10 -0.01    +0.049 A 
DOCKED: ATOM     26  C   UNL d   1      -5.607  15.430   9.338 -0.36 +0.00    -0.018 A 
DOCKED: ATOM     27  C   UNL d   1      -6.217  16.408   8.493 -0.27 -0.00    +0.003 A 
DOCKED: ATOM     28  C   UNL d   1      -8.676  16.976   8.013 -0.15 -0.01    +0.052 C 
DOCKED: ATOM     29  C   UNL d   1     -13.307  18.824   8.362 -0.04 -0.02    +0.046 C 
DOCKED: ATOM     30  C   UNL d   1      -4.151  15.126   9.438 -0.33 -0.01    +0.046 C 
DOCKED: ATOM     31  H   UNL d   1      -9.864  16.736  10.585 +0.01 -0.11    +0.166 HD
DOCKED: ATOM     32  H   UNL d   1      -8.720  15.128  10.019 +0.04 -0.09    +0.166 HD
DOCKED: ENDROOT
DOCKED: BRANCH   7  33
DOCKED: ATOM     33  C   UNL d   1      -6.014  12.413  13.762 -0.33 -0.04    +0.141 C 
DOCKED: BRANCH  33  34
DOCKED: ATOM     34  C   UNL d   1      -6.074  13.070  15.114 -0.25 -0.07    +0.306 C 
DOCKED: ATOM     35  O   UNL d   1      -5.896  14.254  15.349 -0.13 +0.05    -0.251 OA
DOCKED: BRANCH  34  36
DOCKED: ATOM     36  O   UNL d   1      -6.358  12.201  16.101 -0.68 +0.13    -0.481 OA
DOCKED: ATOM     37  H   UNL d   1      -6.981  11.562  15.694 -0.36 -0.17    +0.295 HD
DOCKED: ENDBRANCH  34  36
DOCKED: ENDBRANCH  33  34
DOCKED: ENDBRANCH   7  33
DOCKED: BRANCH  27  38
DOCKED: ATOM     38  C   UNL d   1      -5.519  17.258   7.577 -0.31 +0.00    +0.017 C 
DOCKED: ATOM     39  C   UNL d   1      -5.878  17.485   6.304 -0.28 +0.02    +0.092 C 
DOCKED: BRANCH  39  40
DOCKED: ATOM     40  C   UNL d   1      -5.085  18.394   5.472 -0.15 +0.10    +0.330 C 
DOCKED: ATOM     41  O   UNL d   1      -3.932  18.742   5.643 -0.14 -0.06    -0.246 OA
DOCKED: BRANCH  40  42
DOCKED: ATOM     42  O   UNL d   1      -5.814  18.821   4.430 -0.23 -0.25    -0.477 OA
DOCKED: ATOM     43  H   UNL d   1      -6.470  19.425   4.834 +0.06 +0.10    +0.295 HD
DOCKED: ENDBRANCH  40  42
DOCKED: ENDBRANCH  39  40
DOCKED: ENDBRANCH  27  38
DOCKED: BRANCH   8  44
DOCKED: ATOM     44  C   UNL d   1     -13.052  15.383  15.247 -0.02 -0.03    +0.141 C 
DOCKED: BRANCH  44  45
DOCKED: ATOM     45  C   UNL d   1     -13.799  14.559  14.232 -0.04 -0.09    +0.306 C 
DOCKED: ATOM     46  O   UNL d   1     -13.430  13.509  13.736 -0.14 +0.09    -0.251 OA
DOCKED: BRANCH  45  47
DOCKED: ATOM     47  O   UNL d   1     -14.968  15.120  13.873 -0.00 +0.14    -0.481 OA
DOCKED: ATOM     48  H   UNL d   1     -14.764  16.074  13.773 +0.02 -0.08    +0.295 HD
DOCKED: ENDBRANCH  45  47
DOCKED: ENDBRANCH  44  45
DOCKED: ENDBRANCH   8  44
DOCKED: BRANCH  22  49
DOCKED: ATOM     49  C   UNL d   1     -10.860  18.384   6.355 -0.08 -0.01    +0.048 C 
DOCKED: BRANCH  49  50
DOCKED: ATOM     50  C   UNL d   1     -10.155  19.729   6.178 -0.02 -0.01    +0.125 C 
DOCKED: BRANCH  50  51
DOCKED: ATOM     51  C   UNL d   1      -8.699  19.533   5.861 -0.03 +0.03    +0.305 C 
DOCKED: ATOM     52  O   UNL d   1      -7.741  19.851   6.543 -0.02 -0.02    -0.251 OA
DOCKED: BRANCH  51  53
DOCKED: ATOM     53  O   UNL d   1      -8.519  18.941   4.663 -0.09 -0.15    -0.481 OA
DOCKED: ATOM     54  H   UNL d   1      -7.888  18.215   4.849 +0.08 +0.14    +0.295 HD
DOCKED: ENDBRANCH  51  53
DOCKED: ENDBRANCH  50  51
DOCKED: ENDBRANCH  49  50
DOCKED: ENDBRANCH  22  49
DOCKED: TORSDOF 13
DOCKED: TER
DOCKED: ENDMDL
________________________________________________________________________________


	BEGINNING GENETIC ALGORITHM DOCKING 11 of 100
Run: 11 Seed: 1915280185 1289655555 [ Run 11 of 100 GA/GALS ]
Beginning LAMARCKIAN GENETIC ALGORITHM (LGA), with a maximum of 25000000 energy evaluations.

Final-Value: -10.995


	FINAL GENETIC ALGORITHM DOCKED STATE
	_______________________________________________


Detailed state:  trans -11.601 15.185 12.260 quatxyzw -0.167738 0.321376 0.782480 -0.506267 center 0.153 0.018 -0.028 ntor 13 100.4499 180.0000 143.7764 25.8534 -143.6993 -27.6117 0.1144 -51.0343 21.0386 21.0437 159.3495 12.7231 14.7716
State:	-11.601  15.185  12.260  -0.195  0.373  0.907 -119.169    100.45  180.00  143.78   25.85 -143.70  -27.61    0.11  -51.03   21.04   21.04  159.35   12.72   14.77

DOCKED: MODEL       11
DOCKED: USER    Run = 11
DOCKED: USER    DPF = D:/Protein_go_brrr/autodock/final/mut_D99N/heme/dock.dpf
DOCKED: USER  
DOCKED: USER    Estimated Free Energy of Binding    =   -4.22 kcal/mol  [=(1)+(2)+(3)-(4)]
DOCKED: USER    Estimated Inhibition Constant, Ki   =  813.14 uM (micromolar)  [Temperature = 298.15 K]
DOCKED: USER    
DOCKED: USER    (1) Final Intermolecular Energy     =   -8.09 kcal/mol
DOCKED: USER        vdW + Hbond + desolv Energy     =   -7.66 kcal/mol
DOCKED: USER        Electrostatic Energy            =   -0.43 kcal/mol
DOCKED: USER    (2) Final Total Internal Energy     =   -2.90 kcal/mol
DOCKED: USER    (3) Torsional Free Energy           =   +3.88 kcal/mol
DOCKED: USER    (4) Unbound System's Energy  [=(2)] =   -2.90 kcal/mol
DOCKED: USER    
DOCKED: USER    
DOCKED: USER    NEWDPF move heme_opt.pdbqt
DOCKED: USER    NEWDPF about 0.153000 0.018000 -0.028000
DOCKED: USER    NEWDPF tran0 -11.600832 15.185220 12.259591
DOCKED: USER    NEWDPF quaternion0 -0.167738 0.321376 0.782480 -0.506267
DOCKED: USER    NEWDPF axisangle0 -0.194507 0.372664 0.907353 -119.168989
DOCKED: USER    NEWDPF quat0 -0.194507 0.372664 0.907353 -119.168989
DOCKED: USER    NEWDPF dihe0 100.45 180.00 143.78 25.85 -143.70 -27.61 0.11 -51.03 21.04 21.04 159.35 12.72 14.77 
DOCKED: USER  keepresnum = 1 
DOCKED: USER  
DOCKED: REMARK  13 active torsions:
DOCKED: REMARK  status: ('A' for Active; 'I' for Inactive)
DOCKED: REMARK    1  A    between atoms: O_3  and  C_38 
DOCKED: REMARK    2  A    between atoms: O_4  and  C_40 
DOCKED: REMARK    3  A    between atoms: O_7  and  C_46 
DOCKED: REMARK    4  A    between atoms: O_9  and  C_48 
DOCKED: REMARK    5  A    between atoms: C_15  and  C_20 
DOCKED: REMARK    6  A    between atoms: C_16  and  C_23 
DOCKED: REMARK    7  A    between atoms: C_20  and  C_38 
DOCKED: REMARK    8  A    between atoms: C_23  and  C_40 
DOCKED: REMARK    9  A    between atoms: C_32  and  C_41 
DOCKED: REMARK   10  A    between atoms: C_37  and  C_45 
DOCKED: REMARK   11  A    between atoms: C_41  and  C_44 
DOCKED: REMARK   12  A    between atoms: C_44  and  C_46 
DOCKED: REMARK   13  A    between atoms: C_47  and  C_48 
DOCKED: USER                              x       y       z     vdW  Elec       q    Type
DOCKED: USER                           _______ _______ _______ _____ _____    ______ ____
DOCKED: ROOT
DOCKED: ATOM      1  O   UNL d   1     -10.661  11.306  16.599 -0.18 +0.04    -0.289 OA
DOCKED: ATOM      2  O   UNL d   1      -6.193  13.665  11.043 -0.25 +0.05    -0.289 OA
DOCKED: ATOM      3  N   UNL d   1     -11.708  13.525  14.174 -0.12 +0.07    -0.247 NA
DOCKED: ATOM      4  N   UNL d   1      -9.225  14.080  12.639 -0.13 +0.07    -0.247 NA
DOCKED: ATOM      5  N   UNL d   1     -10.585  16.300  11.419 -0.07 +0.26    -0.354 N 
DOCKED: ATOM      6  N   UNL d   1     -13.151  15.729  13.030 -0.06 +0.18    -0.354 N 
DOCKED: ATOM      7  C   UNL d   1     -12.686  12.627  16.234 -0.07 -0.01    +0.084 A 
DOCKED: ATOM      8  C   UNL d   1      -7.495  12.354  12.649 -0.40 -0.02    +0.084 A 
DOCKED: ATOM      9  C   UNL d   1      -8.843  12.866  13.166 -0.28 -0.01    +0.058 A 
DOCKED: ATOM     10  C   UNL d   1     -12.810  13.541  15.011 -0.10 -0.01    +0.058 A 
DOCKED: ATOM     11  C   UNL d   1     -11.325  12.077  15.929 -0.13 -0.04    +0.193 A 
DOCKED: ATOM     12  C   UNL d   1     -10.850  12.678  14.643 -0.14 -0.03    +0.109 A 
DOCKED: ATOM     13  C   UNL d   1      -7.164  13.519  11.759 -0.25 -0.04    +0.193 A 
DOCKED: ATOM     14  C   UNL d   1     -12.618  13.421  17.541 -0.03 -0.00    +0.026 C 
DOCKED: ATOM     15  C   UNL d   1      -9.562  12.211  14.090 -0.28 -0.02    +0.055 C 
DOCKED: ATOM     16  C   UNL d   1      -7.658  11.102  11.781 -0.47 -0.01    +0.026 C 
DOCKED: ATOM     17  C   UNL d   1      -8.289  14.498  11.848 -0.19 -0.03    +0.109 A 
DOCKED: ATOM     18  C   UNL d   1     -13.944  14.219  14.753 -0.06 -0.01    +0.050 C 
DOCKED: ATOM     19  C   UNL d   1     -14.180  15.020  13.607 -0.07 -0.02    +0.045 A 
DOCKED: ATOM     20  C   UNL d   1      -9.308  16.537  10.982 -0.12 -0.02    +0.045 A 
DOCKED: ATOM     21  C   UNL d   1      -8.222  15.769  11.111 -0.18 -0.02    +0.057 C 
DOCKED: ATOM     22  C   UNL d   1     -10.631  18.304  10.393 -0.06 +0.01    -0.019 A 
DOCKED: ATOM     23  C   UNL d   1     -11.455  17.311  11.110 -0.09 -0.03    +0.045 A 
DOCKED: ATOM     24  C   UNL d   1      -9.361  17.839  10.319 -0.08 +0.01    -0.022 A 
DOCKED: ATOM     25  C   UNL d   1     -13.618  16.503  11.994 -0.09 -0.03    +0.049 A 
DOCKED: ATOM     26  C   UNL d   1     -15.339  15.313  12.905 -0.06 +0.01    -0.018 A 
DOCKED: ATOM     27  C   UNL d   1     -14.975  16.235  11.875 -0.07 -0.00    +0.003 A 
DOCKED: ATOM     28  C   UNL d   1     -12.770  17.441  11.345 -0.09 -0.03    +0.052 C 
DOCKED: ATOM     29  C   UNL d   1      -8.171  18.474   9.683 -0.05 -0.01    +0.046 C 
DOCKED: ATOM     30  C   UNL d   1     -16.703  14.771  13.171 -0.02 -0.01    +0.046 C 
DOCKED: ATOM     31  H   UNL d   1     -10.838  15.417  11.851 +0.03 -0.12    +0.166 HD
DOCKED: ATOM     32  H   UNL d   1     -12.195  15.701  13.365 +0.02 -0.07    +0.166 HD
DOCKED: ENDROOT
DOCKED: BRANCH   7  33
DOCKED: ATOM     33  C   UNL d   1     -13.717  11.496  16.316 -0.08 -0.01    +0.141 C 
DOCKED: BRANCH  33  34
DOCKED: ATOM     34  C   UNL d   1     -13.515  10.450  15.254 -0.07 -0.03    +0.306 C 
DOCKED: ATOM     35  O   UNL d   1     -14.007  10.452  14.138 -0.20 +0.03    -0.251 OA
DOCKED: BRANCH  34  36
DOCKED: ATOM     36  O   UNL d   1     -12.701   9.456  15.652 -0.17 -0.00    -0.481 OA
DOCKED: ATOM     37  H   UNL d   1     -11.796   9.808  15.514 -0.40 -0.06    +0.295 HD
DOCKED: ENDBRANCH  34  36
DOCKED: ENDBRANCH  33  34
DOCKED: ENDBRANCH   7  33
DOCKED: BRANCH  27  38
DOCKED: ATOM     38  C   UNL d   1     -15.878  16.811  10.925 -0.05 -0.01    +0.017 C 
DOCKED: ATOM     39  C   UNL d   1     -15.686  16.848   9.598 -0.06 -0.06    +0.092 C 
DOCKED: BRANCH  39  40
DOCKED: ATOM     40  C   UNL d   1     -16.700  17.453   8.730 -0.00 -0.10    +0.330 C 
DOCKED: ATOM     41  O   UNL d   1     -17.900  17.509   8.916 -0.00 +0.05    -0.246 OA
DOCKED: BRANCH  40  42
DOCKED: ATOM     42  O   UNL d   1     -16.120  17.980   7.640 +0.00 +0.13    -0.477 OA
DOCKED: ATOM     43  H   UNL d   1     -15.167  17.792   7.768 +0.02 -0.12    +0.295 HD
DOCKED: ENDBRANCH  40  42
DOCKED: ENDBRANCH  39  40
DOCKED: ENDBRANCH  27  38
DOCKED: BRANCH   8  44
DOCKED: ATOM     44  C   UNL d   1      -6.412  12.152  13.714 -0.36 -0.04    +0.141 C 
DOCKED: BRANCH  44  45
DOCKED: ATOM     45  C   UNL d   1      -6.564  13.072  14.896 -0.21 -0.08    +0.306 C 
DOCKED: ATOM     46  O   UNL d   1      -6.817  14.263  14.862 -0.07 +0.05    -0.251 OA
DOCKED: BRANCH  45  47
DOCKED: ATOM     47  O   UNL d   1      -6.359  12.443  16.068 -0.73 +0.13    -0.481 OA
DOCKED: ATOM     48  H   UNL d   1      -6.747  11.551  15.941 -0.37 -0.15    +0.295 HD
DOCKED: ENDBRANCH  45  47
DOCKED: ENDBRANCH  44  45
DOCKED: ENDBRANCH   8  44
DOCKED: BRANCH  22  49
DOCKED: ATOM     49  C   UNL d   1     -11.152  19.608   9.864 -0.02 -0.01    +0.048 C 
DOCKED: BRANCH  49  50
DOCKED: ATOM     50  C   UNL d   1     -12.115  19.404   8.695 -0.03 -0.04    +0.125 C 
DOCKED: BRANCH  50  51
DOCKED: ATOM     51  C   UNL d   1     -11.927  18.048   8.076 -0.04 -0.22    +0.305 C 
DOCKED: ATOM     52  O   UNL d   1     -10.904  17.580   7.606 -0.10 +0.18    -0.251 OA
DOCKED: BRANCH  51  53
DOCKED: ATOM     53  O   UNL d   1     -13.070  17.334   8.068 -0.05 +0.51    -0.481 OA
DOCKED: ATOM     54  H   UNL d   1     -12.769  16.402   8.054 -0.53 -0.68    +0.295 HD
DOCKED: ENDBRANCH  51  53
DOCKED: ENDBRANCH  50  51
DOCKED: ENDBRANCH  49  50
DOCKED: ENDBRANCH  22  49
DOCKED: TORSDOF 13
DOCKED: TER
DOCKED: ENDMDL
________________________________________________________________________________


	BEGINNING GENETIC ALGORITHM DOCKING 12 of 100
Run: 12 Seed: 2036771804 579149262 [ Run 12 of 100 GA/GALS ]
Beginning LAMARCKIAN GENETIC ALGORITHM (LGA), with a maximum of 25000000 energy evaluations.

Final-Value: -11.928


	FINAL GENETIC ALGORITHM DOCKED STATE
	_______________________________________________


Detailed state:  trans 15.915 -12.920 5.473 quatxyzw -0.412832 -0.858414 -0.148573 -0.265747 center 0.153 0.018 -0.028 ntor 13 -180.0000 138.6557 -167.4778 -167.9352 -158.4529 -22.6232 138.7116 19.4703 3.2880 -9.3500 -11.4587 -69.1602 -128.6505
State:	 15.915 -12.920   5.473  -0.428 -0.890 -0.154 -149.177   -180.00  138.66 -167.48 -167.94 -158.45  -22.62  138.71   19.47    3.29   -9.35  -11.46  -69.16 -128.65

DOCKED: MODEL       12
DOCKED: USER    Run = 12
DOCKED: USER    DPF = D:/Protein_go_brrr/autodock/final/mut_D99N/heme/dock.dpf
DOCKED: USER  
DOCKED: USER    Estimated Free Energy of Binding    =   -5.86 kcal/mol  [=(1)+(2)+(3)-(4)]
DOCKED: USER    Estimated Inhibition Constant, Ki   =   50.76 uM (micromolar)  [Temperature = 298.15 K]
DOCKED: USER    
DOCKED: USER    (1) Final Intermolecular Energy     =   -9.74 kcal/mol
DOCKED: USER        vdW + Hbond + desolv Energy     =   -9.46 kcal/mol
DOCKED: USER        Electrostatic Energy            =   -0.28 kcal/mol
DOCKED: USER    (2) Final Total Internal Energy     =   -2.19 kcal/mol
DOCKED: USER    (3) Torsional Free Energy           =   +3.88 kcal/mol
DOCKED: USER    (4) Unbound System's Energy  [=(2)] =   -2.19 kcal/mol
DOCKED: USER    
DOCKED: USER    
DOCKED: USER    NEWDPF move heme_opt.pdbqt
DOCKED: USER    NEWDPF about 0.153000 0.018000 -0.028000
DOCKED: USER    NEWDPF tran0 15.914663 -12.919828 5.472848
DOCKED: USER    NEWDPF quaternion0 -0.412832 -0.858414 -0.148573 -0.265747
DOCKED: USER    NEWDPF axisangle0 -0.428230 -0.890431 -0.154115 -149.177271
DOCKED: USER    NEWDPF quat0 -0.428230 -0.890431 -0.154115 -149.177271
DOCKED: USER    NEWDPF dihe0 -180.00 138.66 -167.48 -167.94 -158.45 -22.62 138.71 19.47 3.29 -9.35 -11.46 -69.16 -128.65 
DOCKED: USER  keepresnum = 1 
DOCKED: USER  
DOCKED: REMARK  13 active torsions:
DOCKED: REMARK  status: ('A' for Active; 'I' for Inactive)
DOCKED: REMARK    1  A    between atoms: O_3  and  C_38 
DOCKED: REMARK    2  A    between atoms: O_4  and  C_40 
DOCKED: REMARK    3  A    between atoms: O_7  and  C_46 
DOCKED: REMARK    4  A    between atoms: O_9  and  C_48 
DOCKED: REMARK    5  A    between atoms: C_15  and  C_20 
DOCKED: REMARK    6  A    between atoms: C_16  and  C_23 
DOCKED: REMARK    7  A    between atoms: C_20  and  C_38 
DOCKED: REMARK    8  A    between atoms: C_23  and  C_40 
DOCKED: REMARK    9  A    between atoms: C_32  and  C_41 
DOCKED: REMARK   10  A    between atoms: C_37  and  C_45 
DOCKED: REMARK   11  A    between atoms: C_41  and  C_44 
DOCKED: REMARK   12  A    between atoms: C_44  and  C_46 
DOCKED: REMARK   13  A    between atoms: C_47  and  C_48 
DOCKED: USER                              x       y       z     vdW  Elec       q    Type
DOCKED: USER                           _______ _______ _______ _____ _____    ______ ____
DOCKED: ROOT
DOCKED: ATOM      1  O   UNL d   1      19.935 -15.107   1.757 -0.03 +0.01    -0.289 OA
DOCKED: ATOM      2  O   UNL d   1      14.000 -18.323   5.048 -0.01 -0.01    -0.289 OA
DOCKED: ATOM      3  N   UNL d   1      17.912 -13.441   3.999 -0.06 +0.15    -0.247 NA
DOCKED: ATOM      4  N   UNL d   1      15.717 -15.378   4.509 +0.08 +0.21    -0.247 NA
DOCKED: ATOM      5  N   UNL d   1      14.239 -13.239   5.735 -0.01 +0.30    -0.354 N 
DOCKED: ATOM      6  N   UNL d   1      16.513 -11.232   5.185 -0.18 +0.21    -0.354 N 
DOCKED: ATOM      7  C   UNL d   1      19.787 -12.802   2.556 -0.21 +0.00    +0.084 A 
DOCKED: ATOM      8  C   UNL d   1      16.224 -17.749   4.203 -0.03 -0.00    +0.084 A 
DOCKED: ATOM      9  C   UNL d   1      16.664 -16.285   4.088 -0.08 -0.02    +0.058 A 
DOCKED: ATOM     10  C   UNL d   1      18.727 -12.401   3.585 -0.20 -0.01    +0.058 A 
DOCKED: ATOM     11  C   UNL d   1      19.440 -14.258   2.475 -0.08 -0.02    +0.193 A 
DOCKED: ATOM     12  C   UNL d   1      18.305 -14.526   3.415 -0.09 -0.04    +0.109 A 
DOCKED: ATOM     13  C   UNL d   1      14.839 -17.503   4.730 -0.04 -0.00    +0.193 A 
DOCKED: ATOM     14  C   UNL d   1      19.537 -12.157   1.191 -0.23 +0.00    +0.026 C 
DOCKED: ATOM     15  C   UNL d   1      17.849 -15.921   3.575 -0.09 -0.01    +0.055 C 
DOCKED: ATOM     16  C   UNL d   1      17.030 -18.502   5.266 -0.00 -0.00    +0.026 C 
DOCKED: ATOM     17  C   UNL d   1      14.654 -16.026   4.864 -0.10 -0.04    +0.109 A 
DOCKED: ATOM     18  C   UNL d   1      18.675 -11.155   4.093 -0.39 -0.00    +0.050 C 
DOCKED: ATOM     19  C   UNL d   1      17.786 -10.715   5.107 -0.35 -0.01    +0.045 A 
DOCKED: ATOM     20  C   UNL d   1      13.261 -14.198   5.678 -0.17 -0.02    +0.045 A 
DOCKED: ATOM     21  C   UNL d   1      13.367 -15.482   5.321 -0.17 -0.01    +0.057 C 
DOCKED: ATOM     22  C   UNL d   1      12.328 -12.234   6.380 -0.26 +0.01    -0.019 A 
DOCKED: ATOM     23  C   UNL d   1      13.771 -12.020   6.148 -0.26 -0.03    +0.045 A 
DOCKED: ATOM     24  C   UNL d   1      12.033 -13.526   6.100 -0.21 +0.01    -0.022 A 
DOCKED: ATOM     25  C   UNL d   1      15.797 -10.603   6.178 -0.29 -0.02    +0.049 A 
DOCKED: ATOM     26  C   UNL d   1      17.914  -9.754   6.097 -0.29 +0.00    -0.018 A 
DOCKED: ATOM     27  C   UNL d   1      16.661  -9.701   6.783 -0.27 -0.00    +0.003 A 
DOCKED: ATOM     28  C   UNL d   1      14.408 -10.856   6.347 -0.28 -0.03    +0.052 C 
DOCKED: ATOM     29  C   UNL d   1      10.718 -14.223   6.192 -0.24 -0.01    +0.046 C 
DOCKED: ATOM     30  C   UNL d   1      19.124  -8.934   6.392 -0.27 +0.01    +0.046 C 
DOCKED: ATOM     31  H   UNL d   1      15.211 -13.468   5.561 -0.32 -0.19    +0.166 HD
DOCKED: ATOM     32  H   UNL d   1      16.158 -11.946   4.561 -0.44 -0.23    +0.166 HD
DOCKED: ENDROOT
DOCKED: BRANCH   7  33
DOCKED: ATOM     33  C   UNL d   1      21.241 -12.620   3.006 -0.16 +0.04    +0.141 C 
DOCKED: BRANCH  33  34
DOCKED: ATOM     34  C   UNL d   1      21.517 -13.252   4.343 -0.06 +0.09    +0.306 C 
DOCKED: ATOM     35  O   UNL d   1      21.643 -12.666   5.405 -0.08 -0.10    -0.251 OA
DOCKED: BRANCH  34  36
DOCKED: ATOM     36  O   UNL d   1      21.616 -14.591   4.273 +0.01 -0.07    -0.481 OA
DOCKED: ATOM     37  H   UNL d   1      21.434 -14.804   3.333 +0.04 +0.03    +0.295 HD
DOCKED: ENDBRANCH  34  36
DOCKED: ENDBRANCH  33  34
DOCKED: ENDBRANCH   7  33
DOCKED: BRANCH  27  38
DOCKED: ATOM     38  C   UNL d   1      16.353  -8.826   7.873 -0.23 -0.00    +0.017 C 
DOCKED: ATOM     39  C   UNL d   1      15.144  -8.303   8.129 -0.00 -0.04    +0.092 C 
DOCKED: BRANCH  39  40
DOCKED: ATOM     40  C   UNL d   1      14.957  -7.431   9.292 -0.12 -0.11    +0.330 C 
DOCKED: ATOM     41  O   UNL d   1      15.616  -7.402  10.313 -0.05 +0.05    -0.246 OA
DOCKED: BRANCH  40  42
DOCKED: ATOM     42  O   UNL d   1      13.917  -6.608   9.089 -0.13 +0.23    -0.477 OA
DOCKED: ATOM     43  H   UNL d   1      14.016  -6.330   8.155 -0.42 -0.23    +0.295 HD
DOCKED: ENDBRANCH  40  42
DOCKED: ENDBRANCH  39  40
DOCKED: ENDBRANCH  27  38
DOCKED: BRANCH   8  44
DOCKED: ATOM     44  C   UNL d   1      16.179 -18.530   2.885 -0.03 +0.01    +0.141 C 
DOCKED: BRANCH  44  45
DOCKED: ATOM     45  C   UNL d   1      15.248 -17.925   1.868 -0.06 +0.15    +0.306 C 
DOCKED: ATOM     46  O   UNL d   1      15.550 -17.147   0.979 -0.20 -0.16    -0.251 OA
DOCKED: BRANCH  45  47
DOCKED: ATOM     47  O   UNL d   1      13.973 -18.314   2.042 -0.04 -0.35    -0.481 OA
DOCKED: ATOM     48  H   UNL d   1      13.964 -18.751   2.920 +0.03 +0.10    +0.295 HD
DOCKED: ENDBRANCH  45  47
DOCKED: ENDBRANCH  44  45
DOCKED: ENDBRANCH   8  44
DOCKED: BRANCH  22  49
DOCKED: ATOM     49  C   UNL d   1      11.380 -11.164   6.833 -0.34 -0.02    +0.048 C 
DOCKED: BRANCH  49  50
DOCKED: ATOM     50  C   UNL d   1       9.975 -11.371   6.266 -0.11 -0.04    +0.125 C 
DOCKED: BRANCH  50  51
DOCKED: ATOM     51  C   UNL d   1       8.988 -10.452   6.928 -0.32 -0.08    +0.305 C 
DOCKED: ATOM     52  O   UNL d   1       9.229  -9.487   7.632 -0.66 +0.05    -0.251 OA
DOCKED: BRANCH  51  53
DOCKED: ATOM     53  O   UNL d   1       7.715 -10.811   6.672 -0.59 +0.11    -0.481 OA
DOCKED: ATOM     54  H   UNL d   1       7.794 -11.701   6.269 -0.34 -0.14    +0.295 HD
DOCKED: ENDBRANCH  51  53
DOCKED: ENDBRANCH  50  51
DOCKED: ENDBRANCH  49  50
DOCKED: ENDBRANCH  22  49
DOCKED: TORSDOF 13
DOCKED: TER
DOCKED: ENDMDL
________________________________________________________________________________


	BEGINNING GENETIC ALGORITHM DOCKING 13 of 100
Run: 13 Seed: 1347986480 908304204 [ Run 13 of 100 GA/GALS ]
Beginning LAMARCKIAN GENETIC ALGORITHM (LGA), with a maximum of 25000000 energy evaluations.

Final-Value: -11.739


	FINAL GENETIC ALGORITHM DOCKED STATE
	_______________________________________________


Detailed state:  trans -9.274 -4.846 11.634 quatxyzw -0.554764 0.211458 0.469792 0.653314 center 0.153 0.018 -0.028 ntor 13 -112.3729 -45.7931 -152.7887 -27.3370 45.5587 96.1715 -80.8294 -81.3325 146.7024 -151.8047 48.8422 -136.0856 124.7924
State:	 -9.274  -4.846  11.634  -0.733  0.279  0.621 98.416   -112.37  -45.79 -152.79  -27.34   45.56   96.17  -80.83  -81.33  146.70 -151.80   48.84 -136.09  124.79

DOCKED: MODEL       13
DOCKED: USER    Run = 13
DOCKED: USER    DPF = D:/Protein_go_brrr/autodock/final/mut_D99N/heme/dock.dpf
DOCKED: USER  
DOCKED: USER    Estimated Free Energy of Binding    =   -4.96 kcal/mol  [=(1)+(2)+(3)-(4)]
DOCKED: USER    Estimated Inhibition Constant, Ki   =  231.71 uM (micromolar)  [Temperature = 298.15 K]
DOCKED: USER    
DOCKED: USER    (1) Final Intermolecular Energy     =   -8.84 kcal/mol
DOCKED: USER        vdW + Hbond + desolv Energy     =   -8.33 kcal/mol
DOCKED: USER        Electrostatic Energy            =   -0.51 kcal/mol
DOCKED: USER    (2) Final Total Internal Energy     =   -2.90 kcal/mol
DOCKED: USER    (3) Torsional Free Energy           =   +3.88 kcal/mol
DOCKED: USER    (4) Unbound System's Energy  [=(2)] =   -2.90 kcal/mol
DOCKED: USER    
DOCKED: USER    
DOCKED: USER    NEWDPF move heme_opt.pdbqt
DOCKED: USER    NEWDPF about 0.153000 0.018000 -0.028000
DOCKED: USER    NEWDPF tran0 -9.274146 -4.845952 11.634043
DOCKED: USER    NEWDPF quaternion0 -0.554764 0.211458 0.469792 0.653314
DOCKED: USER    NEWDPF axisangle0 -0.732761 0.279304 0.620525 98.416197
DOCKED: USER    NEWDPF quat0 -0.732761 0.279304 0.620525 98.416197
DOCKED: USER    NEWDPF dihe0 -112.37 -45.79 -152.79 -27.34 45.56 96.17 -80.83 -81.33 146.70 -151.80 48.84 -136.09 124.79 
DOCKED: USER  keepresnum = 1 
DOCKED: USER  
DOCKED: REMARK  13 active torsions:
DOCKED: REMARK  status: ('A' for Active; 'I' for Inactive)
DOCKED: REMARK    1  A    between atoms: O_3  and  C_38 
DOCKED: REMARK    2  A    between atoms: O_4  and  C_40 
DOCKED: REMARK    3  A    between atoms: O_7  and  C_46 
DOCKED: REMARK    4  A    between atoms: O_9  and  C_48 
DOCKED: REMARK    5  A    between atoms: C_15  and  C_20 
DOCKED: REMARK    6  A    between atoms: C_16  and  C_23 
DOCKED: REMARK    7  A    between atoms: C_20  and  C_38 
DOCKED: REMARK    8  A    between atoms: C_23  and  C_40 
DOCKED: REMARK    9  A    between atoms: C_32  and  C_41 
DOCKED: REMARK   10  A    between atoms: C_37  and  C_45 
DOCKED: REMARK   11  A    between atoms: C_41  and  C_44 
DOCKED: REMARK   12  A    between atoms: C_44  and  C_46 
DOCKED: REMARK   13  A    between atoms: C_47  and  C_48 
DOCKED: USER                              x       y       z     vdW  Elec       q    Type
DOCKED: USER                           _______ _______ _______ _____ _____    ______ ____
DOCKED: ROOT
DOCKED: ATOM      1  O   UNL d   1     -11.783  -0.522  14.760 -0.10 -0.16    -0.289 OA
DOCKED: ATOM      2  O   UNL d   1     -11.099  -1.485   7.343 -0.72 -0.21    -0.289 OA
DOCKED: ATOM      3  N   UNL d   1     -10.088  -3.185  13.370 +0.01 -0.05    -0.247 NA
DOCKED: ATOM      4  N   UNL d   1     -10.609  -2.883  10.460 -0.10 -0.07    -0.247 NA
DOCKED: ATOM      5  N   UNL d   1      -9.616  -5.557  10.099 -0.06 -0.08    -0.354 N 
DOCKED: ATOM      6  N   UNL d   1      -9.097  -5.869  13.121 -0.00 -0.07    -0.354 N 
DOCKED: ATOM      7  C   UNL d   1     -10.737  -2.546  15.645 -0.17 +0.02    +0.084 A 
DOCKED: ATOM      8  C   UNL d   1     -11.087  -0.632   9.638 -0.30 +0.03    +0.084 A 
DOCKED: ATOM      9  C   UNL d   1     -10.833  -1.573  10.820 -0.28 +0.02    +0.058 A 
DOCKED: ATOM     10  C   UNL d   1     -10.056  -3.546  14.706 -0.18 +0.01    +0.058 A 
DOCKED: ATOM     11  C   UNL d   1     -11.143  -1.547  14.605 -0.15 +0.07    +0.193 A 
DOCKED: ATOM     12  C   UNL d   1     -10.670  -2.035  13.271 -0.23 +0.03    +0.109 A 
DOCKED: ATOM     13  C   UNL d   1     -11.003  -1.658   8.543 -0.24 +0.08    +0.193 A 
DOCKED: ATOM     14  C   UNL d   1     -11.997  -3.130  16.290 -0.07 +0.01    +0.026 C 
DOCKED: ATOM     15  C   UNL d   1     -10.877  -1.162  12.097 -0.34 +0.02    +0.055 C 
DOCKED: ATOM     16  C   UNL d   1      -9.948   0.375   9.458 -0.37 +0.01    +0.026 C 
DOCKED: ATOM     17  C   UNL d   1     -10.716  -2.981   9.174 -0.24 +0.03    +0.109 A 
DOCKED: ATOM     18  C   UNL d   1      -9.411  -4.629  15.180 -0.16 +0.01    +0.050 C 
DOCKED: ATOM     19  C   UNL d   1      -8.683  -5.561  14.397 -0.12 +0.01    +0.045 A 
DOCKED: ATOM     20  C   UNL d   1     -10.129  -5.325   8.849 -0.24 +0.01    +0.045 A 
DOCKED: ATOM     21  C   UNL d   1     -10.621  -4.190   8.343 -0.31 +0.02    +0.057 C 
DOCKED: ATOM     22  C   UNL d   1      -9.478  -7.511   8.986 -0.19 -0.00    -0.019 A 
DOCKED: ATOM     23  C   UNL d   1      -9.197  -6.849  10.276 -0.19 +0.01    +0.045 A 
DOCKED: ATOM     24  C   UNL d   1     -10.028  -6.603   8.145 -0.22 -0.01    -0.022 A 
DOCKED: ATOM     25  C   UNL d   1      -8.305  -6.856  12.581 -0.12 +0.01    +0.049 A 
DOCKED: ATOM     26  C   UNL d   1      -7.572  -6.340  14.680 -0.12 -0.00    -0.018 A 
DOCKED: ATOM     27  C   UNL d   1      -7.326  -7.141  13.523 -0.12 +0.00    +0.003 A 
DOCKED: ATOM     28  C   UNL d   1      -8.632  -7.452  11.333 -0.18 +0.01    +0.052 C 
DOCKED: ATOM     29  C   UNL d   1     -10.470  -6.788   6.733 -0.22 +0.01    +0.046 C 
DOCKED: ATOM     30  C   UNL d   1      -6.783  -6.340  15.946 -0.10 +0.01    +0.046 C 
DOCKED: ATOM     31  H   UNL d   1      -9.501  -4.804  10.768 +0.10 +0.05    +0.166 HD
DOCKED: ATOM     32  H   UNL d   1      -9.902  -5.446  12.676 +0.04 +0.03    +0.166 HD
DOCKED: ENDROOT
DOCKED: BRANCH   7  33
DOCKED: ATOM     33  C   UNL d   1      -9.821  -1.895  16.688 -0.24 +0.04    +0.141 C 
DOCKED: BRANCH  33  34
DOCKED: ATOM     34  C   UNL d   1     -10.589  -1.203  17.781 -0.13 +0.10    +0.306 C 
DOCKED: ATOM     35  O   UNL d   1     -10.818  -1.648  18.894 -0.06 -0.06    -0.251 OA
DOCKED: BRANCH  34  36
DOCKED: ATOM     36  O   UNL d   1     -11.026   0.015  17.417 -0.09 -0.25    -0.481 OA
DOCKED: ATOM     37  H   UNL d   1     -11.671  -0.159  16.698 +0.08 +0.18    +0.295 HD
DOCKED: ENDBRANCH  34  36
DOCKED: ENDBRANCH  33  34
DOCKED: ENDBRANCH   7  33
DOCKED: BRANCH  27  38
DOCKED: ATOM     38  C   UNL d   1      -6.274  -8.104  13.394 -0.15 +0.00    +0.017 C 
DOCKED: ATOM     39  C   UNL d   1      -6.304  -9.354  13.883 -0.07 +0.02    +0.092 C 
DOCKED: BRANCH  39  40
DOCKED: ATOM     40  C   UNL d   1      -5.165 -10.249  13.667 -0.06 +0.02    +0.330 C 
DOCKED: ATOM     41  O   UNL d   1      -4.221 -10.444  14.409 -0.04 +0.02    -0.246 OA
DOCKED: BRANCH  40  42
DOCKED: ATOM     42  O   UNL d   1      -5.289 -10.879  12.488 -0.24 -0.20    -0.477 OA
DOCKED: ATOM     43  H   UNL d   1      -4.400 -10.800  12.085 -0.49 -0.15    +0.295 HD
DOCKED: ENDBRANCH  40  42
DOCKED: ENDBRANCH  39  40
DOCKED: ENDBRANCH  27  38
DOCKED: BRANCH   8  44
DOCKED: ATOM     44  C   UNL d   1     -12.451   0.067   9.631 -0.15 +0.05    +0.141 C 
DOCKED: BRANCH  44  45
DOCKED: ATOM     45  C   UNL d   1     -12.474   1.318   8.794 -0.12 +0.09    +0.306 C 
DOCKED: ATOM     46  O   UNL d   1     -12.806   2.431   9.161 -0.15 -0.07    -0.251 OA
DOCKED: BRANCH  45  47
DOCKED: ATOM     47  O   UNL d   1     -12.100   1.093   7.522 -0.15 -0.19    -0.481 OA
DOCKED: ATOM     48  H   UNL d   1     -12.320   0.150   7.362 +0.10 +0.17    +0.295 HD
DOCKED: ENDBRANCH  45  47
DOCKED: ENDBRANCH  44  45
DOCKED: ENDBRANCH   8  44
DOCKED: BRANCH  22  49
DOCKED: ATOM     49  C   UNL d   1      -9.198  -8.957   8.703 -0.15 +0.02    +0.048 C 
DOCKED: BRANCH  49  50
DOCKED: ATOM     50  C   UNL d   1      -9.571  -9.851   9.886 -0.08 +0.05    +0.125 C 
DOCKED: BRANCH  50  51
DOCKED: ATOM     51  C   UNL d   1      -8.443 -10.781  10.232 +0.01 +0.24    +0.305 C 
DOCKED: ATOM     52  O   UNL d   1      -8.220 -11.884   9.763 -0.07 -0.20    -0.251 OA
DOCKED: BRANCH  51  53
DOCKED: ATOM     53  O   UNL d   1      -7.639 -10.268  11.184 -0.44 -0.54    -0.481 OA
DOCKED: ATOM     54  H   UNL d   1      -7.270 -11.057  11.634 +0.03 +0.33    +0.295 HD
DOCKED: ENDBRANCH  51  53
DOCKED: ENDBRANCH  50  51
DOCKED: ENDBRANCH  49  50
DOCKED: ENDBRANCH  22  49
DOCKED: TORSDOF 13
DOCKED: TER
DOCKED: ENDMDL
________________________________________________________________________________


	BEGINNING GENETIC ALGORITHM DOCKING 14 of 100
Run: 14 Seed: 1143824137 1636695142 [ Run 14 of 100 GA/GALS ]
Beginning LAMARCKIAN GENETIC ALGORITHM (LGA), with a maximum of 25000000 energy evaluations.

Final-Value: -11.166


	FINAL GENETIC ALGORITHM DOCKED STATE
	_______________________________________________


Detailed state:  trans -16.095 7.615 3.559 quatxyzw -0.300110 0.076458 0.751891 -0.582020 center 0.153 0.018 -0.028 ntor 13 -179.4549 147.3209 -84.4865 -172.5598 -154.5794 131.3411 137.0333 70.2258 9.1269 -25.2900 -68.5392 -141.5631 17.9907
State:	-16.095   7.615   3.559  -0.369  0.094  0.925 -108.814   -179.45  147.32  -84.49 -172.56 -154.58  131.34  137.03   70.23    9.13  -25.29  -68.54 -141.56   17.99

DOCKED: MODEL       14
DOCKED: USER    Run = 14
DOCKED: USER    DPF = D:/Protein_go_brrr/autodock/final/mut_D99N/heme/dock.dpf
DOCKED: USER  
DOCKED: USER    Estimated Free Energy of Binding    =   -3.76 kcal/mol  [=(1)+(2)+(3)-(4)]
DOCKED: USER    Estimated Inhibition Constant, Ki   =    1.76 mM (millimolar)  [Temperature = 298.15 K]
DOCKED: USER    
DOCKED: USER    (1) Final Intermolecular Energy     =   -7.64 kcal/mol
DOCKED: USER        vdW + Hbond + desolv Energy     =   -7.41 kcal/mol
DOCKED: USER        Electrostatic Energy            =   -0.22 kcal/mol
DOCKED: USER    (2) Final Total Internal Energy     =   -3.53 kcal/mol
DOCKED: USER    (3) Torsional Free Energy           =   +3.88 kcal/mol
DOCKED: USER    (4) Unbound System's Energy  [=(2)] =   -3.53 kcal/mol
DOCKED: USER    
DOCKED: USER    
DOCKED: USER    NEWDPF move heme_opt.pdbqt
DOCKED: USER    NEWDPF about 0.153000 0.018000 -0.028000
DOCKED: USER    NEWDPF tran0 -16.095209 7.614641 3.558852
DOCKED: USER    NEWDPF quaternion0 -0.300110 0.076458 0.751891 -0.582020
DOCKED: USER    NEWDPF axisangle0 -0.369060 0.094024 0.924637 -108.814477
DOCKED: USER    NEWDPF quat0 -0.369060 0.094024 0.924637 -108.814477
DOCKED: USER    NEWDPF dihe0 -179.45 147.32 -84.49 -172.56 -154.58 131.34 137.03 70.23 9.13 -25.29 -68.54 -141.56 17.99 
DOCKED: USER  keepresnum = 1 
DOCKED: USER  
DOCKED: REMARK  13 active torsions:
DOCKED: REMARK  status: ('A' for Active; 'I' for Inactive)
DOCKED: REMARK    1  A    between atoms: O_3  and  C_38 
DOCKED: REMARK    2  A    between atoms: O_4  and  C_40 
DOCKED: REMARK    3  A    between atoms: O_7  and  C_46 
DOCKED: REMARK    4  A    between atoms: O_9  and  C_48 
DOCKED: REMARK    5  A    between atoms: C_15  and  C_20 
DOCKED: REMARK    6  A    between atoms: C_16  and  C_23 
DOCKED: REMARK    7  A    between atoms: C_20  and  C_38 
DOCKED: REMARK    8  A    between atoms: C_23  and  C_40 
DOCKED: REMARK    9  A    between atoms: C_32  and  C_41 
DOCKED: REMARK   10  A    between atoms: C_37  and  C_45 
DOCKED: REMARK   11  A    between atoms: C_41  and  C_44 
DOCKED: REMARK   12  A    between atoms: C_44  and  C_46 
DOCKED: REMARK   13  A    between atoms: C_47  and  C_48 
DOCKED: USER                              x       y       z     vdW  Elec       q    Type
DOCKED: USER                           _______ _______ _______ _____ _____    ______ ____
DOCKED: ROOT
DOCKED: ATOM      1  O   UNL d   1     -17.087   2.737   6.718 +0.00 -0.05    -0.289 OA
DOCKED: ATOM      2  O   UNL d   1     -10.681   6.184   4.854 -0.22 +0.06    -0.289 OA
DOCKED: ATOM      3  N   UNL d   1     -16.989   5.537   4.707 -0.05 -0.02    -0.247 NA
DOCKED: ATOM      4  N   UNL d   1     -14.128   6.335   4.786 +0.05 -0.00    -0.247 NA
DOCKED: ATOM      5  N   UNL d   1     -14.894   8.852   3.626 -0.03 +0.03    -0.354 N 
DOCKED: ATOM      6  N   UNL d   1     -17.862   8.024   3.566 -0.06 -0.00    -0.354 N 
DOCKED: ATOM      7  C   UNL d   1     -18.774   4.203   5.729 -0.01 +0.01    +0.084 A 
DOCKED: ATOM      8  C   UNL d   1     -12.490   4.579   5.236 -0.20 +0.01    +0.084 A 
DOCKED: ATOM      9  C   UNL d   1     -13.955   5.012   5.124 -0.12 +0.01    +0.058 A 
DOCKED: ATOM     10  C   UNL d   1     -18.358   5.398   4.865 -0.04 +0.01    +0.058 A 
DOCKED: ATOM     11  C   UNL d   1     -17.398   3.681   6.015 -0.01 +0.03    +0.193 A 
DOCKED: ATOM     12  C   UNL d   1     -16.405   4.560   5.320 -0.05 +0.01    +0.109 A 
DOCKED: ATOM     13  C   UNL d   1     -11.863   5.912   4.936 -0.20 -0.02    +0.193 A 
DOCKED: ATOM     14  C   UNL d   1     -19.421   4.643   7.044 -0.00 +0.00    +0.026 C 
DOCKED: ATOM     15  C   UNL d   1     -14.978   4.183   5.384 -0.09 +0.01    +0.055 C 
DOCKED: ATOM     16  C   UNL d   1     -12.102   3.593   4.131 -0.28 +0.00    +0.026 C 
DOCKED: ATOM     17  C   UNL d   1     -12.963   6.892   4.689 -0.10 -0.01    +0.109 A 
DOCKED: ATOM     18  C   UNL d   1     -19.271   6.174   4.251 -0.06 +0.00    +0.050 C 
DOCKED: ATOM     19  C   UNL d   1     -18.980   7.245   3.369 -0.10 +0.00    +0.045 A 
DOCKED: ATOM     20  C   UNL d   1     -13.591   9.129   3.950 -0.28 -0.00    +0.045 A 
DOCKED: ATOM     21  C   UNL d   1     -12.648   8.301   4.411 -0.35 -0.01    +0.057 C 
DOCKED: ATOM     22  C   UNL d   1     -14.596  11.049   3.227 -0.25 +0.00    -0.019 A 
DOCKED: ATOM     23  C   UNL d   1     -15.581   9.950   3.180 -0.24 -0.01    +0.045 A 
DOCKED: ATOM     24  C   UNL d   1     -13.419  10.556   3.682 -0.34 +0.00    -0.022 A 
DOCKED: ATOM     25  C   UNL d   1     -17.824   9.054   2.655 -0.17 -0.00    +0.049 A 
DOCKED: ATOM     26  C   UNL d   1     -19.666   7.760   2.279 -0.16 -0.00    -0.018 A 
DOCKED: ATOM     27  C   UNL d   1     -18.921   8.890   1.821 -0.20 +0.00    +0.003 A 
DOCKED: ATOM     28  C   UNL d   1     -16.847  10.081   2.757 -0.19 -0.01    +0.052 C 
DOCKED: ATOM     29  C   UNL d   1     -12.128  11.270   3.892 -0.39 -0.01    +0.046 C 
DOCKED: ATOM     30  C   UNL d   1     -20.934   7.235   1.697 -0.15 +0.01    +0.046 C 
DOCKED: ATOM     31  H   UNL d   1     -15.252   7.904   3.651 +0.07 -0.00    +0.166 HD
DOCKED: ATOM     32  H   UNL d   1     -17.195   7.867   4.312 +0.03 +0.00    +0.166 HD
DOCKED: ENDROOT
DOCKED: BRANCH   7  33
DOCKED: ATOM     33  C   UNL d   1     -19.615   3.139   5.016 -0.01 +0.02    +0.141 C 
DOCKED: BRANCH  33  34
DOCKED: ATOM     34  C   UNL d   1     -18.933   2.582   3.796 -0.02 +0.05    +0.306 C 
DOCKED: ATOM     35  O   UNL d   1     -19.155   2.897   2.639 -0.05 -0.04    -0.251 OA
DOCKED: BRANCH  34  36
DOCKED: ATOM     36  O   UNL d   1     -18.003   1.658   4.098 +0.00 -0.10    -0.481 OA
DOCKED: ATOM     37  H   UNL d   1     -18.002   1.621   5.079 +0.01 +0.06    +0.295 HD
DOCKED: ENDBRANCH  34  36
DOCKED: ENDBRANCH  33  34
DOCKED: ENDBRANCH   7  33
DOCKED: BRANCH  27  38
DOCKED: ATOM     38  C   UNL d   1     -19.287   9.727   0.718 -0.16 +0.00    +0.017 C 
DOCKED: ATOM     39  C   UNL d   1     -20.261  10.650   0.736 -0.15 +0.01    +0.092 C 
DOCKED: BRANCH  39  40
DOCKED: ATOM     40  C   UNL d   1     -20.524  11.456  -0.459 -0.10 +0.05    +0.330 C 
DOCKED: ATOM     41  O   UNL d   1     -21.593  11.645  -1.007 -0.05 -0.05    -0.246 OA
DOCKED: BRANCH  40  42
DOCKED: ATOM     42  O   UNL d   1     -19.384  12.005  -0.906 -0.45 -0.04    -0.477 OA
DOCKED: ATOM     43  H   UNL d   1     -18.865  12.165  -0.091 +0.08 -0.01    +0.295 HD
DOCKED: ENDBRANCH  40  42
DOCKED: ENDBRANCH  39  40
DOCKED: ENDBRANCH  27  38
DOCKED: BRANCH   8  44
DOCKED: ATOM     44  C   UNL d   1     -12.056   4.067   6.614 -0.26 +0.02    +0.141 C 
DOCKED: BRANCH  44  45
DOCKED: ATOM     45  C   UNL d   1     -11.881   5.165   7.628 -0.26 +0.01    +0.306 C 
DOCKED: ATOM     46  O   UNL d   1     -12.721   5.570   8.413 -0.13 -0.03    -0.251 OA
DOCKED: BRANCH  45  47
DOCKED: ATOM     47  O   UNL d   1     -10.656   5.719   7.582 -0.23 +0.03    -0.481 OA
DOCKED: ATOM     48  H   UNL d   1     -10.759   6.501   6.999 -0.38 -0.13    +0.295 HD
DOCKED: ENDBRANCH  45  47
DOCKED: ENDBRANCH  44  45
DOCKED: ENDBRANCH   8  44
DOCKED: BRANCH  22  49
DOCKED: ATOM     49  C   UNL d   1     -14.896  12.467   2.840 -0.19 -0.01    +0.048 C 
DOCKED: BRANCH  49  50
DOCKED: ATOM     50  C   UNL d   1     -15.219  12.595   1.352 -0.29 -0.02    +0.125 C 
DOCKED: BRANCH  50  51
DOCKED: ATOM     51  C   UNL d   1     -16.660  12.967   1.145 -0.10 -0.04    +0.305 C 
DOCKED: ATOM     52  O   UNL d   1     -17.219  13.994   1.488 -0.07 +0.02    -0.251 OA
DOCKED: BRANCH  51  53
DOCKED: ATOM     53  O   UNL d   1     -17.346  11.995   0.511 -0.11 +0.11    -0.481 OA
DOCKED: ATOM     54  H   UNL d   1     -16.711  11.249   0.462 -0.34 -0.18    +0.295 HD
DOCKED: ENDBRANCH  51  53
DOCKED: ENDBRANCH  50  51
DOCKED: ENDBRANCH  49  50
DOCKED: ENDBRANCH  22  49
DOCKED: TORSDOF 13
DOCKED: TER
DOCKED: ENDMDL
________________________________________________________________________________


	BEGINNING GENETIC ALGORITHM DOCKING 15 of 100
Run: 15 Seed: 556452950 554231168 [ Run 15 of 100 GA/GALS ]
Beginning LAMARCKIAN GENETIC ALGORITHM (LGA), with a maximum of 25000000 energy evaluations.

Final-Value: -11.377


	FINAL GENETIC ALGORITHM DOCKED STATE
	_______________________________________________


Detailed state:  trans 19.025 -3.009 3.109 quatxyzw 0.749630 0.100816 -0.402083 -0.515965 center 0.153 0.018 -0.028 ntor 13 -171.4868 178.6148 -33.6430 -28.8157 -159.0637 73.2276 163.1353 -91.8786 9.7294 145.0313 -84.3349 -88.0321 -7.5830
State:	 19.025  -3.009   3.109   0.875  0.118 -0.469 -117.876   -171.49  178.61  -33.64  -28.82 -159.06   73.23  163.14  -91.88    9.73  145.03  -84.33  -88.03   -7.58

DOCKED: MODEL       15
DOCKED: USER    Run = 15
DOCKED: USER    DPF = D:/Protein_go_brrr/autodock/final/mut_D99N/heme/dock.dpf
DOCKED: USER  
DOCKED: USER    Estimated Free Energy of Binding    =   -3.58 kcal/mol  [=(1)+(2)+(3)-(4)]
DOCKED: USER    Estimated Inhibition Constant, Ki   =    2.36 mM (millimolar)  [Temperature = 298.15 K]
DOCKED: USER    
DOCKED: USER    (1) Final Intermolecular Energy     =   -7.46 kcal/mol
DOCKED: USER        vdW + Hbond + desolv Energy     =   -7.41 kcal/mol
DOCKED: USER        Electrostatic Energy            =   -0.05 kcal/mol
DOCKED: USER    (2) Final Total Internal Energy     =   -3.92 kcal/mol
DOCKED: USER    (3) Torsional Free Energy           =   +3.88 kcal/mol
DOCKED: USER    (4) Unbound System's Energy  [=(2)] =   -3.92 kcal/mol
DOCKED: USER    
DOCKED: USER    
DOCKED: USER    NEWDPF move heme_opt.pdbqt
DOCKED: USER    NEWDPF about 0.153000 0.018000 -0.028000
DOCKED: USER    NEWDPF tran0 19.025133 -3.008779 3.108814
DOCKED: USER    NEWDPF quaternion0 0.749630 0.100816 -0.402083 -0.515965
DOCKED: USER    NEWDPF axisangle0 0.875113 0.117692 -0.469388 -117.876047
DOCKED: USER    NEWDPF quat0 0.875113 0.117692 -0.469388 -117.876047
DOCKED: USER    NEWDPF dihe0 -171.49 178.61 -33.64 -28.82 -159.06 73.23 163.14 -91.88 9.73 145.03 -84.33 -88.03 -7.58 
DOCKED: USER  keepresnum = 1 
DOCKED: USER  
DOCKED: REMARK  13 active torsions:
DOCKED: REMARK  status: ('A' for Active; 'I' for Inactive)
DOCKED: REMARK    1  A    between atoms: O_3  and  C_38 
DOCKED: REMARK    2  A    between atoms: O_4  and  C_40 
DOCKED: REMARK    3  A    between atoms: O_7  and  C_46 
DOCKED: REMARK    4  A    between atoms: O_9  and  C_48 
DOCKED: REMARK    5  A    between atoms: C_15  and  C_20 
DOCKED: REMARK    6  A    between atoms: C_16  and  C_23 
DOCKED: REMARK    7  A    between atoms: C_20  and  C_38 
DOCKED: REMARK    8  A    between atoms: C_23  and  C_40 
DOCKED: REMARK    9  A    between atoms: C_32  and  C_41 
DOCKED: REMARK   10  A    between atoms: C_37  and  C_45 
DOCKED: REMARK   11  A    between atoms: C_41  and  C_44 
DOCKED: REMARK   12  A    between atoms: C_44  and  C_46 
DOCKED: REMARK   13  A    between atoms: C_47  and  C_48 
DOCKED: USER                              x       y       z     vdW  Elec       q    Type
DOCKED: USER                           _______ _______ _______ _____ _____    ______ ____
DOCKED: ROOT
DOCKED: ATOM      1  O   UNL d   1      15.975  -2.838   8.151 -0.31 +0.04    -0.289 OA
DOCKED: ATOM      2  O   UNL d   1      15.326   1.209   1.859 -0.10 -0.00    -0.289 OA
DOCKED: ATOM      3  N   UNL d   1      18.107  -3.206   5.465 -0.12 +0.00    -0.247 NA
DOCKED: ATOM      4  N   UNL d   1      16.904  -1.450   3.392 -0.15 +0.02    -0.247 NA
DOCKED: ATOM      5  N   UNL d   1      18.613  -2.717   1.458 -0.08 +0.04    -0.354 N 
DOCKED: ATOM      6  N   UNL d   1      19.842  -4.548   3.611 -0.08 -0.05    -0.354 N 
DOCKED: ATOM      7  C   UNL d   1      17.790  -4.378   7.594 -0.15 -0.01    +0.084 A 
DOCKED: ATOM      8  C   UNL d   1      15.551   0.431   4.169 -0.21 -0.00    +0.084 A 
DOCKED: ATOM      9  C   UNL d   1      16.346  -0.838   4.493 -0.23 -0.00    +0.058 A 
DOCKED: ATOM     10  C   UNL d   1      18.541  -4.249   6.266 -0.14 +0.00    +0.058 A 
DOCKED: ATOM     11  C   UNL d   1      16.865  -3.212   7.410 -0.20 -0.02    +0.193 A 
DOCKED: ATOM     12  C   UNL d   1      17.174  -2.569   6.093 -0.23 -0.01    +0.109 A 
DOCKED: ATOM     13  C   UNL d   1      15.728   0.405   2.677 -0.07 -0.00    +0.193 A 
DOCKED: ATOM     14  C   UNL d   1      16.959  -5.663   7.661 -0.27 -0.00    +0.026 C 
DOCKED: ATOM     15  C   UNL d   1      16.446  -1.335   5.735 -0.29 -0.00    +0.055 C 
DOCKED: ATOM     16  C   UNL d   1      16.232   1.686   4.724 -0.09 +0.00    +0.026 C 
DOCKED: ATOM     17  C   UNL d   1      16.560  -0.788   2.334 -0.08 -0.00    +0.109 A 
DOCKED: ATOM     18  C   UNL d   1      19.590  -5.040   5.972 -0.17 +0.01    +0.050 C 
DOCKED: ATOM     19  C   UNL d   1      20.396  -4.939   4.809 -0.20 +0.01    +0.045 A 
DOCKED: ATOM     20  C   UNL d   1      17.797  -2.003   0.620 -0.24 -0.01    +0.045 A 
DOCKED: ATOM     21  C   UNL d   1      16.864  -1.097   0.929 -0.23 -0.00    +0.057 C 
DOCKED: ATOM     22  C   UNL d   1      19.139  -3.360  -0.635 -0.30 +0.00    -0.019 A 
DOCKED: ATOM     23  C   UNL d   1      19.458  -3.563   0.792 -0.25 -0.01    +0.045 A 
DOCKED: ATOM     24  C   UNL d   1      18.156  -2.434  -0.731 -0.28 +0.01    -0.022 A 
DOCKED: ATOM     25  C   UNL d   1      20.777  -4.606   2.604 -0.22 +0.01    +0.049 A 
DOCKED: ATOM     26  C   UNL d   1      21.735  -5.221   4.583 -0.16 -0.01    -0.018 A 
DOCKED: ATOM     27  C   UNL d   1      21.974  -4.991   3.193 -0.19 +0.00    +0.003 A 
DOCKED: ATOM     28  C   UNL d   1      20.403  -4.400   1.249 -0.28 -0.00    +0.052 C 
DOCKED: ATOM     29  C   UNL d   1      17.506  -1.887  -1.956 -0.42 -0.01    +0.046 C 
DOCKED: ATOM     30  C   UNL d   1      22.732  -5.676   5.594 -0.07 +0.02    +0.046 C 
DOCKED: ATOM     31  H   UNL d   1      18.617  -2.547   2.458 +0.06 -0.01    +0.166 HD
DOCKED: ATOM     32  H   UNL d   1      18.867  -4.298   3.501 +0.07 +0.02    +0.166 HD
DOCKED: ENDROOT
DOCKED: BRANCH   7  33
DOCKED: ATOM     33  C   UNL d   1      18.644  -4.194   8.853 -0.04 -0.00    +0.141 C 
DOCKED: BRANCH  33  34
DOCKED: ATOM     34  C   UNL d   1      19.346  -2.864   8.887 +0.00 +0.00    +0.306 C 
DOCKED: ATOM     35  O   UNL d   1      20.531  -2.669   8.676 -0.00 -0.01    -0.251 OA
DOCKED: BRANCH  34  36
DOCKED: ATOM     36  O   UNL d   1      18.517  -1.847   9.183 +0.00 -0.00    -0.481 OA
DOCKED: ATOM     37  H   UNL d   1      17.663  -2.280   9.397 +0.05 -0.01    +0.295 HD
DOCKED: ENDBRANCH  34  36
DOCKED: ENDBRANCH  33  34
DOCKED: ENDBRANCH   7  33
DOCKED: BRANCH  27  38
DOCKED: ATOM     38  C   UNL d   1      23.229  -5.179   2.530 -0.15 +0.01    +0.017 C 
DOCKED: ATOM     39  C   UNL d   1      23.414  -5.893   1.409 -0.15 +0.03    +0.092 C 
DOCKED: BRANCH  39  40
DOCKED: ATOM     40  C   UNL d   1      24.751  -5.993   0.819 -0.06 +0.09    +0.330 C 
DOCKED: ATOM     41  O   UNL d   1      25.709  -6.608   1.247 -0.05 -0.09    -0.246 OA
DOCKED: BRANCH  40  42
DOCKED: ATOM     42  O   UNL d   1      24.804  -5.294  -0.325 +0.00 -0.07    -0.477 OA
DOCKED: ATOM     43  H   UNL d   1      23.896  -4.941  -0.427 +0.05 +0.04    +0.295 HD
DOCKED: ENDBRANCH  40  42
DOCKED: ENDBRANCH  39  40
DOCKED: ENDBRANCH  27  38
DOCKED: BRANCH   8  44
DOCKED: ATOM     44  C   UNL d   1      14.066   0.394   4.546 -0.30 -0.01    +0.141 C 
DOCKED: BRANCH  44  45
DOCKED: ATOM     45  C   UNL d   1      13.779   1.008   5.890 -0.17 +0.02    +0.306 C 
DOCKED: ATOM     46  O   UNL d   1      13.065   1.970   6.112 -0.19 -0.04    -0.251 OA
DOCKED: BRANCH  45  47
DOCKED: ATOM     47  O   UNL d   1      14.433   0.388   6.889 -0.18 -0.06    -0.481 OA
DOCKED: ATOM     48  H   UNL d   1      14.650   1.103   7.525 +0.09 +0.04    +0.295 HD
DOCKED: ENDBRANCH  45  47
DOCKED: ENDBRANCH  44  45
DOCKED: ENDBRANCH   8  44
DOCKED: BRANCH  22  49
DOCKED: ATOM     49  C   UNL d   1      19.808  -4.093  -1.761 -0.39 -0.00    +0.048 C 
DOCKED: BRANCH  49  50
DOCKED: ATOM     50  C   UNL d   1      21.033  -3.341  -2.280 -0.18 +0.01    +0.125 C 
DOCKED: BRANCH  50  51
DOCKED: ATOM     51  C   UNL d   1      22.292  -3.867  -1.652 -0.06 +0.02    +0.305 C 
DOCKED: ATOM     52  O   UNL d   1      22.900  -3.403  -0.703 -0.03 -0.02    -0.251 OA
DOCKED: BRANCH  51  53
DOCKED: ATOM     53  O   UNL d   1      22.742  -4.975  -2.275 -0.02 -0.04    -0.481 OA
DOCKED: ATOM     54  H   UNL d   1      23.712  -4.945  -2.143 +0.06 +0.03    +0.295 HD
DOCKED: ENDBRANCH  51  53
DOCKED: ENDBRANCH  50  51
DOCKED: ENDBRANCH  49  50
DOCKED: ENDBRANCH  22  49
DOCKED: TORSDOF 13
DOCKED: TER
DOCKED: ENDMDL
________________________________________________________________________________


	BEGINNING GENETIC ALGORITHM DOCKING 16 of 100
Run: 16 Seed: 1631319397 1081111300 [ Run 16 of 100 GA/GALS ]
Beginning LAMARCKIAN GENETIC ALGORITHM (LGA), with a maximum of 25000000 energy evaluations.

Final-Value: -10.774


	FINAL GENETIC ALGORITHM DOCKED STATE
	_______________________________________________


Detailed state:  trans 0.663 17.925 1.550 quatxyzw -0.507755 -0.640394 -0.486090 -0.309511 center 0.153 0.018 -0.028 ntor 13 -169.1613 134.8285 40.7446 55.4416 -159.6080 95.7227 83.6530 67.6584 7.8993 -13.5202 -84.1058 -101.1011 4.8229
State:	  0.663  17.925   1.550  -0.534 -0.673 -0.511 -143.940   -169.16  134.83   40.74   55.44 -159.61   95.72   83.65   67.66    7.90  -13.52  -84.11 -101.10    4.82

DOCKED: MODEL       16
DOCKED: USER    Run = 16
DOCKED: USER    DPF = D:/Protein_go_brrr/autodock/final/mut_D99N/heme/dock.dpf
DOCKED: USER  
DOCKED: USER    Estimated Free Energy of Binding    =   -2.75 kcal/mol  [=(1)+(2)+(3)-(4)]
DOCKED: USER    Estimated Inhibition Constant, Ki   =    9.67 mM (millimolar)  [Temperature = 298.15 K]
DOCKED: USER    
DOCKED: USER    (1) Final Intermolecular Energy     =   -6.63 kcal/mol
DOCKED: USER        vdW + Hbond + desolv Energy     =   -6.51 kcal/mol
DOCKED: USER        Electrostatic Energy            =   -0.11 kcal/mol
DOCKED: USER    (2) Final Total Internal Energy     =   -4.15 kcal/mol
DOCKED: USER    (3) Torsional Free Energy           =   +3.88 kcal/mol
DOCKED: USER    (4) Unbound System's Energy  [=(2)] =   -4.15 kcal/mol
DOCKED: USER    
DOCKED: USER    
DOCKED: USER    NEWDPF move heme_opt.pdbqt
DOCKED: USER    NEWDPF about 0.153000 0.018000 -0.028000
DOCKED: USER    NEWDPF tran0 0.662631 17.925055 1.550442
DOCKED: USER    NEWDPF quaternion0 -0.507755 -0.640394 -0.486090 -0.309511
DOCKED: USER    NEWDPF axisangle0 -0.533976 -0.673464 -0.511191 -143.940494
DOCKED: USER    NEWDPF quat0 -0.533976 -0.673464 -0.511191 -143.940494
DOCKED: USER    NEWDPF dihe0 -169.16 134.83 40.74 55.44 -159.61 95.72 83.65 67.66 7.90 -13.52 -84.11 -101.10 4.82 
DOCKED: USER  keepresnum = 1 
DOCKED: USER  
DOCKED: REMARK  13 active torsions:
DOCKED: REMARK  status: ('A' for Active; 'I' for Inactive)
DOCKED: REMARK    1  A    between atoms: O_3  and  C_38 
DOCKED: REMARK    2  A    between atoms: O_4  and  C_40 
DOCKED: REMARK    3  A    between atoms: O_7  and  C_46 
DOCKED: REMARK    4  A    between atoms: O_9  and  C_48 
DOCKED: REMARK    5  A    between atoms: C_15  and  C_20 
DOCKED: REMARK    6  A    between atoms: C_16  and  C_23 
DOCKED: REMARK    7  A    between atoms: C_20  and  C_38 
DOCKED: REMARK    8  A    between atoms: C_23  and  C_40 
DOCKED: REMARK    9  A    between atoms: C_32  and  C_41 
DOCKED: REMARK   10  A    between atoms: C_37  and  C_45 
DOCKED: REMARK   11  A    between atoms: C_41  and  C_44 
DOCKED: REMARK   12  A    between atoms: C_44  and  C_46 
DOCKED: REMARK   13  A    between atoms: C_47  and  C_48 
DOCKED: USER                              x       y       z     vdW  Elec       q    Type
DOCKED: USER                           _______ _______ _______ _____ _____    ______ ____
DOCKED: ROOT
DOCKED: ATOM      1  O   UNL d   1       3.975  16.591  -3.141 -0.02 +0.01    -0.289 OA
DOCKED: ATOM      2  O   UNL d   1      -3.323  15.460  -1.778 -0.25 -0.13    -0.289 OA
DOCKED: ATOM      3  N   UNL d   1       2.481  17.434  -0.148 -0.15 -0.01    -0.247 NA
DOCKED: ATOM      4  N   UNL d   1      -0.400  16.910  -0.652 -0.17 -0.02    -0.247 NA
DOCKED: ATOM      5  N   UNL d   1      -0.992  18.375   1.750 -0.13 -0.07    -0.354 N 
DOCKED: ATOM      6  N   UNL d   1       1.998  18.931   2.254 -0.11 -0.03    -0.354 N 
DOCKED: ATOM      7  C   UNL d   1       4.705  17.764  -1.124 -0.07 +0.00    +0.084 A 
DOCKED: ATOM      8  C   UNL d   1      -0.953  15.242  -2.351 -0.29 +0.01    +0.084 A 
DOCKED: ATOM      9  C   UNL d   1       0.107  16.077  -1.625 -0.24 +0.00    +0.058 A 
DOCKED: ATOM     10  C   UNL d   1       3.742  17.970   0.049 -0.14 +0.00    +0.058 A 
DOCKED: ATOM     11  C   UNL d   1       3.770  16.999  -2.012 -0.06 +0.00    +0.193 A 
DOCKED: ATOM     12  C   UNL d   1       2.463  16.842  -1.298 -0.15 +0.00    +0.109 A 
DOCKED: ATOM     13  C   UNL d   1      -2.159  15.783  -1.637 -0.21 +0.04    +0.193 A 
DOCKED: ATOM     14  C   UNL d   1       5.069  19.084  -1.808 -0.02 +0.00    +0.026 C 
DOCKED: ATOM     15  C   UNL d   1       1.409  16.036  -1.946 -0.25 -0.00    +0.055 C 
DOCKED: ATOM     16  C   UNL d   1      -0.818  13.751  -2.031 -0.50 -0.00    +0.026 C 
DOCKED: ATOM     17  C   UNL d   1      -1.689  16.790  -0.638 -0.18 +0.02    +0.109 A 
DOCKED: ATOM     18  C   UNL d   1       4.145  18.548   1.196 -0.15 +0.00    +0.050 C 
DOCKED: ATOM     19  C   UNL d   1       3.352  18.705   2.361 -0.11 +0.00    +0.045 A 
DOCKED: ATOM     20  C   UNL d   1      -2.257  18.237   1.241 -0.21 +0.01    +0.045 A 
DOCKED: ATOM     21  C   UNL d   1      -2.662  17.522   0.186 -0.25 +0.02    +0.057 C 
DOCKED: ATOM     22  C   UNL d   1      -2.340  19.614   3.061 -0.15 -0.00    -0.019 A 
DOCKED: ATOM     23  C   UNL d   1      -0.942  19.189   2.850 -0.20 +0.01    +0.045 A 
DOCKED: ATOM     24  C   UNL d   1      -3.114  19.046   2.106 -0.18 -0.01    -0.022 A 
DOCKED: ATOM     25  C   UNL d   1       1.444  19.143   3.495 -0.17 +0.00    +0.049 A 
DOCKED: ATOM     26  C   UNL d   1       3.679  18.734   3.708 -0.11 -0.00    -0.018 A 
DOCKED: ATOM     27  C   UNL d   1       2.467  18.992   4.421 -0.14 +0.00    +0.003 A 
DOCKED: ATOM     28  C   UNL d   1       0.089  19.551   3.629 -0.21 +0.01    +0.052 C 
DOCKED: ATOM     29  C   UNL d   1      -4.587  19.162   1.907 -0.11 +0.03    +0.046 C 
DOCKED: ATOM     30  C   UNL d   1       5.033  18.534   4.300 -0.14 +0.00    +0.046 C 
DOCKED: ATOM     31  H   UNL d   1      -0.212  17.848   1.372 +0.03 +0.02    +0.166 HD
DOCKED: ATOM     32  H   UNL d   1       1.505  18.973   1.370 +0.03 +0.01    +0.166 HD
DOCKED: ENDROOT
DOCKED: BRANCH   7  33
DOCKED: ATOM     33  C   UNL d   1       5.952  16.930  -0.811 -0.07 +0.00    +0.141 C 
DOCKED: BRANCH  33  34
DOCKED: ATOM     34  C   UNL d   1       5.617  15.576  -0.245 -0.13 +0.02    +0.306 C 
DOCKED: ATOM     35  O   UNL d   1       5.733  15.233   0.919 -0.20 -0.01    -0.251 OA
DOCKED: BRANCH  34  36
DOCKED: ATOM     36  O   UNL d   1       5.151  14.726  -1.177 -0.08 -0.03    -0.481 OA
DOCKED: ATOM     37  H   UNL d   1       5.284  15.196  -2.028 +0.09 +0.01    +0.295 HD
DOCKED: ENDBRANCH  34  36
DOCKED: ENDBRANCH  33  34
DOCKED: ENDBRANCH   7  33
DOCKED: BRANCH  27  38
DOCKED: ATOM     38  C   UNL d   1       2.357  19.118   5.843 -0.21 +0.00    +0.017 C 
DOCKED: ATOM     39  C   UNL d   1       1.996  20.233   6.495 -0.08 +0.00    +0.092 C 
DOCKED: BRANCH  39  40
DOCKED: ATOM     40  C   UNL d   1       1.904  20.226   7.958 -0.03 +0.01    +0.330 C 
DOCKED: ATOM     41  O   UNL d   1       2.762  20.546   8.758 -0.02 -0.00    -0.246 OA
DOCKED: BRANCH  40  42
DOCKED: ATOM     42  O   UNL d   1       0.688  19.809   8.342 -0.01 -0.02    -0.477 OA
DOCKED: ATOM     43  H   UNL d   1       0.075  20.301   7.757 +0.05 +0.01    +0.295 HD
DOCKED: ENDBRANCH  40  42
DOCKED: ENDBRANCH  39  40
DOCKED: ENDBRANCH  27  38
DOCKED: BRANCH   8  44
DOCKED: ATOM     44  C   UNL d   1      -1.058  15.478  -3.861 -0.20 +0.01    +0.141 C 
DOCKED: BRANCH  44  45
DOCKED: ATOM     45  C   UNL d   1      -1.475  16.881  -4.216 -0.06 +0.03    +0.306 C 
DOCKED: ATOM     46  O   UNL d   1      -1.112  17.907  -3.669 -0.03 -0.02    -0.251 OA
DOCKED: BRANCH  45  47
DOCKED: ATOM     47  O   UNL d   1      -2.356  16.914  -5.233 -0.26 -0.10    -0.481 OA
DOCKED: ATOM     48  H   UNL d   1      -2.080  17.683  -5.775 +0.04 +0.03    +0.295 HD
DOCKED: ENDBRANCH  45  47
DOCKED: ENDBRANCH  44  45
DOCKED: ENDBRANCH   8  44
DOCKED: BRANCH  22  49
DOCKED: ATOM     49  C   UNL d   1      -2.784  20.538   4.157 -0.08 +0.01    +0.048 C 
DOCKED: BRANCH  49  50
DOCKED: ATOM     50  C   UNL d   1      -2.894  19.817   5.500 -0.11 +0.02    +0.125 C 
DOCKED: BRANCH  50  51
DOCKED: ATOM     51  C   UNL d   1      -1.650  20.015   6.319 -0.06 +0.03    +0.305 C 
DOCKED: ATOM     52  O   UNL d   1      -1.191  21.066   6.731 -0.02 -0.01    -0.251 OA
DOCKED: BRANCH  51  53
DOCKED: ATOM     53  O   UNL d   1      -1.022  18.850   6.573 -0.09 -0.06    -0.481 OA
DOCKED: ATOM     54  H   UNL d   1      -0.943  18.829   7.549 +0.09 +0.02    +0.295 HD
DOCKED: ENDBRANCH  51  53
DOCKED: ENDBRANCH  50  51
DOCKED: ENDBRANCH  49  50
DOCKED: ENDBRANCH  22  49
DOCKED: TORSDOF 13
DOCKED: TER
DOCKED: ENDMDL
________________________________________________________________________________


	BEGINNING GENETIC ALGORITHM DOCKING 17 of 100
Run: 17 Seed: 1612107758 743779858 [ Run 17 of 100 GA/GALS ]
Beginning LAMARCKIAN GENETIC ALGORITHM (LGA), with a maximum of 25000000 energy evaluations.

Final-Value: -12.941


	FINAL GENETIC ALGORITHM DOCKED STATE
	_______________________________________________


Detailed state:  trans -10.882 12.758 -13.224 quatxyzw 0.450934 -0.520189 -0.691180 0.219845 center 0.153 0.018 -0.028 ntor 13 -109.3463 -174.9728 20.9830 116.8681 38.7478 74.6866 121.4458 101.8714 134.1608 160.3258 -35.9529 -66.9907 -5.5437
State:	-10.882  12.758 -13.224   0.462 -0.533 -0.709 154.600   -109.35 -174.97   20.98  116.87   38.75   74.69  121.45  101.87  134.16  160.33  -35.95  -66.99   -5.54

DOCKED: MODEL       17
DOCKED: USER    Run = 17
DOCKED: USER    DPF = D:/Protein_go_brrr/autodock/final/mut_D99N/heme/dock.dpf
DOCKED: USER  
DOCKED: USER    Estimated Free Energy of Binding    =   -6.28 kcal/mol  [=(1)+(2)+(3)-(4)]
DOCKED: USER    Estimated Inhibition Constant, Ki   =   25.06 uM (micromolar)  [Temperature = 298.15 K]
DOCKED: USER    
DOCKED: USER    (1) Final Intermolecular Energy     =  -10.15 kcal/mol
DOCKED: USER        vdW + Hbond + desolv Energy     =   -9.31 kcal/mol
DOCKED: USER        Electrostatic Energy            =   -0.84 kcal/mol
DOCKED: USER    (2) Final Total Internal Energy     =   -2.79 kcal/mol
DOCKED: USER    (3) Torsional Free Energy           =   +3.88 kcal/mol
DOCKED: USER    (4) Unbound System's Energy  [=(2)] =   -2.79 kcal/mol
DOCKED: USER    
DOCKED: USER    
DOCKED: USER    NEWDPF move heme_opt.pdbqt
DOCKED: USER    NEWDPF about 0.153000 0.018000 -0.028000
DOCKED: USER    NEWDPF tran0 -10.881626 12.758144 -13.223969
DOCKED: USER    NEWDPF quaternion0 0.450934 -0.520189 -0.691180 0.219845
DOCKED: USER    NEWDPF axisangle0 0.462243 -0.533235 -0.708514 154.600161
DOCKED: USER    NEWDPF quat0 0.462243 -0.533235 -0.708514 154.600161
DOCKED: USER    NEWDPF dihe0 -109.35 -174.97 20.98 116.87 38.75 74.69 121.45 101.87 134.16 160.33 -35.95 -66.99 -5.54 
DOCKED: USER  keepresnum = 1 
DOCKED: USER  
DOCKED: REMARK  13 active torsions:
DOCKED: REMARK  status: ('A' for Active; 'I' for Inactive)
DOCKED: REMARK    1  A    between atoms: O_3  and  C_38 
DOCKED: REMARK    2  A    between atoms: O_4  and  C_40 
DOCKED: REMARK    3  A    between atoms: O_7  and  C_46 
DOCKED: REMARK    4  A    between atoms: O_9  and  C_48 
DOCKED: REMARK    5  A    between atoms: C_15  and  C_20 
DOCKED: REMARK    6  A    between atoms: C_16  and  C_23 
DOCKED: REMARK    7  A    between atoms: C_20  and  C_38 
DOCKED: REMARK    8  A    between atoms: C_23  and  C_40 
DOCKED: REMARK    9  A    between atoms: C_32  and  C_41 
DOCKED: REMARK   10  A    between atoms: C_37  and  C_45 
DOCKED: REMARK   11  A    between atoms: C_41  and  C_44 
DOCKED: REMARK   12  A    between atoms: C_44  and  C_46 
DOCKED: REMARK   13  A    between atoms: C_47  and  C_48 
DOCKED: USER                              x       y       z     vdW  Elec       q    Type
DOCKED: USER                           _______ _______ _______ _____ _____    ______ ____
DOCKED: ROOT
DOCKED: ATOM      1  O   UNL d   1      -9.656  13.668  -7.530 -0.18 +0.00    -0.289 OA
DOCKED: ATOM      2  O   UNL d   1      -5.193  13.504 -13.566 -0.07 +0.02    -0.289 OA
DOCKED: ATOM      3  N   UNL d   1     -10.822  12.953 -10.696 -0.19 +0.07    -0.247 NA
DOCKED: ATOM      4  N   UNL d   1      -8.446  13.417 -12.419 -0.17 +0.06    -0.247 NA
DOCKED: ATOM      5  N   UNL d   1     -10.200  13.347 -14.697 -0.07 +0.18    -0.354 N 
DOCKED: ATOM      6  N   UNL d   1     -12.662  12.885 -12.900 +0.00 +0.21    -0.354 N 
DOCKED: ATOM      7  C   UNL d   1     -11.867  13.309  -8.508 -0.20 -0.01    +0.084 A 
DOCKED: ATOM      8  C   UNL d   1      -6.247  13.165 -11.383 -0.18 -0.00    +0.084 A 
DOCKED: ATOM      9  C   UNL d   1      -7.772  13.199 -11.238 -0.26 -0.01    +0.058 A 
DOCKED: ATOM     10  C   UNL d   1     -12.019  13.008 -10.002 -0.25 -0.01    +0.058 A 
DOCKED: ATOM     11  C   UNL d   1     -10.371  13.396  -8.477 -0.08 -0.01    +0.193 A 
DOCKED: ATOM     12  C   UNL d   1      -9.854  13.136  -9.858 -0.13 -0.01    +0.109 A 
DOCKED: ATOM     13  C   UNL d   1      -6.179  13.440 -12.859 -0.08 -0.02    +0.193 A 
DOCKED: ATOM     14  C   UNL d   1     -12.451  14.674  -8.134 -0.12 -0.00    +0.026 C 
DOCKED: ATOM     15  C   UNL d   1      -8.392  13.079 -10.054 -0.31 -0.00    +0.055 C 
DOCKED: ATOM     16  C   UNL d   1      -5.683  11.766 -11.117 -0.30 -0.00    +0.026 C 
DOCKED: ATOM     17  C   UNL d   1      -7.578  13.580 -13.365 -0.13 -0.02    +0.109 A 
DOCKED: ATOM     18  C   UNL d   1     -13.220  12.735 -10.546 -0.25 -0.02    +0.050 C 
DOCKED: ATOM     19  C   UNL d   1     -13.446  12.364 -11.896 -0.22 -0.02    +0.045 A 
DOCKED: ATOM     20  C   UNL d   1      -9.050  13.786 -15.299 -0.17 -0.01    +0.045 A 
DOCKED: ATOM     21  C   UNL d   1      -7.823  13.899 -14.780 -0.13 -0.01    +0.057 C 
DOCKED: ATOM     22  C   UNL d   1     -10.755  13.870 -16.816 -0.15 +0.01    -0.019 A 
DOCKED: ATOM     23  C   UNL d   1     -11.283  13.362 -15.534 -0.21 -0.03    +0.045 A 
DOCKED: ATOM     24  C   UNL d   1      -9.432  14.118 -16.670 -0.13 +0.01    -0.022 A 
DOCKED: ATOM     25  C   UNL d   1     -13.111  12.466 -14.131 -0.15 -0.04    +0.049 A 
DOCKED: ATOM     26  C   UNL d   1     -14.406  11.557 -12.486 -0.25 +0.01    -0.018 A 
DOCKED: ATOM     27  C   UNL d   1     -14.177  11.609 -13.896 -0.26 -0.00    +0.003 A 
DOCKED: ATOM     28  C   UNL d   1     -12.558  12.996 -15.328 -0.20 -0.04    +0.052 C 
DOCKED: ATOM     29  C   UNL d   1      -8.462  14.629 -17.681 -0.06 -0.01    +0.046 C 
DOCKED: ATOM     30  C   UNL d   1     -15.470  10.781 -11.786 -0.23 -0.03    +0.046 C 
DOCKED: ATOM     31  H   UNL d   1     -10.192  12.979 -13.751 -0.52 -0.15    +0.166 HD
DOCKED: ATOM     32  H   UNL d   1     -11.891  13.522 -12.736 -0.14 -0.09    +0.166 HD
DOCKED: ENDROOT
DOCKED: BRANCH   7  33
DOCKED: ATOM     33  C   UNL d   1     -12.362  12.208  -7.562 -0.30 -0.02    +0.141 C 
DOCKED: BRANCH  33  34
DOCKED: ATOM     34  C   UNL d   1     -12.224  12.586  -6.112 -0.33 -0.02    +0.306 C 
DOCKED: ATOM     35  O   UNL d   1     -13.079  13.113  -5.421 -0.40 -0.00    -0.251 OA
DOCKED: BRANCH  34  36
DOCKED: ATOM     36  O   UNL d   1     -11.017  12.276  -5.608 -0.22 +0.03    -0.481 OA
DOCKED: ATOM     37  H   UNL d   1     -10.396  12.883  -6.065 +0.19 -0.01    +0.295 HD
DOCKED: ENDBRANCH  34  36
DOCKED: ENDBRANCH  33  34
DOCKED: ENDBRANCH   7  33
DOCKED: BRANCH  27  38
DOCKED: ATOM     38  C   UNL d   1     -14.957  10.926 -14.884 -0.21 -0.02    +0.017 C 
DOCKED: ATOM     39  C   UNL d   1     -15.165  11.356 -16.138 -0.09 -0.09    +0.092 C 
DOCKED: BRANCH  39  40
DOCKED: ATOM     40  C   UNL d   1     -15.971  10.552 -17.060 -0.05 -0.26    +0.330 C 
DOCKED: ATOM     41  O   UNL d   1     -17.176  10.389 -17.046 -0.02 +0.10    -0.246 OA
DOCKED: BRANCH  40  42
DOCKED: ATOM     42  O   UNL d   1     -15.184   9.985 -17.988 -0.05 +0.56    -0.477 OA
DOCKED: ATOM     43  H   UNL d   1     -14.278  10.228 -17.707 -0.47 -0.73    +0.295 HD
DOCKED: ENDBRANCH  40  42
DOCKED: ENDBRANCH  39  40
DOCKED: ENDBRANCH  27  38
DOCKED: BRANCH   8  44
DOCKED: ATOM     44  C   UNL d   1      -5.484  14.231 -10.590 -0.10 -0.00    +0.141 C 
DOCKED: BRANCH  44  45
DOCKED: ATOM     45  C   UNL d   1      -4.688  13.663  -9.446 -0.15 -0.01    +0.306 C 
DOCKED: ATOM     46  O   UNL d   1      -3.619  13.082  -9.521 -0.18 +0.02    -0.251 OA
DOCKED: BRANCH  45  47
DOCKED: ATOM     47  O   UNL d   1      -5.299  13.834  -8.259 -0.15 +0.02    -0.481 OA
DOCKED: ATOM     48  H   UNL d   1      -4.582  13.742  -7.596 -0.27 -0.07    +0.295 HD
DOCKED: ENDBRANCH  45  47
DOCKED: ENDBRANCH  44  45
DOCKED: ENDBRANCH   8  44
DOCKED: BRANCH  22  49
DOCKED: ATOM     49  C   UNL d   1     -11.588  14.078 -18.047 -0.08 -0.02    +0.048 C 
DOCKED: BRANCH  49  50
DOCKED: ATOM     50  C   UNL d   1     -11.644  12.821 -18.914 -0.05 -0.10    +0.125 C 
DOCKED: BRANCH  50  51
DOCKED: ATOM     51  C   UNL d   1     -12.989  12.682 -19.571 -0.03 -0.20    +0.305 C 
DOCKED: ATOM     52  O   UNL d   1     -13.309  13.039 -20.691 -0.01 +0.09    -0.251 OA
DOCKED: BRANCH  51  53
DOCKED: ATOM     53  O   UNL d   1     -13.889  12.096 -18.757 -0.01 +0.51    -0.481 OA
DOCKED: ATOM     54  H   UNL d   1     -13.529  11.197 -18.611 -0.54 -0.64    +0.295 HD
DOCKED: ENDBRANCH  51  53
DOCKED: ENDBRANCH  50  51
DOCKED: ENDBRANCH  49  50
DOCKED: ENDBRANCH  22  49
DOCKED: TORSDOF 13
DOCKED: TER
DOCKED: ENDMDL
________________________________________________________________________________


	BEGINNING GENETIC ALGORITHM DOCKING 18 of 100
Run: 18 Seed: 854407735 1103006062 [ Run 18 of 100 GA/GALS ]
Beginning LAMARCKIAN GENETIC ALGORITHM (LGA), with a maximum of 25000000 energy evaluations.

Final-Value: -13.036


	FINAL GENETIC ALGORITHM DOCKED STATE
	_______________________________________________


Detailed state:  trans 13.810 -8.641 8.057 quatxyzw 0.154898 -0.353603 0.921455 0.043498 center 0.153 0.018 -0.028 ntor 13 172.5842 -49.8211 178.5742 92.9030 65.5140 118.0830 148.2383 -98.3248 149.0491 -4.6562 -55.0806 -38.6176 -165.2028
State:	 13.810  -8.641   8.057   0.155 -0.354  0.922 175.014    172.58  -49.82  178.57   92.90   65.51  118.08  148.24  -98.32  149.05   -4.66  -55.08  -38.62 -165.20

DOCKED: MODEL       18
DOCKED: USER    Run = 18
DOCKED: USER    DPF = D:/Protein_go_brrr/autodock/final/mut_D99N/heme/dock.dpf
DOCKED: USER  
DOCKED: USER    Estimated Free Energy of Binding    =   -6.97 kcal/mol  [=(1)+(2)+(3)-(4)]
DOCKED: USER    Estimated Inhibition Constant, Ki   =    7.83 uM (micromolar)  [Temperature = 298.15 K]
DOCKED: USER    
DOCKED: USER    (1) Final Intermolecular Energy     =  -10.84 kcal/mol
DOCKED: USER        vdW + Hbond + desolv Energy     =  -10.18 kcal/mol
DOCKED: USER        Electrostatic Energy            =   -0.67 kcal/mol
DOCKED: USER    (2) Final Total Internal Energy     =   -2.19 kcal/mol
DOCKED: USER    (3) Torsional Free Energy           =   +3.88 kcal/mol
DOCKED: USER    (4) Unbound System's Energy  [=(2)] =   -2.19 kcal/mol
DOCKED: USER    
DOCKED: USER    
DOCKED: USER    NEWDPF move heme_opt.pdbqt
DOCKED: USER    NEWDPF about 0.153000 0.018000 -0.028000
DOCKED: USER    NEWDPF tran0 13.809684 -8.641169 8.056739
DOCKED: USER    NEWDPF quaternion0 0.154898 -0.353603 0.921455 0.043498
DOCKED: USER    NEWDPF axisangle0 0.155045 -0.353938 0.922328 175.013914
DOCKED: USER    NEWDPF quat0 0.155045 -0.353938 0.922328 175.013914
DOCKED: USER    NEWDPF dihe0 172.58 -49.82 178.57 92.90 65.51 118.08 148.24 -98.32 149.05 -4.66 -55.08 -38.62 -165.20 
DOCKED: USER  keepresnum = 1 
DOCKED: USER  
DOCKED: REMARK  13 active torsions:
DOCKED: REMARK  status: ('A' for Active; 'I' for Inactive)
DOCKED: REMARK    1  A    between atoms: O_3  and  C_38 
DOCKED: REMARK    2  A    between atoms: O_4  and  C_40 
DOCKED: REMARK    3  A    between atoms: O_7  and  C_46 
DOCKED: REMARK    4  A    between atoms: O_9  and  C_48 
DOCKED: REMARK    5  A    between atoms: C_15  and  C_20 
DOCKED: REMARK    6  A    between atoms: C_16  and  C_23 
DOCKED: REMARK    7  A    between atoms: C_20  and  C_38 
DOCKED: REMARK    8  A    between atoms: C_23  and  C_40 
DOCKED: REMARK    9  A    between atoms: C_32  and  C_41 
DOCKED: REMARK   10  A    between atoms: C_37  and  C_45 
DOCKED: REMARK   11  A    between atoms: C_41  and  C_44 
DOCKED: REMARK   12  A    between atoms: C_44  and  C_46 
DOCKED: REMARK   13  A    between atoms: C_47  and  C_48 
DOCKED: USER                              x       y       z     vdW  Elec       q    Type
DOCKED: USER                           _______ _______ _______ _____ _____    ______ ____
DOCKED: ROOT
DOCKED: ATOM      1  O   UNL d   1      19.285  -9.251   5.959 -0.51 -0.09    -0.289 OA
DOCKED: ATOM      2  O   UNL d   1      15.972  -3.514   9.495 -0.17 +0.06    -0.289 OA
DOCKED: ATOM      3  N   UNL d   1      15.966  -9.299   6.896 -0.20 +0.08    -0.247 NA
DOCKED: ATOM      4  N   UNL d   1      15.660  -6.790   8.457 -0.17 +0.09    -0.247 NA
DOCKED: ATOM      5  N   UNL d   1      13.139  -7.796   9.404 -0.13 +0.15    -0.354 N 
DOCKED: ATOM      6  N   UNL d   1      13.473 -10.405   7.796 +0.12 +0.18    -0.354 N 
DOCKED: ATOM      7  C   UNL d   1      17.514 -10.935   5.927 -0.21 -0.02    +0.084 A 
DOCKED: ATOM      8  C   UNL d   1      17.194  -4.959   7.942 -0.17 -0.01    +0.084 A 
DOCKED: ATOM      9  C   UNL d   1      16.765  -6.414   7.726 -0.24 -0.01    +0.058 A 
DOCKED: ATOM     10  C   UNL d   1      16.112 -10.600   6.444 -0.25 -0.02    +0.058 A 
DOCKED: ATOM     11  C   UNL d   1      18.131  -9.587   6.149 -0.21 +0.01    +0.193 A 
DOCKED: ATOM     12  C   UNL d   1      17.085  -8.676   6.716 -0.25 -0.01    +0.109 A 
DOCKED: ATOM     13  C   UNL d   1      16.151  -4.590   8.960 -0.09 -0.06    +0.193 A 
DOCKED: ATOM     14  C   UNL d   1      18.225 -11.958   6.816 -0.09 -0.00    +0.026 C 
DOCKED: ATOM     15  C   UNL d   1      17.440  -7.259   6.933 -0.18 -0.00    +0.055 C 
DOCKED: ATOM     16  C   UNL d   1      16.978  -4.110   6.686 -0.32 -0.00    +0.026 C 
DOCKED: ATOM     17  C   UNL d   1      15.290  -5.789   9.189 +0.08 -0.04    +0.109 A 
DOCKED: ATOM     18  C   UNL d   1      15.104 -11.489   6.367 -0.27 -0.03    +0.050 C 
DOCKED: ATOM     19  C   UNL d   1      13.758 -11.242   6.741 -0.24 -0.02    +0.045 A 
DOCKED: ATOM     20  C   UNL d   1      13.277  -6.702  10.219 -0.25 -0.02    +0.045 A 
DOCKED: ATOM     21  C   UNL d   1      14.201  -5.737  10.176 -0.27 -0.02    +0.057 C 
DOCKED: ATOM     22  C   UNL d   1      11.459  -7.906  10.900 -0.19 +0.01    -0.019 A 
DOCKED: ATOM     23  C   UNL d   1      12.069  -8.582   9.738 -0.22 -0.02    +0.045 A 
DOCKED: ATOM     24  C   UNL d   1      12.178  -6.793  11.179 -0.19 +0.01    -0.022 A 
DOCKED: ATOM     25  C   UNL d   1      12.120 -10.379   8.041 -0.08 -0.02    +0.049 A 
DOCKED: ATOM     26  C   UNL d   1      12.557 -11.745   6.265 -0.30 +0.01    -0.018 A 
DOCKED: ATOM     27  C   UNL d   1      11.525 -11.181   7.077 -0.29 -0.00    +0.003 A 
DOCKED: ATOM     28  C   UNL d   1      11.598  -9.708   9.180 -0.23 -0.02    +0.052 C 
DOCKED: ATOM     29  C   UNL d   1      11.951  -5.780  12.249 -0.15 -0.02    +0.046 C 
DOCKED: ATOM     30  C   UNL d   1      12.377 -12.689   5.125 -0.20 -0.02    +0.046 C 
DOCKED: ATOM     31  H   UNL d   1      13.739  -7.930   8.597 -0.34 -0.10    +0.166 HD
DOCKED: ATOM     32  H   UNL d   1      14.182  -9.916   8.331 -0.10 -0.07    +0.166 HD
DOCKED: ENDROOT
DOCKED: BRANCH   7  33
DOCKED: ATOM     33  C   UNL d   1      17.593 -11.324   4.447 -0.32 -0.05    +0.141 C 
DOCKED: BRANCH  33  34
DOCKED: ATOM     34  C   UNL d   1      18.883 -12.016   4.098 -0.21 -0.02    +0.306 C 
DOCKED: ATOM     35  O   UNL d   1      18.998 -13.143   3.648 -0.15 +0.04    -0.251 OA
DOCKED: BRANCH  34  36
DOCKED: ATOM     36  O   UNL d   1      19.963 -11.248   4.333 -0.11 -0.13    -0.481 OA
DOCKED: ATOM     37  H   UNL d   1      19.596 -10.359   4.526 +0.09 +0.10    +0.295 HD
DOCKED: ENDBRANCH  34  36
DOCKED: ENDBRANCH  33  34
DOCKED: ENDBRANCH   7  33
DOCKED: BRANCH  27  38
DOCKED: ATOM     38  C   UNL d   1      10.125 -11.450   6.936 -0.36 -0.00    +0.017 C 
DOCKED: ATOM     39  C   UNL d   1       9.158 -10.951   7.721 -0.33 -0.03    +0.092 C 
DOCKED: BRANCH  39  40
DOCKED: ATOM     40  C   UNL d   1       7.757 -11.291   7.459 -0.25 -0.10    +0.330 C 
DOCKED: ATOM     41  O   UNL d   1       6.996 -11.912   8.177 -0.28 +0.07    -0.246 OA
DOCKED: BRANCH  40  42
DOCKED: ATOM     42  O   UNL d   1       7.379 -10.802   6.268 -0.75 +0.06    -0.477 OA
DOCKED: ATOM     43  H   UNL d   1       6.962 -11.568   5.822 -0.39 -0.13    +0.295 HD
DOCKED: ENDBRANCH  40  42
DOCKED: ENDBRANCH  39  40
DOCKED: ENDBRANCH  27  38
DOCKED: BRANCH   8  44
DOCKED: ATOM     44  C   UNL d   1      18.605  -4.763   8.507 -0.06 -0.00    +0.141 C 
DOCKED: BRANCH  44  45
DOCKED: ATOM     45  C   UNL d   1      18.843  -5.521   9.786 +0.00 -0.00    +0.306 C 
DOCKED: ATOM     46  O   UNL d   1      19.484  -6.550   9.913 -0.00 -0.01    -0.251 OA
DOCKED: BRANCH  45  47
DOCKED: ATOM     47  O   UNL d   1      18.233  -4.953  10.842 +0.01 +0.02    -0.481 OA
DOCKED: ATOM     48  H   UNL d   1      17.811  -4.145  10.480 +0.04 -0.02    +0.295 HD
DOCKED: ENDBRANCH  45  47
DOCKED: ENDBRANCH  44  45
DOCKED: ENDBRANCH   8  44
DOCKED: BRANCH  22  49
DOCKED: ATOM     49  C   UNL d   1      10.251  -8.412  11.632 -0.18 -0.04    +0.048 C 
DOCKED: BRANCH  49  50
DOCKED: ATOM     50  C   UNL d   1      10.599  -8.891  13.041 -0.05 -0.07    +0.125 C 
DOCKED: BRANCH  50  51
DOCKED: ATOM     51  C   UNL d   1       9.740  -8.208  14.067 -0.03 -0.22    +0.305 C 
DOCKED: ATOM     52  O   UNL d   1      10.061  -7.311  14.826 -0.02 +0.12    -0.251 OA
DOCKED: BRANCH  51  53
DOCKED: ATOM     53  O   UNL d   1       8.490  -8.711  14.094 -0.02 +0.57    -0.481 OA
DOCKED: ATOM     54  H   UNL d   1       8.008  -8.189  13.419 -0.50 -0.78    +0.295 HD
DOCKED: ENDBRANCH  51  53
DOCKED: ENDBRANCH  50  51
DOCKED: ENDBRANCH  49  50
DOCKED: ENDBRANCH  22  49
DOCKED: TORSDOF 13
DOCKED: TER
DOCKED: ENDMDL
________________________________________________________________________________


	BEGINNING GENETIC ALGORITHM DOCKING 19 of 100
Run: 19 Seed: 924875150 1560264633 [ Run 19 of 100 GA/GALS ]
Beginning LAMARCKIAN GENETIC ALGORITHM (LGA), with a maximum of 25000000 energy evaluations.

Final-Value: -12.593


	FINAL GENETIC ALGORITHM DOCKED STATE
	_______________________________________________


Detailed state:  trans 9.717 0.882 -14.567 quatxyzw -0.335617 0.242725 -0.382553 0.825893 center 0.153 0.018 -0.028 ntor 13 77.5310 155.3569 -177.9322 80.0369 -178.9836 -88.5430 140.3736 52.5880 -146.6515 -19.5093 -92.7007 35.7969 7.4065
State:	  9.717   0.882 -14.567  -0.595  0.430 -0.678 68.642     77.53  155.36 -177.93   80.04 -178.98  -88.54  140.37   52.59 -146.65  -19.51  -92.70   35.80    7.41

DOCKED: MODEL       19
DOCKED: USER    Run = 19
DOCKED: USER    DPF = D:/Protein_go_brrr/autodock/final/mut_D99N/heme/dock.dpf
DOCKED: USER  
DOCKED: USER    Estimated Free Energy of Binding    =   -4.86 kcal/mol  [=(1)+(2)+(3)-(4)]
DOCKED: USER    Estimated Inhibition Constant, Ki   =  273.23 uM (micromolar)  [Temperature = 298.15 K]
DOCKED: USER    
DOCKED: USER    (1) Final Intermolecular Energy     =   -8.74 kcal/mol
DOCKED: USER        vdW + Hbond + desolv Energy     =   -8.41 kcal/mol
DOCKED: USER        Electrostatic Energy            =   -0.33 kcal/mol
DOCKED: USER    (2) Final Total Internal Energy     =   -3.85 kcal/mol
DOCKED: USER    (3) Torsional Free Energy           =   +3.88 kcal/mol
DOCKED: USER    (4) Unbound System's Energy  [=(2)] =   -3.85 kcal/mol
DOCKED: USER    
DOCKED: USER    
DOCKED: USER    NEWDPF move heme_opt.pdbqt
DOCKED: USER    NEWDPF about 0.153000 0.018000 -0.028000
DOCKED: USER    NEWDPF tran0 9.717292 0.882496 -14.566510
DOCKED: USER    NEWDPF quaternion0 -0.335617 0.242725 -0.382553 0.825893
DOCKED: USER    NEWDPF axisangle0 -0.595248 0.430496 -0.678493 68.641707
DOCKED: USER    NEWDPF quat0 -0.595248 0.430496 -0.678493 68.641707
DOCKED: USER    NEWDPF dihe0 77.53 155.36 -177.93 80.04 -178.98 -88.54 140.37 52.59 -146.65 -19.51 -92.70 35.80 7.41 
DOCKED: USER  keepresnum = 1 
DOCKED: USER  
DOCKED: REMARK  13 active torsions:
DOCKED: REMARK  status: ('A' for Active; 'I' for Inactive)
DOCKED: REMARK    1  A    between atoms: O_3  and  C_38 
DOCKED: REMARK    2  A    between atoms: O_4  and  C_40 
DOCKED: REMARK    3  A    between atoms: O_7  and  C_46 
DOCKED: REMARK    4  A    between atoms: O_9  and  C_48 
DOCKED: REMARK    5  A    between atoms: C_15  and  C_20 
DOCKED: REMARK    6  A    between atoms: C_16  and  C_23 
DOCKED: REMARK    7  A    between atoms: C_20  and  C_38 
DOCKED: REMARK    8  A    between atoms: C_23  and  C_40 
DOCKED: REMARK    9  A    between atoms: C_32  and  C_41 
DOCKED: REMARK   10  A    between atoms: C_37  and  C_45 
DOCKED: REMARK   11  A    between atoms: C_41  and  C_44 
DOCKED: REMARK   12  A    between atoms: C_44  and  C_46 
DOCKED: REMARK   13  A    between atoms: C_47  and  C_48 
DOCKED: USER                              x       y       z     vdW  Elec       q    Type
DOCKED: USER                           _______ _______ _______ _____ _____    ______ ____
DOCKED: ROOT
DOCKED: ATOM      1  O   UNL d   1       4.974  -1.414 -17.209 -0.78 -0.14    -0.289 OA
DOCKED: ATOM      2  O   UNL d   1      12.230  -1.531 -19.138 -0.01 -0.07    -0.289 OA
DOCKED: ATOM      3  N   UNL d   1       7.416   0.209 -15.393 -0.11 -0.08    -0.247 NA
DOCKED: ATOM      4  N   UNL d   1       9.934  -0.645 -16.719 +0.09 -0.16    -0.247 NA
DOCKED: ATOM      5  N   UNL d   1      11.370   0.397 -14.456 -0.06 -0.12    -0.354 N 
DOCKED: ATOM      6  N   UNL d   1       8.751   1.262 -13.079 -0.12 -0.08    -0.354 N 
DOCKED: ATOM      7  C   UNL d   1       5.019  -0.204 -15.086 -0.33 +0.02    +0.084 A 
DOCKED: ATOM      8  C   UNL d   1       9.795  -1.293 -19.071 -0.08 +0.03    +0.084 A 
DOCKED: ATOM      9  C   UNL d   1       9.086  -0.874 -17.779 -0.14 +0.03    +0.058 A 
DOCKED: ATOM     10  C   UNL d   1       6.325   0.404 -14.563 -0.22 +0.02    +0.058 A 
DOCKED: ATOM     11  C   UNL d   1       5.562  -0.760 -16.368 -0.25 +0.07    +0.193 A 
DOCKED: ATOM     12  C   UNL d   1       7.019  -0.422 -16.450 -0.20 +0.04    +0.109 A 
DOCKED: ATOM     13  C   UNL d   1      11.200  -1.295 -18.538 -0.05 +0.08    +0.193 A 
DOCKED: ATOM     14  C   UNL d   1       4.533  -1.362 -14.210 -0.43 +0.01    +0.026 C 
DOCKED: ATOM     15  C   UNL d   1       7.750  -0.790 -17.679 -0.22 +0.02    +0.055 C 
DOCKED: ATOM     16  C   UNL d   1       9.681  -0.218 -20.155 -0.03 +0.00    +0.026 C 
DOCKED: ATOM     17  C   UNL d   1      11.146  -0.892 -17.100 -0.00 +0.07    +0.109 A 
DOCKED: ATOM     18  C   UNL d   1       6.357   1.136 -13.434 -0.29 +0.01    +0.050 C 
DOCKED: ATOM     19  C   UNL d   1       7.497   1.805 -12.919 -0.28 +0.01    +0.045 A 
DOCKED: ATOM     20  C   UNL d   1      12.387  -0.261 -15.098 -0.09 +0.02    +0.045 A 
DOCKED: ATOM     21  C   UNL d   1      12.379  -0.847 -16.299 -0.07 +0.03    +0.057 C 
DOCKED: ATOM     22  C   UNL d   1      13.148   0.480 -13.075 -0.14 -0.00    -0.019 A 
DOCKED: ATOM     23  C   UNL d   1      11.734   0.879 -13.227 -0.17 +0.01    +0.045 A 
DOCKED: ATOM     24  C   UNL d   1      13.529  -0.193 -14.187 -0.11 -0.00    -0.022 A 
DOCKED: ATOM     25  C   UNL d   1       9.694   2.023 -12.428 -0.23 +0.01    +0.049 A 
DOCKED: ATOM     26  C   UNL d   1       7.631   2.968 -12.177 -0.25 -0.00    -0.018 A 
DOCKED: ATOM     27  C   UNL d   1       9.023   3.111 -11.886 -0.21 +0.00    +0.003 A 
DOCKED: ATOM     28  C   UNL d   1      11.040   1.580 -12.318 -0.24 +0.01    +0.052 C 
DOCKED: ATOM     29  C   UNL d   1      14.859  -0.783 -14.510 -0.07 +0.01    +0.046 C 
DOCKED: ATOM     30  C   UNL d   1       6.537   3.892 -11.764 -0.10 +0.01    +0.046 C 
DOCKED: ATOM     31  H   UNL d   1      10.478   0.559 -14.912 +0.03 +0.06    +0.166 HD
DOCKED: ATOM     32  H   UNL d   1       8.929   0.397 -13.576 +0.07 +0.05    +0.166 HD
DOCKED: ENDROOT
DOCKED: BRANCH   7  33
DOCKED: ATOM     33  C   UNL d   1       3.895   0.799 -15.367 -0.23 +0.04    +0.141 C 
DOCKED: BRANCH  33  34
DOCKED: ATOM     34  C   UNL d   1       2.891   0.873 -14.249 -0.28 +0.09    +0.306 C 
DOCKED: ATOM     35  O   UNL d   1       1.687   0.710 -14.350 -0.44 -0.13    -0.251 OA
DOCKED: BRANCH  34  36
DOCKED: ATOM     36  O   UNL d   1       3.459   1.146 -13.061 -0.07 -0.09    -0.481 OA
DOCKED: ATOM     37  H   UNL d   1       3.449   0.291 -12.580 -0.35 -0.01    +0.295 HD
DOCKED: ENDBRANCH  34  36
DOCKED: ENDBRANCH  33  34
DOCKED: ENDBRANCH   7  33
DOCKED: BRANCH  27  38
DOCKED: ATOM     38  C   UNL d   1       9.602   4.176 -11.123 -0.15 +0.00    +0.017 C 
DOCKED: ATOM     39  C   UNL d   1      10.339   5.178 -11.627 -0.05 +0.01    +0.092 C 
DOCKED: BRANCH  39  40
DOCKED: ATOM     40  C   UNL d   1      10.860   6.219 -10.737 -0.01 +0.04    +0.330 C 
DOCKED: ATOM     41  O   UNL d   1      10.329   7.270 -10.431 -0.01 -0.03    -0.246 OA
DOCKED: BRANCH  40  42
DOCKED: ATOM     42  O   UNL d   1      12.060   5.859 -10.258 +0.00 -0.04    -0.477 OA
DOCKED: ATOM     43  H   UNL d   1      12.050   4.881 -10.310 +0.04 +0.03    +0.295 HD
DOCKED: ENDBRANCH  40  42
DOCKED: ENDBRANCH  39  40
DOCKED: ENDBRANCH  27  38
DOCKED: BRANCH   8  44
DOCKED: ATOM     44  C   UNL d   1       9.413  -2.673 -19.616 -0.18 +0.04    +0.141 C 
DOCKED: BRANCH  44  45
DOCKED: ATOM     45  C   UNL d   1       9.903  -3.808 -18.757 -0.18 +0.19    +0.306 C 
DOCKED: ATOM     46  O   UNL d   1       9.267  -4.398 -17.900 -1.15 -0.27    -0.251 OA
DOCKED: BRANCH  45  47
DOCKED: ATOM     47  O   UNL d   1      11.187  -4.125 -19.004 -0.06 -0.22    -0.481 OA
DOCKED: ATOM     48  H   UNL d   1      11.470  -3.488 -19.695 +0.07 +0.08    +0.295 HD
DOCKED: ENDBRANCH  45  47
DOCKED: ENDBRANCH  44  45
DOCKED: ENDBRANCH   8  44
DOCKED: BRANCH  22  49
DOCKED: ATOM     49  C   UNL d   1      13.982   0.778 -11.864 -0.13 +0.01    +0.048 C 
DOCKED: BRANCH  49  50
DOCKED: ATOM     50  C   UNL d   1      14.429   2.239 -11.827 -0.05 +0.01    +0.125 C 
DOCKED: BRANCH  50  51
DOCKED: ATOM     51  C   UNL d   1      13.405   3.095 -11.137 -0.03 +0.03    +0.305 C 
DOCKED: ATOM     52  O   UNL d   1      12.834   2.869 -10.085 -0.09 -0.03    -0.251 OA
DOCKED: BRANCH  51  53
DOCKED: ATOM     53  O   UNL d   1      13.136   4.218 -11.833 +0.01 -0.04    -0.481 OA
DOCKED: ATOM     54  H   UNL d   1      13.658   4.911 -11.378 +0.02 +0.02    +0.295 HD
DOCKED: ENDBRANCH  51  53
DOCKED: ENDBRANCH  50  51
DOCKED: ENDBRANCH  49  50
DOCKED: ENDBRANCH  22  49
DOCKED: TORSDOF 13
DOCKED: TER
DOCKED: ENDMDL
________________________________________________________________________________


	BEGINNING GENETIC ALGORITHM DOCKING 20 of 100
Run: 20 Seed: 544524188 2142693562 [ Run 20 of 100 GA/GALS ]
Beginning LAMARCKIAN GENETIC ALGORITHM (LGA), with a maximum of 25000000 energy evaluations.

Final-Value: -11.275


	FINAL GENETIC ALGORITHM DOCKED STATE
	_______________________________________________


Detailed state:  trans 1.602 15.971 16.810 quatxyzw 0.219614 -0.521285 0.386815 -0.728290 center 0.153 0.018 -0.028 ntor 13 -91.1188 141.6001 -111.8946 41.0466 33.8760 -31.0788 -37.5755 34.7220 122.3341 47.4804 -81.1917 4.0382 -9.4494
State:	  1.602  15.971  16.810   0.320 -0.761  0.564 -86.514    -91.12  141.60 -111.89   41.05   33.88  -31.08  -37.58   34.72  122.33   47.48  -81.19    4.04   -9.45

DOCKED: MODEL       20
DOCKED: USER    Run = 20
DOCKED: USER    DPF = D:/Protein_go_brrr/autodock/final/mut_D99N/heme/dock.dpf
DOCKED: USER  
DOCKED: USER    Estimated Free Energy of Binding    =   -3.56 kcal/mol  [=(1)+(2)+(3)-(4)]
DOCKED: USER    Estimated Inhibition Constant, Ki   =    2.47 mM (millimolar)  [Temperature = 298.15 K]
DOCKED: USER    
DOCKED: USER    (1) Final Intermolecular Energy     =   -7.44 kcal/mol
DOCKED: USER        vdW + Hbond + desolv Energy     =   -7.38 kcal/mol
DOCKED: USER        Electrostatic Energy            =   -0.06 kcal/mol
DOCKED: USER    (2) Final Total Internal Energy     =   -3.84 kcal/mol
DOCKED: USER    (3) Torsional Free Energy           =   +3.88 kcal/mol
DOCKED: USER    (4) Unbound System's Energy  [=(2)] =   -3.84 kcal/mol
DOCKED: USER    
DOCKED: USER    
DOCKED: USER    NEWDPF move heme_opt.pdbqt
DOCKED: USER    NEWDPF about 0.153000 0.018000 -0.028000
DOCKED: USER    NEWDPF tran0 1.601523 15.970885 16.810478
DOCKED: USER    NEWDPF quaternion0 0.219614 -0.521285 0.386815 -0.728290
DOCKED: USER    NEWDPF axisangle0 0.320478 -0.760701 0.564472 -86.513585
DOCKED: USER    NEWDPF quat0 0.320478 -0.760701 0.564472 -86.513585
DOCKED: USER    NEWDPF dihe0 -91.12 141.60 -111.89 41.05 33.88 -31.08 -37.58 34.72 122.33 47.48 -81.19 4.04 -9.45 
DOCKED: USER  keepresnum = 1 
DOCKED: USER  
DOCKED: REMARK  13 active torsions:
DOCKED: REMARK  status: ('A' for Active; 'I' for Inactive)
DOCKED: REMARK    1  A    between atoms: O_3  and  C_38 
DOCKED: REMARK    2  A    between atoms: O_4  and  C_40 
DOCKED: REMARK    3  A    between atoms: O_7  and  C_46 
DOCKED: REMARK    4  A    between atoms: O_9  and  C_48 
DOCKED: REMARK    5  A    between atoms: C_15  and  C_20 
DOCKED: REMARK    6  A    between atoms: C_16  and  C_23 
DOCKED: REMARK    7  A    between atoms: C_20  and  C_38 
DOCKED: REMARK    8  A    between atoms: C_23  and  C_40 
DOCKED: REMARK    9  A    between atoms: C_32  and  C_41 
DOCKED: REMARK   10  A    between atoms: C_37  and  C_45 
DOCKED: REMARK   11  A    between atoms: C_41  and  C_44 
DOCKED: REMARK   12  A    between atoms: C_44  and  C_46 
DOCKED: REMARK   13  A    between atoms: C_47  and  C_48 
DOCKED: USER                              x       y       z     vdW  Elec       q    Type
DOCKED: USER                           _______ _______ _______ _____ _____    ______ ____
DOCKED: ROOT
DOCKED: ATOM      1  O   UNL d   1      -1.001  14.646  11.689 -0.19 +0.08    -0.289 OA
DOCKED: ATOM      2  O   UNL d   1       5.954  13.296  14.177 -0.11 +0.01    -0.289 OA
DOCKED: ATOM      3  N   UNL d   1       0.133  15.747  14.755 -0.11 +0.06    -0.247 NA
DOCKED: ATOM      4  N   UNL d   1       2.821  14.500  14.977 -0.14 +0.06    -0.247 NA
DOCKED: ATOM      5  N   UNL d   1       2.810  15.194  17.767 -0.06 +0.10    -0.354 N 
DOCKED: ATOM      6  N   UNL d   1       0.013  16.468  17.532 -0.08 +0.08    -0.354 N 
DOCKED: ATOM      7  C   UNL d   1      -2.032  15.760  13.605 -0.19 -0.02    +0.084 A 
DOCKED: ATOM      8  C   UNL d   1       3.980  13.963  12.894 -0.20 -0.01    +0.084 A 
DOCKED: ATOM      9  C   UNL d   1       2.716  14.460  13.604 -0.21 -0.01    +0.058 A 
DOCKED: ATOM     10  C   UNL d   1      -1.201  16.107  14.845 -0.17 -0.01    +0.058 A 
DOCKED: ATOM     11  C   UNL d   1      -0.927  15.158  12.791 -0.21 -0.05    +0.193 A 
DOCKED: ATOM     12  C   UNL d   1       0.340  15.232  13.587 -0.22 -0.02    +0.109 A 
DOCKED: ATOM     13  C   UNL d   1       4.807  13.693  14.119 -0.13 -0.01    +0.193 A 
DOCKED: ATOM     14  C   UNL d   1      -3.077  14.680  13.898 -0.30 -0.01    +0.026 C 
DOCKED: ATOM     15  C   UNL d   1       1.591  14.779  12.946 -0.28 -0.01    +0.055 C 
DOCKED: ATOM     16  C   UNL d   1       4.650  15.076  12.083 -0.16 -0.00    +0.026 C 
DOCKED: ATOM     17  C   UNL d   1       3.987  14.052  15.315 -0.19 -0.01    +0.109 A 
DOCKED: ATOM     18  C   UNL d   1      -1.732  16.785  15.880 -0.14 -0.01    +0.050 C 
DOCKED: ATOM     19  C   UNL d   1      -1.022  17.222  17.027 -0.11 -0.01    +0.045 A 
DOCKED: ATOM     20  C   UNL d   1       3.917  14.386  17.729 -0.22 -0.01    +0.045 A 
DOCKED: ATOM     21  C   UNL d   1       4.527  13.850  16.668 -0.13 -0.00    +0.057 C 
DOCKED: ATOM     22  C   UNL d   1       3.461  14.913  19.905 -0.04 +0.00    -0.019 A 
DOCKED: ATOM     23  C   UNL d   1       2.458  15.563  19.038 -0.16 -0.01    +0.045 A 
DOCKED: ATOM     24  C   UNL d   1       4.323  14.219  19.124 -0.15 +0.00    -0.022 A 
DOCKED: ATOM     25  C   UNL d   1       0.497  17.028  18.692 -0.11 -0.01    +0.049 A 
DOCKED: ATOM     26  C   UNL d   1      -1.192  18.317  17.859 -0.04 +0.00    -0.018 A 
DOCKED: ATOM     27  C   UNL d   1      -0.217  18.200  18.898 -0.04 -0.00    +0.003 A 
DOCKED: ATOM     28  C   UNL d   1       1.464  16.348  19.481 -0.15 -0.01    +0.052 C 
DOCKED: ATOM     29  C   UNL d   1       5.508  13.411  19.532 -0.16 -0.00    +0.046 C 
DOCKED: ATOM     30  C   UNL d   1      -2.195  19.409  17.701 -0.01 -0.00    +0.046 C 
DOCKED: ATOM     31  H   UNL d   1       2.373  15.528  16.915 -0.24 -0.06    +0.166 HD
DOCKED: ATOM     32  H   UNL d   1       0.332  15.602  17.114 -0.50 -0.09    +0.166 HD
DOCKED: ENDROOT
DOCKED: BRANCH   7  33
DOCKED: ATOM     33  C   UNL d   1      -2.649  16.956  12.873 -0.08 -0.02    +0.141 C 
DOCKED: BRANCH  33  34
DOCKED: ATOM     34  C   UNL d   1      -3.245  16.577  11.544 -0.09 -0.05    +0.306 C 
DOCKED: ATOM     35  O   UNL d   1      -4.383  16.186  11.350 -0.10 +0.04    -0.251 OA
DOCKED: BRANCH  34  36
DOCKED: ATOM     36  O   UNL d   1      -2.374  16.712  10.528 -0.08 +0.05    -0.481 OA
DOCKED: ATOM     37  H   UNL d   1      -1.885  15.862  10.507 +0.12 -0.04    +0.295 HD
DOCKED: ENDBRANCH  34  36
DOCKED: ENDBRANCH  33  34
DOCKED: ENDBRANCH   7  33
DOCKED: BRANCH  27  38
DOCKED: ATOM     38  C   UNL d   1      -0.053  19.119  19.983 -0.02 -0.00    +0.017 C 
DOCKED: ATOM     39  C   UNL d   1       1.124  19.537  20.474 -0.01 -0.01    +0.092 C 
DOCKED: BRANCH  39  40
DOCKED: ATOM     40  C   UNL d   1       1.155  20.496  21.581 +0.00 -0.02    +0.330 C 
DOCKED: ATOM     41  O   UNL d   1       0.367  21.395  21.808 +0.00 +0.01    -0.246 OA
DOCKED: BRANCH  40  42
DOCKED: ATOM     42  O   UNL d   1       2.211  20.254  22.373 +0.00 +0.02    -0.477 OA
DOCKED: ATOM     43  H   UNL d   1       2.264  19.277  22.401 +0.00 -0.02    +0.295 HD
DOCKED: ENDBRANCH  40  42
DOCKED: ENDBRANCH  39  40
DOCKED: ENDBRANCH  27  38
DOCKED: BRANCH   8  44
DOCKED: ATOM     44  C   UNL d   1       3.809  12.692  12.055 -0.34 -0.02    +0.141 C 
DOCKED: BRANCH  44  45
DOCKED: ATOM     45  C   UNL d   1       2.418  12.119  12.121 -0.37 -0.04    +0.306 C 
DOCKED: ATOM     46  O   UNL d   1       1.966  11.409  13.002 -0.57 +0.03    -0.251 OA
DOCKED: BRANCH  45  47
DOCKED: ATOM     47  O   UNL d   1       1.674  12.451  11.051 -0.24 +0.11    -0.481 OA
DOCKED: ATOM     48  H   UNL d   1       2.096  11.981  10.300 -0.34 -0.13    +0.295 HD
DOCKED: ENDBRANCH  45  47
DOCKED: ENDBRANCH  44  45
DOCKED: ENDBRANCH   8  44
DOCKED: BRANCH  22  49
DOCKED: ATOM     49  C   UNL d   1       3.476  15.018  21.402 -0.07 -0.01    +0.048 C 
DOCKED: BRANCH  49  50
DOCKED: ATOM     50  C   UNL d   1       4.362  16.166  21.883 -0.02 -0.01    +0.125 C 
DOCKED: BRANCH  50  51
DOCKED: ATOM     51  C   UNL d   1       3.537  17.373  22.226 -0.00 -0.02    +0.305 C 
DOCKED: ATOM     52  O   UNL d   1       2.383  17.399  22.616 -0.01 +0.02    -0.251 OA
DOCKED: BRANCH  51  53
DOCKED: ATOM     53  O   UNL d   1       4.221  18.520  22.043 +0.00 +0.03    -0.481 OA
DOCKED: ATOM     54  H   UNL d   1       3.969  19.073  22.812 +0.00 -0.02    +0.295 HD
DOCKED: ENDBRANCH  51  53
DOCKED: ENDBRANCH  50  51
DOCKED: ENDBRANCH  49  50
DOCKED: ENDBRANCH  22  49
DOCKED: TORSDOF 13
DOCKED: TER
DOCKED: ENDMDL
________________________________________________________________________________


	BEGINNING GENETIC ALGORITHM DOCKING 21 of 100
Run: 21 Seed: 1096641678 711363153 [ Run 21 of 100 GA/GALS ]
Beginning LAMARCKIAN GENETIC ALGORITHM (LGA), with a maximum of 25000000 energy evaluations.

Final-Value: -10.961


	FINAL GENETIC ALGORITHM DOCKED STATE
	_______________________________________________


Detailed state:  trans -0.356 17.894 9.410 quatxyzw -0.042513 0.831395 -0.547971 -0.081871 center 0.153 0.018 -0.028 ntor 13 -116.8750 132.0463 -84.8277 67.2310 37.6901 124.5370 155.9126 59.5661 139.2502 -93.5999 -85.4591 -123.9350 11.5164
State:	 -0.356  17.894   9.410  -0.043  0.834 -0.550 -170.608   -116.87  132.05  -84.83   67.23   37.69  124.54  155.91   59.57  139.25  -93.60  -85.46 -123.94   11.52

DOCKED: MODEL       21
DOCKED: USER    Run = 21
DOCKED: USER    DPF = D:/Protein_go_brrr/autodock/final/mut_D99N/heme/dock.dpf
DOCKED: USER  
DOCKED: USER    Estimated Free Energy of Binding    =   -2.69 kcal/mol  [=(1)+(2)+(3)-(4)]
DOCKED: USER    Estimated Inhibition Constant, Ki   =   10.67 mM (millimolar)  [Temperature = 298.15 K]
DOCKED: USER    
DOCKED: USER    (1) Final Intermolecular Energy     =   -6.57 kcal/mol
DOCKED: USER        vdW + Hbond + desolv Energy     =   -6.47 kcal/mol
DOCKED: USER        Electrostatic Energy            =   -0.10 kcal/mol
DOCKED: USER    (2) Final Total Internal Energy     =   -4.39 kcal/mol
DOCKED: USER    (3) Torsional Free Energy           =   +3.88 kcal/mol
DOCKED: USER    (4) Unbound System's Energy  [=(2)] =   -4.39 kcal/mol
DOCKED: USER    
DOCKED: USER    
DOCKED: USER    NEWDPF move heme_opt.pdbqt
DOCKED: USER    NEWDPF about 0.153000 0.018000 -0.028000
DOCKED: USER    NEWDPF tran0 -0.356248 17.894135 9.409528
DOCKED: USER    NEWDPF quaternion0 -0.042513 0.831395 -0.547971 -0.081871
DOCKED: USER    NEWDPF axisangle0 -0.042656 0.834196 -0.549817 -170.607790
DOCKED: USER    NEWDPF quat0 -0.042656 0.834196 -0.549817 -170.607790
DOCKED: USER    NEWDPF dihe0 -116.87 132.05 -84.83 67.23 37.69 124.54 155.91 59.57 139.25 -93.60 -85.46 -123.94 11.52 
DOCKED: USER  keepresnum = 1 
DOCKED: USER  
DOCKED: REMARK  13 active torsions:
DOCKED: REMARK  status: ('A' for Active; 'I' for Inactive)
DOCKED: REMARK    1  A    between atoms: O_3  and  C_38 
DOCKED: REMARK    2  A    between atoms: O_4  and  C_40 
DOCKED: REMARK    3  A    between atoms: O_7  and  C_46 
DOCKED: REMARK    4  A    between atoms: O_9  and  C_48 
DOCKED: REMARK    5  A    between atoms: C_15  and  C_20 
DOCKED: REMARK    6  A    between atoms: C_16  and  C_23 
DOCKED: REMARK    7  A    between atoms: C_20  and  C_38 
DOCKED: REMARK    8  A    between atoms: C_23  and  C_40 
DOCKED: REMARK    9  A    between atoms: C_32  and  C_41 
DOCKED: REMARK   10  A    between atoms: C_37  and  C_45 
DOCKED: REMARK   11  A    between atoms: C_41  and  C_44 
DOCKED: REMARK   12  A    between atoms: C_44  and  C_46 
DOCKED: REMARK   13  A    between atoms: C_47  and  C_48 
DOCKED: USER                              x       y       z     vdW  Elec       q    Type
DOCKED: USER                           _______ _______ _______ _____ _____    ______ ____
DOCKED: ROOT
DOCKED: ATOM      1  O   UNL d   1       5.310  18.877   8.111 -0.02 +0.00    -0.289 OA
DOCKED: ATOM      2  O   UNL d   1       1.875  17.830  14.706 -0.01 +0.03    -0.289 OA
DOCKED: ATOM      3  N   UNL d   1       1.897  18.465   8.395 -0.06 -0.02    -0.247 NA
DOCKED: ATOM      4  N   UNL d   1       1.524  17.827  11.273 -0.06 +0.00    -0.247 NA
DOCKED: ATOM      5  N   UNL d   1      -1.155  16.991  10.645 -0.09 +0.02    -0.354 N 
DOCKED: ATOM      6  N   UNL d   1      -0.752  17.637   7.658 -0.18 -0.04    -0.354 N 
DOCKED: ATOM      7  C   UNL d   1       3.468  18.639   6.522 -0.15 +0.00    +0.084 A 
DOCKED: ATOM      8  C   UNL d   1       3.212  18.659  12.831 -0.02 -0.00    +0.084 A 
DOCKED: ATOM      9  C   UNL d   1       2.736  18.470  11.387 -0.05 -0.00    +0.058 A 
DOCKED: ATOM     10  C   UNL d   1       2.029  18.462   7.017 -0.18 +0.00    +0.058 A 
DOCKED: ATOM     11  C   UNL d   1       4.123  18.761   7.865 -0.07 +0.00    +0.193 A 
DOCKED: ATOM     12  C   UNL d   1       3.063  18.666   8.918 -0.08 +0.00    +0.109 A 
DOCKED: ATOM     13  C   UNL d   1       2.064  17.970  13.514 -0.01 -0.01    +0.193 A 
DOCKED: ATOM     14  C   UNL d   1       3.995  17.382   5.826 -0.28 +0.00    +0.026 C 
DOCKED: ATOM     15  C   UNL d   1       3.464  18.853  10.327 -0.06 -0.00    +0.055 C 
DOCKED: ATOM     16  C   UNL d   1       3.215  20.135  13.240 -0.01 -0.00    +0.026 C 
DOCKED: ATOM     17  C   UNL d   1       1.114  17.506  12.458 -0.06 -0.01    +0.109 A 
DOCKED: ATOM     18  C   UNL d   1       0.993  18.403   6.160 -0.33 +0.01    +0.050 C 
DOCKED: ATOM     19  C   UNL d   1      -0.375  18.325   6.527 -0.30 +0.01    +0.045 A 
DOCKED: ATOM     20  C   UNL d   1      -1.067  16.547  11.939 -0.16 -0.01    +0.045 A 
DOCKED: ATOM     21  C   UNL d   1      -0.093  16.754  12.831 -0.12 -0.01    +0.057 C 
DOCKED: ATOM     22  C   UNL d   1      -3.024  15.796  11.032 -0.26 +0.00    -0.019 A 
DOCKED: ATOM     23  C   UNL d   1      -2.302  16.587  10.016 -0.27 -0.00    +0.045 A 
DOCKED: ATOM     24  C   UNL d   1      -2.289  15.777  12.169 -0.20 +0.01    -0.022 A 
DOCKED: ATOM     25  C   UNL d   1      -2.123  17.612   7.773 -0.21 +0.00    +0.049 A 
DOCKED: ATOM     26  C   UNL d   1      -1.527  18.790   5.911 -0.14 -0.00    -0.018 A 
DOCKED: ATOM     27  C   UNL d   1      -2.626  18.353   6.713 -0.19 +0.00    +0.003 A 
DOCKED: ATOM     28  C   UNL d   1      -2.755  16.828   8.776 -0.29 -0.00    +0.052 C 
DOCKED: ATOM     29  C   UNL d   1      -2.600  15.122  13.471 -0.26 -0.02    +0.046 C 
DOCKED: ATOM     30  C   UNL d   1      -1.604  19.592   4.657 -0.18 +0.01    +0.046 C 
DOCKED: ATOM     31  H   UNL d   1      -0.460  17.619  10.256 +0.04 +0.00    +0.166 HD
DOCKED: ATOM     32  H   UNL d   1      -0.096  17.184   8.283 +0.05 +0.02    +0.166 HD
DOCKED: ENDROOT
DOCKED: BRANCH   7  33
DOCKED: ATOM     33  C   UNL d   1       3.724  19.895   5.682 -0.07 +0.00    +0.141 C 
DOCKED: BRANCH  33  34
DOCKED: ATOM     34  C   UNL d   1       5.107  19.925   5.091 -0.02 +0.00    +0.306 C 
DOCKED: ATOM     35  O   UNL d   1       5.431  19.501   3.995 -0.03 -0.00    -0.251 OA
DOCKED: BRANCH  34  36
DOCKED: ATOM     36  O   UNL d   1       6.010  20.490   5.912 +0.00 -0.00    -0.481 OA
DOCKED: ATOM     37  H   UNL d   1       6.001  19.926   6.715 +0.02 +0.00    +0.295 HD
DOCKED: ENDBRANCH  34  36
DOCKED: ENDBRANCH  33  34
DOCKED: ENDBRANCH   7  33
DOCKED: BRANCH  27  38
DOCKED: ATOM     38  C   UNL d   1      -4.006  18.605   6.428 -0.21 +0.00    +0.017 C 
DOCKED: ATOM     39  C   UNL d   1      -4.818  17.786   5.742 -0.29 +0.03    +0.092 C 
DOCKED: BRANCH  39  40
DOCKED: ATOM     40  C   UNL d   1      -6.221  18.154   5.533 -0.12 +0.12    +0.330 C 
DOCKED: ATOM     41  O   UNL d   1      -6.807  18.279   4.475 -0.73 -0.17    -0.246 OA
DOCKED: BRANCH  40  42
DOCKED: ATOM     42  O   UNL d   1      -6.829  18.340   6.715 -0.04 -0.06    -0.477 OA
DOCKED: ATOM     43  H   UNL d   1      -6.575  17.552   7.237 +0.11 +0.03    +0.295 HD
DOCKED: ENDBRANCH  40  42
DOCKED: ENDBRANCH  39  40
DOCKED: ENDBRANCH  27  38
DOCKED: BRANCH   8  44
DOCKED: ATOM     44  C   UNL d   1       4.543  17.984  13.181 -0.01 -0.01    +0.141 C 
DOCKED: BRANCH  44  45
DOCKED: ATOM     45  C   UNL d   1       4.575  17.421  14.577 -0.01 -0.02    +0.306 C 
DOCKED: ATOM     46  O   UNL d   1       4.611  16.243  14.885 -0.03 +0.02    -0.251 OA
DOCKED: BRANCH  45  47
DOCKED: ATOM     47  O   UNL d   1       4.532  18.380  15.520 +0.00 +0.03    -0.481 OA
DOCKED: ATOM     48  H   UNL d   1       3.581  18.461  15.748 +0.01 -0.02    +0.295 HD
DOCKED: ENDBRANCH  45  47
DOCKED: ENDBRANCH  44  45
DOCKED: ENDBRANCH   8  44
DOCKED: BRANCH  22  49
DOCKED: ATOM     49  C   UNL d   1      -4.346  15.127  10.796 -0.29 -0.01    +0.048 C 
DOCKED: BRANCH  49  50
DOCKED: ATOM     50  C   UNL d   1      -5.489  16.139  10.708 -0.16 -0.02    +0.125 C 
DOCKED: BRANCH  50  51
DOCKED: ATOM     51  C   UNL d   1      -5.779  16.497   9.278 -0.15 -0.02    +0.305 C 
DOCKED: ATOM     52  O   UNL d   1      -6.015  15.737   8.355 -0.28 -0.00    -0.251 OA
DOCKED: BRANCH  51  53
DOCKED: ATOM     53  O   UNL d   1      -5.745  17.829   9.075 +0.01 +0.02    -0.481 OA
DOCKED: ATOM     54  H   UNL d   1      -6.673  18.061   8.863 +0.07 -0.02    +0.295 HD
DOCKED: ENDBRANCH  51  53
DOCKED: ENDBRANCH  50  51
DOCKED: ENDBRANCH  49  50
DOCKED: ENDBRANCH  22  49
DOCKED: TORSDOF 13
DOCKED: TER
DOCKED: ENDMDL
________________________________________________________________________________


	BEGINNING GENETIC ALGORITHM DOCKING 22 of 100
Run: 22 Seed: 1080259719 713292722 [ Run 22 of 100 GA/GALS ]
Beginning LAMARCKIAN GENETIC ALGORITHM (LGA), with a maximum of 25000000 energy evaluations.

Final-Value: -11.145


	FINAL GENETIC ALGORITHM DOCKED STATE
	_______________________________________________


Detailed state:  trans -10.909 12.816 -12.147 quatxyzw 0.553534 0.342761 0.310653 0.692538 center 0.153 0.018 -0.028 ntor 13 -133.4415 -2.3941 -143.7810 24.2903 172.0960 23.1607 128.5791 -169.0758 -19.7039 -14.3550 -22.9400 -120.9285 -176.1724
State:	-10.909  12.816 -12.147   0.767  0.475  0.431 92.337   -133.44   -2.39 -143.78   24.29  172.10   23.16  128.58 -169.08  -19.70  -14.35  -22.94 -120.93 -176.17

DOCKED: MODEL       22
DOCKED: USER    Run = 22
DOCKED: USER    DPF = D:/Protein_go_brrr/autodock/final/mut_D99N/heme/dock.dpf
DOCKED: USER  
DOCKED: USER    Estimated Free Energy of Binding    =   -5.41 kcal/mol  [=(1)+(2)+(3)-(4)]
DOCKED: USER    Estimated Inhibition Constant, Ki   =  107.61 uM (micromolar)  [Temperature = 298.15 K]
DOCKED: USER    
DOCKED: USER    (1) Final Intermolecular Energy     =   -9.29 kcal/mol
DOCKED: USER        vdW + Hbond + desolv Energy     =   -9.00 kcal/mol
DOCKED: USER        Electrostatic Energy            =   -0.29 kcal/mol
DOCKED: USER    (2) Final Total Internal Energy     =   -1.85 kcal/mol
DOCKED: USER    (3) Torsional Free Energy           =   +3.88 kcal/mol
DOCKED: USER    (4) Unbound System's Energy  [=(2)] =   -1.85 kcal/mol
DOCKED: USER    
DOCKED: USER    
DOCKED: USER    NEWDPF move heme_opt.pdbqt
DOCKED: USER    NEWDPF about 0.153000 0.018000 -0.028000
DOCKED: USER    NEWDPF tran0 -10.909119 12.815806 -12.147420
DOCKED: USER    NEWDPF quaternion0 0.553534 0.342761 0.310653 0.692538
DOCKED: USER    NEWDPF axisangle0 0.767326 0.475146 0.430636 92.337266
DOCKED: USER    NEWDPF quat0 0.767326 0.475146 0.430636 92.337266
DOCKED: USER    NEWDPF dihe0 -133.44 -2.39 -143.78 24.29 172.10 23.16 128.58 -169.08 -19.70 -14.35 -22.94 -120.93 -176.17 
DOCKED: USER  keepresnum = 1 
DOCKED: USER  
DOCKED: REMARK  13 active torsions:
DOCKED: REMARK  status: ('A' for Active; 'I' for Inactive)
DOCKED: REMARK    1  A    between atoms: O_3  and  C_38 
DOCKED: REMARK    2  A    between atoms: O_4  and  C_40 
DOCKED: REMARK    3  A    between atoms: O_7  and  C_46 
DOCKED: REMARK    4  A    between atoms: O_9  and  C_48 
DOCKED: REMARK    5  A    between atoms: C_15  and  C_20 
DOCKED: REMARK    6  A    between atoms: C_16  and  C_23 
DOCKED: REMARK    7  A    between atoms: C_20  and  C_38 
DOCKED: REMARK    8  A    between atoms: C_23  and  C_40 
DOCKED: REMARK    9  A    between atoms: C_32  and  C_41 
DOCKED: REMARK   10  A    between atoms: C_37  and  C_45 
DOCKED: REMARK   11  A    between atoms: C_41  and  C_44 
DOCKED: REMARK   12  A    between atoms: C_44  and  C_46 
DOCKED: REMARK   13  A    between atoms: C_47  and  C_48 
DOCKED: USER                              x       y       z     vdW  Elec       q    Type
DOCKED: USER                           _______ _______ _______ _____ _____    ______ ____
DOCKED: ROOT
DOCKED: ATOM      1  O   UNL d   1     -12.836  14.064 -17.578 -0.05 +0.15    -0.289 OA
DOCKED: ATOM      2  O   UNL d   1     -16.146  10.463 -11.880 -0.11 +0.19    -0.289 OA
DOCKED: ATOM      3  N   UNL d   1     -11.243  13.443 -14.582 -0.06 +0.15    -0.247 NA
DOCKED: ATOM      4  N   UNL d   1     -13.392  12.279 -12.894 -0.14 +0.15    -0.247 NA
DOCKED: ATOM      5  N   UNL d   1     -11.686  12.672 -10.613 -0.15 +0.10    -0.354 N 
DOCKED: ATOM      6  N   UNL d   1      -9.469  13.896 -12.370 -0.09 +0.11    -0.354 N 
DOCKED: ATOM      7  C   UNL d   1     -10.684  14.703 -16.609 -0.07 -0.03    +0.084 A 
DOCKED: ATOM      8  C   UNL d   1     -15.227  11.145 -14.043 -0.17 -0.06    +0.084 A 
DOCKED: ATOM      9  C   UNL d   1     -13.946  11.983 -14.119 -0.22 -0.04    +0.058 A 
DOCKED: ATOM     10  C   UNL d   1     -10.293  14.237 -15.204 -0.15 -0.02    +0.058 A 
DOCKED: ATOM     11  C   UNL d   1     -12.015  14.016 -16.679 -0.08 -0.10    +0.193 A 
DOCKED: ATOM     12  C   UNL d   1     -12.227  13.265 -15.402 -0.16 -0.08    +0.109 A 
DOCKED: ATOM     13  C   UNL d   1     -15.318  11.053 -12.546 -0.14 -0.11    +0.193 A 
DOCKED: ATOM     14  C   UNL d   1     -10.904  16.216 -16.672 -0.02 -0.00    +0.026 C 
DOCKED: ATOM     15  C   UNL d   1     -13.439  12.431 -15.278 -0.16 -0.05    +0.055 C 
DOCKED: ATOM     16  C   UNL d   1     -15.020   9.738 -14.612 -0.24 -0.03    +0.026 C 
DOCKED: ATOM     17  C   UNL d   1     -14.152  11.786 -11.968 -0.22 -0.06    +0.109 A 
DOCKED: ATOM     18  C   UNL d   1      -9.084  14.516 -14.681 -0.15 -0.01    +0.050 C 
DOCKED: ATOM     19  C   UNL d   1      -8.604  14.058 -13.428 -0.17 -0.01    +0.045 A 
DOCKED: ATOM     20  C   UNL d   1     -12.853  12.333  -9.978 -0.28 -0.01    +0.045 A 
DOCKED: ATOM     21  C   UNL d   1     -14.001  11.901 -10.510 -0.21 -0.02    +0.057 C 
DOCKED: ATOM     22  C   UNL d   1     -11.322  12.979  -8.412 -0.13 +0.00    -0.019 A 
DOCKED: ATOM     23  C   UNL d   1     -10.703  13.075  -9.749 -0.17 -0.01    +0.045 A 
DOCKED: ATOM     24  C   UNL d   1     -12.594  12.539  -8.554 -0.30 +0.00    -0.022 A 
DOCKED: ATOM     25  C   UNL d   1      -8.781  13.534 -11.235 -0.23 -0.01    +0.049 A 
DOCKED: ATOM     26  C   UNL d   1      -7.327  13.757 -12.979 -0.17 +0.00    -0.018 A 
DOCKED: ATOM     27  C   UNL d   1      -7.448  13.408 -11.599 -0.24 -0.00    +0.003 A 
DOCKED: ATOM     28  C   UNL d   1      -9.438  13.461  -9.976 -0.28 -0.01    +0.052 C 
DOCKED: ATOM     29  C   UNL d   1     -13.613  12.272  -7.499 -0.40 -0.01    +0.046 C 
DOCKED: ATOM     30  C   UNL d   1      -6.071  13.789 -13.782 -0.11 -0.00    +0.046 C 
DOCKED: ATOM     31  H   UNL d   1     -11.575  12.545 -11.613 -0.40 -0.09    +0.166 HD
DOCKED: ATOM     32  H   UNL d   1     -10.466  14.066 -12.430 -0.05 -0.06    +0.166 HD
DOCKED: ENDROOT
DOCKED: BRANCH   7  33
DOCKED: ATOM     33  C   UNL d   1      -9.770  14.220 -17.740 -0.07 -0.04    +0.141 C 
DOCKED: BRANCH  33  34
DOCKED: ATOM     34  C   UNL d   1      -9.100  12.910 -17.424 -0.13 -0.09    +0.306 C 
DOCKED: ATOM     35  O   UNL d   1      -7.920  12.647 -17.583 -0.23 +0.04    -0.251 OA
DOCKED: BRANCH  34  36
DOCKED: ATOM     36  O   UNL d   1      -9.953  12.000 -16.920 -0.18 +0.30    -0.481 OA
DOCKED: ATOM     37  H   UNL d   1     -10.751  12.070 -17.487 -0.35 -0.36    +0.295 HD
DOCKED: ENDBRANCH  34  36
DOCKED: ENDBRANCH  33  34
DOCKED: ENDBRANCH   7  33
DOCKED: BRANCH  27  38
DOCKED: ATOM     38  C   UNL d   1      -6.360  13.043 -10.742 -0.27 -0.00    +0.017 C 
DOCKED: ATOM     39  C   UNL d   1      -5.708  13.878  -9.919 -0.19 -0.00    +0.092 C 
DOCKED: BRANCH  39  40
DOCKED: ATOM     40  C   UNL d   1      -4.620  13.373  -9.078 -0.18 -0.01    +0.330 C 
DOCKED: ATOM     41  O   UNL d   1      -3.960  12.364  -9.242 -0.27 +0.01    -0.246 OA
DOCKED: BRANCH  40  42
DOCKED: ATOM     42  O   UNL d   1      -4.412  14.203  -8.044 -0.14 +0.05    -0.477 OA
DOCKED: ATOM     43  H   UNL d   1      -3.705  13.762  -7.529 -0.43 -0.09    +0.295 HD
DOCKED: ENDBRANCH  40  42
DOCKED: ENDBRANCH  39  40
DOCKED: ENDBRANCH  27  38
DOCKED: BRANCH   8  44
DOCKED: ATOM     44  C   UNL d   1     -16.481  11.802 -14.630 -0.04 -0.06    +0.141 C 
DOCKED: BRANCH  44  45
DOCKED: ATOM     45  C   UNL d   1     -16.902  13.045 -13.892 +0.00 -0.09    +0.306 C 
DOCKED: ATOM     46  O   UNL d   1     -16.474  14.173 -14.065 -0.00 +0.06    -0.251 OA
DOCKED: BRANCH  45  47
DOCKED: ATOM     47  O   UNL d   1     -17.826  12.795 -12.947 +0.01 +0.12    -0.481 OA
DOCKED: ATOM     48  H   UNL d   1     -17.584  11.914 -12.591 +0.04 -0.10    +0.295 HD
DOCKED: ENDBRANCH  45  47
DOCKED: ENDBRANCH  44  45
DOCKED: ENDBRANCH   8  44
DOCKED: BRANCH  22  49
DOCKED: ATOM     49  C   UNL d   1     -10.624  13.338  -7.133 -0.32 -0.00    +0.048 C 
DOCKED: BRANCH  49  50
DOCKED: ATOM     50  C   UNL d   1     -11.027  14.726  -6.635 -0.15 -0.00    +0.125 C 
DOCKED: BRANCH  50  51
DOCKED: ATOM     51  C   UNL d   1     -10.775  14.861  -5.160 -0.13 +0.00    +0.305 C 
DOCKED: ATOM     52  O   UNL d   1     -11.056  15.804  -4.441 -0.09 -0.01    -0.251 OA
DOCKED: BRANCH  51  53
DOCKED: ATOM     53  O   UNL d   1     -10.153  13.778  -4.654 -0.15 +0.03    -0.481 OA
DOCKED: ATOM     54  H   UNL d   1     -10.389  13.791  -3.702 -0.21 -0.09    +0.295 HD
DOCKED: ENDBRANCH  51  53
DOCKED: ENDBRANCH  50  51
DOCKED: ENDBRANCH  49  50
DOCKED: ENDBRANCH  22  49
DOCKED: TORSDOF 13
DOCKED: TER
DOCKED: ENDMDL
________________________________________________________________________________


	BEGINNING GENETIC ALGORITHM DOCKING 23 of 100
Run: 23 Seed: 734348168 1662390038 [ Run 23 of 100 GA/GALS ]
Beginning LAMARCKIAN GENETIC ALGORITHM (LGA), with a maximum of 25000000 energy evaluations.

Final-Value: -11.486


	FINAL GENETIC ALGORITHM DOCKED STATE
	_______________________________________________


Detailed state:  trans 4.013 15.949 9.219 quatxyzw -0.407560 0.433416 -0.041469 -0.802699 center 0.153 0.018 -0.028 ntor 13 -107.2069 153.0604 -162.4300 -67.2610 36.5687 -28.1019 132.7680 -175.4103 132.8833 -21.8333 61.6826 -32.8868 121.5237
State:	  4.013  15.949   9.219  -0.683  0.727 -0.070 -73.223   -107.21  153.06 -162.43  -67.26   36.57  -28.10  132.77 -175.41  132.88  -21.83   61.68  -32.89  121.52

DOCKED: MODEL       23
DOCKED: USER    Run = 23
DOCKED: USER    DPF = D:/Protein_go_brrr/autodock/final/mut_D99N/heme/dock.dpf
DOCKED: USER  
DOCKED: USER    Estimated Free Energy of Binding    =   -3.37 kcal/mol  [=(1)+(2)+(3)-(4)]
DOCKED: USER    Estimated Inhibition Constant, Ki   =    3.37 mM (millimolar)  [Temperature = 298.15 K]
DOCKED: USER    
DOCKED: USER    (1) Final Intermolecular Energy     =   -7.25 kcal/mol
DOCKED: USER        vdW + Hbond + desolv Energy     =   -7.10 kcal/mol
DOCKED: USER        Electrostatic Energy            =   -0.15 kcal/mol
DOCKED: USER    (2) Final Total Internal Energy     =   -4.23 kcal/mol
DOCKED: USER    (3) Torsional Free Energy           =   +3.88 kcal/mol
DOCKED: USER    (4) Unbound System's Energy  [=(2)] =   -4.23 kcal/mol
DOCKED: USER    
DOCKED: USER    
DOCKED: USER    NEWDPF move heme_opt.pdbqt
DOCKED: USER    NEWDPF about 0.153000 0.018000 -0.028000
DOCKED: USER    NEWDPF tran0 4.012758 15.948945 9.218902
DOCKED: USER    NEWDPF quaternion0 -0.407560 0.433416 -0.041469 -0.802699
DOCKED: USER    NEWDPF axisangle0 -0.683386 0.726739 -0.069534 -73.222759
DOCKED: USER    NEWDPF quat0 -0.683386 0.726739 -0.069534 -73.222759
DOCKED: USER    NEWDPF dihe0 -107.21 153.06 -162.43 -67.26 36.57 -28.10 132.77 -175.41 132.88 -21.83 61.68 -32.89 121.52 
DOCKED: USER  keepresnum = 1 
DOCKED: USER  
DOCKED: REMARK  13 active torsions:
DOCKED: REMARK  status: ('A' for Active; 'I' for Inactive)
DOCKED: REMARK    1  A    between atoms: O_3  and  C_38 
DOCKED: REMARK    2  A    between atoms: O_4  and  C_40 
DOCKED: REMARK    3  A    between atoms: O_7  and  C_46 
DOCKED: REMARK    4  A    between atoms: O_9  and  C_48 
DOCKED: REMARK    5  A    between atoms: C_15  and  C_20 
DOCKED: REMARK    6  A    between atoms: C_16  and  C_23 
DOCKED: REMARK    7  A    between atoms: C_20  and  C_38 
DOCKED: REMARK    8  A    between atoms: C_23  and  C_40 
DOCKED: REMARK    9  A    between atoms: C_32  and  C_41 
DOCKED: REMARK   10  A    between atoms: C_37  and  C_45 
DOCKED: REMARK   11  A    between atoms: C_41  and  C_44 
DOCKED: REMARK   12  A    between atoms: C_44  and  C_46 
DOCKED: REMARK   13  A    between atoms: C_47  and  C_48 
DOCKED: USER                              x       y       z     vdW  Elec       q    Type
DOCKED: USER                           _______ _______ _______ _____ _____    ______ ____
DOCKED: ROOT
DOCKED: ATOM      1  O   UNL d   1       0.518  19.828  11.957 -0.01 +0.01    -0.289 OA
DOCKED: ATOM      2  O   UNL d   1       2.600  12.869  13.862 -0.31 +0.05    -0.289 OA
DOCKED: ATOM      3  N   UNL d   1       2.502  17.854   9.941 -0.05 -0.01    -0.247 NA
DOCKED: ATOM      4  N   UNL d   1       3.027  15.465  11.628 -0.10 +0.02    -0.247 NA
DOCKED: ATOM      5  N   UNL d   1       5.095  14.724   9.774 -0.14 +0.06    -0.354 N 
DOCKED: ATOM      6  N   UNL d   1       4.557  17.215   8.040 -0.05 -0.00    -0.354 N 
DOCKED: ATOM      7  C   UNL d   1       1.731  20.179   9.864 -0.03 +0.00    +0.084 A 
DOCKED: ATOM      8  C   UNL d   1       1.371  14.920  13.341 -0.22 -0.01    +0.084 A 
DOCKED: ATOM      9  C   UNL d   1       1.872  15.878  12.255 -0.14 -0.00    +0.058 A 
DOCKED: ATOM     10  C   UNL d   1       2.543  19.044   9.234 -0.08 +0.00    +0.058 A 
DOCKED: ATOM     11  C   UNL d   1       1.209  19.415  11.044 -0.03 -0.00    +0.193 A 
DOCKED: ATOM     12  C   UNL d   1       1.726  18.012  10.964 -0.08 -0.00    +0.109 A 
DOCKED: ATOM     13  C   UNL d   1       2.475  13.906  13.240 -0.22 -0.03    +0.193 A 
DOCKED: ATOM     14  C   UNL d   1       2.626  21.315  10.367 -0.01 -0.00    +0.026 C 
DOCKED: ATOM     15  C   UNL d   1       1.265  17.042  11.977 -0.12 -0.00    +0.055 C 
DOCKED: ATOM     16  C   UNL d   1       0.051  14.252  12.943 -0.38 -0.01    +0.026 C 
DOCKED: ATOM     17  C   UNL d   1       3.417  14.357  12.171 -0.20 -0.01    +0.109 A 
DOCKED: ATOM     18  C   UNL d   1       3.158  19.195   8.046 -0.11 +0.00    +0.050 C 
DOCKED: ATOM     19  C   UNL d   1       3.859  18.179   7.348 -0.14 +0.00    +0.045 A 
DOCKED: ATOM     20  C   UNL d   1       5.344  13.823  10.776 -0.15 -0.01    +0.045 A 
DOCKED: ATOM     21  C   UNL d   1       4.628  13.576  11.878 -0.29 -0.01    +0.057 C 
DOCKED: ATOM     22  C   UNL d   1       7.011  13.676   9.221 -0.26 +0.00    -0.019 A 
DOCKED: ATOM     23  C   UNL d   1       6.047  14.709   8.790 -0.27 -0.01    +0.045 A 
DOCKED: ATOM     24  C   UNL d   1       6.589  13.155  10.397 -0.21 +0.00    -0.022 A 
DOCKED: ATOM     25  C   UNL d   1       5.232  16.390   7.171 -0.23 -0.00    +0.049 A 
DOCKED: ATOM     26  C   UNL d   1       4.055  17.951   5.994 -0.21 -0.00    -0.018 A 
DOCKED: ATOM     27  C   UNL d   1       4.907  16.809   5.888 -0.28 -0.00    +0.003 A 
DOCKED: ATOM     28  C   UNL d   1       6.147  15.415   7.653 -0.27 -0.01    +0.052 C 
DOCKED: ATOM     29  C   UNL d   1       7.215  12.081  11.220 -0.17 -0.00    +0.046 C 
DOCKED: ATOM     30  C   UNL d   1       3.485  18.744   4.867 -0.19 +0.00    +0.046 C 
DOCKED: ATOM     31  H   UNL d   1       4.240  15.270   9.757 +0.05 -0.01    +0.166 HD
DOCKED: ATOM     32  H   UNL d   1       4.590  17.165   9.051 +0.03 -0.00    +0.166 HD
DOCKED: ENDROOT
DOCKED: BRANCH   7  33
DOCKED: ATOM     33  C   UNL d   1       0.574  20.711   9.013 -0.03 +0.00    +0.141 C 
DOCKED: BRANCH  33  34
DOCKED: ATOM     34  C   UNL d   1      -0.173  21.832   9.684 -0.00 +0.00    +0.306 C 
DOCKED: ATOM     35  O   UNL d   1       0.068  23.022   9.579 -0.00 +0.00    -0.251 OA
DOCKED: BRANCH  34  36
DOCKED: ATOM     36  O   UNL d   1      -1.186  21.393  10.452 +0.00 +0.00    -0.481 OA
DOCKED: ATOM     37  H   UNL d   1      -0.748  20.959  11.214 +0.01 -0.01    +0.295 HD
DOCKED: ENDBRANCH  34  36
DOCKED: ENDBRANCH  33  34
DOCKED: ENDBRANCH   7  33
DOCKED: BRANCH  27  38
DOCKED: ATOM     38  C   UNL d   1       5.374  16.239   4.660 -0.23 -0.00    +0.017 C 
DOCKED: ATOM     39  C   UNL d   1       6.115  15.125   4.556 -0.27 -0.02    +0.092 C 
DOCKED: BRANCH  39  40
DOCKED: ATOM     40  C   UNL d   1       6.515  14.636   3.234 -0.20 -0.02    +0.330 C 
DOCKED: ATOM     41  O   UNL d   1       5.915  14.759   2.183 -0.21 -0.01    -0.246 OA
DOCKED: BRANCH  40  42
DOCKED: ATOM     42  O   UNL d   1       7.696  14.003   3.314 -0.12 +0.02    -0.477 OA
DOCKED: ATOM     43  H   UNL d   1       8.134  14.420   4.084 +0.09 -0.02    +0.295 HD
DOCKED: ENDBRANCH  40  42
DOCKED: ENDBRANCH  39  40
DOCKED: ENDBRANCH  27  38
DOCKED: BRANCH   8  44
DOCKED: ATOM     44  C   UNL d   1       1.292  15.507  14.754 -0.06 -0.04    +0.141 C 
DOCKED: BRANCH  44  45
DOCKED: ATOM     45  C   UNL d   1       2.642  15.733  15.380 -0.07 -0.07    +0.306 C 
DOCKED: ATOM     46  O   UNL d   1       3.326  16.738  15.288 -0.04 +0.03    -0.251 OA
DOCKED: BRANCH  45  47
DOCKED: ATOM     47  O   UNL d   1       3.076  14.663  16.070 -0.09 +0.14    -0.481 OA
DOCKED: ATOM     48  H   UNL d   1       2.515  13.922  15.756 -0.38 -0.13    +0.295 HD
DOCKED: ENDBRANCH  45  47
DOCKED: ENDBRANCH  44  45
DOCKED: ENDBRANCH   8  44
DOCKED: BRANCH  22  49
DOCKED: ATOM     49  C   UNL d   1       8.250  13.310   8.459 -0.22 -0.00    +0.048 C 
DOCKED: BRANCH  49  50
DOCKED: ATOM     50  C   UNL d   1       8.916  14.535   7.832 -0.08 -0.01    +0.125 C 
DOCKED: BRANCH  50  51
DOCKED: ATOM     51  C   UNL d   1       8.932  14.428   6.333 -0.08 -0.02    +0.305 C 
DOCKED: ATOM     52  O   UNL d   1       9.361  15.242   5.535 -0.03 +0.01    -0.251 OA
DOCKED: BRANCH  51  53
DOCKED: ATOM     53  O   UNL d   1       8.381  13.275   5.904 -0.11 +0.04    -0.481 OA
DOCKED: ATOM     54  H   UNL d   1       7.560  13.558   5.450 -0.12 -0.06    +0.295 HD
DOCKED: ENDBRANCH  51  53
DOCKED: ENDBRANCH  50  51
DOCKED: ENDBRANCH  49  50
DOCKED: ENDBRANCH  22  49
DOCKED: TORSDOF 13
DOCKED: TER
DOCKED: ENDMDL
________________________________________________________________________________


	BEGINNING GENETIC ALGORITHM DOCKING 24 of 100
Run: 24 Seed: 971437799 267749468 [ Run 24 of 100 GA/GALS ]
Beginning LAMARCKIAN GENETIC ALGORITHM (LGA), with a maximum of 25000000 energy evaluations.

Final-Value: -11.078


	FINAL GENETIC ALGORITHM DOCKED STATE
	_______________________________________________


Detailed state:  trans 16.372 2.349 -5.202 quatxyzw -0.549505 -0.151565 0.440625 0.693485 center 0.153 0.018 -0.028 ntor 13 130.4472 -165.8910 98.6485 -54.1975 -135.2862 -1.8971 173.3378 -104.8075 24.5715 26.9152 -95.3538 -18.6001 -14.5887
State:	 16.372   2.349  -5.202  -0.763 -0.210  0.612 92.187    130.45 -165.89   98.65  -54.20 -135.29   -1.90  173.34 -104.81   24.57   26.92  -95.35  -18.60  -14.59

DOCKED: MODEL       24
DOCKED: USER    Run = 24
DOCKED: USER    DPF = D:/Protein_go_brrr/autodock/final/mut_D99N/heme/dock.dpf
DOCKED: USER  
DOCKED: USER    Estimated Free Energy of Binding    =   -3.07 kcal/mol  [=(1)+(2)+(3)-(4)]
DOCKED: USER    Estimated Inhibition Constant, Ki   =    5.65 mM (millimolar)  [Temperature = 298.15 K]
DOCKED: USER    
DOCKED: USER    (1) Final Intermolecular Energy     =   -6.95 kcal/mol
DOCKED: USER        vdW + Hbond + desolv Energy     =   -6.77 kcal/mol
DOCKED: USER        Electrostatic Energy            =   -0.18 kcal/mol
DOCKED: USER    (2) Final Total Internal Energy     =   -4.13 kcal/mol
DOCKED: USER    (3) Torsional Free Energy           =   +3.88 kcal/mol
DOCKED: USER    (4) Unbound System's Energy  [=(2)] =   -4.13 kcal/mol
DOCKED: USER    
DOCKED: USER    
DOCKED: USER    NEWDPF move heme_opt.pdbqt
DOCKED: USER    NEWDPF about 0.153000 0.018000 -0.028000
DOCKED: USER    NEWDPF tran0 16.372478 2.349444 -5.202357
DOCKED: USER    NEWDPF quaternion0 -0.549505 -0.151565 0.440625 0.693485
DOCKED: USER    NEWDPF axisangle0 -0.762703 -0.210370 0.611579 92.186747
DOCKED: USER    NEWDPF quat0 -0.762703 -0.210370 0.611579 92.186747
DOCKED: USER    NEWDPF dihe0 130.45 -165.89 98.65 -54.20 -135.29 -1.90 173.34 -104.81 24.57 26.92 -95.35 -18.60 -14.59 
DOCKED: USER  keepresnum = 1 
DOCKED: USER  
DOCKED: REMARK  13 active torsions:
DOCKED: REMARK  status: ('A' for Active; 'I' for Inactive)
DOCKED: REMARK    1  A    between atoms: O_3  and  C_38 
DOCKED: REMARK    2  A    between atoms: O_4  and  C_40 
DOCKED: REMARK    3  A    between atoms: O_7  and  C_46 
DOCKED: REMARK    4  A    between atoms: O_9  and  C_48 
DOCKED: REMARK    5  A    between atoms: C_15  and  C_20 
DOCKED: REMARK    6  A    between atoms: C_16  and  C_23 
DOCKED: REMARK    7  A    between atoms: C_20  and  C_38 
DOCKED: REMARK    8  A    between atoms: C_23  and  C_40 
DOCKED: REMARK    9  A    between atoms: C_32  and  C_41 
DOCKED: REMARK   10  A    between atoms: C_37  and  C_45 
DOCKED: REMARK   11  A    between atoms: C_41  and  C_44 
DOCKED: REMARK   12  A    between atoms: C_44  and  C_46 
DOCKED: REMARK   13  A    between atoms: C_47  and  C_48 
DOCKED: USER                              x       y       z     vdW  Elec       q    Type
DOCKED: USER                           _______ _______ _______ _____ _____    ______ ____
DOCKED: ROOT
DOCKED: ATOM      1  O   UNL d   1      14.334   4.277  -0.017 -0.06 -0.00    -0.289 OA
DOCKED: ATOM      2  O   UNL d   1      11.533   4.907  -6.956 -0.12 -0.01    -0.289 OA
DOCKED: ATOM      3  N   UNL d   1      15.973   3.087  -2.809 -0.62 -0.05    -0.247 NA
DOCKED: ATOM      4  N   UNL d   1      14.001   3.509  -4.991 +0.30 -0.02    -0.247 NA
DOCKED: ATOM      5  N   UNL d   1      15.611   1.800  -6.650 -0.09 +0.01    -0.354 N 
DOCKED: ATOM      6  N   UNL d   1      17.641   1.351  -4.375 +0.00 +0.06    -0.354 N 
DOCKED: ATOM      7  C   UNL d   1      16.360   2.961  -0.392 -0.07 -0.00    +0.084 A 
DOCKED: ATOM      8  C   UNL d   1      12.363   5.296  -4.686 -0.10 +0.00    +0.084 A 
DOCKED: ATOM      9  C   UNL d   1      13.508   4.453  -4.117 -0.10 +0.00    +0.058 A 
DOCKED: ATOM     10  C   UNL d   1      16.802   2.599  -1.812 -0.10 -0.00    +0.058 A 
DOCKED: ATOM     11  C   UNL d   1      15.144   3.756  -0.762 -0.07 +0.00    +0.193 A 
DOCKED: ATOM     12  C   UNL d   1      15.033   3.781  -2.255 +0.03 +0.01    +0.109 A 
DOCKED: ATOM     13  C   UNL d   1      12.272   4.632  -6.031 -0.11 +0.00    +0.193 A 
DOCKED: ATOM     14  C   UNL d   1      15.922   1.730   0.406 -0.16 -0.00    +0.026 C 
DOCKED: ATOM     15  C   UNL d   1      13.955   4.589  -2.859 -0.12 +0.00    +0.055 C 
DOCKED: ATOM     16  C   UNL d   1      12.778   6.757  -4.886 -0.04 +0.00    +0.026 C 
DOCKED: ATOM     17  C   UNL d   1      13.313   3.562  -6.086 -0.15 +0.01    +0.109 A 
DOCKED: ATOM     18  C   UNL d   1      17.952   1.939  -2.044 -0.11 -0.00    +0.050 C 
DOCKED: ATOM     19  C   UNL d   1      18.483   1.634  -3.323 -0.11 -0.00    +0.045 A 
DOCKED: ATOM     20  C   UNL d   1      14.500   1.921  -7.444 -0.23 +0.00    +0.045 A 
DOCKED: ATOM     21  C   UNL d   1      13.432   2.708  -7.277 -0.26 +0.00    +0.057 C 
DOCKED: ATOM     22  C   UNL d   1      15.906   0.379  -8.373 -0.33 -0.00    -0.019 A 
DOCKED: ATOM     23  C   UNL d   1      16.516   0.891  -7.130 -0.28 -0.00    +0.045 A 
DOCKED: ATOM     24  C   UNL d   1      14.713   0.993  -8.554 -0.29 -0.00    -0.022 A 
DOCKED: ATOM     25  C   UNL d   1      18.364   0.998  -5.491 -0.19 -0.00    +0.049 A 
DOCKED: ATOM     26  C   UNL d   1      19.786   1.497  -3.777 -0.08 +0.00    -0.018 A 
DOCKED: ATOM     27  C   UNL d   1      19.705   1.114  -5.151 -0.13 +0.00    +0.003 A 
DOCKED: ATOM     28  C   UNL d   1      17.713   0.511  -6.657 -0.29 -0.00    +0.052 C 
DOCKED: ATOM     29  C   UNL d   1      13.735   0.821  -9.666 -0.22 +0.01    +0.046 C 
DOCKED: ATOM     30  C   UNL d   1      21.031   1.710  -2.985 -0.03 +0.00    +0.046 C 
DOCKED: ATOM     31  H   UNL d   1      15.748   2.398  -5.843 +0.03 -0.01    +0.166 HD
DOCKED: ATOM     32  H   UNL d   1      16.631   1.367  -4.304 -0.38 -0.06    +0.166 HD
DOCKED: ENDROOT
DOCKED: BRANCH   7  33
DOCKED: ATOM     33  C   UNL d   1      17.346   3.824   0.403 -0.01 +0.00    +0.141 C 
DOCKED: BRANCH  33  34
DOCKED: ATOM     34  C   UNL d   1      17.398   5.246  -0.088 +0.00 +0.00    +0.306 C 
DOCKED: ATOM     35  O   UNL d   1      18.028   5.653  -1.049 +0.00 -0.00    -0.251 OA
DOCKED: BRANCH  34  36
DOCKED: ATOM     36  O   UNL d   1      16.650   6.079   0.656 +0.00 -0.01    -0.481 OA
DOCKED: ATOM     37  H   UNL d   1      15.766   5.654   0.691 +0.02 +0.01    +0.295 HD
DOCKED: ENDBRANCH  34  36
DOCKED: ENDBRANCH  33  34
DOCKED: ENDBRANCH   7  33
DOCKED: BRANCH  27  38
DOCKED: ATOM     38  C   UNL d   1      20.826   0.852  -6.002 -0.11 +0.00    +0.017 C 
DOCKED: ATOM     39  C   UNL d   1      20.792   0.830  -7.344 -0.09 +0.01    +0.092 C 
DOCKED: BRANCH  39  40
DOCKED: ATOM     40  C   UNL d   1      22.018   0.565  -8.101 -0.04 +0.02    +0.330 C 
DOCKED: ATOM     41  O   UNL d   1      23.143   0.413  -7.664 -0.03 -0.01    -0.246 OA
DOCKED: BRANCH  40  42
DOCKED: ATOM     42  O   UNL d   1      21.744   0.494  -9.413 -0.01 -0.02    -0.477 OA
DOCKED: ATOM     43  H   UNL d   1      20.842   0.869  -9.485 +0.03 +0.01    +0.295 HD
DOCKED: ENDBRANCH  40  42
DOCKED: ENDBRANCH  39  40
DOCKED: ENDBRANCH  27  38
DOCKED: BRANCH   8  44
DOCKED: ATOM     44  C   UNL d   1      11.032   5.196  -3.934 -0.21 +0.00    +0.141 C 
DOCKED: BRANCH  44  45
DOCKED: ATOM     45  C   UNL d   1      10.897   3.930  -3.130 -0.27 -0.01    +0.306 C 
DOCKED: ATOM     46  O   UNL d   1      10.583   3.845  -1.956 -0.33 +0.02    -0.251 OA
DOCKED: BRANCH  45  47
DOCKED: ATOM     47  O   UNL d   1      11.195   2.831  -3.847 -0.39 +0.03    -0.481 OA
DOCKED: ATOM     48  H   UNL d   1      10.374   2.631  -4.345 -0.34 -0.17    +0.295 HD
DOCKED: ENDBRANCH  45  47
DOCKED: ENDBRANCH  44  45
DOCKED: ENDBRANCH   8  44
DOCKED: BRANCH  22  49
DOCKED: ATOM     49  C   UNL d   1      16.532  -0.664  -9.251 -0.28 -0.00    +0.048 C 
DOCKED: BRANCH  49  50
DOCKED: ATOM     50  C   UNL d   1      17.262  -0.042 -10.441 -0.15 +0.00    +0.125 C 
DOCKED: BRANCH  50  51
DOCKED: ATOM     51  C   UNL d   1      18.665   0.346 -10.067 -0.06 +0.01    +0.305 C 
DOCKED: ATOM     52  O   UNL d   1      19.120   1.471  -9.957 -0.02 -0.01    -0.251 OA
DOCKED: BRANCH  51  53
DOCKED: ATOM     53  O   UNL d   1      19.447  -0.732  -9.858 -0.06 -0.03    -0.481 OA
DOCKED: ATOM     54  H   UNL d   1      20.210  -0.592 -10.457 +0.05 +0.02    +0.295 HD
DOCKED: ENDBRANCH  51  53
DOCKED: ENDBRANCH  50  51
DOCKED: ENDBRANCH  49  50
DOCKED: ENDBRANCH  22  49
DOCKED: TORSDOF 13
DOCKED: TER
DOCKED: ENDMDL
________________________________________________________________________________


	BEGINNING GENETIC ALGORITHM DOCKING 25 of 100
Run: 25 Seed: 1108293719 2053812734 [ Run 25 of 100 GA/GALS ]
Beginning LAMARCKIAN GENETIC ALGORITHM (LGA), with a maximum of 25000000 energy evaluations.

Final-Value: -12.704


	FINAL GENETIC ALGORITHM DOCKED STATE
	_______________________________________________


Detailed state:  trans -11.237 13.220 -12.112 quatxyzw 0.621798 -0.250801 0.418435 -0.612681 center 0.153 0.018 -0.028 ntor 13 180.0000 177.4204 -140.0544 34.5747 -154.0908 60.7481 100.0906 76.1888 12.0980 135.3053 -78.5262 -90.5565 -2.0719
State:	-11.237  13.220 -12.112   0.787 -0.317  0.529 -104.433    180.00  177.42 -140.05   34.57 -154.09   60.75  100.09   76.19   12.10  135.31  -78.53  -90.56   -2.07

DOCKED: MODEL       25
DOCKED: USER    Run = 25
DOCKED: USER    DPF = D:/Protein_go_brrr/autodock/final/mut_D99N/heme/dock.dpf
DOCKED: USER  
DOCKED: USER    Estimated Free Energy of Binding    =   -5.00 kcal/mol  [=(1)+(2)+(3)-(4)]
DOCKED: USER    Estimated Inhibition Constant, Ki   =  214.85 uM (micromolar)  [Temperature = 298.15 K]
DOCKED: USER    
DOCKED: USER    (1) Final Intermolecular Energy     =   -8.88 kcal/mol
DOCKED: USER        vdW + Hbond + desolv Energy     =   -8.34 kcal/mol
DOCKED: USER        Electrostatic Energy            =   -0.54 kcal/mol
DOCKED: USER    (2) Final Total Internal Energy     =   -3.82 kcal/mol
DOCKED: USER    (3) Torsional Free Energy           =   +3.88 kcal/mol
DOCKED: USER    (4) Unbound System's Energy  [=(2)] =   -3.82 kcal/mol
DOCKED: USER    
DOCKED: USER    
DOCKED: USER    NEWDPF move heme_opt.pdbqt
DOCKED: USER    NEWDPF about 0.153000 0.018000 -0.028000
DOCKED: USER    NEWDPF tran0 -11.236509 13.220291 -12.112229
DOCKED: USER    NEWDPF quaternion0 0.621798 -0.250801 0.418435 -0.612681
DOCKED: USER    NEWDPF axisangle0 0.786757 -0.317337 0.529444 -104.432763
DOCKED: USER    NEWDPF quat0 0.786757 -0.317337 0.529444 -104.432763
DOCKED: USER    NEWDPF dihe0 180.00 177.42 -140.05 34.57 -154.09 60.75 100.09 76.19 12.10 135.31 -78.53 -90.56 -2.07 
DOCKED: USER  keepresnum = 1 
DOCKED: USER  
DOCKED: REMARK  13 active torsions:
DOCKED: REMARK  status: ('A' for Active; 'I' for Inactive)
DOCKED: REMARK    1  A    between atoms: O_3  and  C_38 
DOCKED: REMARK    2  A    between atoms: O_4  and  C_40 
DOCKED: REMARK    3  A    between atoms: O_7  and  C_46 
DOCKED: REMARK    4  A    between atoms: O_9  and  C_48 
DOCKED: REMARK    5  A    between atoms: C_15  and  C_20 
DOCKED: REMARK    6  A    between atoms: C_16  and  C_23 
DOCKED: REMARK    7  A    between atoms: C_20  and  C_38 
DOCKED: REMARK    8  A    between atoms: C_23  and  C_40 
DOCKED: REMARK    9  A    between atoms: C_32  and  C_41 
DOCKED: REMARK   10  A    between atoms: C_37  and  C_45 
DOCKED: REMARK   11  A    between atoms: C_41  and  C_44 
DOCKED: REMARK   12  A    between atoms: C_44  and  C_46 
DOCKED: REMARK   13  A    between atoms: C_47  and  C_48 
DOCKED: USER                              x       y       z     vdW  Elec       q    Type
DOCKED: USER                           _______ _______ _______ _____ _____    ______ ____
DOCKED: ROOT
DOCKED: ATOM      1  O   UNL d   1     -15.432  11.255 -15.759 -0.09 +0.24    -0.289 OA
DOCKED: ATOM      2  O   UNL d   1      -8.969  14.819 -17.146 -0.03 +0.05    -0.289 OA
DOCKED: ATOM      3  N   UNL d   1     -13.326  12.348 -13.255 -0.13 +0.16    -0.247 NA
DOCKED: ATOM      4  N   UNL d   1     -10.950  13.334 -14.742 -0.11 +0.15    -0.247 NA
DOCKED: ATOM      5  N   UNL d   1      -9.523  13.382 -12.247 +0.01 +0.14    -0.354 N 
DOCKED: ATOM      6  N   UNL d   1     -11.987  12.341 -10.714 -0.15 +0.11    -0.354 N 
DOCKED: ATOM      7  C   UNL d   1     -15.380  11.013 -13.327 -0.16 -0.05    +0.084 A 
DOCKED: ATOM      8  C   UNL d   1     -11.304  14.093 -17.038 -0.10 -0.04    +0.084 A 
DOCKED: ATOM      9  C   UNL d   1     -11.863  13.443 -15.768 -0.18 -0.04    +0.058 A 
DOCKED: ATOM     10  C   UNL d   1     -14.255  11.647 -12.504 -0.24 -0.03    +0.058 A 
DOCKED: ATOM     11  C   UNL d   1     -14.933  11.495 -14.674 -0.13 -0.15    +0.193 A 
DOCKED: ATOM     12  C   UNL d   1     -13.693  12.314 -14.495 -0.18 -0.09    +0.109 A 
DOCKED: ATOM     13  C   UNL d   1      -9.896  14.299 -16.556 -0.09 -0.05    +0.193 A 
DOCKED: ATOM     14  C   UNL d   1     -15.318   9.483 -13.302 -0.24 -0.02    +0.026 C 
DOCKED: ATOM     15  C   UNL d   1     -13.118  12.975 -15.684 -0.16 -0.05    +0.055 C 
DOCKED: ATOM     16  C   UNL d   1     -11.939  15.462 -17.301 -0.03 -0.01    +0.026 C 
DOCKED: ATOM     17  C   UNL d   1      -9.811  13.790 -15.154 -0.18 -0.04    +0.109 A 
DOCKED: ATOM     18  C   UNL d   1     -14.248  11.588 -11.159 -0.27 -0.03    +0.050 C 
DOCKED: ATOM     19  C   UNL d   1     -13.298  12.214 -10.313 -0.26 -0.02    +0.045 A 
DOCKED: ATOM     20  C   UNL d   1      -8.486  13.604 -13.115 -0.20 -0.01    +0.045 A 
DOCKED: ATOM     21  C   UNL d   1      -8.529  13.822 -14.434 -0.19 -0.01    +0.057 C 
DOCKED: ATOM     22  C   UNL d   1      -7.640  13.317 -11.013 -0.26 +0.00    -0.019 A 
DOCKED: ATOM     23  C   UNL d   1      -9.111  13.197 -10.954 -0.26 -0.01    +0.045 A 
DOCKED: ATOM     24  C   UNL d   1      -7.277  13.559 -12.295 -0.19 +0.00    -0.022 A 
DOCKED: ATOM     25  C   UNL d   1     -11.225  12.892  -9.710 -0.21 -0.01    +0.049 A 
DOCKED: ATOM     26  C   UNL d   1     -13.398  12.730  -9.030 -0.24 +0.00    -0.018 A 
DOCKED: ATOM     27  C   UNL d   1     -12.090  13.174  -8.662 -0.24 -0.00    +0.003 A 
DOCKED: ATOM     28  C   UNL d   1      -9.811  12.977  -9.831 -0.13 -0.01    +0.052 C 
DOCKED: ATOM     29  C   UNL d   1      -5.910  13.767 -12.854 -0.12 -0.00    +0.046 C 
DOCKED: ATOM     30  C   UNL d   1     -14.631  12.809  -8.196 -0.26 -0.01    +0.046 C 
DOCKED: ATOM     31  H   UNL d   1     -10.488  13.438 -12.554 -0.44 -0.10    +0.166 HD
DOCKED: ATOM     32  H   UNL d   1     -11.644  12.026 -11.614 -0.42 -0.10    +0.166 HD
DOCKED: ENDROOT
DOCKED: BRANCH   7  33
DOCKED: ATOM     33  C   UNL d   1     -16.791  11.523 -13.014 -0.04 -0.06    +0.141 C 
DOCKED: BRANCH  33  34
DOCKED: ATOM     34  C   UNL d   1     -16.936  13.003 -13.244 +0.00 -0.09    +0.306 C 
DOCKED: ATOM     35  O   UNL d   1     -16.903  13.872 -12.389 -0.00 +0.06    -0.251 OA
DOCKED: BRANCH  34  36
DOCKED: ATOM     36  O   UNL d   1     -17.112  13.311 -14.541 +0.01 +0.12    -0.481 OA
DOCKED: ATOM     37  H   UNL d   1     -17.056  12.451 -15.009 +0.02 -0.10    +0.295 HD
DOCKED: ENDBRANCH  34  36
DOCKED: ENDBRANCH  33  34
DOCKED: ENDBRANCH   7  33
DOCKED: BRANCH  27  38
DOCKED: ATOM     38  C   UNL d   1     -11.742  13.762  -7.404 -0.26 -0.00    +0.017 C 
DOCKED: ATOM     39  C   UNL d   1     -10.760  13.335  -6.595 -0.36 -0.00    +0.092 C 
DOCKED: BRANCH  39  40
DOCKED: ATOM     40  C   UNL d   1     -10.493  14.038  -5.337 -0.22 -0.01    +0.330 C 
DOCKED: ATOM     41  O   UNL d   1     -11.260  14.224  -4.412 -0.24 +0.01    -0.246 OA
DOCKED: BRANCH  40  42
DOCKED: ATOM     42  O   UNL d   1      -9.224  14.475  -5.313 -0.12 -0.04    -0.477 OA
DOCKED: ATOM     43  H   UNL d   1      -8.845  14.141  -6.152 +0.15 +0.02    +0.295 HD
DOCKED: ENDBRANCH  40  42
DOCKED: ENDBRANCH  39  40
DOCKED: ENDBRANCH  27  38
DOCKED: BRANCH   8  44
DOCKED: ATOM     44  C   UNL d   1     -11.332  13.218 -18.295 -0.09 -0.10    +0.141 C 
DOCKED: BRANCH  44  45
DOCKED: ATOM     45  C   UNL d   1     -12.642  13.281 -19.034 -0.03 -0.19    +0.306 C 
DOCKED: ATOM     46  O   UNL d   1     -13.191  14.283 -19.457 -0.01 +0.08    -0.251 OA
DOCKED: BRANCH  45  47
DOCKED: ATOM     47  O   UNL d   1     -13.210  12.070 -19.179 -0.00 +0.52    -0.481 OA
DOCKED: ATOM     48  H   UNL d   1     -13.039  11.612 -18.328 -0.49 -0.76    +0.295 HD
DOCKED: ENDBRANCH  45  47
DOCKED: ENDBRANCH  44  45
DOCKED: ENDBRANCH   8  44
DOCKED: BRANCH  22  49
DOCKED: ATOM     49  C   UNL d   1      -6.734  13.171  -9.825 -0.24 +0.00    +0.048 C 
DOCKED: BRANCH  49  50
DOCKED: ATOM     50  C   UNL d   1      -6.581  14.486  -9.061 -0.18 +0.00    +0.125 C 
DOCKED: BRANCH  50  51
DOCKED: ATOM     51  C   UNL d   1      -7.423  14.484  -7.817 -0.17 +0.02    +0.305 C 
DOCKED: ATOM     52  O   UNL d   1      -7.253  13.826  -6.806 -0.24 -0.04    -0.251 OA
DOCKED: BRANCH  51  53
DOCKED: ATOM     53  O   UNL d   1      -8.471  15.326  -7.916 -0.01 -0.01    -0.481 OA
DOCKED: ATOM     54  H   UNL d   1      -8.587  15.670  -7.006 +0.08 +0.02    +0.295 HD
DOCKED: ENDBRANCH  51  53
DOCKED: ENDBRANCH  50  51
DOCKED: ENDBRANCH  49  50
DOCKED: ENDBRANCH  22  49
DOCKED: TORSDOF 13
DOCKED: TER
DOCKED: ENDMDL
________________________________________________________________________________


	BEGINNING GENETIC ALGORITHM DOCKING 26 of 100
Run: 26 Seed: 1794445093 1533370452 [ Run 26 of 100 GA/GALS ]
Beginning LAMARCKIAN GENETIC ALGORITHM (LGA), with a maximum of 25000000 energy evaluations.

Final-Value: -11.593


	FINAL GENETIC ALGORITHM DOCKED STATE
	_______________________________________________


Detailed state:  trans 1.680 11.307 -10.071 quatxyzw 0.017743 0.061774 -0.730249 0.680151 center 0.153 0.018 -0.028 ntor 13 -162.3183 116.4799 -115.9732 -101.9537 -173.7405 19.4240 120.0972 -21.9580 -28.3303 -34.8324 -51.7409 -42.1949 8.7046
State:	  1.680  11.307 -10.071   0.024  0.084 -0.996 94.289   -162.32  116.48 -115.97 -101.95 -173.74   19.42  120.10  -21.96  -28.33  -34.83  -51.74  -42.19    8.70

DOCKED: MODEL       26
DOCKED: USER    Run = 26
DOCKED: USER    DPF = D:/Protein_go_brrr/autodock/final/mut_D99N/heme/dock.dpf
DOCKED: USER  
DOCKED: USER    Estimated Free Energy of Binding    =   -3.63 kcal/mol  [=(1)+(2)+(3)-(4)]
DOCKED: USER    Estimated Inhibition Constant, Ki   =    2.18 mM (millimolar)  [Temperature = 298.15 K]
DOCKED: USER    
DOCKED: USER    (1) Final Intermolecular Energy     =   -7.51 kcal/mol
DOCKED: USER        vdW + Hbond + desolv Energy     =   -7.32 kcal/mol
DOCKED: USER        Electrostatic Energy            =   -0.19 kcal/mol
DOCKED: USER    (2) Final Total Internal Energy     =   -4.08 kcal/mol
DOCKED: USER    (3) Torsional Free Energy           =   +3.88 kcal/mol
DOCKED: USER    (4) Unbound System's Energy  [=(2)] =   -4.08 kcal/mol
DOCKED: USER    
DOCKED: USER    
DOCKED: USER    NEWDPF move heme_opt.pdbqt
DOCKED: USER    NEWDPF about 0.153000 0.018000 -0.028000
DOCKED: USER    NEWDPF tran0 1.679508 11.306759 -10.070891
DOCKED: USER    NEWDPF quaternion0 0.017743 0.061774 -0.730249 0.680151
DOCKED: USER    NEWDPF axisangle0 0.024203 0.084267 -0.996149 94.289083
DOCKED: USER    NEWDPF quat0 0.024203 0.084267 -0.996149 94.289083
DOCKED: USER    NEWDPF dihe0 -162.32 116.48 -115.97 -101.95 -173.74 19.42 120.10 -21.96 -28.33 -34.83 -51.74 -42.19 8.70 
DOCKED: USER  keepresnum = 1 
DOCKED: USER  
DOCKED: REMARK  13 active torsions:
DOCKED: REMARK  status: ('A' for Active; 'I' for Inactive)
DOCKED: REMARK    1  A    between atoms: O_3  and  C_38 
DOCKED: REMARK    2  A    between atoms: O_4  and  C_40 
DOCKED: REMARK    3  A    between atoms: O_7  and  C_46 
DOCKED: REMARK    4  A    between atoms: O_9  and  C_48 
DOCKED: REMARK    5  A    between atoms: C_15  and  C_20 
DOCKED: REMARK    6  A    between atoms: C_16  and  C_23 
DOCKED: REMARK    7  A    between atoms: C_20  and  C_38 
DOCKED: REMARK    8  A    between atoms: C_23  and  C_40 
DOCKED: REMARK    9  A    between atoms: C_32  and  C_41 
DOCKED: REMARK   10  A    between atoms: C_37  and  C_45 
DOCKED: REMARK   11  A    between atoms: C_41  and  C_44 
DOCKED: REMARK   12  A    between atoms: C_44  and  C_46 
DOCKED: REMARK   13  A    between atoms: C_47  and  C_48 
DOCKED: USER                              x       y       z     vdW  Elec       q    Type
DOCKED: USER                           _______ _______ _______ _____ _____    ______ ____
DOCKED: ROOT
DOCKED: ATOM      1  O   UNL d   1       0.350   5.564  -9.947 -0.32 +0.04    -0.289 OA
DOCKED: ATOM      2  O   UNL d   1       6.853   9.091 -11.237 -0.01 -0.05    -0.289 OA
DOCKED: ATOM      3  N   UNL d   1       0.623   9.001 -10.052 -0.14 +0.05    -0.247 NA
DOCKED: ATOM      4  N   UNL d   1       3.550   9.447 -10.305 +0.13 -0.04    -0.247 NA
DOCKED: ATOM      5  N   UNL d   1       3.091  12.211  -9.659 -0.11 +0.12    -0.354 N 
DOCKED: ATOM      6  N   UNL d   1       0.058  11.735  -9.379 -0.01 +0.29    -0.354 N 
DOCKED: ATOM      7  C   UNL d   1      -1.170   7.425  -9.496 -0.44 -0.01    +0.084 A 
DOCKED: ATOM      8  C   UNL d   1       4.868   7.663 -11.332 -0.07 +0.02    +0.084 A 
DOCKED: ATOM      9  C   UNL d   1       3.519   8.163 -10.801 -0.02 +0.01    +0.058 A 
DOCKED: ATOM     10  C   UNL d   1      -0.694   8.873  -9.643 -0.33 -0.01    +0.058 A 
DOCKED: ATOM     11  C   UNL d   1       0.106   6.757  -9.912 -0.24 -0.02    +0.193 A 
DOCKED: ATOM     12  C   UNL d   1       1.107   7.818 -10.249 -0.20 -0.01    +0.109 A 
DOCKED: ATOM     13  C   UNL d   1       5.677   8.888 -11.010 -0.04 +0.04    +0.193 A 
DOCKED: ATOM     14  C   UNL d   1      -1.466   7.063  -8.038 -0.53 -0.00    +0.026 C 
DOCKED: ATOM     15  C   UNL d   1       2.420   7.394 -10.777 -0.21 +0.00    +0.055 C 
DOCKED: ATOM     16  C   UNL d   1       4.845   7.473 -12.851 -0.04 +0.00    +0.026 C 
DOCKED: ATOM     17  C   UNL d   1       4.763   9.891 -10.385 -0.06 +0.03    +0.109 A 
DOCKED: ATOM     18  C   UNL d   1      -1.535   9.910  -9.471 -0.38 -0.01    +0.050 C 
DOCKED: ATOM     19  C   UNL d   1      -1.207  11.276  -9.667 -0.25 -0.02    +0.045 A 
DOCKED: ATOM     20  C   UNL d   1       4.460  12.177  -9.592 -0.15 +0.00    +0.045 A 
DOCKED: ATOM     21  C   UNL d   1       5.291  11.183  -9.923 -0.13 +0.01    +0.057 C 
DOCKED: ATOM     22  C   UNL d   1       3.735  14.216  -8.860 -0.11 +0.00    -0.019 A 
DOCKED: ATOM     23  C   UNL d   1       2.562  13.401  -9.237 -0.13 -0.02    +0.045 A 
DOCKED: ATOM     24  C   UNL d   1       4.855  13.486  -9.073 -0.11 +0.00    -0.022 A 
DOCKED: ATOM     25  C   UNL d   1       0.130  13.098  -9.555 -0.13 -0.02    +0.049 A 
DOCKED: ATOM     26  C   UNL d   1      -1.967  12.361 -10.075 -0.18 +0.00    -0.018 A 
DOCKED: ATOM     27  C   UNL d   1      -1.113  13.506 -10.021 -0.11 -0.00    +0.003 A 
DOCKED: ATOM     28  C   UNL d   1       1.290  13.823  -9.170 -0.13 -0.03    +0.052 C 
DOCKED: ATOM     29  C   UNL d   1       6.278  13.876  -8.857 -0.05 +0.00    +0.046 C 
DOCKED: ATOM     30  C   UNL d   1      -3.398  12.339 -10.492 -0.20 -0.00    +0.046 C 
DOCKED: ATOM     31  H   UNL d   1       2.565  11.442 -10.061 +0.01 -0.05    +0.166 HD
DOCKED: ATOM     32  H   UNL d   1       0.808  11.141  -9.045 -0.41 -0.25    +0.166 HD
DOCKED: ENDROOT
DOCKED: BRANCH   7  33
DOCKED: ATOM     33  C   UNL d   1      -2.319   7.014 -10.422 -0.39 -0.02    +0.141 C 
DOCKED: BRANCH  33  34
DOCKED: ATOM     34  C   UNL d   1      -2.466   7.931 -11.606 -0.18 -0.02    +0.306 C 
DOCKED: ATOM     35  O   UNL d   1      -3.448   8.598 -11.883 -0.24 -0.01    -0.251 OA
DOCKED: BRANCH  34  36
DOCKED: ATOM     36  O   UNL d   1      -1.365   7.960 -12.378 -0.03 +0.09    -0.481 OA
DOCKED: ATOM     37  H   UNL d   1      -0.842   7.181 -12.092 -0.39 -0.16    +0.295 HD
DOCKED: ENDBRANCH  34  36
DOCKED: ENDBRANCH  33  34
DOCKED: ENDBRANCH   7  33
DOCKED: BRANCH  27  38
DOCKED: ATOM     38  C   UNL d   1      -1.503  14.844 -10.348 -0.05 -0.00    +0.017 C 
DOCKED: ATOM     39  C   UNL d   1      -0.735  15.933 -10.199 -0.01 -0.01    +0.092 C 
DOCKED: BRANCH  39  40
DOCKED: ATOM     40  C   UNL d   1      -1.249  17.249 -10.590 +0.01 -0.01    +0.330 C 
DOCKED: ATOM     41  O   UNL d   1      -2.408  17.567 -10.782 +0.00 +0.00    -0.246 OA
DOCKED: BRANCH  40  42
DOCKED: ATOM     42  O   UNL d   1      -0.238  18.122 -10.712 +0.00 +0.01    -0.477 OA
DOCKED: ATOM     43  H   UNL d   1       0.130  18.183  -9.806 +0.01 -0.01    +0.295 HD
DOCKED: ENDBRANCH  40  42
DOCKED: ENDBRANCH  39  40
DOCKED: ENDBRANCH  27  38
DOCKED: BRANCH   8  44
DOCKED: ATOM     44  C   UNL d   1       5.438   6.428 -10.627 -0.13 +0.03    +0.141 C 
DOCKED: BRANCH  44  45
DOCKED: ATOM     45  C   UNL d   1       6.207   6.760  -9.376 -0.13 +0.12    +0.306 C 
DOCKED: ATOM     46  O   UNL d   1       5.738   7.074  -8.296 -0.68 -0.20    -0.251 OA
DOCKED: BRANCH  45  47
DOCKED: ATOM     47  O   UNL d   1       7.539   6.705  -9.561 -0.02 -0.14    -0.481 OA
DOCKED: ATOM     48  H   UNL d   1       7.726   7.403 -10.224 +0.06 +0.07    +0.295 HD
DOCKED: ENDBRANCH  45  47
DOCKED: ENDBRANCH  44  45
DOCKED: ENDBRANCH   8  44
DOCKED: BRANCH  22  49
DOCKED: ATOM     49  C   UNL d   1       3.651  15.612  -8.317 -0.05 -0.01    +0.048 C 
DOCKED: BRANCH  49  50
DOCKED: ATOM     50  C   UNL d   1       3.311  16.627  -9.408 -0.00 -0.01    +0.125 C 
DOCKED: BRANCH  50  51
DOCKED: ATOM     51  C   UNL d   1       2.156  17.494  -8.994 +0.01 -0.02    +0.305 C 
DOCKED: ATOM     52  O   UNL d   1       1.247  17.208  -8.235 -0.01 +0.02    -0.251 OA
DOCKED: BRANCH  51  53
DOCKED: ATOM     53  O   UNL d   1       2.200  18.706  -9.581 +0.00 +0.01    -0.481 OA
DOCKED: ATOM     54  H   UNL d   1       1.879  18.541 -10.492 +0.00 -0.01    +0.295 HD
DOCKED: ENDBRANCH  51  53
DOCKED: ENDBRANCH  50  51
DOCKED: ENDBRANCH  49  50
DOCKED: ENDBRANCH  22  49
DOCKED: TORSDOF 13
DOCKED: TER
DOCKED: ENDMDL
________________________________________________________________________________


	BEGINNING GENETIC ALGORITHM DOCKING 27 of 100
Run: 27 Seed: 215636616 1283721877 [ Run 27 of 100 GA/GALS ]
Beginning LAMARCKIAN GENETIC ALGORITHM (LGA), with a maximum of 25000000 energy evaluations.

Final-Value: -10.031


	FINAL GENETIC ALGORITHM DOCKED STATE
	_______________________________________________


Detailed state:  trans -9.570 -4.180 12.730 quatxyzw 0.212414 0.544924 -0.650820 0.484120 center 0.153 0.018 -0.028 ntor 13 54.5968 -77.9296 17.5308 -145.8816 -136.1934 133.6157 -26.7037 3.2360 -16.3793 130.7125 68.6601 13.8745 144.6534
State:	 -9.570  -4.180  12.730   0.243  0.623 -0.744 122.090     54.60  -77.93   17.53 -145.88 -136.19  133.62  -26.70    3.24  -16.38  130.71   68.66   13.87  144.65

DOCKED: MODEL       27
DOCKED: USER    Run = 27
DOCKED: USER    DPF = D:/Protein_go_brrr/autodock/final/mut_D99N/heme/dock.dpf
DOCKED: USER  
DOCKED: USER    Estimated Free Energy of Binding    =   -4.73 kcal/mol  [=(1)+(2)+(3)-(4)]
DOCKED: USER    Estimated Inhibition Constant, Ki   =  342.59 uM (micromolar)  [Temperature = 298.15 K]
DOCKED: USER    
DOCKED: USER    (1) Final Intermolecular Energy     =   -8.61 kcal/mol
DOCKED: USER        vdW + Hbond + desolv Energy     =   -7.98 kcal/mol
DOCKED: USER        Electrostatic Energy            =   -0.63 kcal/mol
DOCKED: USER    (2) Final Total Internal Energy     =   -1.43 kcal/mol
DOCKED: USER    (3) Torsional Free Energy           =   +3.88 kcal/mol
DOCKED: USER    (4) Unbound System's Energy  [=(2)] =   -1.43 kcal/mol
DOCKED: USER    
DOCKED: USER    
DOCKED: USER    NEWDPF move heme_opt.pdbqt
DOCKED: USER    NEWDPF about 0.153000 0.018000 -0.028000
DOCKED: USER    NEWDPF tran0 -9.569911 -4.180051 12.730307
DOCKED: USER    NEWDPF quaternion0 0.212414 0.544924 -0.650820 0.484120
DOCKED: USER    NEWDPF axisangle0 0.242759 0.622769 -0.743793 122.090334
DOCKED: USER    NEWDPF quat0 0.242759 0.622769 -0.743793 122.090334
DOCKED: USER    NEWDPF dihe0 54.60 -77.93 17.53 -145.88 -136.19 133.62 -26.70 3.24 -16.38 130.71 68.66 13.87 144.65 
DOCKED: USER  keepresnum = 1 
DOCKED: USER  
DOCKED: REMARK  13 active torsions:
DOCKED: REMARK  status: ('A' for Active; 'I' for Inactive)
DOCKED: REMARK    1  A    between atoms: O_3  and  C_38 
DOCKED: REMARK    2  A    between atoms: O_4  and  C_40 
DOCKED: REMARK    3  A    between atoms: O_7  and  C_46 
DOCKED: REMARK    4  A    between atoms: O_9  and  C_48 
DOCKED: REMARK    5  A    between atoms: C_15  and  C_20 
DOCKED: REMARK    6  A    between atoms: C_16  and  C_23 
DOCKED: REMARK    7  A    between atoms: C_20  and  C_38 
DOCKED: REMARK    8  A    between atoms: C_23  and  C_40 
DOCKED: REMARK    9  A    between atoms: C_32  and  C_41 
DOCKED: REMARK   10  A    between atoms: C_37  and  C_45 
DOCKED: REMARK   11  A    between atoms: C_41  and  C_44 
DOCKED: REMARK   12  A    between atoms: C_44  and  C_46 
DOCKED: REMARK   13  A    between atoms: C_47  and  C_48 
DOCKED: USER                              x       y       z     vdW  Elec       q    Type
DOCKED: USER                           _______ _______ _______ _____ _____    ______ ____
DOCKED: ROOT
DOCKED: ATOM      1  O   UNL d   1      -8.290  -9.235   9.981 -0.12 -0.19    -0.289 OA
DOCKED: ATOM      2  O   UNL d   1      -5.197  -5.978  15.998 -0.07 -0.05    -0.289 OA
DOCKED: ATOM      3  N   UNL d   1      -9.302  -6.159  11.167 -0.04 -0.06    -0.247 NA
DOCKED: ATOM      4  N   UNL d   1      -7.754  -5.855  13.685 -0.07 -0.04    -0.247 NA
DOCKED: ATOM      5  N   UNL d   1      -9.486  -3.666  14.376 -0.10 -0.06    -0.354 N 
DOCKED: ATOM      6  N   UNL d   1     -11.099  -4.001  11.770 -0.02 -0.08    -0.354 N 
DOCKED: ATOM      7  C   UNL d   1     -10.094  -7.684   9.419 -0.09 +0.02    +0.084 A 
DOCKED: ATOM      8  C   UNL d   1      -5.635  -7.061  13.847 -0.13 +0.01    +0.084 A 
DOCKED: ATOM      9  C   UNL d   1      -6.923  -6.765  13.071 -0.17 +0.01    +0.058 A 
DOCKED: ATOM     10  C   UNL d   1     -10.254  -6.366  10.182 -0.13 +0.01    +0.058 A 
DOCKED: ATOM     11  C   UNL d   1      -8.871  -8.177  10.134 -0.11 +0.07    +0.193 A 
DOCKED: ATOM     12  C   UNL d   1      -8.474  -7.152  11.151 -0.16 +0.03    +0.109 A 
DOCKED: ATOM     13  C   UNL d   1      -5.908  -6.179  15.033 -0.11 +0.03    +0.193 A 
DOCKED: ATOM     14  C   UNL d   1     -11.250  -8.650   9.692 -0.04 +0.00    +0.026 C 
DOCKED: ATOM     15  C   UNL d   1      -7.234  -7.380  11.920 -0.24 +0.02    +0.055 C 
DOCKED: ATOM     16  C   UNL d   1      -4.397  -6.534  13.116 -0.34 +0.00    +0.026 C 
DOCKED: ATOM     17  C   UNL d   1      -7.226  -5.510  14.815 -0.17 +0.01    +0.109 A 
DOCKED: ATOM     18  C   UNL d   1     -11.194  -5.466   9.841 -0.12 +0.01    +0.050 C 
DOCKED: ATOM     19  C   UNL d   1     -11.363  -4.188  10.432 -0.12 +0.01    +0.045 A 
DOCKED: ATOM     20  C   UNL d   1      -8.820  -3.823  15.563 -0.24 +0.01    +0.045 A 
DOCKED: ATOM     21  C   UNL d   1      -7.776  -4.612  15.841 -0.23 +0.01    +0.057 C 
DOCKED: ATOM     22  C   UNL d   1     -10.495  -2.298  15.854 -0.23 -0.00    -0.019 A 
DOCKED: ATOM     23  C   UNL d   1     -10.515  -2.766  14.453 -0.22 +0.01    +0.045 A 
DOCKED: ATOM     24  C   UNL d   1      -9.489  -2.927  16.505 -0.22 -0.00    -0.022 A 
DOCKED: ATOM     25  C   UNL d   1     -11.415  -2.718  12.151 -0.14 +0.01    +0.049 A 
DOCKED: ATOM     26  C   UNL d   1     -11.828  -2.985   9.922 -0.13 -0.01    -0.018 A 
DOCKED: ATOM     27  C   UNL d   1     -11.840  -2.056  11.008 -0.15 +0.00    +0.003 A 
DOCKED: ATOM     28  C   UNL d   1     -11.375  -2.332  13.519 -0.19 +0.01    +0.052 C 
DOCKED: ATOM     29  C   UNL d   1      -9.063  -2.781  17.927 -0.02 +0.01    +0.046 C 
DOCKED: ATOM     30  C   UNL d   1     -12.234  -2.713   8.514 -0.16 +0.02    +0.046 C 
DOCKED: ATOM     31  H   UNL d   1      -9.169  -4.126  13.530 +0.08 +0.03    +0.166 HD
DOCKED: ATOM     32  H   UNL d   1     -10.758  -4.734  12.382 +0.03 +0.03    +0.166 HD
DOCKED: ENDROOT
DOCKED: BRANCH   7  33
DOCKED: ATOM     33  C   UNL d   1      -9.819  -7.545   7.918 -0.17 +0.04    +0.141 C 
DOCKED: BRANCH  33  34
DOCKED: ATOM     34  C   UNL d   1      -9.043  -6.300   7.584 -0.25 +0.06    +0.306 C 
DOCKED: ATOM     35  O   UNL d   1      -9.502  -5.179   7.450 -0.23 -0.06    -0.251 OA
DOCKED: BRANCH  34  36
DOCKED: ATOM     36  O   UNL d   1      -7.726  -6.533   7.439 -0.21 -0.07    -0.481 OA
DOCKED: ATOM     37  H   UNL d   1      -7.293  -5.880   8.028 -0.42 -0.03    +0.295 HD
DOCKED: ENDBRANCH  34  36
DOCKED: ENDBRANCH  33  34
DOCKED: ENDBRANCH   7  33
DOCKED: BRANCH  27  38
DOCKED: ATOM     38  C   UNL d   1     -12.268  -0.692  10.921 -0.19 +0.01    +0.017 C 
DOCKED: ATOM     39  C   UNL d   1     -11.570   0.368  11.358 -0.32 +0.03    +0.092 C 
DOCKED: BRANCH  39  40
DOCKED: ATOM     40  C   UNL d   1     -12.114   1.718  11.194 -0.18 +0.14    +0.330 C 
DOCKED: ATOM     41  O   UNL d   1     -12.194   2.595  12.033 -0.35 -0.16    -0.246 OA
DOCKED: BRANCH  40  42
DOCKED: ATOM     42  O   UNL d   1     -12.534   1.896   9.932 -0.06 -0.15    -0.477 OA
DOCKED: ATOM     43  H   UNL d   1     -13.507   1.800   9.993 +0.10 +0.09    +0.295 HD
DOCKED: ENDBRANCH  40  42
DOCKED: ENDBRANCH  39  40
DOCKED: ENDBRANCH  27  38
DOCKED: BRANCH   8  44
DOCKED: ATOM     44  C   UNL d   1      -5.445  -8.519  14.280 -0.06 +0.01    +0.141 C 
DOCKED: BRANCH  44  45
DOCKED: ATOM     45  C   UNL d   1      -4.912  -9.400  13.182 -0.09 +0.00    +0.306 C 
DOCKED: ATOM     46  O   UNL d   1      -5.513  -9.765  12.187 -0.43 -0.16    -0.251 OA
DOCKED: BRANCH  45  47
DOCKED: ATOM     47  O   UNL d   1      -3.648  -9.800  13.412 -0.05 +0.18    -0.481 OA
DOCKED: ATOM     48  H   UNL d   1      -3.327 -10.118  12.541 -0.50 -0.41    +0.295 HD
DOCKED: ENDBRANCH  45  47
DOCKED: ENDBRANCH  44  45
DOCKED: ENDBRANCH   8  44
DOCKED: BRANCH  22  49
DOCKED: ATOM     49  C   UNL d   1     -11.462  -1.301  16.423 -0.19 +0.02    +0.048 C 
DOCKED: BRANCH  49  50
DOCKED: ATOM     50  C   UNL d   1     -12.904  -1.802  16.350 -0.07 +0.04    +0.125 C 
DOCKED: BRANCH  50  51
DOCKED: ATOM     51  C   UNL d   1     -13.697  -1.011  15.348 -0.06 +0.12    +0.305 C 
DOCKED: ATOM     52  O   UNL d   1     -13.322  -0.055  14.692 -0.11 -0.15    -0.251 OA
DOCKED: BRANCH  51  53
DOCKED: ATOM     53  O   UNL d   1     -14.959  -1.469  15.229 +0.00 -0.13    -0.481 OA
DOCKED: ATOM     54  H   UNL d   1     -15.186  -1.779  16.130 +0.01 +0.07    +0.295 HD
DOCKED: ENDBRANCH  51  53
DOCKED: ENDBRANCH  50  51
DOCKED: ENDBRANCH  49  50
DOCKED: ENDBRANCH  22  49
DOCKED: TORSDOF 13
DOCKED: TER
DOCKED: ENDMDL
________________________________________________________________________________


	BEGINNING GENETIC ALGORITHM DOCKING 28 of 100
Run: 28 Seed: 789624067 454871540 [ Run 28 of 100 GA/GALS ]
Beginning LAMARCKIAN GENETIC ALGORITHM (LGA), with a maximum of 25000000 energy evaluations.

Final-Value: -12.860


	FINAL GENETIC ALGORITHM DOCKED STATE
	_______________________________________________


Detailed state:  trans 12.797 -10.749 8.019 quatxyzw -0.913243 0.268436 0.153628 -0.265194 center 0.153 0.018 -0.028 ntor 13 98.4777 -138.4239 -118.5078 87.4364 -138.0573 75.5453 120.0328 138.6759 28.8361 -30.3752 -40.8194 165.4972 23.7946
State:	 12.797 -10.749   8.019  -0.947  0.278  0.159 -149.243     98.48 -138.42 -118.51   87.44 -138.06   75.55  120.03  138.68   28.84  -30.38  -40.82  165.50   23.79

DOCKED: MODEL       28
DOCKED: USER    Run = 28
DOCKED: USER    DPF = D:/Protein_go_brrr/autodock/final/mut_D99N/heme/dock.dpf
DOCKED: USER  
DOCKED: USER    Estimated Free Energy of Binding    =   -6.52 kcal/mol  [=(1)+(2)+(3)-(4)]
DOCKED: USER    Estimated Inhibition Constant, Ki   =   16.50 uM (micromolar)  [Temperature = 298.15 K]
DOCKED: USER    
DOCKED: USER    (1) Final Intermolecular Energy     =  -10.40 kcal/mol
DOCKED: USER        vdW + Hbond + desolv Energy     =   -9.69 kcal/mol
DOCKED: USER        Electrostatic Energy            =   -0.71 kcal/mol
DOCKED: USER    (2) Final Total Internal Energy     =   -2.46 kcal/mol
DOCKED: USER    (3) Torsional Free Energy           =   +3.88 kcal/mol
DOCKED: USER    (4) Unbound System's Energy  [=(2)] =   -2.46 kcal/mol
DOCKED: USER    
DOCKED: USER    
DOCKED: USER    NEWDPF move heme_opt.pdbqt
DOCKED: USER    NEWDPF about 0.153000 0.018000 -0.028000
DOCKED: USER    NEWDPF tran0 12.797194 -10.749456 8.018545
DOCKED: USER    NEWDPF quaternion0 -0.913243 0.268436 0.153628 -0.265194
DOCKED: USER    NEWDPF axisangle0 -0.947156 0.278404 0.159333 -149.243046
DOCKED: USER    NEWDPF quat0 -0.947156 0.278404 0.159333 -149.243046
DOCKED: USER    NEWDPF dihe0 98.48 -138.42 -118.51 87.44 -138.06 75.55 120.03 138.68 28.84 -30.38 -40.82 165.50 23.79 
DOCKED: USER  keepresnum = 1 
DOCKED: USER  
DOCKED: REMARK  13 active torsions:
DOCKED: REMARK  status: ('A' for Active; 'I' for Inactive)
DOCKED: REMARK    1  A    between atoms: O_3  and  C_38 
DOCKED: REMARK    2  A    between atoms: O_4  and  C_40 
DOCKED: REMARK    3  A    between atoms: O_7  and  C_46 
DOCKED: REMARK    4  A    between atoms: O_9  and  C_48 
DOCKED: REMARK    5  A    between atoms: C_15  and  C_20 
DOCKED: REMARK    6  A    between atoms: C_16  and  C_23 
DOCKED: REMARK    7  A    between atoms: C_20  and  C_38 
DOCKED: REMARK    8  A    between atoms: C_23  and  C_40 
DOCKED: REMARK    9  A    between atoms: C_32  and  C_41 
DOCKED: REMARK   10  A    between atoms: C_37  and  C_45 
DOCKED: REMARK   11  A    between atoms: C_41  and  C_44 
DOCKED: REMARK   12  A    between atoms: C_44  and  C_46 
DOCKED: REMARK   13  A    between atoms: C_47  and  C_48 
DOCKED: USER                              x       y       z     vdW  Elec       q    Type
DOCKED: USER                           _______ _______ _______ _____ _____    ______ ____
DOCKED: ROOT
DOCKED: ATOM      1  O   UNL d   1       7.204  -9.296   9.187 -0.11 +0.38    -0.289 OA
DOCKED: ATOM      2  O   UNL d   1      13.638  -7.092  12.372 -0.01 +0.07    -0.289 OA
DOCKED: ATOM      3  N   UNL d   1      10.279 -10.539   8.240 -0.20 +0.08    -0.247 NA
DOCKED: ATOM      4  N   UNL d   1      12.193  -8.891   9.806 -0.13 +0.10    -0.247 NA
DOCKED: ATOM      5  N   UNL d   1      14.294  -9.896   8.120 +0.04 +0.17    -0.354 N 
DOCKED: ATOM      6  N   UNL d   1      12.299 -11.588   6.489 -0.14 +0.14    -0.354 N 
DOCKED: ATOM      7  C   UNL d   1       7.986 -10.783   7.411 -0.41 -0.02    +0.084 A 
DOCKED: ATOM      8  C   UNL d   1      11.386  -7.929  11.902 -0.09 -0.04    +0.084 A 
DOCKED: ATOM      9  C   UNL d   1      11.095  -8.711  10.617 -0.17 -0.03    +0.058 A 
DOCKED: ATOM     10  C   UNL d   1       9.473 -11.126   7.280 -0.32 -0.02    +0.058 A 
DOCKED: ATOM     11  C   UNL d   1       8.092  -9.912   8.627 -0.21 -0.11    +0.193 A 
DOCKED: ATOM     12  C   UNL d   1       9.528  -9.864   9.049 -0.07 -0.04    +0.109 A 
DOCKED: ATOM     13  C   UNL d   1      12.844  -7.667  11.653 -0.03 -0.06    +0.193 A 
DOCKED: ATOM     14  C   UNL d   1       7.487  -9.935   6.237 -0.64 -0.00    +0.026 C 
DOCKED: ATOM     15  C   UNL d   1       9.865  -9.135  10.288 -0.20 -0.04    +0.055 C 
DOCKED: ATOM     16  C   UNL d   1      11.249  -8.811  13.146 -0.04 -0.01    +0.026 C 
DOCKED: ATOM     17  C   UNL d   1      13.207  -8.296  10.347 -0.12 -0.04    +0.109 A 
DOCKED: ATOM     18  C   UNL d   1       9.914 -11.999   6.355 -0.28 -0.01    +0.050 C 
DOCKED: ATOM     19  C   UNL d   1      11.254 -12.441   6.214 -0.22 -0.01    +0.045 A 
DOCKED: ATOM     20  C   UNL d   1      14.979  -8.915   8.790 -0.12 -0.02    +0.045 A 
DOCKED: ATOM     21  C   UNL d   1      14.573  -8.164   9.819 -0.15 -0.02    +0.057 C 
DOCKED: ATOM     22  C   UNL d   1      16.320  -9.760   7.145 -0.23 +0.00    -0.019 A 
DOCKED: ATOM     23  C   UNL d   1      15.023 -10.465   7.110 -0.18 -0.02    +0.045 A 
DOCKED: ATOM     24  C   UNL d   1      16.288  -8.845   8.143 -0.17 +0.00    -0.022 A 
DOCKED: ATOM     25  C   UNL d   1      13.502 -12.189   6.200 -0.25 -0.03    +0.049 A 
DOCKED: ATOM     26  C   UNL d   1      11.793 -13.638   5.770 -0.25 +0.00    -0.018 A 
DOCKED: ATOM     27  C   UNL d   1      13.213 -13.480   5.782 -0.21 -0.00    +0.003 A 
DOCKED: ATOM     28  C   UNL d   1      14.717 -11.452   6.254 -0.30 -0.03    +0.052 C 
DOCKED: ATOM     29  C   UNL d   1      17.358  -7.902   8.578 -0.12 -0.00    +0.046 C 
DOCKED: ATOM     30  C   UNL d   1      11.037 -14.858   5.362 -0.26 -0.00    +0.046 C 
DOCKED: ATOM     31  H   UNL d   1      13.375 -10.198   8.425 -0.10 -0.07    +0.166 HD
DOCKED: ATOM     32  H   UNL d   1      12.175 -10.638   6.818 -0.11 -0.08    +0.166 HD
DOCKED: ENDROOT
DOCKED: BRANCH   7  33
DOCKED: ATOM     33  C   UNL d   1       7.058 -11.972   7.680 -0.26 -0.04    +0.141 C 
DOCKED: BRANCH  33  34
DOCKED: ATOM     34  C   UNL d   1       7.121 -12.444   9.108 -0.14 -0.10    +0.306 C 
DOCKED: ATOM     35  O   UNL d   1       7.944 -13.211   9.578 -0.05 +0.07    -0.251 OA
DOCKED: BRANCH  34  36
DOCKED: ATOM     36  O   UNL d   1       6.144 -11.921   9.870 -0.38 +0.21    -0.481 OA
DOCKED: ATOM     37  H   UNL d   1       6.489 -11.046  10.148 -0.25 -0.36    +0.295 HD
DOCKED: ENDBRANCH  34  36
DOCKED: ENDBRANCH  33  34
DOCKED: ENDBRANCH   7  33
DOCKED: BRANCH  27  38
DOCKED: ATOM     38  C   UNL d   1      14.158 -14.478   5.380 -0.01 -0.01    +0.017 C 
DOCKED: ATOM     39  C   UNL d   1      13.895 -15.511   4.565 -0.12 -0.04    +0.092 C 
DOCKED: BRANCH  39  40
DOCKED: ATOM     40  C   UNL d   1      14.959 -16.456   4.216 -0.09 -0.06    +0.330 C 
DOCKED: ATOM     41  O   UNL d   1      15.452 -17.314   4.923 -0.03 +0.02    -0.246 OA
DOCKED: BRANCH  40  42
DOCKED: ATOM     42  O   UNL d   1      15.348 -16.264   2.946 -0.38 +0.05    -0.477 OA
DOCKED: ATOM     43  H   UNL d   1      15.374 -15.290   2.853 -0.18 -0.38    +0.295 HD
DOCKED: ENDBRANCH  40  42
DOCKED: ENDBRANCH  39  40
DOCKED: ENDBRANCH  27  38
DOCKED: BRANCH   8  44
DOCKED: ATOM     44  C   UNL d   1      10.613  -6.616  12.066 -0.17 -0.10    +0.141 C 
DOCKED: BRANCH  44  45
DOCKED: ATOM     45  C   UNL d   1      11.208  -5.475  11.285 -0.20 -0.17    +0.306 C 
DOCKED: ATOM     46  O   UNL d   1      11.124  -5.295  10.082 -0.37 +0.17    -0.251 OA
DOCKED: BRANCH  45  47
DOCKED: ATOM     47  O   UNL d   1      11.907  -4.628  12.062 -0.17 +0.16    -0.481 OA
DOCKED: ATOM     48  H   UNL d   1      12.621  -5.178  12.448 +0.07 -0.08    +0.295 HD
DOCKED: ENDBRANCH  45  47
DOCKED: ENDBRANCH  44  45
DOCKED: ENDBRANCH   8  44
DOCKED: BRANCH  22  49
DOCKED: ATOM     49  C   UNL d   1      17.454 -10.034   6.201 -0.30 -0.01    +0.048 C 
DOCKED: BRANCH  49  50
DOCKED: ATOM     50  C   UNL d   1      17.929 -11.484   6.287 -0.13 -0.02    +0.125 C 
DOCKED: BRANCH  50  51
DOCKED: ATOM     51  C   UNL d   1      18.246 -12.027   4.923 -0.16 -0.07    +0.305 C 
DOCKED: ATOM     52  O   UNL d   1      19.241 -12.643   4.581 -0.12 +0.01    -0.251 OA
DOCKED: BRANCH  51  53
DOCKED: ATOM     53  O   UNL d   1      17.276 -11.748   4.030 -0.05 +0.32    -0.481 OA
DOCKED: ATOM     54  H   UNL d   1      16.693 -12.535   4.059 -0.43 -0.51    +0.295 HD
DOCKED: ENDBRANCH  51  53
DOCKED: ENDBRANCH  50  51
DOCKED: ENDBRANCH  49  50
DOCKED: ENDBRANCH  22  49
DOCKED: TORSDOF 13
DOCKED: TER
DOCKED: ENDMDL
________________________________________________________________________________


	BEGINNING GENETIC ALGORITHM DOCKING 29 of 100
Run: 29 Seed: 189671154 1492391925 [ Run 29 of 100 GA/GALS ]
Beginning LAMARCKIAN GENETIC ALGORITHM (LGA), with a maximum of 25000000 energy evaluations.

Final-Value: -11.575


	FINAL GENETIC ALGORITHM DOCKED STATE
	_______________________________________________


Detailed state:  trans 16.226 -0.452 3.303 quatxyzw -0.651117 0.313636 -0.313211 -0.616099 center 0.153 0.018 -0.028 ntor 13 -158.0745 97.4965 -68.7459 13.3414 48.2454 -147.2642 130.7379 110.9304 163.8558 -53.7146 -51.5957 -107.2167 4.3879
State:	 16.226  -0.452   3.303  -0.827  0.398 -0.398 -103.936   -158.07   97.50  -68.75   13.34   48.25 -147.26  130.74  110.93  163.86  -53.71  -51.60 -107.22    4.39

DOCKED: MODEL       29
DOCKED: USER    Run = 29
DOCKED: USER    DPF = D:/Protein_go_brrr/autodock/final/mut_D99N/heme/dock.dpf
DOCKED: USER  
DOCKED: USER    Estimated Free Energy of Binding    =   -4.60 kcal/mol  [=(1)+(2)+(3)-(4)]
DOCKED: USER    Estimated Inhibition Constant, Ki   =  425.70 uM (micromolar)  [Temperature = 298.15 K]
DOCKED: USER    
DOCKED: USER    (1) Final Intermolecular Energy     =   -8.48 kcal/mol
DOCKED: USER        vdW + Hbond + desolv Energy     =   -8.25 kcal/mol
DOCKED: USER        Electrostatic Energy            =   -0.23 kcal/mol
DOCKED: USER    (2) Final Total Internal Energy     =   -3.10 kcal/mol
DOCKED: USER    (3) Torsional Free Energy           =   +3.88 kcal/mol
DOCKED: USER    (4) Unbound System's Energy  [=(2)] =   -3.10 kcal/mol
DOCKED: USER    
DOCKED: USER    
DOCKED: USER    NEWDPF move heme_opt.pdbqt
DOCKED: USER    NEWDPF about 0.153000 0.018000 -0.028000
DOCKED: USER    NEWDPF tran0 16.226408 -0.451532 3.302592
DOCKED: USER    NEWDPF quaternion0 -0.651117 0.313636 -0.313211 -0.616099
DOCKED: USER    NEWDPF axisangle0 -0.826638 0.398183 -0.397643 -103.936337
DOCKED: USER    NEWDPF quat0 -0.826638 0.398183 -0.397643 -103.936337
DOCKED: USER    NEWDPF dihe0 -158.07 97.50 -68.75 13.34 48.25 -147.26 130.74 110.93 163.86 -53.71 -51.60 -107.22 4.39 
DOCKED: USER  keepresnum = 1 
DOCKED: USER  
DOCKED: REMARK  13 active torsions:
DOCKED: REMARK  status: ('A' for Active; 'I' for Inactive)
DOCKED: REMARK    1  A    between atoms: O_3  and  C_38 
DOCKED: REMARK    2  A    between atoms: O_4  and  C_40 
DOCKED: REMARK    3  A    between atoms: O_7  and  C_46 
DOCKED: REMARK    4  A    between atoms: O_9  and  C_48 
DOCKED: REMARK    5  A    between atoms: C_15  and  C_20 
DOCKED: REMARK    6  A    between atoms: C_16  and  C_23 
DOCKED: REMARK    7  A    between atoms: C_20  and  C_38 
DOCKED: REMARK    8  A    between atoms: C_23  and  C_40 
DOCKED: REMARK    9  A    between atoms: C_32  and  C_41 
DOCKED: REMARK   10  A    between atoms: C_37  and  C_45 
DOCKED: REMARK   11  A    between atoms: C_41  and  C_44 
DOCKED: REMARK   12  A    between atoms: C_44  and  C_46 
DOCKED: REMARK   13  A    between atoms: C_47  and  C_48 
DOCKED: USER                              x       y       z     vdW  Elec       q    Type
DOCKED: USER                           _______ _______ _______ _____ _____    ______ ____
DOCKED: ROOT
DOCKED: ATOM      1  O   UNL d   1      13.297   4.324   1.467 +0.10 +0.00    -0.289 OA
DOCKED: ATOM      2  O   UNL d   1      13.468   0.916   8.156 -0.13 -0.05    -0.289 OA
DOCKED: ATOM      3  N   UNL d   1      15.082   1.430   2.044 -0.10 -0.00    -0.247 NA
DOCKED: ATOM      4  N   UNL d   1      14.798   1.025   4.974 -0.14 -0.01    -0.247 NA
DOCKED: ATOM      5  N   UNL d   1      16.912  -0.918   4.817 -0.09 +0.01    -0.354 N 
DOCKED: ATOM      6  N   UNL d   1      17.213  -0.477   1.781 -0.04 +0.01    -0.354 N 
DOCKED: ATOM      7  C   UNL d   1      14.866   2.982   0.159 -0.13 +0.00    +0.084 A 
DOCKED: ATOM      8  C   UNL d   1      12.818   1.974   6.047 -0.27 +0.02    +0.084 A 
DOCKED: ATOM      9  C   UNL d   1      13.681   1.809   4.791 -0.25 +0.00    +0.058 A 
DOCKED: ATOM     10  C   UNL d   1      15.494   1.717   0.753 -0.14 -0.00    +0.058 A 
DOCKED: ATOM     11  C   UNL d   1      14.013   3.348   1.335 -0.06 +0.00    +0.193 A 
DOCKED: ATOM     12  C   UNL d   1      14.212   2.317   2.403 -0.18 +0.00    +0.109 A 
DOCKED: ATOM     13  C   UNL d   1      13.673   1.169   6.985 -0.14 +0.03    +0.193 A 
DOCKED: ATOM     14  C   UNL d   1      15.902   4.087  -0.064 -0.05 +0.00    +0.026 C 
DOCKED: ATOM     15  C   UNL d   1      13.397   2.419   3.630 -0.24 +0.00    +0.055 C 
DOCKED: ATOM     16  C   UNL d   1      11.461   1.280   5.899 -0.39 +0.00    +0.026 C 
DOCKED: ATOM     17  C   UNL d   1      14.844   0.656   6.213 -0.19 +0.01    +0.109 A 
DOCKED: ATOM     18  C   UNL d   1      16.303   0.925   0.025 -0.19 -0.00    +0.050 C 
DOCKED: ATOM     19  C   UNL d   1      16.861  -0.304   0.461 -0.17 -0.00    +0.045 A 
DOCKED: ATOM     20  C   UNL d   1      16.798  -0.804   6.178 -0.18 +0.00    +0.045 A 
DOCKED: ATOM     21  C   UNL d   1      15.883  -0.136   6.889 -0.19 +0.01    +0.057 C 
DOCKED: ATOM     22  C   UNL d   1      18.610  -2.108   5.696 -0.09 -0.00    -0.019 A 
DOCKED: ATOM     23  C   UNL d   1      17.977  -1.687   4.430 -0.14 -0.00    +0.045 A 
DOCKED: ATOM     24  C   UNL d   1      17.906  -1.583   6.727 -0.11 +0.00    -0.022 A 
DOCKED: ATOM     25  C   UNL d   1      17.814  -1.701   1.963 -0.18 -0.00    +0.049 A 
DOCKED: ATOM     26  C   UNL d   1      17.208  -1.458  -0.223 -0.28 +0.00    -0.018 A 
DOCKED: ATOM     27  C   UNL d   1      17.792  -2.345   0.734 -0.30 -0.00    +0.003 A 
DOCKED: ATOM     28  C   UNL d   1      18.405  -2.044   3.210 -0.18 -0.00    +0.052 C 
DOCKED: ATOM     29  C   UNL d   1      18.144  -1.733   8.191 -0.08 +0.00    +0.046 C 
DOCKED: ATOM     30  C   UNL d   1      17.009  -1.725  -1.677 -0.38 -0.02    +0.046 C 
DOCKED: ATOM     31  H   UNL d   1      16.212  -0.527   4.195 +0.06 -0.01    +0.166 HD
DOCKED: ATOM     32  H   UNL d   1      17.077   0.229   2.494 +0.05 -0.00    +0.166 HD
DOCKED: ENDROOT
DOCKED: BRANCH   7  33
DOCKED: ATOM     33  C   UNL d   1      14.001   2.762  -1.086 -0.19 +0.00    +0.141 C 
DOCKED: BRANCH  33  34
DOCKED: ATOM     34  C   UNL d   1      14.038   3.933  -2.031 -0.08 +0.02    +0.306 C 
DOCKED: ATOM     35  O   UNL d   1      14.675   4.002  -3.068 -0.30 -0.03    -0.251 OA
DOCKED: BRANCH  34  36
DOCKED: ATOM     36  O   UNL d   1      13.267   4.955  -1.620 -0.02 -0.01    -0.481 OA
DOCKED: ATOM     37  H   UNL d   1      13.131   4.793  -0.662 +0.04 -0.00    +0.295 HD
DOCKED: ENDBRANCH  34  36
DOCKED: ENDBRANCH  33  34
DOCKED: ENDBRANCH   7  33
DOCKED: BRANCH  27  38
DOCKED: ATOM     38  C   UNL d   1      18.305  -3.650   0.444 -0.40 -0.00    +0.017 C 
DOCKED: ATOM     39  C   UNL d   1      19.603  -3.990   0.449 -0.31 -0.01    +0.092 C 
DOCKED: BRANCH  39  40
DOCKED: ATOM     40  C   UNL d   1      19.997  -5.369   0.152 -0.21 -0.04    +0.330 C 
DOCKED: ATOM     41  O   UNL d   1      20.961  -5.976   0.578 -0.18 -0.02    -0.246 OA
DOCKED: BRANCH  40  42
DOCKED: ATOM     42  O   UNL d   1      19.115  -5.930  -0.691 -0.32 +0.14    -0.477 OA
DOCKED: ATOM     43  H   UNL d   1      18.388  -6.227  -0.106 -0.39 -0.17    +0.295 HD
DOCKED: ENDBRANCH  40  42
DOCKED: ENDBRANCH  39  40
DOCKED: ENDBRANCH  27  38
DOCKED: BRANCH   8  44
DOCKED: ATOM     44  C   UNL d   1      12.654   3.412   6.551 -0.16 +0.05    +0.141 C 
DOCKED: BRANCH  44  45
DOCKED: ATOM     45  C   UNL d   1      13.501   3.719   7.756 -0.05 +0.10    +0.306 C 
DOCKED: ATOM     46  O   UNL d   1      14.658   4.102   7.753 -0.01 -0.04    -0.251 OA
DOCKED: BRANCH  45  47
DOCKED: ATOM     47  O   UNL d   1      12.849   3.501   8.913 -0.38 -0.34    -0.481 OA
DOCKED: ATOM     48  H   UNL d   1      13.291   2.716   9.302 +0.06 +0.15    +0.295 HD
DOCKED: ENDBRANCH  45  47
DOCKED: ENDBRANCH  44  45
DOCKED: ENDBRANCH   8  44
DOCKED: BRANCH  22  49
DOCKED: ATOM     49  C   UNL d   1      19.840  -2.963   5.779 -0.08 +0.00    +0.048 C 
DOCKED: BRANCH  49  50
DOCKED: ATOM     50  C   UNL d   1      19.520  -4.442   5.561 -0.14 +0.02    +0.125 C 
DOCKED: BRANCH  50  51
DOCKED: ATOM     51  C   UNL d   1      20.425  -5.038   4.520 -0.15 +0.07    +0.305 C 
DOCKED: ATOM     52  O   UNL d   1      21.374  -5.781   4.698 -0.16 -0.10    -0.251 OA
DOCKED: BRANCH  51  53
DOCKED: ATOM     53  O   UNL d   1      20.086  -4.649   3.275 -0.11 -0.06    -0.481 OA
DOCKED: ATOM     54  H   UNL d   1      20.592  -5.252   2.691 +0.09 +0.04    +0.295 HD
DOCKED: ENDBRANCH  51  53
DOCKED: ENDBRANCH  50  51
DOCKED: ENDBRANCH  49  50
DOCKED: ENDBRANCH  22  49
DOCKED: TORSDOF 13
DOCKED: TER
DOCKED: ENDMDL
________________________________________________________________________________


	BEGINNING GENETIC ALGORITHM DOCKING 30 of 100
Run: 30 Seed: 368659232 1138607288 [ Run 30 of 100 GA/GALS ]
Beginning LAMARCKIAN GENETIC ALGORITHM (LGA), with a maximum of 25000000 energy evaluations.

Final-Value: -11.455


	FINAL GENETIC ALGORITHM DOCKED STATE
	_______________________________________________


Detailed state:  trans -2.199 16.838 10.229 quatxyzw 0.447601 -0.309882 -0.685459 0.483500 center 0.153 0.018 -0.028 ntor 13 -98.2030 136.5363 -153.9698 130.4755 32.2522 71.8861 -32.8096 16.7066 135.8570 14.5352 -81.2503 -63.4529 -30.7606
State:	 -2.199  16.838  10.229   0.511 -0.354 -0.783 122.171    -98.20  136.54 -153.97  130.48   32.25   71.89  -32.81   16.71  135.86   14.54  -81.25  -63.45  -30.76

DOCKED: MODEL       30
DOCKED: USER    Run = 30
DOCKED: USER    DPF = D:/Protein_go_brrr/autodock/final/mut_D99N/heme/dock.dpf
DOCKED: USER  
DOCKED: USER    Estimated Free Energy of Binding    =   -4.82 kcal/mol  [=(1)+(2)+(3)-(4)]
DOCKED: USER    Estimated Inhibition Constant, Ki   =  292.78 uM (micromolar)  [Temperature = 298.15 K]
DOCKED: USER    
DOCKED: USER    (1) Final Intermolecular Energy     =   -8.70 kcal/mol
DOCKED: USER        vdW + Hbond + desolv Energy     =   -8.27 kcal/mol
DOCKED: USER        Electrostatic Energy            =   -0.43 kcal/mol
DOCKED: USER    (2) Final Total Internal Energy     =   -2.76 kcal/mol
DOCKED: USER    (3) Torsional Free Energy           =   +3.88 kcal/mol
DOCKED: USER    (4) Unbound System's Energy  [=(2)] =   -2.76 kcal/mol
DOCKED: USER    
DOCKED: USER    
DOCKED: USER    NEWDPF move heme_opt.pdbqt
DOCKED: USER    NEWDPF about 0.153000 0.018000 -0.028000
DOCKED: USER    NEWDPF tran0 -2.199191 16.838119 10.228657
DOCKED: USER    NEWDPF quaternion0 0.447601 -0.309882 -0.685459 0.483500
DOCKED: USER    NEWDPF axisangle0 0.511343 -0.354012 -0.783073 122.171472
DOCKED: USER    NEWDPF quat0 0.511343 -0.354012 -0.783073 122.171472
DOCKED: USER    NEWDPF dihe0 -98.20 136.54 -153.97 130.48 32.25 71.89 -32.81 16.71 135.86 14.54 -81.25 -63.45 -30.76 
DOCKED: USER  keepresnum = 1 
DOCKED: USER  
DOCKED: REMARK  13 active torsions:
DOCKED: REMARK  status: ('A' for Active; 'I' for Inactive)
DOCKED: REMARK    1  A    between atoms: O_3  and  C_38 
DOCKED: REMARK    2  A    between atoms: O_4  and  C_40 
DOCKED: REMARK    3  A    between atoms: O_7  and  C_46 
DOCKED: REMARK    4  A    between atoms: O_9  and  C_48 
DOCKED: REMARK    5  A    between atoms: C_15  and  C_20 
DOCKED: REMARK    6  A    between atoms: C_16  and  C_23 
DOCKED: REMARK    7  A    between atoms: C_20  and  C_38 
DOCKED: REMARK    8  A    between atoms: C_23  and  C_40 
DOCKED: REMARK    9  A    between atoms: C_32  and  C_41 
DOCKED: REMARK   10  A    between atoms: C_37  and  C_45 
DOCKED: REMARK   11  A    between atoms: C_41  and  C_44 
DOCKED: REMARK   12  A    between atoms: C_44  and  C_46 
DOCKED: REMARK   13  A    between atoms: C_47  and  C_48 
DOCKED: USER                              x       y       z     vdW  Elec       q    Type
DOCKED: USER                           _______ _______ _______ _____ _____    ______ ____
DOCKED: ROOT
DOCKED: ATOM      1  O   UNL d   1      -3.251  14.656  15.603 -0.05 +0.04    -0.289 OA
DOCKED: ATOM      2  O   UNL d   1       3.203  16.109  12.051 -0.07 +0.02    -0.289 OA
DOCKED: ATOM      3  N   UNL d   1      -3.126  15.822  12.360 -0.10 +0.06    -0.247 NA
DOCKED: ATOM      4  N   UNL d   1      -0.236  16.375  11.944 -0.10 +0.02    -0.247 NA
DOCKED: ATOM      5  N   UNL d   1      -0.951  17.833   9.572 -0.10 -0.01    -0.354 N 
DOCKED: ATOM      6  N   UNL d   1      -3.948  17.271  10.021 -0.04 +0.02    -0.354 N 
DOCKED: ATOM      7  C   UNL d   1      -4.919  15.393  13.975 -0.11 -0.02    +0.084 A 
DOCKED: ATOM      8  C   UNL d   1       1.352  15.098  13.293 -0.20 -0.01    +0.084 A 
DOCKED: ATOM      9  C   UNL d   1      -0.100  15.467  12.970 -0.23 -0.01    +0.058 A 
DOCKED: ATOM     10  C   UNL d   1      -4.492  15.867  12.583 -0.12 -0.01    +0.058 A 
DOCKED: ATOM     11  C   UNL d   1      -3.554  15.053  14.493 -0.18 -0.05    +0.193 A 
DOCKED: ATOM     12  C   UNL d   1      -2.555  15.332  13.412 -0.19 -0.03    +0.109 A 
DOCKED: ATOM     13  C   UNL d   1       2.016  15.993  12.285 -0.09 -0.01    +0.193 A 
DOCKED: ATOM     14  C   UNL d   1      -5.499  16.532  14.817 -0.05 -0.00    +0.026 C 
DOCKED: ATOM     15  C   UNL d   1      -1.142  14.984  13.664 -0.33 -0.02    +0.055 C 
DOCKED: ATOM     16  C   UNL d   1       1.660  13.640  12.935 -0.44 -0.00    +0.026 C 
DOCKED: ATOM     17  C   UNL d   1       0.944  16.718  11.538 -0.07 -0.00    +0.109 A 
DOCKED: ATOM     18  C   UNL d   1      -5.398  16.207  11.647 -0.13 -0.01    +0.050 C 
DOCKED: ATOM     19  C   UNL d   1      -5.101  16.577  10.310 -0.15 -0.00    +0.045 A 
DOCKED: ATOM     20  C   UNL d   1       0.373  18.176   9.669 -0.13 +0.00    +0.045 A 
DOCKED: ATOM     21  C   UNL d   1       1.301  17.705  10.508 -0.08 +0.00    +0.057 C 
DOCKED: ATOM     22  C   UNL d   1      -0.586  19.401   7.997 -0.13 -0.00    -0.019 A 
DOCKED: ATOM     23  C   UNL d   1      -1.613  18.521   8.590 -0.18 +0.00    +0.045 A 
DOCKED: ATOM     24  C   UNL d   1       0.587  19.191   8.639 -0.12 -0.00    -0.022 A 
DOCKED: ATOM     25  C   UNL d   1      -3.906  17.603   8.687 -0.19 +0.00    +0.049 A 
DOCKED: ATOM     26  C   UNL d   1      -5.808  16.421   9.128 -0.25 +0.00    -0.018 A 
DOCKED: ATOM     27  C   UNL d   1      -5.039  17.054   8.103 -0.29 +0.00    +0.003 A 
DOCKED: ATOM     28  C   UNL d   1      -2.889  18.456   8.180 -0.19 +0.00    +0.052 C 
DOCKED: ATOM     29  C   UNL d   1       1.911  19.831   8.394 -0.08 +0.00    +0.046 C 
DOCKED: ATOM     30  C   UNL d   1      -7.116  15.726   8.958 -0.19 -0.01    +0.046 C 
DOCKED: ATOM     31  H   UNL d   1      -1.343  17.084  10.132 +0.05 -0.00    +0.166 HD
DOCKED: ATOM     32  H   UNL d   1      -3.259  17.528  10.718 +0.04 -0.01    +0.166 HD
DOCKED: ENDROOT
DOCKED: BRANCH   7  33
DOCKED: ATOM     33  C   UNL d   1      -5.826  14.158  13.998 -0.20 -0.03    +0.141 C 
DOCKED: BRANCH  33  34
DOCKED: ATOM     34  C   UNL d   1      -6.276  13.796  15.388 -0.15 -0.07    +0.306 C 
DOCKED: ATOM     35  O   UNL d   1      -7.248  14.247  15.970 -0.06 +0.05    -0.251 OA
DOCKED: BRANCH  34  36
DOCKED: ATOM     36  O   UNL d   1      -5.478  12.883  15.970 -0.76 +0.11    -0.481 OA
DOCKED: ATOM     37  H   UNL d   1      -4.702  13.396  16.281 +0.11 -0.09    +0.295 HD
DOCKED: ENDBRANCH  34  36
DOCKED: ENDBRANCH  33  34
DOCKED: ENDBRANCH   7  33
DOCKED: BRANCH  27  38
DOCKED: ATOM     38  C   UNL d   1      -5.415  17.140   6.724 -0.37 +0.00    +0.017 C 
DOCKED: ATOM     39  C   UNL d   1      -5.025  18.102   5.873 -0.26 +0.02    +0.092 C 
DOCKED: BRANCH  39  40
DOCKED: ATOM     40  C   UNL d   1      -5.468  18.065   4.477 -0.14 +0.19    +0.330 C 
DOCKED: ATOM     41  O   UNL d   1      -6.589  18.256   4.047 -0.65 -0.24    -0.246 OA
DOCKED: BRANCH  40  42
DOCKED: ATOM     42  O   UNL d   1      -4.431  17.789   3.671 -0.16 -0.30    -0.477 OA
DOCKED: ATOM     43  H   UNL d   1      -3.706  18.347   4.021 +0.11 +0.13    +0.295 HD
DOCKED: ENDBRANCH  40  42
DOCKED: ENDBRANCH  39  40
DOCKED: ENDBRANCH  27  38
DOCKED: BRANCH   8  44
DOCKED: ATOM     44  C   UNL d   1       1.818  15.430  14.714 -0.11 -0.04    +0.141 C 
DOCKED: BRANCH  44  45
DOCKED: ATOM     45  C   UNL d   1       1.212  16.698  15.256 -0.06 -0.06    +0.306 C 
DOCKED: ATOM     46  O   UNL d   1       1.537  17.838  14.973 -0.02 +0.03    -0.251 OA
DOCKED: BRANCH  45  47
DOCKED: ATOM     47  O   UNL d   1       0.240  16.460  16.155 -0.07 +0.12    -0.481 OA
DOCKED: ATOM     48  H   UNL d   1       0.451  15.574  16.520 -0.51 -0.17    +0.295 HD
DOCKED: ENDBRANCH  45  47
DOCKED: ENDBRANCH  44  45
DOCKED: ENDBRANCH   8  44
DOCKED: BRANCH  22  49
DOCKED: ATOM     49  C   UNL d   1      -0.849  20.367   6.878 -0.08 +0.00    +0.048 C 
DOCKED: BRANCH  49  50
DOCKED: ATOM     50  C   UNL d   1      -0.099  19.979   5.604 -0.13 +0.01    +0.125 C 
DOCKED: BRANCH  50  51
DOCKED: ATOM     51  C   UNL d   1      -1.008  19.266   4.643 -0.09 +0.05    +0.305 C 
DOCKED: ATOM     52  O   UNL d   1      -2.219  19.153   4.710 -0.13 -0.06    -0.251 OA
DOCKED: BRANCH  51  53
DOCKED: ATOM     53  O   UNL d   1      -0.326  18.706   3.625 -0.12 -0.09    -0.481 OA
DOCKED: ATOM     54  H   UNL d   1       0.246  19.430   3.294 +0.08 +0.04    +0.295 HD
DOCKED: ENDBRANCH  51  53
DOCKED: ENDBRANCH  50  51
DOCKED: ENDBRANCH  49  50
DOCKED: ENDBRANCH  22  49
DOCKED: TORSDOF 13
DOCKED: TER
DOCKED: ENDMDL
________________________________________________________________________________


	BEGINNING GENETIC ALGORITHM DOCKING 31 of 100
Run: 31 Seed: 916963299 1976170222 [ Run 31 of 100 GA/GALS ]
Beginning LAMARCKIAN GENETIC ALGORITHM (LGA), with a maximum of 25000000 energy evaluations.

Final-Value: -12.342


	FINAL GENETIC ALGORITHM DOCKED STATE
	_______________________________________________


Detailed state:  trans 13.671 -9.038 8.997 quatxyzw 0.063897 0.927623 0.293233 0.222365 center 0.153 0.018 -0.028 ntor 13 123.8014 -88.0539 161.8347 -157.5139 -132.1522 -133.5150 145.0773 57.9233 27.7666 35.1054 47.1031 -22.5456 -11.6258
State:	 13.671  -9.038   8.997   0.066  0.951  0.301 154.304    123.80  -88.05  161.83 -157.51 -132.15 -133.52  145.08   57.92   27.77   35.11   47.10  -22.55  -11.63

DOCKED: MODEL       31
DOCKED: USER    Run = 31
DOCKED: USER    DPF = D:/Protein_go_brrr/autodock/final/mut_D99N/heme/dock.dpf
DOCKED: USER  
DOCKED: USER    Estimated Free Energy of Binding    =   -6.56 kcal/mol  [=(1)+(2)+(3)-(4)]
DOCKED: USER    Estimated Inhibition Constant, Ki   =   15.46 uM (micromolar)  [Temperature = 298.15 K]
DOCKED: USER    
DOCKED: USER    (1) Final Intermolecular Energy     =  -10.44 kcal/mol
DOCKED: USER        vdW + Hbond + desolv Energy     =   -9.31 kcal/mol
DOCKED: USER        Electrostatic Energy            =   -1.13 kcal/mol
DOCKED: USER    (2) Final Total Internal Energy     =   -1.90 kcal/mol
DOCKED: USER    (3) Torsional Free Energy           =   +3.88 kcal/mol
DOCKED: USER    (4) Unbound System's Energy  [=(2)] =   -1.90 kcal/mol
DOCKED: USER    
DOCKED: USER    
DOCKED: USER    NEWDPF move heme_opt.pdbqt
DOCKED: USER    NEWDPF about 0.153000 0.018000 -0.028000
DOCKED: USER    NEWDPF tran0 13.671422 -9.038434 8.997340
DOCKED: USER    NEWDPF quaternion0 0.063897 0.927623 0.293233 0.222365
DOCKED: USER    NEWDPF axisangle0 0.065538 0.951444 0.300763 154.304023
DOCKED: USER    NEWDPF quat0 0.065538 0.951444 0.300763 154.304023
DOCKED: USER    NEWDPF dihe0 123.80 -88.05 161.83 -157.51 -132.15 -133.52 145.08 57.92 27.77 35.11 47.10 -22.55 -11.63 
DOCKED: USER  keepresnum = 1 
DOCKED: USER  
DOCKED: REMARK  13 active torsions:
DOCKED: REMARK  status: ('A' for Active; 'I' for Inactive)
DOCKED: REMARK    1  A    between atoms: O_3  and  C_38 
DOCKED: REMARK    2  A    between atoms: O_4  and  C_40 
DOCKED: REMARK    3  A    between atoms: O_7  and  C_46 
DOCKED: REMARK    4  A    between atoms: O_9  and  C_48 
DOCKED: REMARK    5  A    between atoms: C_15  and  C_20 
DOCKED: REMARK    6  A    between atoms: C_16  and  C_23 
DOCKED: REMARK    7  A    between atoms: C_20  and  C_38 
DOCKED: REMARK    8  A    between atoms: C_23  and  C_40 
DOCKED: REMARK    9  A    between atoms: C_32  and  C_41 
DOCKED: REMARK   10  A    between atoms: C_37  and  C_45 
DOCKED: REMARK   11  A    between atoms: C_41  and  C_44 
DOCKED: REMARK   12  A    between atoms: C_44  and  C_46 
DOCKED: REMARK   13  A    between atoms: C_47  and  C_48 
DOCKED: USER                              x       y       z     vdW  Elec       q    Type
DOCKED: USER                           _______ _______ _______ _____ _____    ______ ____
DOCKED: ROOT
DOCKED: ATOM      1  O   UNL d   1      18.859  -7.216   6.871 -0.16 -0.05    -0.289 OA
DOCKED: ATOM      2  O   UNL d   1      15.430 -13.884   6.454 -0.06 +0.15    -0.289 OA
DOCKED: ATOM      3  N   UNL d   1      15.841  -7.864   8.410 -0.14 +0.07    -0.247 NA
DOCKED: ATOM      4  N   UNL d   1      15.155 -10.590   7.448 -0.11 +0.09    -0.247 NA
DOCKED: ATOM      5  N   UNL d   1      12.492 -10.173   8.447 -0.03 +0.16    -0.354 N 
DOCKED: ATOM      6  N   UNL d   1      13.207  -7.338   9.425 -0.15 +0.15    -0.354 N 
DOCKED: ATOM      7  C   UNL d   1      17.228  -5.868   8.094 -0.16 -0.01    +0.084 A 
DOCKED: ATOM      8  C   UNL d   1      17.007 -12.042   6.789 -0.08 -0.02    +0.084 A 
DOCKED: ATOM      9  C   UNL d   1      16.515 -10.664   7.244 -0.14 -0.01    +0.058 A 
DOCKED: ATOM     10  C   UNL d   1      15.952  -6.505   8.653 -0.20 -0.02    +0.058 A 
DOCKED: ATOM     11  C   UNL d   1      17.827  -7.111   7.508 -0.12 -0.00    +0.193 A 
DOCKED: ATOM     12  C   UNL d   1      16.905  -8.257   7.787 -0.18 -0.01    +0.109 A 
DOCKED: ATOM     13  C   UNL d   1      15.670 -12.726   6.735 -0.06 -0.08    +0.193 A 
DOCKED: ATOM     14  C   UNL d   1      16.929  -4.881   6.962 -0.26 -0.00    +0.026 C 
DOCKED: ATOM     15  C   UNL d   1      17.334  -9.610   7.382 -0.17 -0.01    +0.055 C 
DOCKED: ATOM     16  C   UNL d   1      17.865 -12.722   7.860 -0.03 -0.00    +0.026 C 
DOCKED: ATOM     17  C   UNL d   1      14.631 -11.736   7.150 -0.13 -0.04    +0.109 A 
DOCKED: ATOM     18  C   UNL d   1      15.078  -5.797   9.391 -0.17 -0.02    +0.050 C 
DOCKED: ATOM     19  C   UNL d   1      13.918  -6.319  10.018 -0.26 -0.02    +0.045 A 
DOCKED: ATOM     20  C   UNL d   1      12.301 -11.335   7.746 -0.18 -0.02    +0.045 A 
DOCKED: ATOM     21  C   UNL d   1      13.210 -12.114   7.152 -0.19 -0.02    +0.057 C 
DOCKED: ATOM     22  C   UNL d   1      10.275 -10.567   8.470 -0.24 +0.01    -0.019 A 
DOCKED: ATOM     23  C   UNL d   1      11.326  -9.635   8.923 -0.23 -0.02    +0.045 A 
DOCKED: ATOM     24  C   UNL d   1      10.858 -11.572   7.775 -0.20 +0.01    -0.022 A 
DOCKED: ATOM     25  C   UNL d   1      12.076  -7.626  10.153 -0.25 -0.02    +0.049 A 
DOCKED: ATOM     26  C   UNL d   1      13.252  -5.961  11.180 -0.19 +0.01    -0.018 A 
DOCKED: ATOM     27  C   UNL d   1      12.101  -6.803  11.271 -0.19 -0.00    +0.003 A 
DOCKED: ATOM     28  C   UNL d   1      11.102  -8.535   9.658 -0.25 -0.02    +0.052 C 
DOCKED: ATOM     29  C   UNL d   1      10.219 -12.755   7.130 -0.23 -0.01    +0.046 C 
DOCKED: ATOM     30  C   UNL d   1      13.660  -4.904  12.150 -0.13 -0.01    +0.046 C 
DOCKED: ATOM     31  H   UNL d   1      13.424  -9.823   8.642 -0.14 -0.08    +0.166 HD
DOCKED: ATOM     32  H   UNL d   1      13.475  -7.773   8.550 -0.38 -0.10    +0.166 HD
DOCKED: ENDROOT
DOCKED: BRANCH   7  33
DOCKED: ATOM     33  C   UNL d   1      18.169  -5.257   9.138 -0.05 -0.01    +0.141 C 
DOCKED: BRANCH  33  34
DOCKED: ATOM     34  C   UNL d   1      18.943  -6.299   9.899 +0.00 +0.00    +0.306 C 
DOCKED: ATOM     35  O   UNL d   1      18.519  -6.987  10.813 -0.00 +0.00    -0.251 OA
DOCKED: BRANCH  34  36
DOCKED: ATOM     36  O   UNL d   1      20.211  -6.422   9.468 +0.01 -0.04    -0.481 OA
DOCKED: ATOM     37  H   UNL d   1      20.127  -6.658   8.520 +0.04 +0.04    +0.295 HD
DOCKED: ENDBRANCH  34  36
DOCKED: ENDBRANCH  33  34
DOCKED: ENDBRANCH   7  33
DOCKED: BRANCH  27  38
DOCKED: ATOM     38  C   UNL d   1      11.125  -6.756  12.317 -0.15 -0.01    +0.017 C 
DOCKED: ATOM     39  C   UNL d   1      10.201  -7.699  12.558 -0.13 -0.08    +0.092 C 
DOCKED: BRANCH  39  40
DOCKED: ATOM     40  C   UNL d   1       9.268  -7.539  13.676 +0.08 -0.37    +0.330 C 
DOCKED: ATOM     41  O   UNL d   1       8.933  -8.377  14.491 -0.06 +0.21    -0.246 OA
DOCKED: BRANCH  40  42
DOCKED: ATOM     42  O   UNL d   1       8.799  -6.282  13.709 +0.00 +0.58    -0.477 OA
DOCKED: ATOM     43  H   UNL d   1       7.980  -6.322  13.174 -0.49 -0.74    +0.295 HD
DOCKED: ENDBRANCH  40  42
DOCKED: ENDBRANCH  39  40
DOCKED: ENDBRANCH  27  38
DOCKED: BRANCH   8  44
DOCKED: ATOM     44  C   UNL d   1      17.697 -12.078   5.421 -0.18 -0.05    +0.141 C 
DOCKED: BRANCH  44  45
DOCKED: ATOM     45  C   UNL d   1      17.470 -10.832   4.608 -0.26 -0.10    +0.306 C 
DOCKED: ATOM     46  O   UNL d   1      18.249  -9.906   4.464 -0.59 -0.02    -0.251 OA
DOCKED: BRANCH  45  47
DOCKED: ATOM     47  O   UNL d   1      16.252 -10.805   4.036 +0.09 +0.39    -0.481 OA
DOCKED: ATOM     48  H   UNL d   1      15.952 -11.738   4.048 -0.39 -0.50    +0.295 HD
DOCKED: ENDBRANCH  45  47
DOCKED: ENDBRANCH  44  45
DOCKED: ENDBRANCH   8  44
DOCKED: BRANCH  22  49
DOCKED: ATOM     49  C   UNL d   1       8.811 -10.384   8.744 -0.31 -0.02    +0.048 C 
DOCKED: BRANCH  49  50
DOCKED: ATOM     50  C   UNL d   1       8.363 -11.154   9.985 -0.17 -0.08    +0.125 C 
DOCKED: BRANCH  50  51
DOCKED: ATOM     51  C   UNL d   1       7.113 -11.941   9.707 -0.13 -0.16    +0.305 C 
DOCKED: ATOM     52  O   UNL d   1       6.914 -12.719   8.791 -0.18 +0.07    -0.251 OA
DOCKED: BRANCH  51  53
DOCKED: ATOM     53  O   UNL d   1       6.148 -11.692  10.615 -0.59 +0.34    -0.481 OA
DOCKED: ATOM     54  H   UNL d   1       6.391 -10.818  10.987 -0.48 -0.61    +0.295 HD
DOCKED: ENDBRANCH  51  53
DOCKED: ENDBRANCH  50  51
DOCKED: ENDBRANCH  49  50
DOCKED: ENDBRANCH  22  49
DOCKED: TORSDOF 13
DOCKED: TER
DOCKED: ENDMDL
________________________________________________________________________________


	BEGINNING GENETIC ALGORITHM DOCKING 32 of 100
Run: 32 Seed: 1085888116 555894459 [ Run 32 of 100 GA/GALS ]
Beginning LAMARCKIAN GENETIC ALGORITHM (LGA), with a maximum of 25000000 energy evaluations.

Final-Value: -11.235


	FINAL GENETIC ALGORITHM DOCKED STATE
	_______________________________________________


Detailed state:  trans -11.600 -6.392 4.055 quatxyzw -0.349826 0.432885 -0.319683 0.766835 center 0.153 0.018 -0.028 ntor 13 140.5672 -179.2143 177.8530 24.7083 -139.3981 -68.3450 141.8308 -168.7056 11.6550 -16.3990 70.1069 -19.9643 124.0323
State:	-11.600  -6.392   4.055  -0.545  0.674 -0.498 79.859    140.57 -179.21  177.85   24.71 -139.40  -68.34  141.83 -168.71   11.65  -16.40   70.11  -19.96  124.03

DOCKED: MODEL       32
DOCKED: USER    Run = 32
DOCKED: USER    DPF = D:/Protein_go_brrr/autodock/final/mut_D99N/heme/dock.dpf
DOCKED: USER  
DOCKED: USER    Estimated Free Energy of Binding    =   -3.00 kcal/mol  [=(1)+(2)+(3)-(4)]
DOCKED: USER    Estimated Inhibition Constant, Ki   =    6.28 mM (millimolar)  [Temperature = 298.15 K]
DOCKED: USER    
DOCKED: USER    (1) Final Intermolecular Energy     =   -6.88 kcal/mol
DOCKED: USER        vdW + Hbond + desolv Energy     =   -6.40 kcal/mol
DOCKED: USER        Electrostatic Energy            =   -0.49 kcal/mol
DOCKED: USER    (2) Final Total Internal Energy     =   -4.35 kcal/mol
DOCKED: USER    (3) Torsional Free Energy           =   +3.88 kcal/mol
DOCKED: USER    (4) Unbound System's Energy  [=(2)] =   -4.35 kcal/mol
DOCKED: USER    
DOCKED: USER    
DOCKED: USER    NEWDPF move heme_opt.pdbqt
DOCKED: USER    NEWDPF about 0.153000 0.018000 -0.028000
DOCKED: USER    NEWDPF tran0 -11.599922 -6.392362 4.055096
DOCKED: USER    NEWDPF quaternion0 -0.349826 0.432885 -0.319683 0.766835
DOCKED: USER    NEWDPF axisangle0 -0.545032 0.674439 -0.498069 79.859014
DOCKED: USER    NEWDPF quat0 -0.545032 0.674439 -0.498069 79.859014
DOCKED: USER    NEWDPF dihe0 140.57 -179.21 177.85 24.71 -139.40 -68.34 141.83 -168.71 11.65 -16.40 70.11 -19.96 124.03 
DOCKED: USER  keepresnum = 1 
DOCKED: USER  
DOCKED: REMARK  13 active torsions:
DOCKED: REMARK  status: ('A' for Active; 'I' for Inactive)
DOCKED: REMARK    1  A    between atoms: O_3  and  C_38 
DOCKED: REMARK    2  A    between atoms: O_4  and  C_40 
DOCKED: REMARK    3  A    between atoms: O_7  and  C_46 
DOCKED: REMARK    4  A    between atoms: O_9  and  C_48 
DOCKED: REMARK    5  A    between atoms: C_15  and  C_20 
DOCKED: REMARK    6  A    between atoms: C_16  and  C_23 
DOCKED: REMARK    7  A    between atoms: C_20  and  C_38 
DOCKED: REMARK    8  A    between atoms: C_23  and  C_40 
DOCKED: REMARK    9  A    between atoms: C_32  and  C_41 
DOCKED: REMARK   10  A    between atoms: C_37  and  C_45 
DOCKED: REMARK   11  A    between atoms: C_41  and  C_44 
DOCKED: REMARK   12  A    between atoms: C_44  and  C_46 
DOCKED: REMARK   13  A    between atoms: C_47  and  C_48 
DOCKED: USER                              x       y       z     vdW  Elec       q    Type
DOCKED: USER                           _______ _______ _______ _____ _____    ______ ____
DOCKED: ROOT
DOCKED: ATOM      1  O   UNL d   1     -15.586  -7.041  -0.240 -0.00 -0.03    -0.289 OA
DOCKED: ATOM      2  O   UNL d   1      -8.179  -8.276  -0.163 -0.16 +0.23    -0.289 OA
DOCKED: ATOM      3  N   UNL d   1     -13.611  -6.380   2.509 -0.06 -0.14    -0.247 NA
DOCKED: ATOM      4  N   UNL d   1     -10.955  -7.449   1.714 -0.08 -0.03    -0.247 NA
DOCKED: ATOM      5  N   UNL d   1     -10.145  -7.227   4.464 -0.08 -0.11    -0.354 N 
DOCKED: ATOM      6  N   UNL d   1     -12.910  -6.137   5.284 -0.08 -0.24    -0.354 N 
DOCKED: ATOM      7  C   UNL d   1     -16.020  -6.335   2.060 -0.01 +0.03    +0.084 A 
DOCKED: ATOM      8  C   UNL d   1     -10.460  -7.551  -0.676 -0.15 -0.03    +0.084 A 
DOCKED: ATOM      9  C   UNL d   1     -11.463  -7.270   0.447 -0.09 +0.00    +0.058 A 
DOCKED: ATOM     10  C   UNL d   1     -14.864  -6.138   3.046 -0.06 +0.03    +0.058 A 
DOCKED: ATOM     11  C   UNL d   1     -15.196  -6.714   0.866 -0.01 +0.04    +0.193 A 
DOCKED: ATOM     12  C   UNL d   1     -13.751  -6.680   1.259 -0.05 +0.03    +0.109 A 
DOCKED: ATOM     13  C   UNL d   1      -9.300  -7.958   0.187 -0.20 -0.09    +0.193 A 
DOCKED: ATOM     14  C   UNL d   1     -16.908  -7.521   2.445 -0.00 +0.00    +0.026 C 
DOCKED: ATOM     15  C   UNL d   1     -12.740  -6.930   0.213 -0.07 +0.01    +0.055 C 
DOCKED: ATOM     16  C   UNL d   1     -10.085  -6.274  -1.435 -0.25 -0.01    +0.026 C 
DOCKED: ATOM     17  C   UNL d   1      -9.732  -7.861   1.614 -0.19 -0.01    +0.109 A 
DOCKED: ATOM     18  C   UNL d   1     -15.075  -5.680   4.294 -0.08 +0.03    +0.050 C 
DOCKED: ATOM     19  C   UNL d   1     -14.064  -5.387   5.244 -0.07 +0.04    +0.045 A 
DOCKED: ATOM     20  C   UNL d   1      -9.084  -7.935   3.963 -0.25 +0.01    +0.045 A 
DOCKED: ATOM     21  C   UNL d   1      -8.808  -8.244   2.692 -0.31 -0.00    +0.057 C 
DOCKED: ATOM     22  C   UNL d   1      -8.880  -7.808   6.235 -0.30 -0.00    -0.019 A 
DOCKED: ATOM     23  C   UNL d   1     -10.109  -7.098   5.827 -0.18 +0.01    +0.045 A 
DOCKED: ATOM     24  C   UNL d   1      -8.277  -8.300   5.127 -0.32 -0.00    -0.022 A 
DOCKED: ATOM     25  C   UNL d   1     -12.113  -5.742   6.333 -0.11 +0.03    +0.049 A 
DOCKED: ATOM     26  C   UNL d   1     -13.999  -4.459   6.272 -0.07 -0.02    -0.018 A 
DOCKED: ATOM     27  C   UNL d   1     -12.757  -4.674   6.944 -0.13 +0.00    +0.003 A 
DOCKED: ATOM     28  C   UNL d   1     -10.941  -6.471   6.673 -0.20 +0.02    +0.052 C 
DOCKED: ATOM     29  C   UNL d   1      -7.008  -9.076   5.022 -0.38 +0.01    +0.046 C 
DOCKED: ATOM     30  C   UNL d   1     -15.026  -3.431   6.609 -0.06 +0.04    +0.046 C 
DOCKED: ATOM     31  H   UNL d   1     -10.823  -6.790   3.850 +0.03 +0.07    +0.166 HD
DOCKED: ATOM     32  H   UNL d   1     -12.713  -6.897   4.643 +0.02 +0.08    +0.166 HD
DOCKED: ENDROOT
DOCKED: BRANCH   7  33
DOCKED: ATOM     33  C   UNL d   1     -16.852  -5.082   1.764 -0.01 +0.05    +0.141 C 
DOCKED: BRANCH  33  34
DOCKED: ATOM     34  C   UNL d   1     -16.029  -3.964   1.184 -0.04 +0.16    +0.306 C 
DOCKED: ATOM     35  O   UNL d   1     -15.385  -3.142   1.814 -0.58 -0.29    -0.251 OA
DOCKED: BRANCH  34  36
DOCKED: ATOM     36  O   UNL d   1     -16.057  -3.942  -0.160 +0.00 -0.15    -0.481 OA
DOCKED: ATOM     37  H   UNL d   1     -15.980  -4.884  -0.424 +0.04 +0.07    +0.295 HD
DOCKED: ENDBRANCH  34  36
DOCKED: ENDBRANCH  33  34
DOCKED: ENDBRANCH   7  33
DOCKED: BRANCH  27  38
DOCKED: ATOM     38  C   UNL d   1     -12.295  -3.937   8.081 -0.15 +0.01    +0.017 C 
DOCKED: ATOM     39  C   UNL d   1     -11.027  -3.906   8.521 -0.25 +0.03    +0.092 C 
DOCKED: BRANCH  39  40
DOCKED: ATOM     40  C   UNL d   1     -10.681  -3.095   9.691 -0.13 +0.09    +0.330 C 
DOCKED: ATOM     41  O   UNL d   1     -10.643  -1.882   9.770 -0.24 -0.07    -0.246 OA
DOCKED: BRANCH  40  42
DOCKED: ATOM     42  O   UNL d   1     -10.400  -3.889  10.736 +0.04 -0.12    -0.477 OA
DOCKED: ATOM     43  H   UNL d   1     -10.506  -4.794  10.378 +0.10 +0.07    +0.295 HD
DOCKED: ENDBRANCH  40  42
DOCKED: ENDBRANCH  39  40
DOCKED: ENDBRANCH  27  38
DOCKED: BRANCH   8  44
DOCKED: ATOM     44  C   UNL d   1     -10.848  -8.675  -1.642 -0.06 -0.11    +0.141 C 
DOCKED: BRANCH  44  45
DOCKED: ATOM     45  C   UNL d   1     -10.881 -10.032  -0.991 -0.05 -0.21    +0.306 C 
DOCKED: ATOM     46  O   UNL d   1     -11.866 -10.612  -0.567 -0.02 +0.08    -0.251 OA
DOCKED: BRANCH  45  47
DOCKED: ATOM     47  O   UNL d   1      -9.657 -10.581  -0.882 -0.03 +0.58    -0.481 OA
DOCKED: ATOM     48  H   UNL d   1      -9.058  -9.939  -1.319 -0.49 -0.74    +0.295 HD
DOCKED: ENDBRANCH  45  47
DOCKED: ENDBRANCH  44  45
DOCKED: ENDBRANCH   8  44
DOCKED: BRANCH  22  49
DOCKED: ATOM     49  C   UNL d   1      -8.421  -7.950   7.656 -0.24 +0.02    +0.048 C 
DOCKED: BRANCH  49  50
DOCKED: ATOM     50  C   UNL d   1      -9.587  -8.233   8.604 -0.14 +0.04    +0.125 C 
DOCKED: BRANCH  50  51
DOCKED: ATOM     51  C   UNL d   1      -9.871  -7.042   9.475 -0.10 +0.07    +0.305 C 
DOCKED: ATOM     52  O   UNL d   1     -10.672  -6.964  10.389 -0.05 -0.05    -0.251 OA
DOCKED: BRANCH  51  53
DOCKED: ATOM     53  O   UNL d   1      -9.119  -5.976   9.133 -0.12 -0.08    -0.481 OA
DOCKED: ATOM     54  H   UNL d   1      -9.080  -5.440   9.952 +0.09 +0.06    +0.295 HD
DOCKED: ENDBRANCH  51  53
DOCKED: ENDBRANCH  50  51
DOCKED: ENDBRANCH  49  50
DOCKED: ENDBRANCH  22  49
DOCKED: TORSDOF 13
DOCKED: TER
DOCKED: ENDMDL
________________________________________________________________________________


	BEGINNING GENETIC ALGORITHM DOCKING 33 of 100
Run: 33 Seed: 1472504972 449979952 [ Run 33 of 100 GA/GALS ]
Beginning LAMARCKIAN GENETIC ALGORITHM (LGA), with a maximum of 25000000 energy evaluations.

Final-Value: -9.637


	FINAL GENETIC ALGORITHM DOCKED STATE
	_______________________________________________


Detailed state:  trans 9.575 2.893 -11.892 quatxyzw -0.504812 0.774542 0.203554 -0.322203 center 0.153 0.018 -0.028 ntor 13 -108.2431 140.6854 116.9862 85.5608 70.6203 98.9668 -44.3633 106.3477 12.5276 -136.1707 -37.7509 13.8240 -135.6335
State:	  9.575   2.893 -11.892  -0.533  0.818  0.215 -142.408   -108.24  140.69  116.99   85.56   70.62   98.97  -44.36  106.35   12.53 -136.17  -37.75   13.82 -135.63

DOCKED: MODEL       33
DOCKED: USER    Run = 33
DOCKED: USER    DPF = D:/Protein_go_brrr/autodock/final/mut_D99N/heme/dock.dpf
DOCKED: USER  
DOCKED: USER    Estimated Free Energy of Binding    =   -3.75 kcal/mol  [=(1)+(2)+(3)-(4)]
DOCKED: USER    Estimated Inhibition Constant, Ki   =    1.78 mM (millimolar)  [Temperature = 298.15 K]
DOCKED: USER    
DOCKED: USER    (1) Final Intermolecular Energy     =   -7.63 kcal/mol
DOCKED: USER        vdW + Hbond + desolv Energy     =   -7.32 kcal/mol
DOCKED: USER        Electrostatic Energy            =   -0.31 kcal/mol
DOCKED: USER    (2) Final Total Internal Energy     =   -2.01 kcal/mol
DOCKED: USER    (3) Torsional Free Energy           =   +3.88 kcal/mol
DOCKED: USER    (4) Unbound System's Energy  [=(2)] =   -2.01 kcal/mol
DOCKED: USER    
DOCKED: USER    
DOCKED: USER    NEWDPF move heme_opt.pdbqt
DOCKED: USER    NEWDPF about 0.153000 0.018000 -0.028000
DOCKED: USER    NEWDPF tran0 9.574929 2.892854 -11.891606
DOCKED: USER    NEWDPF quaternion0 -0.504812 0.774542 0.203554 -0.322203
DOCKED: USER    NEWDPF axisangle0 -0.533250 0.818175 0.215021 -142.407569
DOCKED: USER    NEWDPF quat0 -0.533250 0.818175 0.215021 -142.407569
DOCKED: USER    NEWDPF dihe0 -108.24 140.69 116.99 85.56 70.62 98.97 -44.36 106.35 12.53 -136.17 -37.75 13.82 -135.63 
DOCKED: USER  keepresnum = 1 
DOCKED: USER  
DOCKED: REMARK  13 active torsions:
DOCKED: REMARK  status: ('A' for Active; 'I' for Inactive)
DOCKED: REMARK    1  A    between atoms: O_3  and  C_38 
DOCKED: REMARK    2  A    between atoms: O_4  and  C_40 
DOCKED: REMARK    3  A    between atoms: O_7  and  C_46 
DOCKED: REMARK    4  A    between atoms: O_9  and  C_48 
DOCKED: REMARK    5  A    between atoms: C_15  and  C_20 
DOCKED: REMARK    6  A    between atoms: C_16  and  C_23 
DOCKED: REMARK    7  A    between atoms: C_20  and  C_38 
DOCKED: REMARK    8  A    between atoms: C_23  and  C_40 
DOCKED: REMARK    9  A    between atoms: C_32  and  C_41 
DOCKED: REMARK   10  A    between atoms: C_37  and  C_45 
DOCKED: REMARK   11  A    between atoms: C_41  and  C_44 
DOCKED: REMARK   12  A    between atoms: C_44  and  C_46 
DOCKED: REMARK   13  A    between atoms: C_47  and  C_48 
DOCKED: USER                              x       y       z     vdW  Elec       q    Type
DOCKED: USER                           _______ _______ _______ _____ _____    ______ ____
DOCKED: ROOT
DOCKED: ATOM      1  O   UNL d   1       9.809   7.648  -8.415 -0.02 -0.06    -0.289 OA
DOCKED: ATOM      2  O   UNL d   1      14.288   1.636  -8.851 -0.13 -0.02    -0.289 OA
DOCKED: ATOM      3  N   UNL d   1       9.190   5.008 -10.546 -0.07 -0.04    -0.247 NA
DOCKED: ATOM      4  N   UNL d   1      11.603   3.302 -10.239 -0.08 -0.04    -0.247 NA
DOCKED: ATOM      5  N   UNL d   1      10.777   1.870 -12.591 -0.07 -0.06    -0.354 N 
DOCKED: ATOM      6  N   UNL d   1       8.286   3.657 -12.913 -0.02 -0.05    -0.354 N 
DOCKED: ATOM      7  C   UNL d   1       8.176   7.209 -10.180 -0.05 +0.02    +0.084 A 
DOCKED: ATOM      8  C   UNL d   1      12.819   3.455  -8.125 -0.15 +0.01    +0.084 A 
DOCKED: ATOM      9  C   UNL d   1      11.696   3.963  -9.035 -0.05 +0.01    +0.058 A 
DOCKED: ATOM     10  C   UNL d   1       8.199   5.886 -10.951 -0.07 +0.01    +0.058 A 
DOCKED: ATOM     11  C   UNL d   1       9.319   6.916  -9.255 -0.05 +0.04    +0.193 A 
DOCKED: ATOM     12  C   UNL d   1       9.831   5.542  -9.558 -0.09 +0.02    +0.109 A 
DOCKED: ATOM     13  C   UNL d   1      13.371   2.408  -9.051 -0.13 +0.02    +0.193 A 
DOCKED: ATOM     14  C   UNL d   1       8.551   8.398 -11.068 -0.02 +0.00    +0.026 C 
DOCKED: ATOM     15  C   UNL d   1      10.906   4.996  -8.704 -0.11 +0.01    +0.055 C 
DOCKED: ATOM     16  C   UNL d   1      12.268   2.764  -6.874 -0.22 +0.00    +0.026 C 
DOCKED: ATOM     17  C   UNL d   1      12.551   2.422 -10.300 -0.14 +0.01    +0.109 A 
DOCKED: ATOM     18  C   UNL d   1       7.264   5.595 -11.875 -0.08 +0.01    +0.050 C 
DOCKED: ATOM     19  C   UNL d   1       7.155   4.367 -12.576 -0.09 +0.01    +0.045 A 
DOCKED: ATOM     20  C   UNL d   1      12.033   1.348 -12.427 -0.17 +0.01    +0.045 A 
DOCKED: ATOM     21  C   UNL d   1      12.888   1.524 -11.415 -0.19 +0.01    +0.057 C 
DOCKED: ATOM     22  C   UNL d   1      11.174   0.597 -14.406 -0.13 -0.01    -0.019 A 
DOCKED: ATOM     23  C   UNL d   1      10.179   1.474 -13.758 -0.15 +0.01    +0.045 A 
DOCKED: ATOM     24  C   UNL d   1      12.269   0.526 -13.613 -0.16 -0.00    -0.022 A 
DOCKED: ATOM     25  C   UNL d   1       7.956   2.552 -13.664 -0.14 +0.01    +0.049 A 
DOCKED: ATOM     26  C   UNL d   1       6.062   3.687 -13.089 -0.11 -0.00    -0.018 A 
DOCKED: ATOM     27  C   UNL d   1       6.572   2.532 -13.758 -0.18 +0.00    +0.003 A 
DOCKED: ATOM     28  C   UNL d   1       8.966   1.750 -14.261 -0.16 +0.01    +0.052 C 
DOCKED: ATOM     29  C   UNL d   1      13.530  -0.241 -13.830 -0.14 +0.01    +0.046 C 
DOCKED: ATOM     30  C   UNL d   1       4.629   4.083 -12.965 +0.08 +0.01    +0.046 C 
DOCKED: ATOM     31  H   UNL d   1      10.338   2.423 -11.863 +0.06 +0.03    +0.166 HD
DOCKED: ATOM     32  H   UNL d   1       9.224   3.948 -12.668 +0.04 +0.02    +0.166 HD
DOCKED: ENDROOT
DOCKED: BRANCH   7  33
DOCKED: ATOM     33  C   UNL d   1       6.896   7.484  -9.383 -0.14 +0.06    +0.141 C 
DOCKED: BRANCH  33  34
DOCKED: ATOM     34  C   UNL d   1       6.628   6.436  -8.338 -0.20 +0.15    +0.306 C 
DOCKED: ATOM     35  O   UNL d   1       6.459   6.633  -7.146 -0.96 -0.18    -0.251 OA
DOCKED: BRANCH  34  36
DOCKED: ATOM     36  O   UNL d   1       6.585   5.192  -8.849 -0.51 -0.18    -0.481 OA
DOCKED: ATOM     37  H   UNL d   1       7.510   5.002  -9.114 +0.12 +0.10    +0.295 HD
DOCKED: ENDBRANCH  34  36
DOCKED: ENDBRANCH  33  34
DOCKED: ENDBRANCH   7  33
DOCKED: BRANCH  27  38
DOCKED: ATOM     38  C   UNL d   1       5.778   1.558 -14.444 -0.25 +0.00    +0.017 C 
DOCKED: ATOM     39  C   UNL d   1       5.854   0.230 -14.264 -0.27 +0.02    +0.092 C 
DOCKED: BRANCH  39  40
DOCKED: ATOM     40  C   UNL d   1       4.969  -0.661 -15.019 -0.29 +0.10    +0.330 C 
DOCKED: ATOM     41  O   UNL d   1       5.221  -1.262 -16.046 -0.76 -0.10    -0.246 OA
DOCKED: BRANCH  40  42
DOCKED: ATOM     42  O   UNL d   1       3.777  -0.754 -14.410 -0.26 -0.14    -0.477 OA
DOCKED: ATOM     43  H   UNL d   1       4.003  -0.783 -13.457 -0.19 +0.02    +0.295 HD
DOCKED: ENDBRANCH  40  42
DOCKED: ENDBRANCH  39  40
DOCKED: ENDBRANCH  27  38
DOCKED: BRANCH   8  44
DOCKED: ATOM     44  C   UNL d   1      13.892   4.487  -7.761 -0.06 +0.01    +0.141 C 
DOCKED: BRANCH  44  45
DOCKED: ATOM     45  C   UNL d   1      14.892   3.976  -6.758 -0.05 +0.01    +0.306 C 
DOCKED: ATOM     46  O   UNL d   1      14.799   4.036  -5.544 -0.07 -0.01    -0.251 OA
DOCKED: BRANCH  45  47
DOCKED: ATOM     47  O   UNL d   1      15.977   3.437  -7.342 -0.00 -0.01    -0.481 OA
DOCKED: ATOM     48  H   UNL d   1      15.635   2.660  -7.833 +0.07 +0.01    +0.295 HD
DOCKED: ENDBRANCH  45  47
DOCKED: ENDBRANCH  44  45
DOCKED: ENDBRANCH   8  44
DOCKED: BRANCH  22  49
DOCKED: ATOM     49  C   UNL d   1      10.971  -0.071 -15.735 +0.07 +0.02    +0.048 C 
DOCKED: BRANCH  49  50
DOCKED: ATOM     50  C   UNL d   1      12.249  -0.071 -16.573 -0.07 +0.04    +0.125 C 
DOCKED: BRANCH  50  51
DOCKED: ATOM     51  C   UNL d   1      12.379  -1.348 -17.353 -0.04 +0.15    +0.305 C 
DOCKED: ATOM     52  O   UNL d   1      12.115  -1.532 -18.528 -0.05 -0.09    -0.251 OA
DOCKED: BRANCH  51  53
DOCKED: ATOM     53  O   UNL d   1      12.836  -2.361 -16.589 -0.48 -0.39    -0.481 OA
DOCKED: ATOM     54  H   UNL d   1      13.804  -2.359 -16.746 +0.04 +0.10    +0.295 HD
DOCKED: ENDBRANCH  51  53
DOCKED: ENDBRANCH  50  51
DOCKED: ENDBRANCH  49  50
DOCKED: ENDBRANCH  22  49
DOCKED: TORSDOF 13
DOCKED: TER
DOCKED: ENDMDL
________________________________________________________________________________


	BEGINNING GENETIC ALGORITHM DOCKING 34 of 100
Run: 34 Seed: 615020714 1140133772 [ Run 34 of 100 GA/GALS ]
Beginning LAMARCKIAN GENETIC ALGORITHM (LGA), with a maximum of 25000000 energy evaluations.

Final-Value: -13.006


	FINAL GENETIC ALGORITHM DOCKED STATE
	_______________________________________________


Detailed state:  trans 14.319 -8.157 8.348 quatxyzw 0.203228 -0.337589 0.918167 0.041243 center 0.153 0.018 -0.028 ntor 13 -91.0039 68.7367 112.2375 120.7793 -179.4179 139.6624 -44.9491 89.4098 -152.0199 -128.5376 103.7822 67.6700 -6.4522
State:	 14.319  -8.157   8.348   0.203 -0.338  0.919 175.273    -91.00   68.74  112.24  120.78 -179.42  139.66  -44.95   89.41 -152.02 -128.54  103.78   67.67   -6.45

DOCKED: MODEL       34
DOCKED: USER    Run = 34
DOCKED: USER    DPF = D:/Protein_go_brrr/autodock/final/mut_D99N/heme/dock.dpf
DOCKED: USER  
DOCKED: USER    Estimated Free Energy of Binding    =   -7.46 kcal/mol  [=(1)+(2)+(3)-(4)]
DOCKED: USER    Estimated Inhibition Constant, Ki   =    3.40 uM (micromolar)  [Temperature = 298.15 K]
DOCKED: USER    
DOCKED: USER    (1) Final Intermolecular Energy     =  -11.34 kcal/mol
DOCKED: USER        vdW + Hbond + desolv Energy     =  -10.33 kcal/mol
DOCKED: USER        Electrostatic Energy            =   -1.01 kcal/mol
DOCKED: USER    (2) Final Total Internal Energy     =   -1.67 kcal/mol
DOCKED: USER    (3) Torsional Free Energy           =   +3.88 kcal/mol
DOCKED: USER    (4) Unbound System's Energy  [=(2)] =   -1.67 kcal/mol
DOCKED: USER    
DOCKED: USER    
DOCKED: USER    NEWDPF move heme_opt.pdbqt
DOCKED: USER    NEWDPF about 0.153000 0.018000 -0.028000
DOCKED: USER    NEWDPF tran0 14.318890 -8.156970 8.348279
DOCKED: USER    NEWDPF quaternion0 0.203228 -0.337589 0.918167 0.041243
DOCKED: USER    NEWDPF axisangle0 0.203401 -0.337876 0.918949 175.272604
DOCKED: USER    NEWDPF quat0 0.203401 -0.337876 0.918949 175.272604
DOCKED: USER    NEWDPF dihe0 -91.00 68.74 112.24 120.78 -179.42 139.66 -44.95 89.41 -152.02 -128.54 103.78 67.67 -6.45 
DOCKED: USER  keepresnum = 1 
DOCKED: USER  
DOCKED: REMARK  13 active torsions:
DOCKED: REMARK  status: ('A' for Active; 'I' for Inactive)
DOCKED: REMARK    1  A    between atoms: O_3  and  C_38 
DOCKED: REMARK    2  A    between atoms: O_4  and  C_40 
DOCKED: REMARK    3  A    between atoms: O_7  and  C_46 
DOCKED: REMARK    4  A    between atoms: O_9  and  C_48 
DOCKED: REMARK    5  A    between atoms: C_15  and  C_20 
DOCKED: REMARK    6  A    between atoms: C_16  and  C_23 
DOCKED: REMARK    7  A    between atoms: C_20  and  C_38 
DOCKED: REMARK    8  A    between atoms: C_23  and  C_40 
DOCKED: REMARK    9  A    between atoms: C_32  and  C_41 
DOCKED: REMARK   10  A    between atoms: C_37  and  C_45 
DOCKED: REMARK   11  A    between atoms: C_41  and  C_44 
DOCKED: REMARK   12  A    between atoms: C_44  and  C_46 
DOCKED: REMARK   13  A    between atoms: C_47  and  C_48 
DOCKED: USER                              x       y       z     vdW  Elec       q    Type
DOCKED: USER                           _______ _______ _______ _____ _____    ______ ____
DOCKED: ROOT
DOCKED: ATOM      1  O   UNL d   1      19.603  -8.651   5.782 -0.77 -0.13    -0.289 OA
DOCKED: ATOM      2  O   UNL d   1      16.412  -2.914   9.427 -0.16 +0.03    -0.289 OA
DOCKED: ATOM      3  N   UNL d   1      16.386  -8.781   7.017 -0.20 +0.06    -0.247 NA
DOCKED: ATOM      4  N   UNL d   1      16.129  -6.232   8.523 -0.14 +0.08    -0.247 NA
DOCKED: ATOM      5  N   UNL d   1      13.741  -7.290   9.724 -0.12 +0.13    -0.354 N 
DOCKED: ATOM      6  N   UNL d   1      14.025  -9.938   8.173 +0.11 +0.17    -0.354 N 
DOCKED: ATOM      7  C   UNL d   1      17.899 -10.394   5.962 -0.24 -0.01    +0.084 A 
DOCKED: ATOM      8  C   UNL d   1      17.542  -4.368   7.815 -0.16 -0.01    +0.084 A 
DOCKED: ATOM      9  C   UNL d   1      17.149  -5.843   7.683 -0.21 -0.01    +0.058 A 
DOCKED: ATOM     10  C   UNL d   1      16.537 -10.090   6.593 -0.24 -0.01    +0.058 A 
DOCKED: ATOM     11  C   UNL d   1      18.484  -9.019   6.086 -0.21 +0.03    +0.193 A 
DOCKED: ATOM     12  C   UNL d   1      17.460  -8.127   6.717 -0.23 -0.00    +0.109 A 
DOCKED: ATOM     13  C   UNL d   1      16.582  -4.001   8.911 -0.15 -0.04    +0.193 A 
DOCKED: ATOM     14  C   UNL d   1      18.724 -11.362   6.814 -0.10 +0.00    +0.026 C 
DOCKED: ATOM     15  C   UNL d   1      17.781  -6.692   6.858 -0.05 +0.00    +0.055 C 
DOCKED: ATOM     16  C   UNL d   1      17.183  -3.570   6.558 -0.32 -0.00    +0.026 C 
DOCKED: ATOM     17  C   UNL d   1      15.789  -5.220   9.255 -0.08 -0.04    +0.109 A 
DOCKED: ATOM     18  C   UNL d   1      15.560 -11.015   6.636 -0.26 -0.02    +0.050 C 
DOCKED: ATOM     19  C   UNL d   1      14.245 -10.801   7.123 -0.15 -0.02    +0.045 A 
DOCKED: ATOM     20  C   UNL d   1      13.911  -6.166  10.490 -0.22 -0.01    +0.045 A 
DOCKED: ATOM     21  C   UNL d   1      14.792  -5.172  10.334 -0.23 -0.02    +0.057 C 
DOCKED: ATOM     22  C   UNL d   1      12.207  -7.406  11.370 -0.13 +0.01    -0.019 A 
DOCKED: ATOM     23  C   UNL d   1      12.734  -8.100  10.178 -0.19 -0.02    +0.045 A 
DOCKED: ATOM     24  C   UNL d   1      12.907  -6.261  11.548 -0.15 +0.01    -0.022 A 
DOCKED: ATOM     25  C   UNL d   1      12.699  -9.951   8.539 +0.08 -0.02    +0.049 A 
DOCKED: ATOM     26  C   UNL d   1      13.026 -11.359   6.773 -0.25 +0.01    -0.018 A 
DOCKED: ATOM     27  C   UNL d   1      12.050 -10.804   7.658 -0.22 -0.00    +0.003 A 
DOCKED: ATOM     28  C   UNL d   1      12.257  -9.260   9.700 -0.20 -0.02    +0.052 C 
DOCKED: ATOM     29  C   UNL d   1      12.740  -5.220  12.603 -0.12 -0.01    +0.046 C 
DOCKED: ATOM     30  C   UNL d   1      12.778 -12.347   5.683 -0.31 -0.02    +0.046 C 
DOCKED: ATOM     31  H   UNL d   1      14.271  -7.431   8.871 -0.01 -0.08    +0.166 HD
DOCKED: ATOM     32  H   UNL d   1      14.761  -9.409   8.626 -0.01 -0.06    +0.166 HD
DOCKED: ENDROOT
DOCKED: BRANCH   7  33
DOCKED: ATOM     33  C   UNL d   1      17.860 -10.831   4.493 -0.39 -0.03    +0.141 C 
DOCKED: BRANCH  33  34
DOCKED: ATOM     34  C   UNL d   1      18.079 -12.310   4.323 -0.12 -0.11    +0.306 C 
DOCKED: ATOM     35  O   UNL d   1      18.926 -12.836   3.620 -0.17 +0.04    -0.251 OA
DOCKED: BRANCH  34  36
DOCKED: ATOM     36  O   UNL d   1      17.222 -13.048   5.049 -0.03 +0.35    -0.481 OA
DOCKED: ATOM     37  H   UNL d   1      16.431 -13.142   4.476 -0.44 -0.58    +0.295 HD
DOCKED: ENDBRANCH  34  36
DOCKED: ENDBRANCH  33  34
DOCKED: ENDBRANCH   7  33
DOCKED: BRANCH  27  38
DOCKED: ATOM     38  C   UNL d   1      10.655 -11.125   7.653 -0.30 -0.01    +0.017 C 
DOCKED: ATOM     39  C   UNL d   1       9.762 -10.682   6.754 -0.42 -0.03    +0.092 C 
DOCKED: BRANCH  39  40
DOCKED: ATOM     40  C   UNL d   1       8.361 -11.100   6.851 -0.28 -0.10    +0.330 C 
DOCKED: ATOM     41  O   UNL d   1       7.368 -10.413   6.701 -1.04 +0.03    -0.246 OA
DOCKED: BRANCH  40  42
DOCKED: ATOM     42  O   UNL d   1       8.287 -12.410   7.132 -0.09 +0.18    -0.477 OA
DOCKED: ATOM     43  H   UNL d   1       7.924 -12.806   6.314 -0.39 -0.22    +0.295 HD
DOCKED: ENDBRANCH  40  42
DOCKED: ENDBRANCH  39  40
DOCKED: ENDBRANCH  27  38
DOCKED: BRANCH   8  44
DOCKED: ATOM     44  C   UNL d   1      18.990  -4.106   8.244 -0.05 +0.00    +0.141 C 
DOCKED: BRANCH  44  45
DOCKED: ATOM     45  C   UNL d   1      19.308  -2.643   8.399 -0.00 +0.00    +0.306 C 
DOCKED: ATOM     46  O   UNL d   1      19.718  -1.892   7.531 -0.01 -0.01    -0.251 OA
DOCKED: BRANCH  45  47
DOCKED: ATOM     47  O   UNL d   1      19.119  -2.206   9.657 +0.01 -0.00    -0.481 OA
DOCKED: ATOM     48  H   UNL d   1      18.147  -2.240   9.787 +0.04 -0.00    +0.295 HD
DOCKED: ENDBRANCH  45  47
DOCKED: ENDBRANCH  44  45
DOCKED: ENDBRANCH   8  44
DOCKED: BRANCH  22  49
DOCKED: ATOM     49  C   UNL d   1      11.088  -7.928  12.223 -0.11 -0.03    +0.048 C 
DOCKED: BRANCH  49  50
DOCKED: ATOM     50  C   UNL d   1       9.724  -7.445  11.731 -0.11 -0.14    +0.125 C 
DOCKED: BRANCH  50  51
DOCKED: ATOM     51  C   UNL d   1       9.503  -6.004  12.096 -0.05 -0.35    +0.305 C 
DOCKED: ATOM     52  O   UNL d   1       9.891  -5.018  11.495 -0.26 +0.22    -0.251 OA
DOCKED: BRANCH  51  53
DOCKED: ATOM     53  O   UNL d   1       8.794  -5.876  13.235 -0.01 +0.61    -0.481 OA
DOCKED: ATOM     54  H   UNL d   1       7.946  -6.329  13.041 -0.49 -0.82    +0.295 HD
DOCKED: ENDBRANCH  51  53
DOCKED: ENDBRANCH  50  51
DOCKED: ENDBRANCH  49  50
DOCKED: ENDBRANCH  22  49
DOCKED: TORSDOF 13
DOCKED: TER
DOCKED: ENDMDL
________________________________________________________________________________


	BEGINNING GENETIC ALGORITHM DOCKING 35 of 100
Run: 35 Seed: 273968257 545657940 [ Run 35 of 100 GA/GALS ]
Beginning LAMARCKIAN GENETIC ALGORITHM (LGA), with a maximum of 25000000 energy evaluations.

Final-Value: -12.182


	FINAL GENETIC ALGORITHM DOCKED STATE
	_______________________________________________


Detailed state:  trans -11.769 12.913 -11.792 quatxyzw -0.541263 -0.431014 -0.268484 -0.670207 center 0.153 0.018 -0.028 ntor 13 -100.2643 -179.9138 -128.4860 -24.6199 29.3161 42.7845 124.8264 -74.4688 98.6433 -18.7354 -79.6158 -84.3136 -5.2489
State:	-11.769  12.913 -11.792  -0.729 -0.581 -0.362 -95.834   -100.26 -179.91 -128.49  -24.62   29.32   42.78  124.83  -74.47   98.64  -18.74  -79.62  -84.31   -5.25

DOCKED: MODEL       35
DOCKED: USER    Run = 35
DOCKED: USER    DPF = D:/Protein_go_brrr/autodock/final/mut_D99N/heme/dock.dpf
DOCKED: USER  
DOCKED: USER    Estimated Free Energy of Binding    =   -3.83 kcal/mol  [=(1)+(2)+(3)-(4)]
DOCKED: USER    Estimated Inhibition Constant, Ki   =    1.57 mM (millimolar)  [Temperature = 298.15 K]
DOCKED: USER    
DOCKED: USER    (1) Final Intermolecular Energy     =   -7.70 kcal/mol
DOCKED: USER        vdW + Hbond + desolv Energy     =   -7.47 kcal/mol
DOCKED: USER        Electrostatic Energy            =   -0.23 kcal/mol
DOCKED: USER    (2) Final Total Internal Energy     =   -4.48 kcal/mol
DOCKED: USER    (3) Torsional Free Energy           =   +3.88 kcal/mol
DOCKED: USER    (4) Unbound System's Energy  [=(2)] =   -4.48 kcal/mol
DOCKED: USER    
DOCKED: USER    
DOCKED: USER    NEWDPF move heme_opt.pdbqt
DOCKED: USER    NEWDPF about 0.153000 0.018000 -0.028000
DOCKED: USER    NEWDPF tran0 -11.768866 12.913283 -11.791737
DOCKED: USER    NEWDPF quaternion0 -0.541263 -0.431014 -0.268484 -0.670207
DOCKED: USER    NEWDPF axisangle0 -0.729294 -0.580745 -0.361754 -95.833964
DOCKED: USER    NEWDPF quat0 -0.729294 -0.580745 -0.361754 -95.833964
DOCKED: USER    NEWDPF dihe0 -100.26 -179.91 -128.49 -24.62 29.32 42.78 124.83 -74.47 98.64 -18.74 -79.62 -84.31 -5.25 
DOCKED: USER  keepresnum = 1 
DOCKED: USER  
DOCKED: REMARK  13 active torsions:
DOCKED: REMARK  status: ('A' for Active; 'I' for Inactive)
DOCKED: REMARK    1  A    between atoms: O_3  and  C_38 
DOCKED: REMARK    2  A    between atoms: O_4  and  C_40 
DOCKED: REMARK    3  A    between atoms: O_7  and  C_46 
DOCKED: REMARK    4  A    between atoms: O_9  and  C_48 
DOCKED: REMARK    5  A    between atoms: C_15  and  C_20 
DOCKED: REMARK    6  A    between atoms: C_16  and  C_23 
DOCKED: REMARK    7  A    between atoms: C_20  and  C_38 
DOCKED: REMARK    8  A    between atoms: C_23  and  C_40 
DOCKED: REMARK    9  A    between atoms: C_32  and  C_41 
DOCKED: REMARK   10  A    between atoms: C_37  and  C_45 
DOCKED: REMARK   11  A    between atoms: C_41  and  C_44 
DOCKED: REMARK   12  A    between atoms: C_44  and  C_46 
DOCKED: REMARK   13  A    between atoms: C_47  and  C_48 
DOCKED: USER                              x       y       z     vdW  Elec       q    Type
DOCKED: USER                           _______ _______ _______ _____ _____    ______ ____
DOCKED: ROOT
DOCKED: ATOM      1  O   UNL d   1     -13.276  13.391 -17.471 -0.07 +0.22    -0.289 OA
DOCKED: ATOM      2  O   UNL d   1     -16.607   9.811 -11.772 -0.12 +0.23    -0.289 OA
DOCKED: ATOM      3  N   UNL d   1     -11.933  13.275 -14.297 -0.02 +0.17    -0.247 NA
DOCKED: ATOM      4  N   UNL d   1     -14.056  11.939 -12.704 -0.16 +0.14    -0.247 NA
DOCKED: ATOM      5  N   UNL d   1     -12.673  12.780 -10.328 -0.13 +0.10    -0.354 N 
DOCKED: ATOM      6  N   UNL d   1     -10.486  14.181 -11.987 -0.06 +0.10    -0.354 N 
DOCKED: ATOM      7  C   UNL d   1     -11.354  14.433 -16.378 -0.09 -0.03    +0.084 A 
DOCKED: ATOM      8  C   UNL d   1     -15.575  10.444 -13.899 -0.17 -0.06    +0.084 A 
DOCKED: ATOM      9  C   UNL d   1     -14.429  11.459 -13.940 -0.24 -0.04    +0.058 A 
DOCKED: ATOM     10  C   UNL d   1     -11.049  14.152 -14.904 -0.14 -0.02    +0.058 A 
DOCKED: ATOM     11  C   UNL d   1     -12.556  13.546 -16.502 -0.09 -0.14    +0.193 A 
DOCKED: ATOM     12  C   UNL d   1     -12.790  12.880 -15.181 -0.17 -0.09    +0.109 A 
DOCKED: ATOM     13  C   UNL d   1     -15.809  10.464 -12.415 -0.12 -0.13    +0.193 A 
DOCKED: ATOM     14  C   UNL d   1     -11.784  15.884 -16.610 -0.02 -0.01    +0.026 C 
DOCKED: ATOM     15  C   UNL d   1     -13.874  11.882 -15.087 -0.12 -0.06    +0.055 C 
DOCKED: ATOM     16  C   UNL d   1     -15.108   9.043 -14.306 -0.28 -0.03    +0.026 C 
DOCKED: ATOM     17  C   UNL d   1     -14.828  11.414 -11.808 -0.19 -0.06    +0.109 A 
DOCKED: ATOM     18  C   UNL d   1      -9.955  14.657 -14.304 -0.13 -0.01    +0.050 C 
DOCKED: ATOM     19  C   UNL d   1      -9.547  14.385 -12.973 -0.14 -0.01    +0.045 A 
DOCKED: ATOM     20  C   UNL d   1     -13.839  12.320  -9.772 -0.19 -0.02    +0.045 A 
DOCKED: ATOM     21  C   UNL d   1     -14.850  11.673 -10.361 -0.14 -0.03    +0.057 C 
DOCKED: ATOM     22  C   UNL d   1     -12.590  13.323  -8.143 -0.23 +0.00    -0.019 A 
DOCKED: ATOM     23  C   UNL d   1     -11.856  13.401  -9.422 -0.21 -0.01    +0.045 A 
DOCKED: ATOM     24  C   UNL d   1     -13.763  12.681  -8.357 -0.26 +0.01    -0.022 A 
DOCKED: ATOM     25  C   UNL d   1      -9.876  14.025 -10.764 -0.18 -0.01    +0.049 A 
DOCKED: ATOM     26  C   UNL d   1      -8.294  14.324 -12.383 -0.14 +0.00    -0.018 A 
DOCKED: ATOM     27  C   UNL d   1      -8.507  14.077 -10.991 -0.18 -0.00    +0.003 A 
DOCKED: ATOM     28  C   UNL d   1     -10.643  13.957  -9.570 -0.21 -0.01    +0.052 C 
DOCKED: ATOM     29  C   UNL d   1     -14.837  12.349  -7.378 -0.29 -0.01    +0.046 C 
DOCKED: ATOM     30  C   UNL d   1      -6.979  14.482 -13.067 -0.11 -0.00    +0.046 C 
DOCKED: ATOM     31  H   UNL d   1     -12.441  12.588 -11.296 -0.01 -0.07    +0.166 HD
DOCKED: ATOM     32  H   UNL d   1     -11.485  14.189 -12.154 +0.01 -0.05    +0.166 HD
DOCKED: ENDROOT
DOCKED: BRANCH   7  33
DOCKED: ATOM     33  C   UNL d   1     -10.266  14.004 -17.368 -0.11 -0.05    +0.141 C 
DOCKED: BRANCH  33  34
DOCKED: ATOM     34  C   UNL d   1     -10.829  13.537 -18.683 -0.05 -0.14    +0.306 C 
DOCKED: ATOM     35  O   UNL d   1     -11.155  14.247 -19.619 -0.01 +0.07    -0.251 OA
DOCKED: BRANCH  34  36
DOCKED: ATOM     36  O   UNL d   1     -10.950  12.200 -18.749 -0.06 +0.44    -0.481 OA
DOCKED: ATOM     37  H   UNL d   1     -11.751  11.998 -18.221 -0.53 -0.55    +0.295 HD
DOCKED: ENDBRANCH  34  36
DOCKED: ENDBRANCH  33  34
DOCKED: ENDBRANCH   7  33
DOCKED: BRANCH  27  38
DOCKED: ATOM     38  C   UNL d   1      -7.474  13.956 -10.007 -0.22 -0.00    +0.017 C 
DOCKED: ATOM     39  C   UNL d   1      -7.462  14.576  -8.817 -0.18 +0.00    +0.092 C 
DOCKED: BRANCH  39  40
DOCKED: ATOM     40  C   UNL d   1      -6.350  14.354  -7.889 -0.15 +0.01    +0.330 C 
DOCKED: ATOM     41  O   UNL d   1      -5.166  14.273  -8.154 -0.24 +0.01    -0.246 OA
DOCKED: BRANCH  40  42
DOCKED: ATOM     42  O   UNL d   1      -6.810  14.252  -6.633 -0.12 -0.07    -0.477 OA
DOCKED: ATOM     43  H   UNL d   1      -7.779  14.362  -6.728 +0.12 +0.03    +0.295 HD
DOCKED: ENDBRANCH  40  42
DOCKED: ENDBRANCH  39  40
DOCKED: ENDBRANCH  27  38
DOCKED: BRANCH   8  44
DOCKED: ATOM     44  C   UNL d   1     -16.843  10.848 -14.660 -0.04 -0.07    +0.141 C 
DOCKED: BRANCH  44  45
DOCKED: ATOM     45  C   UNL d   1     -17.572  12.003 -14.028 +0.01 -0.10    +0.306 C 
DOCKED: ATOM     46  O   UNL d   1     -17.298  13.185 -14.142 -0.00 +0.06    -0.251 OA
DOCKED: BRANCH  45  47
DOCKED: ATOM     47  O   UNL d   1     -18.599  11.604 -13.257 +0.01 +0.14    -0.481 OA
DOCKED: ATOM     48  H   UNL d   1     -18.215  10.923 -12.665 +0.04 -0.11    +0.295 HD
DOCKED: ENDBRANCH  45  47
DOCKED: ENDBRANCH  44  45
DOCKED: ENDBRANCH   8  44
DOCKED: BRANCH  22  49
DOCKED: ATOM     49  C   UNL d   1     -12.090  13.891  -6.848 -0.27 -0.00    +0.048 C 
DOCKED: BRANCH  49  50
DOCKED: ATOM     50  C   UNL d   1     -11.235  12.885  -6.078 -0.43 -0.01    +0.125 C 
DOCKED: BRANCH  50  51
DOCKED: ATOM     51  C   UNL d   1      -9.772  13.182  -6.249 -0.27 -0.00    +0.305 C 
DOCKED: ATOM     52  O   UNL d   1      -9.059  12.886  -7.191 -0.30 -0.01    -0.251 OA
DOCKED: BRANCH  51  53
DOCKED: ATOM     53  O   UNL d   1      -9.265  13.845  -5.190 -0.20 -0.02    -0.481 OA
DOCKED: ATOM     54  H   UNL d   1      -8.310  13.625  -5.206 +0.16 +0.06    +0.295 HD
DOCKED: ENDBRANCH  51  53
DOCKED: ENDBRANCH  50  51
DOCKED: ENDBRANCH  49  50
DOCKED: ENDBRANCH  22  49
DOCKED: TORSDOF 13
DOCKED: TER
DOCKED: ENDMDL
________________________________________________________________________________


	BEGINNING GENETIC ALGORITHM DOCKING 36 of 100
Run: 36 Seed: 183766579 1291931647 [ Run 36 of 100 GA/GALS ]
Beginning LAMARCKIAN GENETIC ALGORITHM (LGA), with a maximum of 25000000 energy evaluations.

Final-Value: -10.547


	FINAL GENETIC ALGORITHM DOCKED STATE
	_______________________________________________


Detailed state:  trans 1.118 17.721 1.102 quatxyzw -0.116084 -0.846960 -0.496011 -0.152172 center 0.153 0.018 -0.028 ntor 13 136.8515 55.6441 -52.0675 81.1227 -135.8658 -55.9592 -179.4614 108.0662 19.6490 -102.2264 -49.2895 -84.8422 -162.2470
State:	  1.118  17.721   1.102  -0.117 -0.857 -0.502 -162.494    136.85   55.64  -52.07   81.12 -135.87  -55.96 -179.46  108.07   19.65 -102.23  -49.29  -84.84 -162.25

DOCKED: MODEL       36
DOCKED: USER    Run = 36
DOCKED: USER    DPF = D:/Protein_go_brrr/autodock/final/mut_D99N/heme/dock.dpf
DOCKED: USER  
DOCKED: USER    Estimated Free Energy of Binding    =   -4.43 kcal/mol  [=(1)+(2)+(3)-(4)]
DOCKED: USER    Estimated Inhibition Constant, Ki   =  570.45 uM (micromolar)  [Temperature = 298.15 K]
DOCKED: USER    
DOCKED: USER    (1) Final Intermolecular Energy     =   -8.30 kcal/mol
DOCKED: USER        vdW + Hbond + desolv Energy     =   -7.93 kcal/mol
DOCKED: USER        Electrostatic Energy            =   -0.37 kcal/mol
DOCKED: USER    (2) Final Total Internal Energy     =   -2.24 kcal/mol
DOCKED: USER    (3) Torsional Free Energy           =   +3.88 kcal/mol
DOCKED: USER    (4) Unbound System's Energy  [=(2)] =   -2.24 kcal/mol
DOCKED: USER    
DOCKED: USER    
DOCKED: USER    NEWDPF move heme_opt.pdbqt
DOCKED: USER    NEWDPF about 0.153000 0.018000 -0.028000
DOCKED: USER    NEWDPF tran0 1.117775 17.720851 1.102216
DOCKED: USER    NEWDPF quaternion0 -0.116084 -0.846960 -0.496011 -0.152172
DOCKED: USER    NEWDPF axisangle0 -0.117451 -0.856940 -0.501856 -162.494368
DOCKED: USER    NEWDPF quat0 -0.117451 -0.856940 -0.501856 -162.494368
DOCKED: USER    NEWDPF dihe0 136.85 55.64 -52.07 81.12 -135.87 -55.96 -179.46 108.07 19.65 -102.23 -49.29 -84.84 -162.25 
DOCKED: USER  keepresnum = 1 
DOCKED: USER  
DOCKED: REMARK  13 active torsions:
DOCKED: REMARK  status: ('A' for Active; 'I' for Inactive)
DOCKED: REMARK    1  A    between atoms: O_3  and  C_38 
DOCKED: REMARK    2  A    between atoms: O_4  and  C_40 
DOCKED: REMARK    3  A    between atoms: O_7  and  C_46 
DOCKED: REMARK    4  A    between atoms: O_9  and  C_48 
DOCKED: REMARK    5  A    between atoms: C_15  and  C_20 
DOCKED: REMARK    6  A    between atoms: C_16  and  C_23 
DOCKED: REMARK    7  A    between atoms: C_20  and  C_38 
DOCKED: REMARK    8  A    between atoms: C_23  and  C_40 
DOCKED: REMARK    9  A    between atoms: C_32  and  C_41 
DOCKED: REMARK   10  A    between atoms: C_37  and  C_45 
DOCKED: REMARK   11  A    between atoms: C_41  and  C_44 
DOCKED: REMARK   12  A    between atoms: C_44  and  C_46 
DOCKED: REMARK   13  A    between atoms: C_47  and  C_48 
DOCKED: USER                              x       y       z     vdW  Elec       q    Type
DOCKED: USER                           _______ _______ _______ _____ _____    ______ ____
DOCKED: ROOT
DOCKED: ATOM      1  O   UNL d   1       6.812  18.844   0.070 -0.01 -0.01    -0.289 OA
DOCKED: ATOM      2  O   UNL d   1       2.121  13.886  -3.060 -0.23 +0.07    -0.289 OA
DOCKED: ATOM      3  N   UNL d   1       3.548  18.448   1.109 -0.12 -0.01    -0.247 NA
DOCKED: ATOM      4  N   UNL d   1       2.428  16.535  -0.870 -0.12 -0.01    -0.247 NA
DOCKED: ATOM      5  N   UNL d   1      -0.193  17.203   0.105 -0.12 -0.02    -0.354 N 
DOCKED: ATOM      6  N   UNL d   1       0.976  19.201   2.142 -0.12 -0.03    -0.354 N 
DOCKED: ATOM      7  C   UNL d   1       5.359  20.006   1.656 -0.03 +0.00    +0.084 A 
DOCKED: ATOM      8  C   UNL d   1       3.997  15.017  -1.968 -0.20 -0.00    +0.084 A 
DOCKED: ATOM      9  C   UNL d   1       3.755  16.205  -1.031 -0.16 +0.00    +0.058 A 
DOCKED: ATOM     10  C   UNL d   1       3.914  19.547   1.869 -0.10 +0.00    +0.058 A 
DOCKED: ATOM     11  C   UNL d   1       5.751  18.961   0.655 -0.03 +0.00    +0.193 A 
DOCKED: ATOM     12  C   UNL d   1       4.576  18.061   0.427 -0.11 +0.00    +0.109 A 
DOCKED: ATOM     13  C   UNL d   1       2.564  14.759  -2.339 -0.21 -0.01    +0.193 A 
DOCKED: ATOM     14  C   UNL d   1       5.433  21.382   0.989 -0.01 +0.00    +0.026 C 
DOCKED: ATOM     15  C   UNL d   1       4.755  16.893  -0.459 -0.16 +0.00    +0.055 C 
DOCKED: ATOM     16  C   UNL d   1       4.538  13.799  -1.214 -0.36 +0.00    +0.026 C 
DOCKED: ATOM     17  C   UNL d   1       1.715  15.751  -1.612 -0.15 -0.00    +0.109 A 
DOCKED: ATOM     18  C   UNL d   1       3.121  20.126   2.790 -0.10 +0.00    +0.050 C 
DOCKED: ATOM     19  C   UNL d   1       1.802  19.716   3.114 -0.15 +0.00    +0.045 A 
DOCKED: ATOM     20  C   UNL d   1      -0.533  16.470  -1.002 -0.23 +0.00    +0.045 A 
DOCKED: ATOM     21  C   UNL d   1       0.259  15.766  -1.816 -0.30 +0.00    +0.057 C 
DOCKED: ATOM     22  C   UNL d   1      -2.426  17.394  -0.118 -0.23 -0.01    -0.019 A 
DOCKED: ATOM     23  C   UNL d   1      -1.269  17.799   0.706 -0.21 +0.01    +0.045 A 
DOCKED: ATOM     24  C   UNL d   1      -1.984  16.607  -1.127 -0.24 -0.00    -0.022 A 
DOCKED: ATOM     25  C   UNL d   1      -0.278  18.955   2.653 -0.21 +0.01    +0.049 A 
DOCKED: ATOM     26  C   UNL d   1       1.080  19.772   4.296 -0.17 -0.00    -0.018 A 
DOCKED: ATOM     27  C   UNL d   1      -0.227  19.272   4.003 -0.22 +0.00    +0.003 A 
DOCKED: ATOM     28  C   UNL d   1      -1.349  18.568   1.803 -0.22 +0.01    +0.052 C 
DOCKED: ATOM     29  C   UNL d   1      -2.770  15.947  -2.208 -0.25 +0.01    +0.046 C 
DOCKED: ATOM     30  C   UNL d   1       1.571  20.258   5.618 -0.11 +0.00    +0.046 C 
DOCKED: ATOM     31  H   UNL d   1       0.758  17.212   0.458 +0.03 +0.01    +0.166 HD
DOCKED: ATOM     32  H   UNL d   1       1.259  19.068   1.178 +0.03 +0.01    +0.166 HD
DOCKED: ENDROOT
DOCKED: BRANCH   7  33
DOCKED: ATOM     33  C   UNL d   1       6.261  19.931   2.893 -0.02 +0.00    +0.141 C 
DOCKED: BRANCH  33  34
DOCKED: ATOM     34  C   UNL d   1       6.526  18.516   3.332 -0.04 +0.00    +0.306 C 
DOCKED: ATOM     35  O   UNL d   1       5.787  17.822   4.010 -0.09 -0.00    -0.251 OA
DOCKED: BRANCH  34  36
DOCKED: ATOM     36  O   UNL d   1       7.707  18.049   2.892 +0.00 -0.00    -0.481 OA
DOCKED: ATOM     37  H   UNL d   1       7.740  18.312   1.947 +0.02 +0.00    +0.295 HD
DOCKED: ENDBRANCH  34  36
DOCKED: ENDBRANCH  33  34
DOCKED: ENDBRANCH   7  33
DOCKED: BRANCH  27  38
DOCKED: ATOM     38  C   UNL d   1      -1.301  19.171   4.944 -0.18 +0.00    +0.017 C 
DOCKED: ATOM     39  C   UNL d   1      -2.557  19.594   4.734 -0.15 +0.02    +0.092 C 
DOCKED: BRANCH  39  40
DOCKED: ATOM     40  C   UNL d   1      -3.572  19.415   5.776 -0.06 +0.06    +0.330 C 
DOCKED: ATOM     41  O   UNL d   1      -3.932  18.374   6.292 -0.16 -0.05    -0.246 OA
DOCKED: BRANCH  40  42
DOCKED: ATOM     42  O   UNL d   1      -4.088  20.603   6.128 +0.01 -0.05    -0.477 OA
DOCKED: ATOM     43  H   UNL d   1      -3.946  20.643   7.096 +0.04 +0.02    +0.295 HD
DOCKED: ENDBRANCH  40  42
DOCKED: ENDBRANCH  39  40
DOCKED: ENDBRANCH  27  38
DOCKED: BRANCH   8  44
DOCKED: ATOM     44  C   UNL d   1       4.840  15.319  -3.212 -0.09 -0.00    +0.141 C 
DOCKED: BRANCH  44  45
DOCKED: ATOM     45  C   UNL d   1       4.518  14.424  -4.379 -0.10 -0.04    +0.306 C 
DOCKED: ATOM     46  O   UNL d   1       4.385  14.766  -5.542 -0.13 +0.06    -0.251 OA
DOCKED: BRANCH  45  47
DOCKED: ATOM     47  O   UNL d   1       4.351  13.141  -4.013 +0.02 +0.06    -0.481 OA
DOCKED: ATOM     48  H   UNL d   1       3.478  12.889  -4.384 -0.47 -0.37    +0.295 HD
DOCKED: ENDBRANCH  45  47
DOCKED: ENDBRANCH  44  45
DOCKED: ENDBRANCH   8  44
DOCKED: BRANCH  22  49
DOCKED: ATOM     49  C   UNL d   1      -3.840  17.823   0.146 -0.21 +0.03    +0.048 C 
DOCKED: BRANCH  49  50
DOCKED: ATOM     50  C   UNL d   1      -4.381  18.716  -0.970 -0.10 +0.07    +0.125 C 
DOCKED: BRANCH  50  51
DOCKED: ATOM     51  C   UNL d   1      -5.735  18.250  -1.422 -0.01 +0.28    +0.305 C 
DOCKED: ATOM     52  O   UNL d   1      -6.820  18.725  -1.133 -0.56 -0.24    -0.251 OA
DOCKED: BRANCH  51  53
DOCKED: ATOM     53  O   UNL d   1      -5.655  17.172  -2.227 -0.87 -0.46    -0.481 OA
DOCKED: ATOM     54  H   UNL d   1      -5.738  17.542  -3.131 +0.06 +0.18    +0.295 HD
DOCKED: ENDBRANCH  51  53
DOCKED: ENDBRANCH  50  51
DOCKED: ENDBRANCH  49  50
DOCKED: ENDBRANCH  22  49
DOCKED: TORSDOF 13
DOCKED: TER
DOCKED: ENDMDL
________________________________________________________________________________


	BEGINNING GENETIC ALGORITHM DOCKING 37 of 100
Run: 37 Seed: 824410618 1630112914 [ Run 37 of 100 GA/GALS ]
Beginning LAMARCKIAN GENETIC ALGORITHM (LGA), with a maximum of 25000000 energy evaluations.

Final-Value: -9.673


	FINAL GENETIC ALGORITHM DOCKED STATE
	_______________________________________________


Detailed state:  trans 7.232 14.437 8.263 quatxyzw -0.100555 -0.827875 0.428571 -0.347619 center 0.153 0.018 -0.028 ntor 13 175.9821 17.5275 -145.8092 5.2268 -152.4998 -106.6602 128.8874 139.2944 9.8286 -13.9638 -38.8794 -149.5603 -153.8504
State:	  7.232  14.437   8.263  -0.107 -0.883  0.457 -139.317    175.98   17.53 -145.81    5.23 -152.50 -106.66  128.89  139.29    9.83  -13.96  -38.88 -149.56 -153.85

DOCKED: MODEL       37
DOCKED: USER    Run = 37
DOCKED: USER    DPF = D:/Protein_go_brrr/autodock/final/mut_D99N/heme/dock.dpf
DOCKED: USER  
DOCKED: USER    Estimated Free Energy of Binding    =   -3.29 kcal/mol  [=(1)+(2)+(3)-(4)]
DOCKED: USER    Estimated Inhibition Constant, Ki   =    3.87 mM (millimolar)  [Temperature = 298.15 K]
DOCKED: USER    
DOCKED: USER    (1) Final Intermolecular Energy     =   -7.17 kcal/mol
DOCKED: USER        vdW + Hbond + desolv Energy     =   -7.13 kcal/mol
DOCKED: USER        Electrostatic Energy            =   -0.04 kcal/mol
DOCKED: USER    (2) Final Total Internal Energy     =   -2.50 kcal/mol
DOCKED: USER    (3) Torsional Free Energy           =   +3.88 kcal/mol
DOCKED: USER    (4) Unbound System's Energy  [=(2)] =   -2.50 kcal/mol
DOCKED: USER    
DOCKED: USER    
DOCKED: USER    NEWDPF move heme_opt.pdbqt
DOCKED: USER    NEWDPF about 0.153000 0.018000 -0.028000
DOCKED: USER    NEWDPF tran0 7.231842 14.437150 8.262983
DOCKED: USER    NEWDPF quaternion0 -0.100555 -0.827875 0.428571 -0.347619
DOCKED: USER    NEWDPF axisangle0 -0.107243 -0.882938 0.457076 -139.316544
DOCKED: USER    NEWDPF quat0 -0.107243 -0.882938 0.457076 -139.316544
DOCKED: USER    NEWDPF dihe0 175.98 17.53 -145.81 5.23 -152.50 -106.66 128.89 139.29 9.83 -13.96 -38.88 -149.56 -153.85 
DOCKED: USER  keepresnum = 1 
DOCKED: USER  
DOCKED: REMARK  13 active torsions:
DOCKED: REMARK  status: ('A' for Active; 'I' for Inactive)
DOCKED: REMARK    1  A    between atoms: O_3  and  C_38 
DOCKED: REMARK    2  A    between atoms: O_4  and  C_40 
DOCKED: REMARK    3  A    between atoms: O_7  and  C_46 
DOCKED: REMARK    4  A    between atoms: O_9  and  C_48 
DOCKED: REMARK    5  A    between atoms: C_15  and  C_20 
DOCKED: REMARK    6  A    between atoms: C_16  and  C_23 
DOCKED: REMARK    7  A    between atoms: C_20  and  C_38 
DOCKED: REMARK    8  A    between atoms: C_23  and  C_40 
DOCKED: REMARK    9  A    between atoms: C_32  and  C_41 
DOCKED: REMARK   10  A    between atoms: C_37  and  C_45 
DOCKED: REMARK   11  A    between atoms: C_41  and  C_44 
DOCKED: REMARK   12  A    between atoms: C_44  and  C_46 
DOCKED: REMARK   13  A    between atoms: C_47  and  C_48 
DOCKED: USER                              x       y       z     vdW  Elec       q    Type
DOCKED: USER                           _______ _______ _______ _____ _____    ______ ____
DOCKED: ROOT
DOCKED: ATOM      1  O   UNL d   1      10.722  12.451   3.947 -0.04 -0.01    -0.289 OA
DOCKED: ATOM      2  O   UNL d   1      10.875  11.245  11.358 -0.01 -0.00    -0.289 OA
DOCKED: ATOM      3  N   UNL d   1       8.520  13.959   6.131 -0.12 +0.02    -0.247 NA
DOCKED: ATOM      4  N   UNL d   1       9.143  12.666   8.732 -0.08 +0.01    -0.247 NA
DOCKED: ATOM      5  N   UNL d   1       6.697  13.771   9.763 -0.12 +0.06    -0.354 N 
DOCKED: ATOM      6  N   UNL d   1       6.048  15.093   7.055 -0.12 +0.07    -0.354 N 
DOCKED: ATOM      7  C   UNL d   1       8.752  13.876   3.692 -0.16 -0.00    +0.084 A 
DOCKED: ATOM      8  C   UNL d   1      11.402  11.782   9.028 -0.03 +0.00    +0.084 A 
DOCKED: ATOM      9  C   UNL d   1      10.351  12.424   8.117 -0.07 +0.00    +0.058 A 
DOCKED: ATOM     10  C   UNL d   1       7.988  14.375   4.922 -0.20 -0.01    +0.058 A 
DOCKED: ATOM     11  C   UNL d   1       9.822  13.119   4.421 -0.08 +0.00    +0.193 A 
DOCKED: ATOM     12  C   UNL d   1       9.586  13.268   5.893 -0.11 -0.00    +0.109 A 
DOCKED: ATOM     13  C   UNL d   1      10.555  11.669  10.264 -0.03 +0.00    +0.193 A 
DOCKED: ATOM     14  C   UNL d   1       7.926  12.889   2.863 -0.18 +0.00    +0.026 C 
DOCKED: ATOM     15  C   UNL d   1      10.575  12.679   6.818 -0.08 +0.00    +0.055 C 
DOCKED: ATOM     16  C   UNL d   1      12.566  12.736   9.313 -0.01 +0.00    +0.026 C 
DOCKED: ATOM     17  C   UNL d   1       9.207  12.233   9.950 -0.09 -0.00    +0.109 A 
DOCKED: ATOM     18  C   UNL d   1       6.945  15.219   4.806 -0.27 -0.01    +0.050 C 
DOCKED: ATOM     19  C   UNL d   1       6.232  15.798   5.887 -0.24 -0.01    +0.045 A 
DOCKED: ATOM     20  C   UNL d   1       7.027  12.928  10.792 -0.21 -0.01    +0.045 A 
DOCKED: ATOM     21  C   UNL d   1       8.146  12.217  10.968 -0.18 -0.00    +0.057 C 
DOCKED: ATOM     22  C   UNL d   1       4.948  13.791  11.182 -0.23 +0.00    -0.019 A 
DOCKED: ATOM     23  C   UNL d   1       5.460  14.339   9.910 -0.21 -0.01    +0.045 A 
DOCKED: ATOM     24  C   UNL d   1       5.881  12.958  11.700 -0.24 +0.00    -0.022 A 
DOCKED: ATOM     25  C   UNL d   1       5.257  15.803   7.928 -0.21 -0.00    +0.049 A 
DOCKED: ATOM     26  C   UNL d   1       5.575  17.012   6.019 -0.20 +0.00    -0.018 A 
DOCKED: ATOM     27  C   UNL d   1       4.978  17.017   7.317 -0.19 -0.00    +0.003 A 
DOCKED: ATOM     28  C   UNL d   1       4.799  15.215   9.139 -0.10 -0.01    +0.052 C 
DOCKED: ATOM     29  C   UNL d   1       5.834  12.179  12.971 -0.12 -0.00    +0.046 C 
DOCKED: ATOM     30  C   UNL d   1       5.507  18.102   5.003 -0.14 +0.00    +0.046 C 
DOCKED: ATOM     31  H   UNL d   1       7.361  13.988   9.027 +0.05 -0.02    +0.166 HD
DOCKED: ATOM     32  H   UNL d   1       6.419  14.163   7.213 -0.22 -0.05    +0.166 HD
DOCKED: ENDROOT
DOCKED: BRANCH   7  33
DOCKED: ATOM     33  C   UNL d   1       9.370  14.969   2.814 -0.06 +0.00    +0.141 C 
DOCKED: BRANCH  33  34
DOCKED: ATOM     34  C   UNL d   1      10.319  15.856   3.575 -0.01 +0.00    +0.306 C 
DOCKED: ATOM     35  O   UNL d   1      10.061  16.951   4.044 -0.00 -0.00    -0.251 OA
DOCKED: BRANCH  34  36
DOCKED: ATOM     36  O   UNL d   1      11.543  15.314   3.706 +0.00 -0.00    -0.481 OA
DOCKED: ATOM     37  H   UNL d   1      11.451  14.406   3.344 +0.02 +0.00    +0.295 HD
DOCKED: ENDBRANCH  34  36
DOCKED: ENDBRANCH  33  34
DOCKED: ENDBRANCH   7  33
DOCKED: BRANCH  27  38
DOCKED: ATOM     38  C   UNL d   1       4.188  18.082   7.857 -0.15 +0.00    +0.017 C 
DOCKED: ATOM     39  C   UNL d   1       2.980  18.456   7.408 -0.15 +0.01    +0.092 C 
DOCKED: BRANCH  39  40
DOCKED: ATOM     40  C   UNL d   1       2.266  19.555   8.062 -0.05 +0.01    +0.330 C 
DOCKED: ATOM     41  O   UNL d   1       1.274  19.484   8.763 -0.06 -0.01    -0.246 OA
DOCKED: BRANCH  40  42
DOCKED: ATOM     42  O   UNL d   1       2.869  20.723   7.793 +0.00 -0.01    -0.477 OA
DOCKED: ATOM     43  H   UNL d   1       2.518  21.331   8.475 +0.01 +0.00    +0.295 HD
DOCKED: ENDBRANCH  40  42
DOCKED: ENDBRANCH  39  40
DOCKED: ENDBRANCH  27  38
DOCKED: BRANCH   8  44
DOCKED: ATOM     44  C   UNL d   1      11.909  10.406   8.584 -0.02 +0.01    +0.141 C 
DOCKED: BRANCH  44  45
DOCKED: ATOM     45  C   UNL d   1      10.836   9.350   8.576 -0.04 +0.03    +0.306 C 
DOCKED: ATOM     46  O   UNL d   1      10.047   9.122   7.675 -0.09 -0.03    -0.251 OA
DOCKED: BRANCH  45  47
DOCKED: ATOM     47  O   UNL d   1      10.794   8.650   9.724 +0.00 -0.06    -0.481 OA
DOCKED: ATOM     48  H   UNL d   1      11.049   9.296  10.418 +0.04 +0.02    +0.295 HD
DOCKED: ENDBRANCH  45  47
DOCKED: ENDBRANCH  44  45
DOCKED: ENDBRANCH   8  44
DOCKED: BRANCH  22  49
DOCKED: ATOM     49  C   UNL d   1       3.603  14.119  11.760 -0.31 -0.01    +0.048 C 
DOCKED: BRANCH  49  50
DOCKED: ATOM     50  C   UNL d   1       2.761  12.863  11.987 -0.45 -0.02    +0.125 C 
DOCKED: BRANCH  50  51
DOCKED: ATOM     51  C   UNL d   1       1.966  12.973  13.258 -0.33 -0.05    +0.305 C 
DOCKED: ATOM     52  O   UNL d   1       0.785  12.722  13.420 -0.95 +0.05    -0.251 OA
DOCKED: BRANCH  51  53
DOCKED: ATOM     53  O   UNL d   1       2.717  13.418  14.285 -0.15 +0.09    -0.481 OA
DOCKED: ATOM     54  H   UNL d   1       2.116  13.370  15.058 -0.15 -0.12    +0.295 HD
DOCKED: ENDBRANCH  51  53
DOCKED: ENDBRANCH  50  51
DOCKED: ENDBRANCH  49  50
DOCKED: ENDBRANCH  22  49
DOCKED: TORSDOF 13
DOCKED: TER
DOCKED: ENDMDL
________________________________________________________________________________


	BEGINNING GENETIC ALGORITHM DOCKING 38 of 100
Run: 38 Seed: 1632076263 1975875729 [ Run 38 of 100 GA/GALS ]
Beginning LAMARCKIAN GENETIC ALGORITHM (LGA), with a maximum of 25000000 energy evaluations.

Final-Value: -14.312


	FINAL GENETIC ALGORITHM DOCKED STATE
	_______________________________________________


Detailed state:  trans 13.835 -9.677 8.127 quatxyzw 0.957251 -0.165713 -0.162721 0.172427 center 0.153 0.018 -0.028 ntor 13 70.3248 -155.8502 113.2318 19.6562 -142.8999 17.1021 -44.8662 172.3143 55.4688 -138.6196 -49.9635 -68.6098 1.4109
State:	 13.835  -9.677   8.127   0.972 -0.168 -0.165 160.142     70.32 -155.85  113.23   19.66 -142.90   17.10  -44.87  172.31   55.47 -138.62  -49.96  -68.61    1.41

DOCKED: MODEL       38
DOCKED: USER    Run = 38
DOCKED: USER    DPF = D:/Protein_go_brrr/autodock/final/mut_D99N/heme/dock.dpf
DOCKED: USER  
DOCKED: USER    Estimated Free Energy of Binding    =   -6.15 kcal/mol  [=(1)+(2)+(3)-(4)]
DOCKED: USER    Estimated Inhibition Constant, Ki   =   31.23 uM (micromolar)  [Temperature = 298.15 K]
DOCKED: USER    
DOCKED: USER    (1) Final Intermolecular Energy     =  -10.02 kcal/mol
DOCKED: USER        vdW + Hbond + desolv Energy     =   -9.71 kcal/mol
DOCKED: USER        Electrostatic Energy            =   -0.31 kcal/mol
DOCKED: USER    (2) Final Total Internal Energy     =   -4.29 kcal/mol
DOCKED: USER    (3) Torsional Free Energy           =   +3.88 kcal/mol
DOCKED: USER    (4) Unbound System's Energy  [=(2)] =   -4.29 kcal/mol
DOCKED: USER    
DOCKED: USER    
DOCKED: USER    NEWDPF move heme_opt.pdbqt
DOCKED: USER    NEWDPF about 0.153000 0.018000 -0.028000
DOCKED: USER    NEWDPF tran0 13.835228 -9.677040 8.126654
DOCKED: USER    NEWDPF quaternion0 0.957251 -0.165713 -0.162721 0.172427
DOCKED: USER    NEWDPF axisangle0 0.971807 -0.168233 -0.165195 160.142051
DOCKED: USER    NEWDPF quat0 0.971807 -0.168233 -0.165195 160.142051
DOCKED: USER    NEWDPF dihe0 70.32 -155.85 113.23 19.66 -142.90 17.10 -44.87 172.31 55.47 -138.62 -49.96 -68.61 1.41 
DOCKED: USER  keepresnum = 1 
DOCKED: USER  
DOCKED: REMARK  13 active torsions:
DOCKED: REMARK  status: ('A' for Active; 'I' for Inactive)
DOCKED: REMARK    1  A    between atoms: O_3  and  C_38 
DOCKED: REMARK    2  A    between atoms: O_4  and  C_40 
DOCKED: REMARK    3  A    between atoms: O_7  and  C_46 
DOCKED: REMARK    4  A    between atoms: O_9  and  C_48 
DOCKED: REMARK    5  A    between atoms: C_15  and  C_20 
DOCKED: REMARK    6  A    between atoms: C_16  and  C_23 
DOCKED: REMARK    7  A    between atoms: C_20  and  C_38 
DOCKED: REMARK    8  A    between atoms: C_23  and  C_40 
DOCKED: REMARK    9  A    between atoms: C_32  and  C_41 
DOCKED: REMARK   10  A    between atoms: C_37  and  C_45 
DOCKED: REMARK   11  A    between atoms: C_41  and  C_44 
DOCKED: REMARK   12  A    between atoms: C_44  and  C_46 
DOCKED: REMARK   13  A    between atoms: C_47  and  C_48 
DOCKED: USER                              x       y       z     vdW  Elec       q    Type
DOCKED: USER                           _______ _______ _______ _____ _____    ______ ____
DOCKED: ROOT
DOCKED: ATOM      1  O   UNL d   1       8.034  -9.459   9.154 -0.64 +0.24    -0.289 OA
DOCKED: ATOM      2  O   UNL d   1      13.676  -5.298  11.846 -0.09 +0.07    -0.289 OA
DOCKED: ATOM      3  N   UNL d   1      11.337 -10.051   8.357 -0.18 +0.09    -0.247 NA
DOCKED: ATOM      4  N   UNL d   1      12.763  -7.767   9.615 -0.18 +0.10    -0.247 NA
DOCKED: ATOM      5  N   UNL d   1      15.079  -8.482   8.069 -0.03 +0.16    -0.354 N 
DOCKED: ATOM      6  N   UNL d   1      13.587 -10.837   6.754 -0.06 +0.19    -0.354 N 
DOCKED: ATOM      7  C   UNL d   1       9.189 -10.968   7.616 -0.30 -0.03    +0.084 A 
DOCKED: ATOM      8  C   UNL d   1      11.704  -6.717  11.551 -0.15 -0.04    +0.084 A 
DOCKED: ATOM      9  C   UNL d   1      11.637  -7.735  10.407 -0.23 -0.03    +0.058 A 
DOCKED: ATOM     10  C   UNL d   1      10.717 -10.957   7.514 -0.28 -0.02    +0.058 A 
DOCKED: ATOM     11  C   UNL d   1       9.056  -9.920   8.680 -0.08 -0.08    +0.193 A 
DOCKED: ATOM     12  C   UNL d   1      10.429  -9.461   9.064 -0.15 -0.04    +0.109 A 
DOCKED: ATOM     13  C   UNL d   1      13.060  -6.152  11.238 -0.13 -0.06    +0.193 A 
DOCKED: ATOM     14  C   UNL d   1       8.523 -10.458   6.334 -0.49 -0.01    +0.026 C 
DOCKED: ATOM     15  C   UNL d   1      10.553  -8.490  10.170 -0.15 -0.03    +0.055 C 
DOCKED: ATOM     16  C   UNL d   1      11.759  -7.403  12.919 -0.06 -0.01    +0.026 C 
DOCKED: ATOM     17  C   UNL d   1      13.592  -6.868  10.039 -0.22 -0.04    +0.109 A 
DOCKED: ATOM     18  C   UNL d   1      11.375 -11.829   6.728 -0.30 -0.02    +0.050 C 
DOCKED: ATOM     19  C   UNL d   1      12.785 -11.949   6.633 -0.24 -0.02    +0.045 A 
DOCKED: ATOM     20  C   UNL d   1      15.492  -7.273   8.566 -0.24 -0.02    +0.045 A 
DOCKED: ATOM     21  C   UNL d   1      14.896  -6.493   9.473 -0.24 -0.02    +0.057 C 
DOCKED: ATOM     22  C   UNL d   1      17.032  -8.011   7.049 -0.28 +0.00    -0.019 A 
DOCKED: ATOM     23  C   UNL d   1      15.944  -9.006   7.146 -0.26 -0.01    +0.045 A 
DOCKED: ATOM     24  C   UNL d   1      16.759  -6.989   7.893 -0.24 +0.00    -0.022 A 
DOCKED: ATOM     25  C   UNL d   1      14.905 -11.166   6.540 -0.25 -0.02    +0.049 A 
DOCKED: ATOM     26  C   UNL d   1      13.606 -13.035   6.371 -0.17 +0.01    -0.018 A 
DOCKED: ATOM     27  C   UNL d   1      14.946 -12.537   6.333 -0.17 -0.00    +0.003 A 
DOCKED: ATOM     28  C   UNL d   1      15.904 -10.158   6.458 -0.31 -0.02    +0.052 C 
DOCKED: ATOM     29  C   UNL d   1      17.559  -5.759   8.159 -0.17 -0.00    +0.046 C 
DOCKED: ATOM     30  C   UNL d   1      13.177 -14.448   6.170 -0.15 -0.02    +0.046 C 
DOCKED: ATOM     31  H   UNL d   1      14.254  -8.946   8.432 -0.27 -0.09    +0.166 HD
DOCKED: ATOM     32  H   UNL d   1      13.230  -9.906   6.935 -0.46 -0.16    +0.166 HD
DOCKED: ENDROOT
DOCKED: BRANCH   7  33
DOCKED: ATOM     33  C   UNL d   1       8.571 -12.290   8.082 -0.20 -0.04    +0.141 C 
DOCKED: BRANCH  33  34
DOCKED: ATOM     34  C   UNL d   1       8.132 -12.248   9.521 -0.07 -0.12    +0.306 C 
DOCKED: ATOM     35  O   UNL d   1       8.817 -12.523  10.492 -0.03 +0.09    -0.251 OA
DOCKED: BRANCH  34  36
DOCKED: ATOM     36  O   UNL d   1       6.852 -11.859   9.662 -0.18 +0.25    -0.481 OA
DOCKED: ATOM     37  H   UNL d   1       6.907 -10.983  10.099 -0.19 -0.35    +0.295 HD
DOCKED: ENDBRANCH  34  36
DOCKED: ENDBRANCH  33  34
DOCKED: ENDBRANCH   7  33
DOCKED: BRANCH  27  38
DOCKED: ATOM     38  C   UNL d   1      16.112 -13.327   6.074 -0.09 -0.01    +0.017 C 
DOCKED: ATOM     39  C   UNL d   1      17.220 -12.891   5.455 -0.12 -0.05    +0.092 C 
DOCKED: BRANCH  39  40
DOCKED: ATOM     40  C   UNL d   1      18.355 -13.798   5.267 -0.05 -0.08    +0.330 C 
DOCKED: ATOM     41  O   UNL d   1      18.366 -15.009   5.377 -0.03 +0.05    -0.246 OA
DOCKED: BRANCH  40  42
DOCKED: ATOM     42  O   UNL d   1      19.451 -13.102   4.928 -0.01 +0.01    -0.477 OA
DOCKED: ATOM     43  H   UNL d   1      19.278 -12.205   5.283 +0.09 +0.01    +0.295 HD
DOCKED: ENDBRANCH  40  42
DOCKED: ENDBRANCH  39  40
DOCKED: ENDBRANCH  27  38
DOCKED: BRANCH   8  44
DOCKED: ATOM     44  C   UNL d   1      10.633  -5.621  11.523 -0.25 -0.10    +0.141 C 
DOCKED: BRANCH  44  45
DOCKED: ATOM     45  C   UNL d   1      10.620  -4.771  12.765 -0.09 -0.15    +0.306 C 
DOCKED: ATOM     46  O   UNL d   1       9.988  -4.984  13.785 -0.05 +0.13    -0.251 OA
DOCKED: BRANCH  45  47
DOCKED: ATOM     47  O   UNL d   1      11.390  -3.674  12.646 -0.46 +0.08    -0.481 OA
DOCKED: ATOM     48  H   UNL d   1      12.307  -4.019  12.601 +0.06 -0.05    +0.295 HD
DOCKED: ENDBRANCH  45  47
DOCKED: ENDBRANCH  44  45
DOCKED: ENDBRANCH   8  44
DOCKED: BRANCH  22  49
DOCKED: ATOM     49  C   UNL d   1      18.217  -8.145   6.139 -0.14 +0.01    +0.048 C 
DOCKED: BRANCH  49  50
DOCKED: ATOM     50  C   UNL d   1      19.301  -9.037   6.744 -0.20 +0.03    +0.125 C 
DOCKED: BRANCH  50  51
DOCKED: ATOM     51  C   UNL d   1      19.757 -10.072   5.755 -0.16 +0.10    +0.305 C 
DOCKED: ATOM     52  O   UNL d   1      20.749 -10.777   5.821 -0.15 -0.12    -0.251 OA
DOCKED: BRANCH  51  53
DOCKED: ATOM     53  O   UNL d   1      18.925 -10.161   4.698 -0.40 -0.11    -0.481 OA
DOCKED: ATOM     54  H   UNL d   1      19.128 -11.038   4.309 +0.10 +0.03    +0.295 HD
DOCKED: ENDBRANCH  51  53
DOCKED: ENDBRANCH  50  51
DOCKED: ENDBRANCH  49  50
DOCKED: ENDBRANCH  22  49
DOCKED: TORSDOF 13
DOCKED: TER
DOCKED: ENDMDL
________________________________________________________________________________


	BEGINNING GENETIC ALGORITHM DOCKING 39 of 100
Run: 39 Seed: 800596740 1667252984 [ Run 39 of 100 GA/GALS ]
Beginning LAMARCKIAN GENETIC ALGORITHM (LGA), with a maximum of 25000000 energy evaluations.

Final-Value: -11.110


	FINAL GENETIC ALGORITHM DOCKED STATE
	_______________________________________________


Detailed state:  trans 1.618 17.543 0.795 quatxyzw 0.144441 0.859402 0.466196 0.152398 center 0.153 0.018 -0.028 ntor 13 140.9451 55.0911 -123.4842 82.4913 -136.5025 146.2444 121.8131 96.1139 19.3102 -33.6236 -45.0456 83.1495 -155.3632
State:	  1.618  17.543   0.795   0.146  0.870  0.472 162.468    140.95   55.09 -123.48   82.49 -136.50  146.24  121.81   96.11   19.31  -33.62  -45.05   83.15 -155.36

DOCKED: MODEL       39
DOCKED: USER    Run = 39
DOCKED: USER    DPF = D:/Protein_go_brrr/autodock/final/mut_D99N/heme/dock.dpf
DOCKED: USER  
DOCKED: USER    Estimated Free Energy of Binding    =   -4.68 kcal/mol  [=(1)+(2)+(3)-(4)]
DOCKED: USER    Estimated Inhibition Constant, Ki   =  370.40 uM (micromolar)  [Temperature = 298.15 K]
DOCKED: USER    
DOCKED: USER    (1) Final Intermolecular Energy     =   -8.56 kcal/mol
DOCKED: USER        vdW + Hbond + desolv Energy     =   -8.32 kcal/mol
DOCKED: USER        Electrostatic Energy            =   -0.24 kcal/mol
DOCKED: USER    (2) Final Total Internal Energy     =   -2.55 kcal/mol
DOCKED: USER    (3) Torsional Free Energy           =   +3.88 kcal/mol
DOCKED: USER    (4) Unbound System's Energy  [=(2)] =   -2.55 kcal/mol
DOCKED: USER    
DOCKED: USER    
DOCKED: USER    NEWDPF move heme_opt.pdbqt
DOCKED: USER    NEWDPF about 0.153000 0.018000 -0.028000
DOCKED: USER    NEWDPF tran0 1.617710 17.542710 0.794767
DOCKED: USER    NEWDPF quaternion0 0.144441 0.859402 0.466196 0.152398
DOCKED: USER    NEWDPF axisangle0 0.146148 0.869560 0.471706 162.468121
DOCKED: USER    NEWDPF quat0 0.146148 0.869560 0.471706 162.468121
DOCKED: USER    NEWDPF dihe0 140.95 55.09 -123.48 82.49 -136.50 146.24 121.81 96.11 19.31 -33.62 -45.05 83.15 -155.36 
DOCKED: USER  keepresnum = 1 
DOCKED: USER  
DOCKED: REMARK  13 active torsions:
DOCKED: REMARK  status: ('A' for Active; 'I' for Inactive)
DOCKED: REMARK    1  A    between atoms: O_3  and  C_38 
DOCKED: REMARK    2  A    between atoms: O_4  and  C_40 
DOCKED: REMARK    3  A    between atoms: O_7  and  C_46 
DOCKED: REMARK    4  A    between atoms: O_9  and  C_48 
DOCKED: REMARK    5  A    between atoms: C_15  and  C_20 
DOCKED: REMARK    6  A    between atoms: C_16  and  C_23 
DOCKED: REMARK    7  A    between atoms: C_20  and  C_38 
DOCKED: REMARK    8  A    between atoms: C_23  and  C_40 
DOCKED: REMARK    9  A    between atoms: C_32  and  C_41 
DOCKED: REMARK   10  A    between atoms: C_37  and  C_45 
DOCKED: REMARK   11  A    between atoms: C_41  and  C_44 
DOCKED: REMARK   12  A    between atoms: C_44  and  C_46 
DOCKED: REMARK   13  A    between atoms: C_47  and  C_48 
DOCKED: USER                              x       y       z     vdW  Elec       q    Type
DOCKED: USER                           _______ _______ _______ _____ _____    ______ ____
DOCKED: ROOT
DOCKED: ATOM      1  O   UNL d   1       7.311  18.379  -0.488 -0.01 -0.01    -0.289 OA
DOCKED: ATOM      2  O   UNL d   1       2.350  13.389  -3.110 -0.22 +0.10    -0.289 OA
DOCKED: ATOM      3  N   UNL d   1       4.070  18.178   0.676 -0.10 -0.01    -0.247 NA
DOCKED: ATOM      4  N   UNL d   1       2.821  16.173  -1.125 -0.11 -0.01    -0.247 NA
DOCKED: ATOM      5  N   UNL d   1       0.258  17.005  -0.122 -0.11 -0.02    -0.354 N 
DOCKED: ATOM      6  N   UNL d   1       1.561  19.097   1.729 -0.12 -0.03    -0.354 N 
DOCKED: ATOM      7  C   UNL d   1       5.952  19.703   1.054 -0.03 +0.00    +0.084 A 
DOCKED: ATOM      8  C   UNL d   1       4.299  14.524  -2.159 -0.22 +0.00    +0.084 A 
DOCKED: ATOM      9  C   UNL d   1       4.130  15.783  -1.302 -0.18 +0.00    +0.058 A 
DOCKED: ATOM     10  C   UNL d   1       4.499  19.314   1.343 -0.08 +0.00    +0.058 A 
DOCKED: ATOM     11  C   UNL d   1       6.274  18.576   0.119 -0.03 +0.00    +0.193 A 
DOCKED: ATOM     12  C   UNL d   1       5.061  17.707  -0.008 -0.10 +0.00    +0.109 A 
DOCKED: ATOM     13  C   UNL d   1       2.846  14.293  -2.467 -0.23 -0.02    +0.193 A 
DOCKED: ATOM     14  C   UNL d   1       6.051  21.025   0.288 -0.01 +0.00    +0.026 C 
DOCKED: ATOM     15  C   UNL d   1       5.171  16.473  -0.812 -0.15 +0.00    +0.055 C 
DOCKED: ATOM     16  C   UNL d   1       4.822  13.343  -1.337 -0.28 +0.00    +0.026 C 
DOCKED: ATOM     17  C   UNL d   1       2.057  15.365  -1.788 -0.21 -0.00    +0.109 A 
DOCKED: ATOM     18  C   UNL d   1       3.757  19.985   2.243 -0.09 +0.00    +0.050 C 
DOCKED: ATOM     19  C   UNL d   1       2.437  19.648   2.637 -0.14 +0.00    +0.045 A 
DOCKED: ATOM     20  C   UNL d   1      -0.144  16.208  -1.163 -0.22 +0.00    +0.045 A 
DOCKED: ATOM     21  C   UNL d   1       0.596  15.419  -1.948 -0.32 +0.00    +0.057 C 
DOCKED: ATOM     22  C   UNL d   1      -1.973  17.262  -0.291 -0.22 -0.00    -0.019 A 
DOCKED: ATOM     23  C   UNL d   1      -0.777  17.681   0.466 -0.22 +0.01    +0.045 A 
DOCKED: ATOM     24  C   UNL d   1      -1.592  16.389  -1.253 -0.25 -0.00    -0.022 A 
DOCKED: ATOM     25  C   UNL d   1       0.318  18.935   2.294 -0.21 +0.01    +0.049 A 
DOCKED: ATOM     26  C   UNL d   1       1.756  19.815   3.832 -0.15 -0.00    -0.018 A 
DOCKED: ATOM     27  C   UNL d   1       0.424  19.344   3.616 -0.21 +0.00    +0.003 A 
DOCKED: ATOM     28  C   UNL d   1      -0.794  18.528   1.507 -0.24 +0.01    +0.052 C 
DOCKED: ATOM     29  C   UNL d   1      -2.436  15.683  -2.260 -0.29 +0.01    +0.046 C 
DOCKED: ATOM     30  C   UNL d   1       2.307  20.374   5.100 -0.10 +0.00    +0.046 C 
DOCKED: ATOM     31  H   UNL d   1       1.220  17.003   0.200 +0.03 +0.01    +0.166 HD
DOCKED: ATOM     32  H   UNL d   1       1.808  18.885   0.769 +0.03 +0.01    +0.166 HD
DOCKED: ENDROOT
DOCKED: BRANCH   7  33
DOCKED: ATOM     33  C   UNL d   1       6.891  19.683   2.265 -0.02 +0.00    +0.141 C 
DOCKED: BRANCH  33  34
DOCKED: ATOM     34  C   UNL d   1       7.114  18.295   2.802 -0.03 +0.00    +0.306 C 
DOCKED: ATOM     35  O   UNL d   1       6.376  17.689   3.560 -0.07 -0.00    -0.251 OA
DOCKED: BRANCH  34  36
DOCKED: ATOM     36  O   UNL d   1       8.254  17.742   2.351 +0.00 -0.00    -0.481 OA
DOCKED: ATOM     37  H   UNL d   1       8.290  17.988   1.403 +0.02 +0.00    +0.295 HD
DOCKED: ENDBRANCH  34  36
DOCKED: ENDBRANCH  33  34
DOCKED: ENDBRANCH   7  33
DOCKED: BRANCH  27  38
DOCKED: ATOM     38  C   UNL d   1      -0.622  19.350   4.594 -0.23 +0.00    +0.017 C 
DOCKED: ATOM     39  C   UNL d   1      -0.586  18.704   5.770 -0.25 +0.02    +0.092 C 
DOCKED: BRANCH  39  40
DOCKED: ATOM     40  C   UNL d   1      -1.719  18.805   6.693 -0.13 +0.04    +0.330 C 
DOCKED: ATOM     41  O   UNL d   1      -2.159  17.941   7.428 -0.22 -0.03    -0.246 OA
DOCKED: BRANCH  40  42
DOCKED: ATOM     42  O   UNL d   1      -2.248  20.037   6.643 -0.01 -0.04    -0.477 OA
DOCKED: ATOM     43  H   UNL d   1      -2.229  20.339   7.574 +0.04 +0.02    +0.295 HD
DOCKED: ENDBRANCH  40  42
DOCKED: ENDBRANCH  39  40
DOCKED: ENDBRANCH  27  38
DOCKED: BRANCH   8  44
DOCKED: ATOM     44  C   UNL d   1       5.110  14.706  -3.447 -0.13 +0.00    +0.141 C 
DOCKED: BRANCH  44  45
DOCKED: ATOM     45  C   UNL d   1       4.295  15.242  -4.593 -0.07 -0.04    +0.306 C 
DOCKED: ATOM     46  O   UNL d   1       3.950  16.399  -4.760 -0.03 +0.02    -0.251 OA
DOCKED: BRANCH  45  47
DOCKED: ATOM     47  O   UNL d   1       3.930  14.280  -5.460 -0.11 +0.26    -0.481 OA
DOCKED: ATOM     48  H   UNL d   1       3.461  13.617  -4.911 -0.43 -0.36    +0.295 HD
DOCKED: ENDBRANCH  45  47
DOCKED: ENDBRANCH  44  45
DOCKED: ENDBRANCH   8  44
DOCKED: BRANCH  22  49
DOCKED: ATOM     49  C   UNL d   1      -3.362  17.760  -0.016 -0.23 +0.02    +0.048 C 
DOCKED: BRANCH  49  50
DOCKED: ATOM     50  C   UNL d   1      -3.972  18.446  -1.238 -0.10 +0.06    +0.125 C 
DOCKED: BRANCH  50  51
DOCKED: ATOM     51  C   UNL d   1      -5.395  18.009  -1.444 +0.00 +0.28    +0.305 C 
DOCKED: ATOM     52  O   UNL d   1      -6.402  18.517  -0.984 -0.58 -0.29    -0.251 OA
DOCKED: BRANCH  51  53
DOCKED: ATOM     53  O   UNL d   1      -5.478  16.917  -2.229 -1.04 -0.49    -0.481 OA
DOCKED: ATOM     54  H   UNL d   1      -5.683  17.277  -3.117 +0.06 +0.20    +0.295 HD
DOCKED: ENDBRANCH  51  53
DOCKED: ENDBRANCH  50  51
DOCKED: ENDBRANCH  49  50
DOCKED: ENDBRANCH  22  49
DOCKED: TORSDOF 13
DOCKED: TER
DOCKED: ENDMDL
________________________________________________________________________________


	BEGINNING GENETIC ALGORITHM DOCKING 40 of 100
Run: 40 Seed: 1527488088 1264264525 [ Run 40 of 100 GA/GALS ]
Beginning LAMARCKIAN GENETIC ALGORITHM (LGA), with a maximum of 25000000 energy evaluations.

Final-Value: -11.510


	FINAL GENETIC ALGORITHM DOCKED STATE
	_______________________________________________


Detailed state:  trans -10.902 13.269 -12.109 quatxyzw -0.630760 0.255846 -0.385713 0.622824 center 0.153 0.018 -0.028 ntor 13 -102.3073 -55.9055 119.5442 -7.1610 34.2112 -136.1800 -50.2290 -112.3785 126.0555 -134.1859 -23.6289 -85.2263 -41.7405
State:	-10.902  13.269 -12.109  -0.806  0.327 -0.493 102.955   -102.31  -55.91  119.54   -7.16   34.21 -136.18  -50.23 -112.38  126.06 -134.19  -23.63  -85.23  -41.74

DOCKED: MODEL       40
DOCKED: USER    Run = 40
DOCKED: USER    DPF = D:/Protein_go_brrr/autodock/final/mut_D99N/heme/dock.dpf
DOCKED: USER  
DOCKED: USER    Estimated Free Energy of Binding    =   -5.37 kcal/mol  [=(1)+(2)+(3)-(4)]
DOCKED: USER    Estimated Inhibition Constant, Ki   =  115.24 uM (micromolar)  [Temperature = 298.15 K]
DOCKED: USER    
DOCKED: USER    (1) Final Intermolecular Energy     =   -9.25 kcal/mol
DOCKED: USER        vdW + Hbond + desolv Energy     =   -8.94 kcal/mol
DOCKED: USER        Electrostatic Energy            =   -0.31 kcal/mol
DOCKED: USER    (2) Final Total Internal Energy     =   -2.26 kcal/mol
DOCKED: USER    (3) Torsional Free Energy           =   +3.88 kcal/mol
DOCKED: USER    (4) Unbound System's Energy  [=(2)] =   -2.26 kcal/mol
DOCKED: USER    
DOCKED: USER    
DOCKED: USER    NEWDPF move heme_opt.pdbqt
DOCKED: USER    NEWDPF about 0.153000 0.018000 -0.028000
DOCKED: USER    NEWDPF tran0 -10.901594 13.268652 -12.108980
DOCKED: USER    NEWDPF quaternion0 -0.630760 0.255846 -0.385713 0.622824
DOCKED: USER    NEWDPF axisangle0 -0.806225 0.327018 -0.493011 102.954658
DOCKED: USER    NEWDPF quat0 -0.806225 0.327018 -0.493011 102.954658
DOCKED: USER    NEWDPF dihe0 -102.31 -55.91 119.54 -7.16 34.21 -136.18 -50.23 -112.38 126.06 -134.19 -23.63 -85.23 -41.74 
DOCKED: USER  keepresnum = 1 
DOCKED: USER  
DOCKED: REMARK  13 active torsions:
DOCKED: REMARK  status: ('A' for Active; 'I' for Inactive)
DOCKED: REMARK    1  A    between atoms: O_3  and  C_38 
DOCKED: REMARK    2  A    between atoms: O_4  and  C_40 
DOCKED: REMARK    3  A    between atoms: O_7  and  C_46 
DOCKED: REMARK    4  A    between atoms: O_9  and  C_48 
DOCKED: REMARK    5  A    between atoms: C_15  and  C_20 
DOCKED: REMARK    6  A    between atoms: C_16  and  C_23 
DOCKED: REMARK    7  A    between atoms: C_20  and  C_38 
DOCKED: REMARK    8  A    between atoms: C_23  and  C_40 
DOCKED: REMARK    9  A    between atoms: C_32  and  C_41 
DOCKED: REMARK   10  A    between atoms: C_37  and  C_45 
DOCKED: REMARK   11  A    between atoms: C_41  and  C_44 
DOCKED: REMARK   12  A    between atoms: C_44  and  C_46 
DOCKED: REMARK   13  A    between atoms: C_47  and  C_48 
DOCKED: USER                              x       y       z     vdW  Elec       q    Type
DOCKED: USER                           _______ _______ _______ _____ _____    ______ ____
DOCKED: ROOT
DOCKED: ATOM      1  O   UNL d   1     -15.356  11.589 -15.586 -0.09 +0.22    -0.289 OA
DOCKED: ATOM      2  O   UNL d   1      -8.793  14.854 -17.216 -0.03 +0.05    -0.289 OA
DOCKED: ATOM      3  N   UNL d   1     -13.084  12.525 -13.166 -0.12 +0.16    -0.247 NA
DOCKED: ATOM      4  N   UNL d   1     -10.733  13.421 -14.747 -0.13 +0.14    -0.247 NA
DOCKED: ATOM      5  N   UNL d   1      -9.190  13.348 -12.322 -0.07 +0.13    -0.354 N 
DOCKED: ATOM      6  N   UNL d   1     -11.630  12.400 -10.693 -0.14 +0.11    -0.354 N 
DOCKED: ATOM      7  C   UNL d   1     -15.204  11.295 -13.164 -0.16 -0.05    +0.084 A 
DOCKED: ATOM      8  C   UNL d   1     -11.154  14.243 -17.009 -0.09 -0.03    +0.084 A 
DOCKED: ATOM      9  C   UNL d   1     -11.685  13.596 -15.726 -0.17 -0.04    +0.058 A 
DOCKED: ATOM     10  C   UNL d   1     -14.011  11.856 -12.385 -0.24 -0.03    +0.058 A 
DOCKED: ATOM     11  C   UNL d   1     -14.796  11.782 -14.522 -0.13 -0.14    +0.193 A 
DOCKED: ATOM     12  C   UNL d   1     -13.509  12.534 -14.388 -0.18 -0.08    +0.109 A 
DOCKED: ATOM     13  C   UNL d   1      -9.716  14.368 -16.592 -0.08 -0.05    +0.193 A 
DOCKED: ATOM     14  C   UNL d   1     -15.218   9.765 -13.170 -0.25 -0.02    +0.026 C 
DOCKED: ATOM     15  C   UNL d   1     -12.957  13.190 -15.591 -0.17 -0.04    +0.055 C 
DOCKED: ATOM     16  C   UNL d   1     -11.730  15.647 -17.218 -0.02 -0.01    +0.026 C 
DOCKED: ATOM     17  C   UNL d   1      -9.592  13.828 -15.204 -0.18 -0.03    +0.109 A 
DOCKED: ATOM     18  C   UNL d   1     -13.944  11.770 -11.043 -0.27 -0.02    +0.050 C 
DOCKED: ATOM     19  C   UNL d   1     -12.925  12.331 -10.232 -0.28 -0.01    +0.045 A 
DOCKED: ATOM     20  C   UNL d   1      -8.185  13.535 -13.235 -0.20 -0.01    +0.045 A 
DOCKED: ATOM     21  C   UNL d   1      -8.279  13.781 -14.545 -0.16 -0.01    +0.057 C 
DOCKED: ATOM     22  C   UNL d   1      -7.257  13.164 -11.180 -0.26 +0.00    -0.019 A 
DOCKED: ATOM     23  C   UNL d   1      -8.728  13.116 -11.054 -0.27 -0.01    +0.045 A 
DOCKED: ATOM     24  C   UNL d   1      -6.942  13.413 -12.474 -0.19 +0.00    -0.022 A 
DOCKED: ATOM     25  C   UNL d   1     -10.795  12.892  -9.717 -0.13 -0.01    +0.049 A 
DOCKED: ATOM     26  C   UNL d   1     -12.939  12.825  -8.937 -0.25 +0.00    -0.018 A 
DOCKED: ATOM     27  C   UNL d   1     -11.595  13.196  -8.624 -0.23 -0.00    +0.003 A 
DOCKED: ATOM     28  C   UNL d   1      -9.386  12.909  -9.903 -0.17 -0.01    +0.052 C 
DOCKED: ATOM     29  C   UNL d   1      -5.595  13.563 -13.093 -0.11 -0.00    +0.046 C 
DOCKED: ATOM     30  C   UNL d   1     -14.127  12.948  -8.044 -0.28 -0.01    +0.046 C 
DOCKED: ATOM     31  H   UNL d   1     -10.165  13.458 -12.582 -0.39 -0.09    +0.166 HD
DOCKED: ATOM     32  H   UNL d   1     -11.345  12.087 -11.614 -0.46 -0.11    +0.166 HD
DOCKED: ENDROOT
DOCKED: BRANCH   7  33
DOCKED: ATOM     33  C   UNL d   1     -16.571  11.869 -12.776 -0.04 -0.06    +0.141 C 
DOCKED: BRANCH  33  34
DOCKED: ATOM     34  C   UNL d   1     -17.677  11.391 -13.677 +0.00 -0.11    +0.306 C 
DOCKED: ATOM     35  O   UNL d   1     -18.342  10.379 -13.527 -0.01 +0.09    -0.251 OA
DOCKED: BRANCH  34  36
DOCKED: ATOM     36  O   UNL d   1     -17.890  12.214 -14.719 +0.01 +0.13    -0.481 OA
DOCKED: ATOM     37  H   UNL d   1     -17.142  12.039 -15.328 +0.03 -0.10    +0.295 HD
DOCKED: ENDBRANCH  34  36
DOCKED: ENDBRANCH  33  34
DOCKED: ENDBRANCH   7  33
DOCKED: BRANCH  27  38
DOCKED: ATOM     38  C   UNL d   1     -11.159  13.740  -7.373 -0.27 -0.00    +0.017 C 
DOCKED: ATOM     39  C   UNL d   1     -10.100  13.311  -6.669 -0.36 -0.00    +0.092 C 
DOCKED: BRANCH  39  40
DOCKED: ATOM     40  C   UNL d   1      -9.748  13.968  -5.407 -0.25 +0.00    +0.330 C 
DOCKED: ATOM     41  O   UNL d   1      -8.639  14.261  -5.006 -0.31 -0.04    -0.246 OA
DOCKED: BRANCH  40  42
DOCKED: ATOM     42  O   UNL d   1     -10.858  14.235  -4.701 -0.11 +0.02    -0.477 OA
DOCKED: ATOM     43  H   UNL d   1     -10.701  13.793  -3.841 -0.22 -0.07    +0.295 HD
DOCKED: ENDBRANCH  40  42
DOCKED: ENDBRANCH  39  40
DOCKED: ENDBRANCH  27  38
DOCKED: BRANCH   8  44
DOCKED: ATOM     44  C   UNL d   1     -11.285  13.396 -18.279 -0.10 -0.09    +0.141 C 
DOCKED: BRANCH  44  45
DOCKED: ATOM     45  C   UNL d   1     -10.833  14.114 -19.522 -0.01 -0.09    +0.306 C 
DOCKED: ATOM     46  O   UNL d   1     -11.536  14.740 -20.296 -0.00 +0.05    -0.251 OA
DOCKED: BRANCH  45  47
DOCKED: ATOM     47  O   UNL d   1      -9.512  13.982 -19.742 +0.01 +0.09    -0.481 OA
DOCKED: ATOM     48  H   UNL d   1      -9.088  14.390 -18.957 +0.03 -0.05    +0.295 HD
DOCKED: ENDBRANCH  45  47
DOCKED: ENDBRANCH  44  45
DOCKED: ENDBRANCH   8  44
DOCKED: BRANCH  22  49
DOCKED: ATOM     49  C   UNL d   1      -6.306  12.949 -10.040 -0.22 +0.00    +0.048 C 
DOCKED: BRANCH  49  50
DOCKED: ATOM     50  C   UNL d   1      -5.330  14.114  -9.886 -0.16 -0.00    +0.125 C 
DOCKED: BRANCH  50  51
DOCKED: ATOM     51  C   UNL d   1      -4.783  14.175  -8.488 -0.19 -0.02    +0.305 C 
DOCKED: ATOM     52  O   UNL d   1      -4.900  15.081  -7.683 -0.19 +0.00    -0.251 OA
DOCKED: BRANCH  51  53
DOCKED: ATOM     53  O   UNL d   1      -4.086  13.066  -8.171 -0.23 +0.07    -0.481 OA
DOCKED: ATOM     54  H   UNL d   1      -3.684  13.277  -7.302 -0.43 -0.15    +0.295 HD
DOCKED: ENDBRANCH  51  53
DOCKED: ENDBRANCH  50  51
DOCKED: ENDBRANCH  49  50
DOCKED: ENDBRANCH  22  49
DOCKED: TORSDOF 13
DOCKED: TER
DOCKED: ENDMDL
________________________________________________________________________________


	BEGINNING GENETIC ALGORITHM DOCKING 41 of 100
Run: 41 Seed: 719805343 294007693 [ Run 41 of 100 GA/GALS ]
Beginning LAMARCKIAN GENETIC ALGORITHM (LGA), with a maximum of 25000000 energy evaluations.

Final-Value: -11.258


	FINAL GENETIC ALGORITHM DOCKED STATE
	_______________________________________________


Detailed state:  trans -10.787 12.962 -11.811 quatxyzw 0.557584 0.385883 0.298146 0.671791 center 0.153 0.018 -0.028 ntor 13 -72.4797 26.0321 -127.3605 -101.7173 50.6692 -179.7985 122.7686 -109.1273 75.3362 -22.8604 -27.8108 -127.7732 22.0408
State:	-10.787  12.962 -11.811   0.753  0.521  0.402 95.589    -72.48   26.03 -127.36 -101.72   50.67 -179.80  122.77 -109.13   75.34  -22.86  -27.81 -127.77   22.04

DOCKED: MODEL       41
DOCKED: USER    Run = 41
DOCKED: USER    DPF = D:/Protein_go_brrr/autodock/final/mut_D99N/heme/dock.dpf
DOCKED: USER  
DOCKED: USER    Estimated Free Energy of Binding    =   -5.00 kcal/mol  [=(1)+(2)+(3)-(4)]
DOCKED: USER    Estimated Inhibition Constant, Ki   =  217.36 uM (micromolar)  [Temperature = 298.15 K]
DOCKED: USER    
DOCKED: USER    (1) Final Intermolecular Energy     =   -8.87 kcal/mol
DOCKED: USER        vdW + Hbond + desolv Energy     =   -8.55 kcal/mol
DOCKED: USER        Electrostatic Energy            =   -0.33 kcal/mol
DOCKED: USER    (2) Final Total Internal Energy     =   -2.38 kcal/mol
DOCKED: USER    (3) Torsional Free Energy           =   +3.88 kcal/mol
DOCKED: USER    (4) Unbound System's Energy  [=(2)] =   -2.38 kcal/mol
DOCKED: USER    
DOCKED: USER    
DOCKED: USER    NEWDPF move heme_opt.pdbqt
DOCKED: USER    NEWDPF about 0.153000 0.018000 -0.028000
DOCKED: USER    NEWDPF tran0 -10.786626 12.962440 -11.810603
DOCKED: USER    NEWDPF quaternion0 0.557584 0.385883 0.298146 0.671791
DOCKED: USER    NEWDPF axisangle0 0.752738 0.520942 0.402498 95.589113
DOCKED: USER    NEWDPF quat0 0.752738 0.520942 0.402498 95.589113
DOCKED: USER    NEWDPF dihe0 -72.48 26.03 -127.36 -101.72 50.67 -179.80 122.77 -109.13 75.34 -22.86 -27.81 -127.77 22.04 
DOCKED: USER  keepresnum = 1 
DOCKED: USER  
DOCKED: REMARK  13 active torsions:
DOCKED: REMARK  status: ('A' for Active; 'I' for Inactive)
DOCKED: REMARK    1  A    between atoms: O_3  and  C_38 
DOCKED: REMARK    2  A    between atoms: O_4  and  C_40 
DOCKED: REMARK    3  A    between atoms: O_7  and  C_46 
DOCKED: REMARK    4  A    between atoms: O_9  and  C_48 
DOCKED: REMARK    5  A    between atoms: C_15  and  C_20 
DOCKED: REMARK    6  A    between atoms: C_16  and  C_23 
DOCKED: REMARK    7  A    between atoms: C_20  and  C_38 
DOCKED: REMARK    8  A    between atoms: C_23  and  C_40 
DOCKED: REMARK    9  A    between atoms: C_32  and  C_41 
DOCKED: REMARK   10  A    between atoms: C_37  and  C_45 
DOCKED: REMARK   11  A    between atoms: C_41  and  C_44 
DOCKED: REMARK   12  A    between atoms: C_44  and  C_46 
DOCKED: REMARK   13  A    between atoms: C_47  and  C_48 
DOCKED: USER                              x       y       z     vdW  Elec       q    Type
DOCKED: USER                           _______ _______ _______ _____ _____    ______ ____
DOCKED: ROOT
DOCKED: ATOM      1  O   UNL d   1     -12.446  13.769 -17.410 -0.07 +0.18    -0.289 OA
DOCKED: ATOM      2  O   UNL d   1     -15.913  10.366 -11.683 -0.13 +0.21    -0.289 OA
DOCKED: ATOM      3  N   UNL d   1     -11.005  13.418 -14.296 +0.14 +0.16    -0.247 NA
DOCKED: ATOM      4  N   UNL d   1     -13.193  12.253 -12.658 -0.11 +0.15    -0.247 NA
DOCKED: ATOM      5  N   UNL d   1     -11.645  12.875 -10.316 -0.15 +0.09    -0.354 N 
DOCKED: ATOM      6  N   UNL d   1      -9.389  14.099 -12.022 -0.07 +0.09    -0.354 N 
DOCKED: ATOM      7  C   UNL d   1     -10.388  14.576 -16.366 -0.09 -0.02    +0.084 A 
DOCKED: ATOM      8  C   UNL d   1     -14.901  10.958 -13.832 -0.22 -0.06    +0.084 A 
DOCKED: ATOM      9  C   UNL d   1     -13.659  11.854 -13.891 -0.21 -0.05    +0.058 A 
DOCKED: ATOM     10  C   UNL d   1     -10.059  14.219 -14.914 -0.16 -0.02    +0.058 A 
DOCKED: ATOM     11  C   UNL d   1     -11.679  13.820 -16.466 -0.11 -0.11    +0.193 A 
DOCKED: ATOM     12  C   UNL d   1     -11.930  13.139 -15.156 -0.13 -0.08    +0.109 A 
DOCKED: ATOM     13  C   UNL d   1     -15.076  10.955 -12.339 -0.16 -0.12    +0.193 A 
DOCKED: ATOM     14  C   UNL d   1     -10.676  16.070 -16.540 -0.02 -0.00    +0.026 C 
DOCKED: ATOM     15  C   UNL d   1     -13.106  12.253 -15.046 -0.08 -0.06    +0.055 C 
DOCKED: ATOM     16  C   UNL d   1     -14.594   9.531 -14.295 -0.24 -0.03    +0.026 C 
DOCKED: ATOM     17  C   UNL d   1     -13.982  11.782 -11.746 -0.23 -0.05    +0.109 A 
DOCKED: ATOM     18  C   UNL d   1      -8.898  14.592 -14.344 -0.14 -0.01    +0.050 C 
DOCKED: ATOM     19  C   UNL d   1      -8.471  14.238 -13.039 -0.15 -0.01    +0.045 A 
DOCKED: ATOM     20  C   UNL d   1     -12.831  12.518  -9.727 -0.27 -0.01    +0.045 A 
DOCKED: ATOM     21  C   UNL d   1     -13.923  11.995 -10.293 -0.24 -0.02    +0.057 C 
DOCKED: ATOM     22  C   UNL d   1     -11.427  13.338  -8.122 -0.23 +0.00    -0.019 A 
DOCKED: ATOM     23  C   UNL d   1     -10.735  13.381  -9.427 -0.22 -0.01    +0.045 A 
DOCKED: ATOM     24  C   UNL d   1     -12.666  12.824  -8.307 -0.28 +0.00    -0.022 A 
DOCKED: ATOM     25  C   UNL d   1      -8.753  13.844 -10.829 -0.20 -0.01    +0.049 A 
DOCKED: ATOM     26  C   UNL d   1      -7.210  14.032 -12.501 -0.14 +0.00    -0.018 A 
DOCKED: ATOM     27  C   UNL d   1      -7.396  13.764 -11.109 -0.19 -0.00    +0.003 A 
DOCKED: ATOM     28  C   UNL d   1      -9.479  13.816  -9.607 -0.24 -0.00    +0.052 C 
DOCKED: ATOM     29  C   UNL d   1     -13.731  12.573  -7.295 -0.39 -0.01    +0.046 C 
DOCKED: ATOM     30  C   UNL d   1      -5.912  14.078 -13.232 -0.10 -0.00    +0.046 C 
DOCKED: ATOM     31  H   UNL d   1     -11.470  12.692 -11.298 -0.21 -0.07    +0.166 HD
DOCKED: ATOM     32  H   UNL d   1     -10.387  14.214 -12.149 +0.01 -0.05    +0.166 HD
DOCKED: ENDROOT
DOCKED: BRANCH   7  33
DOCKED: ATOM     33  C   UNL d   1      -9.387  14.071 -17.410 -0.10 -0.03    +0.141 C 
DOCKED: BRANCH  33  34
DOCKED: ATOM     34  C   UNL d   1     -10.030  13.206 -18.460 -0.09 -0.13    +0.306 C 
DOCKED: ATOM     35  O   UNL d   1     -10.282  13.531 -19.607 -0.03 +0.08    -0.251 OA
DOCKED: BRANCH  34  36
DOCKED: ATOM     36  O   UNL d   1     -10.322  11.973 -18.007 -0.11 +0.42    -0.481 OA
DOCKED: ATOM     37  H   UNL d   1     -11.294  11.981 -17.879 -0.53 -0.51    +0.295 HD
DOCKED: ENDBRANCH  34  36
DOCKED: ENDBRANCH  33  34
DOCKED: ENDBRANCH   7  33
DOCKED: BRANCH  27  38
DOCKED: ATOM     38  C   UNL d   1      -6.345  13.509 -10.171 -0.24 -0.00    +0.017 C 
DOCKED: ATOM     39  C   UNL d   1      -5.694  14.445  -9.463 -0.17 -0.00    +0.092 C 
DOCKED: BRANCH  39  40
DOCKED: ATOM     40  C   UNL d   1      -4.646  14.049  -8.519 -0.18 -0.02    +0.330 C 
DOCKED: ATOM     41  O   UNL d   1      -3.950  14.774  -7.833 -0.24 +0.02    -0.246 OA
DOCKED: BRANCH  40  42
DOCKED: ATOM     42  O   UNL d   1      -4.536  12.712  -8.485 -0.11 +0.02    -0.477 OA
DOCKED: ATOM     43  H   UNL d   1      -4.172  12.529  -7.594 -0.34 -0.06    +0.295 HD
DOCKED: ENDBRANCH  40  42
DOCKED: ENDBRANCH  39  40
DOCKED: ENDBRANCH  27  38
DOCKED: BRANCH   8  44
DOCKED: ATOM     44  C   UNL d   1     -16.148  11.512 -14.529 -0.06 -0.07    +0.141 C 
DOCKED: BRANCH  44  45
DOCKED: ATOM     45  C   UNL d   1     -16.788  12.653 -13.785 +0.00 -0.10    +0.306 C 
DOCKED: ATOM     46  O   UNL d   1     -16.415  13.813 -13.772 -0.00 +0.06    -0.251 OA
DOCKED: BRANCH  45  47
DOCKED: ATOM     47  O   UNL d   1     -17.857  12.263 -13.067 +0.01 +0.14    -0.481 OA
DOCKED: ATOM     48  H   UNL d   1     -17.536  11.505 -12.534 +0.05 -0.11    +0.295 HD
DOCKED: ENDBRANCH  45  47
DOCKED: ENDBRANCH  44  45
DOCKED: ENDBRANCH   8  44
DOCKED: BRANCH  22  49
DOCKED: ATOM     49  C   UNL d   1     -10.823  13.811  -6.833 -0.29 -0.00    +0.048 C 
DOCKED: BRANCH  49  50
DOCKED: ATOM     50  C   UNL d   1      -9.568  13.019  -6.467 -0.32 -0.00    +0.125 C 
DOCKED: BRANCH  50  51
DOCKED: ATOM     51  C   UNL d   1      -8.640  13.844  -5.622 -0.24 +0.03    +0.305 C 
DOCKED: ATOM     52  O   UNL d   1      -7.520  14.229  -5.907 -0.26 -0.06    -0.251 OA
DOCKED: BRANCH  51  53
DOCKED: ATOM     53  O   UNL d   1      -9.180  14.139  -4.422 -0.18 -0.03    -0.481 OA
DOCKED: ATOM     54  H   UNL d   1      -9.074  13.314  -3.904 -0.05 -0.03    +0.295 HD
DOCKED: ENDBRANCH  51  53
DOCKED: ENDBRANCH  50  51
DOCKED: ENDBRANCH  49  50
DOCKED: ENDBRANCH  22  49
DOCKED: TORSDOF 13
DOCKED: TER
DOCKED: ENDMDL
________________________________________________________________________________


	BEGINNING GENETIC ALGORITHM DOCKING 42 of 100
Run: 42 Seed: 1561137945 1396227311 [ Run 42 of 100 GA/GALS ]
Beginning LAMARCKIAN GENETIC ALGORITHM (LGA), with a maximum of 25000000 energy evaluations.

Final-Value: -11.668


	FINAL GENETIC ALGORITHM DOCKED STATE
	_______________________________________________


Detailed state:  trans -12.711 15.221 -5.497 quatxyzw 0.395871 0.382463 -0.527989 -0.646711 center 0.153 0.018 -0.028 ntor 13 97.6416 146.0497 179.9351 17.4747 -132.2133 84.3486 144.6040 6.6709 39.3937 -10.3307 -76.0950 -106.0437 7.1301
State:	-12.711  15.221  -5.497   0.519  0.501 -0.692 -99.412     97.64  146.05  179.94   17.47 -132.21   84.35  144.60    6.67   39.39  -10.33  -76.09 -106.04    7.13

DOCKED: MODEL       42
DOCKED: USER    Run = 42
DOCKED: USER    DPF = D:/Protein_go_brrr/autodock/final/mut_D99N/heme/dock.dpf
DOCKED: USER  
DOCKED: USER    Estimated Free Energy of Binding    =   -3.11 kcal/mol  [=(1)+(2)+(3)-(4)]
DOCKED: USER    Estimated Inhibition Constant, Ki   =    5.28 mM (millimolar)  [Temperature = 298.15 K]
DOCKED: USER    
DOCKED: USER    (1) Final Intermolecular Energy     =   -6.98 kcal/mol
DOCKED: USER        vdW + Hbond + desolv Energy     =   -7.01 kcal/mol
DOCKED: USER        Electrostatic Energy            =   +0.02 kcal/mol
DOCKED: USER    (2) Final Total Internal Energy     =   -4.68 kcal/mol
DOCKED: USER    (3) Torsional Free Energy           =   +3.88 kcal/mol
DOCKED: USER    (4) Unbound System's Energy  [=(2)] =   -4.68 kcal/mol
DOCKED: USER    
DOCKED: USER    
DOCKED: USER    NEWDPF move heme_opt.pdbqt
DOCKED: USER    NEWDPF about 0.153000 0.018000 -0.028000
DOCKED: USER    NEWDPF tran0 -12.710880 15.221131 -5.496576
DOCKED: USER    NEWDPF quaternion0 0.395871 0.382463 -0.527989 -0.646711
DOCKED: USER    NEWDPF axisangle0 0.519016 0.501436 -0.692232 -99.411818
DOCKED: USER    NEWDPF quat0 0.519016 0.501436 -0.692232 -99.411818
DOCKED: USER    NEWDPF dihe0 97.64 146.05 179.94 17.47 -132.21 84.35 144.60 6.67 39.39 -10.33 -76.09 -106.04 7.13 
DOCKED: USER  keepresnum = 1 
DOCKED: USER  
DOCKED: REMARK  13 active torsions:
DOCKED: REMARK  status: ('A' for Active; 'I' for Inactive)
DOCKED: REMARK    1  A    between atoms: O_3  and  C_38 
DOCKED: REMARK    2  A    between atoms: O_4  and  C_40 
DOCKED: REMARK    3  A    between atoms: O_7  and  C_46 
DOCKED: REMARK    4  A    between atoms: O_9  and  C_48 
DOCKED: REMARK    5  A    between atoms: C_15  and  C_20 
DOCKED: REMARK    6  A    between atoms: C_16  and  C_23 
DOCKED: REMARK    7  A    between atoms: C_20  and  C_38 
DOCKED: REMARK    8  A    between atoms: C_23  and  C_40 
DOCKED: REMARK    9  A    between atoms: C_32  and  C_41 
DOCKED: REMARK   10  A    between atoms: C_37  and  C_45 
DOCKED: REMARK   11  A    between atoms: C_41  and  C_44 
DOCKED: REMARK   12  A    between atoms: C_44  and  C_46 
DOCKED: REMARK   13  A    between atoms: C_47  and  C_48 
DOCKED: USER                              x       y       z     vdW  Elec       q    Type
DOCKED: USER                           _______ _______ _______ _____ _____    ______ ____
DOCKED: ROOT
DOCKED: ATOM      1  O   UNL d   1     -11.837  16.978   0.063 -0.03 -0.05    -0.289 OA
DOCKED: ATOM      2  O   UNL d   1     -18.007  17.052  -4.218 -0.03 +0.02    -0.289 OA
DOCKED: ATOM      3  N   UNL d   1     -11.838  15.955  -3.231 -0.09 -0.01    -0.247 NA
DOCKED: ATOM      4  N   UNL d   1     -14.713  16.052  -3.976 -0.13 +0.02    -0.247 NA
DOCKED: ATOM      5  N   UNL d   1     -14.059  14.538  -6.331 -0.09 +0.04    -0.354 N 
DOCKED: ATOM      6  N   UNL d   1     -11.081  14.426  -5.541 -0.10 +0.01    -0.354 N 
DOCKED: ATOM      7  C   UNL d   1     -10.190  15.942  -1.417 -0.20 +0.03    +0.084 A 
DOCKED: ATOM      8  C   UNL d   1     -16.137  17.606  -2.739 -0.05 -0.00    +0.084 A 
DOCKED: ATOM      9  C   UNL d   1     -14.769  16.940  -2.925 -0.11 -0.00    +0.058 A 
DOCKED: ATOM     10  C   UNL d   1     -10.547  15.609  -2.868 -0.18 +0.01    +0.058 A 
DOCKED: ATOM     11  C   UNL d   1     -11.502  16.555  -1.029 -0.07 +0.03    +0.193 A 
DOCKED: ATOM     12  C   UNL d   1     -12.407  16.528  -2.221 -0.09 +0.01    +0.109 A 
DOCKED: ATOM     13  C   UNL d   1     -16.857  16.903  -3.855 -0.07 -0.01    +0.193 A 
DOCKED: ATOM     14  C   UNL d   1      -9.964  14.683  -0.577 -0.35 +0.01    +0.026 C 
DOCKED: ATOM     15  C   UNL d   1     -13.734  17.167  -2.102 -0.09 +0.00    +0.055 C 
DOCKED: ATOM     16  C   UNL d   1     -16.086  19.104  -3.052 -0.01 -0.00    +0.026 C 
DOCKED: ATOM     17  C   UNL d   1     -15.885  15.983  -4.521 -0.13 -0.01    +0.109 A 
DOCKED: ATOM     18  C   UNL d   1      -9.633  15.107  -3.720 -0.29 +0.01    +0.050 C 
DOCKED: ATOM     19  C   UNL d   1      -9.848  14.846  -5.097 -0.24 +0.00    +0.045 A 
DOCKED: ATOM     20  C   UNL d   1     -15.427  14.487  -6.391 -0.09 -0.01    +0.045 A 
DOCKED: ATOM     21  C   UNL d   1     -16.323  15.125  -5.631 -0.09 -0.01    +0.057 C 
DOCKED: ATOM     22  C   UNL d   1     -14.566  13.128  -8.013 -0.22 +0.00    -0.019 A 
DOCKED: ATOM     23  C   UNL d   1     -13.451  13.750  -7.271 -0.22 -0.01    +0.045 A 
DOCKED: ATOM     24  C   UNL d   1     -15.734  13.570  -7.488 -0.18 +0.00    -0.022 A 
DOCKED: ATOM     25  C   UNL d   1     -11.041  14.147  -6.887 -0.20 -0.00    +0.049 A 
DOCKED: ATOM     26  C   UNL d   1      -8.995  14.877  -6.189 -0.23 -0.00    -0.018 A 
DOCKED: ATOM     27  C   UNL d   1      -9.758  14.453  -7.320 -0.20 -0.00    +0.003 A 
DOCKED: ATOM     28  C   UNL d   1     -12.152  13.548  -7.541 -0.26 -0.01    +0.052 C 
DOCKED: ATOM     29  C   UNL d   1     -17.127  13.239  -7.902 -0.15 -0.01    +0.046 C 
DOCKED: ATOM     30  C   UNL d   1      -7.558  15.277  -6.186 -0.24 +0.01    +0.046 C 
DOCKED: ATOM     31  H   UNL d   1     -13.583  15.169  -5.695 +0.04 -0.01    +0.166 HD
DOCKED: ATOM     32  H   UNL d   1     -11.884  14.305  -4.934 +0.06 -0.00    +0.166 HD
DOCKED: ENDROOT
DOCKED: BRANCH   7  33
DOCKED: ATOM     33  C   UNL d   1      -9.051  16.951  -1.236 -0.10 +0.10    +0.141 C 
DOCKED: BRANCH  33  34
DOCKED: ATOM     34  C   UNL d   1      -9.531  18.377  -1.251 -0.05 +0.12    +0.306 C 
DOCKED: ATOM     35  O   UNL d   1      -9.829  19.026  -2.239 -0.01 -0.06    -0.251 OA
DOCKED: BRANCH  34  36
DOCKED: ATOM     36  O   UNL d   1      -9.614  18.909  -0.018 -0.03 -0.21    -0.481 OA
DOCKED: ATOM     37  H   UNL d   1     -10.496  18.634   0.311 +0.04 +0.09    +0.295 HD
DOCKED: ENDBRANCH  34  36
DOCKED: ENDBRANCH  33  34
DOCKED: ENDBRANCH   7  33
DOCKED: BRANCH  27  38
DOCKED: ATOM     38  C   UNL d   1      -9.255  14.325  -8.655 -0.21 -0.00    +0.017 C 
DOCKED: ATOM     39  C   UNL d   1      -9.073  13.166  -9.306 -0.14 -0.00    +0.092 C 
DOCKED: BRANCH  39  40
DOCKED: ATOM     40  C   UNL d   1      -8.566  13.173 -10.681 -0.18 -0.04    +0.330 C 
DOCKED: ATOM     41  O   UNL d   1      -7.409  13.260 -11.046 -0.17 +0.02    -0.246 OA
DOCKED: BRANCH  40  42
DOCKED: ATOM     42  O   UNL d   1      -9.583  13.056 -11.548 -0.08 +0.16    -0.477 OA
DOCKED: ATOM     43  H   UNL d   1     -10.222  12.476 -11.084 -0.21 -0.10    +0.295 HD
DOCKED: ENDBRANCH  40  42
DOCKED: ENDBRANCH  39  40
DOCKED: ENDBRANCH  27  38
DOCKED: BRANCH   8  44
DOCKED: ATOM     44  C   UNL d   1     -16.821  17.343  -1.393 -0.05 -0.00    +0.141 C 
DOCKED: BRANCH  44  45
DOCKED: ATOM     45  C   UNL d   1     -17.084  15.884  -1.135 -0.06 -0.02    +0.306 C 
DOCKED: ATOM     46  O   UNL d   1     -16.423  15.140  -0.431 -0.08 +0.01    -0.251 OA
DOCKED: BRANCH  45  47
DOCKED: ATOM     47  O   UNL d   1     -18.158  15.427  -1.804 -0.07 +0.02    -0.481 OA
DOCKED: ATOM     48  H   UNL d   1     -18.500  16.210  -2.287 +0.03 -0.01    +0.295 HD
DOCKED: ENDBRANCH  45  47
DOCKED: ENDBRANCH  44  45
DOCKED: ENDBRANCH   8  44
DOCKED: BRANCH  22  49
DOCKED: ATOM     49  C   UNL d   1     -14.389  12.160  -9.145 -0.18 -0.02    +0.048 C 
DOCKED: BRANCH  49  50
DOCKED: ATOM     50  C   UNL d   1     -13.978  12.864 -10.438 -0.16 -0.04    +0.125 C 
DOCKED: BRANCH  50  51
DOCKED: ATOM     51  C   UNL d   1     -12.520  12.646 -10.727 -0.18 -0.10    +0.305 C 
DOCKED: ATOM     52  O   UNL d   1     -11.720  12.002 -10.071 -0.28 +0.06    -0.251 OA
DOCKED: BRANCH  51  53
DOCKED: ATOM     53  O   UNL d   1     -12.130  13.277 -11.852 -0.07 +0.20    -0.481 OA
DOCKED: ATOM     54  H   UNL d   1     -11.279  12.848 -12.083 -0.43 -0.21    +0.295 HD
DOCKED: ENDBRANCH  51  53
DOCKED: ENDBRANCH  50  51
DOCKED: ENDBRANCH  49  50
DOCKED: ENDBRANCH  22  49
DOCKED: TORSDOF 13
DOCKED: TER
DOCKED: ENDMDL
________________________________________________________________________________


	BEGINNING GENETIC ALGORITHM DOCKING 43 of 100
Run: 43 Seed: 754064693 1416034017 [ Run 43 of 100 GA/GALS ]
Beginning LAMARCKIAN GENETIC ALGORITHM (LGA), with a maximum of 25000000 energy evaluations.

Final-Value: -10.699


	FINAL GENETIC ALGORITHM DOCKED STATE
	_______________________________________________


Detailed state:  trans 5.654 15.903 1.731 quatxyzw -0.710073 0.464213 -0.150627 -0.507558 center 0.153 0.018 -0.028 ntor 13 -176.9145 -141.8468 -140.7302 19.8345 -158.6061 111.5907 127.2663 97.0711 5.8049 -15.8630 -52.2114 -117.3864 10.0852
State:	  5.654  15.903   1.731  -0.824  0.539 -0.175 -118.997   -176.91 -141.85 -140.73   19.83 -158.61  111.59  127.27   97.07    5.80  -15.86  -52.21 -117.39   10.09

DOCKED: MODEL       43
DOCKED: USER    Run = 43
DOCKED: USER    DPF = D:/Protein_go_brrr/autodock/final/mut_D99N/heme/dock.dpf
DOCKED: USER  
DOCKED: USER    Estimated Free Energy of Binding    =   -2.82 kcal/mol  [=(1)+(2)+(3)-(4)]
DOCKED: USER    Estimated Inhibition Constant, Ki   =    8.59 mM (millimolar)  [Temperature = 298.15 K]
DOCKED: USER    
DOCKED: USER    (1) Final Intermolecular Energy     =   -6.70 kcal/mol
DOCKED: USER        vdW + Hbond + desolv Energy     =   -6.51 kcal/mol
DOCKED: USER        Electrostatic Energy            =   -0.18 kcal/mol
DOCKED: USER    (2) Final Total Internal Energy     =   -4.00 kcal/mol
DOCKED: USER    (3) Torsional Free Energy           =   +3.88 kcal/mol
DOCKED: USER    (4) Unbound System's Energy  [=(2)] =   -4.00 kcal/mol
DOCKED: USER    
DOCKED: USER    
DOCKED: USER    NEWDPF move heme_opt.pdbqt
DOCKED: USER    NEWDPF about 0.153000 0.018000 -0.028000
DOCKED: USER    NEWDPF tran0 5.653851 15.903461 1.730929
DOCKED: USER    NEWDPF quaternion0 -0.710073 0.464213 -0.150627 -0.507558
DOCKED: USER    NEWDPF axisangle0 -0.824116 0.538769 -0.174819 -118.997388
DOCKED: USER    NEWDPF quat0 -0.824116 0.538769 -0.174819 -118.997388
DOCKED: USER    NEWDPF dihe0 -176.91 -141.85 -140.73 19.83 -158.61 111.59 127.27 97.07 5.80 -15.86 -52.21 -117.39 10.09 
DOCKED: USER  keepresnum = 1 
DOCKED: USER  
DOCKED: REMARK  13 active torsions:
DOCKED: REMARK  status: ('A' for Active; 'I' for Inactive)
DOCKED: REMARK    1  A    between atoms: O_3  and  C_38 
DOCKED: REMARK    2  A    between atoms: O_4  and  C_40 
DOCKED: REMARK    3  A    between atoms: O_7  and  C_46 
DOCKED: REMARK    4  A    between atoms: O_9  and  C_48 
DOCKED: REMARK    5  A    between atoms: C_15  and  C_20 
DOCKED: REMARK    6  A    between atoms: C_16  and  C_23 
DOCKED: REMARK    7  A    between atoms: C_20  and  C_38 
DOCKED: REMARK    8  A    between atoms: C_23  and  C_40 
DOCKED: REMARK    9  A    between atoms: C_32  and  C_41 
DOCKED: REMARK   10  A    between atoms: C_37  and  C_45 
DOCKED: REMARK   11  A    between atoms: C_41  and  C_44 
DOCKED: REMARK   12  A    between atoms: C_44  and  C_46 
DOCKED: REMARK   13  A    between atoms: C_47  and  C_48 
DOCKED: USER                              x       y       z     vdW  Elec       q    Type
DOCKED: USER                           _______ _______ _______ _____ _____    ______ ____
DOCKED: ROOT
DOCKED: ATOM      1  O   UNL d   1       2.304  20.746   1.436 -0.03 -0.01    -0.289 OA
DOCKED: ATOM      2  O   UNL d   1       5.634  17.405   7.279 -0.07 +0.01    -0.289 OA
DOCKED: ATOM      3  N   UNL d   1       4.082  17.805   1.142 -0.10 -0.01    -0.247 NA
DOCKED: ATOM      4  N   UNL d   1       5.250  17.440   3.850 -0.10 -0.00    -0.247 NA
DOCKED: ATOM      5  N   UNL d   1       6.979  15.432   2.732 -0.11 +0.00    -0.354 N 
DOCKED: ATOM      6  N   UNL d   1       5.775  15.832  -0.078 -0.08 -0.02    -0.354 N 
DOCKED: ATOM      7  C   UNL d   1       3.011  19.343  -0.437 -0.06 +0.00    +0.084 A 
DOCKED: ATOM      8  C   UNL d   1       4.064  18.460   5.726 -0.15 +0.00    +0.084 A 
DOCKED: ATOM      9  C   UNL d   1       4.203  18.255   4.214 -0.07 +0.00    +0.058 A 
DOCKED: ATOM     10  C   UNL d   1       3.821  18.067  -0.192 -0.13 +0.00    +0.058 A 
DOCKED: ATOM     11  C   UNL d   1       2.845  19.747   0.997 -0.07 +0.01    +0.193 A 
DOCKED: ATOM     12  C   UNL d   1       3.516  18.722   1.857 -0.13 +0.00    +0.109 A 
DOCKED: ATOM     13  C   UNL d   1       5.249  17.639   6.150 -0.12 -0.00    +0.193 A 
DOCKED: ATOM     14  C   UNL d   1       3.830  20.414  -1.161 -0.02 +0.00    +0.026 C 
DOCKED: ATOM     15  C   UNL d   1       3.403  18.862   3.323 -0.11 +0.00    +0.055 C 
DOCKED: ATOM     16  C   UNL d   1       2.791  17.806   6.273 -0.28 +0.00    +0.026 C 
DOCKED: ATOM     17  C   UNL d   1       5.886  17.082   4.919 -0.15 -0.00    +0.109 A 
DOCKED: ATOM     18  C   UNL d   1       4.156  17.243  -1.203 -0.13 +0.00    +0.050 C 
DOCKED: ATOM     19  C   UNL d   1       4.829  16.002  -1.063 -0.16 +0.00    +0.045 A 
DOCKED: ATOM     20  C   UNL d   1       7.544  15.564   3.974 -0.16 -0.00    +0.045 A 
DOCKED: ATOM     21  C   UNL d   1       7.105  16.266   5.024 -0.16 -0.00    +0.057 C 
DOCKED: ATOM     22  C   UNL d   1       8.864  14.200   2.703 -0.14 -0.00    -0.019 A 
DOCKED: ATOM     23  C   UNL d   1       7.705  14.628   1.895 -0.18 +0.00    +0.045 A 
DOCKED: ATOM     24  C   UNL d   1       8.762  14.757   3.934 -0.12 +0.00    -0.022 A 
DOCKED: ATOM     25  C   UNL d   1       6.363  14.592  -0.181 -0.19 +0.00    +0.049 A 
DOCKED: ATOM     26  C   UNL d   1       4.775  14.831  -1.803 -0.21 -0.00    -0.018 A 
DOCKED: ATOM     27  C   UNL d   1       5.731  13.937  -1.229 -0.25 +0.00    +0.003 A 
DOCKED: ATOM     28  C   UNL d   1       7.478  14.244   0.629 -0.20 +0.00    +0.052 C 
DOCKED: ATOM     29  C   UNL d   1       9.679  14.615   5.101 -0.08 -0.00    +0.046 C 
DOCKED: ATOM     30  C   UNL d   1       3.888  14.555  -2.969 -0.26 -0.00    +0.046 C 
DOCKED: ATOM     31  H   UNL d   1       6.074  15.838   2.520 +0.05 +0.00    +0.166 HD
DOCKED: ATOM     32  H   UNL d   1       6.019  16.549   0.595 +0.04 +0.01    +0.166 HD
DOCKED: ENDROOT
DOCKED: BRANCH   7  33
DOCKED: ATOM     33  C   UNL d   1       1.644  19.137  -1.099 -0.06 +0.01    +0.141 C 
DOCKED: BRANCH  33  34
DOCKED: ATOM     34  C   UNL d   1       0.790  18.138  -0.367 -0.15 +0.02    +0.306 C 
DOCKED: ATOM     35  O   UNL d   1       0.567  16.990  -0.713 -0.21 -0.01    -0.251 OA
DOCKED: BRANCH  34  36
DOCKED: ATOM     36  O   UNL d   1       0.265  18.636   0.766 -0.12 -0.05    -0.481 OA
DOCKED: ATOM     37  H   UNL d   1       0.590  19.561   0.803 +0.05 +0.02    +0.295 HD
DOCKED: ENDBRANCH  34  36
DOCKED: ENDBRANCH  33  34
DOCKED: ENDBRANCH   7  33
DOCKED: BRANCH  27  38
DOCKED: ATOM     38  C   UNL d   1       6.011  12.614  -1.700 -0.18 +0.00    +0.017 C 
DOCKED: ATOM     39  C   UNL d   1       7.045  12.274  -2.483 -0.21 +0.03    +0.092 C 
DOCKED: BRANCH  39  40
DOCKED: ATOM     40  C   UNL d   1       7.230  10.876  -2.883 -0.17 +0.16    +0.330 C 
DOCKED: ATOM     41  O   UNL d   1       7.076  10.392  -3.988 -0.45 -0.26    -0.246 OA
DOCKED: BRANCH  40  42
DOCKED: ATOM     42  O   UNL d   1       7.620  10.143  -1.829 -0.11 -0.15    -0.477 OA
DOCKED: ATOM     43  H   UNL d   1       7.108  10.514  -1.082 -0.09 +0.10    +0.295 HD
DOCKED: ENDBRANCH  40  42
DOCKED: ENDBRANCH  39  40
DOCKED: ENDBRANCH  27  38
DOCKED: BRANCH   8  44
DOCKED: ATOM     44  C   UNL d   1       4.196  19.907   6.212 -0.05 +0.00    +0.141 C 
DOCKED: BRANCH  44  45
DOCKED: ATOM     45  C   UNL d   1       5.570  20.483   5.996 -0.01 +0.00    +0.306 C 
DOCKED: ATOM     46  O   UNL d   1       5.997  20.979   4.968 -0.01 -0.00    -0.251 OA
DOCKED: BRANCH  45  47
DOCKED: ATOM     47  O   UNL d   1       6.350  20.378   7.087 +0.00 +0.00    -0.481 OA
DOCKED: ATOM     48  H   UNL d   1       6.128  19.501   7.467 +0.02 -0.00    +0.295 HD
DOCKED: ENDBRANCH  45  47
DOCKED: ENDBRANCH  44  45
DOCKED: ENDBRANCH   8  44
DOCKED: BRANCH  22  49
DOCKED: ATOM     49  C   UNL d   1       9.961  13.309   2.199 -0.10 +0.00    +0.048 C 
DOCKED: BRANCH  49  50
DOCKED: ATOM     50  C   UNL d   1       9.499  11.858   2.066 -0.17 +0.01    +0.125 C 
DOCKED: BRANCH  50  51
DOCKED: ATOM     51  C   UNL d   1       9.816  11.316   0.702 -0.08 +0.04    +0.305 C 
DOCKED: ATOM     52  O   UNL d   1      10.827  10.733   0.350 -0.04 -0.02    -0.251 OA
DOCKED: BRANCH  51  53
DOCKED: ATOM     53  O   UNL d   1       8.823  11.554  -0.179 -0.52 -0.18    -0.481 OA
DOCKED: ATOM     54  H   UNL d   1       8.984  10.909  -0.899 +0.07 +0.08    +0.295 HD
DOCKED: ENDBRANCH  51  53
DOCKED: ENDBRANCH  50  51
DOCKED: ENDBRANCH  49  50
DOCKED: ENDBRANCH  22  49
DOCKED: TORSDOF 13
DOCKED: TER
DOCKED: ENDMDL
________________________________________________________________________________


	BEGINNING GENETIC ALGORITHM DOCKING 44 of 100
Run: 44 Seed: 540496888 1601614908 [ Run 44 of 100 GA/GALS ]
Beginning LAMARCKIAN GENETIC ALGORITHM (LGA), with a maximum of 25000000 energy evaluations.

Final-Value: -11.260


	FINAL GENETIC ALGORITHM DOCKED STATE
	_______________________________________________


Detailed state:  trans -6.718 17.132 8.737 quatxyzw 0.812807 0.294112 -0.178067 -0.470250 center 0.153 0.018 -0.028 ntor 13 -42.3541 -112.6373 125.0845 -151.0080 3.5372 34.5979 121.7091 -8.3964 -148.0973 139.4996 117.8262 -48.4832 39.2828
State:	 -6.718  17.132   8.737   0.921  0.333 -0.202 -123.899    -42.35 -112.64  125.08 -151.01    3.54   34.60  121.71   -8.40 -148.10  139.50  117.83  -48.48   39.28

DOCKED: MODEL       44
DOCKED: USER    Run = 44
DOCKED: USER    DPF = D:/Protein_go_brrr/autodock/final/mut_D99N/heme/dock.dpf
DOCKED: USER  
DOCKED: USER    Estimated Free Energy of Binding    =   -4.91 kcal/mol  [=(1)+(2)+(3)-(4)]
DOCKED: USER    Estimated Inhibition Constant, Ki   =  253.01 uM (micromolar)  [Temperature = 298.15 K]
DOCKED: USER    
DOCKED: USER    (1) Final Intermolecular Energy     =   -8.78 kcal/mol
DOCKED: USER        vdW + Hbond + desolv Energy     =   -8.32 kcal/mol
DOCKED: USER        Electrostatic Energy            =   -0.46 kcal/mol
DOCKED: USER    (2) Final Total Internal Energy     =   -2.48 kcal/mol
DOCKED: USER    (3) Torsional Free Energy           =   +3.88 kcal/mol
DOCKED: USER    (4) Unbound System's Energy  [=(2)] =   -2.48 kcal/mol
DOCKED: USER    
DOCKED: USER    
DOCKED: USER    NEWDPF move heme_opt.pdbqt
DOCKED: USER    NEWDPF about 0.153000 0.018000 -0.028000
DOCKED: USER    NEWDPF tran0 -6.717730 17.131968 8.736660
DOCKED: USER    NEWDPF quaternion0 0.812807 0.294112 -0.178067 -0.470250
DOCKED: USER    NEWDPF axisangle0 0.920993 0.333259 -0.201768 -123.898915
DOCKED: USER    NEWDPF quat0 0.920993 0.333259 -0.201768 -123.898915
DOCKED: USER    NEWDPF dihe0 -42.35 -112.64 125.08 -151.01 3.54 34.60 121.71 -8.40 -148.10 139.50 117.83 -48.48 39.28 
DOCKED: USER  keepresnum = 1 
DOCKED: USER  
DOCKED: REMARK  13 active torsions:
DOCKED: REMARK  status: ('A' for Active; 'I' for Inactive)
DOCKED: REMARK    1  A    between atoms: O_3  and  C_38 
DOCKED: REMARK    2  A    between atoms: O_4  and  C_40 
DOCKED: REMARK    3  A    between atoms: O_7  and  C_46 
DOCKED: REMARK    4  A    between atoms: O_9  and  C_48 
DOCKED: REMARK    5  A    between atoms: C_15  and  C_20 
DOCKED: REMARK    6  A    between atoms: C_16  and  C_23 
DOCKED: REMARK    7  A    between atoms: C_20  and  C_38 
DOCKED: REMARK    8  A    between atoms: C_23  and  C_40 
DOCKED: REMARK    9  A    between atoms: C_32  and  C_41 
DOCKED: REMARK   10  A    between atoms: C_37  and  C_45 
DOCKED: REMARK   11  A    between atoms: C_41  and  C_44 
DOCKED: REMARK   12  A    between atoms: C_44  and  C_46 
DOCKED: REMARK   13  A    between atoms: C_47  and  C_48 
DOCKED: USER                              x       y       z     vdW  Elec       q    Type
DOCKED: USER                           _______ _______ _______ _____ _____    ______ ____
DOCKED: ROOT
DOCKED: ATOM      1  O   UNL d   1      -9.920  14.176  12.707 -0.15 +0.10    -0.289 OA
DOCKED: ATOM      2  O   UNL d   1     -11.855  19.543   7.824 -0.01 +0.07    -0.289 OA
DOCKED: ATOM      3  N   UNL d   1      -7.639  15.732  10.641 -0.11 +0.06    -0.247 NA
DOCKED: ATOM      4  N   UNL d   1      -9.343  17.438   8.904 -0.09 +0.12    -0.247 NA
DOCKED: ATOM      5  N   UNL d   1      -7.068  17.798   7.183 -0.06 -0.03    -0.354 N 
DOCKED: ATOM      6  N   UNL d   1      -5.313  16.011   8.980 -0.17 +0.02    -0.354 N 
DOCKED: ATOM      7  C   UNL d   1      -7.548  13.855  12.214 -0.23 -0.02    +0.084 A 
DOCKED: ATOM      8  C   UNL d   1     -11.495  18.157   9.810 -0.07 -0.05    +0.084 A 
DOCKED: ATOM      9  C   UNL d   1     -10.222  17.317   9.957 -0.08 -0.04    +0.058 A 
DOCKED: ATOM     10  C   UNL d   1      -6.833  14.757  11.204 -0.24 -0.01    +0.058 A 
DOCKED: ATOM     11  C   UNL d   1      -8.896  14.505  12.136 -0.13 -0.06    +0.193 A 
DOCKED: ATOM     12  C   UNL d   1      -8.816  15.645  11.169 -0.15 -0.05    +0.109 A 
DOCKED: ATOM     13  C   UNL d   1     -11.192  18.748   8.461 -0.04 -0.08    +0.193 A 
DOCKED: ATOM     14  C   UNL d   1      -7.663  12.413  11.715 -0.56 -0.01    +0.026 C 
DOCKED: ATOM     15  C   UNL d   1     -10.010  16.497  10.997 -0.13 -0.04    +0.055 C 
DOCKED: ATOM     16  C   UNL d   1     -11.552  19.288  10.841 -0.02 -0.01    +0.026 C 
DOCKED: ATOM     17  C   UNL d   1      -9.863  18.227   8.020 -0.08 -0.04    +0.109 A 
DOCKED: ATOM     18  C   UNL d   1      -5.511  14.645  10.973 -0.32 -0.01    +0.050 C 
DOCKED: ATOM     19  C   UNL d   1      -4.750  15.487  10.122 -0.31 -0.01    +0.045 A 
DOCKED: ATOM     20  C   UNL d   1      -8.046  18.352   6.399 -0.12 +0.00    +0.045 A 
DOCKED: ATOM     21  C   UNL d   1      -9.323  18.604   6.706 -0.10 -0.00    +0.057 C 
DOCKED: ATOM     22  C   UNL d   1      -6.110  18.238   5.193 -0.22 -0.01    -0.019 A 
DOCKED: ATOM     23  C   UNL d   1      -5.864  17.687   6.540 -0.24 +0.01    +0.045 A 
DOCKED: ATOM     24  C   UNL d   1      -7.403  18.631   5.116 -0.15 -0.01    -0.022 A 
DOCKED: ATOM     25  C   UNL d   1      -4.377  16.719   8.262 -0.32 +0.00    +0.049 A 
DOCKED: ATOM     26  C   UNL d   1      -3.426  15.894  10.166 -0.31 +0.00    -0.018 A 
DOCKED: ATOM     27  C   UNL d   1      -3.201  16.688   8.999 -0.30 -0.00    +0.003 A 
DOCKED: ATOM     28  C   UNL d   1      -4.679  17.222   6.967 -0.34 +0.01    +0.052 C 
DOCKED: ATOM     29  C   UNL d   1      -8.122  19.256   3.968 -0.12 +0.02    +0.046 C 
DOCKED: ATOM     30  C   UNL d   1      -2.429  15.570  11.226 -0.28 -0.01    +0.046 C 
DOCKED: ATOM     31  H   UNL d   1      -7.236  17.580   8.159 +0.05 -0.01    +0.166 HD
DOCKED: ATOM     32  H   UNL d   1      -6.274  15.851   8.704 +0.07 -0.01    +0.166 HD
DOCKED: ENDROOT
DOCKED: BRANCH   7  33
DOCKED: ATOM     33  C   UNL d   1      -7.004  13.913  13.646 -0.16 -0.03    +0.141 C 
DOCKED: BRANCH  33  34
DOCKED: ATOM     34  C   UNL d   1      -6.102  12.753  13.970 -0.25 -0.08    +0.306 C 
DOCKED: ATOM     35  O   UNL d   1      -5.084  12.445  13.374 -0.28 +0.08    -0.251 OA
DOCKED: BRANCH  34  36
DOCKED: ATOM     36  O   UNL d   1      -6.528  12.045  15.031 -0.36 +0.16    -0.481 OA
DOCKED: ATOM     37  H   UNL d   1      -6.439  11.108  14.754 -0.35 -0.14    +0.295 HD
DOCKED: ENDBRANCH  34  36
DOCKED: ENDBRANCH  33  34
DOCKED: ENDBRANCH   7  33
DOCKED: BRANCH  27  38
DOCKED: ATOM     38  C   UNL d   1      -1.955  17.298   8.643 -0.31 +0.00    +0.017 C 
DOCKED: ATOM     39  C   UNL d   1      -1.675  17.850   7.453 -0.27 +0.01    +0.092 C 
DOCKED: BRANCH  39  40
DOCKED: ATOM     40  C   UNL d   1      -0.363  18.459   7.221 -0.20 +0.04    +0.330 C 
DOCKED: ATOM     41  O   UNL d   1       0.707  18.122   7.691 -0.19 -0.03    -0.246 OA
DOCKED: BRANCH  40  42
DOCKED: ATOM     42  O   UNL d   1      -0.477  19.491   6.371 -0.05 -0.05    -0.477 OA
DOCKED: ATOM     43  H   UNL d   1      -0.990  20.155   6.875 +0.06 +0.02    +0.295 HD
DOCKED: ENDBRANCH  40  42
DOCKED: ENDBRANCH  39  40
DOCKED: ENDBRANCH  27  38
DOCKED: BRANCH   8  44
DOCKED: ATOM     44  C   UNL d   1     -12.808  17.367   9.780 +0.02 -0.16    +0.141 C 
DOCKED: BRANCH  44  45
DOCKED: ATOM     45  C   UNL d   1     -13.407  17.159  11.145 -0.06 -0.24    +0.306 C 
DOCKED: ATOM     46  O   UNL d   1     -14.025  17.980  11.801 -0.02 +0.10    -0.251 OA
DOCKED: BRANCH  45  47
DOCKED: ATOM     47  O   UNL d   1     -13.171  15.926  11.629 -0.07 +0.53    -0.481 OA
DOCKED: ATOM     48  H   UNL d   1     -13.522  15.320  10.943 -0.11 -0.67    +0.295 HD
DOCKED: ENDBRANCH  45  47
DOCKED: ENDBRANCH  44  45
DOCKED: ENDBRANCH   8  44
DOCKED: BRANCH  22  49
DOCKED: ATOM     49  C   UNL d   1      -5.072  18.314   4.111 -0.28 +0.03    +0.048 C 
DOCKED: BRANCH  49  50
DOCKED: ATOM     50  C   UNL d   1      -3.731  18.818   4.644 -0.13 +0.04    +0.125 C 
DOCKED: BRANCH  50  51
DOCKED: ATOM     51  C   UNL d   1      -3.864  20.206   5.204 -0.03 +0.05    +0.305 C 
DOCKED: ATOM     52  O   UNL d   1      -4.787  20.985   5.047 -0.01 -0.04    -0.251 OA
DOCKED: BRANCH  51  53
DOCKED: ATOM     53  O   UNL d   1      -2.793  20.555   5.945 +0.00 -0.05    -0.481 OA
DOCKED: ATOM     54  H   UNL d   1      -2.056  20.041   5.554 +0.07 +0.04    +0.295 HD
DOCKED: ENDBRANCH  51  53
DOCKED: ENDBRANCH  50  51
DOCKED: ENDBRANCH  49  50
DOCKED: ENDBRANCH  22  49
DOCKED: TORSDOF 13
DOCKED: TER
DOCKED: ENDMDL
________________________________________________________________________________


	BEGINNING GENETIC ALGORITHM DOCKING 45 of 100
Run: 45 Seed: 1596552877 795840859 [ Run 45 of 100 GA/GALS ]
Beginning LAMARCKIAN GENETIC ALGORITHM (LGA), with a maximum of 25000000 energy evaluations.

Final-Value: -13.411


	FINAL GENETIC ALGORITHM DOCKED STATE
	_______________________________________________


Detailed state:  trans 13.709 -8.550 8.299 quatxyzw 0.172679 -0.361163 0.916130 0.021195 center 0.153 0.018 -0.028 ntor 13 -157.4421 68.4474 -141.3877 60.0133 -137.6340 180.0000 128.2541 -159.9435 162.6659 -15.1422 67.5762 21.0058 122.7163
State:	 13.709  -8.550   8.299   0.173 -0.361  0.916 177.571   -157.44   68.45 -141.39   60.01 -137.63  180.00  128.25 -159.94  162.67  -15.14   67.58   21.01  122.72

DOCKED: MODEL       45
DOCKED: USER    Run = 45
DOCKED: USER    DPF = D:/Protein_go_brrr/autodock/final/mut_D99N/heme/dock.dpf
DOCKED: USER  
DOCKED: USER    Estimated Free Energy of Binding    =   -7.71 kcal/mol  [=(1)+(2)+(3)-(4)]
DOCKED: USER    Estimated Inhibition Constant, Ki   =    2.23 uM (micromolar)  [Temperature = 298.15 K]
DOCKED: USER    
DOCKED: USER    (1) Final Intermolecular Energy     =  -11.59 kcal/mol
DOCKED: USER        vdW + Hbond + desolv Energy     =  -10.61 kcal/mol
DOCKED: USER        Electrostatic Energy            =   -0.98 kcal/mol
DOCKED: USER    (2) Final Total Internal Energy     =   -1.82 kcal/mol
DOCKED: USER    (3) Torsional Free Energy           =   +3.88 kcal/mol
DOCKED: USER    (4) Unbound System's Energy  [=(2)] =   -1.82 kcal/mol
DOCKED: USER    
DOCKED: USER    
DOCKED: USER    NEWDPF move heme_opt.pdbqt
DOCKED: USER    NEWDPF about 0.153000 0.018000 -0.028000
DOCKED: USER    NEWDPF tran0 13.709046 -8.549864 8.298834
DOCKED: USER    NEWDPF quaternion0 0.172679 -0.361163 0.916130 0.021195
DOCKED: USER    NEWDPF axisangle0 0.172718 -0.361244 0.916336 177.571052
DOCKED: USER    NEWDPF quat0 0.172718 -0.361244 0.916336 177.571052
DOCKED: USER    NEWDPF dihe0 -157.44 68.45 -141.39 60.01 -137.63 180.00 128.25 -159.94 162.67 -15.14 67.58 21.01 122.72 
DOCKED: USER  keepresnum = 1 
DOCKED: USER  
DOCKED: REMARK  13 active torsions:
DOCKED: REMARK  status: ('A' for Active; 'I' for Inactive)
DOCKED: REMARK    1  A    between atoms: O_3  and  C_38 
DOCKED: REMARK    2  A    between atoms: O_4  and  C_40 
DOCKED: REMARK    3  A    between atoms: O_7  and  C_46 
DOCKED: REMARK    4  A    between atoms: O_9  and  C_48 
DOCKED: REMARK    5  A    between atoms: C_15  and  C_20 
DOCKED: REMARK    6  A    between atoms: C_16  and  C_23 
DOCKED: REMARK    7  A    between atoms: C_20  and  C_38 
DOCKED: REMARK    8  A    between atoms: C_23  and  C_40 
DOCKED: REMARK    9  A    between atoms: C_32  and  C_41 
DOCKED: REMARK   10  A    between atoms: C_37  and  C_45 
DOCKED: REMARK   11  A    between atoms: C_41  and  C_44 
DOCKED: REMARK   12  A    between atoms: C_44  and  C_46 
DOCKED: REMARK   13  A    between atoms: C_47  and  C_48 
DOCKED: USER                              x       y       z     vdW  Elec       q    Type
DOCKED: USER                           _______ _______ _______ _____ _____    ______ ____
DOCKED: ROOT
DOCKED: ATOM      1  O   UNL d   1      19.050  -9.303   5.920 -0.54 -0.08    -0.289 OA
DOCKED: ATOM      2  O   UNL d   1      16.098  -3.504   9.668 -0.15 +0.05    -0.289 OA
DOCKED: ATOM      3  N   UNL d   1      15.783  -9.261   7.024 -0.18 +0.09    -0.247 NA
DOCKED: ATOM      4  N   UNL d   1      15.633  -6.759   8.620 -0.16 +0.09    -0.247 NA
DOCKED: ATOM      5  N   UNL d   1      13.133  -7.698   9.686 -0.12 +0.14    -0.354 N 
DOCKED: ATOM      6  N   UNL d   1      13.306 -10.300   8.041 +0.11 +0.18    -0.354 N 
DOCKED: ATOM      7  C   UNL d   1      17.229 -10.932   5.964 -0.22 -0.02    +0.084 A 
DOCKED: ATOM      8  C   UNL d   1      17.195  -4.970   8.043 -0.17 -0.01    +0.084 A 
DOCKED: ATOM      9  C   UNL d   1      16.711  -6.409   7.837 -0.23 -0.01    +0.058 A 
DOCKED: ATOM     10  C   UNL d   1      15.865 -10.561   6.554 -0.25 -0.02    +0.058 A 
DOCKED: ATOM     11  C   UNL d   1      17.897  -9.606   6.166 -0.21 -0.00    +0.193 A 
DOCKED: ATOM     12  C   UNL d   1      16.910  -8.670   6.792 -0.26 -0.01    +0.109 A 
DOCKED: ATOM     13  C   UNL d   1      16.216  -4.581   9.115 -0.11 -0.05    +0.193 A 
DOCKED: ATOM     14  C   UNL d   1      17.953 -11.985   6.807 -0.09 -0.00    +0.026 C 
DOCKED: ATOM     15  C   UNL d   1      17.318  -7.267   7.003 -0.20 -0.00    +0.055 C 
DOCKED: ATOM     16  C   UNL d   1      16.941  -4.103   6.807 -0.32 -0.00    +0.026 C 
DOCKED: ATOM     17  C   UNL d   1      15.331  -5.755   9.379 -0.12 -0.04    +0.109 A 
DOCKED: ATOM     18  C   UNL d   1      14.828 -11.419   6.522 -0.27 -0.02    +0.050 C 
DOCKED: ATOM     19  C   UNL d   1      13.511 -11.134   6.966 -0.15 -0.02    +0.045 A 
DOCKED: ATOM     20  C   UNL d   1      13.346  -6.618  10.502 -0.22 -0.02    +0.045 A 
DOCKED: ATOM     21  C   UNL d   1      14.296  -5.680  10.420 -0.25 -0.02    +0.057 C 
DOCKED: ATOM     22  C   UNL d   1      11.529  -7.772  11.264 -0.16 +0.01    -0.019 A 
DOCKED: ATOM     23  C   UNL d   1      12.058  -8.455  10.067 -0.21 -0.02    +0.045 A 
DOCKED: ATOM     24  C   UNL d   1      12.295  -6.684  11.516 -0.15 +0.01    -0.022 A 
DOCKED: ATOM     25  C   UNL d   1      11.968 -10.236   8.355 -0.11 -0.02    +0.049 A 
DOCKED: ATOM     26  C   UNL d   1      12.273 -11.596   6.547 -0.28 +0.01    -0.018 A 
DOCKED: ATOM     27  C   UNL d   1      11.301 -11.010   7.416 -0.28 -0.00    +0.003 A 
DOCKED: ATOM     28  C   UNL d   1      11.525  -9.561   9.524 -0.22 -0.02    +0.052 C 
DOCKED: ATOM     29  C   UNL d   1      12.154  -5.676  12.605 -0.12 -0.02    +0.046 C 
DOCKED: ATOM     30  C   UNL d   1      12.006 -12.523   5.410 -0.13 -0.02    +0.046 C 
DOCKED: ATOM     31  H   UNL d   1      13.687  -7.842   8.848 -0.18 -0.09    +0.166 HD
DOCKED: ATOM     32  H   UNL d   1      14.055  -9.838   8.543 -0.07 -0.07    +0.166 HD
DOCKED: ENDROOT
DOCKED: BRANCH   7  33
DOCKED: ATOM     33  C   UNL d   1      17.221 -11.310   4.478 -0.30 -0.07    +0.141 C 
DOCKED: BRANCH  33  34
DOCKED: ATOM     34  C   UNL d   1      18.293 -12.305   4.128 -0.14 -0.09    +0.306 C 
DOCKED: ATOM     35  O   UNL d   1      19.459 -12.050   3.878 -0.21 -0.01    -0.251 OA
DOCKED: BRANCH  34  36
DOCKED: ATOM     36  O   UNL d   1      17.840 -13.572   4.114 -0.05 +0.30    -0.481 OA
DOCKED: ATOM     37  H   UNL d   1      16.868 -13.485   4.017 -0.33 -0.51    +0.295 HD
DOCKED: ENDBRANCH  34  36
DOCKED: ENDBRANCH  33  34
DOCKED: ENDBRANCH   7  33
DOCKED: BRANCH  27  38
DOCKED: ATOM     38  C   UNL d   1       9.888 -11.235   7.344 -0.35 -0.01    +0.017 C 
DOCKED: ATOM     39  C   UNL d   1       8.960 -10.280   7.183 -0.46 -0.03    +0.092 C 
DOCKED: BRANCH  39  40
DOCKED: ATOM     40  C   UNL d   1       7.543 -10.645   7.107 -0.30 -0.07    +0.330 C 
DOCKED: ATOM     41  O   UNL d   1       6.587  -9.900   6.998 -0.88 -0.00    -0.246 OA
DOCKED: BRANCH  40  42
DOCKED: ATOM     42  O   UNL d   1       7.406 -11.979   7.167 -0.26 +0.16    -0.477 OA
DOCKED: ATOM     43  H   UNL d   1       7.092 -12.223   6.272 -0.39 -0.21    +0.295 HD
DOCKED: ENDBRANCH  40  42
DOCKED: ENDBRANCH  39  40
DOCKED: ENDBRANCH  27  38
DOCKED: BRANCH   8  44
DOCKED: ATOM     44  C   UNL d   1      18.638  -4.823   8.537 -0.06 -0.00    +0.141 C 
DOCKED: BRANCH  44  45
DOCKED: ATOM     45  C   UNL d   1      18.854  -5.387   9.916 +0.00 -0.00    +0.306 C 
DOCKED: ATOM     46  O   UNL d   1      19.083  -6.550  10.198 -0.00 -0.00    -0.251 OA
DOCKED: BRANCH  45  47
DOCKED: ATOM     47  O   UNL d   1      18.742  -4.453  10.878 +0.01 +0.01    -0.481 OA
DOCKED: ATOM     48  H   UNL d   1      18.011  -3.873  10.576 +0.04 -0.01    +0.295 HD
DOCKED: ENDBRANCH  45  47
DOCKED: ENDBRANCH  44  45
DOCKED: ENDBRANCH   8  44
DOCKED: BRANCH  22  49
DOCKED: ATOM     49  C   UNL d   1      10.344  -8.250  12.052 -0.15 -0.04    +0.048 C 
DOCKED: BRANCH  49  50
DOCKED: ATOM     50  C   UNL d   1      10.326  -9.772  12.185 -0.07 -0.07    +0.125 C 
DOCKED: BRANCH  50  51
DOCKED: ATOM     51  C   UNL d   1       9.186 -10.365  11.406 -0.08 -0.25    +0.305 C 
DOCKED: ATOM     52  O   UNL d   1       8.746 -11.499  11.479 -0.06 +0.16    -0.251 OA
DOCKED: BRANCH  51  53
DOCKED: ATOM     53  O   UNL d   1       8.652  -9.479  10.542 -0.21 +0.60    -0.481 OA
DOCKED: ATOM     54  H   UNL d   1       7.716  -9.407  10.823 -0.31 -0.79    +0.295 HD
DOCKED: ENDBRANCH  51  53
DOCKED: ENDBRANCH  50  51
DOCKED: ENDBRANCH  49  50
DOCKED: ENDBRANCH  22  49
DOCKED: TORSDOF 13
DOCKED: TER
DOCKED: ENDMDL
________________________________________________________________________________


	BEGINNING GENETIC ALGORITHM DOCKING 46 of 100
Run: 46 Seed: 956282796 470063659 [ Run 46 of 100 GA/GALS ]
Beginning LAMARCKIAN GENETIC ALGORITHM (LGA), with a maximum of 25000000 energy evaluations.

Final-Value: -11.748


	FINAL GENETIC ALGORITHM DOCKED STATE
	_______________________________________________


Detailed state:  trans 8.929 11.152 2.377 quatxyzw -0.716577 0.225932 -0.622128 -0.220065 center 0.153 0.018 -0.028 ntor 13 176.2189 152.7032 -141.5781 88.5538 -152.7652 -66.5115 129.6737 89.9805 12.6804 -11.8158 -26.0958 8.2484 0.0076
State:	  8.929  11.152   2.377  -0.735  0.232 -0.638 -154.574    176.22  152.70 -141.58   88.55 -152.77  -66.51  129.67   89.98   12.68  -11.82  -26.10    8.25    0.01

DOCKED: MODEL       46
DOCKED: USER    Run = 46
DOCKED: USER    DPF = D:/Protein_go_brrr/autodock/final/mut_D99N/heme/dock.dpf
DOCKED: USER  
DOCKED: USER    Estimated Free Energy of Binding    =   -3.89 kcal/mol  [=(1)+(2)+(3)-(4)]
DOCKED: USER    Estimated Inhibition Constant, Ki   =    1.42 mM (millimolar)  [Temperature = 298.15 K]
DOCKED: USER    
DOCKED: USER    (1) Final Intermolecular Energy     =   -7.76 kcal/mol
DOCKED: USER        vdW + Hbond + desolv Energy     =   -7.50 kcal/mol
DOCKED: USER        Electrostatic Energy            =   -0.27 kcal/mol
DOCKED: USER    (2) Final Total Internal Energy     =   -3.98 kcal/mol
DOCKED: USER    (3) Torsional Free Energy           =   +3.88 kcal/mol
DOCKED: USER    (4) Unbound System's Energy  [=(2)] =   -3.98 kcal/mol
DOCKED: USER    
DOCKED: USER    
DOCKED: USER    NEWDPF move heme_opt.pdbqt
DOCKED: USER    NEWDPF about 0.153000 0.018000 -0.028000
DOCKED: USER    NEWDPF tran0 8.929343 11.151940 2.377010
DOCKED: USER    NEWDPF quaternion0 -0.716577 0.225932 -0.622128 -0.220065
DOCKED: USER    NEWDPF axisangle0 -0.734585 0.231610 -0.637763 -154.574345
DOCKED: USER    NEWDPF quat0 -0.734585 0.231610 -0.637763 -154.574345
DOCKED: USER    NEWDPF dihe0 176.22 152.70 -141.58 88.55 -152.77 -66.51 129.67 89.98 12.68 -11.82 -26.10 8.25 0.01 
DOCKED: USER  keepresnum = 1 
DOCKED: USER  
DOCKED: REMARK  13 active torsions:
DOCKED: REMARK  status: ('A' for Active; 'I' for Inactive)
DOCKED: REMARK    1  A    between atoms: O_3  and  C_38 
DOCKED: REMARK    2  A    between atoms: O_4  and  C_40 
DOCKED: REMARK    3  A    between atoms: O_7  and  C_46 
DOCKED: REMARK    4  A    between atoms: O_9  and  C_48 
DOCKED: REMARK    5  A    between atoms: C_15  and  C_20 
DOCKED: REMARK    6  A    between atoms: C_16  and  C_23 
DOCKED: REMARK    7  A    between atoms: C_20  and  C_38 
DOCKED: REMARK    8  A    between atoms: C_23  and  C_40 
DOCKED: REMARK    9  A    between atoms: C_32  and  C_41 
DOCKED: REMARK   10  A    between atoms: C_37  and  C_45 
DOCKED: REMARK   11  A    between atoms: C_41  and  C_44 
DOCKED: REMARK   12  A    between atoms: C_44  and  C_46 
DOCKED: REMARK   13  A    between atoms: C_47  and  C_48 
DOCKED: USER                              x       y       z     vdW  Elec       q    Type
DOCKED: USER                           _______ _______ _______ _____ _____    ______ ____
DOCKED: ROOT
DOCKED: ATOM      1  O   UNL d   1       8.792  13.174  -3.159 -0.01 -0.05    -0.289 OA
DOCKED: ATOM      2  O   UNL d   1       7.278  16.568   3.367 -0.06 +0.00    -0.289 OA
DOCKED: ATOM      3  N   UNL d   1       8.879  11.525  -0.131 -0.50 -0.09    -0.247 NA
DOCKED: ATOM      4  N   UNL d   1       8.454  13.702   1.845 -0.12 -0.02    -0.247 NA
DOCKED: ATOM      5  N   UNL d   1       9.298  11.876   3.900 -0.03 -0.01    -0.354 N 
DOCKED: ATOM      6  N   UNL d   1       9.756   9.629   1.840 -0.09 -0.01    -0.354 N 
DOCKED: ATOM      7  C   UNL d   1       9.460  10.936  -2.439 -0.06 +0.02    +0.084 A 
DOCKED: ATOM      8  C   UNL d   1       7.233  15.678   1.087 -0.13 +0.00    +0.084 A 
DOCKED: ATOM      9  C   UNL d   1       7.883  14.330   0.761 -0.15 +0.00    +0.058 A 
DOCKED: ATOM     10  C   UNL d   1       9.369  10.533  -0.964 -0.09 +0.01    +0.058 A 
DOCKED: ATOM     11  C   UNL d   1       8.917  12.326  -2.295 -0.04 +0.04    +0.193 A 
DOCKED: ATOM     12  C   UNL d   1       8.578  12.554  -0.854 -0.10 +0.02    +0.109 A 
DOCKED: ATOM     13  C   UNL d   1       7.572  15.717   2.550 -0.10 +0.00    +0.193 A 
DOCKED: ATOM     14  C   UNL d   1      10.910  11.018  -2.924 -0.01 +0.00    +0.026 C 
DOCKED: ATOM     15  C   UNL d   1       7.936  13.832  -0.484 -0.15 +0.01    +0.055 C 
DOCKED: ATOM     16  C   UNL d   1       5.709  15.624   0.936 -0.17 +0.00    +0.026 C 
DOCKED: ATOM     17  C   UNL d   1       8.318  14.466   2.882 -0.15 +0.00    +0.109 A 
DOCKED: ATOM     18  C   UNL d   1       9.662   9.283  -0.558 -0.15 +0.01    +0.050 C 
DOCKED: ATOM     19  C   UNL d   1       9.528   8.796   0.768 -0.16 +0.00    +0.045 A 
DOCKED: ATOM     20  C   UNL d   1       9.269  13.043   4.619 -0.15 -0.00    +0.045 A 
DOCKED: ATOM     21  C   UNL d   1       8.822  14.246   4.246 -0.16 -0.00    +0.057 C 
DOCKED: ATOM     22  C   UNL d   1      10.172  11.396   5.919 -0.13 -0.00    -0.019 A 
DOCKED: ATOM     23  C   UNL d   1       9.828  10.826   4.602 +0.10 +0.00    +0.045 A 
DOCKED: ATOM     24  C   UNL d   1       9.838  12.708   5.924 -0.13 +0.00    -0.022 A 
DOCKED: ATOM     25  C   UNL d   1       9.659   8.932   3.022 -0.20 +0.00    +0.049 A 
DOCKED: ATOM     26  C   UNL d   1       9.240   7.535   1.266 -0.27 -0.00    -0.018 A 
DOCKED: ATOM     27  C   UNL d   1       9.305   7.632   2.691 -0.28 +0.00    +0.003 A 
DOCKED: ATOM     28  C   UNL d   1      10.007   9.542   4.258 -0.10 +0.00    +0.052 C 
DOCKED: ATOM     29  C   UNL d   1       9.980  13.704   7.025 -0.08 -0.00    +0.046 C 
DOCKED: ATOM     30  C   UNL d   1       8.921   6.315   0.471 -0.32 +0.00    +0.046 C 
DOCKED: ATOM     31  H   UNL d   1       8.886  11.818   2.975 +0.04 +0.01    +0.166 HD
DOCKED: ATOM     32  H   UNL d   1      10.000  10.608   1.747 +0.03 +0.01    +0.166 HD
DOCKED: ENDROOT
DOCKED: BRANCH   7  33
DOCKED: ATOM     33  C   UNL d   1       8.591  10.116  -3.399 -0.16 +0.06    +0.141 C 
DOCKED: BRANCH  33  34
DOCKED: ATOM     34  C   UNL d   1       7.125  10.210  -3.076 -0.20 +0.19    +0.306 C 
DOCKED: ATOM     35  O   UNL d   1       6.472   9.394  -2.448 -0.85 -0.14    -0.251 OA
DOCKED: BRANCH  34  36
DOCKED: ATOM     36  O   UNL d   1       6.558  11.329  -3.562 -0.38 -0.40    -0.481 OA
DOCKED: ATOM     37  H   UNL d   1       7.307  11.848  -3.923 +0.08 +0.21    +0.295 HD
DOCKED: ENDBRANCH  34  36
DOCKED: ENDBRANCH  33  34
DOCKED: ENDBRANCH   7  33
DOCKED: BRANCH  27  38
DOCKED: ATOM     38  C   UNL d   1       9.088   6.549   3.602 -0.36 +0.00    +0.017 C 
DOCKED: ATOM     39  C   UNL d   1       8.342   6.611   4.716 -0.34 +0.02    +0.092 C 
DOCKED: BRANCH  39  40
DOCKED: ATOM     40  C   UNL d   1       8.185   5.422   5.557 -0.27 +0.12    +0.330 C 
DOCKED: ATOM     41  O   UNL d   1       7.585   4.397   5.292 -0.37 -0.10    -0.246 OA
DOCKED: BRANCH  40  42
DOCKED: ATOM     42  O   UNL d   1       8.824   5.594   6.724 -0.64 -0.31    -0.477 OA
DOCKED: ATOM     43  H   UNL d   1       9.543   6.223   6.508 +0.12 +0.12    +0.295 HD
DOCKED: ENDBRANCH  40  42
DOCKED: ENDBRANCH  39  40
DOCKED: ENDBRANCH  27  38
DOCKED: BRANCH   8  44
DOCKED: ATOM     44  C   UNL d   1       7.820  16.889   0.355 -0.04 +0.00    +0.141 C 
DOCKED: BRANCH  44  45
DOCKED: ATOM     45  C   UNL d   1       9.272  17.127   0.671 -0.00 +0.01    +0.306 C 
DOCKED: ATOM     46  O   UNL d   1      10.230  16.608   0.124 -0.00 -0.01    -0.251 OA
DOCKED: BRANCH  45  47
DOCKED: ATOM     47  O   UNL d   1       9.443  17.995   1.685 +0.00 -0.01    -0.481 OA
DOCKED: ATOM     48  H   UNL d   1       8.718  17.787   2.313 +0.02 +0.00    +0.295 HD
DOCKED: ENDBRANCH  45  47
DOCKED: ENDBRANCH  44  45
DOCKED: ENDBRANCH   8  44
DOCKED: BRANCH  22  49
DOCKED: ATOM     49  C   UNL d   1      10.804  10.617   7.035 -0.10 +0.00    +0.048 C 
DOCKED: BRANCH  49  50
DOCKED: ATOM     50  C   UNL d   1       9.765   9.846   7.849 -0.05 +0.01    +0.125 C 
DOCKED: BRANCH  50  51
DOCKED: ATOM     51  C   UNL d   1      10.385   8.651   8.516 -0.06 +0.04    +0.305 C 
DOCKED: ATOM     52  O   UNL d   1      10.990   8.621   9.574 -0.03 -0.03    -0.251 OA
DOCKED: BRANCH  51  53
DOCKED: ATOM     53  O   UNL d   1      10.218   7.526   7.793 -0.04 -0.12    -0.481 OA
DOCKED: ATOM     54  H   UNL d   1       9.387   7.141   8.140 +0.10 +0.10    +0.295 HD
DOCKED: ENDBRANCH  51  53
DOCKED: ENDBRANCH  50  51
DOCKED: ENDBRANCH  49  50
DOCKED: ENDBRANCH  22  49
DOCKED: TORSDOF 13
DOCKED: TER
DOCKED: ENDMDL
________________________________________________________________________________


	BEGINNING GENETIC ALGORITHM DOCKING 47 of 100
Run: 47 Seed: 791003692 1647660168 [ Run 47 of 100 GA/GALS ]
Beginning LAMARCKIAN GENETIC ALGORITHM (LGA), with a maximum of 25000000 energy evaluations.

Final-Value: -13.873


	FINAL GENETIC ALGORITHM DOCKED STATE
	_______________________________________________


Detailed state:  trans 13.342 -10.796 7.673 quatxyzw -0.921483 0.280650 0.200172 -0.178984 center 0.153 0.018 -0.028 ntor 13 88.3834 167.0199 38.0889 -54.7235 -132.8950 129.4226 -179.8240 68.4021 46.4823 146.3709 -56.3862 -170.0017 15.0713
State:	 13.342 -10.796   7.673  -0.937  0.285  0.203 -159.379     88.38  167.02   38.09  -54.72 -132.89  129.42 -179.82   68.40   46.48  146.37  -56.39 -170.00   15.07

DOCKED: MODEL       47
DOCKED: USER    Run = 47
DOCKED: USER    DPF = D:/Protein_go_brrr/autodock/final/mut_D99N/heme/dock.dpf
DOCKED: USER  
DOCKED: USER    Estimated Free Energy of Binding    =   -7.39 kcal/mol  [=(1)+(2)+(3)-(4)]
DOCKED: USER    Estimated Inhibition Constant, Ki   =    3.83 uM (micromolar)  [Temperature = 298.15 K]
DOCKED: USER    
DOCKED: USER    (1) Final Intermolecular Energy     =  -11.27 kcal/mol
DOCKED: USER        vdW + Hbond + desolv Energy     =  -10.40 kcal/mol
DOCKED: USER        Electrostatic Energy            =   -0.86 kcal/mol
DOCKED: USER    (2) Final Total Internal Energy     =   -2.61 kcal/mol
DOCKED: USER    (3) Torsional Free Energy           =   +3.88 kcal/mol
DOCKED: USER    (4) Unbound System's Energy  [=(2)] =   -2.61 kcal/mol
DOCKED: USER    
DOCKED: USER    
DOCKED: USER    NEWDPF move heme_opt.pdbqt
DOCKED: USER    NEWDPF about 0.153000 0.018000 -0.028000
DOCKED: USER    NEWDPF tran0 13.342341 -10.795534 7.672713
DOCKED: USER    NEWDPF quaternion0 -0.921483 0.280650 0.200172 -0.178984
DOCKED: USER    NEWDPF axisangle0 -0.936608 0.285257 0.203458 -159.378837
DOCKED: USER    NEWDPF quat0 -0.936608 0.285257 0.203458 -159.378837
DOCKED: USER    NEWDPF dihe0 88.38 167.02 38.09 -54.72 -132.89 129.42 -179.82 68.40 46.48 146.37 -56.39 -170.00 15.07 
DOCKED: USER  keepresnum = 1 
DOCKED: USER  
DOCKED: REMARK  13 active torsions:
DOCKED: REMARK  status: ('A' for Active; 'I' for Inactive)
DOCKED: REMARK    1  A    between atoms: O_3  and  C_38 
DOCKED: REMARK    2  A    between atoms: O_4  and  C_40 
DOCKED: REMARK    3  A    between atoms: O_7  and  C_46 
DOCKED: REMARK    4  A    between atoms: O_9  and  C_48 
DOCKED: REMARK    5  A    between atoms: C_15  and  C_20 
DOCKED: REMARK    6  A    between atoms: C_16  and  C_23 
DOCKED: REMARK    7  A    between atoms: C_20  and  C_38 
DOCKED: REMARK    8  A    between atoms: C_23  and  C_40 
DOCKED: REMARK    9  A    between atoms: C_32  and  C_41 
DOCKED: REMARK   10  A    between atoms: C_37  and  C_45 
DOCKED: REMARK   11  A    between atoms: C_41  and  C_44 
DOCKED: REMARK   12  A    between atoms: C_44  and  C_46 
DOCKED: REMARK   13  A    between atoms: C_47  and  C_48 
DOCKED: USER                              x       y       z     vdW  Elec       q    Type
DOCKED: USER                           _______ _______ _______ _____ _____    ______ ____
DOCKED: ROOT
DOCKED: ATOM      1  O   UNL d   1       7.896  -9.324   9.384 -0.52 +0.31    -0.289 OA
DOCKED: ATOM      2  O   UNL d   1      14.594  -6.538  11.325 -0.04 +0.06    -0.289 OA
DOCKED: ATOM      3  N   UNL d   1      10.869 -10.615   8.206 -0.16 +0.08    -0.247 NA
DOCKED: ATOM      4  N   UNL d   1      12.901  -8.717   9.253 -0.08 +0.11    -0.247 NA
DOCKED: ATOM      5  N   UNL d   1      14.802  -9.902   7.450 +0.06 +0.17    -0.354 N 
DOCKED: ATOM      6  N   UNL d   1      12.683 -11.854   6.356 -0.13 +0.15    -0.354 N 
DOCKED: ATOM      7  C   UNL d   1       8.499 -11.028   7.740 -0.32 -0.03    +0.084 A 
DOCKED: ATOM      8  C   UNL d   1      12.338  -7.486  11.287 -0.11 -0.03    +0.084 A 
DOCKED: ATOM      9  C   UNL d   1      11.913  -8.449  10.174 -0.20 -0.02    +0.058 A 
DOCKED: ATOM     10  C   UNL d   1       9.969 -11.352   7.455 -0.26 -0.02    +0.058 A 
DOCKED: ATOM     11  C   UNL d   1       8.728  -9.992   8.798 -0.11 -0.09    +0.193 A 
DOCKED: ATOM     12  C   UNL d   1      10.204  -9.850   9.009 -0.19 -0.04    +0.109 A 
DOCKED: ATOM     13  C   UNL d   1      13.738  -7.228  10.807 -0.08 -0.06    +0.193 A 
DOCKED: ATOM     14  C   UNL d   1       7.813 -10.369   6.541 -0.59 -0.01    +0.026 C 
DOCKED: ATOM     15  C   UNL d   1      10.670  -8.945  10.078 -0.23 -0.03    +0.055 C 
DOCKED: ATOM     16  C   UNL d   1      12.405  -8.185  12.648 -0.04 -0.01    +0.026 C 
DOCKED: ATOM     17  C   UNL d   1      13.952  -8.027   9.563 -0.15 -0.04    +0.109 A 
DOCKED: ATOM     18  C   UNL d   1      10.320 -12.337   6.608 -0.29 -0.01    +0.050 C 
DOCKED: ATOM     19  C   UNL d   1      11.648 -12.762   6.347 -0.22 -0.01    +0.045 A 
DOCKED: ATOM     20  C   UNL d   1      15.526  -8.819   7.878 -0.18 -0.02    +0.045 A 
DOCKED: ATOM     21  C   UNL d   1      15.229  -7.939   8.840 -0.21 -0.02    +0.057 C 
DOCKED: ATOM     22  C   UNL d   1      16.674  -9.858   6.198 -0.30 +0.00    -0.019 A 
DOCKED: ATOM     23  C   UNL d   1      15.414 -10.590   6.437 -0.27 -0.02    +0.045 A 
DOCKED: ATOM     24  C   UNL d   1      16.735  -8.811   7.055 -0.27 +0.00    -0.022 A 
DOCKED: ATOM     25  C   UNL d   1      13.862 -12.461   5.990 -0.22 -0.03    +0.049 A 
DOCKED: ATOM     26  C   UNL d   1      12.174 -13.998   6.002 -0.20 +0.00    -0.018 A 
DOCKED: ATOM     27  C   UNL d   1      13.575 -13.806   5.798 -0.17 -0.00    +0.003 A 
DOCKED: ATOM     28  C   UNL d   1      15.040 -11.696   5.775 -0.30 -0.04    +0.052 C 
DOCKED: ATOM     29  C   UNL d   1      17.811  -7.791   7.206 -0.24 +0.00    +0.046 C 
DOCKED: ATOM     30  C   UNL d   1      11.424 -15.280   5.873 -0.18 -0.00    +0.046 C 
DOCKED: ATOM     31  H   UNL d   1      13.945 -10.178   7.916 -0.20 -0.08    +0.166 HD
DOCKED: ATOM     32  H   UNL d   1      12.563 -10.870   6.565 -0.07 -0.08    +0.166 HD
DOCKED: ENDROOT
DOCKED: BRANCH   7  33
DOCKED: ATOM     33  C   UNL d   1       7.666 -12.189   8.295 -0.25 -0.05    +0.141 C 
DOCKED: BRANCH  33  34
DOCKED: ATOM     34  C   UNL d   1       7.604 -12.190   9.798 -0.10 -0.14    +0.306 C 
DOCKED: ATOM     35  O   UNL d   1       8.475 -12.584  10.555 -0.04 +0.10    -0.251 OA
DOCKED: BRANCH  34  36
DOCKED: ATOM     36  O   UNL d   1       6.447 -11.691  10.269 -0.48 +0.33    -0.481 OA
DOCKED: ATOM     37  H   UNL d   1       6.637 -10.744  10.436 -0.42 -0.54    +0.295 HD
DOCKED: ENDBRANCH  34  36
DOCKED: ENDBRANCH  33  34
DOCKED: ENDBRANCH   7  33
DOCKED: BRANCH  27  38
DOCKED: ATOM     38  C   UNL d   1      14.500 -14.828   5.411 -0.06 -0.01    +0.017 C 
DOCKED: ATOM     39  C   UNL d   1      14.306 -15.716   4.424 -0.12 -0.04    +0.092 C 
DOCKED: BRANCH  39  40
DOCKED: ATOM     40  C   UNL d   1      15.343 -16.704   4.116 -0.09 -0.05    +0.330 C 
DOCKED: ATOM     41  O   UNL d   1      15.218 -17.911   4.034 -0.04 -0.01    -0.246 OA
DOCKED: BRANCH  40  42
DOCKED: ATOM     42  O   UNL d   1      16.519 -16.091   3.914 -0.06 +0.20    -0.477 OA
DOCKED: ATOM     43  H   UNL d   1      16.279 -15.146   3.825 -0.10 -0.34    +0.295 HD
DOCKED: ENDBRANCH  40  42
DOCKED: ENDBRANCH  39  40
DOCKED: ENDBRANCH  27  38
DOCKED: BRANCH   8  44
DOCKED: ATOM     44  C   UNL d   1      11.538  -6.182  11.373 -0.22 -0.07    +0.141 C 
DOCKED: BRANCH  44  45
DOCKED: ATOM     45  C   UNL d   1      10.430  -6.230  12.391 -0.10 -0.22    +0.306 C 
DOCKED: ATOM     46  O   UNL d   1      10.145  -5.361  13.196 -0.08 +0.15    -0.251 OA
DOCKED: BRANCH  45  47
DOCKED: ATOM     47  O   UNL d   1       9.752  -7.391  12.359 -0.07 +0.54    -0.481 OA
DOCKED: ATOM     48  H   UNL d   1       8.820  -7.139  12.529 -0.44 -0.65    +0.295 HD
DOCKED: ENDBRANCH  45  47
DOCKED: ENDBRANCH  44  45
DOCKED: ENDBRANCH   8  44
DOCKED: BRANCH  22  49
DOCKED: ATOM     49  C   UNL d   1      17.683 -10.236   5.154 -0.37 -0.01    +0.048 C 
DOCKED: BRANCH  49  50
DOCKED: ATOM     50  C   UNL d   1      18.382 -11.553   5.489 -0.21 -0.01    +0.125 C 
DOCKED: BRANCH  50  51
DOCKED: ATOM     51  C   UNL d   1      18.240 -12.537   4.363 -0.13 -0.10    +0.305 C 
DOCKED: ATOM     52  O   UNL d   1      18.656 -12.427   3.223 -0.20 +0.05    -0.251 OA
DOCKED: BRANCH  51  53
DOCKED: ATOM     53  O   UNL d   1      17.554 -13.636   4.736 -0.04 +0.31    -0.481 OA
DOCKED: ATOM     54  H   UNL d   1      16.823 -13.692   4.086 -0.29 -0.50    +0.295 HD
DOCKED: ENDBRANCH  51  53
DOCKED: ENDBRANCH  50  51
DOCKED: ENDBRANCH  49  50
DOCKED: ENDBRANCH  22  49
DOCKED: TORSDOF 13
DOCKED: TER
DOCKED: ENDMDL
________________________________________________________________________________


	BEGINNING GENETIC ALGORITHM DOCKING 48 of 100
Run: 48 Seed: 1747175772 1481893252 [ Run 48 of 100 GA/GALS ]
Beginning LAMARCKIAN GENETIC ALGORITHM (LGA), with a maximum of 25000000 energy evaluations.

Final-Value: -13.386


	FINAL GENETIC ALGORITHM DOCKED STATE
	_______________________________________________


Detailed state:  trans 9.027 -15.055 6.591 quatxyzw -0.498418 0.811070 0.284688 0.112684 center 0.153 0.018 -0.028 ntor 13 114.0536 -179.9488 -179.5939 23.5765 19.6101 -14.1961 -62.0117 17.2666 -20.5553 -149.6399 -77.7577 -6.0275 -11.5110
State:	  9.027 -15.055   6.591  -0.502  0.816  0.287 167.060    114.05 -179.95 -179.59   23.58   19.61  -14.20  -62.01   17.27  -20.56 -149.64  -77.76   -6.03  -11.51

DOCKED: MODEL       48
DOCKED: USER    Run = 48
DOCKED: USER    DPF = D:/Protein_go_brrr/autodock/final/mut_D99N/heme/dock.dpf
DOCKED: USER  
DOCKED: USER    Estimated Free Energy of Binding    =   -5.52 kcal/mol  [=(1)+(2)+(3)-(4)]
DOCKED: USER    Estimated Inhibition Constant, Ki   =   89.42 uM (micromolar)  [Temperature = 298.15 K]
DOCKED: USER    
DOCKED: USER    (1) Final Intermolecular Energy     =   -9.40 kcal/mol
DOCKED: USER        vdW + Hbond + desolv Energy     =   -8.63 kcal/mol
DOCKED: USER        Electrostatic Energy            =   -0.77 kcal/mol
DOCKED: USER    (2) Final Total Internal Energy     =   -3.98 kcal/mol
DOCKED: USER    (3) Torsional Free Energy           =   +3.88 kcal/mol
DOCKED: USER    (4) Unbound System's Energy  [=(2)] =   -3.98 kcal/mol
DOCKED: USER    
DOCKED: USER    
DOCKED: USER    NEWDPF move heme_opt.pdbqt
DOCKED: USER    NEWDPF about 0.153000 0.018000 -0.028000
DOCKED: USER    NEWDPF tran0 9.027434 -15.054640 6.591190
DOCKED: USER    NEWDPF quaternion0 -0.498418 0.811070 0.284688 0.112684
DOCKED: USER    NEWDPF axisangle0 -0.501613 0.816269 0.286513 167.059837
DOCKED: USER    NEWDPF quat0 -0.501613 0.816269 0.286513 167.059837
DOCKED: USER    NEWDPF dihe0 114.05 -179.95 -179.59 23.58 19.61 -14.20 -62.01 17.27 -20.56 -149.64 -77.76 -6.03 -11.51 
DOCKED: USER  keepresnum = 1 
DOCKED: USER  
DOCKED: REMARK  13 active torsions:
DOCKED: REMARK  status: ('A' for Active; 'I' for Inactive)
DOCKED: REMARK    1  A    between atoms: O_3  and  C_38 
DOCKED: REMARK    2  A    between atoms: O_4  and  C_40 
DOCKED: REMARK    3  A    between atoms: O_7  and  C_46 
DOCKED: REMARK    4  A    between atoms: O_9  and  C_48 
DOCKED: REMARK    5  A    between atoms: C_15  and  C_20 
DOCKED: REMARK    6  A    between atoms: C_16  and  C_23 
DOCKED: REMARK    7  A    between atoms: C_20  and  C_38 
DOCKED: REMARK    8  A    between atoms: C_23  and  C_40 
DOCKED: REMARK    9  A    between atoms: C_32  and  C_41 
DOCKED: REMARK   10  A    between atoms: C_37  and  C_45 
DOCKED: REMARK   11  A    between atoms: C_41  and  C_44 
DOCKED: REMARK   12  A    between atoms: C_44  and  C_46 
DOCKED: REMARK   13  A    between atoms: C_47  and  C_48 
DOCKED: USER                              x       y       z     vdW  Elec       q    Type
DOCKED: USER                           _______ _______ _______ _____ _____    ______ ____
DOCKED: ROOT
DOCKED: ATOM      1  O   UNL d   1      10.149  -9.356   7.601 -0.51 +0.07    -0.289 OA
DOCKED: ATOM      2  O   UNL d   1      14.641 -14.941   5.360 -0.09 +0.20    -0.289 OA
DOCKED: ATOM      3  N   UNL d   1       9.059 -12.611   7.271 -0.14 +0.08    -0.247 NA
DOCKED: ATOM      4  N   UNL d   1      11.399 -13.996   6.072 -0.13 +0.05    -0.247 NA
DOCKED: ATOM      5  N   UNL d   1       9.667 -16.216   5.486 -0.11 +0.00    -0.354 N 
DOCKED: ATOM      6  N   UNL d   1       7.241 -14.763   6.713 -0.01 +0.11    -0.354 N 
DOCKED: ATOM      7  C   UNL d   1       7.978 -10.468   7.764 -0.40 -0.03    +0.084 A 
DOCKED: ATOM      8  C   UNL d   1      13.606 -13.039   6.503 -0.14 -0.04    +0.084 A 
DOCKED: ATOM      9  C   UNL d   1      12.082 -12.940   6.632 -0.17 -0.02    +0.058 A 
DOCKED: ATOM     10  C   UNL d   1       7.858 -11.979   7.545 -0.29 -0.02    +0.058 A 
DOCKED: ATOM     11  C   UNL d   1       9.462 -10.361   7.584 -0.27 -0.06    +0.193 A 
DOCKED: ATOM     12  C   UNL d   1      10.005 -11.731   7.316 -0.22 -0.03    +0.109 A 
DOCKED: ATOM     13  C   UNL d   1      13.659 -14.329   5.734 -0.09 -0.10    +0.193 A 
DOCKED: ATOM     14  C   UNL d   1       7.286  -9.669   6.656 -0.57 -0.00    +0.026 C 
DOCKED: ATOM     15  C   UNL d   1      11.468 -11.888   7.195 -0.24 -0.02    +0.055 C 
DOCKED: ATOM     16  C   UNL d   1      14.278 -13.249   7.863 -0.06 -0.01    +0.026 C 
DOCKED: ATOM     17  C   UNL d   1      12.256 -14.802   5.532 -0.18 -0.02    +0.109 A 
DOCKED: ATOM     18  C   UNL d   1       6.685 -12.621   7.702 -0.22 -0.01    +0.050 C 
DOCKED: ATOM     19  C   UNL d   1       6.496 -14.023   7.603 -0.23 -0.01    +0.045 A 
DOCKED: ATOM     20  C   UNL d   1      10.782 -16.594   4.784 -0.12 +0.01    +0.045 A 
DOCKED: ATOM     21  C   UNL d   1      11.994 -16.030   4.766 -0.17 +0.00    +0.057 C 
DOCKED: ATOM     22  C   UNL d   1       9.083 -18.045   4.310 -0.16 -0.00    -0.019 A 
DOCKED: ATOM     23  C   UNL d   1       8.590 -17.031   5.263 -0.18 -0.00    +0.045 A 
DOCKED: ATOM     24  C   UNL d   1      10.381 -17.782   4.030 -0.13 -0.00    -0.022 A 
DOCKED: ATOM     25  C   UNL d   1       6.833 -16.077   6.717 -0.16 -0.01    +0.049 A 
DOCKED: ATOM     26  C   UNL d   1       5.606 -14.884   8.227 -0.17 +0.00    -0.018 A 
DOCKED: ATOM     27  C   UNL d   1       5.837 -16.183   7.678 -0.09 -0.00    +0.003 A 
DOCKED: ATOM     28  C   UNL d   1       7.348 -17.003   5.770 -0.20 -0.01    +0.052 C 
DOCKED: ATOM     29  C   UNL d   1      11.312 -18.526   3.135 -0.11 +0.02    +0.046 C 
DOCKED: ATOM     30  C   UNL d   1       4.604 -14.524   9.271 -0.16 -0.01    +0.046 C 
DOCKED: ATOM     31  H   UNL d   1       9.700 -15.452   6.153 +0.04 -0.02    +0.166 HD
DOCKED: ATOM     32  H   UNL d   1       7.958 -14.368   6.117 -0.52 -0.08    +0.166 HD
DOCKED: ENDROOT
DOCKED: BRANCH   7  33
DOCKED: ATOM     33  C   UNL d   1       7.568  -9.971   9.154 -0.17 -0.13    +0.141 C 
DOCKED: BRANCH  33  34
DOCKED: ATOM     34  C   UNL d   1       7.744 -11.020  10.219 -0.02 -0.29    +0.306 C 
DOCKED: ATOM     35  O   UNL d   1       8.803 -11.396  10.692 -0.07 +0.15    -0.251 OA
DOCKED: BRANCH  34  36
DOCKED: ATOM     36  O   UNL d   1       6.574 -11.538  10.634 -0.45 +0.45    -0.481 OA
DOCKED: ATOM     37  H   UNL d   1       6.134 -10.803  11.111 -0.47 -0.66    +0.295 HD
DOCKED: ENDBRANCH  34  36
DOCKED: ENDBRANCH  33  34
DOCKED: ENDBRANCH   7  33
DOCKED: BRANCH  27  38
DOCKED: ATOM     38  C   UNL d   1       5.119 -17.369   8.036 -0.04 -0.00    +0.017 C 
DOCKED: ATOM     39  C   UNL d   1       5.623 -18.613   8.023 -0.01 -0.01    +0.092 C 
DOCKED: BRANCH  39  40
DOCKED: ATOM     40  C   UNL d   1       4.785 -19.744   8.430 -0.00 -0.02    +0.330 C 
DOCKED: ATOM     41  O   UNL d   1       3.739 -19.709   9.048 -0.00 +0.01    -0.246 OA
DOCKED: BRANCH  40  42
DOCKED: ATOM     42  O   UNL d   1       5.331 -20.896   8.011 +0.00 +0.02    -0.477 OA
DOCKED: ATOM     43  H   UNL d   1       6.146 -20.615   7.547 +0.00 -0.01    +0.295 HD
DOCKED: ENDBRANCH  40  42
DOCKED: ENDBRANCH  39  40
DOCKED: ENDBRANCH  27  38
DOCKED: BRANCH   8  44
DOCKED: ATOM     44  C   UNL d   1      14.278 -11.906   5.721 -0.26 -0.10    +0.141 C 
DOCKED: BRANCH  44  45
DOCKED: ATOM     45  C   UNL d   1      15.752 -11.784   6.001 -0.15 -0.18    +0.306 C 
DOCKED: ATOM     46  O   UNL d   1      16.296 -10.920   6.667 -0.13 +0.08    -0.251 OA
DOCKED: BRANCH  45  47
DOCKED: ATOM     47  O   UNL d   1      16.472 -12.748   5.399 -0.02 +0.42    -0.481 OA
DOCKED: ATOM     48  H   UNL d   1      15.809 -13.295   4.927 -0.47 -0.55    +0.295 HD
DOCKED: ENDBRANCH  45  47
DOCKED: ENDBRANCH  44  45
DOCKED: ENDBRANCH   8  44
DOCKED: BRANCH  22  49
DOCKED: ATOM     49  C   UNL d   1       8.242 -19.157   3.754 -0.12 +0.00    +0.048 C 
DOCKED: BRANCH  49  50
DOCKED: ATOM     50  C   UNL d   1       8.404 -20.448   4.556 -0.03 -0.00    +0.125 C 
DOCKED: BRANCH  50  51
DOCKED: ATOM     51  C   UNL d   1       7.222 -20.672   5.456 -0.01 -0.01    +0.305 C 
DOCKED: ATOM     52  O   UNL d   1       6.160 -20.074   5.451 -0.01 +0.01    -0.251 OA
DOCKED: BRANCH  51  53
DOCKED: ATOM     53  O   UNL d   1       7.447 -21.656   6.349 +0.00 +0.01    -0.481 OA
DOCKED: ATOM     54  H   UNL d   1       6.550 -21.963   6.597 +0.00 -0.01    +0.295 HD
DOCKED: ENDBRANCH  51  53
DOCKED: ENDBRANCH  50  51
DOCKED: ENDBRANCH  49  50
DOCKED: ENDBRANCH  22  49
DOCKED: TORSDOF 13
DOCKED: TER
DOCKED: ENDMDL
________________________________________________________________________________


	BEGINNING GENETIC ALGORITHM DOCKING 49 of 100
Run: 49 Seed: 1956541950 131240635 [ Run 49 of 100 GA/GALS ]
Beginning LAMARCKIAN GENETIC ALGORITHM (LGA), with a maximum of 25000000 energy evaluations.

Final-Value: -13.675


	FINAL GENETIC ALGORITHM DOCKED STATE
	_______________________________________________


Detailed state:  trans -16.948 10.082 2.648 quatxyzw -0.923004 -0.045754 -0.246143 0.292206 center 0.153 0.018 -0.028 ntor 13 -104.7835 -156.4270 -4.2732 -78.8915 30.9859 -74.8260 145.1704 -91.3884 128.9900 20.0050 -125.9163 41.1778 -3.9457
State:	-16.948  10.082   2.648  -0.965 -0.048 -0.257 146.020   -104.78 -156.43   -4.27  -78.89   30.99  -74.83  145.17  -91.39  128.99   20.00 -125.92   41.18   -3.95

DOCKED: MODEL       49
DOCKED: USER    Run = 49
DOCKED: USER    DPF = D:/Protein_go_brrr/autodock/final/mut_D99N/heme/dock.dpf
DOCKED: USER  
DOCKED: USER    Estimated Free Energy of Binding    =   -6.30 kcal/mol  [=(1)+(2)+(3)-(4)]
DOCKED: USER    Estimated Inhibition Constant, Ki   =   24.30 uM (micromolar)  [Temperature = 298.15 K]
DOCKED: USER    
DOCKED: USER    (1) Final Intermolecular Energy     =  -10.17 kcal/mol
DOCKED: USER        vdW + Hbond + desolv Energy     =   -9.74 kcal/mol
DOCKED: USER        Electrostatic Energy            =   -0.44 kcal/mol
DOCKED: USER    (2) Final Total Internal Energy     =   -3.50 kcal/mol
DOCKED: USER    (3) Torsional Free Energy           =   +3.88 kcal/mol
DOCKED: USER    (4) Unbound System's Energy  [=(2)] =   -3.50 kcal/mol
DOCKED: USER    
DOCKED: USER    
DOCKED: USER    NEWDPF move heme_opt.pdbqt
DOCKED: USER    NEWDPF about 0.153000 0.018000 -0.028000
DOCKED: USER    NEWDPF tran0 -16.947535 10.081793 2.648271
DOCKED: USER    NEWDPF quaternion0 -0.923004 -0.045754 -0.246143 0.292206
DOCKED: USER    NEWDPF axisangle0 -0.965126 -0.047842 -0.257376 146.019876
DOCKED: USER    NEWDPF quat0 -0.965126 -0.047842 -0.257376 146.019876
DOCKED: USER    NEWDPF dihe0 -104.78 -156.43 -4.27 -78.89 30.99 -74.83 145.17 -91.39 128.99 20.00 -125.92 41.18 -3.95 
DOCKED: USER  keepresnum = 1 
DOCKED: USER  
DOCKED: REMARK  13 active torsions:
DOCKED: REMARK  status: ('A' for Active; 'I' for Inactive)
DOCKED: REMARK    1  A    between atoms: O_3  and  C_38 
DOCKED: REMARK    2  A    between atoms: O_4  and  C_40 
DOCKED: REMARK    3  A    between atoms: O_7  and  C_46 
DOCKED: REMARK    4  A    between atoms: O_9  and  C_48 
DOCKED: REMARK    5  A    between atoms: C_15  and  C_20 
DOCKED: REMARK    6  A    between atoms: C_16  and  C_23 
DOCKED: REMARK    7  A    between atoms: C_20  and  C_38 
DOCKED: REMARK    8  A    between atoms: C_23  and  C_40 
DOCKED: REMARK    9  A    between atoms: C_32  and  C_41 
DOCKED: REMARK   10  A    between atoms: C_37  and  C_45 
DOCKED: REMARK   11  A    between atoms: C_41  and  C_44 
DOCKED: REMARK   12  A    between atoms: C_44  and  C_46 
DOCKED: REMARK   13  A    between atoms: C_47  and  C_48 
DOCKED: USER                              x       y       z     vdW  Elec       q    Type
DOCKED: USER                           _______ _______ _______ _____ _____    ______ ____
DOCKED: ROOT
DOCKED: ATOM      1  O   UNL d   1     -21.644   7.072   0.739 -0.14 -0.18    -0.289 OA
DOCKED: ATOM      2  O   UNL d   1     -19.743  14.290  -0.093 -0.05 -0.00    -0.289 OA
DOCKED: ATOM      3  N   UNL d   1     -18.819   8.437   2.172 -0.14 -0.01    -0.247 NA
DOCKED: ATOM      4  N   UNL d   1     -18.751  11.191   1.058 -0.11 +0.03    -0.247 NA
DOCKED: ATOM      5  N   UNL d   1     -16.048  11.412   2.014 -0.12 +0.08    -0.354 N 
DOCKED: ATOM      6  N   UNL d   1     -16.121   8.547   3.150 -0.05 +0.03    -0.354 N 
DOCKED: ATOM      7  C   UNL d   1     -19.745   6.175   1.990 -0.16 +0.02    +0.084 A 
DOCKED: ATOM      8  C   UNL d   1     -20.881  12.172   0.370 -0.05 +0.01    +0.084 A 
DOCKED: ATOM      9  C   UNL d   1     -20.097  10.959   0.883 -0.12 +0.00    +0.058 A 
DOCKED: ATOM     10  C   UNL d   1     -18.630   7.102   2.485 -0.20 +0.01    +0.058 A 
DOCKED: ATOM     11  C   UNL d   1     -20.606   7.226   1.356 -0.13 +0.07    +0.193 A 
DOCKED: ATOM     12  C   UNL d   1     -19.950   8.558   1.556 -0.16 +0.02    +0.109 A 
DOCKED: ATOM     13  C   UNL d   1     -19.724  13.124   0.251 -0.06 +0.00    +0.193 A 
DOCKED: ATOM     14  C   UNL d   1     -19.253   5.216   0.902 -0.15 +0.01    +0.026 C 
DOCKED: ATOM     15  C   UNL d   1     -20.667   9.763   1.093 -0.15 +0.01    +0.055 C 
DOCKED: ATOM     16  C   UNL d   1     -21.852  12.708   1.426 -0.01 +0.00    +0.026 C 
DOCKED: ATOM     17  C   UNL d   1     -18.490  12.405   0.691 -0.15 -0.01    +0.109 A 
DOCKED: ATOM     18  C   UNL d   1     -17.614   6.639   3.238 -0.19 +0.00    +0.050 C 
DOCKED: ATOM     19  C   UNL d   1     -16.587   7.433   3.810 -0.01 +0.00    +0.045 A 
DOCKED: ATOM     20  C   UNL d   1     -16.122  12.548   1.251 -0.22 -0.01    +0.045 A 
DOCKED: ATOM     21  C   UNL d   1     -17.185  13.080   0.640 -0.02 -0.01    +0.057 C 
DOCKED: ATOM     22  C   UNL d   1     -13.969  12.276   1.965 -0.30 +0.00    -0.019 A 
DOCKED: ATOM     23  C   UNL d   1     -14.788  11.165   2.489 -0.29 -0.01    +0.045 A 
DOCKED: ATOM     24  C   UNL d   1     -14.764  13.092   1.234 -0.27 +0.00    -0.022 A 
DOCKED: ATOM     25  C   UNL d   1     -15.070   9.111   3.836 -0.15 -0.00    +0.049 A 
DOCKED: ATOM     26  C   UNL d   1     -15.846   7.290   4.973 -0.09 -0.00    -0.018 A 
DOCKED: ATOM     27  C   UNL d   1     -14.903   8.364   4.994 -0.14 -0.00    +0.003 A 
DOCKED: ATOM     28  C   UNL d   1     -14.322  10.180   3.273 -0.32 -0.01    +0.052 C 
DOCKED: ATOM     29  C   UNL d   1     -14.404  14.348   0.516 -0.21 -0.00    +0.046 C 
DOCKED: ATOM     30  C   UNL d   1     -16.004   6.225   6.004 -0.07 +0.00    +0.046 C 
DOCKED: ATOM     31  H   UNL d   1     -16.880  10.881   2.248 -0.05 -0.04    +0.166 HD
DOCKED: ATOM     32  H   UNL d   1     -16.488   8.866   2.261 -0.15 -0.04    +0.166 HD
DOCKED: ENDROOT
DOCKED: BRANCH   7  33
DOCKED: ATOM     33  C   UNL d   1     -20.519   5.434   3.085 -0.05 +0.02    +0.141 C 
DOCKED: BRANCH  33  34
DOCKED: ATOM     34  C   UNL d   1     -21.648   4.605   2.536 -0.02 +0.06    +0.306 C 
DOCKED: ATOM     35  O   UNL d   1     -21.564   3.467   2.107 -0.02 -0.05    -0.251 OA
DOCKED: BRANCH  34  36
DOCKED: ATOM     36  O   UNL d   1     -22.826   5.253   2.559 +0.00 -0.10    -0.481 OA
DOCKED: ATOM     37  H   UNL d   1     -22.752   5.925   1.848 +0.03 +0.10    +0.295 HD
DOCKED: ENDBRANCH  34  36
DOCKED: ENDBRANCH  33  34
DOCKED: ENDBRANCH   7  33
DOCKED: BRANCH  27  38
DOCKED: ATOM     38  C   UNL d   1     -13.927   8.585   6.018 -0.24 -0.00    +0.017 C 
DOCKED: ATOM     39  C   UNL d   1     -14.025   9.497   6.997 -0.23 -0.02    +0.092 C 
DOCKED: BRANCH  39  40
DOCKED: ATOM     40  C   UNL d   1     -12.961   9.612   7.998 -0.31 -0.05    +0.330 C 
DOCKED: ATOM     41  O   UNL d   1     -12.751   8.881   8.947 -0.94 -0.03    -0.246 OA
DOCKED: BRANCH  40  42
DOCKED: ATOM     42  O   UNL d   1     -12.187  10.675   7.729 -0.74 +0.14    -0.477 OA
DOCKED: ATOM     43  H   UNL d   1     -12.767  11.259   7.198 +0.10 -0.17    +0.295 HD
DOCKED: ENDBRANCH  40  42
DOCKED: ENDBRANCH  39  40
DOCKED: ENDBRANCH  27  38
DOCKED: BRANCH   8  44
DOCKED: ATOM     44  C   UNL d   1     -21.579  11.984  -0.981 -0.06 +0.02    +0.141 C 
DOCKED: BRANCH  44  45
DOCKED: ATOM     45  C   UNL d   1     -20.869  11.013  -1.886 -0.16 +0.08    +0.306 C 
DOCKED: ATOM     46  O   UNL d   1     -21.174   9.851  -2.087 -0.26 -0.20    -0.251 OA
DOCKED: BRANCH  45  47
DOCKED: ATOM     47  O   UNL d   1     -19.787  11.555  -2.474 -0.46 -0.03    -0.481 OA
DOCKED: ATOM     48  H   UNL d   1     -19.372  10.812  -2.962 -0.43 -0.10    +0.295 HD
DOCKED: ENDBRANCH  45  47
DOCKED: ENDBRANCH  44  45
DOCKED: ENDBRANCH   8  44
DOCKED: BRANCH  22  49
DOCKED: ATOM     49  C   UNL d   1     -12.497  12.427   2.212 -0.34 -0.01    +0.048 C 
DOCKED: BRANCH  49  50
DOCKED: ATOM     50  C   UNL d   1     -12.213  13.184   3.509 -0.31 -0.02    +0.125 C 
DOCKED: BRANCH  50  51
DOCKED: ATOM     51  C   UNL d   1     -12.901  12.531   4.674 -0.17 -0.11    +0.305 C 
DOCKED: ATOM     52  O   UNL d   1     -13.965  12.842   5.179 -0.09 +0.10    -0.251 OA
DOCKED: BRANCH  51  53
DOCKED: ATOM     53  O   UNL d   1     -12.189  11.497   5.165 -0.16 +0.19    -0.481 OA
DOCKED: ATOM     54  H   UNL d   1     -11.748  11.867   5.959 -0.43 -0.25    +0.295 HD
DOCKED: ENDBRANCH  51  53
DOCKED: ENDBRANCH  50  51
DOCKED: ENDBRANCH  49  50
DOCKED: ENDBRANCH  22  49
DOCKED: TORSDOF 13
DOCKED: TER
DOCKED: ENDMDL
________________________________________________________________________________


	BEGINNING GENETIC ALGORITHM DOCKING 50 of 100
Run: 50 Seed: 35872737 418955818 [ Run 50 of 100 GA/GALS ]
Beginning LAMARCKIAN GENETIC ALGORITHM (LGA), with a maximum of 25000000 energy evaluations.

Final-Value: -11.830


	FINAL GENETIC ALGORITHM DOCKED STATE
	_______________________________________________


Detailed state:  trans -9.096 16.358 10.395 quatxyzw 0.738907 0.505077 -0.358492 -0.265325 center 0.153 0.018 -0.028 ntor 13 119.2324 -125.3245 -139.7419 -91.6411 -132.1311 40.4920 129.0256 136.5986 48.8888 -12.2282 44.4632 -119.8077 117.7606
State:	 -9.096  16.358  10.395   0.766  0.524 -0.372 -149.228    119.23 -125.32 -139.74  -91.64 -132.13   40.49  129.03  136.60   48.89  -12.23   44.46 -119.81  117.76

DOCKED: MODEL       50
DOCKED: USER    Run = 50
DOCKED: USER    DPF = D:/Protein_go_brrr/autodock/final/mut_D99N/heme/dock.dpf
DOCKED: USER  
DOCKED: USER    Estimated Free Energy of Binding    =   -4.75 kcal/mol  [=(1)+(2)+(3)-(4)]
DOCKED: USER    Estimated Inhibition Constant, Ki   =  330.53 uM (micromolar)  [Temperature = 298.15 K]
DOCKED: USER    
DOCKED: USER    (1) Final Intermolecular Energy     =   -8.63 kcal/mol
DOCKED: USER        vdW + Hbond + desolv Energy     =   -8.56 kcal/mol
DOCKED: USER        Electrostatic Energy            =   -0.07 kcal/mol
DOCKED: USER    (2) Final Total Internal Energy     =   -3.20 kcal/mol
DOCKED: USER    (3) Torsional Free Energy           =   +3.88 kcal/mol
DOCKED: USER    (4) Unbound System's Energy  [=(2)] =   -3.20 kcal/mol
DOCKED: USER    
DOCKED: USER    
DOCKED: USER    NEWDPF move heme_opt.pdbqt
DOCKED: USER    NEWDPF about 0.153000 0.018000 -0.028000
DOCKED: USER    NEWDPF tran0 -9.095679 16.358169 10.394760
DOCKED: USER    NEWDPF quaternion0 0.738907 0.505077 -0.358492 -0.265325
DOCKED: USER    NEWDPF axisangle0 0.766374 0.523852 -0.371819 -149.227515
DOCKED: USER    NEWDPF quat0 0.766374 0.523852 -0.371819 -149.227515
DOCKED: USER    NEWDPF dihe0 119.23 -125.32 -139.74 -91.64 -132.13 40.49 129.03 136.60 48.89 -12.23 44.46 -119.81 117.76 
DOCKED: USER  keepresnum = 1 
DOCKED: USER  
DOCKED: REMARK  13 active torsions:
DOCKED: REMARK  status: ('A' for Active; 'I' for Inactive)
DOCKED: REMARK    1  A    between atoms: O_3  and  C_38 
DOCKED: REMARK    2  A    between atoms: O_4  and  C_40 
DOCKED: REMARK    3  A    between atoms: O_7  and  C_46 
DOCKED: REMARK    4  A    between atoms: O_9  and  C_48 
DOCKED: REMARK    5  A    between atoms: C_15  and  C_20 
DOCKED: REMARK    6  A    between atoms: C_16  and  C_23 
DOCKED: REMARK    7  A    between atoms: C_20  and  C_38 
DOCKED: REMARK    8  A    between atoms: C_23  and  C_40 
DOCKED: REMARK    9  A    between atoms: C_32  and  C_41 
DOCKED: REMARK   10  A    between atoms: C_37  and  C_45 
DOCKED: REMARK   11  A    between atoms: C_41  and  C_44 
DOCKED: REMARK   12  A    between atoms: C_44  and  C_46 
DOCKED: REMARK   13  A    between atoms: C_47  and  C_48 
DOCKED: USER                              x       y       z     vdW  Elec       q    Type
DOCKED: USER                           _______ _______ _______ _____ _____    ______ ____
DOCKED: ROOT
DOCKED: ATOM      1  O   UNL d   1      -8.989  12.159  14.532 -0.23 +0.09    -0.289 OA
DOCKED: ATOM      2  O   UNL d   1     -13.840  17.763  13.320 -0.01 +0.07    -0.289 OA
DOCKED: ATOM      3  N   UNL d   1      -8.563  14.490  12.026 -0.12 +0.07    -0.247 NA
DOCKED: ATOM      4  N   UNL d   1     -11.074  16.075  12.132 -0.10 +0.15    -0.247 NA
DOCKED: ATOM      5  N   UNL d   1     -10.367  17.193   9.579 -0.01 +0.33    -0.354 N 
DOCKED: ATOM      6  N   UNL d   1      -7.774  15.531   9.468 -0.14 +0.09    -0.354 N 
DOCKED: ATOM      7  C   UNL d   1      -7.409  12.431  12.687 -0.38 -0.02    +0.084 A 
DOCKED: ATOM      8  C   UNL d   1     -12.251  16.161  14.272 -0.03 -0.02    +0.084 A 
DOCKED: ATOM      9  C   UNL d   1     -11.110  15.594  13.422 -0.10 -0.02    +0.058 A 
DOCKED: ATOM     10  C   UNL d   1      -7.524  13.623  11.732 -0.32 -0.01    +0.058 A 
DOCKED: ATOM     11  C   UNL d   1      -8.556  12.788  13.584 -0.21 -0.05    +0.193 A 
DOCKED: ATOM     12  C   UNL d   1      -9.157  14.069  13.094 -0.16 -0.03    +0.109 A 
DOCKED: ATOM     13  C   UNL d   1     -12.879  17.026  13.214 -0.03 -0.07    +0.193 A 
DOCKED: ATOM     14  C   UNL d   1      -7.720  11.105  11.990 -0.53 -0.01    +0.026 C 
DOCKED: ATOM     15  C   UNL d   1     -10.253  14.669  13.882 -0.13 -0.01    +0.055 C 
DOCKED: ATOM     16  C   UNL d   1     -11.729  17.060  15.397 -0.01 -0.00    +0.026 C 
DOCKED: ATOM     17  C   UNL d   1     -12.075  16.878  11.964 -0.09 -0.07    +0.109 A 
DOCKED: ATOM     18  C   UNL d   1      -6.621  13.831  10.755 -0.37 -0.01    +0.050 C 
DOCKED: ATOM     19  C   UNL d   1      -6.597  14.947   9.880 -0.31 -0.01    +0.045 A 
DOCKED: ATOM     20  C   UNL d   1     -11.652  17.658   9.692 +0.04 -0.04    +0.045 A 
DOCKED: ATOM     21  C   UNL d   1     -12.482  17.580  10.738 -0.09 -0.04    +0.057 C 
DOCKED: ATOM     22  C   UNL d   1     -10.866  18.160   7.607 -0.09 +0.01    -0.019 A 
DOCKED: ATOM     23  C   UNL d   1      -9.810  17.450   8.355 -0.13 -0.03    +0.045 A 
DOCKED: ATOM     24  C   UNL d   1     -11.954  18.281   8.405 -0.07 +0.01    -0.022 A 
DOCKED: ATOM     25  C   UNL d   1      -7.524  16.531   8.558 -0.14 -0.01    +0.049 A 
DOCKED: ATOM     26  C   UNL d   1      -5.555  15.609   9.251 -0.36 +0.00    -0.018 A 
DOCKED: ATOM     27  C   UNL d   1      -6.144  16.621   8.432 -0.26 -0.00    +0.003 A 
DOCKED: ATOM     28  C   UNL d   1      -8.589  17.176   7.871 -0.13 -0.01    +0.052 C 
DOCKED: ATOM     29  C   UNL d   1     -13.262  18.930   8.106 -0.04 -0.02    +0.046 C 
DOCKED: ATOM     30  C   UNL d   1      -4.099  15.322   9.401 -0.34 -0.01    +0.046 C 
DOCKED: ATOM     31  H   UNL d   1      -9.886  16.780  10.371 +0.00 -0.12    +0.166 HD
DOCKED: ATOM     32  H   UNL d   1      -8.689  15.223   9.773 +0.03 -0.09    +0.166 HD
DOCKED: ENDROOT
DOCKED: BRANCH   7  33
DOCKED: ATOM     33  C   UNL d   1      -6.104  12.354  13.487 -0.33 -0.04    +0.141 C 
DOCKED: BRANCH  33  34
DOCKED: ATOM     34  C   UNL d   1      -6.235  12.943  14.866 -0.24 -0.08    +0.306 C 
DOCKED: ATOM     35  O   UNL d   1      -6.233  14.129  15.145 -0.12 +0.05    -0.251 OA
DOCKED: BRANCH  34  36
DOCKED: ATOM     36  O   UNL d   1      -6.363  12.004  15.820 -0.59 +0.14    -0.481 OA
DOCKED: ATOM     37  H   UNL d   1      -7.207  11.550  15.608 -0.34 -0.19    +0.295 HD
DOCKED: ENDBRANCH  34  36
DOCKED: ENDBRANCH  33  34
DOCKED: ENDBRANCH   7  33
DOCKED: BRANCH  27  38
DOCKED: ATOM     38  C   UNL d   1      -5.421  17.530   7.594 -0.27 +0.00    +0.017 C 
DOCKED: ATOM     39  C   UNL d   1      -5.210  17.369   6.279 -0.32 +0.02    +0.092 C 
DOCKED: BRANCH  39  40
DOCKED: ATOM     40  C   UNL d   1      -4.466  18.385   5.530 -0.13 +0.09    +0.330 C 
DOCKED: ATOM     41  O   UNL d   1      -3.494  19.017   5.897 -0.12 -0.05    -0.246 OA
DOCKED: BRANCH  40  42
DOCKED: ATOM     42  O   UNL d   1      -5.005  18.547   4.311 -0.14 -0.23    -0.477 OA
DOCKED: ATOM     43  H   UNL d   1      -5.947  18.743   4.495 +0.08 +0.15    +0.295 HD
DOCKED: ENDBRANCH  40  42
DOCKED: ENDBRANCH  39  40
DOCKED: ENDBRANCH  27  38
DOCKED: BRANCH   8  44
DOCKED: ATOM     44  C   UNL d   1     -13.253  15.132  14.804 -0.03 -0.03    +0.141 C 
DOCKED: BRANCH  44  45
DOCKED: ATOM     45  C   UNL d   1     -13.985  14.395  13.714 -0.07 -0.12    +0.306 C 
DOCKED: ATOM     46  O   UNL d   1     -13.598  13.404  13.121 -0.18 +0.13    -0.251 OA
DOCKED: BRANCH  45  47
DOCKED: ATOM     47  O   UNL d   1     -15.163  14.968  13.408 -0.01 +0.17    -0.481 OA
DOCKED: ATOM     48  H   UNL d   1     -14.987  15.932  13.443 +0.03 -0.10    +0.295 HD
DOCKED: ENDBRANCH  45  47
DOCKED: ENDBRANCH  44  45
DOCKED: ENDBRANCH   8  44
DOCKED: BRANCH  22  49
DOCKED: ATOM     49  C   UNL d   1     -10.722  18.637   6.192 -0.07 -0.01    +0.048 C 
DOCKED: BRANCH  49  50
DOCKED: ATOM     50  C   UNL d   1      -9.859  17.689   5.358 -0.14 +0.00    +0.125 C 
DOCKED: BRANCH  50  51
DOCKED: ATOM     51  C   UNL d   1      -8.862  18.455   4.535 -0.09 +0.11    +0.305 C 
DOCKED: ATOM     52  O   UNL d   1      -7.664  18.256   4.445 -0.64 -0.17    -0.251 OA
DOCKED: BRANCH  51  53
DOCKED: ATOM     53  O   UNL d   1      -9.439  19.469   3.859 -0.02 -0.12    -0.481 OA
DOCKED: ATOM     54  H   UNL d   1      -9.412  20.220   4.488 +0.03 +0.04    +0.295 HD
DOCKED: ENDBRANCH  51  53
DOCKED: ENDBRANCH  50  51
DOCKED: ENDBRANCH  49  50
DOCKED: ENDBRANCH  22  49
DOCKED: TORSDOF 13
DOCKED: TER
DOCKED: ENDMDL
________________________________________________________________________________


	BEGINNING GENETIC ALGORITHM DOCKING 51 of 100
Run: 51 Seed: 2087566320 448045233 [ Run 51 of 100 GA/GALS ]
Beginning LAMARCKIAN GENETIC ALGORITHM (LGA), with a maximum of 25000000 energy evaluations.

Final-Value: -10.464


	FINAL GENETIC ALGORITHM DOCKED STATE
	_______________________________________________


Detailed state:  trans -12.912 14.595 -5.485 quatxyzw -0.625020 0.629009 0.332133 -0.321535 center 0.153 0.018 -0.028 ntor 13 106.6279 -69.5720 -84.2256 179.9225 -135.2835 -171.0800 127.9293 -101.7987 50.3472 -31.4912 -64.6159 165.5363 180.0000
State:	-12.912  14.595  -5.485  -0.660  0.664  0.351 -142.488    106.63  -69.57  -84.23  179.92 -135.28 -171.08  127.93 -101.80   50.35  -31.49  -64.62  165.54  180.00

DOCKED: MODEL       51
DOCKED: USER    Run = 51
DOCKED: USER    DPF = D:/Protein_go_brrr/autodock/final/mut_D99N/heme/dock.dpf
DOCKED: USER  
DOCKED: USER    Estimated Free Energy of Binding    =   -4.21 kcal/mol  [=(1)+(2)+(3)-(4)]
DOCKED: USER    Estimated Inhibition Constant, Ki   =  820.94 uM (micromolar)  [Temperature = 298.15 K]
DOCKED: USER    
DOCKED: USER    (1) Final Intermolecular Energy     =   -8.09 kcal/mol
DOCKED: USER        vdW + Hbond + desolv Energy     =   -7.50 kcal/mol
DOCKED: USER        Electrostatic Energy            =   -0.59 kcal/mol
DOCKED: USER    (2) Final Total Internal Energy     =   -2.38 kcal/mol
DOCKED: USER    (3) Torsional Free Energy           =   +3.88 kcal/mol
DOCKED: USER    (4) Unbound System's Energy  [=(2)] =   -2.38 kcal/mol
DOCKED: USER    
DOCKED: USER    
DOCKED: USER    NEWDPF move heme_opt.pdbqt
DOCKED: USER    NEWDPF about 0.153000 0.018000 -0.028000
DOCKED: USER    NEWDPF tran0 -12.912116 14.595354 -5.484952
DOCKED: USER    NEWDPF quaternion0 -0.625020 0.629009 0.332133 -0.321535
DOCKED: USER    NEWDPF axisangle0 -0.660071 0.664284 0.350760 -142.488428
DOCKED: USER    NEWDPF quat0 -0.660071 0.664284 0.350760 -142.488428
DOCKED: USER    NEWDPF dihe0 106.63 -69.57 -84.23 179.92 -135.28 -171.08 127.93 -101.80 50.35 -31.49 -64.62 165.54 180.00 
DOCKED: USER  keepresnum = 1 
DOCKED: USER  
DOCKED: REMARK  13 active torsions:
DOCKED: REMARK  status: ('A' for Active; 'I' for Inactive)
DOCKED: REMARK    1  A    between atoms: O_3  and  C_38 
DOCKED: REMARK    2  A    between atoms: O_4  and  C_40 
DOCKED: REMARK    3  A    between atoms: O_7  and  C_46 
DOCKED: REMARK    4  A    between atoms: O_9  and  C_48 
DOCKED: REMARK    5  A    between atoms: C_15  and  C_20 
DOCKED: REMARK    6  A    between atoms: C_16  and  C_23 
DOCKED: REMARK    7  A    between atoms: C_20  and  C_38 
DOCKED: REMARK    8  A    between atoms: C_23  and  C_40 
DOCKED: REMARK    9  A    between atoms: C_32  and  C_41 
DOCKED: REMARK   10  A    between atoms: C_37  and  C_45 
DOCKED: REMARK   11  A    between atoms: C_41  and  C_44 
DOCKED: REMARK   12  A    between atoms: C_44  and  C_46 
DOCKED: REMARK   13  A    between atoms: C_47  and  C_48 
DOCKED: USER                              x       y       z     vdW  Elec       q    Type
DOCKED: USER                           _______ _______ _______ _____ _____    ______ ____
DOCKED: ROOT
DOCKED: ATOM      1  O   UNL d   1     -14.541  18.337  -1.230 -0.01 -0.00    -0.289 OA
DOCKED: ATOM      2  O   UNL d   1      -8.018  14.832  -2.480 -0.29 -0.20    -0.289 OA
DOCKED: ATOM      3  N   UNL d   1     -14.089  16.097  -3.814 -0.12 +0.01    -0.247 NA
DOCKED: ATOM      4  N   UNL d   1     -11.183  15.488  -3.689 -0.11 -0.01    -0.247 NA
DOCKED: ATOM      5  N   UNL d   1     -11.417  14.288  -6.291 -0.07 +0.01    -0.354 N 
DOCKED: ATOM      6  N   UNL d   1     -14.427  14.942  -6.421 -0.08 +0.04    -0.354 N 
DOCKED: ATOM      7  C   UNL d   1     -15.900  17.597  -3.122 -0.05 -0.00    +0.084 A 
DOCKED: ATOM      8  C   UNL d   1     -10.080  15.741  -1.523 -0.22 +0.03    +0.084 A 
DOCKED: ATOM      9  C   UNL d   1     -11.336  15.904  -2.385 -0.16 +0.01    +0.058 A 
DOCKED: ATOM     10  C   UNL d   1     -15.361  16.557  -4.109 -0.13 -0.00    +0.058 A 
DOCKED: ATOM     11  C   UNL d   1     -14.713  17.631  -2.207 -0.04 -0.00    +0.193 A 
DOCKED: ATOM     12  C   UNL d   1     -13.694  16.660  -2.718 -0.10 +0.00    +0.109 A 
DOCKED: ATOM     13  C   UNL d   1      -9.175  15.190  -2.589 -0.22 +0.06    +0.193 A 
DOCKED: ATOM     14  C   UNL d   1     -16.064  18.974  -3.772 -0.01 -0.00    +0.026 C 
DOCKED: ATOM     15  C   UNL d   1     -12.469  16.453  -1.920 -0.13 +0.00    +0.055 C 
DOCKED: ATOM     16  C   UNL d   1     -10.270  14.675  -0.439 -0.38 +0.01    +0.026 C 
DOCKED: ATOM     17  C   UNL d   1      -9.962  15.093  -3.855 -0.19 +0.01    +0.109 A 
DOCKED: ATOM     18  C   UNL d   1     -16.120  16.082  -5.114 -0.14 -0.01    +0.050 C 
DOCKED: ATOM     19  C   UNL d   1     -15.739  15.062  -6.022 -0.12 -0.01    +0.045 A 
DOCKED: ATOM     20  C   UNL d   1     -10.053  14.299  -6.159 -0.26 +0.00    +0.045 A 
DOCKED: ATOM     21  C   UNL d   1      -9.317  14.623  -5.090 -0.33 +0.00    +0.057 C 
DOCKED: ATOM     22  C   UNL d   1     -10.583  13.630  -8.278 -0.20 +0.00    -0.019 A 
DOCKED: ATOM     23  C   UNL d   1     -11.832  13.898  -7.537 -0.19 -0.00    +0.045 A 
DOCKED: ATOM     24  C   UNL d   1      -9.534  13.868  -7.456 -0.26 +0.00    -0.022 A 
DOCKED: ATOM     25  C   UNL d   1     -14.298  13.951  -7.367 -0.18 -0.01    +0.049 A 
DOCKED: ATOM     26  C   UNL d   1     -16.475  14.101  -6.698 -0.09 +0.00    -0.018 A 
DOCKED: ATOM     27  C   UNL d   1     -15.557  13.389  -7.531 -0.20 -0.00    +0.003 A 
DOCKED: ATOM     28  C   UNL d   1     -13.065  13.745  -8.044 -0.20 -0.01    +0.052 C 
DOCKED: ATOM     29  C   UNL d   1      -8.077  13.729  -7.740 -0.25 +0.00    +0.046 C 
DOCKED: ATOM     30  C   UNL d   1     -17.941  13.854  -6.578 -0.07 -0.01    +0.046 C 
DOCKED: ATOM     31  H   UNL d   1     -12.024  14.477  -5.501 +0.07 -0.00    +0.166 HD
DOCKED: ATOM     32  H   UNL d   1     -13.682  15.539  -6.083 +0.04 -0.01    +0.166 HD
DOCKED: ENDROOT
DOCKED: BRANCH   7  33
DOCKED: ATOM     33  C   UNL d   1     -17.160  17.184  -2.354 -0.06 -0.01    +0.141 C 
DOCKED: BRANCH  33  34
DOCKED: ATOM     34  C   UNL d   1     -16.853  16.661  -0.977 -0.05 -0.01    +0.306 C 
DOCKED: ATOM     35  O   UNL d   1     -16.482  15.532  -0.702 -0.10 +0.01    -0.251 OA
DOCKED: BRANCH  34  36
DOCKED: ATOM     36  O   UNL d   1     -17.029  17.588  -0.019 +0.00 +0.01    -0.481 OA
DOCKED: ATOM     37  H   UNL d   1     -16.247  18.176  -0.099 +0.02 -0.00    +0.295 HD
DOCKED: ENDBRANCH  34  36
DOCKED: ENDBRANCH  33  34
DOCKED: ENDBRANCH   7  33
DOCKED: BRANCH  27  38
DOCKED: ATOM     38  C   UNL d   1     -15.904  12.317  -8.413 -0.28 -0.01    +0.017 C 
DOCKED: ATOM     39  C   UNL d   1     -17.128  12.091  -8.914 -0.17 -0.04    +0.092 C 
DOCKED: BRANCH  39  40
DOCKED: ATOM     40  C   UNL d   1     -17.348  10.964  -9.824 -0.09 -0.27    +0.330 C 
DOCKED: ATOM     41  O   UNL d   1     -18.359  10.697 -10.446 -0.09 +0.17    -0.246 OA
DOCKED: BRANCH  40  42
DOCKED: ATOM     42  O   UNL d   1     -16.238  10.216  -9.910 -0.04 +0.57    -0.477 OA
DOCKED: ATOM     43  H   UNL d   1     -16.479   9.384  -9.452 -0.32 -0.79    +0.295 HD
DOCKED: ENDBRANCH  40  42
DOCKED: ENDBRANCH  39  40
DOCKED: ENDBRANCH  27  38
DOCKED: BRANCH   8  44
DOCKED: ATOM     44  C   UNL d   1      -9.510  17.035  -0.934 -0.14 +0.08    +0.141 C 
DOCKED: BRANCH  44  45
DOCKED: ATOM     45  C   UNL d   1      -8.663  17.809  -1.909 -0.06 +0.17    +0.306 C 
DOCKED: ATOM     46  O   UNL d   1      -9.059  18.592  -2.754 -0.01 -0.07    -0.251 OA
DOCKED: BRANCH  45  47
DOCKED: ATOM     47  O   UNL d   1      -7.352  17.531  -1.785 -0.41 -0.49    -0.481 OA
DOCKED: ATOM     48  H   UNL d   1      -7.182  16.834  -2.453 +0.08 +0.27    +0.295 HD
DOCKED: ENDBRANCH  45  47
DOCKED: ENDBRANCH  44  45
DOCKED: ENDBRANCH   8  44
DOCKED: BRANCH  22  49
DOCKED: ATOM     49  C   UNL d   1     -10.532  13.186  -9.710 -0.21 -0.01    +0.048 C 
DOCKED: BRANCH  49  50
DOCKED: ATOM     50  C   UNL d   1     -10.310  14.360 -10.662 -0.15 -0.02    +0.125 C 
DOCKED: BRANCH  50  51
DOCKED: ATOM     51  C   UNL d   1      -9.000  14.224 -11.386 -0.10 -0.05    +0.305 C 
DOCKED: ATOM     52  O   UNL d   1      -7.987  14.878 -11.216 -0.05 +0.02    -0.251 OA
DOCKED: BRANCH  51  53
DOCKED: ATOM     53  O   UNL d   1      -9.038  13.252 -12.319 -0.09 +0.17    -0.481 OA
DOCKED: ATOM     54  H   UNL d   1      -9.947  12.892 -12.251 -0.46 -0.20    +0.295 HD
DOCKED: ENDBRANCH  51  53
DOCKED: ENDBRANCH  50  51
DOCKED: ENDBRANCH  49  50
DOCKED: ENDBRANCH  22  49
DOCKED: TORSDOF 13
DOCKED: TER
DOCKED: ENDMDL
________________________________________________________________________________


	BEGINNING GENETIC ALGORITHM DOCKING 52 of 100
Run: 52 Seed: 1976587799 120771351 [ Run 52 of 100 GA/GALS ]
Beginning LAMARCKIAN GENETIC ALGORITHM (LGA), with a maximum of 25000000 energy evaluations.

Final-Value: -13.751


	FINAL GENETIC ALGORITHM DOCKED STATE
	_______________________________________________


Detailed state:  trans 13.870 -9.915 7.967 quatxyzw -0.961127 0.176292 0.161700 -0.137870 center 0.153 0.018 -0.028 ntor 13 168.0107 161.0621 129.0411 29.2041 -146.5618 41.9183 -48.3275 80.5159 122.7549 -151.7308 -69.7142 -76.4565 -6.0715
State:	 13.870  -9.915   7.967  -0.970  0.178  0.163 -164.151    168.01  161.06  129.04   29.20 -146.56   41.92  -48.33   80.52  122.75 -151.73  -69.71  -76.46   -6.07

DOCKED: MODEL       52
DOCKED: USER    Run = 52
DOCKED: USER    DPF = D:/Protein_go_brrr/autodock/final/mut_D99N/heme/dock.dpf
DOCKED: USER  
DOCKED: USER    Estimated Free Energy of Binding    =   -6.14 kcal/mol  [=(1)+(2)+(3)-(4)]
DOCKED: USER    Estimated Inhibition Constant, Ki   =   31.40 uM (micromolar)  [Temperature = 298.15 K]
DOCKED: USER    
DOCKED: USER    (1) Final Intermolecular Energy     =  -10.02 kcal/mol
DOCKED: USER        vdW + Hbond + desolv Energy     =   -9.89 kcal/mol
DOCKED: USER        Electrostatic Energy            =   -0.13 kcal/mol
DOCKED: USER    (2) Final Total Internal Energy     =   -3.73 kcal/mol
DOCKED: USER    (3) Torsional Free Energy           =   +3.88 kcal/mol
DOCKED: USER    (4) Unbound System's Energy  [=(2)] =   -3.73 kcal/mol
DOCKED: USER    
DOCKED: USER    
DOCKED: USER    NEWDPF move heme_opt.pdbqt
DOCKED: USER    NEWDPF about 0.153000 0.018000 -0.028000
DOCKED: USER    NEWDPF tran0 13.870377 -9.915010 7.967255
DOCKED: USER    NEWDPF quaternion0 -0.961127 0.176292 0.161700 -0.137870
DOCKED: USER    NEWDPF axisangle0 -0.970394 0.177992 0.163259 -164.150741
DOCKED: USER    NEWDPF quat0 -0.970394 0.177992 0.163259 -164.150741
DOCKED: USER    NEWDPF dihe0 168.01 161.06 129.04 29.20 -146.56 41.92 -48.33 80.52 122.75 -151.73 -69.71 -76.46 -6.07 
DOCKED: USER  keepresnum = 1 
DOCKED: USER  
DOCKED: REMARK  13 active torsions:
DOCKED: REMARK  status: ('A' for Active; 'I' for Inactive)
DOCKED: REMARK    1  A    between atoms: O_3  and  C_38 
DOCKED: REMARK    2  A    between atoms: O_4  and  C_40 
DOCKED: REMARK    3  A    between atoms: O_7  and  C_46 
DOCKED: REMARK    4  A    between atoms: O_9  and  C_48 
DOCKED: REMARK    5  A    between atoms: C_15  and  C_20 
DOCKED: REMARK    6  A    between atoms: C_16  and  C_23 
DOCKED: REMARK    7  A    between atoms: C_20  and  C_38 
DOCKED: REMARK    8  A    between atoms: C_23  and  C_40 
DOCKED: REMARK    9  A    between atoms: C_32  and  C_41 
DOCKED: REMARK   10  A    between atoms: C_37  and  C_45 
DOCKED: REMARK   11  A    between atoms: C_41  and  C_44 
DOCKED: REMARK   12  A    between atoms: C_44  and  C_46 
DOCKED: REMARK   13  A    between atoms: C_47  and  C_48 
DOCKED: USER                              x       y       z     vdW  Elec       q    Type
DOCKED: USER                           _______ _______ _______ _____ _____    ______ ____
DOCKED: ROOT
DOCKED: ATOM      1  O   UNL d   1       8.084  -9.575   9.043 -0.64 +0.21    -0.289 OA
DOCKED: ATOM      2  O   UNL d   1      13.790  -5.281  11.367 -0.12 +0.08    -0.289 OA
DOCKED: ATOM      3  N   UNL d   1      11.373 -10.250   8.253 -0.16 +0.09    -0.247 NA
DOCKED: ATOM      4  N   UNL d   1      12.831  -7.895   9.328 -0.15 +0.11    -0.247 NA
DOCKED: ATOM      5  N   UNL d   1      15.123  -8.738   7.810 +0.09 +0.17    -0.354 N 
DOCKED: ATOM      6  N   UNL d   1      13.596 -11.167   6.684 -0.12 +0.18    -0.354 N 
DOCKED: ATOM      7  C   UNL d   1       9.208 -11.199   7.603 -0.27 -0.03    +0.084 A 
DOCKED: ATOM      8  C   UNL d   1      11.803  -6.701  11.196 -0.19 -0.04    +0.084 A 
DOCKED: ATOM      9  C   UNL d   1      11.715  -7.797  10.129 -0.25 -0.03    +0.058 A 
DOCKED: ATOM     10  C   UNL d   1      10.735 -11.209   7.483 -0.25 -0.02    +0.058 A 
DOCKED: ATOM     11  C   UNL d   1       9.097 -10.078   8.592 -0.12 -0.07    +0.193 A 
DOCKED: ATOM     12  C   UNL d   1      10.477  -9.604   8.927 -0.17 -0.04    +0.109 A 
DOCKED: ATOM     13  C   UNL d   1      13.160  -6.171  10.829 -0.17 -0.07    +0.193 A 
DOCKED: ATOM     14  C   UNL d   1       8.531 -10.777   6.297 -0.45 -0.01    +0.026 C 
DOCKED: ATOM     15  C   UNL d   1      10.623  -8.558   9.959 -0.17 -0.03    +0.055 C 
DOCKED: ATOM     16  C   UNL d   1      11.870  -7.288  12.609 -0.07 -0.01    +0.026 C 
DOCKED: ATOM     17  C   UNL d   1      13.672  -6.975   9.678 -0.23 -0.04    +0.109 A 
DOCKED: ATOM     18  C   UNL d   1      11.377 -12.140   6.754 -0.27 -0.01    +0.050 C 
DOCKED: ATOM     19  C   UNL d   1      12.785 -12.279   6.652 -0.21 -0.02    +0.045 A 
DOCKED: ATOM     20  C   UNL d   1      15.550  -7.500   8.215 -0.25 -0.02    +0.045 A 
DOCKED: ATOM     21  C   UNL d   1      14.971  -6.652   9.071 -0.21 -0.02    +0.057 C 
DOCKED: ATOM     22  C   UNL d   1      17.066  -8.358   6.737 -0.29 +0.00    -0.019 A 
DOCKED: ATOM     23  C   UNL d   1      15.972  -9.333   6.916 -0.27 -0.01    +0.045 A 
DOCKED: ATOM     24  C   UNL d   1      16.811  -7.275   7.509 -0.27 +0.00    -0.022 A 
DOCKED: ATOM     25  C   UNL d   1      14.909 -11.522   6.479 -0.23 -0.02    +0.049 A 
DOCKED: ATOM     26  C   UNL d   1      13.595 -13.387   6.458 -0.14 +0.01    -0.018 A 
DOCKED: ATOM     27  C   UNL d   1      14.937 -12.905   6.369 -0.14 -0.00    +0.003 A 
DOCKED: ATOM     28  C   UNL d   1      15.915 -10.531   6.314 -0.31 -0.02    +0.052 C 
DOCKED: ATOM     29  C   UNL d   1      17.624  -6.036   7.677 -0.21 -0.00    +0.046 C 
DOCKED: ATOM     30  C   UNL d   1      13.152 -14.808   6.363 -0.12 -0.01    +0.046 C 
DOCKED: ATOM     31  H   UNL d   1      14.298  -9.168   8.215 -0.31 -0.09    +0.166 HD
DOCKED: ATOM     32  H   UNL d   1      13.249 -10.223   6.802 -0.46 -0.13    +0.166 HD
DOCKED: ENDROOT
DOCKED: BRANCH   7  33
DOCKED: ATOM     33  C   UNL d   1       8.586 -12.480   8.170 -0.18 -0.04    +0.141 C 
DOCKED: BRANCH  33  34
DOCKED: ATOM     34  C   UNL d   1       7.121 -12.325   8.477 -0.16 -0.09    +0.306 C 
DOCKED: ATOM     35  O   UNL d   1       6.640 -11.994   9.547 -0.30 +0.11    -0.251 OA
DOCKED: BRANCH  34  36
DOCKED: ATOM     36  O   UNL d   1       6.338 -12.594   7.417 -0.07 +0.12    -0.481 OA
DOCKED: ATOM     37  H   UNL d   1       6.951 -12.593   6.651 -0.39 -0.18    +0.295 HD
DOCKED: ENDBRANCH  34  36
DOCKED: ENDBRANCH  33  34
DOCKED: ENDBRANCH   7  33
DOCKED: BRANCH  27  38
DOCKED: ATOM     38  C   UNL d   1      16.094 -13.721   6.154 -0.09 -0.01    +0.017 C 
DOCKED: ATOM     39  C   UNL d   1      17.134 -13.398   5.370 -0.07 -0.06    +0.092 C 
DOCKED: BRANCH  39  40
DOCKED: ATOM     40  C   UNL d   1      18.269 -14.317   5.247 -0.04 -0.09    +0.330 C 
DOCKED: ATOM     41  O   UNL d   1      18.238 -15.530   5.169 -0.03 +0.05    -0.246 OA
DOCKED: BRANCH  40  42
DOCKED: ATOM     42  O   UNL d   1      19.420 -13.627   5.220 +0.00 +0.02    -0.477 OA
DOCKED: ATOM     43  H   UNL d   1      19.144 -12.719   4.980 +0.08 -0.02    +0.295 HD
DOCKED: ENDBRANCH  40  42
DOCKED: ENDBRANCH  39  40
DOCKED: ENDBRANCH  27  38
DOCKED: BRANCH   8  44
DOCKED: ATOM     44  C   UNL d   1      10.741  -5.601  11.102 -0.26 -0.10    +0.141 C 
DOCKED: BRANCH  44  45
DOCKED: ATOM     45  C   UNL d   1      10.534  -4.863  12.398 -0.13 -0.17    +0.306 C 
DOCKED: ATOM     46  O   UNL d   1       9.715  -5.127  13.262 -0.09 +0.17    -0.251 OA
DOCKED: BRANCH  45  47
DOCKED: ATOM     47  O   UNL d   1      11.357  -3.807  12.526 -0.43 +0.09    -0.481 OA
DOCKED: ATOM     48  H   UNL d   1      12.253  -4.168  12.355 +0.07 -0.06    +0.295 HD
DOCKED: ENDBRANCH  45  47
DOCKED: ENDBRANCH  44  45
DOCKED: ENDBRANCH   8  44
DOCKED: BRANCH  22  49
DOCKED: ATOM     49  C   UNL d   1      18.239  -8.566   5.825 -0.21 +0.01    +0.048 C 
DOCKED: BRANCH  49  50
DOCKED: ATOM     50  C   UNL d   1      19.398  -9.263   6.538 -0.21 +0.03    +0.125 C 
DOCKED: BRANCH  50  51
DOCKED: ATOM     51  C   UNL d   1      19.595 -10.654   6.008 -0.13 +0.07    +0.305 C 
DOCKED: ATOM     52  O   UNL d   1      20.083 -10.981   4.940 -0.20 -0.08    -0.251 OA
DOCKED: BRANCH  51  53
DOCKED: ATOM     53  O   UNL d   1      19.143 -11.590   6.867 +0.01 -0.03    -0.481 OA
DOCKED: ATOM     54  H   UNL d   1      19.706 -12.371   6.685 +0.06 +0.03    +0.295 HD
DOCKED: ENDBRANCH  51  53
DOCKED: ENDBRANCH  50  51
DOCKED: ENDBRANCH  49  50
DOCKED: ENDBRANCH  22  49
DOCKED: TORSDOF 13
DOCKED: TER
DOCKED: ENDMDL
________________________________________________________________________________


	BEGINNING GENETIC ALGORITHM DOCKING 53 of 100
Run: 53 Seed: 1223843754 349205646 [ Run 53 of 100 GA/GALS ]
Beginning LAMARCKIAN GENETIC ALGORITHM (LGA), with a maximum of 25000000 energy evaluations.

Final-Value: -10.524


	FINAL GENETIC ALGORITHM DOCKED STATE
	_______________________________________________


Detailed state:  trans 8.898 11.288 2.481 quatxyzw 0.719439 -0.209282 0.634210 0.190752 center 0.153 0.018 -0.028 ntor 13 170.4999 -152.6458 110.7711 -60.8268 -150.7595 -108.1755 -46.1341 90.3772 14.4291 -124.8113 90.6876 -60.5320 13.3176
State:	  8.898  11.288   2.481   0.733 -0.213  0.646 158.007    170.50 -152.65  110.77  -60.83 -150.76 -108.18  -46.13   90.38   14.43 -124.81   90.69  -60.53   13.32

DOCKED: MODEL       53
DOCKED: USER    Run = 53
DOCKED: USER    DPF = D:/Protein_go_brrr/autodock/final/mut_D99N/heme/dock.dpf
DOCKED: USER  
DOCKED: USER    Estimated Free Energy of Binding    =   -4.11 kcal/mol  [=(1)+(2)+(3)-(4)]
DOCKED: USER    Estimated Inhibition Constant, Ki   =  964.90 uM (micromolar)  [Temperature = 298.15 K]
DOCKED: USER    
DOCKED: USER    (1) Final Intermolecular Energy     =   -7.99 kcal/mol
DOCKED: USER        vdW + Hbond + desolv Energy     =   -7.73 kcal/mol
DOCKED: USER        Electrostatic Energy            =   -0.26 kcal/mol
DOCKED: USER    (2) Final Total Internal Energy     =   -2.53 kcal/mol
DOCKED: USER    (3) Torsional Free Energy           =   +3.88 kcal/mol
DOCKED: USER    (4) Unbound System's Energy  [=(2)] =   -2.53 kcal/mol
DOCKED: USER    
DOCKED: USER    
DOCKED: USER    NEWDPF move heme_opt.pdbqt
DOCKED: USER    NEWDPF about 0.153000 0.018000 -0.028000
DOCKED: USER    NEWDPF tran0 8.897959 11.287999 2.481488
DOCKED: USER    NEWDPF quaternion0 0.719439 -0.209282 0.634210 0.190752
DOCKED: USER    NEWDPF axisangle0 0.732896 -0.213197 0.646073 158.006612
DOCKED: USER    NEWDPF quat0 0.732896 -0.213197 0.646073 158.006612
DOCKED: USER    NEWDPF dihe0 170.50 -152.65 110.77 -60.83 -150.76 -108.18 -46.13 90.38 14.43 -124.81 90.69 -60.53 13.32 
DOCKED: USER  keepresnum = 1 
DOCKED: USER  
DOCKED: REMARK  13 active torsions:
DOCKED: REMARK  status: ('A' for Active; 'I' for Inactive)
DOCKED: REMARK    1  A    between atoms: O_3  and  C_38 
DOCKED: REMARK    2  A    between atoms: O_4  and  C_40 
DOCKED: REMARK    3  A    between atoms: O_7  and  C_46 
DOCKED: REMARK    4  A    between atoms: O_9  and  C_48 
DOCKED: REMARK    5  A    between atoms: C_15  and  C_20 
DOCKED: REMARK    6  A    between atoms: C_16  and  C_23 
DOCKED: REMARK    7  A    between atoms: C_20  and  C_38 
DOCKED: REMARK    8  A    between atoms: C_23  and  C_40 
DOCKED: REMARK    9  A    between atoms: C_32  and  C_41 
DOCKED: REMARK   10  A    between atoms: C_37  and  C_45 
DOCKED: REMARK   11  A    between atoms: C_41  and  C_44 
DOCKED: REMARK   12  A    between atoms: C_44  and  C_46 
DOCKED: REMARK   13  A    between atoms: C_47  and  C_48 
DOCKED: USER                              x       y       z     vdW  Elec       q    Type
DOCKED: USER                           _______ _______ _______ _____ _____    ______ ____
DOCKED: ROOT
DOCKED: ATOM      1  O   UNL d   1       8.835  12.923  -3.182 -0.01 -0.06    -0.289 OA
DOCKED: ATOM      2  O   UNL d   1       7.331  16.786   3.079 -0.05 +0.00    -0.289 OA
DOCKED: ATOM      3  N   UNL d   1       8.873  11.487  -0.047 -0.47 -0.10    -0.247 NA
DOCKED: ATOM      4  N   UNL d   1       8.470  13.803   1.770 -0.11 -0.01    -0.247 NA
DOCKED: ATOM      5  N   UNL d   1       9.268  12.110   3.953 -0.06 -0.01    -0.354 N 
DOCKED: ATOM      6  N   UNL d   1       9.702   9.718   2.058 -0.09 -0.01    -0.354 N 
DOCKED: ATOM      7  C   UNL d   1       9.460  10.729  -2.303 -0.07 +0.02    +0.084 A 
DOCKED: ATOM      8  C   UNL d   1       7.287  15.740   0.866 -0.11 +0.00    +0.084 A 
DOCKED: ATOM      9  C   UNL d   1       7.918  14.362   0.640 -0.14 +0.00    +0.058 A 
DOCKED: ATOM     10  C   UNL d   1       9.352  10.431  -0.805 -0.08 +0.01    +0.058 A 
DOCKED: ATOM     11  C   UNL d   1       8.939  12.135  -2.260 -0.04 +0.04    +0.193 A 
DOCKED: ATOM     12  C   UNL d   1       8.594  12.468  -0.842 -0.10 +0.03    +0.109 A 
DOCKED: ATOM     13  C   UNL d   1       7.617  15.875   2.326 -0.09 +0.00    +0.193 A 
DOCKED: ATOM     14  C   UNL d   1      10.914  10.754  -2.780 -0.01 +0.00    +0.026 C 
DOCKED: ATOM     15  C   UNL d   1       7.971  13.778  -0.567 -0.15 +0.01    +0.055 C 
DOCKED: ATOM     16  C   UNL d   1       5.764  15.701   0.707 -0.20 +0.00    +0.026 C 
DOCKED: ATOM     17  C   UNL d   1       8.340  14.638   2.750 -0.13 +0.00    +0.109 A 
DOCKED: ATOM     18  C   UNL d   1       9.620   9.208  -0.310 -0.15 +0.00    +0.050 C 
DOCKED: ATOM     19  C   UNL d   1       9.468   8.817   1.044 -0.16 +0.00    +0.045 A 
DOCKED: ATOM     20  C   UNL d   1       9.253  13.324   4.590 -0.15 -0.00    +0.045 A 
DOCKED: ATOM     21  C   UNL d   1       8.829  14.506   4.130 -0.14 -0.00    +0.057 C 
DOCKED: ATOM     22  C   UNL d   1      10.119  11.758   6.009 -0.13 -0.00    -0.019 A 
DOCKED: ATOM     23  C   UNL d   1       9.774  11.103   4.731 +0.08 +0.00    +0.045 A 
DOCKED: ATOM     24  C   UNL d   1       9.807  13.072   5.919 -0.12 +0.00    -0.022 A 
DOCKED: ATOM     25  C   UNL d   1       9.586   9.107   3.285 -0.17 +0.00    +0.049 A 
DOCKED: ATOM     26  C   UNL d   1       9.155   7.598   1.627 -0.28 +0.00    -0.018 A 
DOCKED: ATOM     27  C   UNL d   1       9.212   7.792   3.042 -0.28 +0.00    +0.003 A 
DOCKED: ATOM     28  C   UNL d   1       9.935   9.795   4.479 -0.01 +0.00    +0.052 C 
DOCKED: ATOM     29  C   UNL d   1       9.958  14.139   6.950 -0.06 -0.00    +0.046 C 
DOCKED: ATOM     30  C   UNL d   1       8.822   6.331   0.916 -0.34 +0.00    +0.046 C 
DOCKED: ATOM     31  H   UNL d   1       8.862  11.995   3.031 +0.04 +0.01    +0.166 HD
DOCKED: ATOM     32  H   UNL d   1       9.964  10.684   1.900 +0.03 +0.01    +0.166 HD
DOCKED: ENDROOT
DOCKED: BRANCH   7  33
DOCKED: ATOM     33  C   UNL d   1       8.585   9.859  -3.211 -0.17 +0.06    +0.141 C 
DOCKED: BRANCH  33  34
DOCKED: ATOM     34  C   UNL d   1       7.115  10.031  -2.937 -0.16 +0.18    +0.306 C 
DOCKED: ATOM     35  O   UNL d   1       6.426   9.315  -2.230 -0.91 -0.12    -0.251 OA
DOCKED: BRANCH  34  36
DOCKED: ATOM     36  O   UNL d   1       6.591  11.097  -3.566 -0.37 -0.42    -0.481 OA
DOCKED: ATOM     37  H   UNL d   1       7.369  11.599  -3.890 +0.08 +0.21    +0.295 HD
DOCKED: ENDBRANCH  34  36
DOCKED: ENDBRANCH  33  34
DOCKED: ENDBRANCH   7  33
DOCKED: BRANCH  27  38
DOCKED: ATOM     38  C   UNL d   1       8.970   6.779   4.024 -0.36 +0.00    +0.017 C 
DOCKED: ATOM     39  C   UNL d   1       9.437   6.792   5.282 -0.23 +0.02    +0.092 C 
DOCKED: BRANCH  39  40
DOCKED: ATOM     40  C   UNL d   1       9.101   5.698   6.197 -0.20 +0.16    +0.330 C 
DOCKED: ATOM     41  O   UNL d   1       8.373   5.740   7.170 -0.90 -0.16    -0.246 OA
DOCKED: BRANCH  40  42
DOCKED: ATOM     42  O   UNL d   1       9.718   4.569   5.813 -0.23 -0.26    -0.477 OA
DOCKED: ATOM     43  H   UNL d   1      10.517   4.886   5.344 +0.12 +0.10    +0.295 HD
DOCKED: ENDBRANCH  40  42
DOCKED: ENDBRANCH  39  40
DOCKED: ENDBRANCH  27  38
DOCKED: BRANCH   8  44
DOCKED: ATOM     44  C   UNL d   1       7.900  16.888   0.057 -0.03 +0.00    +0.141 C 
DOCKED: BRANCH  44  45
DOCKED: ATOM     45  C   UNL d   1       7.334  18.236   0.415 -0.01 +0.01    +0.306 C 
DOCKED: ATOM     46  O   UNL d   1       6.370  18.779  -0.097 -0.02 -0.01    -0.251 OA
DOCKED: BRANCH  45  47
DOCKED: ATOM     47  O   UNL d   1       8.034  18.847   1.388 +0.00 -0.01    -0.481 OA
DOCKED: ATOM     48  H   UNL d   1       7.843  18.325   2.196 +0.02 +0.00    +0.295 HD
DOCKED: ENDBRANCH  45  47
DOCKED: ENDBRANCH  44  45
DOCKED: ENDBRANCH   8  44
DOCKED: BRANCH  22  49
DOCKED: ATOM     49  C   UNL d   1      10.729  11.047   7.181 -0.10 +0.00    +0.048 C 
DOCKED: BRANCH  49  50
DOCKED: ATOM     50  C   UNL d   1       9.738  10.093   7.847 -0.09 +0.01    +0.125 C 
DOCKED: BRANCH  50  51
DOCKED: ATOM     51  C   UNL d   1       8.938  10.801   8.903 -0.15 +0.01    +0.305 C 
DOCKED: ATOM     52  O   UNL d   1       7.928  11.465   8.749 -0.28 +0.01    -0.251 OA
DOCKED: BRANCH  51  53
DOCKED: ATOM     53  O   UNL d   1       9.471  10.642  10.131 -0.03 -0.01    -0.481 OA
DOCKED: ATOM     54  H   UNL d   1       9.690  11.554  10.415 +0.05 -0.00    +0.295 HD
DOCKED: ENDBRANCH  51  53
DOCKED: ENDBRANCH  50  51
DOCKED: ENDBRANCH  49  50
DOCKED: ENDBRANCH  22  49
DOCKED: TORSDOF 13
DOCKED: TER
DOCKED: ENDMDL
________________________________________________________________________________


	BEGINNING GENETIC ALGORITHM DOCKING 54 of 100
Run: 54 Seed: 759591363 635033551 [ Run 54 of 100 GA/GALS ]
Beginning LAMARCKIAN GENETIC ALGORITHM (LGA), with a maximum of 25000000 energy evaluations.

Final-Value: -12.133


	FINAL GENETIC ALGORITHM DOCKED STATE
	_______________________________________________


Detailed state:  trans 12.731 -10.466 8.579 quatxyzw 0.293208 -0.838820 -0.442366 -0.121331 center 0.153 0.018 -0.028 ntor 13 121.1322 -136.3693 134.4392 145.5042 -134.0402 51.0991 -47.9970 -88.5728 27.9674 -97.6388 -81.8994 -102.0772 0.2132
State:	 12.731 -10.466   8.579   0.295 -0.845 -0.446 -166.062    121.13 -136.37  134.44  145.50 -134.04   51.10  -48.00  -88.57   27.97  -97.64  -81.90 -102.08    0.21

DOCKED: MODEL       54
DOCKED: USER    Run = 54
DOCKED: USER    DPF = D:/Protein_go_brrr/autodock/final/mut_D99N/heme/dock.dpf
DOCKED: USER  
DOCKED: USER    Estimated Free Energy of Binding    =   -4.30 kcal/mol  [=(1)+(2)+(3)-(4)]
DOCKED: USER    Estimated Inhibition Constant, Ki   =  703.07 uM (micromolar)  [Temperature = 298.15 K]
DOCKED: USER    
DOCKED: USER    (1) Final Intermolecular Energy     =   -8.18 kcal/mol
DOCKED: USER        vdW + Hbond + desolv Energy     =   -7.78 kcal/mol
DOCKED: USER        Electrostatic Energy            =   -0.40 kcal/mol
DOCKED: USER    (2) Final Total Internal Energy     =   -3.95 kcal/mol
DOCKED: USER    (3) Torsional Free Energy           =   +3.88 kcal/mol
DOCKED: USER    (4) Unbound System's Energy  [=(2)] =   -3.95 kcal/mol
DOCKED: USER    
DOCKED: USER    
DOCKED: USER    NEWDPF move heme_opt.pdbqt
DOCKED: USER    NEWDPF about 0.153000 0.018000 -0.028000
DOCKED: USER    NEWDPF tran0 12.730656 -10.466126 8.578812
DOCKED: USER    NEWDPF quaternion0 0.293208 -0.838820 -0.442366 -0.121331
DOCKED: USER    NEWDPF axisangle0 0.295390 -0.845064 -0.445659 -166.062157
DOCKED: USER    NEWDPF quat0 0.295390 -0.845064 -0.445659 -166.062157
DOCKED: USER    NEWDPF dihe0 121.13 -136.37 134.44 145.50 -134.04 51.10 -48.00 -88.57 27.97 -97.64 -81.90 -102.08 0.21 
DOCKED: USER  keepresnum = 1 
DOCKED: USER  
DOCKED: REMARK  13 active torsions:
DOCKED: REMARK  status: ('A' for Active; 'I' for Inactive)
DOCKED: REMARK    1  A    between atoms: O_3  and  C_38 
DOCKED: REMARK    2  A    between atoms: O_4  and  C_40 
DOCKED: REMARK    3  A    between atoms: O_7  and  C_46 
DOCKED: REMARK    4  A    between atoms: O_9  and  C_48 
DOCKED: REMARK    5  A    between atoms: C_15  and  C_20 
DOCKED: REMARK    6  A    between atoms: C_16  and  C_23 
DOCKED: REMARK    7  A    between atoms: C_20  and  C_38 
DOCKED: REMARK    8  A    between atoms: C_23  and  C_40 
DOCKED: REMARK    9  A    between atoms: C_32  and  C_41 
DOCKED: REMARK   10  A    between atoms: C_37  and  C_45 
DOCKED: REMARK   11  A    between atoms: C_41  and  C_44 
DOCKED: REMARK   12  A    between atoms: C_44  and  C_46 
DOCKED: REMARK   13  A    between atoms: C_47  and  C_48 
DOCKED: USER                              x       y       z     vdW  Elec       q    Type
DOCKED: USER                           _______ _______ _______ _____ _____    ______ ____
DOCKED: ROOT
DOCKED: ATOM      1  O   UNL d   1      16.262  -5.931   9.891 -0.07 +0.06    -0.289 OA
DOCKED: ATOM      2  O   UNL d   1      17.447 -12.050   5.701 -0.11 +0.10    -0.289 OA
DOCKED: ATOM      3  N   UNL d   1      13.906  -8.422   9.512 -0.11 +0.09    -0.247 NA
DOCKED: ATOM      4  N   UNL d   1      15.131 -10.220   7.489 -0.12 +0.09    -0.247 NA
DOCKED: ATOM      5  N   UNL d   1      12.566 -11.485   7.195 -0.10 +0.14    -0.354 N 
DOCKED: ATOM      6  N   UNL d   1      11.298  -9.602   9.281 -0.11 +0.14    -0.354 N 
DOCKED: ATOM      7  C   UNL d   1      13.933  -6.214  10.576 -0.19 -0.03    +0.084 A 
DOCKED: ATOM      8  C   UNL d   1      17.570 -10.229   7.333 -0.10 -0.01    +0.084 A 
DOCKED: ATOM      9  C   UNL d   1      16.294  -9.633   7.937 -0.14 -0.01    +0.058 A 
DOCKED: ATOM     10  C   UNL d   1      13.165  -7.490  10.219 -0.20 -0.02    +0.058 A 
DOCKED: ATOM     11  C   UNL d   1      15.245  -6.597   9.961 -0.11 -0.05    +0.193 A 
DOCKED: ATOM     12  C   UNL d   1      15.108  -7.967   9.372 -0.14 -0.03    +0.109 A 
DOCKED: ATOM     13  C   UNL d   1      16.914 -11.238   6.432 -0.12 -0.05    +0.193 A 
DOCKED: ATOM     14  C   UNL d   1      13.382  -4.988   9.843 -0.17 -0.01    +0.026 C 
DOCKED: ATOM     15  C   UNL d   1      16.310  -8.596   8.787 -0.13 -0.01    +0.055 C 
DOCKED: ATOM     16  C   UNL d   1      18.401 -10.974   8.382 -0.04 -0.00    +0.026 C 
DOCKED: ATOM     17  C   UNL d   1      15.436 -11.125   6.615 -0.20 -0.05    +0.109 A 
DOCKED: ATOM     18  C   UNL d   1      11.906  -7.696  10.650 -0.23 -0.02    +0.050 C 
DOCKED: ATOM     19  C   UNL d   1      11.149  -8.877  10.441 -0.18 -0.02    +0.045 A 
DOCKED: ATOM     20  C   UNL d   1      13.233 -12.056   6.142 -0.27 -0.02    +0.045 A 
DOCKED: ATOM     21  C   UNL d   1      14.528 -11.966   5.822 -0.28 -0.04    +0.057 C 
DOCKED: ATOM     22  C   UNL d   1      11.033 -12.662   6.040 -0.21 +0.01    -0.019 A 
DOCKED: ATOM     23  C   UNL d   1      11.232 -11.793   7.217 -0.22 -0.01    +0.045 A 
DOCKED: ATOM     24  C   UNL d   1      12.221 -12.815   5.409 -0.25 +0.01    -0.022 A 
DOCKED: ATOM     25  C   UNL d   1      10.408 -10.650   9.248 -0.15 -0.02    +0.049 A 
DOCKED: ATOM     26  C   UNL d   1      10.162  -9.490  11.198 -0.15 +0.01    -0.018 A 
DOCKED: ATOM     27  C   UNL d   1       9.712 -10.621  10.449 -0.13 -0.00    +0.003 A 
DOCKED: ATOM     28  C   UNL d   1      10.265 -11.449   8.081 -0.22 -0.02    +0.052 C 
DOCKED: ATOM     29  C   UNL d   1      12.532 -13.608   4.185 -0.20 -0.03    +0.046 C 
DOCKED: ATOM     30  C   UNL d   1       9.668  -9.056  12.536 -0.11 -0.04    +0.046 C 
DOCKED: ATOM     31  H   UNL d   1      13.061 -10.961   7.909 +0.00 -0.07    +0.166 HD
DOCKED: ATOM     32  H   UNL d   1      11.952  -9.356   8.547 -0.18 -0.08    +0.166 HD
DOCKED: ENDROOT
DOCKED: BRANCH   7  33
DOCKED: ATOM     33  C   UNL d   1      14.099  -5.944  12.076 -0.08 -0.03    +0.141 C 
DOCKED: BRANCH  33  34
DOCKED: ATOM     34  C   UNL d   1      15.142  -6.825  12.710 -0.00 -0.04    +0.306 C 
DOCKED: ATOM     35  O   UNL d   1      14.992  -7.985  13.054 -0.00 +0.03    -0.251 OA
DOCKED: BRANCH  34  36
DOCKED: ATOM     36  O   UNL d   1      16.320  -6.197  12.874 +0.01 +0.04    -0.481 OA
DOCKED: ATOM     37  H   UNL d   1      16.603  -5.963  11.965 +0.03 -0.03    +0.295 HD
DOCKED: ENDBRANCH  34  36
DOCKED: ENDBRANCH  33  34
DOCKED: ENDBRANCH   7  33
DOCKED: BRANCH  27  38
DOCKED: ATOM     38  C   UNL d   1       8.683 -11.527  10.860 -0.12 -0.01    +0.017 C 
DOCKED: ATOM     39  C   UNL d   1       7.499 -11.685  10.248 -0.19 -0.06    +0.092 C 
DOCKED: BRANCH  39  40
DOCKED: ATOM     40  C   UNL d   1       6.536 -12.662  10.761 -0.06 -0.13    +0.330 C 
DOCKED: ATOM     41  O   UNL d   1       6.160 -12.803  11.910 -0.39 +0.09    -0.246 OA
DOCKED: BRANCH  40  42
DOCKED: ATOM     42  O   UNL d   1       6.077 -13.428   9.760 -0.16 +0.09    -0.477 OA
DOCKED: ATOM     43  H   UNL d   1       6.880 -13.643   9.241 +0.08 -0.06    +0.295 HD
DOCKED: ENDBRANCH  40  42
DOCKED: ENDBRANCH  39  40
DOCKED: ENDBRANCH  27  38
DOCKED: BRANCH   8  44
DOCKED: ATOM     44  C   UNL d   1      18.437  -9.256   6.528 -0.23 +0.01    +0.141 C 
DOCKED: BRANCH  44  45
DOCKED: ATOM     45  C   UNL d   1      19.156  -9.911   5.379 -0.21 +0.08    +0.306 C 
DOCKED: ATOM     46  O   UNL d   1      20.277 -10.388   5.400 -0.21 -0.11    -0.251 OA
DOCKED: BRANCH  45  47
DOCKED: ATOM     47  O   UNL d   1      18.429  -9.906   4.247 -0.35 -0.08    -0.481 OA
DOCKED: ATOM     48  H   UNL d   1      17.536 -10.202   4.524 -0.03 -0.07    +0.295 HD
DOCKED: ENDBRANCH  45  47
DOCKED: ENDBRANCH  44  45
DOCKED: ENDBRANCH   8  44
DOCKED: BRANCH  22  49
DOCKED: ATOM     49  C   UNL d   1       9.710 -13.245   5.637 -0.15 -0.01    +0.048 C 
DOCKED: BRANCH  49  50
DOCKED: ATOM     50  C   UNL d   1       9.394 -14.526   6.408 -0.21 -0.02    +0.125 C 
DOCKED: BRANCH  50  51
DOCKED: ATOM     51  C   UNL d   1       8.465 -14.246   7.556 -0.09 -0.07    +0.305 C 
DOCKED: ATOM     52  O   UNL d   1       8.764 -14.028   8.717 -0.04 +0.05    -0.251 OA
DOCKED: BRANCH  51  53
DOCKED: ATOM     53  O   UNL d   1       7.172 -14.269   7.176 -0.07 +0.16    -0.481 OA
DOCKED: ATOM     54  H   UNL d   1       7.185 -13.902   6.267 -0.38 -0.23    +0.295 HD
DOCKED: ENDBRANCH  51  53
DOCKED: ENDBRANCH  50  51
DOCKED: ENDBRANCH  49  50
DOCKED: ENDBRANCH  22  49
DOCKED: TORSDOF 13
DOCKED: TER
DOCKED: ENDMDL
________________________________________________________________________________


	BEGINNING GENETIC ALGORITHM DOCKING 55 of 100
Run: 55 Seed: 240661955 882394013 [ Run 55 of 100 GA/GALS ]
Beginning LAMARCKIAN GENETIC ALGORITHM (LGA), with a maximum of 25000000 energy evaluations.

Final-Value: -13.190


	FINAL GENETIC ALGORITHM DOCKED STATE
	_______________________________________________


Detailed state:  trans 13.735 -8.601 8.195 quatxyzw -0.155713 0.339511 -0.927620 0.002557 center 0.153 0.018 -0.028 ntor 13 -111.2905 71.4390 -157.9556 -119.5854 39.2524 180.0000 136.6208 111.0418 134.5920 -6.9548 33.4513 24.6137 -180.0000
State:	 13.735  -8.601   8.195  -0.156  0.340 -0.928 179.707   -111.29   71.44 -157.96 -119.59   39.25  180.00  136.62  111.04  134.59   -6.95   33.45   24.61 -180.00

DOCKED: MODEL       55
DOCKED: USER    Run = 55
DOCKED: USER    DPF = D:/Protein_go_brrr/autodock/final/mut_D99N/heme/dock.dpf
DOCKED: USER  
DOCKED: USER    Estimated Free Energy of Binding    =   -6.92 kcal/mol  [=(1)+(2)+(3)-(4)]
DOCKED: USER    Estimated Inhibition Constant, Ki   =    8.40 uM (micromolar)  [Temperature = 298.15 K]
DOCKED: USER    
DOCKED: USER    (1) Final Intermolecular Energy     =  -10.80 kcal/mol
DOCKED: USER        vdW + Hbond + desolv Energy     =  -10.18 kcal/mol
DOCKED: USER        Electrostatic Energy            =   -0.62 kcal/mol
DOCKED: USER    (2) Final Total Internal Energy     =   -2.39 kcal/mol
DOCKED: USER    (3) Torsional Free Energy           =   +3.88 kcal/mol
DOCKED: USER    (4) Unbound System's Energy  [=(2)] =   -2.39 kcal/mol
DOCKED: USER    
DOCKED: USER    
DOCKED: USER    NEWDPF move heme_opt.pdbqt
DOCKED: USER    NEWDPF about 0.153000 0.018000 -0.028000
DOCKED: USER    NEWDPF tran0 13.734629 -8.600619 8.195000
DOCKED: USER    NEWDPF quaternion0 -0.155713 0.339511 -0.927620 0.002557
DOCKED: USER    NEWDPF axisangle0 -0.155713 0.339512 -0.927623 179.706984
DOCKED: USER    NEWDPF quat0 -0.155713 0.339512 -0.927623 179.706984
DOCKED: USER    NEWDPF dihe0 -111.29 71.44 -157.96 -119.59 39.25 180.00 136.62 111.04 134.59 -6.95 33.45 24.61 -180.00 
DOCKED: USER  keepresnum = 1 
DOCKED: USER  
DOCKED: REMARK  13 active torsions:
DOCKED: REMARK  status: ('A' for Active; 'I' for Inactive)
DOCKED: REMARK    1  A    between atoms: O_3  and  C_38 
DOCKED: REMARK    2  A    between atoms: O_4  and  C_40 
DOCKED: REMARK    3  A    between atoms: O_7  and  C_46 
DOCKED: REMARK    4  A    between atoms: O_9  and  C_48 
DOCKED: REMARK    5  A    between atoms: C_15  and  C_20 
DOCKED: REMARK    6  A    between atoms: C_16  and  C_23 
DOCKED: REMARK    7  A    between atoms: C_20  and  C_38 
DOCKED: REMARK    8  A    between atoms: C_23  and  C_40 
DOCKED: REMARK    9  A    between atoms: C_32  and  C_41 
DOCKED: REMARK   10  A    between atoms: C_37  and  C_45 
DOCKED: REMARK   11  A    between atoms: C_41  and  C_44 
DOCKED: REMARK   12  A    between atoms: C_44  and  C_46 
DOCKED: REMARK   13  A    between atoms: C_47  and  C_48 
DOCKED: USER                              x       y       z     vdW  Elec       q    Type
DOCKED: USER                           _______ _______ _______ _____ _____    ______ ____
DOCKED: ROOT
DOCKED: ATOM      1  O   UNL d   1      19.073  -9.742   5.969 -0.32 -0.06    -0.289 OA
DOCKED: ATOM      2  O   UNL d   1      16.345  -3.608   9.333 -0.16 +0.05    -0.289 OA
DOCKED: ATOM      3  N   UNL d   1      15.793  -9.481   7.003 -0.18 +0.08    -0.247 NA
DOCKED: ATOM      4  N   UNL d   1      15.739  -6.890   8.456 -0.17 +0.08    -0.247 NA
DOCKED: ATOM      5  N   UNL d   1      13.178  -7.646   9.521 -0.13 +0.14    -0.354 N 
DOCKED: ATOM      6  N   UNL d   1      13.251 -10.341   8.025 +0.06 +0.17    -0.354 N 
DOCKED: ATOM      7  C   UNL d   1      17.173 -11.277   6.066 -0.18 -0.02    +0.084 A 
DOCKED: ATOM      8  C   UNL d   1      17.396  -5.213   7.813 -0.17 -0.01    +0.084 A 
DOCKED: ATOM      9  C   UNL d   1      16.846  -6.637   7.677 -0.24 -0.01    +0.058 A 
DOCKED: ATOM     10  C   UNL d   1      15.819 -10.808   6.607 -0.23 -0.02    +0.058 A 
DOCKED: ATOM     11  C   UNL d   1      17.902  -9.975   6.208 -0.19 -0.01    +0.193 A 
DOCKED: ATOM     12  C   UNL d   1      16.952  -8.959   6.762 -0.25 -0.02    +0.109 A 
DOCKED: ATOM     13  C   UNL d   1      16.420  -4.717   8.843 -0.13 -0.05    +0.193 A 
DOCKED: ATOM     14  C   UNL d   1      17.829 -12.315   6.980 -0.07 -0.00    +0.026 C 
DOCKED: ATOM     15  C   UNL d   1      17.425  -7.568   6.903 -0.22 -0.00    +0.055 C 
DOCKED: ATOM     16  C   UNL d   1      17.207  -4.405   6.526 -0.23 -0.00    +0.026 C 
DOCKED: ATOM     17  C   UNL d   1      15.474  -5.831   9.152 -0.04 -0.04    +0.109 A 
DOCKED: ATOM     18  C   UNL d   1      14.742 -11.615   6.601 -0.25 -0.02    +0.050 C 
DOCKED: ATOM     19  C   UNL d   1      13.433 -11.243   7.002 -0.21 -0.02    +0.045 A 
DOCKED: ATOM     20  C   UNL d   1      13.429  -6.533  10.281 -0.25 -0.02    +0.045 A 
DOCKED: ATOM     21  C   UNL d   1      14.425  -5.649  10.167 -0.26 -0.02    +0.057 C 
DOCKED: ATOM     22  C   UNL d   1      11.544  -7.554  11.069 -0.19 +0.01    -0.019 A 
DOCKED: ATOM     23  C   UNL d   1      12.060  -8.328   9.922 -0.23 -0.02    +0.045 A 
DOCKED: ATOM     24  C   UNL d   1      12.358  -6.492  11.275 -0.19 +0.01    -0.022 A 
DOCKED: ATOM     25  C   UNL d   1      11.912 -10.195   8.308 -0.09 -0.02    +0.049 A 
DOCKED: ATOM     26  C   UNL d   1      12.181 -11.667   6.585 -0.28 +0.01    -0.018 A 
DOCKED: ATOM     27  C   UNL d   1      11.224 -10.987   7.400 -0.29 -0.00    +0.003 A 
DOCKED: ATOM     28  C   UNL d   1      11.483  -9.435   9.430 -0.24 -0.02    +0.052 C 
DOCKED: ATOM     29  C   UNL d   1      12.248  -5.419  12.304 -0.15 -0.02    +0.046 C 
DOCKED: ATOM     30  C   UNL d   1      11.889 -12.642   5.495 -0.19 -0.02    +0.046 C 
DOCKED: ATOM     31  H   UNL d   1      13.738  -7.863   8.704 -0.26 -0.09    +0.166 HD
DOCKED: ATOM     32  H   UNL d   1      14.013  -9.889   8.517 -0.07 -0.07    +0.166 HD
DOCKED: ENDROOT
DOCKED: BRANCH   7  33
DOCKED: ATOM     33  C   UNL d   1      17.172 -11.736   4.603 -0.15 -0.09    +0.141 C 
DOCKED: BRANCH  33  34
DOCKED: ATOM     34  C   UNL d   1      18.519 -12.234   4.152 -0.17 -0.06    +0.306 C 
DOCKED: ATOM     35  O   UNL d   1      18.901 -13.391   4.167 -0.11 +0.05    -0.251 OA
DOCKED: BRANCH  34  36
DOCKED: ATOM     36  O   UNL d   1      19.312 -11.246   3.702 -0.16 -0.06    -0.481 OA
DOCKED: ATOM     37  H   UNL d   1      19.492 -10.694   4.493 +0.10 +0.07    +0.295 HD
DOCKED: ENDBRANCH  34  36
DOCKED: ENDBRANCH  33  34
DOCKED: ENDBRANCH   7  33
DOCKED: BRANCH  27  38
DOCKED: ATOM     38  C   UNL d   1       9.804 -11.147   7.312 -0.37 -0.01    +0.017 C 
DOCKED: ATOM     39  C   UNL d   1       8.932 -10.173   7.012 -0.48 -0.02    +0.092 C 
DOCKED: BRANCH  39  40
DOCKED: ATOM     40  C   UNL d   1       7.499 -10.472   6.938 -0.31 -0.06    +0.330 C 
DOCKED: ATOM     41  O   UNL d   1       6.588  -9.698   6.713 -0.88 -0.01    -0.246 OA
DOCKED: BRANCH  40  42
DOCKED: ATOM     42  O   UNL d   1       7.290 -11.781   7.149 -0.35 +0.14    -0.477 OA
DOCKED: ATOM     43  H   UNL d   1       7.033 -12.123   6.268 -0.42 -0.20    +0.295 HD
DOCKED: ENDBRANCH  40  42
DOCKED: ENDBRANCH  39  40
DOCKED: ENDBRANCH  27  38
DOCKED: BRANCH   8  44
DOCKED: ATOM     44  C   UNL d   1      18.836  -5.108   8.328 -0.06 +0.00    +0.141 C 
DOCKED: BRANCH  44  45
DOCKED: ATOM     45  C   UNL d   1      19.042  -5.780   9.659 +0.00 +0.00    +0.306 C 
DOCKED: ATOM     46  O   UNL d   1      19.405  -6.928   9.846 -0.01 -0.01    -0.251 OA
DOCKED: BRANCH  45  47
DOCKED: ATOM     47  O   UNL d   1      18.749  -4.971  10.694 +0.01 +0.01    -0.481 OA
DOCKED: ATOM     48  H   UNL d   1      18.160  -4.285  10.314 +0.04 -0.01    +0.295 HD
DOCKED: ENDBRANCH  45  47
DOCKED: ENDBRANCH  44  45
DOCKED: ENDBRANCH   8  44
DOCKED: BRANCH  22  49
DOCKED: ATOM     49  C   UNL d   1      10.324  -7.929  11.858 -0.18 -0.04    +0.048 C 
DOCKED: BRANCH  49  50
DOCKED: ATOM     50  C   UNL d   1      10.682  -8.705  13.125 -0.05 -0.07    +0.125 C 
DOCKED: BRANCH  50  51
DOCKED: ATOM     51  C   UNL d   1       9.632  -9.733  13.439 -0.04 -0.21    +0.305 C 
DOCKED: ATOM     52  O   UNL d   1       9.702 -10.939  13.279 -0.02 +0.12    -0.251 OA
DOCKED: BRANCH  51  53
DOCKED: ATOM     53  O   UNL d   1       8.514  -9.174  13.942 -0.05 +0.53    -0.481 OA
DOCKED: ATOM     54  H   UNL d   1       8.212  -8.567  13.234 -0.51 -0.66    +0.295 HD
DOCKED: ENDBRANCH  51  53
DOCKED: ENDBRANCH  50  51
DOCKED: ENDBRANCH  49  50
DOCKED: ENDBRANCH  22  49
DOCKED: TORSDOF 13
DOCKED: TER
DOCKED: ENDMDL
________________________________________________________________________________


	BEGINNING GENETIC ALGORITHM DOCKING 56 of 100
Run: 56 Seed: 524489547 140711631 [ Run 56 of 100 GA/GALS ]
Beginning LAMARCKIAN GENETIC ALGORITHM (LGA), with a maximum of 25000000 energy evaluations.

Final-Value: -11.619


	FINAL GENETIC ALGORITHM DOCKED STATE
	_______________________________________________


Detailed state:  trans -10.868 13.281 -12.026 quatxyzw -0.643241 0.229851 -0.364000 0.633177 center 0.153 0.018 -0.028 ntor 13 30.8612 -55.9432 -140.8772 27.9502 179.9830 -128.6005 -60.2157 145.0015 -146.3024 -55.2862 29.4748 -93.0103 32.1754
State:	-10.868  13.281 -12.026  -0.831  0.297 -0.470 101.430     30.86  -55.94 -140.88   27.95  179.98 -128.60  -60.22  145.00 -146.30  -55.29   29.47  -93.01   32.18

DOCKED: MODEL       56
DOCKED: USER    Run = 56
DOCKED: USER    DPF = D:/Protein_go_brrr/autodock/final/mut_D99N/heme/dock.dpf
DOCKED: USER  
DOCKED: USER    Estimated Free Energy of Binding    =   -6.77 kcal/mol  [=(1)+(2)+(3)-(4)]
DOCKED: USER    Estimated Inhibition Constant, Ki   =   10.94 uM (micromolar)  [Temperature = 298.15 K]
DOCKED: USER    
DOCKED: USER    (1) Final Intermolecular Energy     =  -10.65 kcal/mol
DOCKED: USER        vdW + Hbond + desolv Energy     =   -9.91 kcal/mol
DOCKED: USER        Electrostatic Energy            =   -0.74 kcal/mol
DOCKED: USER    (2) Final Total Internal Energy     =   -0.97 kcal/mol
DOCKED: USER    (3) Torsional Free Energy           =   +3.88 kcal/mol
DOCKED: USER    (4) Unbound System's Energy  [=(2)] =   -0.97 kcal/mol
DOCKED: USER    
DOCKED: USER    
DOCKED: USER    NEWDPF move heme_opt.pdbqt
DOCKED: USER    NEWDPF about 0.153000 0.018000 -0.028000
DOCKED: USER    NEWDPF tran0 -10.868241 13.281039 -12.026041
DOCKED: USER    NEWDPF quaternion0 -0.643241 0.229851 -0.364000 0.633177
DOCKED: USER    NEWDPF axisangle0 -0.831054 0.296963 -0.470280 101.430126
DOCKED: USER    NEWDPF quat0 -0.831054 0.296963 -0.470280 101.430126
DOCKED: USER    NEWDPF dihe0 30.86 -55.94 -140.88 27.95 179.98 -128.60 -60.22 145.00 -146.30 -55.29 29.47 -93.01 32.18 
DOCKED: USER  keepresnum = 1 
DOCKED: USER  
DOCKED: REMARK  13 active torsions:
DOCKED: REMARK  status: ('A' for Active; 'I' for Inactive)
DOCKED: REMARK    1  A    between atoms: O_3  and  C_38 
DOCKED: REMARK    2  A    between atoms: O_4  and  C_40 
DOCKED: REMARK    3  A    between atoms: O_7  and  C_46 
DOCKED: REMARK    4  A    between atoms: O_9  and  C_48 
DOCKED: REMARK    5  A    between atoms: C_15  and  C_20 
DOCKED: REMARK    6  A    between atoms: C_16  and  C_23 
DOCKED: REMARK    7  A    between atoms: C_20  and  C_38 
DOCKED: REMARK    8  A    between atoms: C_23  and  C_40 
DOCKED: REMARK    9  A    between atoms: C_32  and  C_41 
DOCKED: REMARK   10  A    between atoms: C_37  and  C_45 
DOCKED: REMARK   11  A    between atoms: C_41  and  C_44 
DOCKED: REMARK   12  A    between atoms: C_44  and  C_46 
DOCKED: REMARK   13  A    between atoms: C_47  and  C_48 
DOCKED: USER                              x       y       z     vdW  Elec       q    Type
DOCKED: USER                           _______ _______ _______ _____ _____    ______ ____
DOCKED: ROOT
DOCKED: ATOM      1  O   UNL d   1     -15.563  11.561 -15.150 -0.07 +0.19    -0.289 OA
DOCKED: ATOM      2  O   UNL d   1      -9.153  14.841 -17.286 -0.03 +0.05    -0.289 OA
DOCKED: ATOM      3  N   UNL d   1     -13.120  12.522 -12.913 -0.12 +0.15    -0.247 NA
DOCKED: ATOM      4  N   UNL d   1     -10.897  13.417 -14.670 -0.07 +0.15    -0.247 NA
DOCKED: ATOM      5  N   UNL d   1      -9.178  13.365 -12.367 -0.07 +0.13    -0.354 N 
DOCKED: ATOM      6  N   UNL d   1     -11.485  12.419 -10.554 -0.14 +0.10    -0.354 N 
DOCKED: ATOM      7  C   UNL d   1     -15.229  11.284 -12.745 -0.16 -0.05    +0.084 A 
DOCKED: ATOM      8  C   UNL d   1     -11.490  14.222 -16.900 -0.09 -0.04    +0.084 A 
DOCKED: ATOM      9  C   UNL d   1     -11.921  13.582 -15.576 -0.17 -0.04    +0.058 A 
DOCKED: ATOM     10  C   UNL d   1     -13.983  11.855 -12.060 -0.24 -0.03    +0.058 A 
DOCKED: ATOM     11  C   UNL d   1     -14.926  11.763 -14.133 -0.13 -0.12    +0.193 A 
DOCKED: ATOM     12  C   UNL d   1     -13.635  12.521 -14.099 -0.18 -0.07    +0.109 A 
DOCKED: ATOM     13  C   UNL d   1     -10.026  14.356 -16.592 -0.08 -0.06    +0.193 A 
DOCKED: ATOM     14  C   UNL d   1     -15.237   9.753 -12.739 -0.19 -0.02    +0.026 C 
DOCKED: ATOM     15  C   UNL d   1     -13.178  13.171 -15.344 -0.17 -0.04    +0.055 C 
DOCKED: ATOM     16  C   UNL d   1     -12.087  15.622 -17.074 -0.02 -0.01    +0.026 C 
DOCKED: ATOM     17  C   UNL d   1      -9.796  13.825 -15.214 -0.18 -0.04    +0.109 A 
DOCKED: ATOM     18  C   UNL d   1     -13.816  11.777 -10.726 -0.25 -0.02    +0.050 C 
DOCKED: ATOM     19  C   UNL d   1     -12.742  12.348  -9.997 -0.29 -0.01    +0.045 A 
DOCKED: ATOM     20  C   UNL d   1      -8.245  13.550 -13.353 -0.20 -0.01    +0.045 A 
DOCKED: ATOM     21  C   UNL d   1      -8.437  13.787 -14.655 -0.17 -0.01    +0.057 C 
DOCKED: ATOM     22  C   UNL d   1      -7.164  13.197 -11.372 -0.25 +0.00    -0.019 A 
DOCKED: ATOM     23  C   UNL d   1      -8.621  13.144 -11.135 -0.27 -0.01    +0.045 A 
DOCKED: ATOM     24  C   UNL d   1      -6.948  13.438 -12.686 -0.17 +0.00    -0.022 A 
DOCKED: ATOM     25  C   UNL d   1     -10.582  12.920  -9.646 -0.06 -0.01    +0.049 A 
DOCKED: ATOM     26  C   UNL d   1     -12.661  12.850  -8.708 -0.27 +0.00    -0.018 A 
DOCKED: ATOM     27  C   UNL d   1     -11.299  13.228  -8.498 -0.20 -0.00    +0.003 A 
DOCKED: ATOM     28  C   UNL d   1      -9.191  12.942  -9.937 -0.22 -0.00    +0.052 C 
DOCKED: ATOM     29  C   UNL d   1      -5.651  13.590 -13.405 -0.10 -0.00    +0.046 C 
DOCKED: ATOM     30  C   UNL d   1     -13.779  12.975  -7.729 -0.31 -0.01    +0.046 C 
DOCKED: ATOM     31  H   UNL d   1     -10.169  13.470 -12.554 -0.38 -0.09    +0.166 HD
DOCKED: ATOM     32  H   UNL d   1     -11.268  12.100 -11.491 -0.46 -0.10    +0.166 HD
DOCKED: ENDROOT
DOCKED: BRANCH   7  33
DOCKED: ATOM     33  C   UNL d   1     -16.565  11.855 -12.259 -0.05 -0.06    +0.141 C 
DOCKED: BRANCH  33  34
DOCKED: ATOM     34  C   UNL d   1     -17.246  10.964 -11.255 -0.06 -0.18    +0.306 C 
DOCKED: ATOM     35  O   UNL d   1     -18.384  10.533 -11.330 -0.05 +0.14    -0.251 OA
DOCKED: BRANCH  34  36
DOCKED: ATOM     36  O   UNL d   1     -16.454  10.660 -10.212 -0.07 +0.43    -0.481 OA
DOCKED: ATOM     37  H   UNL d   1     -16.773   9.783  -9.907 -0.30 -0.50    +0.295 HD
DOCKED: ENDBRANCH  34  36
DOCKED: ENDBRANCH  33  34
DOCKED: ENDBRANCH   7  33
DOCKED: BRANCH  27  38
DOCKED: ATOM     38  C   UNL d   1     -10.773  13.783  -7.287 -0.28 -0.00    +0.017 C 
DOCKED: ATOM     39  C   UNL d   1      -9.752  13.273  -6.582 -0.37 -0.00    +0.092 C 
DOCKED: BRANCH  39  40
DOCKED: ATOM     40  C   UNL d   1      -9.297  13.949  -5.364 -0.26 +0.02    +0.330 C 
DOCKED: ATOM     41  O   UNL d   1      -8.158  14.247  -5.060 -0.28 -0.06    -0.246 OA
DOCKED: BRANCH  40  42
DOCKED: ATOM     42  O   UNL d   1     -10.344  14.228  -4.573 -0.13 +0.02    -0.477 OA
DOCKED: ATOM     43  H   UNL d   1     -10.117  13.799  -3.722 -0.18 -0.08    +0.295 HD
DOCKED: ENDBRANCH  40  42
DOCKED: ENDBRANCH  39  40
DOCKED: ENDBRANCH  27  38
DOCKED: BRANCH   8  44
DOCKED: ATOM     44  C   UNL d   1     -11.712  13.366 -18.151 -0.09 -0.10    +0.141 C 
DOCKED: BRANCH  44  45
DOCKED: ATOM     45  C   UNL d   1     -10.441  12.769 -18.695 -0.09 -0.17    +0.306 C 
DOCKED: ATOM     46  O   UNL d   1      -9.828  13.139 -19.681 -0.03 +0.07    -0.251 OA
DOCKED: BRANCH  45  47
DOCKED: ATOM     47  O   UNL d   1     -10.021  11.711 -17.978 -0.09 +0.38    -0.481 OA
DOCKED: ATOM     48  H   UNL d   1     -10.844  11.235 -17.734 -0.41 -0.58    +0.295 HD
DOCKED: ENDBRANCH  45  47
DOCKED: ENDBRANCH  44  45
DOCKED: ENDBRANCH   8  44
DOCKED: BRANCH  22  49
DOCKED: ATOM     49  C   UNL d   1      -6.130  12.993 -10.304 -0.25 -0.00    +0.048 C 
DOCKED: BRANCH  49  50
DOCKED: ATOM     50  C   UNL d   1      -6.385  13.882  -9.088 -0.21 +0.00    +0.125 C 
DOCKED: BRANCH  50  51
DOCKED: ATOM     51  C   UNL d   1      -5.094  14.244  -8.408 -0.18 -0.01    +0.305 C 
DOCKED: ATOM     52  O   UNL d   1      -4.775  15.325  -7.946 -0.17 +0.00    -0.251 OA
DOCKED: BRANCH  51  53
DOCKED: ATOM     53  O   UNL d   1      -4.244  13.199  -8.353 -0.21 +0.05    -0.481 OA
DOCKED: ATOM     54  H   UNL d   1      -3.698  13.378  -7.558 -0.43 -0.10    +0.295 HD
DOCKED: ENDBRANCH  51  53
DOCKED: ENDBRANCH  50  51
DOCKED: ENDBRANCH  49  50
DOCKED: ENDBRANCH  22  49
DOCKED: TORSDOF 13
DOCKED: TER
DOCKED: ENDMDL
________________________________________________________________________________


	BEGINNING GENETIC ALGORITHM DOCKING 57 of 100
Run: 57 Seed: 1566853351 1011330499 [ Run 57 of 100 GA/GALS ]
Beginning LAMARCKIAN GENETIC ALGORITHM (LGA), with a maximum of 25000000 energy evaluations.

Final-Value: -10.219


	FINAL GENETIC ALGORITHM DOCKED STATE
	_______________________________________________


Detailed state:  trans -12.098 -4.779 7.018 quatxyzw 0.881294 0.199529 0.404983 0.139638 center 0.153 0.018 -0.028 ntor 13 120.9007 17.1624 -165.0077 -13.1151 -131.4037 6.0984 136.9092 12.4717 28.7826 -8.5051 -113.6938 136.3238 -44.1886
State:	-12.098  -4.779   7.018   0.890  0.202  0.409 163.946    120.90   17.16 -165.01  -13.12 -131.40    6.10  136.91   12.47   28.78   -8.51 -113.69  136.32  -44.19

DOCKED: MODEL       57
DOCKED: USER    Run = 57
DOCKED: USER    DPF = D:/Protein_go_brrr/autodock/final/mut_D99N/heme/dock.dpf
DOCKED: USER  
DOCKED: USER    Estimated Free Energy of Binding    =   -3.83 kcal/mol  [=(1)+(2)+(3)-(4)]
DOCKED: USER    Estimated Inhibition Constant, Ki   =    1.57 mM (millimolar)  [Temperature = 298.15 K]
DOCKED: USER    
DOCKED: USER    (1) Final Intermolecular Energy     =   -7.70 kcal/mol
DOCKED: USER        vdW + Hbond + desolv Energy     =   -7.25 kcal/mol
DOCKED: USER        Electrostatic Energy            =   -0.45 kcal/mol
DOCKED: USER    (2) Final Total Internal Energy     =   -2.52 kcal/mol
DOCKED: USER    (3) Torsional Free Energy           =   +3.88 kcal/mol
DOCKED: USER    (4) Unbound System's Energy  [=(2)] =   -2.52 kcal/mol
DOCKED: USER    
DOCKED: USER    
DOCKED: USER    NEWDPF move heme_opt.pdbqt
DOCKED: USER    NEWDPF about 0.153000 0.018000 -0.028000
DOCKED: USER    NEWDPF tran0 -12.097518 -4.779300 7.018146
DOCKED: USER    NEWDPF quaternion0 0.881294 0.199529 0.404983 0.139638
DOCKED: USER    NEWDPF axisangle0 0.890013 0.201503 0.408990 163.946239
DOCKED: USER    NEWDPF quat0 0.890013 0.201503 0.408990 163.946239
DOCKED: USER    NEWDPF dihe0 120.90 17.16 -165.01 -13.12 -131.40 6.10 136.91 12.47 28.78 -8.51 -113.69 136.32 -44.19 
DOCKED: USER  keepresnum = 1 
DOCKED: USER  
DOCKED: REMARK  13 active torsions:
DOCKED: REMARK  status: ('A' for Active; 'I' for Inactive)
DOCKED: REMARK    1  A    between atoms: O_3  and  C_38 
DOCKED: REMARK    2  A    between atoms: O_4  and  C_40 
DOCKED: REMARK    3  A    between atoms: O_7  and  C_46 
DOCKED: REMARK    4  A    between atoms: O_9  and  C_48 
DOCKED: REMARK    5  A    between atoms: C_15  and  C_20 
DOCKED: REMARK    6  A    between atoms: C_16  and  C_23 
DOCKED: REMARK    7  A    between atoms: C_20  and  C_38 
DOCKED: REMARK    8  A    between atoms: C_23  and  C_40 
DOCKED: REMARK    9  A    between atoms: C_32  and  C_41 
DOCKED: REMARK   10  A    between atoms: C_37  and  C_45 
DOCKED: REMARK   11  A    between atoms: C_41  and  C_44 
DOCKED: REMARK   12  A    between atoms: C_44  and  C_46 
DOCKED: REMARK   13  A    between atoms: C_47  and  C_48 
DOCKED: USER                              x       y       z     vdW  Elec       q    Type
DOCKED: USER                           _______ _______ _______ _____ _____    ______ ____
DOCKED: ROOT
DOCKED: ATOM      1  O   UNL d   1     -14.210  -7.342   2.147 -0.02 -0.08    -0.289 OA
DOCKED: ATOM      2  O   UNL d   1     -16.963  -1.786   6.382 -0.00 -0.11    -0.289 OA
DOCKED: ATOM      3  N   UNL d   1     -12.664  -6.249   5.030 -0.09 -0.17    -0.247 NA
DOCKED: ATOM      4  N   UNL d   1     -14.283  -3.886   5.819 -0.52 -0.39    -0.247 NA
DOCKED: ATOM      5  N   UNL d   1     -12.185  -3.177   7.653 -0.08 -0.24    -0.354 N 
DOCKED: ATOM      6  N   UNL d   1     -10.503  -5.620   6.814 -0.08 -0.15    -0.354 N 
DOCKED: ATOM      7  C   UNL d   1     -12.088  -7.839   3.256 -0.08 +0.02    +0.084 A 
DOCKED: ATOM      8  C   UNL d   1     -16.613  -3.831   5.084 -0.03 +0.05    +0.084 A 
DOCKED: ATOM      9  C   UNL d   1     -15.241  -4.514   5.056 -0.05 +0.06    +0.058 A 
DOCKED: ATOM     10  C   UNL d   1     -11.710  -7.139   4.564 -0.13 +0.02    +0.058 A 
DOCKED: ATOM     11  C   UNL d   1     -13.433  -7.201   3.074 -0.06 +0.07    +0.193 A 
DOCKED: ATOM     12  C   UNL d   1     -13.677  -6.277   4.227 -0.08 +0.07    +0.109 A 
DOCKED: ATOM     13  C   UNL d   1     -16.245  -2.677   5.974 -0.03 +0.12    +0.193 A 
DOCKED: ATOM     14  C   UNL d   1     -11.180  -7.420   2.097 -0.15 +0.00    +0.026 C 
DOCKED: ATOM     15  C   UNL d   1     -14.987  -5.601   4.311 -0.08 +0.04    +0.055 C 
DOCKED: ATOM     16  C   UNL d   1     -17.661  -4.689   5.798 -0.00 +0.01    +0.026 C 
DOCKED: ATOM     17  C   UNL d   1     -14.805  -2.823   6.344 -0.03 +0.12    +0.109 A 
DOCKED: ATOM     18  C   UNL d   1     -10.582  -7.451   5.228 -0.19 +0.02    +0.050 C 
DOCKED: ATOM     19  C   UNL d   1     -10.192  -6.919   6.484 -0.20 +0.01    +0.045 A 
DOCKED: ATOM     20  C   UNL d   1     -12.950  -2.041   7.719 -0.13 +0.03    +0.045 A 
DOCKED: ATOM     21  C   UNL d   1     -14.151  -1.807   7.181 -0.09 +0.04    +0.057 C 
DOCKED: ATOM     22  C   UNL d   1     -11.017  -1.699   8.888 -0.31 -0.01    -0.019 A 
DOCKED: ATOM     23  C   UNL d   1     -10.999  -3.065   8.329 -0.29 +0.02    +0.045 A 
DOCKED: ATOM     24  C   UNL d   1     -12.175  -1.098   8.525 -0.17 -0.01    -0.022 A 
DOCKED: ATOM     25  C   UNL d   1      -9.954  -5.285   8.030 -0.29 +0.01    +0.049 A 
DOCKED: ATOM     26  C   UNL d   1      -9.453  -7.455   7.527 -0.25 -0.00    -0.018 A 
DOCKED: ATOM     27  C   UNL d   1      -9.323  -6.425   8.510 -0.31 +0.00    +0.003 A 
DOCKED: ATOM     28  C   UNL d   1     -10.006  -3.949   8.511 -0.33 +0.01    +0.052 C 
DOCKED: ATOM     29  C   UNL d   1     -12.658   0.273   8.855 -0.17 +0.02    +0.046 C 
DOCKED: ATOM     30  C   UNL d   1      -8.903  -8.838   7.611 -0.19 +0.02    +0.046 C 
DOCKED: ATOM     31  H   UNL d   1     -12.533  -4.019   7.208 +0.03 +0.13    +0.166 HD
DOCKED: ATOM     32  H   UNL d   1     -11.030  -4.999   6.211 +0.06 +0.12    +0.166 HD
DOCKED: ENDROOT
DOCKED: BRANCH   7  33
DOCKED: ATOM     33  C   UNL d   1     -12.224  -9.363   3.341 -0.02 +0.01    +0.141 C 
DOCKED: BRANCH  33  34
DOCKED: ATOM     34  C   UNL d   1     -13.508  -9.794   3.997 -0.00 +0.03    +0.306 C 
DOCKED: ATOM     35  O   UNL d   1     -13.746  -9.783   5.192 -0.00 -0.03    -0.251 OA
DOCKED: BRANCH  34  36
DOCKED: ATOM     36  O   UNL d   1     -14.427 -10.216   3.109 +0.00 -0.03    -0.481 OA
DOCKED: ATOM     37  H   UNL d   1     -14.602  -9.433   2.545 +0.01 +0.02    +0.295 HD
DOCKED: ENDBRANCH  34  36
DOCKED: ENDBRANCH  33  34
DOCKED: ENDBRANCH   7  33
DOCKED: BRANCH  27  38
DOCKED: ATOM     38  C   UNL d   1      -8.615  -6.551   9.748 -0.32 +0.00    +0.017 C 
DOCKED: ATOM     39  C   UNL d   1      -8.088  -7.688  10.227 -0.15 +0.04    +0.092 C 
DOCKED: BRANCH  39  40
DOCKED: ATOM     40  C   UNL d   1      -7.370  -7.679  11.504 -0.13 +0.12    +0.330 C 
DOCKED: ATOM     41  O   UNL d   1      -7.230  -6.746  12.272 -0.16 -0.06    -0.246 OA
DOCKED: BRANCH  40  42
DOCKED: ATOM     42  O   UNL d   1      -6.859  -8.894  11.755 -0.39 -0.32    -0.477 OA
DOCKED: ATOM     43  H   UNL d   1      -6.658  -8.871  12.713 +0.07 +0.11    +0.295 HD
DOCKED: ENDBRANCH  40  42
DOCKED: ENDBRANCH  39  40
DOCKED: ENDBRANCH  27  38
DOCKED: BRANCH   8  44
DOCKED: ATOM     44  C   UNL d   1     -17.131  -3.336   3.729 -0.03 +0.07    +0.141 C 
DOCKED: BRANCH  44  45
DOCKED: ATOM     45  C   UNL d   1     -16.205  -2.354   3.062 -0.05 +0.28    +0.306 C 
DOCKED: ATOM     46  O   UNL d   1     -15.328  -2.614   2.257 -0.55 -0.37    -0.251 OA
DOCKED: BRANCH  45  47
DOCKED: ATOM     47  O   UNL d   1     -16.417  -1.089   3.467 -0.02 -0.32    -0.481 OA
DOCKED: ATOM     48  H   UNL d   1     -16.975  -1.176   4.269 +0.02 +0.15    +0.295 HD
DOCKED: ENDBRANCH  45  47
DOCKED: ENDBRANCH  44  45
DOCKED: ENDBRANCH   8  44
DOCKED: BRANCH  22  49
DOCKED: ATOM     49  C   UNL d   1      -9.906  -1.108   9.705 -0.48 +0.01    +0.048 C 
DOCKED: BRANCH  49  50
DOCKED: ATOM     50  C   UNL d   1     -10.415  -0.536  11.028 -0.43 +0.04    +0.125 C 
DOCKED: BRANCH  50  51
DOCKED: ATOM     51  C   UNL d   1     -10.910  -1.630  11.931 -0.18 +0.09    +0.305 C 
DOCKED: ATOM     52  O   UNL d   1     -10.838  -2.833  11.749 -0.12 -0.06    -0.251 OA
DOCKED: BRANCH  51  53
DOCKED: ATOM     53  O   UNL d   1     -11.498  -1.141  13.041 -0.08 -0.17    -0.481 OA
DOCKED: ATOM     54  H   UNL d   1     -11.965  -1.913  13.423 +0.08 +0.08    +0.295 HD
DOCKED: ENDBRANCH  51  53
DOCKED: ENDBRANCH  50  51
DOCKED: ENDBRANCH  49  50
DOCKED: ENDBRANCH  22  49
DOCKED: TORSDOF 13
DOCKED: TER
DOCKED: ENDMDL
________________________________________________________________________________


	BEGINNING GENETIC ALGORITHM DOCKING 58 of 100
Run: 58 Seed: 1589580874 175195757 [ Run 58 of 100 GA/GALS ]
Beginning LAMARCKIAN GENETIC ALGORITHM (LGA), with a maximum of 25000000 energy evaluations.

Final-Value: -13.071


	FINAL GENETIC ALGORITHM DOCKED STATE
	_______________________________________________


Detailed state:  trans 13.604 -8.721 8.276 quatxyzw 0.070238 -0.315107 0.946063 0.027170 center 0.153 0.018 -0.028 ntor 13 141.4852 -59.7174 109.1154 -180.0000 54.6276 126.2087 -43.6822 115.1631 1.9398 -126.1085 85.1538 -63.5634 163.6734
State:	 13.604  -8.721   8.276   0.070 -0.315  0.946 176.886    141.49  -59.72  109.12 -180.00   54.63  126.21  -43.68  115.16    1.94 -126.11   85.15  -63.56  163.67

DOCKED: MODEL       58
DOCKED: USER    Run = 58
DOCKED: USER    DPF = D:/Protein_go_brrr/autodock/final/mut_D99N/heme/dock.dpf
DOCKED: USER  
DOCKED: USER    Estimated Free Energy of Binding    =   -7.23 kcal/mol  [=(1)+(2)+(3)-(4)]
DOCKED: USER    Estimated Inhibition Constant, Ki   =    5.04 uM (micromolar)  [Temperature = 298.15 K]
DOCKED: USER    
DOCKED: USER    (1) Final Intermolecular Energy     =  -11.10 kcal/mol
DOCKED: USER        vdW + Hbond + desolv Energy     =  -10.24 kcal/mol
DOCKED: USER        Electrostatic Energy            =   -0.86 kcal/mol
DOCKED: USER    (2) Final Total Internal Energy     =   -1.97 kcal/mol
DOCKED: USER    (3) Torsional Free Energy           =   +3.88 kcal/mol
DOCKED: USER    (4) Unbound System's Energy  [=(2)] =   -1.97 kcal/mol
DOCKED: USER    
DOCKED: USER    
DOCKED: USER    NEWDPF move heme_opt.pdbqt
DOCKED: USER    NEWDPF about 0.153000 0.018000 -0.028000
DOCKED: USER    NEWDPF tran0 13.603820 -8.721447 8.276135
DOCKED: USER    NEWDPF quaternion0 0.070238 -0.315107 0.946063 0.027170
DOCKED: USER    NEWDPF axisangle0 0.070264 -0.315224 0.946413 176.886129
DOCKED: USER    NEWDPF quat0 0.070264 -0.315224 0.946413 176.886129
DOCKED: USER    NEWDPF dihe0 141.49 -59.72 109.12 -180.00 54.63 126.21 -43.68 115.16 1.94 -126.11 85.15 -63.56 163.67 
DOCKED: USER  keepresnum = 1 
DOCKED: USER  
DOCKED: REMARK  13 active torsions:
DOCKED: REMARK  status: ('A' for Active; 'I' for Inactive)
DOCKED: REMARK    1  A    between atoms: O_3  and  C_38 
DOCKED: REMARK    2  A    between atoms: O_4  and  C_40 
DOCKED: REMARK    3  A    between atoms: O_7  and  C_46 
DOCKED: REMARK    4  A    between atoms: O_9  and  C_48 
DOCKED: REMARK    5  A    between atoms: C_15  and  C_20 
DOCKED: REMARK    6  A    between atoms: C_16  and  C_23 
DOCKED: REMARK    7  A    between atoms: C_20  and  C_38 
DOCKED: REMARK    8  A    between atoms: C_23  and  C_40 
DOCKED: REMARK    9  A    between atoms: C_32  and  C_41 
DOCKED: REMARK   10  A    between atoms: C_37  and  C_45 
DOCKED: REMARK   11  A    between atoms: C_41  and  C_44 
DOCKED: REMARK   12  A    between atoms: C_44  and  C_46 
DOCKED: REMARK   13  A    between atoms: C_47  and  C_48 
DOCKED: USER                              x       y       z     vdW  Elec       q    Type
DOCKED: USER                           _______ _______ _______ _____ _____    ______ ____
DOCKED: ROOT
DOCKED: ATOM      1  O   UNL d   1      19.260  -9.920   7.126 -0.06 -0.04    -0.289 OA
DOCKED: ATOM      2  O   UNL d   1      15.959  -3.655   9.626 -0.17 +0.06    -0.289 OA
DOCKED: ATOM      3  N   UNL d   1      15.846  -9.639   7.527 -0.13 +0.07    -0.247 NA
DOCKED: ATOM      4  N   UNL d   1      15.526  -6.982   8.816 -0.15 +0.08    -0.247 NA
DOCKED: ATOM      5  N   UNL d   1      12.812  -7.709   9.429 -0.15 +0.15    -0.354 N 
DOCKED: ATOM      6  N   UNL d   1      13.160 -10.472   8.106 -0.01 +0.16    -0.354 N 
DOCKED: ATOM      7  C   UNL d   1      17.375 -11.465   6.948 -0.08 -0.01    +0.084 A 
DOCKED: ATOM      8  C   UNL d   1      17.272  -5.322   8.407 -0.14 -0.01    +0.084 A 
DOCKED: ATOM      9  C   UNL d   1      16.756  -6.756   8.241 -0.19 -0.01    +0.058 A 
DOCKED: ATOM     10  C   UNL d   1      15.945 -10.983   7.208 -0.14 -0.02    +0.058 A 
DOCKED: ATOM     11  C   UNL d   1      18.066 -10.151   7.157 -0.07 -0.00    +0.193 A 
DOCKED: ATOM     12  C   UNL d   1      17.029  -9.119   7.477 -0.16 -0.01    +0.109 A 
DOCKED: ATOM     13  C   UNL d   1      16.123  -4.787   9.213 -0.11 -0.05    +0.193 A 
DOCKED: ATOM     14  C   UNL d   1      17.853 -12.452   8.017 -0.03 -0.00    +0.026 C 
DOCKED: ATOM     15  C   UNL d   1      17.468  -7.718   7.634 -0.21 -0.00    +0.055 C 
DOCKED: ATOM     16  C   UNL d   1      17.323  -4.579   7.068 -0.28 -0.00    +0.026 C 
DOCKED: ATOM     17  C   UNL d   1      15.137  -5.893   9.399 -0.15 -0.04    +0.109 A 
DOCKED: ATOM     18  C   UNL d   1      14.887 -11.800   7.044 -0.17 -0.02    +0.050 C 
DOCKED: ATOM     19  C   UNL d   1      13.527 -11.421   7.180 -0.19 -0.02    +0.045 A 
DOCKED: ATOM     20  C   UNL d   1      12.920  -6.559  10.166 -0.30 -0.02    +0.045 A 
DOCKED: ATOM     21  C   UNL d   1      13.920  -5.671  10.193 -0.29 -0.02    +0.057 C 
DOCKED: ATOM     22  C   UNL d   1      10.922  -7.558  10.644 -0.21 +0.01    -0.019 A 
DOCKED: ATOM     23  C   UNL d   1      11.640  -8.381   9.651 -0.24 -0.02    +0.045 A 
DOCKED: ATOM     24  C   UNL d   1      11.684  -6.480  10.944 -0.27 +0.01    -0.022 A 
DOCKED: ATOM     25  C   UNL d   1      11.792 -10.326   8.132 -0.16 -0.02    +0.049 A 
DOCKED: ATOM     26  C   UNL d   1      12.373 -11.876   6.561 -0.27 +0.01    -0.018 A 
DOCKED: ATOM     27  C   UNL d   1      11.282 -11.167   7.152 -0.30 -0.00    +0.003 A 
DOCKED: ATOM     28  C   UNL d   1      11.163  -9.516   9.117 -0.26 -0.02    +0.052 C 
DOCKED: ATOM     29  C   UNL d   1      11.387  -5.359  11.881 -0.23 -0.02    +0.046 C 
DOCKED: ATOM     30  C   UNL d   1      12.286 -12.905   5.485 -0.30 -0.02    +0.046 C 
DOCKED: ATOM     31  H   UNL d   1      13.514  -7.960   8.740 -0.29 -0.09    +0.166 HD
DOCKED: ATOM     32  H   UNL d   1      13.818  -9.990   8.706 -0.04 -0.07    +0.166 HD
DOCKED: ENDROOT
DOCKED: BRANCH   7  33
DOCKED: ATOM     33  C   UNL d   1      17.643 -11.994   5.535 -0.18 -0.05    +0.141 C 
DOCKED: BRANCH  33  34
DOCKED: ATOM     34  C   UNL d   1      17.160 -11.055   4.463 -0.17 -0.15    +0.306 C 
DOCKED: ATOM     35  O   UNL d   1      17.860 -10.382   3.726 -0.65 +0.02    -0.251 OA
DOCKED: BRANCH  34  36
DOCKED: ATOM     36  O   UNL d   1      15.819 -11.015   4.376 -0.06 +0.46    -0.481 OA
DOCKED: ATOM     37  H   UNL d   1      15.537 -11.948   4.478 -0.41 -0.55    +0.295 HD
DOCKED: ENDBRANCH  34  36
DOCKED: ENDBRANCH  33  34
DOCKED: ENDBRANCH   7  33
DOCKED: BRANCH  27  38
DOCKED: ATOM     38  C   UNL d   1       9.902 -11.344   6.814 -0.39 -0.00    +0.017 C 
DOCKED: ATOM     39  C   UNL d   1       8.868 -11.112   7.636 -0.34 -0.03    +0.092 C 
DOCKED: BRANCH  39  40
DOCKED: ATOM     40  C   UNL d   1       7.497 -11.317   7.160 -0.23 -0.09    +0.330 C 
DOCKED: ATOM     41  O   UNL d   1       6.638 -12.026   7.648 -0.34 +0.05    -0.246 OA
DOCKED: BRANCH  40  42
DOCKED: ATOM     42  O   UNL d   1       7.276 -10.582   6.059 -0.72 +0.03    -0.477 OA
DOCKED: ATOM     43  H   UNL d   1       7.046 -11.245   5.376 -0.32 -0.10    +0.295 HD
DOCKED: ENDBRANCH  40  42
DOCKED: ENDBRANCH  39  40
DOCKED: ENDBRANCH  27  38
DOCKED: BRANCH   8  44
DOCKED: ATOM     44  C   UNL d   1      18.593  -5.180   9.170 -0.04 -0.00    +0.141 C 
DOCKED: BRANCH  44  45
DOCKED: ATOM     45  C   UNL d   1      19.000  -3.747   9.391 -0.00 -0.00    +0.306 C 
DOCKED: ATOM     46  O   UNL d   1      19.656  -3.053   8.633 -0.01 -0.01    -0.251 OA
DOCKED: BRANCH  45  47
DOCKED: ATOM     47  O   UNL d   1      18.579  -3.269  10.575 +0.01 +0.01    -0.481 OA
DOCKED: ATOM     48  H   UNL d   1      17.609  -3.166  10.471 +0.04 -0.01    +0.295 HD
DOCKED: ENDBRANCH  45  47
DOCKED: ENDBRANCH  44  45
DOCKED: ENDBRANCH   8  44
DOCKED: BRANCH  22  49
DOCKED: ATOM     49  C   UNL d   1       9.578  -7.906  11.214 -0.04 -0.06    +0.048 C 
DOCKED: BRANCH  49  50
DOCKED: ATOM     50  C   UNL d   1       9.685  -8.945  12.329 -0.11 -0.12    +0.125 C 
DOCKED: BRANCH  50  51
DOCKED: ATOM     51  C   UNL d   1       9.491 -10.334  11.789 -0.06 -0.22    +0.305 C 
DOCKED: ATOM     52  O   UNL d   1      10.332 -11.205  11.661 -0.02 +0.10    -0.251 OA
DOCKED: BRANCH  51  53
DOCKED: ATOM     53  O   UNL d   1       8.214 -10.556  11.416 -0.03 +0.59    -0.481 OA
DOCKED: ATOM     54  H   UNL d   1       7.757  -9.713  11.619 -0.43 -0.74    +0.295 HD
DOCKED: ENDBRANCH  51  53
DOCKED: ENDBRANCH  50  51
DOCKED: ENDBRANCH  49  50
DOCKED: ENDBRANCH  22  49
DOCKED: TORSDOF 13
DOCKED: TER
DOCKED: ENDMDL
________________________________________________________________________________


	BEGINNING GENETIC ALGORITHM DOCKING 59 of 100
Run: 59 Seed: 91064491 696576379 [ Run 59 of 100 GA/GALS ]
Beginning LAMARCKIAN GENETIC ALGORITHM (LGA), with a maximum of 25000000 energy evaluations.

Final-Value: -12.418


	FINAL GENETIC ALGORITHM DOCKED STATE
	_______________________________________________


Detailed state:  trans -3.269 16.339 11.816 quatxyzw -0.762101 0.079267 -0.326257 0.553602 center 0.153 0.018 -0.028 ntor 13 18.4104 -109.8897 103.3303 42.3400 179.6275 -28.4486 -57.6878 -100.6506 -148.1140 -122.9737 -88.5589 -27.6790 -12.9518
State:	 -3.269  16.339  11.816  -0.915  0.095 -0.392 112.771     18.41 -109.89  103.33   42.34  179.63  -28.45  -57.69 -100.65 -148.11 -122.97  -88.56  -27.68  -12.95

DOCKED: MODEL       59
DOCKED: USER    Run = 59
DOCKED: USER    DPF = D:/Protein_go_brrr/autodock/final/mut_D99N/heme/dock.dpf
DOCKED: USER  
DOCKED: USER    Estimated Free Energy of Binding    =   -4.82 kcal/mol  [=(1)+(2)+(3)-(4)]
DOCKED: USER    Estimated Inhibition Constant, Ki   =  293.25 uM (micromolar)  [Temperature = 298.15 K]
DOCKED: USER    
DOCKED: USER    (1) Final Intermolecular Energy     =   -8.70 kcal/mol
DOCKED: USER        vdW + Hbond + desolv Energy     =   -8.54 kcal/mol
DOCKED: USER        Electrostatic Energy            =   -0.15 kcal/mol
DOCKED: USER    (2) Final Total Internal Energy     =   -3.72 kcal/mol
DOCKED: USER    (3) Torsional Free Energy           =   +3.88 kcal/mol
DOCKED: USER    (4) Unbound System's Energy  [=(2)] =   -3.72 kcal/mol
DOCKED: USER    
DOCKED: USER    
DOCKED: USER    NEWDPF move heme_opt.pdbqt
DOCKED: USER    NEWDPF about 0.153000 0.018000 -0.028000
DOCKED: USER    NEWDPF tran0 -3.269115 16.339477 11.815818
DOCKED: USER    NEWDPF quaternion0 -0.762101 0.079267 -0.326257 0.553602
DOCKED: USER    NEWDPF axisangle0 -0.915127 0.095183 -0.391768 112.771015
DOCKED: USER    NEWDPF quat0 -0.915127 0.095183 -0.391768 112.771015
DOCKED: USER    NEWDPF dihe0 18.41 -109.89 103.33 42.34 179.63 -28.45 -57.69 -100.65 -148.11 -122.97 -88.56 -27.68 -12.95 
DOCKED: USER  keepresnum = 1 
DOCKED: USER  
DOCKED: REMARK  13 active torsions:
DOCKED: REMARK  status: ('A' for Active; 'I' for Inactive)
DOCKED: REMARK    1  A    between atoms: O_3  and  C_38 
DOCKED: REMARK    2  A    between atoms: O_4  and  C_40 
DOCKED: REMARK    3  A    between atoms: O_7  and  C_46 
DOCKED: REMARK    4  A    between atoms: O_9  and  C_48 
DOCKED: REMARK    5  A    between atoms: C_15  and  C_20 
DOCKED: REMARK    6  A    between atoms: C_16  and  C_23 
DOCKED: REMARK    7  A    between atoms: C_20  and  C_38 
DOCKED: REMARK    8  A    between atoms: C_23  and  C_40 
DOCKED: REMARK    9  A    between atoms: C_32  and  C_41 
DOCKED: REMARK   10  A    between atoms: C_37  and  C_45 
DOCKED: REMARK   11  A    between atoms: C_41  and  C_44 
DOCKED: REMARK   12  A    between atoms: C_44  and  C_46 
DOCKED: REMARK   13  A    between atoms: C_47  and  C_48 
DOCKED: USER                              x       y       z     vdW  Elec       q    Type
DOCKED: USER                           _______ _______ _______ _____ _____    ______ ____
DOCKED: ROOT
DOCKED: ATOM      1  O   UNL d   1      -8.164  13.778   9.758 -0.23 +0.10    -0.289 OA
DOCKED: ATOM      2  O   UNL d   1      -3.638  18.929   6.698 -0.09 -0.04    -0.289 OA
DOCKED: ATOM      3  N   UNL d   1      -5.446  15.100  11.420 -0.13 +0.05    -0.247 NA
DOCKED: ATOM      4  N   UNL d   1      -4.130  16.777   9.350 -0.14 +0.02    -0.247 NA
DOCKED: ATOM      5  N   UNL d   1      -1.829  16.927  11.068 -0.07 +0.03    -0.354 N 
DOCKED: ATOM      6  N   UNL d   1      -3.195  15.171  13.201 -0.09 +0.12    -0.354 N 
DOCKED: ATOM      7  C   UNL d   1      -7.061  13.318  11.891 -0.33 -0.02    +0.084 A 
DOCKED: ATOM      8  C   UNL d   1      -5.540  17.649   7.555 -0.19 +0.01    +0.084 A 
DOCKED: ATOM      9  C   UNL d   1      -5.389  16.760   8.794 -0.23 -0.00    +0.058 A 
DOCKED: ATOM     10  C   UNL d   1      -5.833  14.124  12.323 -0.24 -0.01    +0.058 A 
DOCKED: ATOM     11  C   UNL d   1      -7.312  14.024  10.592 -0.26 -0.05    +0.193 A 
DOCKED: ATOM     12  C   UNL d   1      -6.283  15.100  10.433 -0.25 -0.02    +0.109 A 
DOCKED: ATOM     13  C   UNL d   1      -4.122  18.143   7.488 -0.13 +0.02    +0.193 A 
DOCKED: ATOM     14  C   UNL d   1      -6.716  11.855  11.600 -0.46 -0.01    +0.026 C 
DOCKED: ATOM     15  C   UNL d   1      -6.387  15.994   9.263 -0.29 -0.01    +0.055 C 
DOCKED: ATOM     16  C   UNL d   1      -6.465  18.840   7.818 -0.09 +0.00    +0.026 C 
DOCKED: ATOM     17  C   UNL d   1      -3.370  17.536   8.627 -0.20 +0.00    +0.109 A 
DOCKED: ATOM     18  C   UNL d   1      -5.256  13.936  13.524 -0.31 -0.01    +0.050 C 
DOCKED: ATOM     19  C   UNL d   1      -4.172  14.690  14.043 -0.25 -0.01    +0.045 A 
DOCKED: ATOM     20  C   UNL d   1      -1.307  17.479   9.926 -0.19 -0.00    +0.045 A 
DOCKED: ATOM     21  C   UNL d   1      -1.934  17.808   8.792 -0.26 +0.00    +0.057 C 
DOCKED: ATOM     22  C   UNL d   1       0.374  17.203  11.448 -0.12 +0.00    -0.019 A 
DOCKED: ATOM     23  C   UNL d   1      -0.889  16.723  12.043 -0.14 -0.00    +0.045 A 
DOCKED: ATOM     24  C   UNL d   1       0.120  17.650  10.195 -0.11 -0.00    -0.022 A 
DOCKED: ATOM     25  C   UNL d   1      -2.199  15.790  13.920 -0.19 -0.01    +0.049 A 
DOCKED: ATOM     26  C   UNL d   1      -3.821  15.037  15.338 -0.21 +0.00    -0.018 A 
DOCKED: ATOM     27  C   UNL d   1      -2.585  15.748  15.253 -0.18 -0.00    +0.003 A 
DOCKED: ATOM     28  C   UNL d   1      -1.006  16.229  13.285 -0.17 -0.01    +0.052 C 
DOCKED: ATOM     29  C   UNL d   1       1.066  18.239   9.205 -0.10 +0.00    +0.046 C 
DOCKED: ATOM     30  C   UNL d   1      -4.587  14.730  16.581 -0.17 -0.01    +0.046 C 
DOCKED: ATOM     31  H   UNL d   1      -2.827  16.776  11.170 +0.06 -0.02    +0.166 HD
DOCKED: ATOM     32  H   UNL d   1      -3.206  15.039  12.196 -0.18 -0.07    +0.166 HD
DOCKED: ENDROOT
DOCKED: BRANCH   7  33
DOCKED: ATOM     33  C   UNL d   1      -8.281  13.435  12.811 -0.24 -0.03    +0.141 C 
DOCKED: BRANCH  33  34
DOCKED: ATOM     34  C   UNL d   1      -8.425  12.256  13.735 -0.25 -0.09    +0.306 C 
DOCKED: ATOM     35  O   UNL d   1      -9.417  11.559  13.863 -0.28 +0.09    -0.251 OA
DOCKED: BRANCH  34  36
DOCKED: ATOM     36  O   UNL d   1      -7.310  12.016  14.447 -0.15 +0.17    -0.481 OA
DOCKED: ATOM     37  H   UNL d   1      -7.431  11.107  14.795 -0.35 -0.21    +0.295 HD
DOCKED: ENDBRANCH  34  36
DOCKED: ENDBRANCH  33  34
DOCKED: ENDBRANCH   7  33
DOCKED: BRANCH  27  38
DOCKED: ATOM     38  C   UNL d   1      -1.858  16.277  16.368 -0.05 -0.00    +0.017 C 
DOCKED: ATOM     39  C   UNL d   1      -0.793  17.088  16.284 -0.12 -0.01    +0.092 C 
DOCKED: BRANCH  39  40
DOCKED: ATOM     40  C   UNL d   1      -0.147  17.575  17.506 -0.06 -0.04    +0.330 C 
DOCKED: ATOM     41  O   UNL d   1      -0.666  17.791  18.585 -0.05 +0.03    -0.246 OA
DOCKED: BRANCH  40  42
DOCKED: ATOM     42  O   UNL d   1       1.165  17.760  17.293 -0.01 +0.06    -0.477 OA
DOCKED: ATOM     43  H   UNL d   1       1.198  18.536  16.697 +0.02 -0.03    +0.295 HD
DOCKED: ENDBRANCH  40  42
DOCKED: ENDBRANCH  39  40
DOCKED: ENDBRANCH  27  38
DOCKED: BRANCH   8  44
DOCKED: ATOM     44  C   UNL d   1      -5.928  16.920   6.263 -0.13 +0.04    +0.141 C 
DOCKED: BRANCH  44  45
DOCKED: ATOM     45  C   UNL d   1      -5.889  17.807   5.047 -0.08 +0.15    +0.306 C 
DOCKED: ATOM     46  O   UNL d   1      -6.846  18.316   4.488 -0.71 -0.17    -0.251 OA
DOCKED: BRANCH  45  47
DOCKED: ATOM     47  O   UNL d   1      -4.641  17.984   4.578 -0.16 -0.22    -0.481 OA
DOCKED: ATOM     48  H   UNL d   1      -4.239  18.640   5.186 +0.10 +0.09    +0.295 HD
DOCKED: ENDBRANCH  45  47
DOCKED: ENDBRANCH  44  45
DOCKED: ENDBRANCH   8  44
DOCKED: BRANCH  22  49
DOCKED: ATOM     49  C   UNL d   1       1.702  17.166  12.146 -0.10 -0.00    +0.048 C 
DOCKED: BRANCH  49  50
DOCKED: ATOM     50  C   UNL d   1       2.033  18.503  12.809 -0.03 -0.01    +0.125 C 
DOCKED: BRANCH  50  51
DOCKED: ATOM     51  C   UNL d   1       1.567  18.524  14.237 -0.01 -0.02    +0.305 C 
DOCKED: ATOM     52  O   UNL d   1       0.618  19.132  14.700 -0.01 +0.02    -0.251 OA
DOCKED: BRANCH  51  53
DOCKED: ATOM     53  O   UNL d   1       2.347  17.767  15.033 +0.00 +0.05    -0.481 OA
DOCKED: ATOM     54  H   UNL d   1       1.711  17.301  15.617 +0.04 -0.04    +0.295 HD
DOCKED: ENDBRANCH  51  53
DOCKED: ENDBRANCH  50  51
DOCKED: ENDBRANCH  49  50
DOCKED: ENDBRANCH  22  49
DOCKED: TORSDOF 13
DOCKED: TER
DOCKED: ENDMDL
________________________________________________________________________________


	BEGINNING GENETIC ALGORITHM DOCKING 60 of 100
Run: 60 Seed: 1156653100 943167593 [ Run 60 of 100 GA/GALS ]
Beginning LAMARCKIAN GENETIC ALGORITHM (LGA), with a maximum of 25000000 energy evaluations.

Final-Value: -10.445


	FINAL GENETIC ALGORITHM DOCKED STATE
	_______________________________________________


Detailed state:  trans -15.625 7.352 4.301 quatxyzw -0.217227 -0.306234 0.559271 -0.739086 center 0.153 0.018 -0.028 ntor 13 -101.7695 -27.2538 120.0035 -141.8807 35.0914 174.7420 -32.4920 70.9744 129.7213 -133.0202 65.4513 66.7909 -168.3986
State:	-15.625   7.352   4.301  -0.322 -0.455  0.830 -84.693   -101.77  -27.25  120.00 -141.88   35.09  174.74  -32.49   70.97  129.72 -133.02   65.45   66.79 -168.40

DOCKED: MODEL       60
DOCKED: USER    Run = 60
DOCKED: USER    DPF = D:/Protein_go_brrr/autodock/final/mut_D99N/heme/dock.dpf
DOCKED: USER  
DOCKED: USER    Estimated Free Energy of Binding    =   -4.30 kcal/mol  [=(1)+(2)+(3)-(4)]
DOCKED: USER    Estimated Inhibition Constant, Ki   =  699.12 uM (micromolar)  [Temperature = 298.15 K]
DOCKED: USER    
DOCKED: USER    (1) Final Intermolecular Energy     =   -8.18 kcal/mol
DOCKED: USER        vdW + Hbond + desolv Energy     =   -7.54 kcal/mol
DOCKED: USER        Electrostatic Energy            =   -0.64 kcal/mol
DOCKED: USER    (2) Final Total Internal Energy     =   -2.26 kcal/mol
DOCKED: USER    (3) Torsional Free Energy           =   +3.88 kcal/mol
DOCKED: USER    (4) Unbound System's Energy  [=(2)] =   -2.26 kcal/mol
DOCKED: USER    
DOCKED: USER    
DOCKED: USER    NEWDPF move heme_opt.pdbqt
DOCKED: USER    NEWDPF about 0.153000 0.018000 -0.028000
DOCKED: USER    NEWDPF tran0 -15.624616 7.352116 4.301447
DOCKED: USER    NEWDPF quaternion0 -0.217227 -0.306234 0.559271 -0.739086
DOCKED: USER    NEWDPF axisangle0 -0.322482 -0.454616 0.830259 -84.692739
DOCKED: USER    NEWDPF quat0 -0.322482 -0.454616 0.830259 -84.692739
DOCKED: USER    NEWDPF dihe0 -101.77 -27.25 120.00 -141.88 35.09 174.74 -32.49 70.97 129.72 -133.02 65.45 66.79 -168.40 
DOCKED: USER  keepresnum = 1 
DOCKED: USER  
DOCKED: REMARK  13 active torsions:
DOCKED: REMARK  status: ('A' for Active; 'I' for Inactive)
DOCKED: REMARK    1  A    between atoms: O_3  and  C_38 
DOCKED: REMARK    2  A    between atoms: O_4  and  C_40 
DOCKED: REMARK    3  A    between atoms: O_7  and  C_46 
DOCKED: REMARK    4  A    between atoms: O_9  and  C_48 
DOCKED: REMARK    5  A    between atoms: C_15  and  C_20 
DOCKED: REMARK    6  A    between atoms: C_16  and  C_23 
DOCKED: REMARK    7  A    between atoms: C_20  and  C_38 
DOCKED: REMARK    8  A    between atoms: C_23  and  C_40 
DOCKED: REMARK    9  A    between atoms: C_32  and  C_41 
DOCKED: REMARK   10  A    between atoms: C_37  and  C_45 
DOCKED: REMARK   11  A    between atoms: C_41  and  C_44 
DOCKED: REMARK   12  A    between atoms: C_44  and  C_46 
DOCKED: REMARK   13  A    between atoms: C_47  and  C_48 
DOCKED: USER                              x       y       z     vdW  Elec       q    Type
DOCKED: USER                           _______ _______ _______ _____ _____    ______ ____
DOCKED: ROOT
DOCKED: ATOM      1  O   UNL d   1     -18.296   2.426   2.469 -0.07 -0.05    -0.289 OA
DOCKED: ATOM      2  O   UNL d   1     -11.661   3.479   5.826 -0.18 -0.04    -0.289 OA
DOCKED: ATOM      3  N   UNL d   1     -17.071   5.555   3.246 -0.09 -0.02    -0.247 NA
DOCKED: ATOM      4  N   UNL d   1     -14.599   4.959   4.785 -0.06 -0.02    -0.247 NA
DOCKED: ATOM      5  N   UNL d   1     -14.561   7.712   5.613 -0.04 +0.01    -0.354 N 
DOCKED: ATOM      6  N   UNL d   1     -17.136   8.317   4.030 -0.05 +0.01    -0.354 N 
DOCKED: ATOM      7  C   UNL d   1     -19.188   4.699   2.357 -0.13 +0.01    +0.084 A 
DOCKED: ATOM      8  C   UNL d   1     -13.492   2.827   4.338 -0.13 +0.02    +0.084 A 
DOCKED: ATOM      9  C   UNL d   1     -14.682   3.764   4.106 -0.12 +0.01    +0.058 A 
DOCKED: ATOM     10  C   UNL d   1     -18.340   5.892   2.806 -0.17 +0.01    +0.058 A 
DOCKED: ATOM     11  C   UNL d   1     -18.168   3.629   2.605 -0.10 +0.03    +0.193 A 
DOCKED: ATOM     12  C   UNL d   1     -16.919   4.277   3.118 -0.15 +0.01    +0.109 A 
DOCKED: ATOM     13  C   UNL d   1     -12.737   3.696   5.303 -0.12 +0.03    +0.193 A 
DOCKED: ATOM     14  C   UNL d   1     -20.385   4.465   3.283 -0.05 +0.00    +0.026 C 
DOCKED: ATOM     15  C   UNL d   1     -15.736   3.424   3.348 -0.19 +0.01    +0.055 C 
DOCKED: ATOM     16  C   UNL d   1     -12.651   2.652   3.070 -0.27 +0.01    +0.026 C 
DOCKED: ATOM     17  C   UNL d   1     -13.518   4.956   5.495 -0.12 +0.01    +0.109 A 
DOCKED: ATOM     18  C   UNL d   1     -18.785   7.157   2.684 -0.19 +0.00    +0.050 C 
DOCKED: ATOM     19  C   UNL d   1     -18.041   8.324   2.992 -0.17 -0.00    +0.045 A 
DOCKED: ATOM     20  C   UNL d   1     -13.584   7.207   6.430 -0.21 -0.00    +0.045 A 
DOCKED: ATOM     21  C   UNL d   1     -13.039   5.986   6.429 -0.26 -0.00    +0.057 C 
DOCKED: ATOM     22  C   UNL d   1     -13.999   9.372   7.027 -0.23 +0.00    -0.019 A 
DOCKED: ATOM     23  C   UNL d   1     -14.879   9.013   5.897 -0.10 -0.00    +0.045 A 
DOCKED: ATOM     24  C   UNL d   1     -13.233   8.299   7.337 -0.34 +0.00    -0.022 A 
DOCKED: ATOM     25  C   UNL d   1     -16.598   9.570   4.210 -0.10 -0.00    +0.049 A 
DOCKED: ATOM     26  C   UNL d   1     -18.064   9.604   2.461 -0.14 +0.00    -0.018 A 
DOCKED: ATOM     27  C   UNL d   1     -17.136  10.382   3.221 -0.15 -0.00    +0.003 A 
DOCKED: ATOM     28  C   UNL d   1     -15.756   9.849   5.321 -0.08 -0.01    +0.052 C 
DOCKED: ATOM     29  C   UNL d   1     -12.188   8.172   8.392 -0.33 -0.00    +0.046 C 
DOCKED: ATOM     30  C   UNL d   1     -18.893  10.079   1.316 -0.13 -0.00    +0.046 C 
DOCKED: ATOM     31  H   UNL d   1     -14.928   7.173   4.836 +0.04 -0.00    +0.166 HD
DOCKED: ATOM     32  H   UNL d   1     -16.940   7.501   4.597 +0.03 +0.00    +0.166 HD
DOCKED: ENDROOT
DOCKED: BRANCH   7  33
DOCKED: ATOM     33  C   UNL d   1     -19.610   4.709   0.884 -0.18 +0.04    +0.141 C 
DOCKED: BRANCH  33  34
DOCKED: ATOM     34  C   UNL d   1     -20.386   3.480   0.495 -0.12 +0.09    +0.306 C 
DOCKED: ATOM     35  O   UNL d   1     -21.596   3.341   0.564 -0.06 -0.08    -0.251 OA
DOCKED: BRANCH  34  36
DOCKED: ATOM     36  O   UNL d   1     -19.597   2.492   0.038 -0.06 -0.10    -0.481 OA
DOCKED: ATOM     37  H   UNL d   1     -19.176   2.120   0.842 +0.06 +0.05    +0.295 HD
DOCKED: ENDBRANCH  34  36
DOCKED: ENDBRANCH  33  34
DOCKED: ENDBRANCH   7  33
DOCKED: BRANCH  27  38
DOCKED: ATOM     38  C   UNL d   1     -16.861  11.772   3.015 -0.13 -0.00    +0.017 C 
DOCKED: ATOM     39  C   UNL d   1     -16.104  12.273   2.026 -0.21 -0.02    +0.092 C 
DOCKED: BRANCH  39  40
DOCKED: ATOM     40  C   UNL d   1     -15.913  13.721   1.915 -0.07 -0.03    +0.330 C 
DOCKED: ATOM     41  O   UNL d   1     -15.168  14.317   1.161 -0.12 +0.02    -0.246 OA
DOCKED: BRANCH  40  42
DOCKED: ATOM     42  O   UNL d   1     -16.709  14.360   2.787 +0.01 +0.05    -0.477 OA
DOCKED: ATOM     43  H   UNL d   1     -16.232  15.195   2.971 +0.03 -0.03    +0.295 HD
DOCKED: ENDBRANCH  40  42
DOCKED: ENDBRANCH  39  40
DOCKED: ENDBRANCH  27  38
DOCKED: BRANCH   8  44
DOCKED: ATOM     44  C   UNL d   1     -13.831   1.472   4.969 -0.10 +0.07    +0.141 C 
DOCKED: BRANCH  44  45
DOCKED: ATOM     45  C   UNL d   1     -12.636   0.569   5.116 -0.12 +0.28    +0.306 C 
DOCKED: ATOM     46  O   UNL d   1     -12.094  -0.069   4.230 -0.75 -0.40    -0.251 OA
DOCKED: BRANCH  45  47
DOCKED: ATOM     47  O   UNL d   1     -12.199   0.495   6.386 -0.25 -0.32    -0.481 OA
DOCKED: ATOM     48  H   UNL d   1     -11.950   1.415   6.617 +0.11 +0.12    +0.295 HD
DOCKED: ENDBRANCH  45  47
DOCKED: ENDBRANCH  44  45
DOCKED: ENDBRANCH   8  44
DOCKED: BRANCH  22  49
DOCKED: ATOM     49  C   UNL d   1     -13.998  10.712   7.702 -0.30 -0.02    +0.048 C 
DOCKED: BRANCH  49  50
DOCKED: ATOM     50  C   UNL d   1     -14.615  10.647   9.098 -0.23 -0.05    +0.125 C 
DOCKED: BRANCH  50  51
DOCKED: ATOM     51  C   UNL d   1     -15.897  11.429   9.156 -0.07 -0.15    +0.305 C 
DOCKED: ATOM     52  O   UNL d   1     -16.933  11.202   8.556 -0.02 +0.06    -0.251 OA
DOCKED: BRANCH  51  53
DOCKED: ATOM     53  O   UNL d   1     -15.802  12.492   9.978 -0.05 +0.44    -0.481 OA
DOCKED: ATOM     54  H   UNL d   1     -14.892  12.825   9.833 -0.49 -0.69    +0.295 HD
DOCKED: ENDBRANCH  51  53
DOCKED: ENDBRANCH  50  51
DOCKED: ENDBRANCH  49  50
DOCKED: ENDBRANCH  22  49
DOCKED: TORSDOF 13
DOCKED: TER
DOCKED: ENDMDL
________________________________________________________________________________


	BEGINNING GENETIC ALGORITHM DOCKING 61 of 100
Run: 61 Seed: 423800189 230837974 [ Run 61 of 100 GA/GALS ]
Beginning LAMARCKIAN GENETIC ALGORITHM (LGA), with a maximum of 25000000 energy evaluations.

Final-Value: -11.110


	FINAL GENETIC ALGORITHM DOCKED STATE
	_______________________________________________


Detailed state:  trans 3.430 16.152 9.327 quatxyzw -0.440541 0.345615 -0.161328 -0.812679 center 0.153 0.018 -0.028 ntor 13 132.1586 -179.7622 132.7732 5.0446 -133.4089 112.4283 -35.3625 -99.7361 23.8282 -136.6884 49.9781 -106.7181 110.9830
State:	  3.430  16.152   9.327  -0.756  0.593 -0.277 -71.283    132.16 -179.76  132.77    5.04 -133.41  112.43  -35.36  -99.74   23.83 -136.69   49.98 -106.72  110.98

DOCKED: MODEL       61
DOCKED: USER    Run = 61
DOCKED: USER    DPF = D:/Protein_go_brrr/autodock/final/mut_D99N/heme/dock.dpf
DOCKED: USER  
DOCKED: USER    Estimated Free Energy of Binding    =   -3.70 kcal/mol  [=(1)+(2)+(3)-(4)]
DOCKED: USER    Estimated Inhibition Constant, Ki   =    1.95 mM (millimolar)  [Temperature = 298.15 K]
DOCKED: USER    
DOCKED: USER    (1) Final Intermolecular Energy     =   -7.57 kcal/mol
DOCKED: USER        vdW + Hbond + desolv Energy     =   -7.45 kcal/mol
DOCKED: USER        Electrostatic Energy            =   -0.12 kcal/mol
DOCKED: USER    (2) Final Total Internal Energy     =   -3.54 kcal/mol
DOCKED: USER    (3) Torsional Free Energy           =   +3.88 kcal/mol
DOCKED: USER    (4) Unbound System's Energy  [=(2)] =   -3.54 kcal/mol
DOCKED: USER    
DOCKED: USER    
DOCKED: USER    NEWDPF move heme_opt.pdbqt
DOCKED: USER    NEWDPF about 0.153000 0.018000 -0.028000
DOCKED: USER    NEWDPF tran0 3.430413 16.152157 9.326997
DOCKED: USER    NEWDPF quaternion0 -0.440541 0.345615 -0.161328 -0.812679
DOCKED: USER    NEWDPF axisangle0 -0.756019 0.593115 -0.276858 -71.282963
DOCKED: USER    NEWDPF quat0 -0.756019 0.593115 -0.276858 -71.282963
DOCKED: USER    NEWDPF dihe0 132.16 -179.76 132.77 5.04 -133.41 112.43 -35.36 -99.74 23.83 -136.69 49.98 -106.72 110.98 
DOCKED: USER  keepresnum = 1 
DOCKED: USER  
DOCKED: REMARK  13 active torsions:
DOCKED: REMARK  status: ('A' for Active; 'I' for Inactive)
DOCKED: REMARK    1  A    between atoms: O_3  and  C_38 
DOCKED: REMARK    2  A    between atoms: O_4  and  C_40 
DOCKED: REMARK    3  A    between atoms: O_7  and  C_46 
DOCKED: REMARK    4  A    between atoms: O_9  and  C_48 
DOCKED: REMARK    5  A    between atoms: C_15  and  C_20 
DOCKED: REMARK    6  A    between atoms: C_16  and  C_23 
DOCKED: REMARK    7  A    between atoms: C_20  and  C_38 
DOCKED: REMARK    8  A    between atoms: C_23  and  C_40 
DOCKED: REMARK    9  A    between atoms: C_32  and  C_41 
DOCKED: REMARK   10  A    between atoms: C_37  and  C_45 
DOCKED: REMARK   11  A    between atoms: C_41  and  C_44 
DOCKED: REMARK   12  A    between atoms: C_44  and  C_46 
DOCKED: REMARK   13  A    between atoms: C_47  and  C_48 
DOCKED: USER                              x       y       z     vdW  Elec       q    Type
DOCKED: USER                           _______ _______ _______ _____ _____    ______ ____
DOCKED: ROOT
DOCKED: ATOM      1  O   UNL d   1      -0.163  20.669  10.525 -0.01 +0.00    -0.289 OA
DOCKED: ATOM      2  O   UNL d   1       0.640  13.991  13.863 -0.37 +0.09    -0.289 OA
DOCKED: ATOM      3  N   UNL d   1       2.010  18.253   9.371 -0.06 -0.01    -0.247 NA
DOCKED: ATOM      4  N   UNL d   1       1.860  16.145  11.459 -0.04 +0.01    -0.247 NA
DOCKED: ATOM      5  N   UNL d   1       4.211  14.962  10.303 -0.09 +0.04    -0.354 N 
DOCKED: ATOM      6  N   UNL d   1       4.372  17.164   8.152 -0.03 -0.01    -0.354 N 
DOCKED: ATOM      7  C   UNL d   1       1.538  20.583   8.773 -0.03 +0.00    +0.084 A 
DOCKED: ATOM      8  C   UNL d   1      -0.201  16.010  12.765 -0.17 -0.01    +0.084 A 
DOCKED: ATOM      9  C   UNL d   1       0.643  16.737  11.713 -0.12 -0.00    +0.058 A 
DOCKED: ATOM     10  C   UNL d   1       2.346  19.304   8.533 -0.09 +0.00    +0.058 A 
DOCKED: ATOM     11  C   UNL d   1       0.674  20.063   9.882 -0.02 +0.00    +0.193 A 
DOCKED: ATOM     12  C   UNL d   1       1.038  18.633  10.134 -0.08 +0.00    +0.109 A 
DOCKED: ATOM     13  C   UNL d   1       0.778  14.917  13.088 -0.20 -0.03    +0.193 A 
DOCKED: ATOM     14  C   UNL d   1       2.409  21.719   9.315 -0.01 +0.00    +0.026 C 
DOCKED: ATOM     15  C   UNL d   1       0.249  17.879  11.129 -0.12 -0.00    +0.055 C 
DOCKED: ATOM     16  C   UNL d   1      -1.456  15.382  12.151 -0.26 -0.01    +0.026 C 
DOCKED: ATOM     17  C   UNL d   1       1.988  15.117  12.235 -0.17 -0.01    +0.109 A 
DOCKED: ATOM     18  C   UNL d   1       3.235  19.212   7.527 -0.12 +0.00    +0.050 C 
DOCKED: ATOM     19  C   UNL d   1       3.965  18.047   7.177 -0.16 +0.00    +0.045 A 
DOCKED: ATOM     20  C   UNL d   1       4.118  14.224  11.454 -0.25 -0.01    +0.045 A 
DOCKED: ATOM     21  C   UNL d   1       3.141  14.214  12.366 -0.28 -0.01    +0.057 C 
DOCKED: ATOM     22  C   UNL d   1       6.077  13.703  10.400 -0.18 +0.00    -0.019 A 
DOCKED: ATOM     23  C   UNL d   1       5.360  14.716   9.599 -0.26 -0.01    +0.045 A 
DOCKED: ATOM     24  C   UNL d   1       5.336  13.415  11.496 -0.22 +0.00    -0.022 A 
DOCKED: ATOM     25  C   UNL d   1       5.137  16.160   7.605 -0.17 -0.00    +0.049 A 
DOCKED: ATOM     26  C   UNL d   1       4.447  17.586   5.962 -0.22 -0.00    -0.018 A 
DOCKED: ATOM     27  C   UNL d   1       5.169  16.383   6.236 -0.29 -0.00    +0.003 A 
DOCKED: ATOM     28  C   UNL d   1       5.801  15.216   8.435 -0.28 -0.01    +0.052 C 
DOCKED: ATOM     29  C   UNL d   1       5.630  12.450  12.594 -0.28 -0.00    +0.046 C 
DOCKED: ATOM     30  C   UNL d   1       4.248  18.219   4.627 -0.15 +0.00    +0.046 C 
DOCKED: ATOM     31  H   UNL d   1       3.449  15.557   9.996 +0.08 +0.00    +0.166 HD
DOCKED: ATOM     32  H   UNL d   1       4.160  17.279   9.136 +0.03 +0.00    +0.166 HD
DOCKED: ENDROOT
DOCKED: BRANCH   7  33
DOCKED: ATOM     33  C   UNL d   1       0.678  21.047   7.593 -0.03 +0.00    +0.141 C 
DOCKED: BRANCH  33  34
DOCKED: ATOM     34  C   UNL d   1      -0.514  20.159   7.360 -0.04 +0.02    +0.306 C 
DOCKED: ATOM     35  O   UNL d   1      -0.508  19.080   6.792 -0.14 -0.03    -0.251 OA
DOCKED: BRANCH  34  36
DOCKED: ATOM     36  O   UNL d   1      -1.651  20.676   7.858 +0.01 -0.02    -0.481 OA
DOCKED: ATOM     37  H   UNL d   1      -1.428  20.919   8.781 +0.02 +0.01    +0.295 HD
DOCKED: ENDBRANCH  34  36
DOCKED: ENDBRANCH  33  34
DOCKED: ENDBRANCH   7  33
DOCKED: BRANCH  27  38
DOCKED: ATOM     38  C   UNL d   1       5.846  15.587   5.258 -0.33 -0.00    +0.017 C 
DOCKED: ATOM     39  C   UNL d   1       7.178  15.467   5.143 -0.20 -0.01    +0.092 C 
DOCKED: BRANCH  39  40
DOCKED: ATOM     40  C   UNL d   1       7.746  14.603   4.105 -0.15 -0.02    +0.330 C 
DOCKED: ATOM     41  O   UNL d   1       8.357  14.940   3.109 -0.08 +0.00    -0.246 OA
DOCKED: BRANCH  40  42
DOCKED: ATOM     42  O   UNL d   1       7.512  13.314   4.399 -0.15 +0.07    -0.477 OA
DOCKED: ATOM     43  H   UNL d   1       7.015  13.352   5.242 -0.43 -0.12    +0.295 HD
DOCKED: ENDBRANCH  40  42
DOCKED: ENDBRANCH  39  40
DOCKED: ENDBRANCH  27  38
DOCKED: BRANCH   8  44
DOCKED: ATOM     44  C   UNL d   1      -0.545  16.827  14.015 -0.10 -0.02    +0.141 C 
DOCKED: BRANCH  44  45
DOCKED: ATOM     45  C   UNL d   1      -1.497  16.120  14.943 -0.12 -0.05    +0.306 C 
DOCKED: ATOM     46  O   UNL d   1      -2.707  16.036  14.816 -0.12 +0.04    -0.251 OA
DOCKED: BRANCH  45  47
DOCKED: ATOM     47  O   UNL d   1      -0.874  15.577  16.004 +0.06 +0.10    -0.481 OA
DOCKED: ATOM     48  H   UNL d   1      -0.111  15.093  15.623 -0.43 -0.14    +0.295 HD
DOCKED: ENDBRANCH  45  47
DOCKED: ENDBRANCH  44  45
DOCKED: ENDBRANCH   8  44
DOCKED: BRANCH  22  49
DOCKED: ATOM     49  C   UNL d   1       7.413  13.128  10.031 -0.24 -0.01    +0.048 C 
DOCKED: BRANCH  49  50
DOCKED: ATOM     50  C   UNL d   1       8.239  14.103   9.192 -0.11 -0.01    +0.125 C 
DOCKED: BRANCH  50  51
DOCKED: ATOM     51  C   UNL d   1       8.757  13.435   7.950 -0.11 -0.02    +0.305 C 
DOCKED: ATOM     52  O   UNL d   1       9.899  13.075   7.721 -0.05 +0.00    -0.251 OA
DOCKED: BRANCH  51  53
DOCKED: ATOM     53  O   UNL d   1       7.788  13.261   7.030 -0.13 +0.06    -0.481 OA
DOCKED: ATOM     54  H   UNL d   1       8.228  12.757   6.313 +0.06 -0.02    +0.295 HD
DOCKED: ENDBRANCH  51  53
DOCKED: ENDBRANCH  50  51
DOCKED: ENDBRANCH  49  50
DOCKED: ENDBRANCH  22  49
DOCKED: TORSDOF 13
DOCKED: TER
DOCKED: ENDMDL
________________________________________________________________________________


	BEGINNING GENETIC ALGORITHM DOCKING 62 of 100
Run: 62 Seed: 1391554453 1749632814 [ Run 62 of 100 GA/GALS ]
Beginning LAMARCKIAN GENETIC ALGORITHM (LGA), with a maximum of 25000000 energy evaluations.

Final-Value: -10.820


	FINAL GENETIC ALGORITHM DOCKED STATE
	_______________________________________________


Detailed state:  trans 0.904 17.203 8.909 quatxyzw -0.042645 0.498691 0.865572 -0.016541 center 0.153 0.018 -0.028 ntor 13 28.2870 -179.8674 -107.9128 -43.6746 -153.3075 72.6841 173.6366 -127.5929 -11.8070 21.0351 -90.9812 -72.1735 -9.3322
State:	  0.904  17.203   8.909  -0.043  0.499  0.866 -178.104     28.29 -179.87 -107.91  -43.67 -153.31   72.68  173.64 -127.59  -11.81   21.04  -90.98  -72.17   -9.33

DOCKED: MODEL       62
DOCKED: USER    Run = 62
DOCKED: USER    DPF = D:/Protein_go_brrr/autodock/final/mut_D99N/heme/dock.dpf
DOCKED: USER  
DOCKED: USER    Estimated Free Energy of Binding    =   -2.97 kcal/mol  [=(1)+(2)+(3)-(4)]
DOCKED: USER    Estimated Inhibition Constant, Ki   =    6.69 mM (millimolar)  [Temperature = 298.15 K]
DOCKED: USER    
DOCKED: USER    (1) Final Intermolecular Energy     =   -6.84 kcal/mol
DOCKED: USER        vdW + Hbond + desolv Energy     =   -6.79 kcal/mol
DOCKED: USER        Electrostatic Energy            =   -0.06 kcal/mol
DOCKED: USER    (2) Final Total Internal Energy     =   -3.98 kcal/mol
DOCKED: USER    (3) Torsional Free Energy           =   +3.88 kcal/mol
DOCKED: USER    (4) Unbound System's Energy  [=(2)] =   -3.98 kcal/mol
DOCKED: USER    
DOCKED: USER    
DOCKED: USER    NEWDPF move heme_opt.pdbqt
DOCKED: USER    NEWDPF about 0.153000 0.018000 -0.028000
DOCKED: USER    NEWDPF tran0 0.903690 17.202651 8.909159
DOCKED: USER    NEWDPF quaternion0 -0.042645 0.498691 0.865572 -0.016541
DOCKED: USER    NEWDPF axisangle0 -0.042651 0.498759 0.865690 -178.104438
DOCKED: USER    NEWDPF quat0 -0.042651 0.498759 0.865690 -178.104438
DOCKED: USER    NEWDPF dihe0 28.29 -179.87 -107.91 -43.67 -153.31 72.68 173.64 -127.59 -11.81 21.04 -90.98 -72.17 -9.33 
DOCKED: USER  keepresnum = 1 
DOCKED: USER  
DOCKED: REMARK  13 active torsions:
DOCKED: REMARK  status: ('A' for Active; 'I' for Inactive)
DOCKED: REMARK    1  A    between atoms: O_3  and  C_38 
DOCKED: REMARK    2  A    between atoms: O_4  and  C_40 
DOCKED: REMARK    3  A    between atoms: O_7  and  C_46 
DOCKED: REMARK    4  A    between atoms: O_9  and  C_48 
DOCKED: REMARK    5  A    between atoms: C_15  and  C_20 
DOCKED: REMARK    6  A    between atoms: C_16  and  C_23 
DOCKED: REMARK    7  A    between atoms: C_20  and  C_38 
DOCKED: REMARK    8  A    between atoms: C_23  and  C_40 
DOCKED: REMARK    9  A    between atoms: C_32  and  C_41 
DOCKED: REMARK   10  A    between atoms: C_37  and  C_45 
DOCKED: REMARK   11  A    between atoms: C_41  and  C_44 
DOCKED: REMARK   12  A    between atoms: C_44  and  C_46 
DOCKED: REMARK   13  A    between atoms: C_47  and  C_48 
DOCKED: USER                              x       y       z     vdW  Elec       q    Type
DOCKED: USER                           _______ _______ _______ _____ _____    ______ ____
DOCKED: ROOT
DOCKED: ATOM      1  O   UNL d   1       6.334  16.993  11.195 -0.01 +0.01    -0.289 OA
DOCKED: ATOM      2  O   UNL d   1       3.985  18.307   4.185 -0.11 -0.01    -0.289 OA
DOCKED: ATOM      3  N   UNL d   1       3.009  16.879  10.287 +0.08 -0.00    -0.247 NA
DOCKED: ATOM      4  N   UNL d   1       3.038  17.813   7.466 +0.02 -0.02    -0.247 NA
DOCKED: ATOM      5  N   UNL d   1       0.184  18.116   7.633 -0.16 -0.04    -0.354 N 
DOCKED: ATOM      6  N   UNL d   1       0.165  17.165  10.565 -0.01 -0.00    -0.354 N 
DOCKED: ATOM      7  C   UNL d   1       4.228  16.723  12.407 -0.05 -0.00    +0.084 A 
DOCKED: ATOM      8  C   UNL d   1       5.099  17.473   6.198 -0.17 -0.00    +0.084 A 
DOCKED: ATOM      9  C   UNL d   1       4.349  17.395   7.531 -0.13 +0.00    +0.058 A 
DOCKED: ATOM     10  C   UNL d   1       2.892  16.726  11.658 -0.10 -0.00    +0.058 A 
DOCKED: ATOM     11  C   UNL d   1       5.122  16.882  11.214 -0.04 -0.01    +0.193 A 
DOCKED: ATOM     12  C   UNL d   1       4.265  16.939   9.987 -0.07 -0.00    +0.109 A 
DOCKED: ATOM     13  C   UNL d   1       3.983  18.047   5.372 -0.13 +0.01    +0.193 A 
DOCKED: ATOM     14  C   UNL d   1       4.384  17.950  13.310 -0.02 -0.00    +0.026 C 
DOCKED: ATOM     15  C   UNL d   1       4.936  17.002   8.673 -0.14 -0.00    +0.055 C 
DOCKED: ATOM     16  C   UNL d   1       5.445  16.081   5.658 -0.35 -0.00    +0.026 C 
DOCKED: ATOM     17  C   UNL d   1       2.793  18.213   6.260 -0.20 +0.01    +0.109 A 
DOCKED: ATOM     18  C   UNL d   1       1.728  16.506  12.297 -0.13 -0.00    +0.050 C 
DOCKED: ATOM     19  C   UNL d   1       0.456  16.408  11.678 -0.12 -0.00    +0.045 A 
DOCKED: ATOM     20  C   UNL d   1       0.416  18.730   6.430 -0.27 +0.01    +0.045 A 
DOCKED: ATOM     21  C   UNL d   1       1.553  18.800   5.730 -0.26 +0.01    +0.057 C 
DOCKED: ATOM     22  C   UNL d   1      -1.775  19.031   7.002 -0.18 -0.00    -0.019 A 
DOCKED: ATOM     23  C   UNL d   1      -1.111  18.244   8.060 -0.25 +0.00    +0.045 A 
DOCKED: ATOM     24  C   UNL d   1      -0.866  19.315   6.039 -0.20 -0.00    -0.022 A 
DOCKED: ATOM     25  C   UNL d   1      -1.145  16.982  10.186 -0.18 -0.00    +0.049 A 
DOCKED: ATOM     26  C   UNL d   1      -0.682  15.688  12.008 -0.24 +0.00    -0.018 A 
DOCKED: ATOM     27  C   UNL d   1      -1.683  16.039  11.051 -0.28 -0.00    +0.003 A 
DOCKED: ATOM     28  C   UNL d   1      -1.724  17.775   9.158 -0.25 +0.00    +0.052 C 
DOCKED: ATOM     29  C   UNL d   1      -1.058  20.073   4.770 -0.15 +0.01    +0.046 C 
DOCKED: ATOM     30  C   UNL d   1      -0.831  14.729  13.140 -0.35 -0.01    +0.046 C 
DOCKED: ATOM     31  H   UNL d   1       0.903  17.564   8.089 +0.07 +0.02    +0.166 HD
DOCKED: ATOM     32  H   UNL d   1       0.826  17.795  10.127 +0.03 +0.00    +0.166 HD
DOCKED: ENDROOT
DOCKED: BRANCH   7  33
DOCKED: ATOM     33  C   UNL d   1       4.558  15.428  13.157 -0.08 -0.01    +0.141 C 
DOCKED: BRANCH  33  34
DOCKED: ATOM     34  C   UNL d   1       4.082  14.200  12.429 -0.13 -0.03    +0.306 C 
DOCKED: ATOM     35  O   UNL d   1       3.060  13.576  12.660 -0.20 +0.03    -0.251 OA
DOCKED: BRANCH  34  36
DOCKED: ATOM     36  O   UNL d   1       4.917  13.824  11.444 -0.09 +0.09    -0.481 OA
DOCKED: ATOM     37  H   UNL d   1       4.349  13.337  10.810 -0.38 -0.12    +0.295 HD
DOCKED: ENDBRANCH  34  36
DOCKED: ENDBRANCH  33  34
DOCKED: ENDBRANCH   7  33
DOCKED: BRANCH  27  38
DOCKED: ATOM     38  C   UNL d   1      -3.022  15.533  11.034 -0.26 -0.00    +0.017 C 
DOCKED: ATOM     39  C   UNL d   1      -4.110  16.231  10.673 -0.22 -0.01    +0.092 C 
DOCKED: BRANCH  39  40
DOCKED: ATOM     40  C   UNL d   1      -5.427  15.588  10.683 -0.14 -0.05    +0.330 C 
DOCKED: ATOM     41  O   UNL d   1      -6.081  15.248  11.650 -0.11 +0.05    -0.246 OA
DOCKED: BRANCH  40  42
DOCKED: ATOM     42  O   UNL d   1      -5.864  15.411   9.426 -0.14 +0.04    -0.477 OA
DOCKED: ATOM     43  H   UNL d   1      -5.143  15.779   8.874 +0.15 -0.01    +0.295 HD
DOCKED: ENDBRANCH  40  42
DOCKED: ENDBRANCH  39  40
DOCKED: ENDBRANCH  27  38
DOCKED: BRANCH   8  44
DOCKED: ATOM     44  C   UNL d   1       6.324  18.393   6.182 -0.05 -0.00    +0.141 C 
DOCKED: BRANCH  44  45
DOCKED: ATOM     45  C   UNL d   1       6.220  19.537   7.155 -0.01 -0.00    +0.306 C 
DOCKED: ATOM     46  O   UNL d   1       7.055  19.870   7.978 -0.00 +0.00    -0.251 OA
DOCKED: BRANCH  45  47
DOCKED: ATOM     47  O   UNL d   1       5.048  20.191   7.058 +0.00 -0.00    -0.481 OA
DOCKED: ATOM     48  H   UNL d   1       4.386  19.569   7.428 +0.04 +0.00    +0.295 HD
DOCKED: ENDBRANCH  45  47
DOCKED: ENDBRANCH  44  45
DOCKED: ENDBRANCH   8  44
DOCKED: BRANCH  22  49
DOCKED: ATOM     49  C   UNL d   1      -3.218  19.441   7.037 -0.12 +0.00    +0.048 C 
DOCKED: BRANCH  49  50
DOCKED: ATOM     50  C   UNL d   1      -4.114  18.431   6.321 -0.20 +0.02    +0.125 C 
DOCKED: BRANCH  50  51
DOCKED: ATOM     51  C   UNL d   1      -4.596  17.373   7.273 -0.20 +0.04    +0.305 C 
DOCKED: ATOM     52  O   UNL d   1      -4.614  16.167   7.096 -0.39 -0.03    -0.251 OA
DOCKED: BRANCH  51  53
DOCKED: ATOM     53  O   UNL d   1      -5.054  17.901   8.425 -0.01 -0.01    -0.481 OA
DOCKED: ATOM     54  H   UNL d   1      -5.885  17.410   8.598 +0.10 -0.00    +0.295 HD
DOCKED: ENDBRANCH  51  53
DOCKED: ENDBRANCH  50  51
DOCKED: ENDBRANCH  49  50
DOCKED: ENDBRANCH  22  49
DOCKED: TORSDOF 13
DOCKED: TER
DOCKED: ENDMDL
________________________________________________________________________________


	BEGINNING GENETIC ALGORITHM DOCKING 63 of 100
Run: 63 Seed: 1170701508 193140278 [ Run 63 of 100 GA/GALS ]
Beginning LAMARCKIAN GENETIC ALGORITHM (LGA), with a maximum of 25000000 energy evaluations.

Final-Value: -10.620


	FINAL GENETIC ALGORITHM DOCKED STATE
	_______________________________________________


Detailed state:  trans -3.310 15.776 12.772 quatxyzw -0.315203 0.554446 0.756092 0.146838 center 0.153 0.018 -0.028 ntor 13 -115.3593 -73.6827 -109.2776 176.5836 38.0019 -61.2894 120.4378 78.5424 138.5739 -30.7072 84.8008 -92.1785 173.4835
State:	 -3.310  15.776  12.772  -0.319  0.561  0.764 163.113   -115.36  -73.68 -109.28  176.58   38.00  -61.29  120.44   78.54  138.57  -30.71   84.80  -92.18  173.48

DOCKED: MODEL       63
DOCKED: USER    Run = 63
DOCKED: USER    DPF = D:/Protein_go_brrr/autodock/final/mut_D99N/heme/dock.dpf
DOCKED: USER  
DOCKED: USER    Estimated Free Energy of Binding    =   -4.10 kcal/mol  [=(1)+(2)+(3)-(4)]
DOCKED: USER    Estimated Inhibition Constant, Ki   =  987.76 uM (micromolar)  [Temperature = 298.15 K]
DOCKED: USER    
DOCKED: USER    (1) Final Intermolecular Energy     =   -7.98 kcal/mol
DOCKED: USER        vdW + Hbond + desolv Energy     =   -7.78 kcal/mol
DOCKED: USER        Electrostatic Energy            =   -0.20 kcal/mol
DOCKED: USER    (2) Final Total Internal Energy     =   -2.64 kcal/mol
DOCKED: USER    (3) Torsional Free Energy           =   +3.88 kcal/mol
DOCKED: USER    (4) Unbound System's Energy  [=(2)] =   -2.64 kcal/mol
DOCKED: USER    
DOCKED: USER    
DOCKED: USER    NEWDPF move heme_opt.pdbqt
DOCKED: USER    NEWDPF about 0.153000 0.018000 -0.028000
DOCKED: USER    NEWDPF tran0 -3.309733 15.775857 12.771896
DOCKED: USER    NEWDPF quaternion0 -0.315203 0.554446 0.756092 0.146838
DOCKED: USER    NEWDPF axisangle0 -0.318657 0.560522 0.764377 163.112563
DOCKED: USER    NEWDPF quat0 -0.318657 0.560522 0.764377 163.112563
DOCKED: USER    NEWDPF dihe0 -115.36 -73.68 -109.28 176.58 38.00 -61.29 120.44 78.54 138.57 -30.71 84.80 -92.18 173.48 
DOCKED: USER  keepresnum = 1 
DOCKED: USER  
DOCKED: REMARK  13 active torsions:
DOCKED: REMARK  status: ('A' for Active; 'I' for Inactive)
DOCKED: REMARK    1  A    between atoms: O_3  and  C_38 
DOCKED: REMARK    2  A    between atoms: O_4  and  C_40 
DOCKED: REMARK    3  A    between atoms: O_7  and  C_46 
DOCKED: REMARK    4  A    between atoms: O_9  and  C_48 
DOCKED: REMARK    5  A    between atoms: C_15  and  C_20 
DOCKED: REMARK    6  A    between atoms: C_16  and  C_23 
DOCKED: REMARK    7  A    between atoms: C_20  and  C_38 
DOCKED: REMARK    8  A    between atoms: C_23  and  C_40 
DOCKED: REMARK    9  A    between atoms: C_32  and  C_41 
DOCKED: REMARK   10  A    between atoms: C_37  and  C_45 
DOCKED: REMARK   11  A    between atoms: C_41  and  C_44 
DOCKED: REMARK   12  A    between atoms: C_44  and  C_46 
DOCKED: REMARK   13  A    between atoms: C_47  and  C_48 
DOCKED: USER                              x       y       z     vdW  Elec       q    Type
DOCKED: USER                           _______ _______ _______ _____ _____    ______ ____
DOCKED: ROOT
DOCKED: ATOM      1  O   UNL d   1       0.315  18.889  16.226 -0.01 +0.02    -0.289 OA
DOCKED: ATOM      2  O   UNL d   1       0.332  17.774   8.800 -0.13 -0.03    -0.289 OA
DOCKED: ATOM      3  N   UNL d   1      -1.966  16.846  14.638 -0.05 +0.03    -0.247 NA
DOCKED: ATOM      4  N   UNL d   1      -1.372  17.269  11.757 -0.06 +0.02    -0.247 NA
DOCKED: ATOM      5  N   UNL d   1      -3.863  15.968  11.148 -0.09 +0.07    -0.354 N 
DOCKED: ATOM      6  N   UNL d   1      -4.480  15.551  14.139 -0.04 +0.07    -0.354 N 
DOCKED: ATOM      7  C   UNL d   1      -1.679  17.663  16.931 -0.07 -0.01    +0.084 A 
DOCKED: ATOM      8  C   UNL d   1       0.898  17.960  11.174 -0.09 -0.00    +0.084 A 
DOCKED: ATOM      9  C   UNL d   1      -0.146  17.654  12.253 -0.07 -0.00    +0.058 A 
DOCKED: ATOM     10  C   UNL d   1      -2.481  16.833  15.924 -0.10 -0.01    +0.058 A 
DOCKED: ATOM     11  C   UNL d   1      -0.610  18.132  15.991 -0.03 -0.02    +0.193 A 
DOCKED: ATOM     12  C   UNL d   1      -0.880  17.549  14.639 -0.05 -0.01    +0.109 A 
DOCKED: ATOM     13  C   UNL d   1       0.027  17.712   9.975 -0.07 +0.01    +0.193 A 
DOCKED: ATOM     14  C   UNL d   1      -2.466  18.876  17.432 -0.02 -0.00    +0.026 C 
DOCKED: ATOM     15  C   UNL d   1       0.100  17.800  13.564 -0.05 -0.00    +0.055 C 
DOCKED: ATOM     16  C   UNL d   1       2.035  16.933  11.177 -0.12 -0.00    +0.026 C 
DOCKED: ATOM     17  C   UNL d   1      -1.325  17.307  10.465 -0.16 -0.00    +0.109 A 
DOCKED: ATOM     18  C   UNL d   1      -3.538  16.092  16.306 -0.12 -0.01    +0.050 C 
DOCKED: ATOM     19  C   UNL d   1      -4.286  15.231  15.464 -0.18 -0.01    +0.045 A 
DOCKED: ATOM     20  C   UNL d   1      -3.537  16.448   9.906 -0.26 -0.01    +0.045 A 
DOCKED: ATOM     21  C   UNL d   1      -2.408  17.041   9.506 -0.28 -0.00    +0.057 C 
DOCKED: ATOM     22  C   UNL d   1      -5.642  15.562   9.827 -0.31 +0.00    -0.019 A 
DOCKED: ATOM     23  C   UNL d   1      -5.115  15.415  11.199 -0.21 -0.01    +0.045 A 
DOCKED: ATOM     24  C   UNL d   1      -4.703  16.173   9.066 -0.34 +0.00    -0.022 A 
DOCKED: ATOM     25  C   UNL d   1      -5.305  14.630  13.535 -0.18 -0.01    +0.049 A 
DOCKED: ATOM     26  C   UNL d   1      -4.971  14.053  15.718 -0.29 +0.00    -0.018 A 
DOCKED: ATOM     27  C   UNL d   1      -5.597  13.668  14.492 -0.31 -0.00    +0.003 A 
DOCKED: ATOM     28  C   UNL d   1      -5.777  14.833  12.210 -0.22 -0.01    +0.052 C 
DOCKED: ATOM     29  C   UNL d   1      -4.761  16.529   7.620 -0.43 +0.00    +0.046 C 
DOCKED: ATOM     30  C   UNL d   1      -5.041  13.326  17.018 -0.32 -0.02    +0.046 C 
DOCKED: ATOM     31  H   UNL d   1      -3.188  15.967  11.905 +0.05 -0.04    +0.166 HD
DOCKED: ATOM     32  H   UNL d   1      -4.094  16.378  13.700 +0.04 -0.03    +0.166 HD
DOCKED: ENDROOT
DOCKED: BRANCH   7  33
DOCKED: ATOM     33  C   UNL d   1      -1.066  16.873  18.092 -0.10 -0.02    +0.141 C 
DOCKED: BRANCH  33  34
DOCKED: ATOM     34  C   UNL d   1      -0.421  17.762  19.121 -0.04 -0.03    +0.306 C 
DOCKED: ATOM     35  O   UNL d   1      -0.956  18.211  20.121 -0.02 +0.02    -0.251 OA
DOCKED: BRANCH  34  36
DOCKED: ATOM     36  O   UNL d   1       0.864  18.036  18.837 -0.00 +0.05    -0.481 OA
DOCKED: ATOM     37  H   UNL d   1       0.831  18.516  17.983 +0.03 -0.03    +0.295 HD
DOCKED: ENDBRANCH  34  36
DOCKED: ENDBRANCH  33  34
DOCKED: ENDBRANCH   7  33
DOCKED: BRANCH  27  38
DOCKED: ATOM     38  C   UNL d   1      -6.420  12.510  14.314 -0.43 -0.00    +0.017 C 
DOCKED: ATOM     39  C   UNL d   1      -7.676  12.519  13.840 -0.35 -0.03    +0.092 C 
DOCKED: BRANCH  39  40
DOCKED: ATOM     40  C   UNL d   1      -8.407  11.258  13.689 -0.24 -0.12    +0.330 C 
DOCKED: ATOM     41  O   UNL d   1      -8.134  10.322  12.961 -0.54 +0.09    -0.246 OA
DOCKED: BRANCH  40  42
DOCKED: ATOM     42  O   UNL d   1      -9.476  11.244  14.501 -0.13 +0.20    -0.477 OA
DOCKED: ATOM     43  H   UNL d   1     -10.233  11.373  13.894 -0.39 -0.17    +0.295 HD
DOCKED: ENDBRANCH  40  42
DOCKED: ENDBRANCH  39  40
DOCKED: ENDBRANCH  27  38
DOCKED: BRANCH   8  44
DOCKED: ATOM     44  C   UNL d   1       1.444  19.391  11.170 -0.04 -0.00    +0.141 C 
DOCKED: BRANCH  44  45
DOCKED: ATOM     45  C   UNL d   1       0.527  20.375  10.494 -0.01 -0.00    +0.306 C 
DOCKED: ATOM     46  O   UNL d   1      -0.499  20.847  10.953 -0.01 +0.00    -0.251 OA
DOCKED: BRANCH  45  47
DOCKED: ATOM     47  O   UNL d   1       0.939  20.695   9.254 +0.00 -0.00    -0.481 OA
DOCKED: ATOM     48  H   UNL d   1       0.793  19.880   8.727 +0.04 +0.01    +0.295 HD
DOCKED: ENDBRANCH  45  47
DOCKED: ENDBRANCH  44  45
DOCKED: ENDBRANCH   8  44
DOCKED: BRANCH  22  49
DOCKED: ATOM     49  C   UNL d   1      -7.006  15.111   9.396 -0.26 -0.01    +0.048 C 
DOCKED: BRANCH  49  50
DOCKED: ATOM     50  C   UNL d   1      -8.052  16.211   9.573 -0.22 -0.04    +0.125 C 
DOCKED: BRANCH  50  51
DOCKED: ATOM     51  C   UNL d   1      -8.754  16.078  10.894 -0.10 -0.13    +0.305 C 
DOCKED: ATOM     52  O   UNL d   1      -8.304  16.315  12.002 -0.04 +0.06    -0.251 OA
DOCKED: BRANCH  51  53
DOCKED: ATOM     53  O   UNL d   1     -10.016  15.628  10.751 -0.03 +0.45    -0.481 OA
DOCKED: ATOM     54  H   UNL d   1     -10.141  15.572   9.781 -0.34 -0.52    +0.295 HD
DOCKED: ENDBRANCH  51  53
DOCKED: ENDBRANCH  50  51
DOCKED: ENDBRANCH  49  50
DOCKED: ENDBRANCH  22  49
DOCKED: TORSDOF 13
DOCKED: TER
DOCKED: ENDMDL
________________________________________________________________________________


	BEGINNING GENETIC ALGORITHM DOCKING 64 of 100
Run: 64 Seed: 1229809659 463491776 [ Run 64 of 100 GA/GALS ]
Beginning LAMARCKIAN GENETIC ALGORITHM (LGA), with a maximum of 25000000 energy evaluations.

Final-Value: -12.300


	FINAL GENETIC ALGORITHM DOCKED STATE
	_______________________________________________


Detailed state:  trans -11.397 13.274 -12.155 quatxyzw -0.638916 0.280442 -0.465194 0.544733 center 0.153 0.018 -0.028 ntor 13 -107.8531 176.4003 -121.4944 23.8825 35.7663 -34.4512 -83.3273 61.7614 133.1060 -20.0119 -69.0167 -17.2033 -13.5420
State:	-11.397  13.274 -12.155  -0.762  0.334 -0.555 113.987   -107.85  176.40 -121.49   23.88   35.77  -34.45  -83.33   61.76  133.11  -20.01  -69.02  -17.20  -13.54

DOCKED: MODEL       64
DOCKED: USER    Run = 64
DOCKED: USER    DPF = D:/Protein_go_brrr/autodock/final/mut_D99N/heme/dock.dpf
DOCKED: USER  
DOCKED: USER    Estimated Free Energy of Binding    =   -4.55 kcal/mol  [=(1)+(2)+(3)-(4)]
DOCKED: USER    Estimated Inhibition Constant, Ki   =  460.66 uM (micromolar)  [Temperature = 298.15 K]
DOCKED: USER    
DOCKED: USER    (1) Final Intermolecular Energy     =   -8.43 kcal/mol
DOCKED: USER        vdW + Hbond + desolv Energy     =   -8.05 kcal/mol
DOCKED: USER        Electrostatic Energy            =   -0.38 kcal/mol
DOCKED: USER    (2) Final Total Internal Energy     =   -3.87 kcal/mol
DOCKED: USER    (3) Torsional Free Energy           =   +3.88 kcal/mol
DOCKED: USER    (4) Unbound System's Energy  [=(2)] =   -3.87 kcal/mol
DOCKED: USER    
DOCKED: USER    
DOCKED: USER    NEWDPF move heme_opt.pdbqt
DOCKED: USER    NEWDPF about 0.153000 0.018000 -0.028000
DOCKED: USER    NEWDPF tran0 -11.397394 13.274173 -12.154623
DOCKED: USER    NEWDPF quaternion0 -0.638916 0.280442 -0.465194 0.544733
DOCKED: USER    NEWDPF axisangle0 -0.761875 0.334413 -0.554721 113.987195
DOCKED: USER    NEWDPF quat0 -0.761875 0.334413 -0.554721 113.987195
DOCKED: USER    NEWDPF dihe0 -107.85 176.40 -121.49 23.88 35.77 -34.45 -83.33 61.76 133.11 -20.01 -69.02 -17.20 -13.54 
DOCKED: USER  keepresnum = 1 
DOCKED: USER  
DOCKED: REMARK  13 active torsions:
DOCKED: REMARK  status: ('A' for Active; 'I' for Inactive)
DOCKED: REMARK    1  A    between atoms: O_3  and  C_38 
DOCKED: REMARK    2  A    between atoms: O_4  and  C_40 
DOCKED: REMARK    3  A    between atoms: O_7  and  C_46 
DOCKED: REMARK    4  A    between atoms: O_9  and  C_48 
DOCKED: REMARK    5  A    between atoms: C_15  and  C_20 
DOCKED: REMARK    6  A    between atoms: C_16  and  C_23 
DOCKED: REMARK    7  A    between atoms: C_20  and  C_38 
DOCKED: REMARK    8  A    between atoms: C_23  and  C_40 
DOCKED: REMARK    9  A    between atoms: C_32  and  C_41 
DOCKED: REMARK   10  A    between atoms: C_37  and  C_45 
DOCKED: REMARK   11  A    between atoms: C_41  and  C_44 
DOCKED: REMARK   12  A    between atoms: C_44  and  C_46 
DOCKED: REMARK   13  A    between atoms: C_47  and  C_48 
DOCKED: USER                              x       y       z     vdW  Elec       q    Type
DOCKED: USER                           _______ _______ _______ _____ _____    ______ ____
DOCKED: ROOT
DOCKED: ATOM      1  O   UNL d   1     -14.971  11.400 -16.452 -0.10 +0.33    -0.289 OA
DOCKED: ATOM      2  O   UNL d   1      -8.750  15.599 -16.696 -0.01 +0.04    -0.289 OA
DOCKED: ATOM      3  N   UNL d   1     -13.261  12.371 -13.619 -0.14 +0.17    -0.247 NA
DOCKED: ATOM      4  N   UNL d   1     -10.837  13.702 -14.707 -0.13 +0.13    -0.247 NA
DOCKED: ATOM      5  N   UNL d   1      -9.702  13.586 -12.068 -0.04 +0.13    -0.354 N 
DOCKED: ATOM      6  N   UNL d   1     -12.212  12.188 -10.952 -0.12 +0.13    -0.354 N 
DOCKED: ATOM      7  C   UNL d   1     -15.164  10.893 -14.069 -0.19 -0.06    +0.084 A 
DOCKED: ATOM      8  C   UNL d   1     -11.007  14.682 -16.939 -0.06 -0.03    +0.084 A 
DOCKED: ATOM      9  C   UNL d   1     -11.639  13.852 -15.817 -0.15 -0.03    +0.058 A 
DOCKED: ATOM     10  C   UNL d   1     -14.198  11.520 -13.059 -0.25 -0.04    +0.058 A 
DOCKED: ATOM     11  C   UNL d   1     -14.618  11.556 -15.298 -0.10 -0.19    +0.193 A 
DOCKED: ATOM     12  C   UNL d   1     -13.485  12.446 -14.891 -0.17 -0.09    +0.109 A 
DOCKED: ATOM     13  C   UNL d   1      -9.684  14.944 -16.276 -0.05 -0.04    +0.193 A 
DOCKED: ATOM     14  C   UNL d   1     -14.965   9.381 -14.192 -0.29 -0.03    +0.026 C 
DOCKED: ATOM     15  C   UNL d   1     -12.847  13.279 -15.930 -0.15 -0.04    +0.055 C 
DOCKED: ATOM     16  C   UNL d   1     -11.732  16.017 -17.136 -0.02 -0.01    +0.026 C 
DOCKED: ATOM     17  C   UNL d   1      -9.706  14.290 -14.932 -0.14 -0.03    +0.109 A 
DOCKED: ATOM     18  C   UNL d   1     -14.333  11.312 -11.735 -0.29 -0.03    +0.050 C 
DOCKED: ATOM     19  C   UNL d   1     -13.542  11.914 -10.724 -0.25 -0.02    +0.045 A 
DOCKED: ATOM     20  C   UNL d   1      -8.601  13.984 -12.781 -0.18 -0.01    +0.045 A 
DOCKED: ATOM     21  C   UNL d   1      -8.520  14.343 -14.066 -0.16 -0.01    +0.057 C 
DOCKED: ATOM     22  C   UNL d   1      -7.966  13.534 -10.633 -0.24 +0.00    -0.019 A 
DOCKED: ATOM     23  C   UNL d   1      -9.417  13.292 -10.761 -0.25 -0.01    +0.045 A 
DOCKED: ATOM     24  C   UNL d   1      -7.489  13.945 -11.832 -0.16 +0.00    -0.022 A 
DOCKED: ATOM     25  C   UNL d   1     -11.618  12.682  -9.814 -0.22 -0.01    +0.049 A 
DOCKED: ATOM     26  C   UNL d   1     -13.828  12.274  -9.416 -0.18 +0.01    -0.018 A 
DOCKED: ATOM     27  C   UNL d   1     -12.615  12.777  -8.853 -0.28 -0.00    +0.003 A 
DOCKED: ATOM     28  C   UNL d   1     -10.214  12.893  -9.757 -0.07 -0.01    +0.052 C 
DOCKED: ATOM     29  C   UNL d   1      -6.095  14.321 -12.201 -0.10 -0.00    +0.046 C 
DOCKED: ATOM     30  C   UNL d   1     -15.147  12.161  -8.730 -0.25 -0.02    +0.046 C 
DOCKED: ATOM     31  H   UNL d   1     -10.628  13.599 -12.481 -0.30 -0.08    +0.166 HD
DOCKED: ATOM     32  H   UNL d   1     -11.745  12.004 -11.832 -0.38 -0.12    +0.166 HD
DOCKED: ENDROOT
DOCKED: BRANCH   7  33
DOCKED: ATOM     33  C   UNL d   1     -16.641  11.252 -13.875 -0.04 -0.06    +0.141 C 
DOCKED: BRANCH  33  34
DOCKED: ATOM     34  C   UNL d   1     -17.535  10.590 -14.888 +0.00 -0.12    +0.306 C 
DOCKED: ATOM     35  O   UNL d   1     -18.072   9.501 -14.772 -0.01 +0.09    -0.251 OA
DOCKED: BRANCH  34  36
DOCKED: ATOM     36  O   UNL d   1     -17.709  11.336 -15.993 +0.01 +0.16    -0.481 OA
DOCKED: ATOM     37  H   UNL d   1     -16.837  11.321 -16.441 +0.03 -0.13    +0.295 HD
DOCKED: ENDBRANCH  34  36
DOCKED: ENDBRANCH  33  34
DOCKED: ENDBRANCH   7  33
DOCKED: BRANCH  27  38
DOCKED: ATOM     38  C   UNL d   1     -12.461  13.247  -7.509 -0.32 -0.00    +0.017 C 
DOCKED: ATOM     39  C   UNL d   1     -11.473  14.044  -7.075 -0.22 -0.01    +0.092 C 
DOCKED: BRANCH  39  40
DOCKED: ATOM     40  C   UNL d   1     -11.440  14.469  -5.673 -0.14 -0.01    +0.330 C 
DOCKED: ATOM     41  O   UNL d   1     -12.384  14.744  -4.957 -0.20 +0.00    -0.246 OA
DOCKED: BRANCH  40  42
DOCKED: ATOM     42  O   UNL d   1     -10.172  14.516  -5.235 -0.08 -0.01    -0.477 OA
DOCKED: ATOM     43  H   UNL d   1      -9.649  14.185  -5.994 +0.16 +0.01    +0.295 HD
DOCKED: ENDBRANCH  40  42
DOCKED: ENDBRANCH  39  40
DOCKED: ENDBRANCH  27  38
DOCKED: BRANCH   8  44
DOCKED: ATOM     44  C   UNL d   1     -10.817  13.952 -18.273 -0.07 -0.06    +0.141 C 
DOCKED: BRANCH  44  45
DOCKED: ATOM     45  C   UNL d   1      -9.755  12.886 -18.222 -0.12 -0.13    +0.306 C 
DOCKED: ATOM     46  O   UNL d   1      -8.808  12.766 -18.979 -0.07 +0.06    -0.251 OA
DOCKED: BRANCH  45  47
DOCKED: ATOM     47  O   UNL d   1      -9.961  12.003 -17.227 -0.20 +0.32    -0.481 OA
DOCKED: ATOM     48  H   UNL d   1     -10.853  11.635 -17.403 -0.47 -0.49    +0.295 HD
DOCKED: ENDBRANCH  45  47
DOCKED: ENDBRANCH  44  45
DOCKED: ENDBRANCH   8  44
DOCKED: BRANCH  22  49
DOCKED: ATOM     49  C   UNL d   1      -7.186  13.328  -9.368 -0.25 +0.00    +0.048 C 
DOCKED: BRANCH  49  50
DOCKED: ATOM     50  C   UNL d   1      -7.001  14.634  -8.596 -0.19 +0.00    +0.125 C 
DOCKED: BRANCH  50  51
DOCKED: ATOM     51  C   UNL d   1      -7.778  14.612  -7.310 -0.18 +0.02    +0.305 C 
DOCKED: ATOM     52  O   UNL d   1      -7.711  13.787  -6.416 -0.32 -0.04    -0.251 OA
DOCKED: BRANCH  51  53
DOCKED: ATOM     53  O   UNL d   1      -8.631  15.652  -7.218 -0.00 -0.02    -0.481 OA
DOCKED: ATOM     54  H   UNL d   1      -8.775  15.757  -6.254 +0.09 +0.02    +0.295 HD
DOCKED: ENDBRANCH  51  53
DOCKED: ENDBRANCH  50  51
DOCKED: ENDBRANCH  49  50
DOCKED: ENDBRANCH  22  49
DOCKED: TORSDOF 13
DOCKED: TER
DOCKED: ENDMDL
________________________________________________________________________________


	BEGINNING GENETIC ALGORITHM DOCKING 65 of 100
Run: 65 Seed: 2057553944 1934944880 [ Run 65 of 100 GA/GALS ]
Beginning LAMARCKIAN GENETIC ALGORITHM (LGA), with a maximum of 25000000 energy evaluations.

Final-Value: -12.570


	FINAL GENETIC ALGORITHM DOCKED STATE
	_______________________________________________


Detailed state:  trans -10.839 12.738 -13.199 quatxyzw -0.445703 0.519094 0.696649 -0.215802 center 0.153 0.018 -0.028 ntor 13 -88.8175 131.2874 -14.1084 -68.4517 -133.9680 36.8312 -41.6565 178.1224 -177.4946 123.3822 63.8650 -70.7510 123.8965
State:	-10.839  12.738 -13.199  -0.456  0.532  0.713 -155.075    -88.82  131.29  -14.11  -68.45 -133.97   36.83  -41.66  178.12 -177.49  123.38   63.86  -70.75  123.90

DOCKED: MODEL       65
DOCKED: USER    Run = 65
DOCKED: USER    DPF = D:/Protein_go_brrr/autodock/final/mut_D99N/heme/dock.dpf
DOCKED: USER  
DOCKED: USER    Estimated Free Energy of Binding    =   -5.80 kcal/mol  [=(1)+(2)+(3)-(4)]
DOCKED: USER    Estimated Inhibition Constant, Ki   =   56.12 uM (micromolar)  [Temperature = 298.15 K]
DOCKED: USER    
DOCKED: USER    (1) Final Intermolecular Energy     =   -9.68 kcal/mol
DOCKED: USER        vdW + Hbond + desolv Energy     =   -9.30 kcal/mol
DOCKED: USER        Electrostatic Energy            =   -0.38 kcal/mol
DOCKED: USER    (2) Final Total Internal Energy     =   -2.89 kcal/mol
DOCKED: USER    (3) Torsional Free Energy           =   +3.88 kcal/mol
DOCKED: USER    (4) Unbound System's Energy  [=(2)] =   -2.89 kcal/mol
DOCKED: USER    
DOCKED: USER    
DOCKED: USER    NEWDPF move heme_opt.pdbqt
DOCKED: USER    NEWDPF about 0.153000 0.018000 -0.028000
DOCKED: USER    NEWDPF tran0 -10.839170 12.738183 -13.198826
DOCKED: USER    NEWDPF quaternion0 -0.445703 0.519094 0.696649 -0.215802
DOCKED: USER    NEWDPF axisangle0 -0.456458 0.531620 0.713460 -155.074792
DOCKED: USER    NEWDPF quat0 -0.456458 0.531620 0.713460 -155.074792
DOCKED: USER    NEWDPF dihe0 -88.82 131.29 -14.11 -68.45 -133.97 36.83 -41.66 178.12 -177.49 123.38 63.86 -70.75 123.90 
DOCKED: USER  keepresnum = 1 
DOCKED: USER  
DOCKED: REMARK  13 active torsions:
DOCKED: REMARK  status: ('A' for Active; 'I' for Inactive)
DOCKED: REMARK    1  A    between atoms: O_3  and  C_38 
DOCKED: REMARK    2  A    between atoms: O_4  and  C_40 
DOCKED: REMARK    3  A    between atoms: O_7  and  C_46 
DOCKED: REMARK    4  A    between atoms: O_9  and  C_48 
DOCKED: REMARK    5  A    between atoms: C_15  and  C_20 
DOCKED: REMARK    6  A    between atoms: C_16  and  C_23 
DOCKED: REMARK    7  A    between atoms: C_20  and  C_38 
DOCKED: REMARK    8  A    between atoms: C_23  and  C_40 
DOCKED: REMARK    9  A    between atoms: C_32  and  C_41 
DOCKED: REMARK   10  A    between atoms: C_37  and  C_45 
DOCKED: REMARK   11  A    between atoms: C_41  and  C_44 
DOCKED: REMARK   12  A    between atoms: C_44  and  C_46 
DOCKED: REMARK   13  A    between atoms: C_47  and  C_48 
DOCKED: USER                              x       y       z     vdW  Elec       q    Type
DOCKED: USER                           _______ _______ _______ _____ _____    ______ ____
DOCKED: ROOT
DOCKED: ATOM      1  O   UNL d   1      -9.527  13.619  -7.519 -0.19 +0.00    -0.289 OA
DOCKED: ATOM      2  O   UNL d   1      -5.159  13.506 -13.627 -0.07 +0.02    -0.289 OA
DOCKED: ATOM      3  N   UNL d   1     -10.740  12.919 -10.671 -0.19 +0.06    -0.247 NA
DOCKED: ATOM      4  N   UNL d   1      -8.394  13.401 -12.429 -0.17 +0.06    -0.247 NA
DOCKED: ATOM      5  N   UNL d   1     -10.183  13.338 -14.679 -0.06 +0.18    -0.354 N 
DOCKED: ATOM      6  N   UNL d   1     -12.614  12.857 -12.846 +0.07 +0.21    -0.354 N 
DOCKED: ATOM      7  C   UNL d   1     -11.752  13.258  -8.464 -0.20 -0.01    +0.084 A 
DOCKED: ATOM      8  C   UNL d   1      -6.178  13.150 -11.430 -0.17 -0.00    +0.084 A 
DOCKED: ATOM      9  C   UNL d   1      -7.700  13.179 -11.260 -0.26 -0.01    +0.058 A 
DOCKED: ATOM     10  C   UNL d   1     -11.926  12.965  -9.957 -0.25 -0.01    +0.058 A 
DOCKED: ATOM     11  C   UNL d   1     -10.256  13.350  -8.456 -0.07 -0.01    +0.193 A 
DOCKED: ATOM     12  C   UNL d   1      -9.760  13.100  -9.847 -0.12 -0.01    +0.109 A 
DOCKED: ATOM     13  C   UNL d   1      -6.134  13.435 -12.905 -0.08 -0.02    +0.193 A 
DOCKED: ATOM     14  C   UNL d   1     -12.334  14.619  -8.074 -0.13 -0.00    +0.026 C 
DOCKED: ATOM     15  C   UNL d   1      -8.300  13.050 -10.067 -0.31 -0.00    +0.055 C 
DOCKED: ATOM     16  C   UNL d   1      -5.604  11.752 -11.181 -0.32 -0.00    +0.026 C 
DOCKED: ATOM     17  C   UNL d   1      -7.541  13.573 -13.388 -0.13 -0.02    +0.109 A 
DOCKED: ATOM     18  C   UNL d   1     -13.135  12.691 -10.484 -0.27 -0.02    +0.050 C 
DOCKED: ATOM     19  C   UNL d   1     -13.381  12.327 -11.832 -0.22 -0.02    +0.045 A 
DOCKED: ATOM     20  C   UNL d   1      -9.044  13.785 -15.296 -0.17 -0.01    +0.045 A 
DOCKED: ATOM     21  C   UNL d   1      -7.809  13.899 -14.796 -0.13 -0.01    +0.057 C 
DOCKED: ATOM     22  C   UNL d   1     -10.774  13.872 -16.786 -0.15 +0.01    -0.019 A 
DOCKED: ATOM     23  C   UNL d   1     -11.280  13.354 -15.498 -0.21 -0.03    +0.045 A 
DOCKED: ATOM     24  C   UNL d   1      -9.449  14.123 -16.660 -0.13 +0.01    -0.022 A 
DOCKED: ATOM     25  C   UNL d   1     -13.081  12.443 -14.072 -0.14 -0.04    +0.049 A 
DOCKED: ATOM     26  C   UNL d   1     -14.347  11.520 -12.412 -0.26 +0.01    -0.018 A 
DOCKED: ATOM     27  C   UNL d   1     -14.141  11.581 -13.825 -0.26 -0.00    +0.003 A 
DOCKED: ATOM     28  C   UNL d   1     -12.550  12.982 -15.274 -0.20 -0.04    +0.052 C 
DOCKED: ATOM     29  C   UNL d   1      -8.498  14.643 -17.683 -0.06 -0.01    +0.046 C 
DOCKED: ATOM     30  C   UNL d   1     -15.397  10.736 -11.700 -0.24 -0.03    +0.046 C 
DOCKED: ATOM     31  H   UNL d   1     -10.158  12.965 -13.736 -0.52 -0.15    +0.166 HD
DOCKED: ATOM     32  H   UNL d   1     -11.843  13.495 -12.690 -0.16 -0.09    +0.166 HD
DOCKED: ENDROOT
DOCKED: BRANCH   7  33
DOCKED: ATOM     33  C   UNL d   1     -12.227  12.150  -7.518 -0.26 -0.02    +0.141 C 
DOCKED: BRANCH  33  34
DOCKED: ATOM     34  C   UNL d   1     -13.135  12.665  -6.434 -0.18 -0.03    +0.306 C 
DOCKED: ATOM     35  O   UNL d   1     -12.787  13.229  -5.411 -0.40 -0.00    -0.251 OA
DOCKED: BRANCH  34  36
DOCKED: ATOM     36  O   UNL d   1     -14.435  12.443  -6.698 -0.59 +0.07    -0.481 OA
DOCKED: ATOM     37  H   UNL d   1     -14.615  11.555  -6.323 -0.21 -0.12    +0.295 HD
DOCKED: ENDBRANCH  34  36
DOCKED: ENDBRANCH  33  34
DOCKED: ENDBRANCH   7  33
DOCKED: BRANCH  27  38
DOCKED: ATOM     38  C   UNL d   1     -14.934  10.901 -14.805 -0.22 -0.02    +0.017 C 
DOCKED: ATOM     39  C   UNL d   1     -15.222  11.371 -16.028 -0.10 -0.09    +0.092 C 
DOCKED: BRANCH  39  40
DOCKED: ATOM     40  C   UNL d   1     -16.033  10.566 -16.946 -0.05 -0.25    +0.330 C 
DOCKED: ATOM     41  O   UNL d   1     -16.955   9.823 -16.668 -0.03 +0.12    -0.246 OA
DOCKED: BRANCH  40  42
DOCKED: ATOM     42  O   UNL d   1     -15.625  10.757 -18.210 -0.04 +0.37    -0.477 OA
DOCKED: ATOM     43  H   UNL d   1     -15.577  11.731 -18.297 +0.02 -0.19    +0.295 HD
DOCKED: ENDBRANCH  40  42
DOCKED: ENDBRANCH  39  40
DOCKED: ENDBRANCH  27  38
DOCKED: BRANCH   8  44
DOCKED: ATOM     44  C   UNL d   1      -5.406  14.215 -10.643 -0.10 -0.00    +0.141 C 
DOCKED: BRANCH  44  45
DOCKED: ATOM     45  C   UNL d   1      -5.341  13.930  -9.166 -0.15 -0.00    +0.306 C 
DOCKED: ATOM     46  O   UNL d   1      -6.174  14.234  -8.330 -0.22 -0.00    -0.251 OA
DOCKED: BRANCH  45  47
DOCKED: ATOM     47  O   UNL d   1      -4.207  13.297  -8.813 -0.17 +0.04    -0.481 OA
DOCKED: ATOM     48  H   UNL d   1      -4.166  13.388  -7.837 -0.23 -0.07    +0.295 HD
DOCKED: ENDBRANCH  45  47
DOCKED: ENDBRANCH  44  45
DOCKED: ENDBRANCH   8  44
DOCKED: BRANCH  22  49
DOCKED: ATOM     49  C   UNL d   1     -11.626  14.084 -18.002 -0.08 -0.02    +0.048 C 
DOCKED: BRANCH  49  50
DOCKED: ATOM     50  C   UNL d   1     -12.992  14.669 -17.644 -0.03 -0.05    +0.125 C 
DOCKED: BRANCH  50  51
DOCKED: ATOM     51  C   UNL d   1     -14.093  13.701 -17.974 -0.03 -0.16    +0.305 C 
DOCKED: ATOM     52  O   UNL d   1     -15.275  13.797 -17.692 -0.01 +0.09    -0.251 OA
DOCKED: BRANCH  51  53
DOCKED: ATOM     53  O   UNL d   1     -13.636  12.628 -18.649 -0.03 +0.44    -0.481 OA
DOCKED: ATOM     54  H   UNL d   1     -13.732  11.888 -18.013 -0.42 -0.52    +0.295 HD
DOCKED: ENDBRANCH  51  53
DOCKED: ENDBRANCH  50  51
DOCKED: ENDBRANCH  49  50
DOCKED: ENDBRANCH  22  49
DOCKED: TORSDOF 13
DOCKED: TER
DOCKED: ENDMDL
________________________________________________________________________________


	BEGINNING GENETIC ALGORITHM DOCKING 66 of 100
Run: 66 Seed: 254862799 1369534264 [ Run 66 of 100 GA/GALS ]
Beginning LAMARCKIAN GENETIC ALGORITHM (LGA), with a maximum of 25000000 energy evaluations.

Final-Value: -11.663


	FINAL GENETIC ALGORITHM DOCKED STATE
	_______________________________________________


Detailed state:  trans 5.826 14.679 10.123 quatxyzw 0.835391 -0.047091 -0.302766 -0.456330 center 0.153 0.018 -0.028 ntor 13 171.0606 -149.4902 101.6716 -45.5483 -144.9302 74.6294 -46.4627 -107.4235 22.9692 -128.0406 -87.9528 -107.8475 0.8226
State:	  5.826  14.679  10.123   0.939 -0.053 -0.340 -125.699    171.06 -149.49  101.67  -45.55 -144.93   74.63  -46.46 -107.42   22.97 -128.04  -87.95 -107.85    0.82

DOCKED: MODEL       66
DOCKED: USER    Run = 66
DOCKED: USER    DPF = D:/Protein_go_brrr/autodock/final/mut_D99N/heme/dock.dpf
DOCKED: USER  
DOCKED: USER    Estimated Free Energy of Binding    =   -3.07 kcal/mol  [=(1)+(2)+(3)-(4)]
DOCKED: USER    Estimated Inhibition Constant, Ki   =    5.62 mM (millimolar)  [Temperature = 298.15 K]
DOCKED: USER    
DOCKED: USER    (1) Final Intermolecular Energy     =   -6.95 kcal/mol
DOCKED: USER        vdW + Hbond + desolv Energy     =   -6.90 kcal/mol
DOCKED: USER        Electrostatic Energy            =   -0.05 kcal/mol
DOCKED: USER    (2) Final Total Internal Energy     =   -4.72 kcal/mol
DOCKED: USER    (3) Torsional Free Energy           =   +3.88 kcal/mol
DOCKED: USER    (4) Unbound System's Energy  [=(2)] =   -4.72 kcal/mol
DOCKED: USER    
DOCKED: USER    
DOCKED: USER    NEWDPF move heme_opt.pdbqt
DOCKED: USER    NEWDPF about 0.153000 0.018000 -0.028000
DOCKED: USER    NEWDPF tran0 5.826224 14.679016 10.123499
DOCKED: USER    NEWDPF quaternion0 0.835391 -0.047091 -0.302766 -0.456330
DOCKED: USER    NEWDPF axisangle0 0.938842 -0.052922 -0.340258 -125.698892
DOCKED: USER    NEWDPF quat0 0.938842 -0.052922 -0.340258 -125.698892
DOCKED: USER    NEWDPF dihe0 171.06 -149.49 101.67 -45.55 -144.93 74.63 -46.46 -107.42 22.97 -128.04 -87.95 -107.85 0.82 
DOCKED: USER  keepresnum = 1 
DOCKED: USER  
DOCKED: REMARK  13 active torsions:
DOCKED: REMARK  status: ('A' for Active; 'I' for Inactive)
DOCKED: REMARK    1  A    between atoms: O_3  and  C_38 
DOCKED: REMARK    2  A    between atoms: O_4  and  C_40 
DOCKED: REMARK    3  A    between atoms: O_7  and  C_46 
DOCKED: REMARK    4  A    between atoms: O_9  and  C_48 
DOCKED: REMARK    5  A    between atoms: C_15  and  C_20 
DOCKED: REMARK    6  A    between atoms: C_16  and  C_23 
DOCKED: REMARK    7  A    between atoms: C_20  and  C_38 
DOCKED: REMARK    8  A    between atoms: C_23  and  C_40 
DOCKED: REMARK    9  A    between atoms: C_32  and  C_41 
DOCKED: REMARK   10  A    between atoms: C_37  and  C_45 
DOCKED: REMARK   11  A    between atoms: C_41  and  C_44 
DOCKED: REMARK   12  A    between atoms: C_44  and  C_46 
DOCKED: REMARK   13  A    between atoms: C_47  and  C_48 
DOCKED: USER                              x       y       z     vdW  Elec       q    Type
DOCKED: USER                           _______ _______ _______ _____ _____    ______ ____
DOCKED: ROOT
DOCKED: ATOM      1  O   UNL d   1       1.247  15.217  13.797 -0.13 +0.06    -0.289 OA
DOCKED: ATOM      2  O   UNL d   1       3.577  19.587   8.152 -0.03 -0.00    -0.289 OA
DOCKED: ATOM      3  N   UNL d   1       4.106  14.560  11.984 -0.11 +0.03    -0.247 NA
DOCKED: ATOM      4  N   UNL d   1       4.035  16.607   9.831 -0.00 +0.00    -0.247 NA
DOCKED: ATOM      5  N   UNL d   1       6.087  15.119   8.475 -0.13 +0.05    -0.354 N 
DOCKED: ATOM      6  N   UNL d   1       6.140  12.989  10.703 -0.08 +0.09    -0.354 N 
DOCKED: ATOM      7  C   UNL d   1       2.857  13.379  13.731 -0.32 -0.01    +0.084 A 
DOCKED: ATOM      8  C   UNL d   1       2.827  18.679  10.298 -0.07 +0.00    +0.084 A 
DOCKED: ATOM      9  C   UNL d   1       3.231  17.267  10.734 -0.09 -0.00    +0.058 A 
DOCKED: ATOM     10  C   UNL d   1       4.045  13.418  12.765 -0.28 -0.01    +0.058 A 
DOCKED: ATOM     11  C   UNL d   1       2.268  14.710  13.370 -0.15 -0.03    +0.193 A 
DOCKED: ATOM     12  C   UNL d   1       3.130  15.339  12.320 -0.13 -0.01    +0.109 A 
DOCKED: ATOM     13  C   UNL d   1       3.520  18.685   8.965 -0.06 +0.00    +0.193 A 
DOCKED: ATOM     14  C   UNL d   1       1.856  12.280  13.367 -0.65 -0.00    +0.026 C 
DOCKED: ATOM     15  C   UNL d   1       2.795  16.706  11.872 -0.11 -0.00    +0.055 C 
DOCKED: ATOM     16  C   UNL d   1       3.463  19.751  11.189 -0.02 -0.00    +0.026 C 
DOCKED: ATOM     17  C   UNL d   1       4.209  17.370   8.799 -0.00 +0.00    +0.109 A 
DOCKED: ATOM     18  C   UNL d   1       4.982  12.452  12.764 -0.33 -0.00    +0.050 C 
DOCKED: ATOM     19  C   UNL d   1       6.156  12.446  11.968 -0.19 -0.00    +0.045 A 
DOCKED: ATOM     20  C   UNL d   1       5.757  16.014   7.491 -0.22 -0.00    +0.045 A 
DOCKED: ATOM     21  C   UNL d   1       4.940  17.070   7.559 -0.19 -0.00    +0.057 C 
DOCKED: ATOM     22  C   UNL d   1       7.213  14.478   6.632 -0.12 +0.00    -0.019 A 
DOCKED: ATOM     23  C   UNL d   1       6.961  14.154   8.051 -0.27 -0.01    +0.045 A 
DOCKED: ATOM     24  C   UNL d   1       6.498  15.581   6.307 -0.23 +0.00    -0.022 A 
DOCKED: ATOM     25  C   UNL d   1       7.351  12.795  10.079 -0.23 -0.01    +0.049 A 
DOCKED: ATOM     26  C   UNL d   1       7.419  11.918  12.185 -0.15 +0.00    -0.018 A 
DOCKED: ATOM     27  C   UNL d   1       8.176  12.159  10.996 -0.17 -0.00    +0.003 A 
DOCKED: ATOM     28  C   UNL d   1       7.527  13.130   8.709 -0.30 -0.01    +0.052 C 
DOCKED: ATOM     29  C   UNL d   1       6.431  16.298   5.002 -0.23 -0.00    +0.046 C 
DOCKED: ATOM     30  C   UNL d   1       7.898  11.234  13.420 -0.12 +0.00    +0.046 C 
DOCKED: ATOM     31  H   UNL d   1       5.761  15.240   9.428 +0.05 -0.02    +0.166 HD
DOCKED: ATOM     32  H   UNL d   1       5.326  13.430  10.292 -0.35 -0.07    +0.166 HD
DOCKED: ENDROOT
DOCKED: BRANCH   7  33
DOCKED: ATOM     33  C   UNL d   1       3.221  13.338  15.219 -0.15 -0.02    +0.141 C 
DOCKED: BRANCH  33  34
DOCKED: ATOM     34  C   UNL d   1       3.795  14.639  15.711 -0.14 -0.05    +0.306 C 
DOCKED: ATOM     35  O   UNL d   1       4.975  14.945  15.728 -0.08 +0.02    -0.251 OA
DOCKED: BRANCH  34  36
DOCKED: ATOM     36  O   UNL d   1       2.851  15.487  16.154 -0.05 +0.13    -0.481 OA
DOCKED: ATOM     37  H   UNL d   1       2.004  15.089  15.860 -0.39 -0.15    +0.295 HD
DOCKED: ENDBRANCH  34  36
DOCKED: ENDBRANCH  33  34
DOCKED: ENDBRANCH   7  33
DOCKED: BRANCH  27  38
DOCKED: ATOM     38  C   UNL d   1       9.535  11.760  10.788 -0.10 -0.00    +0.017 C 
DOCKED: ATOM     39  C   UNL d   1       9.937  10.782   9.962 -0.10 +0.00    +0.092 C 
DOCKED: BRANCH  39  40
DOCKED: ATOM     40  C   UNL d   1      11.365  10.483   9.826 -0.01 +0.01    +0.330 C 
DOCKED: ATOM     41  O   UNL d   1      12.090   9.933  10.633 -0.01 -0.01    -0.246 OA
DOCKED: BRANCH  40  42
DOCKED: ATOM     42  O   UNL d   1      11.813  10.901   8.632 +0.00 -0.02    -0.477 OA
DOCKED: ATOM     43  H   UNL d   1      11.248  11.674   8.427 +0.03 +0.01    +0.295 HD
DOCKED: ENDBRANCH  40  42
DOCKED: ENDBRANCH  39  40
DOCKED: ENDBRANCH  27  38
DOCKED: BRANCH   8  44
DOCKED: ATOM     44  C   UNL d   1       1.322  18.916  10.136 -0.08 +0.00    +0.141 C 
DOCKED: BRANCH  44  45
DOCKED: ATOM     45  C   UNL d   1       0.987  20.302   9.654 -0.02 +0.00    +0.306 C 
DOCKED: ATOM     46  O   UNL d   1       0.763  21.278  10.349 -0.01 +0.00    -0.251 OA
DOCKED: BRANCH  45  47
DOCKED: ATOM     47  O   UNL d   1       0.923  20.380   8.313 +0.00 -0.01    -0.481 OA
DOCKED: ATOM     48  H   UNL d   1       1.859  20.429   8.022 +0.04 +0.01    +0.295 HD
DOCKED: ENDBRANCH  45  47
DOCKED: ENDBRANCH  44  45
DOCKED: ENDBRANCH   8  44
DOCKED: BRANCH  22  49
DOCKED: ATOM     49  C   UNL d   1       8.109  13.680   5.731 -0.23 -0.01    +0.048 C 
DOCKED: BRANCH  49  50
DOCKED: ATOM     50  C   UNL d   1       9.578  14.064   5.904 -0.09 -0.00    +0.125 C 
DOCKED: BRANCH  50  51
DOCKED: ATOM     51  C   UNL d   1      10.250  13.179   6.915 -0.05 -0.00    +0.305 C 
DOCKED: ATOM     52  O   UNL d   1      10.691  13.497   8.005 -0.02 +0.00    -0.251 OA
DOCKED: BRANCH  51  53
DOCKED: ATOM     53  O   UNL d   1      10.345  11.905   6.485 -0.04 -0.01    -0.481 OA
DOCKED: ATOM     54  H   UNL d   1      11.269  11.652   6.693 +0.03 +0.01    +0.295 HD
DOCKED: ENDBRANCH  51  53
DOCKED: ENDBRANCH  50  51
DOCKED: ENDBRANCH  49  50
DOCKED: ENDBRANCH  22  49
DOCKED: TORSDOF 13
DOCKED: TER
DOCKED: ENDMDL
________________________________________________________________________________


	BEGINNING GENETIC ALGORITHM DOCKING 67 of 100
Run: 67 Seed: 1342367357 1095045084 [ Run 67 of 100 GA/GALS ]
Beginning LAMARCKIAN GENETIC ALGORITHM (LGA), with a maximum of 25000000 energy evaluations.

Final-Value: -11.931


	FINAL GENETIC ALGORITHM DOCKED STATE
	_______________________________________________


Detailed state:  trans 14.350 -9.575 8.259 quatxyzw -0.070022 0.899621 0.361627 0.234533 center 0.153 0.018 -0.028 ntor 13 119.2754 -87.6279 120.5238 160.6930 -130.5242 61.1413 -48.5016 99.5985 33.2094 -132.6253 35.1840 147.3402 162.3581
State:	 14.350  -9.575   8.259  -0.072  0.925  0.372 152.872    119.28  -87.63  120.52  160.69 -130.52   61.14  -48.50   99.60   33.21 -132.63   35.18  147.34  162.36

DOCKED: MODEL       67
DOCKED: USER    Run = 67
DOCKED: USER    DPF = D:/Protein_go_brrr/autodock/final/mut_D99N/heme/dock.dpf
DOCKED: USER  
DOCKED: USER    Estimated Free Energy of Binding    =   -5.77 kcal/mol  [=(1)+(2)+(3)-(4)]
DOCKED: USER    Estimated Inhibition Constant, Ki   =   58.67 uM (micromolar)  [Temperature = 298.15 K]
DOCKED: USER    
DOCKED: USER    (1) Final Intermolecular Energy     =   -9.65 kcal/mol
DOCKED: USER        vdW + Hbond + desolv Energy     =   -9.17 kcal/mol
DOCKED: USER        Electrostatic Energy            =   -0.48 kcal/mol
DOCKED: USER    (2) Final Total Internal Energy     =   -2.28 kcal/mol
DOCKED: USER    (3) Torsional Free Energy           =   +3.88 kcal/mol
DOCKED: USER    (4) Unbound System's Energy  [=(2)] =   -2.28 kcal/mol
DOCKED: USER    
DOCKED: USER    
DOCKED: USER    NEWDPF move heme_opt.pdbqt
DOCKED: USER    NEWDPF about 0.153000 0.018000 -0.028000
DOCKED: USER    NEWDPF tran0 14.349532 -9.575473 8.259185
DOCKED: USER    NEWDPF quaternion0 -0.070022 0.899621 0.361627 0.234533
DOCKED: USER    NEWDPF axisangle0 -0.072031 0.925433 0.372003 152.871821
DOCKED: USER    NEWDPF quat0 -0.072031 0.925433 0.372003 152.871821
DOCKED: USER    NEWDPF dihe0 119.28 -87.63 120.52 160.69 -130.52 61.14 -48.50 99.60 33.21 -132.63 35.18 147.34 162.36 
DOCKED: USER  keepresnum = 1 
DOCKED: USER  
DOCKED: REMARK  13 active torsions:
DOCKED: REMARK  status: ('A' for Active; 'I' for Inactive)
DOCKED: REMARK    1  A    between atoms: O_3  and  C_38 
DOCKED: REMARK    2  A    between atoms: O_4  and  C_40 
DOCKED: REMARK    3  A    between atoms: O_7  and  C_46 
DOCKED: REMARK    4  A    between atoms: O_9  and  C_48 
DOCKED: REMARK    5  A    between atoms: C_15  and  C_20 
DOCKED: REMARK    6  A    between atoms: C_16  and  C_23 
DOCKED: REMARK    7  A    between atoms: C_20  and  C_38 
DOCKED: REMARK    8  A    between atoms: C_23  and  C_40 
DOCKED: REMARK    9  A    between atoms: C_32  and  C_41 
DOCKED: REMARK   10  A    between atoms: C_37  and  C_45 
DOCKED: REMARK   11  A    between atoms: C_41  and  C_44 
DOCKED: REMARK   12  A    between atoms: C_44  and  C_46 
DOCKED: REMARK   13  A    between atoms: C_47  and  C_48 
DOCKED: USER                              x       y       z     vdW  Elec       q    Type
DOCKED: USER                           _______ _______ _______ _____ _____    ______ ____
DOCKED: ROOT
DOCKED: ATOM      1  O   UNL d   1      19.056  -6.286   6.923 -0.11 -0.04    -0.289 OA
DOCKED: ATOM      2  O   UNL d   1      17.223 -13.297   4.953 -0.08 +0.22    -0.289 OA
DOCKED: ATOM      3  N   UNL d   1      16.217  -7.869   8.076 -0.15 +0.06    -0.247 NA
DOCKED: ATOM      4  N   UNL d   1      16.188 -10.418   6.550 -0.16 +0.08    -0.247 NA
DOCKED: ATOM      5  N   UNL d   1      13.471 -10.796   7.411 -0.05 +0.17    -0.354 N 
DOCKED: ATOM      6  N   UNL d   1      13.503  -8.140   8.976 +0.04 +0.17    -0.354 N 
DOCKED: ATOM      7  C   UNL d   1      17.129  -5.601   8.262 -0.16 -0.01    +0.084 A 
DOCKED: ATOM      8  C   UNL d   1      18.337 -11.271   5.758 -0.18 -0.01    +0.084 A 
DOCKED: ATOM      9  C   UNL d   1      17.535 -10.156   6.437 -0.22 -0.01    +0.058 A 
DOCKED: ATOM     10  C   UNL d   1      16.013  -6.598   8.589 -0.21 -0.02    +0.058 A 
DOCKED: ATOM     11  C   UNL d   1      18.008  -6.538   7.490 -0.11 +0.00    +0.193 A 
DOCKED: ATOM     12  C   UNL d   1      17.359  -7.887   7.470 -0.18 -0.01    +0.109 A 
DOCKED: ATOM     13  C   UNL d   1      17.189 -12.198   5.472 -0.12 -0.09    +0.193 A 
DOCKED: ATOM     14  C   UNL d   1      16.649  -4.488   7.327 -0.03 -0.01    +0.026 C 
DOCKED: ATOM     15  C   UNL d   1      18.093  -9.003   6.839 -0.24 +0.00    +0.055 C 
DOCKED: ATOM     16  C   UNL d   1      19.294 -11.959   6.736 -0.08 +0.00    +0.026 C 
DOCKED: ATOM     17  C   UNL d   1      15.943 -11.561   5.995 -0.21 -0.06    +0.109 A 
DOCKED: ATOM     18  C   UNL d   1      14.981  -6.262   9.385 -0.23 -0.02    +0.050 C 
DOCKED: ATOM     19  C   UNL d   1      13.950  -7.139   9.809 -0.22 -0.02    +0.045 A 
DOCKED: ATOM     20  C   UNL d   1      13.566 -11.800   6.483 -0.25 -0.02    +0.045 A 
DOCKED: ATOM     21  C   UNL d   1      14.644 -12.226   5.817 -0.22 -0.04    +0.057 C 
DOCKED: ATOM     22  C   UNL d   1      11.399 -11.651   7.191 -0.24 +0.01    -0.019 A 
DOCKED: ATOM     23  C   UNL d   1      12.201 -10.631   7.896 -0.08 -0.02    +0.045 A 
DOCKED: ATOM     24  C   UNL d   1      12.213 -12.341   6.358 -0.25 +0.01    -0.022 A 
DOCKED: ATOM     25  C   UNL d   1      12.445  -8.808   9.548 -0.19 -0.02    +0.049 A 
DOCKED: ATOM     26  C   UNL d   1      13.188  -7.181  10.966 -0.14 +0.01    -0.018 A 
DOCKED: ATOM     27  C   UNL d   1      12.252  -8.250  10.804 -0.15 -0.00    +0.003 A 
DOCKED: ATOM     28  C   UNL d   1      11.714  -9.781   8.813 -0.21 -0.02    +0.052 C 
DOCKED: ATOM     29  C   UNL d   1      11.874 -13.472   5.448 -0.31 -0.01    +0.046 C 
DOCKED: ATOM     30  C   UNL d   1      13.320  -6.287  12.152 -0.10 -0.01    +0.046 C 
DOCKED: ATOM     31  H   UNL d   1      14.295 -10.303   7.739 -0.11 -0.08    +0.166 HD
DOCKED: ATOM     32  H   UNL d   1      13.887  -8.317   8.056 -0.39 -0.14    +0.166 HD
DOCKED: ENDROOT
DOCKED: BRANCH   7  33
DOCKED: ATOM     33  C   UNL d   1      17.879  -5.035   9.472 -0.05 -0.01    +0.141 C 
DOCKED: BRANCH  33  34
DOCKED: ATOM     34  C   UNL d   1      18.936  -5.972   9.990 +0.00 +0.00    +0.306 C 
DOCKED: ATOM     35  O   UNL d   1      18.745  -6.975  10.657 -0.00 +0.00    -0.251 OA
DOCKED: BRANCH  34  36
DOCKED: ATOM     36  O   UNL d   1      20.178  -5.598   9.637 +0.01 -0.03    -0.481 OA
DOCKED: ATOM     37  H   UNL d   1      20.184  -5.652   8.658 +0.04 +0.03    +0.295 HD
DOCKED: ENDBRANCH  34  36
DOCKED: ENDBRANCH  33  34
DOCKED: ENDBRANCH   7  33
DOCKED: BRANCH  27  38
DOCKED: ATOM     38  C   UNL d   1      11.261  -8.631  11.764 -0.11 -0.01    +0.017 C 
DOCKED: ATOM     39  C   UNL d   1      11.016  -7.994  12.919 -0.07 -0.05    +0.092 C 
DOCKED: BRANCH  39  40
DOCKED: ATOM     40  C   UNL d   1       9.957  -8.477  13.809 -0.03 -0.23    +0.330 C 
DOCKED: ATOM     41  O   UNL d   1       9.864  -9.574  14.327 -0.02 +0.12    -0.246 OA
DOCKED: BRANCH  40  42
DOCKED: ATOM     42  O   UNL d   1       9.047  -7.512  14.011 -0.01 +0.53    -0.477 OA
DOCKED: ATOM     43  H   UNL d   1       8.376  -7.673  13.317 -0.52 -0.73    +0.295 HD
DOCKED: ENDBRANCH  40  42
DOCKED: ENDBRANCH  39  40
DOCKED: ENDBRANCH  27  38
DOCKED: BRANCH   8  44
DOCKED: ATOM     44  C   UNL d   1      19.056 -10.874   4.465 -0.29 +0.02    +0.141 C 
DOCKED: BRANCH  44  45
DOCKED: ATOM     45  C   UNL d   1      19.871 -11.992   3.871 -0.15 +0.04    +0.306 C 
DOCKED: ATOM     46  O   UNL d   1      21.052 -12.216   4.070 -0.14 -0.09    -0.251 OA
DOCKED: BRANCH  45  47
DOCKED: ATOM     47  O   UNL d   1      19.155 -12.758   3.028 -0.12 +0.04    -0.481 OA
DOCKED: ATOM     48  H   UNL d   1      18.430 -13.123   3.579 +0.07 -0.10    +0.295 HD
DOCKED: ENDBRANCH  45  47
DOCKED: ENDBRANCH  44  45
DOCKED: ENDBRANCH   8  44
DOCKED: BRANCH  22  49
DOCKED: ATOM     49  C   UNL d   1       9.924 -11.845   7.386 -0.27 -0.01    +0.048 C 
DOCKED: BRANCH  49  50
DOCKED: ATOM     50  C   UNL d   1       9.107 -10.807   6.617 -0.39 -0.04    +0.125 C 
DOCKED: BRANCH  50  51
DOCKED: ATOM     51  C   UNL d   1       7.882 -10.409   7.390 -0.35 -0.09    +0.305 C 
DOCKED: ATOM     52  O   UNL d   1       7.760  -9.469   8.156 -0.63 +0.12    -0.251 OA
DOCKED: BRANCH  51  53
DOCKED: ATOM     53  O   UNL d   1       6.849 -11.244   7.162 -0.43 +0.04    -0.481 OA
DOCKED: ATOM     54  H   UNL d   1       7.082 -11.686   6.319 -0.39 -0.11    +0.295 HD
DOCKED: ENDBRANCH  51  53
DOCKED: ENDBRANCH  50  51
DOCKED: ENDBRANCH  49  50
DOCKED: ENDBRANCH  22  49
DOCKED: TORSDOF 13
DOCKED: TER
DOCKED: ENDMDL
________________________________________________________________________________


	BEGINNING GENETIC ALGORITHM DOCKING 68 of 100
Run: 68 Seed: 1155035547 1777675899 [ Run 68 of 100 GA/GALS ]
Beginning LAMARCKIAN GENETIC ALGORITHM (LGA), with a maximum of 25000000 energy evaluations.

Final-Value: -11.511


	FINAL GENETIC ALGORITHM DOCKED STATE
	_______________________________________________


Detailed state:  trans -3.418 15.755 15.457 quatxyzw 0.089377 0.699160 -0.534124 -0.466796 center 0.153 0.018 -0.028 ntor 13 160.6040 167.6890 179.2325 -33.5132 -142.7123 32.4307 153.4685 -92.7557 18.0556 3.2780 -94.1367 -32.9011 -17.0921
State:	 -3.418  15.755  15.457   0.101  0.791 -0.604 -124.347    160.60  167.69  179.23  -33.51 -142.71   32.43  153.47  -92.76   18.06    3.28  -94.14  -32.90  -17.09

DOCKED: MODEL       68
DOCKED: USER    Run = 68
DOCKED: USER    DPF = D:/Protein_go_brrr/autodock/final/mut_D99N/heme/dock.dpf
DOCKED: USER  
DOCKED: USER    Estimated Free Energy of Binding    =   -3.01 kcal/mol  [=(1)+(2)+(3)-(4)]
DOCKED: USER    Estimated Inhibition Constant, Ki   =    6.23 mM (millimolar)  [Temperature = 298.15 K]
DOCKED: USER    
DOCKED: USER    (1) Final Intermolecular Energy     =   -6.89 kcal/mol
DOCKED: USER        vdW + Hbond + desolv Energy     =   -6.82 kcal/mol
DOCKED: USER        Electrostatic Energy            =   -0.07 kcal/mol
DOCKED: USER    (2) Final Total Internal Energy     =   -4.62 kcal/mol
DOCKED: USER    (3) Torsional Free Energy           =   +3.88 kcal/mol
DOCKED: USER    (4) Unbound System's Energy  [=(2)] =   -4.62 kcal/mol
DOCKED: USER    
DOCKED: USER    
DOCKED: USER    NEWDPF move heme_opt.pdbqt
DOCKED: USER    NEWDPF about 0.153000 0.018000 -0.028000
DOCKED: USER    NEWDPF tran0 -3.418175 15.754823 15.456579
DOCKED: USER    NEWDPF quaternion0 0.089377 0.699160 -0.534124 -0.466796
DOCKED: USER    NEWDPF axisangle0 0.101063 0.790578 -0.603964 -124.347000
DOCKED: USER    NEWDPF quat0 0.101063 0.790578 -0.603964 -124.347000
DOCKED: USER    NEWDPF dihe0 160.60 167.69 179.23 -33.51 -142.71 32.43 153.47 -92.76 18.06 3.28 -94.14 -32.90 -17.09 
DOCKED: USER  keepresnum = 1 
DOCKED: USER  
DOCKED: REMARK  13 active torsions:
DOCKED: REMARK  status: ('A' for Active; 'I' for Inactive)
DOCKED: REMARK    1  A    between atoms: O_3  and  C_38 
DOCKED: REMARK    2  A    between atoms: O_4  and  C_40 
DOCKED: REMARK    3  A    between atoms: O_7  and  C_46 
DOCKED: REMARK    4  A    between atoms: O_9  and  C_48 
DOCKED: REMARK    5  A    between atoms: C_15  and  C_20 
DOCKED: REMARK    6  A    between atoms: C_16  and  C_23 
DOCKED: REMARK    7  A    between atoms: C_20  and  C_38 
DOCKED: REMARK    8  A    between atoms: C_23  and  C_40 
DOCKED: REMARK    9  A    between atoms: C_32  and  C_41 
DOCKED: REMARK   10  A    between atoms: C_37  and  C_45 
DOCKED: REMARK   11  A    between atoms: C_41  and  C_44 
DOCKED: REMARK   12  A    between atoms: C_44  and  C_46 
DOCKED: REMARK   13  A    between atoms: C_47  and  C_48 
DOCKED: USER                              x       y       z     vdW  Elec       q    Type
DOCKED: USER                           _______ _______ _______ _____ _____    ______ ____
DOCKED: ROOT
DOCKED: ATOM      1  O   UNL d   1       1.072  18.012  18.538 -0.02 +0.03    -0.289 OA
DOCKED: ATOM      2  O   UNL d   1      -5.864  16.055  20.650 -0.01 +0.05    -0.289 OA
DOCKED: ATOM      3  N   UNL d   1      -1.295  16.841  16.320 -0.09 +0.03    -0.247 NA
DOCKED: ATOM      4  N   UNL d   1      -3.556  16.062  18.083 +0.11 +0.02    -0.247 NA
DOCKED: ATOM      5  N   UNL d   1      -4.699  14.665  15.845 -0.11 +0.07    -0.354 N 
DOCKED: ATOM      6  N   UNL d   1      -2.339  15.461  14.028 -0.12 +0.08    -0.354 N 
DOCKED: ATOM      7  C   UNL d   1       1.084  17.409  16.169 -0.07 -0.01    +0.084 A 
DOCKED: ATOM      8  C   UNL d   1      -3.746  17.210  20.232 -0.03 -0.01    +0.084 A 
DOCKED: ATOM      9  C   UNL d   1      -2.958  16.956  18.942 -0.07 -0.01    +0.058 A 
DOCKED: ATOM     10  C   UNL d   1      -0.190  16.903  15.488 -0.11 -0.01    +0.058 A 
DOCKED: ATOM     11  C   UNL d   1       0.500  17.640  17.530 -0.06 -0.03    +0.193 A 
DOCKED: ATOM     12  C   UNL d   1      -0.954  17.283  17.487 -0.09 -0.01    +0.109 A 
DOCKED: ATOM     13  C   UNL d   1      -4.883  16.265  19.963 -0.03 -0.03    +0.193 A 
DOCKED: ATOM     14  C   UNL d   1       2.155  16.319  16.269 -0.10 -0.01    +0.026 C 
DOCKED: ATOM     15  C   UNL d   1      -1.765  17.519  18.698 -0.08 -0.01    +0.055 C 
DOCKED: ATOM     16  C   UNL d   1      -4.296  18.638  20.290 -0.01 -0.00    +0.026 C 
DOCKED: ATOM     17  C   UNL d   1      -4.645  15.627  18.633 -0.05 -0.02    +0.109 A 
DOCKED: ATOM     18  C   UNL d   1      -0.223  16.635  14.169 -0.13 -0.01    +0.050 C 
DOCKED: ATOM     19  C   UNL d   1      -1.374  16.244  13.437 -0.15 -0.01    +0.045 A 
DOCKED: ATOM     20  C   UNL d   1      -5.522  14.219  16.846 -0.24 -0.01    +0.045 A 
DOCKED: ATOM     21  C   UNL d   1      -5.581  14.615  18.121 -0.19 -0.02    +0.057 C 
DOCKED: ATOM     22  C   UNL d   1      -6.003  13.073  14.929 -0.36 +0.00    -0.019 A 
DOCKED: ATOM     23  C   UNL d   1      -4.915  14.031  14.650 -0.30 -0.01    +0.045 A 
DOCKED: ATOM     24  C   UNL d   1      -6.359  13.190  16.230 -0.33 +0.01    -0.022 A 
DOCKED: ATOM     25  C   UNL d   1      -3.315  15.127  13.117 -0.13 -0.02    +0.049 A 
DOCKED: ATOM     26  C   UNL d   1      -1.749  16.455  12.120 -0.17 +0.00    -0.018 A 
DOCKED: ATOM     27  C   UNL d   1      -2.986  15.764  11.929 -0.19 -0.00    +0.003 A 
DOCKED: ATOM     28  C   UNL d   1      -4.336  14.196  13.451 -0.14 -0.02    +0.052 C 
DOCKED: ATOM     29  C   UNL d   1      -7.414  12.448  16.979 -0.28 -0.02    +0.046 C 
DOCKED: ATOM     30  C   UNL d   1      -1.009  17.252  11.099 -0.17 -0.00    +0.046 C 
DOCKED: ATOM     31  H   UNL d   1      -4.064  15.442  15.993 +0.04 -0.02    +0.166 HD
DOCKED: ATOM     32  H   UNL d   1      -2.297  15.150  14.992 +0.05 -0.03    +0.166 HD
DOCKED: ENDROOT
DOCKED: BRANCH   7  33
DOCKED: ATOM     33  C   UNL d   1       1.659  18.712  15.603 -0.02 -0.01    +0.141 C 
DOCKED: BRANCH  33  34
DOCKED: ATOM     34  C   UNL d   1       0.751  19.891  15.825 -0.00 -0.02    +0.306 C 
DOCKED: ATOM     35  O   UNL d   1      -0.143  20.261  15.083 -0.00 +0.01    -0.251 OA
DOCKED: BRANCH  34  36
DOCKED: ATOM     36  O   UNL d   1       1.015  20.540  16.972 +0.00 +0.03    -0.481 OA
DOCKED: ATOM     37  H   UNL d   1       1.482  19.880  17.527 +0.01 -0.02    +0.295 HD
DOCKED: ENDBRANCH  34  36
DOCKED: ENDBRANCH  33  34
DOCKED: ENDBRANCH   7  33
DOCKED: BRANCH  27  38
DOCKED: ATOM     38  C   UNL d   1      -3.719  15.708  10.700 -0.32 -0.00    +0.017 C 
DOCKED: ATOM     39  C   UNL d   1      -4.914  15.120  10.537 -0.31 -0.02    +0.092 C 
DOCKED: BRANCH  39  40
DOCKED: ATOM     40  C   UNL d   1      -5.569  15.148   9.227 -0.24 -0.02    +0.330 C 
DOCKED: ATOM     41  O   UNL d   1      -5.040  15.175   8.132 -0.51 -0.01    -0.246 OA
DOCKED: BRANCH  40  42
DOCKED: ATOM     42  O   UNL d   1      -6.902  15.132   9.377 -0.13 +0.07    -0.477 OA
DOCKED: ATOM     43  H   UNL d   1      -7.029  14.902  10.320 +0.15 -0.06    +0.295 HD
DOCKED: ENDBRANCH  40  42
DOCKED: ENDBRANCH  39  40
DOCKED: ENDBRANCH  27  38
DOCKED: BRANCH   8  44
DOCKED: ATOM     44  C   UNL d   1      -3.022  16.841  21.531 -0.03 -0.02    +0.141 C 
DOCKED: BRANCH  44  45
DOCKED: ATOM     45  C   UNL d   1      -2.363  15.488  21.481 -0.05 -0.05    +0.306 C 
DOCKED: ATOM     46  O   UNL d   1      -1.165  15.264  21.439 -0.13 +0.04    -0.251 OA
DOCKED: BRANCH  45  47
DOCKED: ATOM     47  O   UNL d   1      -3.255  14.481  21.457 -0.56 +0.11    -0.481 OA
DOCKED: ATOM     48  H   UNL d   1      -4.129  14.923  21.507 +0.05 -0.08    +0.295 HD
DOCKED: ENDBRANCH  45  47
DOCKED: ENDBRANCH  44  45
DOCKED: ENDBRANCH   8  44
DOCKED: BRANCH  22  49
DOCKED: ATOM     49  C   UNL d   1      -6.578  12.131  13.912 -0.43 -0.01    +0.048 C 
DOCKED: BRANCH  49  50
DOCKED: ATOM     50  C   UNL d   1      -7.902  12.645  13.345 -0.33 -0.03    +0.125 C 
DOCKED: BRANCH  50  51
DOCKED: ATOM     51  C   UNL d   1      -7.666  13.562  12.179 -0.19 -0.07    +0.305 C 
DOCKED: ATOM     52  O   UNL d   1      -7.663  14.781  12.181 -0.09 +0.06    -0.251 OA
DOCKED: BRANCH  51  53
DOCKED: ATOM     53  O   UNL d   1      -7.452  12.880  11.036 -0.21 +0.13    -0.481 OA
DOCKED: ATOM     54  H   UNL d   1      -7.853  13.445  10.343 +0.15 -0.09    +0.295 HD
DOCKED: ENDBRANCH  51  53
DOCKED: ENDBRANCH  50  51
DOCKED: ENDBRANCH  49  50
DOCKED: ENDBRANCH  22  49
DOCKED: TORSDOF 13
DOCKED: TER
DOCKED: ENDMDL
________________________________________________________________________________


	BEGINNING GENETIC ALGORITHM DOCKING 69 of 100
Run: 69 Seed: 362275260 329764569 [ Run 69 of 100 GA/GALS ]
Beginning LAMARCKIAN GENETIC ALGORITHM (LGA), with a maximum of 25000000 energy evaluations.

Final-Value: -9.573


	FINAL GENETIC ALGORITHM DOCKED STATE
	_______________________________________________


Detailed state:  trans -9.442 -4.041 12.651 quatxyzw 0.159594 0.584530 -0.594216 0.528925 center 0.153 0.018 -0.028 ntor 13 87.1858 18.3929 66.8477 133.5900 -165.4056 46.8391 -42.1506 58.4478 96.7442 37.8594 57.3333 97.1788 142.8255
State:	 -9.442  -4.041  12.651   0.188  0.689 -0.700 116.134     87.19   18.39   66.85  133.59 -165.41   46.84  -42.15   58.45   96.74   37.86   57.33   97.18  142.83

DOCKED: MODEL       69
DOCKED: USER    Run = 69
DOCKED: USER    DPF = D:/Protein_go_brrr/autodock/final/mut_D99N/heme/dock.dpf
DOCKED: USER  
DOCKED: USER    Estimated Free Energy of Binding    =   -3.88 kcal/mol  [=(1)+(2)+(3)-(4)]
DOCKED: USER    Estimated Inhibition Constant, Ki   =    1.42 mM (millimolar)  [Temperature = 298.15 K]
DOCKED: USER    
DOCKED: USER    (1) Final Intermolecular Energy     =   -7.76 kcal/mol
DOCKED: USER        vdW + Hbond + desolv Energy     =   -7.30 kcal/mol
DOCKED: USER        Electrostatic Energy            =   -0.46 kcal/mol
DOCKED: USER    (2) Final Total Internal Energy     =   -1.81 kcal/mol
DOCKED: USER    (3) Torsional Free Energy           =   +3.88 kcal/mol
DOCKED: USER    (4) Unbound System's Energy  [=(2)] =   -1.81 kcal/mol
DOCKED: USER    
DOCKED: USER    
DOCKED: USER    NEWDPF move heme_opt.pdbqt
DOCKED: USER    NEWDPF about 0.153000 0.018000 -0.028000
DOCKED: USER    NEWDPF tran0 -9.441944 -4.041009 12.650896
DOCKED: USER    NEWDPF quaternion0 0.159594 0.584530 -0.594216 0.528925
DOCKED: USER    NEWDPF axisangle0 0.188052 0.688762 -0.700174 116.134332
DOCKED: USER    NEWDPF quat0 0.188052 0.688762 -0.700174 116.134332
DOCKED: USER    NEWDPF dihe0 87.19 18.39 66.85 133.59 -165.41 46.84 -42.15 58.45 96.74 37.86 57.33 97.18 142.83 
DOCKED: USER  keepresnum = 1 
DOCKED: USER  
DOCKED: REMARK  13 active torsions:
DOCKED: REMARK  status: ('A' for Active; 'I' for Inactive)
DOCKED: REMARK    1  A    between atoms: O_3  and  C_38 
DOCKED: REMARK    2  A    between atoms: O_4  and  C_40 
DOCKED: REMARK    3  A    between atoms: O_7  and  C_46 
DOCKED: REMARK    4  A    between atoms: O_9  and  C_48 
DOCKED: REMARK    5  A    between atoms: C_15  and  C_20 
DOCKED: REMARK    6  A    between atoms: C_16  and  C_23 
DOCKED: REMARK    7  A    between atoms: C_20  and  C_38 
DOCKED: REMARK    8  A    between atoms: C_23  and  C_40 
DOCKED: REMARK    9  A    between atoms: C_32  and  C_41 
DOCKED: REMARK   10  A    between atoms: C_37  and  C_45 
DOCKED: REMARK   11  A    between atoms: C_41  and  C_44 
DOCKED: REMARK   12  A    between atoms: C_44  and  C_46 
DOCKED: REMARK   13  A    between atoms: C_47  and  C_48 
DOCKED: USER                              x       y       z     vdW  Elec       q    Type
DOCKED: USER                           _______ _______ _______ _____ _____    ______ ____
DOCKED: ROOT
DOCKED: ATOM      1  O   UNL d   1      -8.526  -8.545   8.959 -0.11 -0.13    -0.289 OA
DOCKED: ATOM      2  O   UNL d   1      -4.989  -6.554  15.277 -0.06 -0.04    -0.289 OA
DOCKED: ATOM      3  N   UNL d   1      -9.341  -5.707  10.741 +0.12 -0.06    -0.247 NA
DOCKED: ATOM      4  N   UNL d   1      -7.654  -5.922  13.178 +0.02 -0.05    -0.247 NA
DOCKED: ATOM      5  N   UNL d   1      -9.252  -3.841  14.355 -0.08 -0.06    -0.354 N 
DOCKED: ATOM      6  N   UNL d   1     -11.009  -3.638  11.830 -0.02 -0.08    -0.354 N 
DOCKED: ATOM      7  C   UNL d   1     -10.287  -6.858   8.795 -0.13 +0.02    +0.084 A 
DOCKED: ATOM      8  C   UNL d   1      -5.585  -7.208  12.995 -0.20 +0.01    +0.084 A 
DOCKED: ATOM      9  C   UNL d   1      -6.896  -6.732  12.362 -0.19 +0.01    +0.058 A 
DOCKED: ATOM     10  C   UNL d   1     -10.350  -5.698   9.793 -0.16 +0.01    +0.058 A 
DOCKED: ATOM     11  C   UNL d   1      -9.053  -7.514   9.336 -0.15 +0.05    +0.193 A 
DOCKED: ATOM     12  C   UNL d   1      -8.559  -6.708  10.497 -0.19 +0.03    +0.109 A 
DOCKED: ATOM     13  C   UNL d   1      -5.757  -6.550  14.334 -0.10 +0.02    +0.193 A 
DOCKED: ATOM     14  C   UNL d   1     -11.469  -7.818   8.955 -0.06 +0.01    +0.026 C 
DOCKED: ATOM     15  C   UNL d   1      -7.292  -7.114  11.138 -0.26 +0.02    +0.055 C 
DOCKED: ATOM     16  C   UNL d   1      -4.364  -6.598  12.299 -0.44 +0.00    +0.026 C 
DOCKED: ATOM     17  C   UNL d   1      -7.054  -5.808  14.319 -0.17 +0.02    +0.109 A 
DOCKED: ATOM     18  C   UNL d   1     -11.267  -4.719   9.676 -0.15 +0.01    +0.050 C 
DOCKED: ATOM     19  C   UNL d   1     -11.350  -3.567  10.498 -0.13 +0.01    +0.045 A 
DOCKED: ATOM     20  C   UNL d   1      -8.532  -4.236  15.453 -0.22 +0.01    +0.045 A 
DOCKED: ATOM     21  C   UNL d   1      -7.512  -5.097  15.521 -0.22 +0.01    +0.057 C 
DOCKED: ATOM     22  C   UNL d   1     -10.123  -2.735  16.113 -0.22 -0.00    -0.019 A 
DOCKED: ATOM     23  C   UNL d   1     -10.235  -2.936  14.654 -0.23 +0.01    +0.045 A 
DOCKED: ATOM     24  C   UNL d   1      -9.112  -3.506  16.579 -0.19 -0.00    -0.022 A 
DOCKED: ATOM     25  C   UNL d   1     -11.249  -2.436  12.455 -0.17 +0.01    +0.049 A 
DOCKED: ATOM     26  C   UNL d   1     -11.787  -2.276  10.243 -0.14 -0.01    -0.018 A 
DOCKED: ATOM     27  C   UNL d   1     -11.702  -1.562  11.478 -0.19 +0.00    +0.003 A 
DOCKED: ATOM     28  C   UNL d   1     -11.122  -2.310  13.866 -0.22 +0.01    +0.052 C 
DOCKED: ATOM     29  C   UNL d   1      -8.608  -3.637  17.976 -0.07 +0.01    +0.046 C 
DOCKED: ATOM     30  C   UNL d   1     -12.253  -1.737   8.934 -0.15 +0.02    +0.046 C 
DOCKED: ATOM     31  H   UNL d   1      -8.998  -4.149  13.422 +0.11 +0.03    +0.166 HD
DOCKED: ATOM     32  H   UNL d   1     -10.669  -4.481  12.277 +0.04 +0.03    +0.166 HD
DOCKED: ENDROOT
DOCKED: BRANCH   7  33
DOCKED: ATOM     33  C   UNL d   1     -10.085  -6.455   7.331 -0.23 +0.04    +0.141 C 
DOCKED: BRANCH  33  34
DOCKED: ATOM     34  C   UNL d   1      -9.227  -7.432   6.574 -0.19 +0.08    +0.306 C 
DOCKED: ATOM     35  O   UNL d   1      -8.101  -7.227   6.153 -0.31 -0.06    -0.251 OA
DOCKED: BRANCH  34  36
DOCKED: ATOM     36  O   UNL d   1      -9.831  -8.619   6.391 -0.02 -0.11    -0.481 OA
DOCKED: ATOM     37  H   UNL d   1      -9.507  -9.178   7.129 +0.08 +0.08    +0.295 HD
DOCKED: ENDBRANCH  34  36
DOCKED: ENDBRANCH  33  34
DOCKED: ENDBRANCH   7  33
DOCKED: BRANCH  27  38
DOCKED: ATOM     38  C   UNL d   1     -12.074  -0.192  11.666 -0.26 +0.01    +0.017 C 
DOCKED: ATOM     39  C   UNL d   1     -11.733   0.821  10.855 -0.32 +0.03    +0.092 C 
DOCKED: BRANCH  39  40
DOCKED: ATOM     40  C   UNL d   1     -12.195   2.180  11.151 -0.13 +0.14    +0.330 C 
DOCKED: ATOM     41  O   UNL d   1     -12.195   2.748  12.226 -0.27 -0.18    -0.246 OA
DOCKED: BRANCH  40  42
DOCKED: ATOM     42  O   UNL d   1     -12.638   2.772  10.030 -0.07 -0.15    -0.477 OA
DOCKED: ATOM     43  H   UNL d   1     -12.634   3.726  10.251 -0.04 +0.09    +0.295 HD
DOCKED: ENDBRANCH  40  42
DOCKED: ENDBRANCH  39  40
DOCKED: ENDBRANCH  27  38
DOCKED: BRANCH   8  44
DOCKED: ATOM     44  C   UNL d   1      -5.436  -8.726  13.144 -0.15 +0.02    +0.141 C 
DOCKED: BRANCH  44  45
DOCKED: ATOM     45  C   UNL d   1      -6.719  -9.475  12.901 -0.08 +0.12    +0.306 C 
DOCKED: ATOM     46  O   UNL d   1      -7.590  -9.710  13.721 -0.02 -0.06    -0.251 OA
DOCKED: BRANCH  45  47
DOCKED: ATOM     47  O   UNL d   1      -6.826  -9.916  11.634 -0.60 -0.63    -0.481 OA
DOCKED: ATOM     48  H   UNL d   1      -7.579  -9.412  11.259 +0.05 +0.25    +0.295 HD
DOCKED: ENDBRANCH  45  47
DOCKED: ENDBRANCH  44  45
DOCKED: ENDBRANCH   8  44
DOCKED: BRANCH  22  49
DOCKED: ATOM     49  C   UNL d   1     -11.014  -1.828  16.909 -0.18 +0.01    +0.048 C 
DOCKED: BRANCH  49  50
DOCKED: ATOM     50  C   UNL d   1     -12.484  -2.231  16.794 -0.06 +0.03    +0.125 C 
DOCKED: BRANCH  50  51
DOCKED: ATOM     51  C   UNL d   1     -13.310  -1.100  16.251 -0.06 +0.12    +0.305 C 
DOCKED: ATOM     52  O   UNL d   1     -13.110  -0.454  15.238 -0.11 -0.14    -0.251 OA
DOCKED: BRANCH  51  53
DOCKED: ATOM     53  O   UNL d   1     -14.369  -0.825  17.039 -0.01 -0.16    -0.481 OA
DOCKED: ATOM     54  H   UNL d   1     -14.760  -1.704  17.227 +0.01 +0.07    +0.295 HD
DOCKED: ENDBRANCH  51  53
DOCKED: ENDBRANCH  50  51
DOCKED: ENDBRANCH  49  50
DOCKED: ENDBRANCH  22  49
DOCKED: TORSDOF 13
DOCKED: TER
DOCKED: ENDMDL
________________________________________________________________________________


	BEGINNING GENETIC ALGORITHM DOCKING 70 of 100
Run: 70 Seed: 488212219 1495773092 [ Run 70 of 100 GA/GALS ]
Beginning LAMARCKIAN GENETIC ALGORITHM (LGA), with a maximum of 25000000 energy evaluations.

Final-Value: -12.644


	FINAL GENETIC ALGORITHM DOCKED STATE
	_______________________________________________


Detailed state:  trans 14.008 -8.588 8.059 quatxyzw -0.170730 0.360883 -0.915396 -0.051620 center 0.153 0.018 -0.028 ntor 13 -159.9078 83.8100 105.2734 160.3644 -145.5670 -158.7641 -42.9386 86.2678 -177.0792 -127.2387 116.4243 15.8485 179.9033
State:	 14.008  -8.588   8.059  -0.171  0.361 -0.917 -174.082   -159.91   83.81  105.27  160.36 -145.57 -158.76  -42.94   86.27 -177.08 -127.24  116.42   15.85  179.90

DOCKED: MODEL       70
DOCKED: USER    Run = 70
DOCKED: USER    DPF = D:/Protein_go_brrr/autodock/final/mut_D99N/heme/dock.dpf
DOCKED: USER  
DOCKED: USER    Estimated Free Energy of Binding    =   -6.96 kcal/mol  [=(1)+(2)+(3)-(4)]
DOCKED: USER    Estimated Inhibition Constant, Ki   =    7.93 uM (micromolar)  [Temperature = 298.15 K]
DOCKED: USER    
DOCKED: USER    (1) Final Intermolecular Energy     =  -10.84 kcal/mol
DOCKED: USER        vdW + Hbond + desolv Energy     =  -10.21 kcal/mol
DOCKED: USER        Electrostatic Energy            =   -0.63 kcal/mol
DOCKED: USER    (2) Final Total Internal Energy     =   -1.81 kcal/mol
DOCKED: USER    (3) Torsional Free Energy           =   +3.88 kcal/mol
DOCKED: USER    (4) Unbound System's Energy  [=(2)] =   -1.81 kcal/mol
DOCKED: USER    
DOCKED: USER    
DOCKED: USER    NEWDPF move heme_opt.pdbqt
DOCKED: USER    NEWDPF about 0.153000 0.018000 -0.028000
DOCKED: USER    NEWDPF tran0 14.008292 -8.587673 8.058969
DOCKED: USER    NEWDPF quaternion0 -0.170730 0.360883 -0.915396 -0.051620
DOCKED: USER    NEWDPF axisangle0 -0.170958 0.361365 -0.916618 -174.082112
DOCKED: USER    NEWDPF quat0 -0.170958 0.361365 -0.916618 -174.082112
DOCKED: USER    NEWDPF dihe0 -159.91 83.81 105.27 160.36 -145.57 -158.76 -42.94 86.27 -177.08 -127.24 116.42 15.85 179.90 
DOCKED: USER  keepresnum = 1 
DOCKED: USER  
DOCKED: REMARK  13 active torsions:
DOCKED: REMARK  status: ('A' for Active; 'I' for Inactive)
DOCKED: REMARK    1  A    between atoms: O_3  and  C_38 
DOCKED: REMARK    2  A    between atoms: O_4  and  C_40 
DOCKED: REMARK    3  A    between atoms: O_7  and  C_46 
DOCKED: REMARK    4  A    between atoms: O_9  and  C_48 
DOCKED: REMARK    5  A    between atoms: C_15  and  C_20 
DOCKED: REMARK    6  A    between atoms: C_16  and  C_23 
DOCKED: REMARK    7  A    between atoms: C_20  and  C_38 
DOCKED: REMARK    8  A    between atoms: C_23  and  C_40 
DOCKED: REMARK    9  A    between atoms: C_32  and  C_41 
DOCKED: REMARK   10  A    between atoms: C_37  and  C_45 
DOCKED: REMARK   11  A    between atoms: C_41  and  C_44 
DOCKED: REMARK   12  A    between atoms: C_44  and  C_46 
DOCKED: REMARK   13  A    between atoms: C_47  and  C_48 
DOCKED: USER                              x       y       z     vdW  Elec       q    Type
DOCKED: USER                           _______ _______ _______ _____ _____    ______ ____
DOCKED: ROOT
DOCKED: ATOM      1  O   UNL d   1      19.440  -9.023   5.810 -0.71 -0.11    -0.289 OA
DOCKED: ATOM      2  O   UNL d   1      16.083  -3.436   9.539 -0.16 +0.05    -0.289 OA
DOCKED: ATOM      3  N   UNL d   1      16.149  -9.171   6.830 -0.21 +0.07    -0.247 NA
DOCKED: ATOM      4  N   UNL d   1      15.823  -6.699   8.447 -0.16 +0.08    -0.247 NA
DOCKED: ATOM      5  N   UNL d   1      13.353  -7.784   9.439 -0.12 +0.15    -0.354 N 
DOCKED: ATOM      6  N   UNL d   1      13.708 -10.354   7.773 +0.10 +0.18    -0.354 N 
DOCKED: ATOM      7  C   UNL d   1      17.710 -10.749   5.791 -0.24 -0.01    +0.084 A 
DOCKED: ATOM      8  C   UNL d   1      17.299  -4.821   7.928 -0.17 -0.01    +0.084 A 
DOCKED: ATOM      9  C   UNL d   1      16.899  -6.282   7.695 -0.24 -0.01    +0.058 A 
DOCKED: ATOM     10  C   UNL d   1      16.314 -10.459   6.350 -0.26 -0.02    +0.058 A 
DOCKED: ATOM     11  C   UNL d   1      18.300  -9.391   6.023 -0.22 +0.02    +0.193 A 
DOCKED: ATOM     12  C   UNL d   1      17.248  -8.517   6.634 -0.24 -0.01    +0.109 A 
DOCKED: ATOM     13  C   UNL d   1      16.274  -4.498   8.979 -0.11 -0.05    +0.193 A 
DOCKED: ATOM     14  C   UNL d   1      18.469 -11.771   6.642 -0.10 -0.00    +0.026 C 
DOCKED: ATOM     15  C   UNL d   1      17.574  -7.096   6.868 -0.12 +0.00    +0.055 C 
DOCKED: ATOM     16  C   UNL d   1      17.029  -3.955   6.694 -0.32 -0.00    +0.026 C 
DOCKED: ATOM     17  C   UNL d   1      15.448  -5.721   9.208 -0.01 -0.04    +0.109 A 
DOCKED: ATOM     18  C   UNL d   1      15.326 -11.371   6.282 -0.28 -0.03    +0.050 C 
DOCKED: ATOM     19  C   UNL d   1      13.985 -11.164   6.696 -0.22 -0.02    +0.045 A 
DOCKED: ATOM     20  C   UNL d   1      13.486  -6.703  10.271 -0.24 -0.02    +0.045 A 
DOCKED: ATOM     21  C   UNL d   1      14.384  -5.715  10.223 -0.26 -0.02    +0.057 C 
DOCKED: ATOM     22  C   UNL d   1      11.715  -7.963  10.975 -0.17 +0.01    -0.019 A 
DOCKED: ATOM     23  C   UNL d   1      12.311  -8.603   9.785 -0.21 -0.02    +0.045 A 
DOCKED: ATOM     24  C   UNL d   1      12.414  -6.838  11.257 -0.16 +0.01    -0.022 A 
DOCKED: ATOM     25  C   UNL d   1      12.361 -10.366   8.053 -0.02 -0.02    +0.049 A 
DOCKED: ATOM     26  C   UNL d   1      12.785 -11.687   6.241 -0.31 +0.01    -0.018 A 
DOCKED: ATOM     27  C   UNL d   1      11.761 -11.165   7.090 -0.28 -0.00    +0.003 A 
DOCKED: ATOM     28  C   UNL d   1      11.853  -9.730   9.218 -0.21 -0.02    +0.052 C 
DOCKED: ATOM     29  C   UNL d   1      12.192  -5.851  12.352 -0.13 -0.02    +0.046 C 
DOCKED: ATOM     30  C   UNL d   1      12.597 -12.614   5.088 -0.23 -0.03    +0.046 C 
DOCKED: ATOM     31  H   UNL d   1      13.934  -7.889   8.615 -0.26 -0.09    +0.166 HD
DOCKED: ATOM     32  H   UNL d   1      14.418  -9.858   8.299 -0.08 -0.07    +0.166 HD
DOCKED: ENDROOT
DOCKED: BRANCH   7  33
DOCKED: ATOM     33  C   UNL d   1      17.760 -11.110   4.302 -0.33 -0.04    +0.141 C 
DOCKED: BRANCH  33  34
DOCKED: ATOM     34  C   UNL d   1      18.538 -12.370   4.037 -0.16 -0.07    +0.306 C 
DOCKED: ATOM     35  O   UNL d   1      19.729 -12.441   3.787 -0.17 -0.02    -0.251 OA
DOCKED: BRANCH  34  36
DOCKED: ATOM     36  O   UNL d   1      17.774 -13.475   4.105 -0.05 +0.32    -0.481 OA
DOCKED: ATOM     37  H   UNL d   1      16.854 -13.143   4.029 -0.37 -0.51    +0.295 HD
DOCKED: ENDBRANCH  34  36
DOCKED: ENDBRANCH  33  34
DOCKED: ENDBRANCH   7  33
DOCKED: BRANCH  27  38
DOCKED: ATOM     38  C   UNL d   1      10.365 -11.465   6.980 -0.35 -0.00    +0.017 C 
DOCKED: ATOM     39  C   UNL d   1       9.381 -10.556   6.903 -0.44 -0.03    +0.092 C 
DOCKED: BRANCH  39  40
DOCKED: ATOM     40  C   UNL d   1       7.989 -10.996   6.775 -0.28 -0.09    +0.330 C 
DOCKED: ATOM     41  O   UNL d   1       7.038 -10.349   6.380 -1.04 -0.01    -0.246 OA
DOCKED: BRANCH  40  42
DOCKED: ATOM     42  O   UNL d   1       7.873 -12.277   7.159 -0.13 +0.18    -0.477 OA
DOCKED: ATOM     43  H   UNL d   1       7.920 -12.778   6.319 -0.38 -0.22    +0.295 HD
DOCKED: ENDBRANCH  40  42
DOCKED: ENDBRANCH  39  40
DOCKED: ENDBRANCH  27  38
DOCKED: BRANCH   8  44
DOCKED: ATOM     44  C   UNL d   1      18.719  -4.602   8.460 -0.05 -0.00    +0.141 C 
DOCKED: BRANCH  44  45
DOCKED: ATOM     45  C   UNL d   1      19.031  -3.156   8.741 -0.00 +0.00    +0.306 C 
DOCKED: ATOM     46  O   UNL d   1      19.462  -2.338   7.946 -0.01 -0.01    -0.251 OA
DOCKED: BRANCH  45  47
DOCKED: ATOM     47  O   UNL d   1      18.808  -2.821  10.024 +0.01 +0.00    -0.481 OA
DOCKED: ATOM     48  H   UNL d   1      17.832  -2.752  10.097 +0.04 -0.01    +0.295 HD
DOCKED: ENDBRANCH  45  47
DOCKED: ENDBRANCH  44  45
DOCKED: ENDBRANCH   8  44
DOCKED: BRANCH  22  49
DOCKED: ATOM     49  C   UNL d   1      10.539  -8.513  11.728 -0.16 -0.03    +0.048 C 
DOCKED: BRANCH  49  50
DOCKED: ATOM     50  C   UNL d   1      10.974  -9.331  12.944 -0.03 -0.06    +0.125 C 
DOCKED: BRANCH  50  51
DOCKED: ATOM     51  C   UNL d   1      11.774 -10.531  12.525 +0.01 -0.09    +0.305 C 
DOCKED: ATOM     52  O   UNL d   1      12.952 -10.568  12.216 -0.00 +0.05    -0.251 OA
DOCKED: BRANCH  51  53
DOCKED: ATOM     53  O   UNL d   1      11.027 -11.653  12.504 +0.01 +0.13    -0.481 OA
DOCKED: ATOM     54  H   UNL d   1      10.260 -11.439  13.075 +0.02 -0.10    +0.295 HD
DOCKED: ENDBRANCH  51  53
DOCKED: ENDBRANCH  50  51
DOCKED: ENDBRANCH  49  50
DOCKED: ENDBRANCH  22  49
DOCKED: TORSDOF 13
DOCKED: TER
DOCKED: ENDMDL
________________________________________________________________________________


	BEGINNING GENETIC ALGORITHM DOCKING 71 of 100
Run: 71 Seed: 1768477448 1405243741 [ Run 71 of 100 GA/GALS ]
Beginning LAMARCKIAN GENETIC ALGORITHM (LGA), with a maximum of 25000000 energy evaluations.

Final-Value: -11.819


	FINAL GENETIC ALGORITHM DOCKED STATE
	_______________________________________________


Detailed state:  trans -16.755 9.949 2.266 quatxyzw 0.291092 -0.162689 -0.934276 -0.126202 center 0.153 0.018 -0.028 ntor 13 126.1532 78.2417 110.8330 21.5131 47.5198 55.1955 160.3776 34.3678 177.5610 149.6435 116.9175 -108.6504 18.3045
State:	-16.755   9.949   2.266   0.293 -0.164 -0.942 -165.500    126.15   78.24  110.83   21.51   47.52   55.20  160.38   34.37  177.56  149.64  116.92 -108.65   18.30

DOCKED: MODEL       71
DOCKED: USER    Run = 71
DOCKED: USER    DPF = D:/Protein_go_brrr/autodock/final/mut_D99N/heme/dock.dpf
DOCKED: USER  
DOCKED: USER    Estimated Free Energy of Binding    =   -6.86 kcal/mol  [=(1)+(2)+(3)-(4)]
DOCKED: USER    Estimated Inhibition Constant, Ki   =    9.31 uM (micromolar)  [Temperature = 298.15 K]
DOCKED: USER    
DOCKED: USER    (1) Final Intermolecular Energy     =  -10.74 kcal/mol
DOCKED: USER        vdW + Hbond + desolv Energy     =  -10.16 kcal/mol
DOCKED: USER        Electrostatic Energy            =   -0.59 kcal/mol
DOCKED: USER    (2) Final Total Internal Energy     =   -1.08 kcal/mol
DOCKED: USER    (3) Torsional Free Energy           =   +3.88 kcal/mol
DOCKED: USER    (4) Unbound System's Energy  [=(2)] =   -1.08 kcal/mol
DOCKED: USER    
DOCKED: USER    
DOCKED: USER    NEWDPF move heme_opt.pdbqt
DOCKED: USER    NEWDPF about 0.153000 0.018000 -0.028000
DOCKED: USER    NEWDPF tran0 -16.754708 9.949396 2.265570
DOCKED: USER    NEWDPF quaternion0 0.291092 -0.162689 -0.934276 -0.126202
DOCKED: USER    NEWDPF axisangle0 0.293438 -0.164001 -0.941806 -165.499613
DOCKED: USER    NEWDPF quat0 0.293438 -0.164001 -0.941806 -165.499613
DOCKED: USER    NEWDPF dihe0 126.15 78.24 110.83 21.51 47.52 55.20 160.38 34.37 177.56 149.64 116.92 -108.65 18.30 
DOCKED: USER  keepresnum = 1 
DOCKED: USER  
DOCKED: REMARK  13 active torsions:
DOCKED: REMARK  status: ('A' for Active; 'I' for Inactive)
DOCKED: REMARK    1  A    between atoms: O_3  and  C_38 
DOCKED: REMARK    2  A    between atoms: O_4  and  C_40 
DOCKED: REMARK    3  A    between atoms: O_7  and  C_46 
DOCKED: REMARK    4  A    between atoms: O_9  and  C_48 
DOCKED: REMARK    5  A    between atoms: C_15  and  C_20 
DOCKED: REMARK    6  A    between atoms: C_16  and  C_23 
DOCKED: REMARK    7  A    between atoms: C_20  and  C_38 
DOCKED: REMARK    8  A    between atoms: C_23  and  C_40 
DOCKED: REMARK    9  A    between atoms: C_32  and  C_41 
DOCKED: REMARK   10  A    between atoms: C_37  and  C_45 
DOCKED: REMARK   11  A    between atoms: C_41  and  C_44 
DOCKED: REMARK   12  A    between atoms: C_44  and  C_46 
DOCKED: REMARK   13  A    between atoms: C_47  and  C_48 
DOCKED: USER                              x       y       z     vdW  Elec       q    Type
DOCKED: USER                           _______ _______ _______ _____ _____    ______ ____
DOCKED: ROOT
DOCKED: ATOM      1  O   UNL d   1     -12.414  10.408   6.229 -0.31 +0.09    -0.289 OA
DOCKED: ATOM      2  O   UNL d   1     -14.393  14.899   0.545 -0.12 +0.01    -0.289 OA
DOCKED: ATOM      3  N   UNL d   1     -14.983   9.650   4.056 -0.10 +0.03    -0.247 NA
DOCKED: ATOM      4  N   UNL d   1     -15.210  12.097   2.386 -0.14 +0.04    -0.247 NA
DOCKED: ATOM      5  N   UNL d   1     -17.735  11.103   1.436 +0.04 +0.09    -0.354 N 
DOCKED: ATOM      6  N   UNL d   1     -17.501   8.576   3.186 -0.09 +0.02    -0.354 N 
DOCKED: ATOM      7  C   UNL d   1     -14.104   8.646   6.112 -0.16 -0.01    +0.084 A 
DOCKED: ATOM      8  C   UNL d   1     -13.206  13.473   2.142 -0.22 -0.01    +0.084 A 
DOCKED: ATOM      9  C   UNL d   1     -13.907  12.277   2.793 -0.23 -0.01    +0.058 A 
DOCKED: ATOM     10  C   UNL d   1     -15.127   8.621   4.972 -0.11 -0.00    +0.058 A 
DOCKED: ATOM     11  C   UNL d   1     -13.346   9.860   5.668 -0.19 -0.04    +0.193 A 
DOCKED: ATOM     12  C   UNL d   1     -13.959  10.361   4.397 -0.19 -0.02    +0.109 A 
DOCKED: ATOM     13  C   UNL d   1     -14.364  13.961   1.318 -0.15 -0.02    +0.193 A 
DOCKED: ATOM     14  C   UNL d   1     -14.759   8.938   7.465 -0.18 -0.00    +0.026 C 
DOCKED: ATOM     15  C   UNL d   1     -13.316  11.505   3.719 -0.32 -0.01    +0.055 C 
DOCKED: ATOM     16  C   UNL d   1     -12.083  13.029   1.199 -0.21 -0.00    +0.026 C 
DOCKED: ATOM     17  C   UNL d   1     -15.519  13.045   1.561 -0.19 -0.01    +0.109 A 
DOCKED: ATOM     18  C   UNL d   1     -16.018   7.620   4.849 -0.10 -0.00    +0.050 C 
DOCKED: ATOM     19  C   UNL d   1     -16.944   7.469   3.785 -0.11 +0.00    +0.045 A 
DOCKED: ATOM     20  C   UNL d   1     -17.775  12.374   0.924 -0.19 -0.01    +0.045 A 
DOCKED: ATOM     21  C   UNL d   1     -16.814  13.304   0.915 -0.15 -0.01    +0.057 C 
DOCKED: ATOM     22  C   UNL d   1     -19.795  11.370   0.564 -0.16 -0.00    -0.019 A 
DOCKED: ATOM     23  C   UNL d   1     -18.909  10.419   1.267 -0.12 -0.00    +0.045 A 
DOCKED: ATOM     24  C   UNL d   1     -19.117  12.524   0.363 -0.16 +0.00    -0.022 A 
DOCKED: ATOM     25  C   UNL d   1     -18.433   8.200   2.247 -0.21 +0.00    +0.049 A 
DOCKED: ATOM     26  C   UNL d   1     -17.500   6.345   3.194 -0.17 -0.00    -0.018 A 
DOCKED: ATOM     27  C   UNL d   1     -18.425   6.813   2.210 -0.25 +0.00    +0.003 A 
DOCKED: ATOM     28  C   UNL d   1     -19.254   9.168   1.607 -0.20 +0.00    +0.052 C 
DOCKED: ATOM     29  C   UNL d   1     -19.578  13.772  -0.311 -0.11 +0.00    +0.046 C 
DOCKED: ATOM     30  C   UNL d   1     -17.192   4.923   3.519 -0.16 +0.01    +0.046 C 
DOCKED: ATOM     31  H   UNL d   1     -16.879  10.717   1.820 -0.34 -0.06    +0.166 HD
DOCKED: ATOM     32  H   UNL d   1     -17.273   9.528   3.446 +0.03 -0.01    +0.166 HD
DOCKED: ENDROOT
DOCKED: BRANCH   7  33
DOCKED: ATOM     33  C   UNL d   1     -13.175   7.429   6.188 -0.20 -0.02    +0.141 C 
DOCKED: BRANCH  33  34
DOCKED: ATOM     34  C   UNL d   1     -13.029   6.899   7.588 -0.23 -0.01    +0.306 C 
DOCKED: ATOM     35  O   UNL d   1     -13.588   5.919   8.050 -0.19 -0.04    -0.251 OA
DOCKED: BRANCH  34  36
DOCKED: ATOM     36  O   UNL d   1     -12.181   7.631   8.333 -0.51 +0.03    -0.481 OA
DOCKED: ATOM     37  H   UNL d   1     -11.342   7.629   7.826 -0.30 -0.09    +0.295 HD
DOCKED: ENDBRANCH  34  36
DOCKED: ENDBRANCH  33  34
DOCKED: ENDBRANCH   7  33
DOCKED: BRANCH  27  38
DOCKED: ATOM     38  C   UNL d   1     -19.233   5.977   1.374 -0.23 +0.00    +0.017 C 
DOCKED: ATOM     39  C   UNL d   1     -20.560   5.814   1.493 -0.16 +0.03    +0.092 C 
DOCKED: BRANCH  39  40
DOCKED: ATOM     40  C   UNL d   1     -21.275   4.940   0.559 -0.09 +0.16    +0.330 C 
DOCKED: ATOM     41  O   UNL d   1     -21.025   3.782   0.285 -0.12 -0.09    -0.246 OA
DOCKED: BRANCH  40  42
DOCKED: ATOM     42  O   UNL d   1     -22.307   5.599   0.009 -0.09 -0.40    -0.477 OA
DOCKED: ATOM     43  H   UNL d   1     -23.086   5.267   0.501 +0.03 +0.17    +0.295 HD
DOCKED: ENDBRANCH  40  42
DOCKED: ENDBRANCH  39  40
DOCKED: ENDBRANCH  27  38
DOCKED: BRANCH   8  44
DOCKED: ATOM     44  C   UNL d   1     -12.722  14.561   3.107 -0.14 -0.02    +0.141 C 
DOCKED: BRANCH  44  45
DOCKED: ATOM     45  C   UNL d   1     -11.251  14.471   3.414 -0.23 +0.00    +0.306 C 
DOCKED: ATOM     46  O   UNL d   1     -10.400  15.299   3.140 -0.27 -0.08    -0.251 OA
DOCKED: BRANCH  45  47
DOCKED: ATOM     47  O   UNL d   1     -10.923  13.321   4.030 -0.23 +0.08    -0.481 OA
DOCKED: ATOM     48  H   UNL d   1     -11.315  13.399   4.926 -0.17 -0.17    +0.295 HD
DOCKED: ENDBRANCH  45  47
DOCKED: ENDBRANCH  44  45
DOCKED: ENDBRANCH   8  44
DOCKED: BRANCH  22  49
DOCKED: ATOM     49  C   UNL d   1     -21.212  11.069   0.173 -0.10 +0.01    +0.048 C 
DOCKED: BRANCH  49  50
DOCKED: ATOM     50  C   UNL d   1     -21.289   9.956  -0.872 -0.19 +0.07    +0.125 C 
DOCKED: BRANCH  50  51
DOCKED: ATOM     51  C   UNL d   1     -20.593  10.362  -2.140 -0.18 +0.11    +0.305 C 
DOCKED: ATOM     52  O   UNL d   1     -19.663  11.139  -2.262 -0.42 -0.01    -0.251 OA
DOCKED: BRANCH  51  53
DOCKED: ATOM     53  O   UNL d   1     -21.127   9.761  -3.223 -0.53 -0.41    -0.481 OA
DOCKED: ATOM     54  H   UNL d   1     -20.418   9.812  -3.897 -0.34 +0.04    +0.295 HD
DOCKED: ENDBRANCH  51  53
DOCKED: ENDBRANCH  50  51
DOCKED: ENDBRANCH  49  50
DOCKED: ENDBRANCH  22  49
DOCKED: TORSDOF 13
DOCKED: TER
DOCKED: ENDMDL
________________________________________________________________________________


	BEGINNING GENETIC ALGORITHM DOCKING 72 of 100
Run: 72 Seed: 1263665890 1704629743 [ Run 72 of 100 GA/GALS ]
Beginning LAMARCKIAN GENETIC ALGORITHM (LGA), with a maximum of 25000000 energy evaluations.

Final-Value: -11.192


	FINAL GENETIC ALGORITHM DOCKED STATE
	_______________________________________________


Detailed state:  trans 1.184 12.144 -8.716 quatxyzw 0.863458 -0.479099 -0.094364 0.126492 center 0.153 0.018 -0.028 ntor 13 -167.7575 -143.7795 179.6880 -9.3038 40.0034 -2.7088 143.5195 -8.3121 136.2858 -12.4316 56.3819 -73.5319 121.1598
State:	  1.184  12.144  -8.716   0.870 -0.483 -0.095 165.466   -167.76 -143.78  179.69   -9.30   40.00   -2.71  143.52   -8.31  136.29  -12.43   56.38  -73.53  121.16

DOCKED: MODEL       72
DOCKED: USER    Run = 72
DOCKED: USER    DPF = D:/Protein_go_brrr/autodock/final/mut_D99N/heme/dock.dpf
DOCKED: USER  
DOCKED: USER    Estimated Free Energy of Binding    =   -3.14 kcal/mol  [=(1)+(2)+(3)-(4)]
DOCKED: USER    Estimated Inhibition Constant, Ki   =    5.01 mM (millimolar)  [Temperature = 298.15 K]
DOCKED: USER    
DOCKED: USER    (1) Final Intermolecular Energy     =   -7.02 kcal/mol
DOCKED: USER        vdW + Hbond + desolv Energy     =   -7.05 kcal/mol
DOCKED: USER        Electrostatic Energy            =   +0.04 kcal/mol
DOCKED: USER    (2) Final Total Internal Energy     =   -4.18 kcal/mol
DOCKED: USER    (3) Torsional Free Energy           =   +3.88 kcal/mol
DOCKED: USER    (4) Unbound System's Energy  [=(2)] =   -4.18 kcal/mol
DOCKED: USER    
DOCKED: USER    
DOCKED: USER    NEWDPF move heme_opt.pdbqt
DOCKED: USER    NEWDPF about 0.153000 0.018000 -0.028000
DOCKED: USER    NEWDPF tran0 1.183686 12.144180 -8.715891
DOCKED: USER    NEWDPF quaternion0 0.863458 -0.479099 -0.094364 0.126492
DOCKED: USER    NEWDPF axisangle0 0.870449 -0.482979 -0.095128 165.466149
DOCKED: USER    NEWDPF quat0 0.870449 -0.482979 -0.095128 165.466149
DOCKED: USER    NEWDPF dihe0 -167.76 -143.78 179.69 -9.30 40.00 -2.71 143.52 -8.31 136.29 -12.43 56.38 -73.53 121.16 
DOCKED: USER  keepresnum = 1 
DOCKED: USER  
DOCKED: REMARK  13 active torsions:
DOCKED: REMARK  status: ('A' for Active; 'I' for Inactive)
DOCKED: REMARK    1  A    between atoms: O_3  and  C_38 
DOCKED: REMARK    2  A    between atoms: O_4  and  C_40 
DOCKED: REMARK    3  A    between atoms: O_7  and  C_46 
DOCKED: REMARK    4  A    between atoms: O_9  and  C_48 
DOCKED: REMARK    5  A    between atoms: C_15  and  C_20 
DOCKED: REMARK    6  A    between atoms: C_16  and  C_23 
DOCKED: REMARK    7  A    between atoms: C_20  and  C_38 
DOCKED: REMARK    8  A    between atoms: C_23  and  C_40 
DOCKED: REMARK    9  A    between atoms: C_32  and  C_41 
DOCKED: REMARK   10  A    between atoms: C_37  and  C_45 
DOCKED: REMARK   11  A    between atoms: C_41  and  C_44 
DOCKED: REMARK   12  A    between atoms: C_44  and  C_46 
DOCKED: REMARK   13  A    between atoms: C_47  and  C_48 
DOCKED: USER                              x       y       z     vdW  Elec       q    Type
DOCKED: USER                           _______ _______ _______ _____ _____    ______ ____
DOCKED: ROOT
DOCKED: ATOM      1  O   UNL d   1      -3.216  15.993  -7.953 -0.23 -0.01    -0.289 OA
DOCKED: ATOM      2  O   UNL d   1       3.985  16.258  -5.840 -0.03 +0.03    -0.289 OA
DOCKED: ATOM      3  N   UNL d   1      -1.009  13.403  -8.513 -0.16 +0.11    -0.247 NA
DOCKED: ATOM      4  N   UNL d   1       1.597  14.523  -7.629 -0.05 +0.15    -0.247 NA
DOCKED: ATOM      5  N   UNL d   1       2.887  12.313  -8.940 -0.09 +0.24    -0.354 N 
DOCKED: ATOM      6  N   UNL d   1       0.180  11.168  -9.869 -0.08 +0.20    -0.354 N 
DOCKED: ATOM      7  C   UNL d   1      -3.327  13.868  -9.157 -0.20 -0.01    +0.084 A 
DOCKED: ATOM      8  C   UNL d   1       1.540  16.298  -5.950 -0.08 -0.01    +0.084 A 
DOCKED: ATOM      9  C   UNL d   1       0.784  15.359  -6.897 -0.11 -0.02    +0.058 A 
DOCKED: ATOM     10  C   UNL d   1      -2.114  12.935  -9.204 -0.25 -0.01    +0.058 A 
DOCKED: ATOM     11  C   UNL d   1      -2.719  14.938  -8.300 -0.14 -0.02    +0.193 A 
DOCKED: ATOM     12  C   UNL d   1      -1.321  14.527  -7.954 -0.18 -0.02    +0.109 A 
DOCKED: ATOM     13  C   UNL d   1       2.934  15.866  -6.309 -0.06 -0.05    +0.193 A 
DOCKED: ATOM     14  C   UNL d   1      -3.652  14.460 -10.531 -0.08 -0.00    +0.026 C 
DOCKED: ATOM     15  C   UNL d   1      -0.550  15.388  -7.035 -0.18 -0.01    +0.055 C 
DOCKED: ATOM     16  C   UNL d   1       1.280  15.952  -4.481 -0.14 -0.00    +0.026 C 
DOCKED: ATOM     17  C   UNL d   1       2.831  14.791  -7.342 -0.09 -0.05    +0.109 A 
DOCKED: ATOM     18  C   UNL d   1      -2.177  11.729  -9.799 -0.28 -0.01    +0.050 C 
DOCKED: ATOM     19  C   UNL d   1      -1.136  10.767  -9.819 -0.25 -0.01    +0.045 A 
DOCKED: ATOM     20  C   UNL d   1       3.981  13.086  -8.651 -0.17 -0.01    +0.045 A 
DOCKED: ATOM     21  C   UNL d   1       4.048  14.202  -7.918 -0.15 -0.02    +0.057 C 
DOCKED: ATOM     22  C   UNL d   1       4.641  11.332  -9.956 -0.14 -0.00    -0.019 A 
DOCKED: ATOM     23  C   UNL d   1       3.187  11.231  -9.724 -0.13 -0.01    +0.045 A 
DOCKED: ATOM     24  C   UNL d   1       5.106  12.431  -9.317 -0.14 -0.00    -0.022 A 
DOCKED: ATOM     25  C   UNL d   1       1.014  10.079  -9.973 -0.19 -0.02    +0.049 A 
DOCKED: ATOM     26  C   UNL d   1      -1.156   9.381  -9.855 -0.31 +0.00    -0.018 A 
DOCKED: ATOM     27  C   UNL d   1       0.205   8.951  -9.933 -0.28 -0.00    +0.003 A 
DOCKED: ATOM     28  C   UNL d   1       2.407  10.246 -10.197 -0.11 -0.01    +0.052 C 
DOCKED: ATOM     29  C   UNL d   1       6.503  12.948  -9.245 -0.07 +0.01    +0.046 C 
DOCKED: ATOM     30  C   UNL d   1      -2.364   8.507  -9.818 -0.42 -0.00    +0.046 C 
DOCKED: ATOM     31  H   UNL d   1       1.980  12.510  -8.530 -0.25 -0.26    +0.166 HD
DOCKED: ATOM     32  H   UNL d   1       0.470  12.139  -9.869 +0.01 -0.10    +0.166 HD
DOCKED: ENDROOT
DOCKED: BRANCH   7  33
DOCKED: ATOM     33  C   UNL d   1      -4.577  13.288  -8.486 -0.22 -0.01    +0.141 C 
DOCKED: BRANCH  33  34
DOCKED: ATOM     34  C   UNL d   1      -5.758  14.218  -8.557 -0.17 -0.00    +0.306 C 
DOCKED: ATOM     35  O   UNL d   1      -6.632  14.209  -9.407 -0.13 +0.00    -0.251 OA
DOCKED: BRANCH  34  36
DOCKED: ATOM     36  O   UNL d   1      -5.776  15.110  -7.551 -0.10 -0.01    -0.481 OA
DOCKED: ATOM     37  H   UNL d   1      -4.904  15.008  -7.115 -0.02 -0.01    +0.295 HD
DOCKED: ENDBRANCH  34  36
DOCKED: ENDBRANCH  33  34
DOCKED: ENDBRANCH   7  33
DOCKED: BRANCH  27  38
DOCKED: ATOM     38  C   UNL d   1       0.637   7.588 -10.005 -0.36 -0.00    +0.017 C 
DOCKED: ATOM     39  C   UNL d   1       1.676   7.143 -10.728 -0.26 -0.00    +0.092 C 
DOCKED: BRANCH  39  40
DOCKED: ATOM     40  C   UNL d   1       2.027   5.721 -10.702 -0.23 +0.01    +0.330 C 
DOCKED: ATOM     41  O   UNL d   1       1.528   4.844 -10.023 -0.40 +0.00    -0.246 OA
DOCKED: BRANCH  40  42
DOCKED: ATOM     42  O   UNL d   1       3.017   5.473 -11.574 -0.13 -0.06    -0.477 OA
DOCKED: ATOM     43  H   UNL d   1       3.580   6.273 -11.522 +0.10 +0.04    +0.295 HD
DOCKED: ENDBRANCH  40  42
DOCKED: ENDBRANCH  39  40
DOCKED: ENDBRANCH  27  38
DOCKED: BRANCH   8  44
DOCKED: ATOM     44  C   UNL d   1       1.345  17.795  -6.210 -0.01 -0.01    +0.141 C 
DOCKED: BRANCH  44  45
DOCKED: ATOM     45  C   UNL d   1       1.835  18.231  -7.566 +0.01 -0.01    +0.306 C 
DOCKED: ATOM     46  O   UNL d   1       1.155  18.413  -8.560 +0.00 +0.01    -0.251 OA
DOCKED: BRANCH  45  47
DOCKED: ATOM     47  O   UNL d   1       3.170  18.390  -7.603 +0.01 +0.01    -0.481 OA
DOCKED: ATOM     48  H   UNL d   1       3.470  18.186  -6.692 +0.01 -0.01    +0.295 HD
DOCKED: ENDBRANCH  45  47
DOCKED: ENDBRANCH  44  45
DOCKED: ENDBRANCH   8  44
DOCKED: BRANCH  22  49
DOCKED: ATOM     49  C   UNL d   1       5.431  10.362 -10.785 -0.09 +0.01    +0.048 C 
DOCKED: BRANCH  49  50
DOCKED: ATOM     50  C   UNL d   1       4.649   9.893 -12.011 -0.03 +0.01    +0.125 C 
DOCKED: BRANCH  50  51
DOCKED: ATOM     51  C   UNL d   1       4.518   8.396 -12.023 -0.02 +0.04    +0.305 C 
DOCKED: ATOM     52  O   UNL d   1       5.141   7.590 -11.355 -0.05 -0.05    -0.251 OA
DOCKED: BRANCH  51  53
DOCKED: ATOM     53  O   UNL d   1       3.592   7.978 -12.910 +0.01 -0.04    -0.481 OA
DOCKED: ATOM     54  H   UNL d   1       3.713   7.006 -12.940 +0.05 +0.03    +0.295 HD
DOCKED: ENDBRANCH  51  53
DOCKED: ENDBRANCH  50  51
DOCKED: ENDBRANCH  49  50
DOCKED: ENDBRANCH  22  49
DOCKED: TORSDOF 13
DOCKED: TER
DOCKED: ENDMDL
________________________________________________________________________________


	BEGINNING GENETIC ALGORITHM DOCKING 73 of 100
Run: 73 Seed: 1010488769 709510475 [ Run 73 of 100 GA/GALS ]
Beginning LAMARCKIAN GENETIC ALGORITHM (LGA), with a maximum of 25000000 energy evaluations.

Final-Value: -12.205


	FINAL GENETIC ALGORITHM DOCKED STATE
	_______________________________________________


Detailed state:  trans -10.867 12.795 -13.088 quatxyzw 0.440086 -0.534256 -0.698373 0.182124 center 0.153 0.018 -0.028 ntor 13 -89.7045 -144.8731 -180.0000 -76.3235 -141.7945 -3.4675 142.9775 175.2274 -160.2899 -13.5440 63.4030 -37.8367 127.6559
State:	-10.867  12.795 -13.088   0.448 -0.543 -0.710 159.013    -89.70 -144.87 -180.00  -76.32 -141.79   -3.47  142.98  175.23 -160.29  -13.54   63.40  -37.84  127.66

DOCKED: MODEL       73
DOCKED: USER    Run = 73
DOCKED: USER    DPF = D:/Protein_go_brrr/autodock/final/mut_D99N/heme/dock.dpf
DOCKED: USER  
DOCKED: USER    Estimated Free Energy of Binding    =   -5.49 kcal/mol  [=(1)+(2)+(3)-(4)]
DOCKED: USER    Estimated Inhibition Constant, Ki   =   94.70 uM (micromolar)  [Temperature = 298.15 K]
DOCKED: USER    
DOCKED: USER    (1) Final Intermolecular Energy     =   -9.37 kcal/mol
DOCKED: USER        vdW + Hbond + desolv Energy     =   -8.74 kcal/mol
DOCKED: USER        Electrostatic Energy            =   -0.62 kcal/mol
DOCKED: USER    (2) Final Total Internal Energy     =   -2.84 kcal/mol
DOCKED: USER    (3) Torsional Free Energy           =   +3.88 kcal/mol
DOCKED: USER    (4) Unbound System's Energy  [=(2)] =   -2.84 kcal/mol
DOCKED: USER    
DOCKED: USER    
DOCKED: USER    NEWDPF move heme_opt.pdbqt
DOCKED: USER    NEWDPF about 0.153000 0.018000 -0.028000
DOCKED: USER    NEWDPF tran0 -10.867156 12.794585 -13.088163
DOCKED: USER    NEWDPF quaternion0 0.440086 -0.534256 -0.698373 0.182124
DOCKED: USER    NEWDPF axisangle0 0.447571 -0.543343 -0.710252 159.013050
DOCKED: USER    NEWDPF quat0 0.447571 -0.543343 -0.710252 159.013050
DOCKED: USER    NEWDPF dihe0 -89.70 -144.87 -180.00 -76.32 -141.79 -3.47 142.98 175.23 -160.29 -13.54 63.40 -37.84 127.66 
DOCKED: USER  keepresnum = 1 
DOCKED: USER  
DOCKED: REMARK  13 active torsions:
DOCKED: REMARK  status: ('A' for Active; 'I' for Inactive)
DOCKED: REMARK    1  A    between atoms: O_3  and  C_38 
DOCKED: REMARK    2  A    between atoms: O_4  and  C_40 
DOCKED: REMARK    3  A    between atoms: O_7  and  C_46 
DOCKED: REMARK    4  A    between atoms: O_9  and  C_48 
DOCKED: REMARK    5  A    between atoms: C_15  and  C_20 
DOCKED: REMARK    6  A    between atoms: C_16  and  C_23 
DOCKED: REMARK    7  A    between atoms: C_20  and  C_38 
DOCKED: REMARK    8  A    between atoms: C_23  and  C_40 
DOCKED: REMARK    9  A    between atoms: C_32  and  C_41 
DOCKED: REMARK   10  A    between atoms: C_37  and  C_45 
DOCKED: REMARK   11  A    between atoms: C_41  and  C_44 
DOCKED: REMARK   12  A    between atoms: C_44  and  C_46 
DOCKED: REMARK   13  A    between atoms: C_47  and  C_48 
DOCKED: USER                              x       y       z     vdW  Elec       q    Type
DOCKED: USER                           _______ _______ _______ _____ _____    ______ ____
DOCKED: ROOT
DOCKED: ATOM      1  O   UNL d   1      -9.298  13.980  -7.531 -0.16 -0.00    -0.289 OA
DOCKED: ATOM      2  O   UNL d   1      -5.241  13.695 -13.843 -0.06 +0.02    -0.289 OA
DOCKED: ATOM      3  N   UNL d   1     -10.647  13.098 -10.580 -0.18 +0.06    -0.247 NA
DOCKED: ATOM      4  N   UNL d   1      -8.407  13.559 -12.477 -0.15 +0.06    -0.247 NA
DOCKED: ATOM      5  N   UNL d   1     -10.304  13.340 -14.626 -0.01 +0.20    -0.354 N 
DOCKED: ATOM      6  N   UNL d   1     -12.625  12.882 -12.650 -0.00 +0.20    -0.354 N 
DOCKED: ATOM      7  C   UNL d   1     -11.556  13.514  -8.342 -0.19 -0.01    +0.084 A 
DOCKED: ATOM      8  C   UNL d   1      -6.137  13.417 -11.582 -0.14 -0.00    +0.084 A 
DOCKED: ATOM      9  C   UNL d   1      -7.649  13.412 -11.336 -0.23 -0.01    +0.058 A 
DOCKED: ATOM     10  C   UNL d   1     -11.796  13.146  -9.809 -0.24 -0.01    +0.058 A 
DOCKED: ATOM     11  C   UNL d   1     -10.065  13.647  -8.415 -0.12 -0.01    +0.193 A 
DOCKED: ATOM     12  C   UNL d   1      -9.632  13.345  -9.817 -0.21 -0.01    +0.109 A 
DOCKED: ATOM     13  C   UNL d   1      -6.176  13.632 -13.069 -0.07 -0.02    +0.193 A 
DOCKED: ATOM     14  C   UNL d   1     -12.158  14.876  -7.985 -0.11 -0.00    +0.026 C 
DOCKED: ATOM     15  C   UNL d   1      -8.185  13.323 -10.109 -0.29 -0.00    +0.055 C 
DOCKED: ATOM     16  C   UNL d   1      -5.511  12.048 -11.299 -0.29 -0.00    +0.026 C 
DOCKED: ATOM     17  C   UNL d   1      -7.609  13.708 -13.485 -0.14 -0.02    +0.109 A 
DOCKED: ATOM     18  C   UNL d   1     -13.021  12.814 -10.259 -0.26 -0.01    +0.050 C 
DOCKED: ATOM     19  C   UNL d   1     -13.324  12.381 -11.575 -0.23 -0.02    +0.045 A 
DOCKED: ATOM     20  C   UNL d   1      -9.211  13.788 -15.321 -0.18 -0.01    +0.045 A 
DOCKED: ATOM     21  C   UNL d   1      -7.957  13.959 -14.891 -0.13 -0.01    +0.057 C 
DOCKED: ATOM     22  C   UNL d   1     -11.015  13.757 -16.722 -0.16 +0.01    -0.019 A 
DOCKED: ATOM     23  C   UNL d   1     -11.441  13.288 -15.388 -0.18 -0.03    +0.045 A 
DOCKED: ATOM     24  C   UNL d   1      -9.694  14.051 -16.676 -0.14 +0.01    -0.022 A 
DOCKED: ATOM     25  C   UNL d   1     -13.141  12.397 -13.830 -0.09 -0.04    +0.049 A 
DOCKED: ATOM     26  C   UNL d   1     -14.294  11.520 -12.066 -0.26 +0.01    -0.018 A 
DOCKED: ATOM     27  C   UNL d   1     -14.161  11.520 -13.489 -0.27 -0.00    +0.003 A 
DOCKED: ATOM     28  C   UNL d   1     -12.686  12.893 -15.082 -0.21 -0.04    +0.052 C 
DOCKED: ATOM     29  C   UNL d   1      -8.811  14.547 -17.770 -0.06 -0.01    +0.046 C 
DOCKED: ATOM     30  C   UNL d   1     -15.283  10.744 -11.265 -0.21 -0.03    +0.046 C 
DOCKED: ATOM     31  H   UNL d   1     -10.221  13.014 -13.669 -0.51 -0.15    +0.166 HD
DOCKED: ATOM     32  H   UNL d   1     -11.866  13.547 -12.564 -0.12 -0.08    +0.166 HD
DOCKED: ENDROOT
DOCKED: BRANCH   7  33
DOCKED: ATOM     33  C   UNL d   1     -11.951  12.440  -7.322 -0.27 -0.02    +0.141 C 
DOCKED: BRANCH  33  34
DOCKED: ATOM     34  C   UNL d   1     -13.121  12.852  -6.471 -0.21 -0.03    +0.306 C 
DOCKED: ATOM     35  O   UNL d   1     -13.067  13.482  -5.428 -0.36 +0.00    -0.251 OA
DOCKED: BRANCH  34  36
DOCKED: ATOM     36  O   UNL d   1     -14.299  12.452  -6.981 -0.60 +0.10    -0.481 OA
DOCKED: ATOM     37  H   UNL d   1     -14.431  11.550  -6.618 -0.20 -0.13    +0.295 HD
DOCKED: ENDBRANCH  34  36
DOCKED: ENDBRANCH  33  34
DOCKED: ENDBRANCH   7  33
DOCKED: BRANCH  27  38
DOCKED: ATOM     38  C   UNL d   1     -14.981  10.773 -14.394 -0.25 -0.01    +0.017 C 
DOCKED: ATOM     39  C   UNL d   1     -14.871  10.789 -15.732 -0.04 -0.11    +0.092 C 
DOCKED: BRANCH  39  40
DOCKED: ATOM     40  C   UNL d   1     -15.765   9.962 -16.547 -0.06 -0.31    +0.330 C 
DOCKED: ATOM     41  O   UNL d   1     -16.584   9.149 -16.162 -0.05 +0.15    -0.246 OA
DOCKED: BRANCH  40  42
DOCKED: ATOM     42  O   UNL d   1     -15.575  10.223 -17.850 -0.06 +0.45    -0.477 OA
DOCKED: ATOM     43  H   UNL d   1     -14.614  10.402 -17.915 -0.36 -0.51    +0.295 HD
DOCKED: ENDBRANCH  40  42
DOCKED: ENDBRANCH  39  40
DOCKED: ENDBRANCH  27  38
DOCKED: BRANCH   8  44
DOCKED: ATOM     44  C   UNL d   1      -5.358  14.538 -10.886 -0.07 -0.00    +0.141 C 
DOCKED: BRANCH  44  45
DOCKED: ATOM     45  C   UNL d   1      -5.750  15.914 -11.355 +0.00 -0.01    +0.306 C 
DOCKED: ATOM     46  O   UNL d   1      -6.516  16.681 -10.798 -0.01 +0.01    -0.251 OA
DOCKED: BRANCH  45  47
DOCKED: ATOM     47  O   UNL d   1      -5.173  16.242 -12.525 +0.01 +0.02    -0.481 OA
DOCKED: ATOM     48  H   UNL d   1      -4.620  15.466 -12.755 +0.02 -0.01    +0.295 HD
DOCKED: ENDBRANCH  45  47
DOCKED: ENDBRANCH  44  45
DOCKED: ENDBRANCH   8  44
DOCKED: BRANCH  22  49
DOCKED: ATOM     49  C   UNL d   1     -11.934  13.888 -17.901 -0.09 -0.03    +0.048 C 
DOCKED: BRANCH  49  50
DOCKED: ATOM     50  C   UNL d   1     -13.263  14.538 -17.518 -0.04 -0.05    +0.125 C 
DOCKED: BRANCH  50  51
DOCKED: ATOM     51  C   UNL d   1     -14.404  13.579 -17.710 -0.03 -0.16    +0.305 C 
DOCKED: ATOM     52  O   UNL d   1     -15.555  13.708 -17.331 -0.01 +0.09    -0.251 OA
DOCKED: BRANCH  51  53
DOCKED: ATOM     53  O   UNL d   1     -14.024  12.471 -18.377 -0.04 +0.46    -0.481 OA
DOCKED: ATOM     54  H   UNL d   1     -13.950  11.786 -17.680 -0.39 -0.53    +0.295 HD
DOCKED: ENDBRANCH  51  53
DOCKED: ENDBRANCH  50  51
DOCKED: ENDBRANCH  49  50
DOCKED: ENDBRANCH  22  49
DOCKED: TORSDOF 13
DOCKED: TER
DOCKED: ENDMDL
________________________________________________________________________________


	BEGINNING GENETIC ALGORITHM DOCKING 74 of 100
Run: 74 Seed: 208964698 1612562324 [ Run 74 of 100 GA/GALS ]
Beginning LAMARCKIAN GENETIC ALGORITHM (LGA), with a maximum of 25000000 energy evaluations.

Final-Value: -12.545


	FINAL GENETIC ALGORITHM DOCKED STATE
	_______________________________________________


Detailed state:  trans 15.798 -13.027 5.304 quatxyzw 0.423907 0.864459 0.145968 0.227391 center 0.153 0.018 -0.028 ntor 13 -140.0135 -84.0879 -150.2308 -120.3798 42.3854 -44.0591 131.8510 87.5157 160.0226 -10.7341 -9.2884 -140.5271 -17.5376
State:	 15.798 -13.027   5.304   0.435  0.888  0.150 153.713   -140.01  -84.09 -150.23 -120.38   42.39  -44.06  131.85   87.52  160.02  -10.73   -9.29 -140.53  -17.54

DOCKED: MODEL       74
DOCKED: USER    Run = 74
DOCKED: USER    DPF = D:/Protein_go_brrr/autodock/final/mut_D99N/heme/dock.dpf
DOCKED: USER  
DOCKED: USER    Estimated Free Energy of Binding    =   -6.35 kcal/mol  [=(1)+(2)+(3)-(4)]
DOCKED: USER    Estimated Inhibition Constant, Ki   =   22.03 uM (micromolar)  [Temperature = 298.15 K]
DOCKED: USER    
DOCKED: USER    (1) Final Intermolecular Energy     =  -10.23 kcal/mol
DOCKED: USER        vdW + Hbond + desolv Energy     =  -10.03 kcal/mol
DOCKED: USER        Electrostatic Energy            =   -0.20 kcal/mol
DOCKED: USER    (2) Final Total Internal Energy     =   -2.31 kcal/mol
DOCKED: USER    (3) Torsional Free Energy           =   +3.88 kcal/mol
DOCKED: USER    (4) Unbound System's Energy  [=(2)] =   -2.31 kcal/mol
DOCKED: USER    
DOCKED: USER    
DOCKED: USER    NEWDPF move heme_opt.pdbqt
DOCKED: USER    NEWDPF about 0.153000 0.018000 -0.028000
DOCKED: USER    NEWDPF tran0 15.798160 -13.026653 5.303820
DOCKED: USER    NEWDPF quaternion0 0.423907 0.864459 0.145968 0.227391
DOCKED: USER    NEWDPF axisangle0 0.435310 0.887714 0.149894 153.713009
DOCKED: USER    NEWDPF quat0 0.435310 0.887714 0.149894 153.713009
DOCKED: USER    NEWDPF dihe0 -140.01 -84.09 -150.23 -120.38 42.39 -44.06 131.85 87.52 160.02 -10.73 -9.29 -140.53 -17.54 
DOCKED: USER  keepresnum = 1 
DOCKED: USER  
DOCKED: REMARK  13 active torsions:
DOCKED: REMARK  status: ('A' for Active; 'I' for Inactive)
DOCKED: REMARK    1  A    between atoms: O_3  and  C_38 
DOCKED: REMARK    2  A    between atoms: O_4  and  C_40 
DOCKED: REMARK    3  A    between atoms: O_7  and  C_46 
DOCKED: REMARK    4  A    between atoms: O_9  and  C_48 
DOCKED: REMARK    5  A    between atoms: C_15  and  C_20 
DOCKED: REMARK    6  A    between atoms: C_16  and  C_23 
DOCKED: REMARK    7  A    between atoms: C_20  and  C_38 
DOCKED: REMARK    8  A    between atoms: C_23  and  C_40 
DOCKED: REMARK    9  A    between atoms: C_32  and  C_41 
DOCKED: REMARK   10  A    between atoms: C_37  and  C_45 
DOCKED: REMARK   11  A    between atoms: C_41  and  C_44 
DOCKED: REMARK   12  A    between atoms: C_44  and  C_46 
DOCKED: REMARK   13  A    between atoms: C_47  and  C_48 
DOCKED: USER                              x       y       z     vdW  Elec       q    Type
DOCKED: USER                           _______ _______ _______ _____ _____    ______ ____
DOCKED: ROOT
DOCKED: ATOM      1  O   UNL d   1      19.988 -15.468   1.951 -0.02 +0.01    -0.289 OA
DOCKED: ATOM      2  O   UNL d   1      13.778 -18.398   4.990 -0.02 -0.02    -0.289 OA
DOCKED: ATOM      3  N   UNL d   1      17.870 -13.658   3.985 -0.05 +0.15    -0.247 NA
DOCKED: ATOM      4  N   UNL d   1      15.599 -15.520   4.436 +0.06 +0.19    -0.247 NA
DOCKED: ATOM      5  N   UNL d   1      14.101 -13.296   5.472 +0.08 +0.35    -0.354 N 
DOCKED: ATOM      6  N   UNL d   1      16.456 -11.367   4.983 -0.17 +0.25    -0.354 N 
DOCKED: ATOM      7  C   UNL d   1      19.849 -13.127   2.639 -0.18 +0.00    +0.084 A 
DOCKED: ATOM      8  C   UNL d   1      16.065 -17.913   4.265 -0.03 -0.00    +0.084 A 
DOCKED: ATOM      9  C   UNL d   1      16.547 -16.467   4.116 -0.08 -0.02    +0.058 A 
DOCKED: ATOM     10  C   UNL d   1      18.736 -12.656   3.580 -0.18 -0.01    +0.058 A 
DOCKED: ATOM     11  C   UNL d   1      19.470 -14.577   2.599 -0.06 -0.02    +0.193 A 
DOCKED: ATOM     12  C   UNL d   1      18.272 -14.777   3.474 -0.09 -0.04    +0.109 A 
DOCKED: ATOM     13  C   UNL d   1      14.656 -17.612   4.692 -0.04 +0.00    +0.193 A 
DOCKED: ATOM     14  C   UNL d   1      19.701 -12.537   1.234 -0.27 +0.00    +0.026 C 
DOCKED: ATOM     15  C   UNL d   1      17.771 -16.153   3.664 -0.08 -0.01    +0.055 C 
DOCKED: ATOM     16  C   UNL d   1      16.782 -18.636   5.409 -0.00 -0.00    +0.026 C 
DOCKED: ATOM     17  C   UNL d   1      14.500 -16.127   4.749 -0.12 -0.03    +0.109 A 
DOCKED: ATOM     18  C   UNL d   1      18.684 -11.388   4.029 -0.39 -0.00    +0.050 C 
DOCKED: ATOM     19  C   UNL d   1      17.745 -10.884   4.964 -0.36 -0.01    +0.045 A 
DOCKED: ATOM     20  C   UNL d   1      13.105 -14.234   5.393 -0.20 -0.02    +0.045 A 
DOCKED: ATOM     21  C   UNL d   1      13.201 -15.535   5.099 -0.19 -0.01    +0.057 C 
DOCKED: ATOM     22  C   UNL d   1      12.180 -12.220   5.948 -0.26 +0.01    -0.019 A 
DOCKED: ATOM     23  C   UNL d   1      13.640 -12.049   5.801 -0.30 -0.03    +0.045 A 
DOCKED: ATOM     24  C   UNL d   1      11.870 -13.516   5.707 -0.26 +0.01    -0.022 A 
DOCKED: ATOM     25  C   UNL d   1      15.695 -10.679   5.900 -0.32 -0.02    +0.049 A 
DOCKED: ATOM     26  C   UNL d   1      17.834  -9.882   5.918 -0.31 +0.00    -0.018 A 
DOCKED: ATOM     27  C   UNL d   1      16.542  -9.771   6.519 -0.29 -0.00    +0.003 A 
DOCKED: ATOM     28  C   UNL d   1      14.293 -10.892   5.990 -0.33 -0.03    +0.052 C 
DOCKED: ATOM     29  C   UNL d   1      10.535 -14.178   5.744 -0.29 -0.01    +0.046 C 
DOCKED: ATOM     30  C   UNL d   1      19.043  -9.078   6.254 -0.28 +0.01    +0.046 C 
DOCKED: ATOM     31  H   UNL d   1      15.077 -13.554   5.370 -0.47 -0.22    +0.166 HD
DOCKED: ATOM     32  H   UNL d   1      16.123 -12.100   4.368 -0.51 -0.29    +0.166 HD
DOCKED: ENDROOT
DOCKED: BRANCH   7  33
DOCKED: ATOM     33  C   UNL d   1      21.275 -12.958   3.173 -0.13 +0.03    +0.141 C 
DOCKED: BRANCH  33  34
DOCKED: ATOM     34  C   UNL d   1      22.289 -12.788   2.073 -0.08 +0.09    +0.306 C 
DOCKED: ATOM     35  O   UNL d   1      22.729 -11.729   1.657 -0.14 -0.11    -0.251 OA
DOCKED: BRANCH  34  36
DOCKED: ATOM     36  O   UNL d   1      22.696 -13.961   1.558 +0.00 -0.09    -0.481 OA
DOCKED: ATOM     37  H   UNL d   1      21.891 -14.520   1.550 +0.04 +0.03    +0.295 HD
DOCKED: ENDBRANCH  34  36
DOCKED: ENDBRANCH  33  34
DOCKED: ENDBRANCH   7  33
DOCKED: BRANCH  27  38
DOCKED: ATOM     38  C   UNL d   1      16.188  -8.841   7.549 -0.28 -0.00    +0.017 C 
DOCKED: ATOM     39  C   UNL d   1      15.959  -7.531   7.365 -0.33 -0.03    +0.092 C 
DOCKED: BRANCH  39  40
DOCKED: ATOM     40  C   UNL d   1      15.586  -6.688   8.503 -0.10 -0.12    +0.330 C 
DOCKED: ATOM     41  O   UNL d   1      14.762  -6.925   9.365 -0.19 +0.09    -0.246 OA
DOCKED: BRANCH  40  42
DOCKED: ATOM     42  O   UNL d   1      16.308  -5.556   8.496 -0.07 +0.15    -0.477 OA
DOCKED: ATOM     43  H   UNL d   1      15.725  -4.910   8.047 -0.44 -0.19    +0.295 HD
DOCKED: ENDBRANCH  40  42
DOCKED: ENDBRANCH  39  40
DOCKED: ENDBRANCH  27  38
DOCKED: BRANCH   8  44
DOCKED: ATOM     44  C   UNL d   1      16.083 -18.751   2.982 -0.02 +0.01    +0.141 C 
DOCKED: BRANCH  44  45
DOCKED: ATOM     45  C   UNL d   1      15.208 -18.189   1.893 -0.06 +0.13    +0.306 C 
DOCKED: ATOM     46  O   UNL d   1      15.528 -17.361   1.058 -0.20 -0.15    -0.251 OA
DOCKED: BRANCH  45  47
DOCKED: ATOM     47  O   UNL d   1      13.957 -18.682   1.932 -0.05 -0.28    -0.481 OA
DOCKED: ATOM     48  H   UNL d   1      13.802 -18.893   2.878 +0.03 +0.10    +0.295 HD
DOCKED: ENDBRANCH  45  47
DOCKED: ENDBRANCH  44  45
DOCKED: ENDBRANCH   8  44
DOCKED: BRANCH  22  49
DOCKED: ATOM     49  C   UNL d   1      11.232 -11.110   6.294 -0.24 -0.02    +0.048 C 
DOCKED: BRANCH  49  50
DOCKED: ATOM     50  C   UNL d   1      10.834 -11.140   7.769 -0.23 -0.04    +0.125 C 
DOCKED: BRANCH  50  51
DOCKED: ATOM     51  C   UNL d   1      10.055  -9.910   8.139 -0.20 -0.09    +0.305 C 
DOCKED: ATOM     52  O   UNL d   1       8.868  -9.700   7.957 -0.71 +0.07    -0.251 OA
DOCKED: BRANCH  51  53
DOCKED: ATOM     53  O   UNL d   1      10.832  -8.978   8.726 -0.32 +0.17    -0.481 OA
DOCKED: ATOM     54  H   UNL d   1      11.518  -8.783   8.054 -0.33 -0.14    +0.295 HD
DOCKED: ENDBRANCH  51  53
DOCKED: ENDBRANCH  50  51
DOCKED: ENDBRANCH  49  50
DOCKED: ENDBRANCH  22  49
DOCKED: TORSDOF 13
DOCKED: TER
DOCKED: ENDMDL
________________________________________________________________________________


	BEGINNING GENETIC ALGORITHM DOCKING 75 of 100
Run: 75 Seed: 1388853679 466188146 [ Run 75 of 100 GA/GALS ]
Beginning LAMARCKIAN GENETIC ALGORITHM (LGA), with a maximum of 25000000 energy evaluations.

Final-Value: -10.994


	FINAL GENETIC ALGORITHM DOCKED STATE
	_______________________________________________


Detailed state:  trans -16.466 8.450 3.206 quatxyzw 0.275856 0.159696 -0.282986 0.904610 center 0.153 0.018 -0.028 ntor 13 -90.7437 126.4517 -150.8750 126.5330 26.4644 111.2776 131.2392 56.3586 131.5357 -13.4010 -118.0284 -19.7145 171.9239
State:	-16.466   8.450   3.206   0.647  0.375 -0.664 50.458    -90.74  126.45 -150.87  126.53   26.46  111.28  131.24   56.36  131.54  -13.40 -118.03  -19.71  171.92

DOCKED: MODEL       75
DOCKED: USER    Run = 75
DOCKED: USER    DPF = D:/Protein_go_brrr/autodock/final/mut_D99N/heme/dock.dpf
DOCKED: USER  
DOCKED: USER    Estimated Free Energy of Binding    =   -4.70 kcal/mol  [=(1)+(2)+(3)-(4)]
DOCKED: USER    Estimated Inhibition Constant, Ki   =  360.11 uM (micromolar)  [Temperature = 298.15 K]
DOCKED: USER    
DOCKED: USER    (1) Final Intermolecular Energy     =   -8.58 kcal/mol
DOCKED: USER        vdW + Hbond + desolv Energy     =   -7.99 kcal/mol
DOCKED: USER        Electrostatic Energy            =   -0.58 kcal/mol
DOCKED: USER    (2) Final Total Internal Energy     =   -2.42 kcal/mol
DOCKED: USER    (3) Torsional Free Energy           =   +3.88 kcal/mol
DOCKED: USER    (4) Unbound System's Energy  [=(2)] =   -2.42 kcal/mol
DOCKED: USER    
DOCKED: USER    
DOCKED: USER    NEWDPF move heme_opt.pdbqt
DOCKED: USER    NEWDPF about 0.153000 0.018000 -0.028000
DOCKED: USER    NEWDPF tran0 -16.466252 8.449863 3.205905
DOCKED: USER    NEWDPF quaternion0 0.275856 0.159696 -0.282986 0.904610
DOCKED: USER    NEWDPF axisangle0 0.647185 0.374663 -0.663912 50.458344
DOCKED: USER    NEWDPF quat0 0.647185 0.374663 -0.663912 50.458344
DOCKED: USER    NEWDPF dihe0 -90.74 126.45 -150.87 126.53 26.46 111.28 131.24 56.36 131.54 -13.40 -118.03 -19.71 171.92 
DOCKED: USER  keepresnum = 1 
DOCKED: USER  
DOCKED: REMARK  13 active torsions:
DOCKED: REMARK  status: ('A' for Active; 'I' for Inactive)
DOCKED: REMARK    1  A    between atoms: O_3  and  C_38 
DOCKED: REMARK    2  A    between atoms: O_4  and  C_40 
DOCKED: REMARK    3  A    between atoms: O_7  and  C_46 
DOCKED: REMARK    4  A    between atoms: O_9  and  C_48 
DOCKED: REMARK    5  A    between atoms: C_15  and  C_20 
DOCKED: REMARK    6  A    between atoms: C_16  and  C_23 
DOCKED: REMARK    7  A    between atoms: C_20  and  C_38 
DOCKED: REMARK    8  A    between atoms: C_23  and  C_40 
DOCKED: REMARK    9  A    between atoms: C_32  and  C_41 
DOCKED: REMARK   10  A    between atoms: C_37  and  C_45 
DOCKED: REMARK   11  A    between atoms: C_41  and  C_44 
DOCKED: REMARK   12  A    between atoms: C_44  and  C_46 
DOCKED: REMARK   13  A    between atoms: C_47  and  C_48 
DOCKED: USER                              x       y       z     vdW  Elec       q    Type
DOCKED: USER                           _______ _______ _______ _____ _____    ______ ____
DOCKED: ROOT
DOCKED: ATOM      1  O   UNL d   1     -21.897   6.509   1.981 -0.04 -0.09    -0.289 OA
DOCKED: ATOM      2  O   UNL d   1     -15.805   2.878   4.451 -0.04 -0.06    -0.289 OA
DOCKED: ATOM      3  N   UNL d   1     -18.851   8.063   2.433 -0.12 -0.01    -0.247 NA
DOCKED: ATOM      4  N   UNL d   1     -17.185   5.948   3.692 -0.08 -0.02    -0.247 NA
DOCKED: ATOM      5  N   UNL d   1     -15.268   7.984   4.358 +0.01 +0.01    -0.354 N 
DOCKED: ATOM      6  N   UNL d   1     -17.011  10.175   3.066 -0.07 +0.05    -0.354 N 
DOCKED: ATOM      7  C   UNL d   1     -21.109   8.819   1.854 -0.08 +0.02    +0.084 A 
DOCKED: ATOM      8  C   UNL d   1     -17.792   3.626   3.233 -0.11 +0.01    +0.084 A 
DOCKED: ATOM      9  C   UNL d   1     -18.108   5.119   3.095 -0.14 +0.01    +0.058 A 
DOCKED: ATOM     10  C   UNL d   1     -19.641   9.159   2.131 -0.14 +0.00    +0.058 A 
DOCKED: ATOM     11  C   UNL d   1     -21.004   7.335   2.035 -0.08 +0.05    +0.193 A 
DOCKED: ATOM     12  C   UNL d   1     -19.581   6.998   2.358 -0.14 +0.02    +0.109 A 
DOCKED: ATOM     13  C   UNL d   1     -16.539   3.760   4.051 -0.07 +0.03    +0.193 A 
DOCKED: ATOM     14  C   UNL d   1     -22.042   9.385   2.928 -0.02 +0.00    +0.026 C 
DOCKED: ATOM     15  C   UNL d   1     -19.216   5.573   2.489 -0.17 +0.01    +0.055 C 
DOCKED: ATOM     16  C   UNL d   1     -17.434   2.994   1.884 -0.09 +0.00    +0.026 C 
DOCKED: ATOM     17  C   UNL d   1     -16.285   5.217   4.266 -0.07 +0.01    +0.109 A 
DOCKED: ATOM     18  C   UNL d   1     -19.172  10.413   1.994 -0.14 -0.00    +0.050 C 
DOCKED: ATOM     19  C   UNL d   1     -17.817  10.805   2.147 -0.09 -0.01    +0.045 A 
DOCKED: ATOM     20  C   UNL d   1     -14.757   6.936   5.078 -0.07 +0.00    +0.045 A 
DOCKED: ATOM     21  C   UNL d   1     -15.139   5.654   5.077 -0.10 +0.00    +0.057 C 
DOCKED: ATOM     22  C   UNL d   1     -13.590   8.828   5.601 -0.24 +0.00    -0.019 A 
DOCKED: ATOM     23  C   UNL d   1     -14.627   9.169   4.607 -0.16 -0.00    +0.045 A 
DOCKED: ATOM     24  C   UNL d   1     -13.671   7.504   5.875 -0.21 +0.00    -0.022 A 
DOCKED: ATOM     25  C   UNL d   1     -15.772  10.770   3.111 -0.20 -0.01    +0.049 A 
DOCKED: ATOM     26  C   UNL d   1     -17.073  11.813   1.553 -0.16 +0.00    -0.018 A 
DOCKED: ATOM     27  C   UNL d   1     -15.776  11.773   2.152 -0.26 -0.00    +0.003 A 
DOCKED: ATOM     28  C   UNL d   1     -14.817  10.395   4.096 -0.19 -0.01    +0.052 C 
DOCKED: ATOM     29  C   UNL d   1     -12.834   6.690   6.801 -0.29 -0.00    +0.046 C 
DOCKED: ATOM     30  C   UNL d   1     -17.534  12.754   0.492 -0.11 -0.01    +0.046 C 
DOCKED: ATOM     31  H   UNL d   1     -15.991   7.842   3.661 +0.04 -0.00    +0.166 HD
DOCKED: ATOM     32  H   UNL d   1     -17.320   9.406   3.649 +0.03 -0.01    +0.166 HD
DOCKED: ENDROOT
DOCKED: BRANCH   7  33
DOCKED: ATOM     33  C   UNL d   1     -21.606   9.155   0.444 -0.14 +0.07    +0.141 C 
DOCKED: BRANCH  33  34
DOCKED: ATOM     34  C   UNL d   1     -23.048   8.780   0.233 -0.06 +0.21    +0.306 C 
DOCKED: ATOM     35  O   UNL d   1     -24.020   9.425   0.589 -0.03 -0.10    -0.251 OA
DOCKED: BRANCH  34  36
DOCKED: ATOM     36  O   UNL d   1     -23.190   7.611  -0.417 -0.59 -0.74    -0.481 OA
DOCKED: ATOM     37  H   UNL d   1     -23.163   6.931   0.290 +0.03 +0.26    +0.295 HD
DOCKED: ENDBRANCH  34  36
DOCKED: ENDBRANCH  33  34
DOCKED: ENDBRANCH   7  33
DOCKED: BRANCH  27  38
DOCKED: ATOM     38  C   UNL d   1     -14.694  12.658   1.838 -0.31 -0.00    +0.017 C 
DOCKED: ATOM     39  C   UNL d   1     -13.405  12.442   2.140 -0.31 -0.02    +0.092 C 
DOCKED: BRANCH  39  40
DOCKED: ATOM     40  C   UNL d   1     -12.389  13.422   1.746 -0.20 -0.03    +0.330 C 
DOCKED: ATOM     41  O   UNL d   1     -11.761  14.174   2.467 -0.20 -0.00    -0.246 OA
DOCKED: BRANCH  40  42
DOCKED: ATOM     42  O   UNL d   1     -12.210  13.391   0.416 -0.21 +0.06    -0.477 OA
DOCKED: ATOM     43  H   UNL d   1     -12.022  12.448   0.227 -0.35 -0.14    +0.295 HD
DOCKED: ENDBRANCH  40  42
DOCKED: ENDBRANCH  39  40
DOCKED: ENDBRANCH  27  38
DOCKED: BRANCH   8  44
DOCKED: ATOM     44  C   UNL d   1     -18.844   2.794   3.973 -0.04 +0.02    +0.141 C 
DOCKED: BRANCH  44  45
DOCKED: ATOM     45  C   UNL d   1     -19.024   3.206   5.410 -0.01 +0.04    +0.306 C 
DOCKED: ATOM     46  O   UNL d   1     -19.769   4.075   5.829 -0.00 -0.03    -0.251 OA
DOCKED: BRANCH  45  47
DOCKED: ATOM     47  O   UNL d   1     -18.230   2.515   6.247 +0.00 -0.07    -0.481 OA
DOCKED: ATOM     48  H   UNL d   1     -17.450   2.272   5.705 +0.02 +0.05    +0.295 HD
DOCKED: ENDBRANCH  45  47
DOCKED: ENDBRANCH  44  45
DOCKED: ENDBRANCH   8  44
DOCKED: BRANCH  22  49
DOCKED: ATOM     49  C   UNL d   1     -12.635   9.821   6.196 -0.30 -0.01    +0.048 C 
DOCKED: BRANCH  49  50
DOCKED: ATOM     50  C   UNL d   1     -13.209  10.482   7.449 -0.39 -0.04    +0.125 C 
DOCKED: BRANCH  50  51
DOCKED: ATOM     51  C   UNL d   1     -13.449   9.466   8.530 -0.30 -0.03    +0.305 C 
DOCKED: ATOM     52  O   UNL d   1     -12.669   8.628   8.948 -0.98 -0.04    -0.251 OA
DOCKED: BRANCH  51  53
DOCKED: ATOM     53  O   UNL d   1     -14.695   9.552   9.035 -0.12 +0.06    -0.481 OA
DOCKED: ATOM     54  H   UNL d   1     -14.781  10.491   9.301 +0.09 -0.11    +0.295 HD
DOCKED: ENDBRANCH  51  53
DOCKED: ENDBRANCH  50  51
DOCKED: ENDBRANCH  49  50
DOCKED: ENDBRANCH  22  49
DOCKED: TORSDOF 13
DOCKED: TER
DOCKED: ENDMDL
________________________________________________________________________________


	BEGINNING GENETIC ALGORITHM DOCKING 76 of 100
Run: 76 Seed: 816521505 1152258349 [ Run 76 of 100 GA/GALS ]
Beginning LAMARCKIAN GENETIC ALGORITHM (LGA), with a maximum of 25000000 energy evaluations.

Final-Value: -10.860


	FINAL GENETIC ALGORITHM DOCKED STATE
	_______________________________________________


Detailed state:  trans -10.375 13.405 -12.114 quatxyzw -0.634056 0.257402 -0.355599 0.636606 center 0.153 0.018 -0.028 ntor 13 111.9734 43.1872 108.8249 19.8954 180.0000 94.8796 -47.0975 -180.0000 -21.4436 -127.3232 -0.2905 180.0000 -7.0080
State:	-10.375  13.405 -12.114  -0.822  0.334 -0.461 100.922    111.97   43.19  108.82   19.90  180.00   94.88  -47.10 -180.00  -21.44 -127.32   -0.29  180.00   -7.01

DOCKED: MODEL       76
DOCKED: USER    Run = 76
DOCKED: USER    DPF = D:/Protein_go_brrr/autodock/final/mut_D99N/heme/dock.dpf
DOCKED: USER  
DOCKED: USER    Estimated Free Energy of Binding    =   -4.88 kcal/mol  [=(1)+(2)+(3)-(4)]
DOCKED: USER    Estimated Inhibition Constant, Ki   =  263.05 uM (micromolar)  [Temperature = 298.15 K]
DOCKED: USER    
DOCKED: USER    (1) Final Intermolecular Energy     =   -8.76 kcal/mol
DOCKED: USER        vdW + Hbond + desolv Energy     =   -8.55 kcal/mol
DOCKED: USER        Electrostatic Energy            =   -0.21 kcal/mol
DOCKED: USER    (2) Final Total Internal Energy     =   -2.10 kcal/mol
DOCKED: USER    (3) Torsional Free Energy           =   +3.88 kcal/mol
DOCKED: USER    (4) Unbound System's Energy  [=(2)] =   -2.10 kcal/mol
DOCKED: USER    
DOCKED: USER    
DOCKED: USER    NEWDPF move heme_opt.pdbqt
DOCKED: USER    NEWDPF about 0.153000 0.018000 -0.028000
DOCKED: USER    NEWDPF tran0 -10.375227 13.405172 -12.114075
DOCKED: USER    NEWDPF quaternion0 -0.634056 0.257402 -0.355599 0.636606
DOCKED: USER    NEWDPF axisangle0 -0.822179 0.333773 -0.461104 100.921645
DOCKED: USER    NEWDPF quat0 -0.822179 0.333773 -0.461104 100.921645
DOCKED: USER    NEWDPF dihe0 111.97 43.19 108.82 19.90 180.00 94.88 -47.10 -180.00 -21.44 -127.32 -0.29 180.00 -7.01 
DOCKED: USER  keepresnum = 1 
DOCKED: USER  
DOCKED: REMARK  13 active torsions:
DOCKED: REMARK  status: ('A' for Active; 'I' for Inactive)
DOCKED: REMARK    1  A    between atoms: O_3  and  C_38 
DOCKED: REMARK    2  A    between atoms: O_4  and  C_40 
DOCKED: REMARK    3  A    between atoms: O_7  and  C_46 
DOCKED: REMARK    4  A    between atoms: O_9  and  C_48 
DOCKED: REMARK    5  A    between atoms: C_15  and  C_20 
DOCKED: REMARK    6  A    between atoms: C_16  and  C_23 
DOCKED: REMARK    7  A    between atoms: C_20  and  C_38 
DOCKED: REMARK    8  A    between atoms: C_23  and  C_40 
DOCKED: REMARK    9  A    between atoms: C_32  and  C_41 
DOCKED: REMARK   10  A    between atoms: C_37  and  C_45 
DOCKED: REMARK   11  A    between atoms: C_41  and  C_44 
DOCKED: REMARK   12  A    between atoms: C_44  and  C_46 
DOCKED: REMARK   13  A    between atoms: C_47  and  C_48 
DOCKED: USER                              x       y       z     vdW  Elec       q    Type
DOCKED: USER                           _______ _______ _______ _____ _____    ______ ____
DOCKED: ROOT
DOCKED: ATOM      1  O   UNL d   1     -15.060  11.958 -15.388 -0.09 +0.22    -0.289 OA
DOCKED: ATOM      2  O   UNL d   1      -8.427  14.909 -17.308 -0.03 +0.04    -0.289 OA
DOCKED: ATOM      3  N   UNL d   1     -12.637  12.773 -13.072 +0.09 +0.16    -0.247 NA
DOCKED: ATOM      4  N   UNL d   1     -10.320  13.561 -14.757 -0.19 +0.12    -0.247 NA
DOCKED: ATOM      5  N   UNL d   1      -8.674  13.402 -12.405 -0.13 +0.10    -0.354 N 
DOCKED: ATOM      6  N   UNL d   1     -11.079  12.566 -10.668 -0.11 +0.10    -0.354 N 
DOCKED: ATOM      7  C   UNL d   1     -14.812  11.647 -12.976 -0.18 -0.05    +0.084 A 
DOCKED: ATOM      8  C   UNL d   1     -10.803  14.412 -16.996 -0.08 -0.03    +0.084 A 
DOCKED: ATOM      9  C   UNL d   1     -11.306  13.786 -15.691 -0.18 -0.03    +0.058 A 
DOCKED: ATOM     10  C   UNL d   1     -13.559  12.146 -12.251 -0.23 -0.03    +0.058 A 
DOCKED: ATOM     11  C   UNL d   1     -14.443  12.119 -14.350 -0.14 -0.13    +0.193 A 
DOCKED: ATOM     12  C   UNL d   1     -13.116  12.808 -14.273 -0.17 -0.08    +0.109 A 
DOCKED: ATOM     13  C   UNL d   1      -9.343  14.466 -16.644 -0.07 -0.04    +0.193 A 
DOCKED: ATOM     14  C   UNL d   1     -14.901  10.119 -12.984 -0.27 -0.02    +0.026 C 
DOCKED: ATOM     15  C   UNL d   1     -12.589  13.441 -15.498 -0.18 -0.04    +0.055 C 
DOCKED: ATOM     16  C   UNL d   1     -11.320  15.843 -17.175 -0.02 -0.01    +0.026 C 
DOCKED: ATOM     17  C   UNL d   1      -9.183  13.914 -15.265 -0.15 -0.02    +0.109 A 
DOCKED: ATOM     18  C   UNL d   1     -13.435  12.050 -10.913 -0.30 -0.02    +0.050 C 
DOCKED: ATOM     19  C   UNL d   1     -12.354  12.558 -10.149 -0.28 -0.01    +0.045 A 
DOCKED: ATOM     20  C   UNL d   1      -7.703  13.545 -13.362 -0.16 -0.01    +0.045 A 
DOCKED: ATOM     21  C   UNL d   1      -7.844  13.801 -14.667 -0.14 -0.01    +0.057 C 
DOCKED: ATOM     22  C   UNL d   1      -6.702  13.120 -11.353 -0.23 +0.00    -0.019 A 
DOCKED: ATOM     23  C   UNL d   1      -8.166  13.143 -11.160 -0.28 -0.01    +0.045 A 
DOCKED: ATOM     24  C   UNL d   1      -6.434  13.360 -12.659 -0.15 +0.00    -0.022 A 
DOCKED: ATOM     25  C   UNL d   1     -10.178  13.013  -9.730 -0.07 -0.01    +0.049 A 
DOCKED: ATOM     26  C   UNL d   1     -12.285  13.046  -8.853 -0.25 +0.00    -0.018 A 
DOCKED: ATOM     27  C   UNL d   1     -10.912  13.350  -8.601 -0.21 -0.00    +0.003 A 
DOCKED: ATOM     28  C   UNL d   1      -8.780  12.963  -9.980 -0.28 -0.00    +0.052 C 
DOCKED: ATOM     29  C   UNL d   1      -5.111  13.448 -13.339 -0.10 -0.00    +0.046 C 
DOCKED: ATOM     30  C   UNL d   1     -13.423  13.223  -7.906 -0.27 -0.01    +0.046 C 
DOCKED: ATOM     31  H   UNL d   1      -9.652  13.561 -12.620 -0.20 -0.07    +0.166 HD
DOCKED: ATOM     32  H   UNL d   1     -10.853  12.244 -11.602 -0.51 -0.11    +0.166 HD
DOCKED: ENDROOT
DOCKED: BRANCH   7  33
DOCKED: ATOM     33  C   UNL d   1     -16.130  12.284 -12.524 -0.05 -0.05    +0.141 C 
DOCKED: BRANCH  33  34
DOCKED: ATOM     34  C   UNL d   1     -15.940  13.661 -11.948 -0.00 -0.08    +0.306 C 
DOCKED: ATOM     35  O   UNL d   1     -16.321  14.043 -10.854 -0.01 +0.06    -0.251 OA
DOCKED: BRANCH  34  36
DOCKED: ATOM     36  O   UNL d   1     -15.278  14.485 -12.780 +0.01 +0.11    -0.481 OA
DOCKED: ATOM     37  H   UNL d   1     -14.358  14.144 -12.783 +0.04 -0.08    +0.295 HD
DOCKED: ENDBRANCH  34  36
DOCKED: ENDBRANCH  33  34
DOCKED: ENDBRANCH   7  33
DOCKED: BRANCH  27  38
DOCKED: ATOM     38  C   UNL d   1     -10.393  13.867  -7.370 -0.28 -0.00    +0.017 C 
DOCKED: ATOM     39  C   UNL d   1     -10.827  13.532  -6.146 -0.37 -0.00    +0.092 C 
DOCKED: BRANCH  39  40
DOCKED: ATOM     40  C   UNL d   1     -10.198  14.122  -4.961 -0.21 -0.00    +0.330 C 
DOCKED: ATOM     41  O   UNL d   1     -10.540  15.121  -4.357 -0.16 -0.01    -0.246 OA
DOCKED: BRANCH  40  42
DOCKED: ATOM     42  O   UNL d   1      -9.139  13.387  -4.586 -0.20 +0.00    -0.477 OA
DOCKED: ATOM     43  H   UNL d   1      -9.222  13.338  -3.612 -0.15 -0.06    +0.295 HD
DOCKED: ENDBRANCH  40  42
DOCKED: ENDBRANCH  39  40
DOCKED: ENDBRANCH  27  38
DOCKED: BRANCH   8  44
DOCKED: ATOM     44  C   UNL d   1     -11.033  13.578 -18.260 -0.09 -0.07    +0.141 C 
DOCKED: BRANCH  44  45
DOCKED: ATOM     45  C   UNL d   1     -10.456  14.207 -19.500 -0.01 -0.08    +0.306 C 
DOCKED: ATOM     46  O   UNL d   1     -11.029  14.963 -20.266 -0.00 +0.04    -0.251 OA
DOCKED: BRANCH  45  47
DOCKED: ATOM     47  O   UNL d   1      -9.186  13.826 -19.727 +0.01 +0.09    -0.481 OA
DOCKED: ATOM     48  H   UNL d   1      -8.662  14.286 -19.037 +0.03 -0.05    +0.295 HD
DOCKED: ENDBRANCH  45  47
DOCKED: ENDBRANCH  44  45
DOCKED: ENDBRANCH   8  44
DOCKED: BRANCH  22  49
DOCKED: ATOM     49  C   UNL d   1      -5.711  12.854 -10.258 -0.24 -0.00    +0.048 C 
DOCKED: BRANCH  49  50
DOCKED: ATOM     50  C   UNL d   1      -5.267  14.143  -9.567 -0.18 -0.00    +0.125 C 
DOCKED: BRANCH  50  51
DOCKED: ATOM     51  C   UNL d   1      -4.266  13.855  -8.485 -0.20 -0.03    +0.305 C 
DOCKED: ATOM     52  O   UNL d   1      -3.639  14.659  -7.818 -0.26 +0.02    -0.251 OA
DOCKED: BRANCH  51  53
DOCKED: ATOM     53  O   UNL d   1      -4.093  12.531  -8.299 -0.25 +0.04    -0.481 OA
DOCKED: ATOM     54  H   UNL d   1      -3.698  12.466  -7.404 -0.41 -0.07    +0.295 HD
DOCKED: ENDBRANCH  51  53
DOCKED: ENDBRANCH  50  51
DOCKED: ENDBRANCH  49  50
DOCKED: ENDBRANCH  22  49
DOCKED: TORSDOF 13
DOCKED: TER
DOCKED: ENDMDL
________________________________________________________________________________


	BEGINNING GENETIC ALGORITHM DOCKING 77 of 100
Run: 77 Seed: 406155147 404995605 [ Run 77 of 100 GA/GALS ]
Beginning LAMARCKIAN GENETIC ALGORITHM (LGA), with a maximum of 25000000 energy evaluations.

Final-Value: -14.349


	FINAL GENETIC ALGORITHM DOCKED STATE
	_______________________________________________


Detailed state:  trans 13.825 -9.853 8.115 quatxyzw 0.958656 -0.182610 -0.175443 0.129815 center 0.153 0.018 -0.028 ntor 13 -92.0516 -149.4359 128.5765 -67.5554 30.9312 -23.6572 -49.1989 -1.4422 134.2212 -152.8101 -55.0938 -54.6946 8.4070
State:	 13.825  -9.853   8.115   0.967 -0.184 -0.177 165.082    -92.05 -149.44  128.58  -67.56   30.93  -23.66  -49.20   -1.44  134.22 -152.81  -55.09  -54.69    8.41

DOCKED: MODEL       77
DOCKED: USER    Run = 77
DOCKED: USER    DPF = D:/Protein_go_brrr/autodock/final/mut_D99N/heme/dock.dpf
DOCKED: USER  
DOCKED: USER    Estimated Free Energy of Binding    =   -6.17 kcal/mol  [=(1)+(2)+(3)-(4)]
DOCKED: USER    Estimated Inhibition Constant, Ki   =   29.96 uM (micromolar)  [Temperature = 298.15 K]
DOCKED: USER    
DOCKED: USER    (1) Final Intermolecular Energy     =  -10.05 kcal/mol
DOCKED: USER        vdW + Hbond + desolv Energy     =   -9.86 kcal/mol
DOCKED: USER        Electrostatic Energy            =   -0.18 kcal/mol
DOCKED: USER    (2) Final Total Internal Energy     =   -4.30 kcal/mol
DOCKED: USER    (3) Torsional Free Energy           =   +3.88 kcal/mol
DOCKED: USER    (4) Unbound System's Energy  [=(2)] =   -4.30 kcal/mol
DOCKED: USER    
DOCKED: USER    
DOCKED: USER    NEWDPF move heme_opt.pdbqt
DOCKED: USER    NEWDPF about 0.153000 0.018000 -0.028000
DOCKED: USER    NEWDPF tran0 13.825249 -9.852824 8.115394
DOCKED: USER    NEWDPF quaternion0 0.958656 -0.182610 -0.175443 0.129815
DOCKED: USER    NEWDPF axisangle0 0.966837 -0.184168 -0.176940 165.082243
DOCKED: USER    NEWDPF quat0 0.966837 -0.184168 -0.176940 165.082243
DOCKED: USER    NEWDPF dihe0 -92.05 -149.44 128.58 -67.56 30.93 -23.66 -49.20 -1.44 134.22 -152.81 -55.09 -54.69 8.41 
DOCKED: USER  keepresnum = 1 
DOCKED: USER  
DOCKED: REMARK  13 active torsions:
DOCKED: REMARK  status: ('A' for Active; 'I' for Inactive)
DOCKED: REMARK    1  A    between atoms: O_3  and  C_38 
DOCKED: REMARK    2  A    between atoms: O_4  and  C_40 
DOCKED: REMARK    3  A    between atoms: O_7  and  C_46 
DOCKED: REMARK    4  A    between atoms: O_9  and  C_48 
DOCKED: REMARK    5  A    between atoms: C_15  and  C_20 
DOCKED: REMARK    6  A    between atoms: C_16  and  C_23 
DOCKED: REMARK    7  A    between atoms: C_20  and  C_38 
DOCKED: REMARK    8  A    between atoms: C_23  and  C_40 
DOCKED: REMARK    9  A    between atoms: C_32  and  C_41 
DOCKED: REMARK   10  A    between atoms: C_37  and  C_45 
DOCKED: REMARK   11  A    between atoms: C_41  and  C_44 
DOCKED: REMARK   12  A    between atoms: C_44  and  C_46 
DOCKED: REMARK   13  A    between atoms: C_47  and  C_48 
DOCKED: USER                              x       y       z     vdW  Elec       q    Type
DOCKED: USER                           _______ _______ _______ _____ _____    ______ ____
DOCKED: ROOT
DOCKED: ATOM      1  O   UNL d   1       8.078  -9.461   9.370 -0.63 +0.27    -0.289 OA
DOCKED: ATOM      2  O   UNL d   1      13.883  -5.178  11.459 -0.12 +0.08    -0.289 OA
DOCKED: ATOM      3  N   UNL d   1      11.336 -10.168   8.484 -0.16 +0.09    -0.247 NA
DOCKED: ATOM      4  N   UNL d   1      12.843  -7.810   9.484 -0.18 +0.10    -0.247 NA
DOCKED: ATOM      5  N   UNL d   1      15.079  -8.686   7.904 +0.07 +0.17    -0.354 N 
DOCKED: ATOM      6  N   UNL d   1      13.502 -11.118   6.857 -0.10 +0.17    -0.354 N 
DOCKED: ATOM      7  C   UNL d   1       9.146 -11.109   7.915 -0.25 -0.03    +0.084 A 
DOCKED: ATOM      8  C   UNL d   1      11.883  -6.587  11.369 -0.17 -0.04    +0.084 A 
DOCKED: ATOM      9  C   UNL d   1      11.753  -7.695  10.318 -0.24 -0.03    +0.058 A 
DOCKED: ATOM     10  C   UNL d   1      10.668 -11.131   7.747 -0.24 -0.02    +0.058 A 
DOCKED: ATOM     11  C   UNL d   1       9.073  -9.976   8.893 -0.10 -0.08    +0.193 A 
DOCKED: ATOM     12  C   UNL d   1      10.467  -9.508   9.178 -0.17 -0.04    +0.109 A 
DOCKED: ATOM     13  C   UNL d   1      13.231  -6.070  10.952 -0.16 -0.07    +0.193 A 
DOCKED: ATOM     14  C   UNL d   1       8.430 -10.698   6.626 -0.54 -0.01    +0.026 C 
DOCKED: ATOM     15  C   UNL d   1      10.652  -8.450  10.192 -0.19 -0.03    +0.055 C 
DOCKED: ATOM     16  C   UNL d   1      11.990  -7.157  12.786 -0.06 -0.01    +0.026 C 
DOCKED: ATOM     17  C   UNL d   1      13.700  -6.891   9.795 -0.23 -0.04    +0.109 A 
DOCKED: ATOM     18  C   UNL d   1      11.280 -12.075   7.009 -0.25 -0.01    +0.050 C 
DOCKED: ATOM     19  C   UNL d   1      12.683 -12.225   6.864 -0.19 -0.02    +0.045 A 
DOCKED: ATOM     20  C   UNL d   1      15.528  -7.446   8.280 -0.25 -0.02    +0.045 A 
DOCKED: ATOM     21  C   UNL d   1      14.982  -6.584   9.144 -0.20 -0.02    +0.057 C 
DOCKED: ATOM     22  C   UNL d   1      16.990  -8.332   6.765 -0.30 +0.00    -0.019 A 
DOCKED: ATOM     23  C   UNL d   1      15.897  -9.298   6.991 -0.24 -0.01    +0.045 A 
DOCKED: ATOM     24  C   UNL d   1      16.767  -7.238   7.532 -0.28 +0.00    -0.022 A 
DOCKED: ATOM     25  C   UNL d   1      14.806 -11.484   6.614 -0.22 -0.02    +0.049 A 
DOCKED: ATOM     26  C   UNL d   1      13.479 -13.341   6.658 -0.13 +0.01    -0.018 A 
DOCKED: ATOM     27  C   UNL d   1      14.821 -12.869   6.521 -0.13 -0.00    +0.003 A 
DOCKED: ATOM     28  C   UNL d   1      15.812 -10.502   6.405 -0.31 -0.02    +0.052 C 
DOCKED: ATOM     29  C   UNL d   1      17.593  -6.004   7.659 -0.21 -0.00    +0.046 C 
DOCKED: ATOM     30  C   UNL d   1      13.024 -14.759   6.594 -0.10 -0.01    +0.046 C 
DOCKED: ATOM     31  H   UNL d   1      14.266  -9.106   8.340 -0.28 -0.09    +0.166 HD
DOCKED: ATOM     32  H   UNL d   1      13.165 -10.170   6.974 -0.45 -0.13    +0.166 HD
DOCKED: ENDROOT
DOCKED: BRANCH   7  33
DOCKED: ATOM     33  C   UNL d   1       8.533 -12.379   8.517 -0.16 -0.04    +0.141 C 
DOCKED: BRANCH  33  34
DOCKED: ATOM     34  C   UNL d   1       7.033 -12.309   8.613 -0.15 -0.09    +0.306 C 
DOCKED: ATOM     35  O   UNL d   1       6.241 -12.588   7.729 -0.17 +0.05    -0.251 OA
DOCKED: BRANCH  34  36
DOCKED: ATOM     36  O   UNL d   1       6.610 -11.894   9.820 -0.29 +0.25    -0.481 OA
DOCKED: ATOM     37  H   UNL d   1       6.627 -10.915   9.764 -0.16 -0.32    +0.295 HD
DOCKED: ENDBRANCH  34  36
DOCKED: ENDBRANCH  33  34
DOCKED: ENDBRANCH   7  33
DOCKED: BRANCH  27  38
DOCKED: ATOM     38  C   UNL d   1      15.966 -13.695   6.278 -0.10 -0.01    +0.017 C 
DOCKED: ATOM     39  C   UNL d   1      17.148 -13.263   5.815 -0.11 -0.04    +0.092 C 
DOCKED: BRANCH  39  40
DOCKED: ATOM     40  C   UNL d   1      18.249 -14.211   5.627 -0.03 -0.07    +0.330 C 
DOCKED: ATOM     41  O   UNL d   1      18.428 -15.267   6.203 -0.01 +0.03    -0.246 OA
DOCKED: BRANCH  40  42
DOCKED: ATOM     42  O   UNL d   1      19.088 -13.763   4.680 -0.02 +0.06    -0.477 OA
DOCKED: ATOM     43  H   UNL d   1      19.024 -12.788   4.752 +0.08 -0.03    +0.295 HD
DOCKED: ENDBRANCH  40  42
DOCKED: ENDBRANCH  39  40
DOCKED: ENDBRANCH  27  38
DOCKED: BRANCH   8  44
DOCKED: ATOM     44  C   UNL d   1      10.825  -5.480  11.296 -0.27 -0.09    +0.141 C 
DOCKED: BRANCH  44  45
DOCKED: ATOM     45  C   UNL d   1      10.646  -4.743  12.596 -0.10 -0.16    +0.306 C 
DOCKED: ATOM     46  O   UNL d   1       9.832  -4.994  13.468 -0.07 +0.15    -0.251 OA
DOCKED: BRANCH  45  47
DOCKED: ATOM     47  O   UNL d   1      11.490  -3.702  12.718 -0.45 +0.08    -0.481 OA
DOCKED: ATOM     48  H   UNL d   1      12.377  -4.082  12.544 +0.06 -0.06    +0.295 HD
DOCKED: ENDBRANCH  45  47
DOCKED: ENDBRANCH  44  45
DOCKED: ENDBRANCH   8  44
DOCKED: BRANCH  22  49
DOCKED: ATOM     49  C   UNL d   1      18.132  -8.559   5.819 -0.20 +0.01    +0.048 C 
DOCKED: BRANCH  49  50
DOCKED: ATOM     50  C   UNL d   1      19.149  -9.551   6.382 -0.22 +0.03    +0.125 C 
DOCKED: BRANCH  50  51
DOCKED: ATOM     51  C   UNL d   1      19.389 -10.679   5.419 -0.18 +0.06    +0.305 C 
DOCKED: ATOM     52  O   UNL d   1      18.789 -10.913   4.384 -0.33 -0.01    -0.251 OA
DOCKED: BRANCH  51  53
DOCKED: ATOM     53  O   UNL d   1      20.392 -11.484   5.824 -0.05 -0.15    -0.481 OA
DOCKED: ATOM     54  H   UNL d   1      19.945 -12.327   6.045 +0.06 +0.04    +0.295 HD
DOCKED: ENDBRANCH  51  53
DOCKED: ENDBRANCH  50  51
DOCKED: ENDBRANCH  49  50
DOCKED: ENDBRANCH  22  49
DOCKED: TORSDOF 13
DOCKED: TER
DOCKED: ENDMDL
________________________________________________________________________________


	BEGINNING GENETIC ALGORITHM DOCKING 78 of 100
Run: 78 Seed: 1011965940 492059768 [ Run 78 of 100 GA/GALS ]
Beginning LAMARCKIAN GENETIC ALGORITHM (LGA), with a maximum of 25000000 energy evaluations.

Final-Value: -11.847


	FINAL GENETIC ALGORITHM DOCKED STATE
	_______________________________________________


Detailed state:  trans -11.859 13.097 -11.969 quatxyzw 0.526966 0.446240 0.217917 0.689702 center 0.153 0.018 -0.028 ntor 13 116.0856 -177.7435 -79.1400 42.1614 -132.6523 -106.2414 164.2667 23.3821 -6.4580 -98.4900 -88.6299 40.8503 3.2308
State:	-11.859  13.097 -11.969   0.728  0.616  0.301 92.787    116.09 -177.74  -79.14   42.16 -132.65 -106.24  164.27   23.38   -6.46  -98.49  -88.63   40.85    3.23

DOCKED: MODEL       78
DOCKED: USER    Run = 78
DOCKED: USER    DPF = D:/Protein_go_brrr/autodock/final/mut_D99N/heme/dock.dpf
DOCKED: USER  
DOCKED: USER    Estimated Free Energy of Binding    =   -3.91 kcal/mol  [=(1)+(2)+(3)-(4)]
DOCKED: USER    Estimated Inhibition Constant, Ki   =    1.37 mM (millimolar)  [Temperature = 298.15 K]
DOCKED: USER    
DOCKED: USER    (1) Final Intermolecular Energy     =   -7.78 kcal/mol
DOCKED: USER        vdW + Hbond + desolv Energy     =   -7.44 kcal/mol
DOCKED: USER        Electrostatic Energy            =   -0.35 kcal/mol
DOCKED: USER    (2) Final Total Internal Energy     =   -4.06 kcal/mol
DOCKED: USER    (3) Torsional Free Energy           =   +3.88 kcal/mol
DOCKED: USER    (4) Unbound System's Energy  [=(2)] =   -4.06 kcal/mol
DOCKED: USER    
DOCKED: USER    
DOCKED: USER    NEWDPF move heme_opt.pdbqt
DOCKED: USER    NEWDPF about 0.153000 0.018000 -0.028000
DOCKED: USER    NEWDPF tran0 -11.859272 13.096712 -11.968735
DOCKED: USER    NEWDPF quaternion0 0.526966 0.446240 0.217917 0.689702
DOCKED: USER    NEWDPF axisangle0 0.727760 0.616274 0.300952 92.786881
DOCKED: USER    NEWDPF quat0 0.727760 0.616274 0.300952 92.786881
DOCKED: USER    NEWDPF dihe0 116.09 -177.74 -79.14 42.16 -132.65 -106.24 164.27 23.38 -6.46 -98.49 -88.63 40.85 3.23 
DOCKED: USER  keepresnum = 1 
DOCKED: USER  
DOCKED: REMARK  13 active torsions:
DOCKED: REMARK  status: ('A' for Active; 'I' for Inactive)
DOCKED: REMARK    1  A    between atoms: O_3  and  C_38 
DOCKED: REMARK    2  A    between atoms: O_4  and  C_40 
DOCKED: REMARK    3  A    between atoms: O_7  and  C_46 
DOCKED: REMARK    4  A    between atoms: O_9  and  C_48 
DOCKED: REMARK    5  A    between atoms: C_15  and  C_20 
DOCKED: REMARK    6  A    between atoms: C_16  and  C_23 
DOCKED: REMARK    7  A    between atoms: C_20  and  C_38 
DOCKED: REMARK    8  A    between atoms: C_23  and  C_40 
DOCKED: REMARK    9  A    between atoms: C_32  and  C_41 
DOCKED: REMARK   10  A    between atoms: C_37  and  C_45 
DOCKED: REMARK   11  A    between atoms: C_41  and  C_44 
DOCKED: REMARK   12  A    between atoms: C_44  and  C_46 
DOCKED: REMARK   13  A    between atoms: C_47  and  C_48 
DOCKED: USER                              x       y       z     vdW  Elec       q    Type
DOCKED: USER                           _______ _______ _______ _____ _____    ______ ____
DOCKED: ROOT
DOCKED: ATOM      1  O   UNL d   1     -13.651  13.332 -17.580 -0.06 +0.21    -0.289 OA
DOCKED: ATOM      2  O   UNL d   1     -16.332   9.497 -11.708 -0.16 +0.25    -0.289 OA
DOCKED: ATOM      3  N   UNL d   1     -12.168  13.405 -14.467 -0.13 +0.15    -0.247 NA
DOCKED: ATOM      4  N   UNL d   1     -14.065  11.871 -12.771 -0.17 +0.14    -0.247 NA
DOCKED: ATOM      5  N   UNL d   1     -12.681  12.888 -10.465 -0.12 +0.10    -0.354 N 
DOCKED: ATOM      6  N   UNL d   1     -10.729  14.491 -12.232 -0.05 +0.10    -0.354 N 
DOCKED: ATOM      7  C   UNL d   1     -11.806  14.588 -16.583 -0.07 -0.03    +0.084 A 
DOCKED: ATOM      8  C   UNL d   1     -15.466  10.207 -13.884 -0.19 -0.06    +0.084 A 
DOCKED: ATOM      9  C   UNL d   1     -14.437  11.338 -13.985 -0.24 -0.05    +0.058 A 
DOCKED: ATOM     10  C   UNL d   1     -11.410  14.362 -15.121 -0.12 -0.02    +0.058 A 
DOCKED: ATOM     11  C   UNL d   1     -12.911  13.576 -16.645 -0.07 -0.14    +0.193 A 
DOCKED: ATOM     12  C   UNL d   1     -13.015  12.908 -15.309 -0.16 -0.09    +0.109 A 
DOCKED: ATOM     13  C   UNL d   1     -15.636  10.222 -12.391 -0.15 -0.14    +0.193 A 
DOCKED: ATOM     14  C   UNL d   1     -12.398  15.982 -16.808 -0.01 -0.01    +0.026 C 
DOCKED: ATOM     15  C   UNL d   1     -13.981  11.801 -15.159 -0.12 -0.06    +0.055 C 
DOCKED: ATOM     16  C   UNL d   1     -14.869   8.858 -14.298 -0.28 -0.03    +0.026 C 
DOCKED: ATOM     17  C   UNL d   1     -14.738  11.280 -11.837 -0.21 -0.06    +0.109 A 
DOCKED: ATOM     18  C   UNL d   1     -10.352  14.989 -14.574 -0.10 -0.01    +0.050 C 
DOCKED: ATOM     19  C   UNL d   1      -9.861  14.780 -13.260 -0.10 -0.01    +0.045 A 
DOCKED: ATOM     20  C   UNL d   1     -13.766  12.314  -9.855 -0.20 -0.02    +0.045 A 
DOCKED: ATOM     21  C   UNL d   1     -14.725  11.554 -10.393 -0.12 -0.03    +0.057 C 
DOCKED: ATOM     22  C   UNL d   1     -12.563  13.467  -8.292 -0.21 +0.00    -0.019 A 
DOCKED: ATOM     23  C   UNL d   1     -11.896  13.605  -9.602 -0.19 -0.01    +0.045 A 
DOCKED: ATOM     24  C   UNL d   1     -13.668  12.700  -8.448 -0.26 +0.01    -0.022 A 
DOCKED: ATOM     25  C   UNL d   1     -10.054  14.418 -11.035 -0.14 -0.01    +0.049 A 
DOCKED: ATOM     26  C   UNL d   1      -8.584  14.861 -12.725 -0.10 +0.00    -0.018 A 
DOCKED: ATOM     27  C   UNL d   1      -8.710  14.612 -11.323 -0.12 -0.00    +0.003 A 
DOCKED: ATOM     28  C   UNL d   1     -10.758  14.285  -9.808 -0.17 -0.01    +0.052 C 
DOCKED: ATOM     29  C   UNL d   1     -14.658  12.270  -7.419 -0.31 -0.01    +0.046 C 
DOCKED: ATOM     30  C   UNL d   1      -7.324  15.150 -13.467 -0.07 -0.00    +0.046 C 
DOCKED: ATOM     31  H   UNL d   1     -12.471  12.709 -11.441 -0.01 -0.07    +0.166 HD
DOCKED: ATOM     32  H   UNL d   1     -11.729  14.390 -12.355 +0.02 -0.05    +0.166 HD
DOCKED: ENDROOT
DOCKED: BRANCH   7  33
DOCKED: ATOM     33  C   UNL d   1     -10.721  14.264 -17.616 -0.08 -0.05    +0.141 C 
DOCKED: BRANCH  33  34
DOCKED: ATOM     34  C   UNL d   1      -9.966  13.005 -17.287 -0.15 -0.14    +0.306 C 
DOCKED: ATOM     35  O   UNL d   1      -9.077  12.893 -16.460 -0.70 +0.04    -0.251 OA
DOCKED: BRANCH  34  36
DOCKED: ATOM     36  O   UNL d   1     -10.373  11.951 -18.016 -0.10 +0.44    -0.481 OA
DOCKED: ATOM     37  H   UNL d   1     -11.292  11.783 -17.716 -0.51 -0.62    +0.295 HD
DOCKED: ENDBRANCH  34  36
DOCKED: ENDBRANCH  33  34
DOCKED: ENDBRANCH   7  33
DOCKED: BRANCH  27  38
DOCKED: ATOM     38  C   UNL d   1      -7.629  14.616 -10.384 -0.14 -0.00    +0.017 C 
DOCKED: ATOM     39  C   UNL d   1      -7.042  13.523  -9.874 -0.23 -0.00    +0.092 C 
DOCKED: BRANCH  39  40
DOCKED: ATOM     40  C   UNL d   1      -5.930  13.664  -8.931 -0.07 +0.01    +0.330 C 
DOCKED: ATOM     41  O   UNL d   1      -4.753  13.426  -9.129 -0.22 +0.01    -0.246 OA
DOCKED: BRANCH  40  42
DOCKED: ATOM     42  O   UNL d   1      -6.378  14.121  -7.752 -0.13 -0.02    -0.477 OA
DOCKED: ATOM     43  H   UNL d   1      -7.347  14.189  -7.880 +0.12 +0.02    +0.295 HD
DOCKED: ENDBRANCH  40  42
DOCKED: ENDBRANCH  39  40
DOCKED: ENDBRANCH  27  38
DOCKED: BRANCH   8  44
DOCKED: ATOM     44  C   UNL d   1     -16.801  10.462 -14.592 -0.05 -0.07    +0.141 C 
DOCKED: BRANCH  44  45
DOCKED: ATOM     45  C   UNL d   1     -17.970   9.804 -13.910 +0.00 -0.12    +0.306 C 
DOCKED: ATOM     46  O   UNL d   1     -18.953  10.361 -13.453 -0.00 +0.08    -0.251 OA
DOCKED: BRANCH  45  47
DOCKED: ATOM     47  O   UNL d   1     -17.826   8.469 -13.815 +0.02 +0.21    -0.481 OA
DOCKED: ATOM     48  H   UNL d   1     -17.522   8.318 -12.895 +0.09 -0.17    +0.295 HD
DOCKED: ENDBRANCH  45  47
DOCKED: ENDBRANCH  44  45
DOCKED: ENDBRANCH   8  44
DOCKED: BRANCH  22  49
DOCKED: ATOM     49  C   UNL d   1     -12.071  14.103  -7.025 -0.23 -0.00    +0.048 C 
DOCKED: BRANCH  49  50
DOCKED: ATOM     50  C   UNL d   1     -10.932  13.304  -6.392 -0.36 -0.01    +0.125 C 
DOCKED: BRANCH  50  51
DOCKED: ATOM     51  C   UNL d   1      -9.597  13.806  -6.867 -0.20 +0.00    +0.305 C 
DOCKED: ATOM     52  O   UNL d   1      -9.353  14.872  -7.404 -0.09 -0.00    -0.251 OA
DOCKED: BRANCH  51  53
DOCKED: ATOM     53  O   UNL d   1      -8.614  12.911  -6.645 -0.18 -0.03    -0.481 OA
DOCKED: ATOM     54  H   UNL d   1      -7.864  13.455  -6.326 +0.15 +0.05    +0.295 HD
DOCKED: ENDBRANCH  51  53
DOCKED: ENDBRANCH  50  51
DOCKED: ENDBRANCH  49  50
DOCKED: ENDBRANCH  22  49
DOCKED: TORSDOF 13
DOCKED: TER
DOCKED: ENDMDL
________________________________________________________________________________


	BEGINNING GENETIC ALGORITHM DOCKING 79 of 100
Run: 79 Seed: 1842909892 1785582914 [ Run 79 of 100 GA/GALS ]
Beginning LAMARCKIAN GENETIC ALGORITHM (LGA), with a maximum of 25000000 energy evaluations.

Final-Value: -10.151


	FINAL GENETIC ALGORITHM DOCKED STATE
	_______________________________________________


Detailed state:  trans -11.747 13.707 -11.854 quatxyzw -0.199036 -0.783663 0.438830 0.392027 center 0.153 0.018 -0.028 ntor 13 -96.5734 -54.6649 -148.6097 170.4880 30.8771 -119.4918 -51.2556 94.3091 125.8611 115.1487 -78.9999 -94.8867 -178.7123
State:	-11.747  13.707 -11.854  -0.216 -0.852  0.477 133.839    -96.57  -54.66 -148.61  170.49   30.88 -119.49  -51.26   94.31  125.86  115.15  -79.00  -94.89 -178.71

DOCKED: MODEL       79
DOCKED: USER    Run = 79
DOCKED: USER    DPF = D:/Protein_go_brrr/autodock/final/mut_D99N/heme/dock.dpf
DOCKED: USER  
DOCKED: USER    Estimated Free Energy of Binding    =   -4.64 kcal/mol  [=(1)+(2)+(3)-(4)]
DOCKED: USER    Estimated Inhibition Constant, Ki   =  398.72 uM (micromolar)  [Temperature = 298.15 K]
DOCKED: USER    
DOCKED: USER    (1) Final Intermolecular Energy     =   -8.52 kcal/mol
DOCKED: USER        vdW + Hbond + desolv Energy     =   -8.17 kcal/mol
DOCKED: USER        Electrostatic Energy            =   -0.35 kcal/mol
DOCKED: USER    (2) Final Total Internal Energy     =   -1.64 kcal/mol
DOCKED: USER    (3) Torsional Free Energy           =   +3.88 kcal/mol
DOCKED: USER    (4) Unbound System's Energy  [=(2)] =   -1.64 kcal/mol
DOCKED: USER    
DOCKED: USER    
DOCKED: USER    NEWDPF move heme_opt.pdbqt
DOCKED: USER    NEWDPF about 0.153000 0.018000 -0.028000
DOCKED: USER    NEWDPF tran0 -11.747212 13.707002 -11.854374
DOCKED: USER    NEWDPF quaternion0 -0.199036 -0.783663 0.438830 0.392027
DOCKED: USER    NEWDPF axisangle0 -0.216354 -0.851850 0.477013 133.838631
DOCKED: USER    NEWDPF quat0 -0.216354 -0.851850 0.477013 133.838631
DOCKED: USER    NEWDPF dihe0 -96.57 -54.66 -148.61 170.49 30.88 -119.49 -51.26 94.31 125.86 115.15 -79.00 -94.89 -178.71 
DOCKED: USER  keepresnum = 1 
DOCKED: USER  
DOCKED: REMARK  13 active torsions:
DOCKED: REMARK  status: ('A' for Active; 'I' for Inactive)
DOCKED: REMARK    1  A    between atoms: O_3  and  C_38 
DOCKED: REMARK    2  A    between atoms: O_4  and  C_40 
DOCKED: REMARK    3  A    between atoms: O_7  and  C_46 
DOCKED: REMARK    4  A    between atoms: O_9  and  C_48 
DOCKED: REMARK    5  A    between atoms: C_15  and  C_20 
DOCKED: REMARK    6  A    between atoms: C_16  and  C_23 
DOCKED: REMARK    7  A    between atoms: C_20  and  C_38 
DOCKED: REMARK    8  A    between atoms: C_23  and  C_40 
DOCKED: REMARK    9  A    between atoms: C_32  and  C_41 
DOCKED: REMARK   10  A    between atoms: C_37  and  C_45 
DOCKED: REMARK   11  A    between atoms: C_41  and  C_44 
DOCKED: REMARK   12  A    between atoms: C_44  and  C_46 
DOCKED: REMARK   13  A    between atoms: C_47  and  C_48 
DOCKED: USER                              x       y       z     vdW  Elec       q    Type
DOCKED: USER                           _______ _______ _______ _____ _____    ______ ____
DOCKED: ROOT
DOCKED: ATOM      1  O   UNL d   1      -6.912  14.245  -8.524 -0.16 -0.01    -0.289 OA
DOCKED: ATOM      2  O   UNL d   1     -13.991  12.529  -6.695 -0.80 +0.04    -0.289 OA
DOCKED: ATOM      3  N   UNL d   1      -9.474  14.179 -10.832 -0.10 +0.04    -0.247 NA
DOCKED: ATOM      4  N   UNL d   1     -11.773  13.126  -9.271 -0.16 +0.04    -0.247 NA
DOCKED: ATOM      5  N   UNL d   1     -13.153  12.710 -11.759 -0.11 +0.15    -0.354 N 
DOCKED: ATOM      6  N   UNL d   1     -10.756  13.786 -13.372 +0.06 +0.18    -0.354 N 
DOCKED: ATOM      7  C   UNL d   1      -7.045  14.478 -10.954 -0.09 -0.00    +0.084 A 
DOCKED: ATOM      8  C   UNL d   1     -11.748  13.497  -6.856 -0.26 -0.01    +0.084 A 
DOCKED: ATOM      9  C   UNL d   1     -11.037  13.601  -8.209 -0.19 -0.00    +0.058 A 
DOCKED: ATOM     10  C   UNL d   1      -8.394  14.386 -11.673 -0.13 -0.01    +0.058 A 
DOCKED: ATOM     11  C   UNL d   1      -7.557  14.305  -9.555 -0.11 -0.00    +0.193 A 
DOCKED: ATOM     12  C   UNL d   1      -9.046  14.159  -9.612 -0.15 -0.01    +0.109 A 
DOCKED: ATOM     13  C   UNL d   1     -13.009  12.840  -7.342 -0.25 -0.03    +0.193 A 
DOCKED: ATOM     14  C   UNL d   1      -6.130  13.300 -11.295 -0.21 -0.00    +0.026 C 
DOCKED: ATOM     15  C   UNL d   1      -9.785  14.068  -8.337 -0.22 -0.00    +0.055 C 
DOCKED: ATOM     16  C   UNL d   1     -12.098  14.877  -6.291 -0.19 -0.00    +0.026 C 
DOCKED: ATOM     17  C   UNL d   1     -12.895  12.663  -8.821 -0.23 -0.02    +0.109 A 
DOCKED: ATOM     18  C   UNL d   1      -8.498  14.584 -13.000 -0.14 -0.01    +0.050 C 
DOCKED: ATOM     19  C   UNL d   1      -9.710  14.602 -13.737 -0.12 -0.01    +0.045 A 
DOCKED: ATOM     20  C   UNL d   1     -14.002  12.054 -10.906 -0.23 -0.02    +0.045 A 
DOCKED: ATOM     21  C   UNL d   1     -13.973  12.002  -9.571 -0.15 -0.02    +0.057 C 
DOCKED: ATOM     22  C   UNL d   1     -14.684  11.686 -13.055 -0.21 +0.01    -0.019 A 
DOCKED: ATOM     23  C   UNL d   1     -13.484  12.546 -13.078 -0.18 -0.03    +0.045 A 
DOCKED: ATOM     24  C   UNL d   1     -14.987  11.399 -11.767 -0.21 +0.01    -0.022 A 
DOCKED: ATOM     25  C   UNL d   1     -11.792  13.896 -14.271 -0.13 -0.02    +0.049 A 
DOCKED: ATOM     26  C   UNL d   1     -10.088  15.287 -14.881 -0.07 +0.00    -0.018 A 
DOCKED: ATOM     27  C   UNL d   1     -11.411  14.852 -15.202 -0.08 -0.00    +0.003 A 
DOCKED: ATOM     28  C   UNL d   1     -12.920  13.035 -14.192 -0.17 -0.03    +0.052 C 
DOCKED: ATOM     29  C   UNL d   1     -16.112  10.579 -11.233 -0.21 -0.03    +0.046 C 
DOCKED: ATOM     30  C   UNL d   1      -9.274  16.286 -15.631 -0.02 -0.01    +0.046 C 
DOCKED: ATOM     31  H   UNL d   1     -12.415  13.311 -11.408 +0.03 -0.06    +0.166 HD
DOCKED: ATOM     32  H   UNL d   1     -10.731  13.166 -12.571 -0.52 -0.12    +0.166 HD
DOCKED: ENDROOT
DOCKED: BRANCH   7  33
DOCKED: ATOM     33  C   UNL d   1      -6.314  15.818 -11.097 -0.02 -0.00    +0.141 C 
DOCKED: BRANCH  33  34
DOCKED: ATOM     34  C   UNL d   1      -5.077  15.897 -10.244 -0.01 -0.01    +0.306 C 
DOCKED: ATOM     35  O   UNL d   1      -3.968  15.488 -10.544 -0.02 +0.01    -0.251 OA
DOCKED: BRANCH  34  36
DOCKED: ATOM     36  O   UNL d   1      -5.302  16.490  -9.058 -0.00 -0.00    -0.481 OA
DOCKED: ATOM     37  H   UNL d   1      -5.695  15.786  -8.500 +0.07 +0.00    +0.295 HD
DOCKED: ENDBRANCH  34  36
DOCKED: ENDBRANCH  33  34
DOCKED: ENDBRANCH   7  33
DOCKED: BRANCH  27  38
DOCKED: ATOM     38  C   UNL d   1     -12.177  15.301 -16.326 -0.04 -0.00    +0.017 C 
DOCKED: ATOM     39  C   UNL d   1     -12.675  14.510 -17.289 -0.05 -0.04    +0.092 C 
DOCKED: BRANCH  39  40
DOCKED: ATOM     40  C   UNL d   1     -13.460  15.094 -18.379 +0.00 -0.09    +0.330 C 
DOCKED: ATOM     41  O   UNL d   1     -14.605  14.831 -18.696 -0.00 +0.06    -0.246 OA
DOCKED: BRANCH  40  42
DOCKED: ATOM     42  O   UNL d   1     -12.734  16.018 -19.028 +0.01 +0.08    -0.477 OA
DOCKED: ATOM     43  H   UNL d   1     -12.765  15.727 -19.962 +0.01 -0.05    +0.295 HD
DOCKED: ENDBRANCH  40  42
DOCKED: ENDBRANCH  39  40
DOCKED: ENDBRANCH  27  38
DOCKED: BRANCH   8  44
DOCKED: ATOM     44  C   UNL d   1     -11.047  12.629  -5.806 -0.41 -0.01    +0.141 C 
DOCKED: BRANCH  44  45
DOCKED: ATOM     45  C   UNL d   1      -9.721  13.188  -5.362 -0.33 -0.01    +0.306 C 
DOCKED: ATOM     46  O   UNL d   1      -8.624  12.890  -5.800 -0.40 -0.01    -0.251 OA
DOCKED: BRANCH  45  47
DOCKED: ATOM     47  O   UNL d   1      -9.848  14.080  -4.363 -0.12 +0.02    -0.481 OA
DOCKED: ATOM     48  H   UNL d   1     -10.640  13.785  -3.866 -0.21 -0.07    +0.295 HD
DOCKED: ENDBRANCH  45  47
DOCKED: ENDBRANCH  44  45
DOCKED: ENDBRANCH   8  44
DOCKED: BRANCH  22  49
DOCKED: ATOM     49  C   UNL d   1     -15.408  11.217 -14.283 -0.17 -0.03    +0.048 C 
DOCKED: BRANCH  49  50
DOCKED: ATOM     50  C   UNL d   1     -14.991   9.802 -14.684 -0.20 -0.14    +0.125 C 
DOCKED: BRANCH  50  51
DOCKED: ATOM     51  C   UNL d   1     -16.025   8.798 -14.261 -0.11 -0.22    +0.305 C 
DOCKED: ATOM     52  O   UNL d   1     -17.005   8.432 -14.887 -0.04 +0.12    -0.251 OA
DOCKED: BRANCH  51  53
DOCKED: ATOM     53  O   UNL d   1     -15.773   8.300 -13.034 -0.07 +0.39    -0.481 OA
DOCKED: ATOM     54  H   UNL d   1     -14.873   8.628 -12.825 -0.34 -0.35    +0.295 HD
DOCKED: ENDBRANCH  51  53
DOCKED: ENDBRANCH  50  51
DOCKED: ENDBRANCH  49  50
DOCKED: ENDBRANCH  22  49
DOCKED: TORSDOF 13
DOCKED: TER
DOCKED: ENDMDL
________________________________________________________________________________


	BEGINNING GENETIC ALGORITHM DOCKING 80 of 100
Run: 80 Seed: 1393015270 79272491 [ Run 80 of 100 GA/GALS ]
Beginning LAMARCKIAN GENETIC ALGORITHM (LGA), with a maximum of 25000000 energy evaluations.

Final-Value: -12.934


	FINAL GENETIC ALGORITHM DOCKED STATE
	_______________________________________________


Detailed state:  trans 13.848 -8.623 8.069 quatxyzw -0.151775 0.355017 -0.921509 -0.041810 center 0.153 0.018 -0.028 ntor 13 -129.1690 -15.0943 -89.0177 -70.1839 53.4938 99.5547 142.8738 95.1343 150.6999 -74.9808 60.9878 -3.1164 135.9481
State:	 13.848  -8.623   8.069  -0.152  0.355 -0.922 -175.208   -129.17  -15.09  -89.02  -70.18   53.49   99.55  142.87   95.13  150.70  -74.98   60.99   -3.12  135.95

DOCKED: MODEL       80
DOCKED: USER    Run = 80
DOCKED: USER    DPF = D:/Protein_go_brrr/autodock/final/mut_D99N/heme/dock.dpf
DOCKED: USER  
DOCKED: USER    Estimated Free Energy of Binding    =   -6.63 kcal/mol  [=(1)+(2)+(3)-(4)]
DOCKED: USER    Estimated Inhibition Constant, Ki   =   13.84 uM (micromolar)  [Temperature = 298.15 K]
DOCKED: USER    
DOCKED: USER    (1) Final Intermolecular Energy     =  -10.51 kcal/mol
DOCKED: USER        vdW + Hbond + desolv Energy     =  -10.13 kcal/mol
DOCKED: USER        Electrostatic Energy            =   -0.38 kcal/mol
DOCKED: USER    (2) Final Total Internal Energy     =   -2.43 kcal/mol
DOCKED: USER    (3) Torsional Free Energy           =   +3.88 kcal/mol
DOCKED: USER    (4) Unbound System's Energy  [=(2)] =   -2.43 kcal/mol
DOCKED: USER    
DOCKED: USER    
DOCKED: USER    NEWDPF move heme_opt.pdbqt
DOCKED: USER    NEWDPF about 0.153000 0.018000 -0.028000
DOCKED: USER    NEWDPF tran0 13.848364 -8.623407 8.069141
DOCKED: USER    NEWDPF quaternion0 -0.151775 0.355017 -0.921509 -0.041810
DOCKED: USER    NEWDPF axisangle0 -0.151908 0.355328 -0.922316 -175.207500
DOCKED: USER    NEWDPF quat0 -0.151908 0.355328 -0.922316 -175.207500
DOCKED: USER    NEWDPF dihe0 -129.17 -15.09 -89.02 -70.18 53.49 99.55 142.87 95.13 150.70 -74.98 60.99 -3.12 135.95 
DOCKED: USER  keepresnum = 1 
DOCKED: USER  
DOCKED: REMARK  13 active torsions:
DOCKED: REMARK  status: ('A' for Active; 'I' for Inactive)
DOCKED: REMARK    1  A    between atoms: O_3  and  C_38 
DOCKED: REMARK    2  A    between atoms: O_4  and  C_40 
DOCKED: REMARK    3  A    between atoms: O_7  and  C_46 
DOCKED: REMARK    4  A    between atoms: O_9  and  C_48 
DOCKED: REMARK    5  A    between atoms: C_15  and  C_20 
DOCKED: REMARK    6  A    between atoms: C_16  and  C_23 
DOCKED: REMARK    7  A    between atoms: C_20  and  C_38 
DOCKED: REMARK    8  A    between atoms: C_23  and  C_40 
DOCKED: REMARK    9  A    between atoms: C_32  and  C_41 
DOCKED: REMARK   10  A    between atoms: C_37  and  C_45 
DOCKED: REMARK   11  A    between atoms: C_41  and  C_44 
DOCKED: REMARK   12  A    between atoms: C_44  and  C_46 
DOCKED: REMARK   13  A    between atoms: C_47  and  C_48 
DOCKED: USER                              x       y       z     vdW  Elec       q    Type
DOCKED: USER                           _______ _______ _______ _____ _____    ______ ____
DOCKED: ROOT
DOCKED: ATOM      1  O   UNL d   1      19.330  -9.259   5.994 -0.47 -0.09    -0.289 OA
DOCKED: ATOM      2  O   UNL d   1      16.034  -3.512   9.529 -0.16 +0.06    -0.289 OA
DOCKED: ATOM      3  N   UNL d   1      16.006  -9.291   6.916 -0.20 +0.07    -0.247 NA
DOCKED: ATOM      4  N   UNL d   1      15.708  -6.784   8.482 -0.17 +0.09    -0.247 NA
DOCKED: ATOM      5  N   UNL d   1      13.176  -7.777   9.415 -0.13 +0.15    -0.354 N 
DOCKED: ATOM      6  N   UNL d   1      13.503 -10.384   7.803 +0.12 +0.18    -0.354 N 
DOCKED: ATOM      7  C   UNL d   1      17.549 -10.933   5.950 -0.21 -0.02    +0.084 A 
DOCKED: ATOM      8  C   UNL d   1      17.255  -4.960   7.978 -0.17 -0.01    +0.084 A 
DOCKED: ATOM      9  C   UNL d   1      16.818  -6.412   7.757 -0.24 -0.01    +0.058 A 
DOCKED: ATOM     10  C   UNL d   1      16.146 -10.592   6.462 -0.24 -0.02    +0.058 A 
DOCKED: ATOM     11  C   UNL d   1      18.173  -9.589   6.179 -0.21 +0.01    +0.193 A 
DOCKED: ATOM     12  C   UNL d   1      17.130  -8.674   6.743 -0.25 -0.01    +0.109 A 
DOCKED: ATOM     13  C   UNL d   1      16.209  -4.588   8.992 -0.10 -0.05    +0.193 A 
DOCKED: ATOM     14  C   UNL d   1      18.250 -11.962   6.840 -0.08 -0.00    +0.026 C 
DOCKED: ATOM     15  C   UNL d   1      17.492  -7.260   6.964 -0.19 -0.00    +0.055 C 
DOCKED: ATOM     16  C   UNL d   1      17.049  -4.108   6.723 -0.32 -0.00    +0.026 C 
DOCKED: ATOM     17  C   UNL d   1      15.340  -5.783   9.215 +0.03 -0.04    +0.109 A 
DOCKED: ATOM     18  C   UNL d   1      15.133 -11.475   6.379 -0.27 -0.03    +0.050 C 
DOCKED: ATOM     19  C   UNL d   1      13.788 -11.221   6.747 -0.23 -0.02    +0.045 A 
DOCKED: ATOM     20  C   UNL d   1      13.317  -6.687  10.233 -0.25 -0.02    +0.045 A 
DOCKED: ATOM     21  C   UNL d   1      14.247  -5.727  10.197 -0.27 -0.02    +0.057 C 
DOCKED: ATOM     22  C   UNL d   1      11.489  -7.881  10.904 -0.19 +0.01    -0.019 A 
DOCKED: ATOM     23  C   UNL d   1      12.100  -8.558   9.743 -0.22 -0.02    +0.045 A 
DOCKED: ATOM     24  C   UNL d   1      12.213  -6.773  11.188 -0.19 +0.01    -0.022 A 
DOCKED: ATOM     25  C   UNL d   1      12.149 -10.352   8.042 -0.07 -0.02    +0.049 A 
DOCKED: ATOM     26  C   UNL d   1      12.586 -11.715   6.265 -0.31 +0.01    -0.018 A 
DOCKED: ATOM     27  C   UNL d   1      11.553 -11.148   7.074 -0.29 -0.00    +0.003 A 
DOCKED: ATOM     28  C   UNL d   1      11.625  -9.680   9.180 -0.23 -0.02    +0.052 C 
DOCKED: ATOM     29  C   UNL d   1      11.988  -5.761  12.260 -0.15 -0.02    +0.046 C 
DOCKED: ATOM     30  C   UNL d   1      12.405 -12.656   5.122 -0.20 -0.02    +0.046 C 
DOCKED: ATOM     31  H   UNL d   1      13.779  -7.913   8.611 -0.32 -0.10    +0.166 HD
DOCKED: ATOM     32  H   UNL d   1      14.212  -9.901   8.342 -0.09 -0.07    +0.166 HD
DOCKED: ENDROOT
DOCKED: BRANCH   7  33
DOCKED: ATOM     33  C   UNL d   1      17.632 -11.320   4.470 -0.33 -0.05    +0.141 C 
DOCKED: BRANCH  33  34
DOCKED: ATOM     34  C   UNL d   1      18.903 -12.053   4.134 -0.20 -0.02    +0.306 C 
DOCKED: ATOM     35  O   UNL d   1      19.003 -13.241   3.877 -0.13 +0.04    -0.251 OA
DOCKED: BRANCH  34  36
DOCKED: ATOM     36  O   UNL d   1      19.981 -11.250   4.136 -0.10 -0.13    -0.481 OA
DOCKED: ATOM     37  H   UNL d   1      19.915 -10.750   4.977 +0.09 +0.09    +0.295 HD
DOCKED: ENDBRANCH  34  36
DOCKED: ENDBRANCH  33  34
DOCKED: ENDBRANCH   7  33
DOCKED: BRANCH  27  38
DOCKED: ATOM     38  C   UNL d   1      10.153 -11.408   6.926 -0.36 -0.00    +0.017 C 
DOCKED: ATOM     39  C   UNL d   1       9.172 -10.523   7.160 -0.43 -0.03    +0.092 C 
DOCKED: BRANCH  39  40
DOCKED: ATOM     40  C   UNL d   1       7.774 -10.911   6.953 -0.28 -0.08    +0.330 C 
DOCKED: ATOM     41  O   UNL d   1       6.976 -11.289   7.790 -0.52 +0.06    -0.246 OA
DOCKED: BRANCH  40  42
DOCKED: ATOM     42  O   UNL d   1       7.447 -10.786   5.658 -0.47 +0.09    -0.477 OA
DOCKED: ATOM     43  H   UNL d   1       6.611 -11.289   5.577 -0.28 -0.02    +0.295 HD
DOCKED: ENDBRANCH  40  42
DOCKED: ENDBRANCH  39  40
DOCKED: ENDBRANCH  27  38
DOCKED: BRANCH   8  44
DOCKED: ATOM     44  C   UNL d   1      18.664  -4.774   8.550 -0.05 -0.00    +0.141 C 
DOCKED: BRANCH  44  45
DOCKED: ATOM     45  C   UNL d   1      18.690  -3.956   9.813 -0.00 -0.01    +0.306 C 
DOCKED: ATOM     46  O   UNL d   1      18.743  -4.382  10.954 -0.01 +0.01    -0.251 OA
DOCKED: BRANCH  45  47
DOCKED: ATOM     47  O   UNL d   1      18.618  -2.634   9.572 +0.01 +0.00    -0.481 OA
DOCKED: ATOM     48  H   UNL d   1      17.658  -2.433   9.577 +0.05 -0.01    +0.295 HD
DOCKED: ENDBRANCH  45  47
DOCKED: ENDBRANCH  44  45
DOCKED: ENDBRANCH   8  44
DOCKED: BRANCH  22  49
DOCKED: ATOM     49  C   UNL d   1      10.275  -8.382  11.629 -0.18 -0.04    +0.048 C 
DOCKED: BRANCH  49  50
DOCKED: ATOM     50  C   UNL d   1      10.431  -9.841  12.058 -0.07 -0.07    +0.125 C 
DOCKED: BRANCH  50  51
DOCKED: ATOM     51  C   UNL d   1       9.392 -10.707  11.405 -0.06 -0.20    +0.305 C 
DOCKED: ATOM     52  O   UNL d   1       9.467 -11.275  10.330 -0.06 +0.12    -0.251 OA
DOCKED: BRANCH  51  53
DOCKED: ATOM     53  O   UNL d   1       8.275 -10.806  12.153 -0.05 +0.48    -0.481 OA
DOCKED: ATOM     54  H   UNL d   1       7.607 -10.290  11.654 -0.43 -0.58    +0.295 HD
DOCKED: ENDBRANCH  51  53
DOCKED: ENDBRANCH  50  51
DOCKED: ENDBRANCH  49  50
DOCKED: ENDBRANCH  22  49
DOCKED: TORSDOF 13
DOCKED: TER
DOCKED: ENDMDL
________________________________________________________________________________


	BEGINNING GENETIC ALGORITHM DOCKING 81 of 100
Run: 81 Seed: 1848091957 924335803 [ Run 81 of 100 GA/GALS ]
Beginning LAMARCKIAN GENETIC ALGORITHM (LGA), with a maximum of 25000000 energy evaluations.

Final-Value: -12.298


	FINAL GENETIC ALGORITHM DOCKED STATE
	_______________________________________________


Detailed state:  trans 0.761 15.386 16.148 quatxyzw -0.179624 -0.749716 -0.636450 0.024340 center 0.153 0.018 -0.028 ntor 13 112.8641 -170.7494 -176.5689 -54.5364 -130.6349 3.7271 140.3826 -103.5030 38.1582 -11.6655 -99.4057 -17.1060 -15.0011
State:	  0.761  15.386  16.148  -0.180 -0.750 -0.637 177.211    112.86 -170.75 -176.57  -54.54 -130.63    3.73  140.38 -103.50   38.16  -11.67  -99.41  -17.11  -15.00

DOCKED: MODEL       81
DOCKED: USER    Run = 81
DOCKED: USER    DPF = D:/Protein_go_brrr/autodock/final/mut_D99N/heme/dock.dpf
DOCKED: USER  
DOCKED: USER    Estimated Free Energy of Binding    =   -3.59 kcal/mol  [=(1)+(2)+(3)-(4)]
DOCKED: USER    Estimated Inhibition Constant, Ki   =    2.34 mM (millimolar)  [Temperature = 298.15 K]
DOCKED: USER    
DOCKED: USER    (1) Final Intermolecular Energy     =   -7.47 kcal/mol
DOCKED: USER        vdW + Hbond + desolv Energy     =   -7.45 kcal/mol
DOCKED: USER        Electrostatic Energy            =   -0.02 kcal/mol
DOCKED: USER    (2) Final Total Internal Energy     =   -4.83 kcal/mol
DOCKED: USER    (3) Torsional Free Energy           =   +3.88 kcal/mol
DOCKED: USER    (4) Unbound System's Energy  [=(2)] =   -4.83 kcal/mol
DOCKED: USER    
DOCKED: USER    
DOCKED: USER    NEWDPF move heme_opt.pdbqt
DOCKED: USER    NEWDPF about 0.153000 0.018000 -0.028000
DOCKED: USER    NEWDPF tran0 0.760835 15.385636 16.148108
DOCKED: USER    NEWDPF quaternion0 -0.179624 -0.749716 -0.636450 0.024340
DOCKED: USER    NEWDPF axisangle0 -0.179677 -0.749938 -0.636639 177.210596
DOCKED: USER    NEWDPF quat0 -0.179677 -0.749938 -0.636639 177.210596
DOCKED: USER    NEWDPF dihe0 112.86 -170.75 -176.57 -54.54 -130.63 3.73 140.38 -103.50 38.16 -11.67 -99.41 -17.11 -15.00 
DOCKED: USER  keepresnum = 1 
DOCKED: USER  
DOCKED: REMARK  13 active torsions:
DOCKED: REMARK  status: ('A' for Active; 'I' for Inactive)
DOCKED: REMARK    1  A    between atoms: O_3  and  C_38 
DOCKED: REMARK    2  A    between atoms: O_4  and  C_40 
DOCKED: REMARK    3  A    between atoms: O_7  and  C_46 
DOCKED: REMARK    4  A    between atoms: O_9  and  C_48 
DOCKED: REMARK    5  A    between atoms: C_15  and  C_20 
DOCKED: REMARK    6  A    between atoms: C_16  and  C_23 
DOCKED: REMARK    7  A    between atoms: C_20  and  C_38 
DOCKED: REMARK    8  A    between atoms: C_23  and  C_40 
DOCKED: REMARK    9  A    between atoms: C_32  and  C_41 
DOCKED: REMARK   10  A    between atoms: C_37  and  C_45 
DOCKED: REMARK   11  A    between atoms: C_41  and  C_44 
DOCKED: REMARK   12  A    between atoms: C_44  and  C_46 
DOCKED: REMARK   13  A    between atoms: C_47  and  C_48 
DOCKED: USER                              x       y       z     vdW  Elec       q    Type
DOCKED: USER                           _______ _______ _______ _____ _____    ______ ____
DOCKED: ROOT
DOCKED: ATOM      1  O   UNL d   1       6.577  14.525  16.574 -0.06 +0.01    -0.289 OA
DOCKED: ATOM      2  O   UNL d   1       1.670  12.487  11.269 -0.42 +0.06    -0.289 OA
DOCKED: ATOM      3  N   UNL d   1       3.193  15.142  16.824 -0.12 +0.06    -0.247 NA
DOCKED: ATOM      4  N   UNL d   1       2.144  14.273  14.183 -0.16 +0.06    -0.247 NA
DOCKED: ATOM      5  N   UNL d   1      -0.312  15.626  14.818 -0.09 +0.09    -0.354 N 
DOCKED: ATOM      6  N   UNL d   1       0.791  16.540  17.547 -0.07 +0.09    -0.354 N 
DOCKED: ATOM      7  C   UNL d   1       5.165  15.755  18.145 -0.06 -0.01    +0.084 A 
DOCKED: ATOM      8  C   UNL d   1       3.418  12.570  12.980 -0.40 -0.01    +0.084 A 
DOCKED: ATOM      9  C   UNL d   1       3.297  13.520  14.175 -0.29 -0.01    +0.058 A 
DOCKED: ATOM     10  C   UNL d   1       3.649  15.827  17.937 -0.12 -0.01    +0.058 A 
DOCKED: ATOM     11  C   UNL d   1       5.483  14.891  16.962 -0.08 -0.01    +0.193 A 
DOCKED: ATOM     12  C   UNL d   1       4.203  14.566  16.256 -0.18 -0.01    +0.109 A 
DOCKED: ATOM     13  C   UNL d   1       2.137  12.949  12.291 -0.36 -0.03    +0.193 A 
DOCKED: ATOM     14  C   UNL d   1       5.836  17.118  17.958 -0.02 -0.00    +0.026 C 
DOCKED: ATOM     15  C   UNL d   1       4.258  13.644  15.104 -0.13 -0.00    +0.055 C 
DOCKED: ATOM     16  C   UNL d   1       3.330  11.103  13.409 -0.38 -0.00    +0.026 C 
DOCKED: ATOM     17  C   UNL d   1       1.463  13.995  13.118 -0.30 -0.02    +0.109 A 
DOCKED: ATOM     18  C   UNL d   1       2.846  16.437  18.829 -0.11 -0.01    +0.050 C 
DOCKED: ATOM     19  C   UNL d   1       1.430  16.482  18.765 -0.14 -0.01    +0.045 A 
DOCKED: ATOM     20  C   UNL d   1      -0.536  15.339  13.496 -0.26 -0.01    +0.045 A 
DOCKED: ATOM     21  C   UNL d   1       0.198  14.592  12.665 -0.35 -0.01    +0.057 C 
DOCKED: ATOM     22  C   UNL d   1      -2.226  16.674  14.258 -0.11 +0.00    -0.019 A 
DOCKED: ATOM     23  C   UNL d   1      -1.279  16.427  15.364 -0.14 -0.01    +0.045 A 
DOCKED: ATOM     24  C   UNL d   1      -1.781  16.026  13.155 -0.18 +0.00    -0.022 A 
DOCKED: ATOM     25  C   UNL d   1      -0.567  16.668  17.719 -0.11 -0.01    +0.049 A 
DOCKED: ATOM     26  C   UNL d   1       0.459  16.535  19.753 -0.13 +0.00    -0.018 A 
DOCKED: ATOM     27  C   UNL d   1      -0.802  16.633  19.087 -0.11 -0.00    +0.003 A 
DOCKED: ATOM     28  C   UNL d   1      -1.424  16.905  16.610 -0.13 -0.01    +0.052 C 
DOCKED: ATOM     29  C   UNL d   1      -2.396  15.962  11.799 -0.24 -0.01    +0.046 C 
DOCKED: ATOM     30  C   UNL d   1       0.685  16.496  21.227 -0.07 -0.01    +0.046 C 
DOCKED: ATOM     31  H   UNL d   1       0.458  15.204  15.325 -0.43 -0.08    +0.166 HD
DOCKED: ATOM     32  H   UNL d   1       1.278  16.531  16.658 -0.05 -0.04    +0.166 HD
DOCKED: ENDROOT
DOCKED: BRANCH   7  33
DOCKED: ATOM     33  C   UNL d   1       5.619  15.077  19.443 -0.06 -0.01    +0.141 C 
DOCKED: BRANCH  33  34
DOCKED: ATOM     34  C   UNL d   1       5.724  13.582  19.309 -0.09 -0.03    +0.306 C 
DOCKED: ATOM     35  O   UNL d   1       4.794  12.793  19.298 -0.18 +0.01    -0.251 OA
DOCKED: BRANCH  34  36
DOCKED: ATOM     36  O   UNL d   1       6.995  13.160  19.194 -0.01 +0.05    -0.481 OA
DOCKED: ATOM     37  H   UNL d   1       7.279  13.470  18.308 +0.05 -0.02    +0.295 HD
DOCKED: ENDBRANCH  34  36
DOCKED: ENDBRANCH  33  34
DOCKED: ENDBRANCH   7  33
DOCKED: BRANCH  27  38
DOCKED: ATOM     38  C   UNL d   1      -2.074  16.728  19.737 -0.09 -0.00    +0.017 C 
DOCKED: ATOM     39  C   UNL d   1      -3.257  16.452  19.168 -0.03 -0.01    +0.092 C 
DOCKED: BRANCH  39  40
DOCKED: ATOM     40  C   UNL d   1      -4.489  16.573  19.951 -0.02 -0.05    +0.330 C 
DOCKED: ATOM     41  O   UNL d   1      -4.604  16.936  21.106 -0.01 +0.03    -0.246 OA
DOCKED: BRANCH  40  42
DOCKED: ATOM     42  O   UNL d   1      -5.548  16.226  19.202 +0.00 +0.08    -0.477 OA
DOCKED: ATOM     43  H   UNL d   1      -5.148  15.850  18.391 +0.06 -0.05    +0.295 HD
DOCKED: ENDBRANCH  40  42
DOCKED: ENDBRANCH  39  40
DOCKED: ENDBRANCH  27  38
DOCKED: BRANCH   8  44
DOCKED: ATOM     44  C   UNL d   1       4.624  12.809  12.065 -0.29 -0.02    +0.141 C 
DOCKED: BRANCH  44  45
DOCKED: ATOM     45  C   UNL d   1       4.623  14.170  11.423 -0.16 -0.05    +0.306 C 
DOCKED: ATOM     46  O   UNL d   1       5.214  15.160  11.817 -0.07 +0.02    -0.251 OA
DOCKED: BRANCH  45  47
DOCKED: ATOM     47  O   UNL d   1       3.848  14.220  10.324 -0.12 +0.10    -0.481 OA
DOCKED: ATOM     48  H   UNL d   1       3.447  13.327  10.263 -0.39 -0.14    +0.295 HD
DOCKED: ENDBRANCH  45  47
DOCKED: ENDBRANCH  44  45
DOCKED: ENDBRANCH   8  44
DOCKED: BRANCH  22  49
DOCKED: ATOM     49  C   UNL d   1      -3.457  17.524  14.376 -0.04 -0.01    +0.048 C 
DOCKED: BRANCH  49  50
DOCKED: ATOM     50  C   UNL d   1      -4.711  16.680  14.603 -0.05 -0.02    +0.125 C 
DOCKED: BRANCH  50  51
DOCKED: ATOM     51  C   UNL d   1      -4.844  16.296  16.049 -0.04 -0.04    +0.305 C 
DOCKED: ATOM     52  O   UNL d   1      -4.705  15.189  16.540 -0.13 +0.04    -0.251 OA
DOCKED: BRANCH  51  53
DOCKED: ATOM     53  O   UNL d   1      -5.166  17.351  16.824 +0.01 +0.05    -0.481 OA
DOCKED: ATOM     54  H   UNL d   1      -5.979  17.064  17.291 +0.03 -0.04    +0.295 HD
DOCKED: ENDBRANCH  51  53
DOCKED: ENDBRANCH  50  51
DOCKED: ENDBRANCH  49  50
DOCKED: ENDBRANCH  22  49
DOCKED: TORSDOF 13
DOCKED: TER
DOCKED: ENDMDL
________________________________________________________________________________


	BEGINNING GENETIC ALGORITHM DOCKING 82 of 100
Run: 82 Seed: 190494472 295833554 [ Run 82 of 100 GA/GALS ]
Beginning LAMARCKIAN GENETIC ALGORITHM (LGA), with a maximum of 25000000 energy evaluations.

Final-Value: -11.944


	FINAL GENETIC ALGORITHM DOCKED STATE
	_______________________________________________


Detailed state:  trans -13.726 6.539 4.736 quatxyzw -0.862214 0.395246 -0.015698 0.316419 center 0.153 0.018 -0.028 ntor 13 166.1533 57.7609 102.0095 -20.8940 -145.9781 -15.9150 -37.2645 -36.3693 14.4917 -117.0007 -52.3655 -101.2625 -170.7900
State:	-13.726   6.539   4.736  -0.909  0.417 -0.017 143.107    166.15   57.76  102.01  -20.89 -145.98  -15.91  -37.26  -36.37   14.49 -117.00  -52.37 -101.26 -170.79

DOCKED: MODEL       82
DOCKED: USER    Run = 82
DOCKED: USER    DPF = D:/Protein_go_brrr/autodock/final/mut_D99N/heme/dock.dpf
DOCKED: USER  
DOCKED: USER    Estimated Free Energy of Binding    =   -5.62 kcal/mol  [=(1)+(2)+(3)-(4)]
DOCKED: USER    Estimated Inhibition Constant, Ki   =   75.34 uM (micromolar)  [Temperature = 298.15 K]
DOCKED: USER    
DOCKED: USER    (1) Final Intermolecular Energy     =   -9.50 kcal/mol
DOCKED: USER        vdW + Hbond + desolv Energy     =   -9.38 kcal/mol
DOCKED: USER        Electrostatic Energy            =   -0.13 kcal/mol
DOCKED: USER    (2) Final Total Internal Energy     =   -2.44 kcal/mol
DOCKED: USER    (3) Torsional Free Energy           =   +3.88 kcal/mol
DOCKED: USER    (4) Unbound System's Energy  [=(2)] =   -2.44 kcal/mol
DOCKED: USER    
DOCKED: USER    
DOCKED: USER    NEWDPF move heme_opt.pdbqt
DOCKED: USER    NEWDPF about 0.153000 0.018000 -0.028000
DOCKED: USER    NEWDPF tran0 -13.725828 6.539267 4.736174
DOCKED: USER    NEWDPF quaternion0 -0.862214 0.395246 -0.015698 0.316419
DOCKED: USER    NEWDPF axisangle0 -0.908915 0.416654 -0.016548 143.106966
DOCKED: USER    NEWDPF quat0 -0.908915 0.416654 -0.016548 143.106966
DOCKED: USER    NEWDPF dihe0 166.15 57.76 102.01 -20.89 -145.98 -15.91 -37.26 -36.37 14.49 -117.00 -52.37 -101.26 -170.79 
DOCKED: USER  keepresnum = 1 
DOCKED: USER  
DOCKED: REMARK  13 active torsions:
DOCKED: REMARK  status: ('A' for Active; 'I' for Inactive)
DOCKED: REMARK    1  A    between atoms: O_3  and  C_38 
DOCKED: REMARK    2  A    between atoms: O_4  and  C_40 
DOCKED: REMARK    3  A    between atoms: O_7  and  C_46 
DOCKED: REMARK    4  A    between atoms: O_9  and  C_48 
DOCKED: REMARK    5  A    between atoms: C_15  and  C_20 
DOCKED: REMARK    6  A    between atoms: C_16  and  C_23 
DOCKED: REMARK    7  A    between atoms: C_20  and  C_38 
DOCKED: REMARK    8  A    between atoms: C_23  and  C_40 
DOCKED: REMARK    9  A    between atoms: C_32  and  C_41 
DOCKED: REMARK   10  A    between atoms: C_37  and  C_45 
DOCKED: REMARK   11  A    between atoms: C_41  and  C_44 
DOCKED: REMARK   12  A    between atoms: C_44  and  C_46 
DOCKED: REMARK   13  A    between atoms: C_47  and  C_48 
DOCKED: USER                              x       y       z     vdW  Elec       q    Type
DOCKED: USER                           _______ _______ _______ _____ _____    ______ ____
DOCKED: ROOT
DOCKED: ATOM      1  O   UNL d   1     -18.893   9.123   3.564 -0.04 -0.00    -0.289 OA
DOCKED: ATOM      2  O   UNL d   1     -11.848  11.567   2.678 +0.05 +0.05    -0.289 OA
DOCKED: ATOM      3  N   UNL d   1     -16.142   7.283   4.532 -0.06 -0.00    -0.247 NA
DOCKED: ATOM      4  N   UNL d   1     -13.856   8.890   3.525 -0.10 +0.02    -0.247 NA
DOCKED: ATOM      5  N   UNL d   1     -12.164   6.615   4.005 -0.11 +0.02    -0.354 N 
DOCKED: ATOM      6  N   UNL d   1     -14.546   4.948   5.030 -0.04 -0.04    -0.354 N 
DOCKED: ATOM      7  C   UNL d   1     -18.555   6.863   4.431 -0.05 +0.01    +0.084 A 
DOCKED: ATOM      8  C   UNL d   1     -14.211  11.293   3.254 -0.23 -0.02    +0.084 A 
DOCKED: ATOM      9  C   UNL d   1     -14.782   9.908   3.578 -0.23 -0.01    +0.058 A 
DOCKED: ATOM     10  C   UNL d   1     -17.147   6.357   4.760 -0.08 +0.00    +0.058 A 
DOCKED: ATOM     11  C   UNL d   1     -18.170   8.245   3.996 -0.06 +0.00    +0.193 A 
DOCKED: ATOM     12  C   UNL d   1     -16.685   8.385   4.127 -0.11 -0.00    +0.109 A 
DOCKED: ATOM     13  C   UNL d   1     -12.798  10.867   2.971 -0.27 -0.04    +0.193 A 
DOCKED: ATOM     14  C   UNL d   1     -19.169   6.122   3.241 -0.12 +0.00    +0.026 C 
DOCKED: ATOM     15  C   UNL d   1     -16.082   9.702   3.840 -0.17 -0.01    +0.055 C 
DOCKED: ATOM     16  C   UNL d   1     -14.213  12.209   4.482 -0.17 -0.01    +0.026 C 
DOCKED: ATOM     17  C   UNL d   1     -12.717   9.388   3.163 -0.40 -0.01    +0.109 A 
DOCKED: ATOM     18  C   UNL d   1     -16.946   5.144   5.307 -0.07 +0.00    +0.050 C 
DOCKED: ATOM     19  C   UNL d   1     -15.692   4.626   5.720 -0.06 +0.01    +0.045 A 
DOCKED: ATOM     20  C   UNL d   1     -11.294   7.413   3.308 -0.43 -0.00    +0.045 A 
DOCKED: ATOM     21  C   UNL d   1     -11.453   8.679   2.910 -0.40 -0.00    +0.057 C 
DOCKED: ATOM     22  C   UNL d   1     -10.328   5.368   3.626 -0.45 -0.00    -0.019 A 
DOCKED: ATOM     23  C   UNL d   1     -11.669   5.361   4.244 -0.31 +0.00    +0.045 A 
DOCKED: ATOM     24  C   UNL d   1     -10.111   6.585   3.075 -0.52 -0.00    -0.022 A 
DOCKED: ATOM     25  C   UNL d   1     -13.465   4.268   5.543 -0.13 +0.01    +0.049 A 
DOCKED: ATOM     26  C   UNL d   1     -15.343   3.743   6.730 -0.04 -0.00    -0.018 A 
DOCKED: ATOM     27  C   UNL d   1     -13.932   3.536   6.626 -0.09 +0.00    +0.003 A 
DOCKED: ATOM     28  C   UNL d   1     -12.200   4.317   4.898 -0.27 +0.01    +0.052 C 
DOCKED: ATOM     29  C   UNL d   1      -8.906   7.081   2.351 -0.41 +0.01    +0.046 C 
DOCKED: ATOM     30  C   UNL d   1     -16.260   3.130   7.734 -0.02 +0.01    +0.046 C 
DOCKED: ATOM     31  H   UNL d   1     -13.042   6.979   4.360 +0.07 -0.01    +0.166 HD
DOCKED: ATOM     32  H   UNL d   1     -14.529   5.570   4.231 +0.06 +0.01    +0.166 HD
DOCKED: ENDROOT
DOCKED: BRANCH   7  33
DOCKED: ATOM     33  C   UNL d   1     -19.524   6.924   5.617 -0.01 +0.01    +0.141 C 
DOCKED: BRANCH  33  34
DOCKED: ATOM     34  C   UNL d   1     -19.067   7.872   6.691 +0.00 +0.01    +0.306 C 
DOCKED: ATOM     35  O   UNL d   1     -18.383   7.588   7.660 -0.00 -0.01    -0.251 OA
DOCKED: BRANCH  34  36
DOCKED: ATOM     36  O   UNL d   1     -19.493   9.131   6.487 +0.00 -0.00    -0.481 OA
DOCKED: ATOM     37  H   UNL d   1     -19.770   9.149   5.547 +0.01 +0.00    +0.295 HD
DOCKED: ENDBRANCH  34  36
DOCKED: ENDBRANCH  33  34
DOCKED: ENDBRANCH   7  33
DOCKED: BRANCH  27  38
DOCKED: ATOM     38  C   UNL d   1     -13.159   2.678   7.473 -0.18 +0.00    +0.017 C 
DOCKED: ATOM     39  C   UNL d   1     -12.509   1.576   7.071 -0.20 +0.03    +0.092 C 
DOCKED: BRANCH  39  40
DOCKED: ATOM     40  C   UNL d   1     -11.736   0.791   8.037 -0.15 +0.13    +0.330 C 
DOCKED: ATOM     41  O   UNL d   1     -11.338   1.142   9.132 -0.25 -0.07    -0.246 OA
DOCKED: BRANCH  40  42
DOCKED: ATOM     42  O   UNL d   1     -11.509  -0.441   7.555 -0.65 -0.32    -0.477 OA
DOCKED: ATOM     43  H   UNL d   1     -11.897  -1.033   8.232 +0.12 +0.15    +0.295 HD
DOCKED: ENDBRANCH  40  42
DOCKED: ENDBRANCH  39  40
DOCKED: ENDBRANCH  27  38
DOCKED: BRANCH   8  44
DOCKED: ATOM     44  C   UNL d   1     -14.828  11.993   2.039 -0.28 -0.03    +0.141 C 
DOCKED: BRANCH  44  45
DOCKED: ATOM     45  C   UNL d   1     -14.034  13.184   1.573 -0.19 -0.04    +0.306 C 
DOCKED: ATOM     46  O   UNL d   1     -14.065  14.308   2.044 -0.08 +0.02    -0.251 OA
DOCKED: BRANCH  45  47
DOCKED: ATOM     47  O   UNL d   1     -13.256  12.902   0.512 -0.13 +0.10    -0.481 OA
DOCKED: ATOM     48  H   UNL d   1     -12.480  12.437   0.891 -0.27 -0.12    +0.295 HD
DOCKED: ENDBRANCH  45  47
DOCKED: ENDBRANCH  44  45
DOCKED: ENDBRANCH   8  44
DOCKED: BRANCH  22  49
DOCKED: ATOM     49  C   UNL d   1      -9.397   4.190   3.619 -0.33 +0.01    +0.048 C 
DOCKED: BRANCH  49  50
DOCKED: ATOM     50  C   UNL d   1      -9.326   3.529   2.243 -0.33 +0.03    +0.125 C 
DOCKED: BRANCH  50  51
DOCKED: ATOM     51  C   UNL d   1      -7.901   3.371   1.797 -0.06 +0.12    +0.305 C 
DOCKED: ATOM     52  O   UNL d   1      -6.996   4.182   1.897 -0.46 -0.05    -0.251 OA
DOCKED: BRANCH  51  53
DOCKED: ATOM     53  O   UNL d   1      -7.683   2.172   1.220 -0.90 -0.18    -0.481 OA
DOCKED: ATOM     54  H   UNL d   1      -6.878   2.311   0.679 +0.18 +0.07    +0.295 HD
DOCKED: ENDBRANCH  51  53
DOCKED: ENDBRANCH  50  51
DOCKED: ENDBRANCH  49  50
DOCKED: ENDBRANCH  22  49
DOCKED: TORSDOF 13
DOCKED: TER
DOCKED: ENDMDL
________________________________________________________________________________


	BEGINNING GENETIC ALGORITHM DOCKING 83 of 100
Run: 83 Seed: 119734113 1000029448 [ Run 83 of 100 GA/GALS ]
Beginning LAMARCKIAN GENETIC ALGORITHM (LGA), with a maximum of 25000000 energy evaluations.

Final-Value: -11.813


	FINAL GENETIC ALGORITHM DOCKED STATE
	_______________________________________________


Detailed state:  trans 17.673 -1.303 3.327 quatxyzw -0.706584 -0.119649 0.565226 0.408587 center 0.153 0.018 -0.028 ntor 13 175.3204 -179.9292 -174.1168 32.6199 -149.2533 103.6391 143.7525 66.3411 16.8627 -22.5238 -87.0442 -115.4296 3.0192
State:	 17.673  -1.303   3.327  -0.774 -0.131  0.619 131.768    175.32 -179.93 -174.12   32.62 -149.25  103.64  143.75   66.34   16.86  -22.52  -87.04 -115.43    3.02

DOCKED: MODEL       83
DOCKED: USER    Run = 83
DOCKED: USER    DPF = D:/Protein_go_brrr/autodock/final/mut_D99N/heme/dock.dpf
DOCKED: USER  
DOCKED: USER    Estimated Free Energy of Binding    =   -3.30 kcal/mol  [=(1)+(2)+(3)-(4)]
DOCKED: USER    Estimated Inhibition Constant, Ki   =    3.83 mM (millimolar)  [Temperature = 298.15 K]
DOCKED: USER    
DOCKED: USER    (1) Final Intermolecular Energy     =   -7.18 kcal/mol
DOCKED: USER        vdW + Hbond + desolv Energy     =   -7.09 kcal/mol
DOCKED: USER        Electrostatic Energy            =   -0.09 kcal/mol
DOCKED: USER    (2) Final Total Internal Energy     =   -4.64 kcal/mol
DOCKED: USER    (3) Torsional Free Energy           =   +3.88 kcal/mol
DOCKED: USER    (4) Unbound System's Energy  [=(2)] =   -4.64 kcal/mol
DOCKED: USER    
DOCKED: USER    
DOCKED: USER    NEWDPF move heme_opt.pdbqt
DOCKED: USER    NEWDPF about 0.153000 0.018000 -0.028000
DOCKED: USER    NEWDPF tran0 17.672759 -1.302986 3.327055
DOCKED: USER    NEWDPF quaternion0 -0.706584 -0.119649 0.565226 0.408587
DOCKED: USER    NEWDPF axisangle0 -0.774152 -0.131090 0.619277 131.767845
DOCKED: USER    NEWDPF quat0 -0.774152 -0.131090 0.619277 131.767845
DOCKED: USER    NEWDPF dihe0 175.32 -179.93 -174.12 32.62 -149.25 103.64 143.75 66.34 16.86 -22.52 -87.04 -115.43 3.02 
DOCKED: USER  keepresnum = 1 
DOCKED: USER  
DOCKED: REMARK  13 active torsions:
DOCKED: REMARK  status: ('A' for Active; 'I' for Inactive)
DOCKED: REMARK    1  A    between atoms: O_3  and  C_38 
DOCKED: REMARK    2  A    between atoms: O_4  and  C_40 
DOCKED: REMARK    3  A    between atoms: O_7  and  C_46 
DOCKED: REMARK    4  A    between atoms: O_9  and  C_48 
DOCKED: REMARK    5  A    between atoms: C_15  and  C_20 
DOCKED: REMARK    6  A    between atoms: C_16  and  C_23 
DOCKED: REMARK    7  A    between atoms: C_20  and  C_38 
DOCKED: REMARK    8  A    between atoms: C_23  and  C_40 
DOCKED: REMARK    9  A    between atoms: C_32  and  C_41 
DOCKED: REMARK   10  A    between atoms: C_37  and  C_45 
DOCKED: REMARK   11  A    between atoms: C_41  and  C_44 
DOCKED: REMARK   12  A    between atoms: C_44  and  C_46 
DOCKED: REMARK   13  A    between atoms: C_47  and  C_48 
DOCKED: USER                              x       y       z     vdW  Elec       q    Type
DOCKED: USER                           _______ _______ _______ _____ _____    ______ ____
DOCKED: ROOT
DOCKED: ATOM      1  O   UNL d   1      16.419  -1.199   9.087 -0.40 -0.03    -0.289 OA
DOCKED: ATOM      2  O   UNL d   1      14.839   3.690   3.609 -0.04 -0.01    -0.289 OA
DOCKED: ATOM      3  N   UNL d   1      17.492  -1.624   5.837 -0.09 +0.01    -0.247 NA
DOCKED: ATOM      4  N   UNL d   1      16.154   0.593   4.380 -0.08 +0.00    -0.247 NA
DOCKED: ATOM      5  N   UNL d   1      16.858  -0.720   1.921 -0.06 +0.01    -0.354 N 
DOCKED: ATOM      6  N   UNL d   1      18.228  -3.026   3.441 -0.11 +0.02    -0.354 N 
DOCKED: ATOM      7  C   UNL d   1      17.575  -2.980   7.876 -0.14 -0.00    +0.084 A 
DOCKED: ATOM      8  C   UNL d   1      15.569   2.585   5.668 -0.04 +0.00    +0.084 A 
DOCKED: ATOM      9  C   UNL d   1      16.112   1.153   5.637 -0.09 +0.00    +0.058 A 
DOCKED: ATOM     10  C   UNL d   1      17.898  -2.828   6.387 -0.17 -0.00    +0.058 A 
DOCKED: ATOM     11  C   UNL d   1      16.932  -1.641   8.075 -0.12 +0.01    +0.193 A 
DOCKED: ATOM     12  C   UNL d   1      16.966  -0.903   6.772 -0.15 +0.00    +0.109 A 
DOCKED: ATOM     13  C   UNL d   1      15.275   2.721   4.201 -0.04 +0.01    +0.193 A 
DOCKED: ATOM     14  C   UNL d   1      16.533  -4.072   8.130 -0.19 -0.01    +0.026 C 
DOCKED: ATOM     15  C   UNL d   1      16.467   0.487   6.747 -0.14 +0.00    +0.055 C 
DOCKED: ATOM     16  C   UNL d   1      16.655   3.596   6.049 -0.02 +0.00    +0.026 C 
DOCKED: ATOM     17  C   UNL d   1      15.667   1.443   3.534 -0.11 +0.00    +0.109 A 
DOCKED: ATOM     18  C   UNL d   1      18.598  -3.765   5.720 -0.18 +0.00    +0.050 C 
DOCKED: ATOM     19  C   UNL d   1      19.014  -3.672   4.367 -0.15 +0.00    +0.045 A 
DOCKED: ATOM     20  C   UNL d   1      16.013   0.245   1.439 -0.05 -0.00    +0.045 A 
DOCKED: ATOM     21  C   UNL d   1      15.451   1.269   2.090 -0.18 +0.00    +0.057 C 
DOCKED: ATOM     22  C   UNL d   1      16.563  -1.173  -0.265 -0.31 +0.00    -0.019 A 
DOCKED: ATOM     23  C   UNL d   1      17.244  -1.622   0.966 -0.23 -0.00    +0.045 A 
DOCKED: ATOM     24  C   UNL d   1      15.837  -0.067   0.021 -0.18 +0.00    -0.022 A 
DOCKED: ATOM     25  C   UNL d   1      18.775  -3.135   2.183 -0.22 -0.00    +0.049 A 
DOCKED: ATOM     26  C   UNL d   1      20.118  -4.182   3.702 -0.20 -0.00    -0.018 A 
DOCKED: ATOM     27  C   UNL d   1      19.972  -3.822   2.326 -0.22 +0.00    +0.003 A 
DOCKED: ATOM     28  C   UNL d   1      18.065  -2.682   1.038 -0.32 -0.01    +0.052 C 
DOCKED: ATOM     29  C   UNL d   1      14.990   0.754  -0.890 -0.29 -0.00    +0.046 C 
DOCKED: ATOM     30  C   UNL d   1      21.243  -4.953   4.304 -0.22 +0.01    +0.046 C 
DOCKED: ATOM     31  H   UNL d   1      17.204  -0.688   2.874 +0.05 -0.01    +0.166 HD
DOCKED: ATOM     32  H   UNL d   1      17.349  -2.575   3.668 +0.04 -0.02    +0.166 HD
DOCKED: ENDROOT
DOCKED: BRANCH   7  33
DOCKED: ATOM     33  C   UNL d   1      18.789  -3.136   8.799 -0.03 -0.00    +0.141 C 
DOCKED: BRANCH  33  34
DOCKED: ATOM     34  C   UNL d   1      19.666  -1.913   8.814 +0.00 +0.01    +0.306 C 
DOCKED: ATOM     35  O   UNL d   1      20.659  -1.730   8.131 -0.00 -0.01    -0.251 OA
DOCKED: BRANCH  34  36
DOCKED: ATOM     36  O   UNL d   1      19.242  -0.982   9.688 +0.01 -0.00    -0.481 OA
DOCKED: ATOM     37  H   UNL d   1      18.379  -1.320  10.008 +0.03 +0.00    +0.295 HD
DOCKED: ENDBRANCH  34  36
DOCKED: ENDBRANCH  33  34
DOCKED: ENDBRANCH   7  33
DOCKED: BRANCH  27  38
DOCKED: ATOM     38  C   UNL d   1      20.888  -4.165   1.281 -0.24 +0.00    +0.017 C 
DOCKED: ATOM     39  C   UNL d   1      20.717  -5.158   0.395 -0.31 +0.00    +0.092 C 
DOCKED: BRANCH  39  40
DOCKED: ATOM     40  C   UNL d   1      21.726  -5.395  -0.640 -0.14 +0.02    +0.330 C 
DOCKED: ATOM     41  O   UNL d   1      22.585  -6.255  -0.658 -0.13 -0.03    -0.246 OA
DOCKED: BRANCH  40  42
DOCKED: ATOM     42  O   UNL d   1      21.583  -4.506  -1.636 -0.05 -0.03    -0.477 OA
DOCKED: ATOM     43  H   UNL d   1      20.824  -3.956  -1.353 +0.12 +0.00    +0.295 HD
DOCKED: ENDBRANCH  40  42
DOCKED: ENDBRANCH  39  40
DOCKED: ENDBRANCH  27  38
DOCKED: BRANCH   8  44
DOCKED: ATOM     44  C   UNL d   1      14.301   2.793   6.504 -0.08 +0.02    +0.141 C 
DOCKED: BRANCH  44  45
DOCKED: ATOM     45  C   UNL d   1      13.069   2.205   5.870 -0.17 +0.05    +0.306 C 
DOCKED: ATOM     46  O   UNL d   1      12.548   1.138   6.146 -0.29 -0.03    -0.251 OA
DOCKED: BRANCH  45  47
DOCKED: ATOM     47  O   UNL d   1      12.570   2.985   4.894 -0.08 -0.08    -0.481 OA
DOCKED: ATOM     48  H   UNL d   1      13.218   3.717   4.805 +0.09 +0.04    +0.295 HD
DOCKED: ENDBRANCH  45  47
DOCKED: ENDBRANCH  44  45
DOCKED: ENDBRANCH   8  44
DOCKED: BRANCH  22  49
DOCKED: ATOM     49  C   UNL d   1      16.673  -1.869  -1.590 -0.41 -0.02    +0.048 C 
DOCKED: BRANCH  49  50
DOCKED: ATOM     50  C   UNL d   1      17.964  -1.502  -2.321 -0.32 -0.03    +0.125 C 
DOCKED: BRANCH  50  51
DOCKED: ATOM     51  C   UNL d   1      19.048  -2.501  -2.030 -0.22 -0.04    +0.305 C 
DOCKED: ATOM     52  O   UNL d   1      19.038  -3.697  -2.263 -0.29 +0.05    -0.251 OA
DOCKED: BRANCH  51  53
DOCKED: ATOM     53  O   UNL d   1      20.113  -1.930  -1.433 -0.02 +0.02    -0.481 OA
DOCKED: ATOM     54  H   UNL d   1      20.876  -2.452  -1.757 +0.09 +0.00    +0.295 HD
DOCKED: ENDBRANCH  51  53
DOCKED: ENDBRANCH  50  51
DOCKED: ENDBRANCH  49  50
DOCKED: ENDBRANCH  22  49
DOCKED: TORSDOF 13
DOCKED: TER
DOCKED: ENDMDL
________________________________________________________________________________


	BEGINNING GENETIC ALGORITHM DOCKING 84 of 100
Run: 84 Seed: 645245318 2137139373 [ Run 84 of 100 GA/GALS ]
Beginning LAMARCKIAN GENETIC ALGORITHM (LGA), with a maximum of 25000000 energy evaluations.

Final-Value: -13.902


	FINAL GENETIC ALGORITHM DOCKED STATE
	_______________________________________________


Detailed state:  trans 13.729 -10.229 7.861 quatxyzw -0.943356 0.230598 0.193127 -0.140020 center 0.153 0.018 -0.028 ntor 13 85.0522 -166.8059 32.9230 24.5894 -134.7270 -19.1238 175.4568 -180.0000 54.3971 146.0651 -53.2255 -31.3204 -5.6985
State:	 13.729 -10.229   7.861  -0.953  0.233  0.195 -163.902     85.05 -166.81   32.92   24.59 -134.73  -19.12  175.46 -180.00   54.40  146.07  -53.23  -31.32   -5.70

DOCKED: MODEL       84
DOCKED: USER    Run = 84
DOCKED: USER    DPF = D:/Protein_go_brrr/autodock/final/mut_D99N/heme/dock.dpf
DOCKED: USER  
DOCKED: USER    Estimated Free Energy of Binding    =   -6.50 kcal/mol  [=(1)+(2)+(3)-(4)]
DOCKED: USER    Estimated Inhibition Constant, Ki   =   17.15 uM (micromolar)  [Temperature = 298.15 K]
DOCKED: USER    
DOCKED: USER    (1) Final Intermolecular Energy     =  -10.38 kcal/mol
DOCKED: USER        vdW + Hbond + desolv Energy     =   -9.93 kcal/mol
DOCKED: USER        Electrostatic Energy            =   -0.45 kcal/mol
DOCKED: USER    (2) Final Total Internal Energy     =   -3.52 kcal/mol
DOCKED: USER    (3) Torsional Free Energy           =   +3.88 kcal/mol
DOCKED: USER    (4) Unbound System's Energy  [=(2)] =   -3.52 kcal/mol
DOCKED: USER    
DOCKED: USER    
DOCKED: USER    NEWDPF move heme_opt.pdbqt
DOCKED: USER    NEWDPF about 0.153000 0.018000 -0.028000
DOCKED: USER    NEWDPF tran0 13.728522 -10.228896 7.860981
DOCKED: USER    NEWDPF quaternion0 -0.943356 0.230598 0.193127 -0.140020
DOCKED: USER    NEWDPF axisangle0 -0.952742 0.232892 0.195048 -163.901938
DOCKED: USER    NEWDPF quat0 -0.952742 0.232892 0.195048 -163.901938
DOCKED: USER    NEWDPF dihe0 85.05 -166.81 32.92 24.59 -134.73 -19.12 175.46 -180.00 54.40 146.07 -53.23 -31.32 -5.70 
DOCKED: USER  keepresnum = 1 
DOCKED: USER  
DOCKED: REMARK  13 active torsions:
DOCKED: REMARK  status: ('A' for Active; 'I' for Inactive)
DOCKED: REMARK    1  A    between atoms: O_3  and  C_38 
DOCKED: REMARK    2  A    between atoms: O_4  and  C_40 
DOCKED: REMARK    3  A    between atoms: O_7  and  C_46 
DOCKED: REMARK    4  A    between atoms: O_9  and  C_48 
DOCKED: REMARK    5  A    between atoms: C_15  and  C_20 
DOCKED: REMARK    6  A    between atoms: C_16  and  C_23 
DOCKED: REMARK    7  A    between atoms: C_20  and  C_38 
DOCKED: REMARK    8  A    between atoms: C_23  and  C_40 
DOCKED: REMARK    9  A    between atoms: C_32  and  C_41 
DOCKED: REMARK   10  A    between atoms: C_37  and  C_45 
DOCKED: REMARK   11  A    between atoms: C_41  and  C_44 
DOCKED: REMARK   12  A    between atoms: C_44  and  C_46 
DOCKED: REMARK   13  A    between atoms: C_47  and  C_48 
DOCKED: USER                              x       y       z     vdW  Elec       q    Type
DOCKED: USER                           _______ _______ _______ _____ _____    ______ ____
DOCKED: ROOT
DOCKED: ATOM      1  O   UNL d   1       8.112  -9.305   9.398 -0.53 +0.27    -0.289 OA
DOCKED: ATOM      2  O   UNL d   1      14.396  -5.634  11.249 -0.09 +0.07    -0.289 OA
DOCKED: ATOM      3  N   UNL d   1      11.240 -10.309   8.347 -0.16 +0.09    -0.247 NA
DOCKED: ATOM      4  N   UNL d   1      13.014  -8.122   9.298 -0.11 +0.11    -0.247 NA
DOCKED: ATOM      5  N   UNL d   1      15.078  -9.185   7.602 +0.08 +0.17    -0.354 N 
DOCKED: ATOM      6  N   UNL d   1      13.225 -11.438   6.606 -0.13 +0.16    -0.354 N 
DOCKED: ATOM      7  C   UNL d   1       8.945 -11.027   7.875 -0.27 -0.03    +0.084 A 
DOCKED: ATOM      8  C   UNL d   1      12.267  -6.842  11.240 -0.15 -0.03    +0.084 A 
DOCKED: ATOM      9  C   UNL d   1      11.982  -7.916  10.185 -0.23 -0.02    +0.058 A 
DOCKED: ATOM     10  C   UNL d   1      10.448 -11.191   7.632 -0.25 -0.02    +0.058 A 
DOCKED: ATOM     11  C   UNL d   1       9.029  -9.906   8.867 -0.08 -0.08    +0.193 A 
DOCKED: ATOM     12  C   UNL d   1      10.473  -9.579   9.089 -0.17 -0.04    +0.109 A 
DOCKED: ATOM     13  C   UNL d   1      13.638  -6.451  10.764 -0.14 -0.06    +0.193 A 
DOCKED: ATOM     14  C   UNL d   1       8.213 -10.528   6.626 -0.57 -0.01    +0.026 C 
DOCKED: ATOM     15  C   UNL d   1      10.807  -8.560  10.105 -0.22 -0.03    +0.055 C 
DOCKED: ATOM     16  C   UNL d   1      12.386  -7.442  12.644 -0.05 -0.01    +0.026 C 
DOCKED: ATOM     17  C   UNL d   1      13.970  -7.296   9.577 -0.20 -0.04    +0.109 A 
DOCKED: ATOM     18  C   UNL d   1      10.931 -12.179   6.855 -0.27 -0.01    +0.050 C 
DOCKED: ATOM     19  C   UNL d   1      12.304 -12.460   6.641 -0.20 -0.02    +0.045 A 
DOCKED: ATOM     20  C   UNL d   1      15.662  -8.000   7.969 -0.23 -0.02    +0.045 A 
DOCKED: ATOM     21  C   UNL d   1      15.243  -7.103   8.868 -0.24 -0.02    +0.057 C 
DOCKED: ATOM     22  C   UNL d   1      16.958  -8.999   6.375 -0.30 +0.00    -0.019 A 
DOCKED: ATOM     23  C   UNL d   1      15.788  -9.858   6.644 -0.26 -0.02    +0.045 A 
DOCKED: ATOM     24  C   UNL d   1      16.878  -7.901   7.164 -0.29 +0.00    -0.022 A 
DOCKED: ATOM     25  C   UNL d   1      14.475 -11.924   6.297 -0.23 -0.03    +0.049 A 
DOCKED: ATOM     26  C   UNL d   1      12.978 -13.644   6.384 -0.15 +0.01    -0.018 A 
DOCKED: ATOM     27  C   UNL d   1      14.352 -13.302   6.187 -0.13 -0.00    +0.003 A 
DOCKED: ATOM     28  C   UNL d   1      15.560 -11.040   6.049 -0.32 -0.03    +0.052 C 
DOCKED: ATOM     29  C   UNL d   1      17.825  -6.753   7.264 -0.22 +0.00    +0.046 C 
DOCKED: ATOM     30  C   UNL d   1      12.386 -15.012   6.328 -0.13 -0.01    +0.046 C 
DOCKED: ATOM     31  H   UNL d   1      14.249  -9.531   8.072 -0.34 -0.09    +0.166 HD
DOCKED: ATOM     32  H   UNL d   1      12.987 -10.464   6.750 -0.35 -0.11    +0.166 HD
DOCKED: ENDROOT
DOCKED: BRANCH   7  33
DOCKED: ATOM     33  C   UNL d   1       8.242 -12.240   8.492 -0.19 -0.05    +0.141 C 
DOCKED: BRANCH  33  34
DOCKED: ATOM     34  C   UNL d   1       7.978 -12.071   9.964 -0.08 -0.15    +0.306 C 
DOCKED: ATOM     35  O   UNL d   1       8.782 -12.240  10.864 -0.03 +0.11    -0.251 OA
DOCKED: BRANCH  34  36
DOCKED: ATOM     36  O   UNL d   1       6.713 -11.693  10.223 -0.38 +0.34    -0.481 OA
DOCKED: ATOM     37  H   UNL d   1       6.764 -10.720  10.334 -0.40 -0.51    +0.295 HD
DOCKED: ENDBRANCH  34  36
DOCKED: ENDBRANCH  33  34
DOCKED: ENDBRANCH   7  33
DOCKED: BRANCH  27  38
DOCKED: ATOM     38  C   UNL d   1      15.398 -14.230   5.881 -0.05 -0.01    +0.017 C 
DOCKED: ATOM     39  C   UNL d   1      16.702 -13.926   5.795 -0.08 -0.05    +0.092 C 
DOCKED: BRANCH  39  40
DOCKED: ATOM     40  C   UNL d   1      17.677 -14.976   5.490 -0.03 -0.10    +0.330 C 
DOCKED: ATOM     41  O   UNL d   1      17.547 -16.177   5.634 -0.02 +0.04    -0.246 OA
DOCKED: BRANCH  40  42
DOCKED: ATOM     42  O   UNL d   1      18.800 -14.434   4.995 -0.01 +0.08    -0.477 OA
DOCKED: ATOM     43  H   UNL d   1      18.704 -13.478   5.188 +0.07 -0.05    +0.295 HD
DOCKED: ENDBRANCH  40  42
DOCKED: ENDBRANCH  39  40
DOCKED: ENDBRANCH  27  38
DOCKED: BRANCH   8  44
DOCKED: ATOM     44  C   UNL d   1      11.319  -5.638  11.231 -0.27 -0.08    +0.141 C 
DOCKED: BRANCH  44  45
DOCKED: ATOM     45  C   UNL d   1      10.198  -5.756  12.229 -0.14 -0.23    +0.306 C 
DOCKED: ATOM     46  O   UNL d   1       9.845  -4.908  13.029 -0.11 +0.17    -0.251 OA
DOCKED: BRANCH  45  47
DOCKED: ATOM     47  O   UNL d   1       9.595  -6.958  12.185 -0.04 +0.60    -0.481 OA
DOCKED: ATOM     48  H   UNL d   1       8.661  -6.775  12.422 -0.38 -0.72    +0.295 HD
DOCKED: ENDBRANCH  45  47
DOCKED: ENDBRANCH  44  45
DOCKED: ENDBRANCH   8  44
DOCKED: BRANCH  22  49
DOCKED: ATOM     49  C   UNL d   1      18.027  -9.319   5.372 -0.25 +0.00    +0.048 C 
DOCKED: BRANCH  49  50
DOCKED: ATOM     50  C   UNL d   1      19.157 -10.144   5.989 -0.23 +0.02    +0.125 C 
DOCKED: BRANCH  50  51
DOCKED: ATOM     51  C   UNL d   1      19.422 -11.381   5.179 -0.16 +0.04    +0.305 C 
DOCKED: ATOM     52  O   UNL d   1      20.318 -12.193   5.334 -0.09 -0.05    -0.251 OA
DOCKED: BRANCH  51  53
DOCKED: ATOM     53  O   UNL d   1      18.528 -11.532   4.182 -0.19 +0.05    -0.481 OA
DOCKED: ATOM     54  H   UNL d   1      18.537 -12.495   3.998 +0.09 -0.07    +0.295 HD
DOCKED: ENDBRANCH  51  53
DOCKED: ENDBRANCH  50  51
DOCKED: ENDBRANCH  49  50
DOCKED: ENDBRANCH  22  49
DOCKED: TORSDOF 13
DOCKED: TER
DOCKED: ENDMDL
________________________________________________________________________________


	BEGINNING GENETIC ALGORITHM DOCKING 85 of 100
Run: 85 Seed: 527711118 794972731 [ Run 85 of 100 GA/GALS ]
Beginning LAMARCKIAN GENETIC ALGORITHM (LGA), with a maximum of 25000000 energy evaluations.

Final-Value: -11.802


	FINAL GENETIC ALGORITHM DOCKED STATE
	_______________________________________________


Detailed state:  trans 18.013 -1.948 2.384 quatxyzw -0.215591 -0.552021 -0.745632 0.304673 center 0.153 0.018 -0.028 ntor 13 112.1101 -140.1160 -100.0712 -57.5568 -152.1380 82.0148 122.3423 -137.2717 64.8691 -33.2393 -101.5476 -95.9737 -18.1868
State:	 18.013  -1.948   2.384  -0.226 -0.580 -0.783 144.523    112.11 -140.12 -100.07  -57.56 -152.14   82.01  122.34 -137.27   64.87  -33.24 -101.55  -95.97  -18.19

DOCKED: MODEL       85
DOCKED: USER    Run = 85
DOCKED: USER    DPF = D:/Protein_go_brrr/autodock/final/mut_D99N/heme/dock.dpf
DOCKED: USER  
DOCKED: USER    Estimated Free Energy of Binding    =   -3.87 kcal/mol  [=(1)+(2)+(3)-(4)]
DOCKED: USER    Estimated Inhibition Constant, Ki   =    1.46 mM (millimolar)  [Temperature = 298.15 K]
DOCKED: USER    
DOCKED: USER    (1) Final Intermolecular Energy     =   -7.75 kcal/mol
DOCKED: USER        vdW + Hbond + desolv Energy     =   -7.53 kcal/mol
DOCKED: USER        Electrostatic Energy            =   -0.22 kcal/mol
DOCKED: USER    (2) Final Total Internal Energy     =   -4.05 kcal/mol
DOCKED: USER    (3) Torsional Free Energy           =   +3.88 kcal/mol
DOCKED: USER    (4) Unbound System's Energy  [=(2)] =   -4.05 kcal/mol
DOCKED: USER    
DOCKED: USER    
DOCKED: USER    NEWDPF move heme_opt.pdbqt
DOCKED: USER    NEWDPF about 0.153000 0.018000 -0.028000
DOCKED: USER    NEWDPF tran0 18.012853 -1.947862 2.383764
DOCKED: USER    NEWDPF quaternion0 -0.215591 -0.552021 -0.745632 0.304673
DOCKED: USER    NEWDPF axisangle0 -0.226352 -0.579576 -0.782852 144.522978
DOCKED: USER    NEWDPF quat0 -0.226352 -0.579576 -0.782852 144.522978
DOCKED: USER    NEWDPF dihe0 112.11 -140.12 -100.07 -57.56 -152.14 82.01 122.34 -137.27 64.87 -33.24 -101.55 -95.97 -18.19 
DOCKED: USER  keepresnum = 1 
DOCKED: USER  
DOCKED: REMARK  13 active torsions:
DOCKED: REMARK  status: ('A' for Active; 'I' for Inactive)
DOCKED: REMARK    1  A    between atoms: O_3  and  C_38 
DOCKED: REMARK    2  A    between atoms: O_4  and  C_40 
DOCKED: REMARK    3  A    between atoms: O_7  and  C_46 
DOCKED: REMARK    4  A    between atoms: O_9  and  C_48 
DOCKED: REMARK    5  A    between atoms: C_15  and  C_20 
DOCKED: REMARK    6  A    between atoms: C_16  and  C_23 
DOCKED: REMARK    7  A    between atoms: C_20  and  C_38 
DOCKED: REMARK    8  A    between atoms: C_23  and  C_40 
DOCKED: REMARK    9  A    between atoms: C_32  and  C_41 
DOCKED: REMARK   10  A    between atoms: C_37  and  C_45 
DOCKED: REMARK   11  A    between atoms: C_41  and  C_44 
DOCKED: REMARK   12  A    between atoms: C_44  and  C_46 
DOCKED: REMARK   13  A    between atoms: C_47  and  C_48 
DOCKED: USER                              x       y       z     vdW  Elec       q    Type
DOCKED: USER                           _______ _______ _______ _____ _____    ______ ____
DOCKED: ROOT
DOCKED: ATOM      1  O   UNL d   1      22.121  -5.731   4.272 -0.06 -0.13    -0.289 OA
DOCKED: ATOM      2  O   UNL d   1      19.939  -3.887  -2.673 -0.13 -0.01    -0.289 OA
DOCKED: ATOM      3  N   UNL d   1      19.541  -3.529   3.648 -0.11 -0.01    -0.247 NA
DOCKED: ATOM      4  N   UNL d   1      19.619  -3.205   0.695 -0.11 +0.02    -0.247 NA
DOCKED: ATOM      5  N   UNL d   1      17.876  -0.938   0.991 -0.03 +0.02    -0.354 N 
DOCKED: ATOM      6  N   UNL d   1      17.815  -1.270   4.055 -0.04 +0.01    -0.354 N 
DOCKED: ATOM      7  C   UNL d   1      20.721  -4.284   5.659 -0.10 +0.01    +0.084 A 
DOCKED: ATOM      8  C   UNL d   1      20.558  -5.047  -0.608 -0.33 -0.00    +0.084 A 
DOCKED: ATOM      9  C   UNL d   1      20.258  -4.423   0.759 -0.26 -0.00    +0.058 A 
DOCKED: ATOM     10  C   UNL d   1      19.639  -3.406   5.024 -0.11 +0.00    +0.058 A 
DOCKED: ATOM     11  C   UNL d   1      21.205  -4.939   4.400 -0.16 +0.05    +0.193 A 
DOCKED: ATOM     12  C   UNL d   1      20.394  -4.418   3.254 -0.18 +0.01    +0.109 A 
DOCKED: ATOM     13  C   UNL d   1      20.005  -3.939  -1.460 -0.24 -0.01    +0.193 A 
DOCKED: ATOM     14  C   UNL d   1      21.860  -3.452   6.254 -0.04 +0.00    +0.026 C 
DOCKED: ATOM     15  C   UNL d   1      20.632  -4.993   1.915 -0.24 +0.00    +0.055 C 
DOCKED: ATOM     16  C   UNL d   1      19.730  -6.313  -0.848 -0.29 -0.00    +0.026 C 
DOCKED: ATOM     17  C   UNL d   1      19.474  -2.880  -0.550 -0.19 -0.01    +0.109 A 
DOCKED: ATOM     18  C   UNL d   1      18.809  -2.659   5.775 -0.12 +0.00    +0.050 C 
DOCKED: ATOM     19  C   UNL d   1      17.728  -1.884   5.284 -0.16 -0.00    +0.045 A 
DOCKED: ATOM     20  C   UNL d   1      18.211  -0.806  -0.332 -0.13 -0.00    +0.045 A 
DOCKED: ATOM     21  C   UNL d   1      18.905  -1.645  -1.108 -0.21 -0.01    +0.057 C 
DOCKED: ATOM     22  C   UNL d   1      17.011   1.028   0.312 -0.11 +0.00    -0.019 A 
DOCKED: ATOM     23  C   UNL d   1      17.151   0.121   1.469 -0.11 -0.00    +0.045 A 
DOCKED: ATOM     24  C   UNL d   1      17.639   0.473  -0.751 -0.13 +0.00    -0.022 A 
DOCKED: ATOM     25  C   UNL d   1      16.699  -0.501   3.818 -0.18 -0.00    +0.049 A 
DOCKED: ATOM     26  C   UNL d   1      16.509  -1.534   5.844 -0.27 +0.00    -0.018 A 
DOCKED: ATOM     27  C   UNL d   1      15.856  -0.676   4.906 -0.27 -0.00    +0.003 A 
DOCKED: ATOM     28  C   UNL d   1      16.629   0.352   2.683 -0.14 -0.00    +0.052 C 
DOCKED: ATOM     29  C   UNL d   1      17.764   0.999  -2.141 -0.13 -0.01    +0.046 C 
DOCKED: ATOM     30  C   UNL d   1      15.980  -1.970   7.169 -0.03 +0.00    +0.046 C 
DOCKED: ATOM     31  H   UNL d   1      18.091  -1.785   1.506 +0.07 -0.01    +0.166 HD
DOCKED: ATOM     32  H   UNL d   1      18.618  -1.354   3.442 +0.04 -0.00    +0.166 HD
DOCKED: ENDROOT
DOCKED: BRANCH   7  33
DOCKED: ATOM     33  C   UNL d   1      20.215  -5.336   6.652 -0.11 +0.03    +0.141 C 
DOCKED: BRANCH  33  34
DOCKED: ATOM     34  C   UNL d   1      20.401  -6.742   6.150 -0.15 +0.11    +0.306 C 
DOCKED: ATOM     35  O   UNL d   1      19.553  -7.432   5.610 -0.55 -0.12    -0.251 OA
DOCKED: BRANCH  34  36
DOCKED: ATOM     36  O   UNL d   1      21.647  -7.205   6.355 -0.07 -0.29    -0.481 OA
DOCKED: ATOM     37  H   UNL d   1      22.205  -6.697   5.729 +0.05 +0.21    +0.295 HD
DOCKED: ENDBRANCH  34  36
DOCKED: ENDBRANCH  33  34
DOCKED: ENDBRANCH   7  33
DOCKED: BRANCH  27  38
DOCKED: ATOM     38  C   UNL d   1      14.572  -0.072   5.096 -0.29 -0.00    +0.017 C 
DOCKED: ATOM     39  C   UNL d   1      14.329   1.248   5.095 -0.26 +0.00    +0.092 C 
DOCKED: BRANCH  39  40
DOCKED: ATOM     40  C   UNL d   1      12.962   1.739   5.283 -0.19 +0.03    +0.330 C 
DOCKED: ATOM     41  O   UNL d   1      12.352   1.857   6.329 -0.28 -0.06    -0.246 OA
DOCKED: BRANCH  40  42
DOCKED: ATOM     42  O   UNL d   1      12.424   2.075   4.100 +0.04 -0.05    -0.477 OA
DOCKED: ATOM     43  H   UNL d   1      12.737   1.373   3.493 -0.20 -0.01    +0.295 HD
DOCKED: ENDBRANCH  40  42
DOCKED: ENDBRANCH  39  40
DOCKED: ENDBRANCH  27  38
DOCKED: BRANCH   8  44
DOCKED: ATOM     44  C   UNL d   1      22.040  -5.287  -0.913 -0.17 +0.01    +0.141 C 
DOCKED: BRANCH  44  45
DOCKED: ATOM     45  C   UNL d   1      22.746  -4.062  -1.431 -0.04 +0.02    +0.306 C 
DOCKED: ATOM     46  O   UNL d   1      23.142  -3.118  -0.770 -0.02 -0.02    -0.251 OA
DOCKED: BRANCH  45  47
DOCKED: ATOM     47  O   UNL d   1      22.893  -4.080  -2.768 -0.03 -0.04    -0.481 OA
DOCKED: ATOM     48  H   UNL d   1      22.017  -3.810  -3.117 +0.08 +0.03    +0.295 HD
DOCKED: ENDBRANCH  45  47
DOCKED: ENDBRANCH  44  45
DOCKED: ENDBRANCH   8  44
DOCKED: BRANCH  22  49
DOCKED: ATOM     49  C   UNL d   1      16.296   2.346   0.356 -0.09 -0.00    +0.048 C 
DOCKED: BRANCH  49  50
DOCKED: ATOM     50  C   UNL d   1      14.898   2.257  -0.256 -0.19 -0.00    +0.125 C 
DOCKED: BRANCH  50  51
DOCKED: ATOM     51  C   UNL d   1      13.926   1.648   0.714 -0.21 +0.00    +0.305 C 
DOCKED: ATOM     52  O   UNL d   1      13.000   0.896   0.464 -0.34 +0.00    -0.251 OA
DOCKED: BRANCH  51  53
DOCKED: ATOM     53  O   UNL d   1      14.167   2.038   1.981 -0.10 -0.01    -0.481 OA
DOCKED: ATOM     54  H   UNL d   1      13.328   2.458   2.265 +0.12 +0.02    +0.295 HD
DOCKED: ENDBRANCH  51  53
DOCKED: ENDBRANCH  50  51
DOCKED: ENDBRANCH  49  50
DOCKED: ENDBRANCH  22  49
DOCKED: TORSDOF 13
DOCKED: TER
DOCKED: ENDMDL
________________________________________________________________________________


	BEGINNING GENETIC ALGORITHM DOCKING 86 of 100
Run: 86 Seed: 576250885 1831319837 [ Run 86 of 100 GA/GALS ]
Beginning LAMARCKIAN GENETIC ALGORITHM (LGA), with a maximum of 25000000 energy evaluations.

Final-Value: -10.652


	FINAL GENETIC ALGORITHM DOCKED STATE
	_______________________________________________


Detailed state:  trans 0.603 13.061 -9.223 quatxyzw 0.107915 -0.236809 0.833704 -0.487046 center 0.153 0.018 -0.028 ntor 13 178.9066 152.3475 -180.0000 104.1157 35.4772 131.3345 149.9601 64.9224 -120.8761 -0.9888 -63.7383 -158.0969 27.7187
State:	  0.603  13.061  -9.223   0.124 -0.271  0.955 -121.707    178.91  152.35 -180.00  104.12   35.48  131.33  149.96   64.92 -120.88   -0.99  -63.74 -158.10   27.72

DOCKED: MODEL       86
DOCKED: USER    Run = 86
DOCKED: USER    DPF = D:/Protein_go_brrr/autodock/final/mut_D99N/heme/dock.dpf
DOCKED: USER  
DOCKED: USER    Estimated Free Energy of Binding    =   -3.61 kcal/mol  [=(1)+(2)+(3)-(4)]
DOCKED: USER    Estimated Inhibition Constant, Ki   =    2.26 mM (millimolar)  [Temperature = 298.15 K]
DOCKED: USER    
DOCKED: USER    (1) Final Intermolecular Energy     =   -7.49 kcal/mol
DOCKED: USER        vdW + Hbond + desolv Energy     =   -7.16 kcal/mol
DOCKED: USER        Electrostatic Energy            =   -0.32 kcal/mol
DOCKED: USER    (2) Final Total Internal Energy     =   -3.17 kcal/mol
DOCKED: USER    (3) Torsional Free Energy           =   +3.88 kcal/mol
DOCKED: USER    (4) Unbound System's Energy  [=(2)] =   -3.17 kcal/mol
DOCKED: USER    
DOCKED: USER    
DOCKED: USER    NEWDPF move heme_opt.pdbqt
DOCKED: USER    NEWDPF about 0.153000 0.018000 -0.028000
DOCKED: USER    NEWDPF tran0 0.602637 13.061036 -9.222560
DOCKED: USER    NEWDPF quaternion0 0.107915 -0.236809 0.833704 -0.487046
DOCKED: USER    NEWDPF axisangle0 0.123561 -0.271141 0.954576 -121.706838
DOCKED: USER    NEWDPF quat0 0.123561 -0.271141 0.954576 -121.706838
DOCKED: USER    NEWDPF dihe0 178.91 152.35 -180.00 104.12 35.48 131.33 149.96 64.92 -120.88 -0.99 -63.74 -158.10 27.72 
DOCKED: USER  keepresnum = 1 
DOCKED: USER  
DOCKED: REMARK  13 active torsions:
DOCKED: REMARK  status: ('A' for Active; 'I' for Inactive)
DOCKED: REMARK    1  A    between atoms: O_3  and  C_38 
DOCKED: REMARK    2  A    between atoms: O_4  and  C_40 
DOCKED: REMARK    3  A    between atoms: O_7  and  C_46 
DOCKED: REMARK    4  A    between atoms: O_9  and  C_48 
DOCKED: REMARK    5  A    between atoms: C_15  and  C_20 
DOCKED: REMARK    6  A    between atoms: C_16  and  C_23 
DOCKED: REMARK    7  A    between atoms: C_20  and  C_38 
DOCKED: REMARK    8  A    between atoms: C_23  and  C_40 
DOCKED: REMARK    9  A    between atoms: C_32  and  C_41 
DOCKED: REMARK   10  A    between atoms: C_37  and  C_45 
DOCKED: REMARK   11  A    between atoms: C_41  and  C_44 
DOCKED: REMARK   12  A    between atoms: C_44  and  C_46 
DOCKED: REMARK   13  A    between atoms: C_47  and  C_48 
DOCKED: USER                              x       y       z     vdW  Elec       q    Type
DOCKED: USER                           _______ _______ _______ _____ _____    ______ ____
DOCKED: ROOT
DOCKED: ATOM      1  O   UNL d   1       1.930   7.769 -11.456 -0.10 +0.00    -0.289 OA
DOCKED: ATOM      2  O   UNL d   1       6.200  13.832 -10.275 +0.00 -0.01    -0.289 OA
DOCKED: ATOM      3  N   UNL d   1       0.665  10.735 -10.232 -0.10 +0.10    -0.247 NA
DOCKED: ATOM      4  N   UNL d   1       3.094  12.397  -9.825 -0.11 +0.07    -0.247 NA
DOCKED: ATOM      5  N   UNL d   1       1.482  14.210  -8.282 -0.06 +0.22    -0.354 N 
DOCKED: ATOM      6  N   UNL d   1      -1.029  12.470  -8.693 -0.13 +0.21    -0.354 N 
DOCKED: ATOM      7  C   UNL d   1      -0.243   8.488 -10.598 -0.20 -0.01    +0.084 A 
DOCKED: ATOM      8  C   UNL d   1       5.041  11.891 -11.212 -0.03 +0.00    +0.084 A 
DOCKED: ATOM      9  C   UNL d   1       3.621  11.535 -10.760 -0.09 -0.00    +0.058 A 
DOCKED: ATOM     10  C   UNL d   1      -0.454   9.927 -10.118 -0.21 -0.02    +0.058 A 
DOCKED: ATOM     11  C   UNL d   1       1.188   8.631 -11.021 -0.10 -0.02    +0.193 A 
DOCKED: ATOM     12  C   UNL d   1       1.615  10.044 -10.772 -0.11 -0.02    +0.109 A 
DOCKED: ATOM     13  C   UNL d   1       5.237  13.093 -10.333 -0.02 +0.01    +0.193 A 
DOCKED: ATOM     14  C   UNL d   1      -0.322   7.481  -9.448 -0.49 -0.00    +0.026 C 
DOCKED: ATOM     15  C   UNL d   1       2.970  10.447 -11.200 -0.10 -0.00    +0.055 C 
DOCKED: ATOM     16  C   UNL d   1       5.075  12.340 -12.676 -0.00 +0.00    +0.026 C 
DOCKED: ATOM     17  C   UNL d   1       3.988  13.289  -9.537 -0.11 -0.02    +0.109 A 
DOCKED: ATOM     18  C   UNL d   1      -1.661  10.363  -9.712 -0.34 -0.01    +0.050 C 
DOCKED: ATOM     19  C   UNL d   1      -1.970  11.694  -9.331 -0.30 -0.01    +0.045 A 
DOCKED: ATOM     20  C   UNL d   1       2.728  14.715  -8.012 -0.12 -0.02    +0.045 A 
DOCKED: ATOM     21  C   UNL d   1       3.904  14.375  -8.549 -0.12 -0.01    +0.057 C 
DOCKED: ATOM     22  C   UNL d   1       1.196  15.791  -6.703 -0.11 +0.00    -0.019 A 
DOCKED: ATOM     23  C   UNL d   1       0.493  14.798  -7.540 -0.11 -0.02    +0.045 A 
DOCKED: ATOM     24  C   UNL d   1       2.519  15.738  -6.988 -0.09 +0.01    -0.022 A 
DOCKED: ATOM     25  C   UNL d   1      -1.566  13.685  -8.336 -0.22 -0.01    +0.049 A 
DOCKED: ATOM     26  C   UNL d   1      -3.136  12.437  -9.425 -0.30 +0.00    -0.018 A 
DOCKED: ATOM     27  C   UNL d   1      -2.869  13.700  -8.812 -0.27 -0.00    +0.003 A 
DOCKED: ATOM     28  C   UNL d   1      -0.834  14.597  -7.528 -0.18 -0.01    +0.052 C 
DOCKED: ATOM     29  C   UNL d   1       3.630  16.550  -6.415 -0.04 -0.01    +0.046 C 
DOCKED: ATOM     30  C   UNL d   1      -4.421  12.003 -10.046 -0.15 +0.00    +0.046 C 
DOCKED: ATOM     31  H   UNL d   1       1.339  13.530  -9.020 +0.02 -0.11    +0.166 HD
DOCKED: ATOM     32  H   UNL d   1      -0.088  12.154  -8.487 -0.37 -0.24    +0.166 HD
DOCKED: ENDROOT
DOCKED: BRANCH   7  33
DOCKED: ATOM     33  C   UNL d   1      -1.113   8.057 -11.784 -0.09 -0.03    +0.141 C 
DOCKED: BRANCH  33  34
DOCKED: ATOM     34  C   UNL d   1      -2.551   7.839 -11.397 -0.19 -0.02    +0.306 C 
DOCKED: ATOM     35  O   UNL d   1      -3.435   8.679 -11.406 -0.21 -0.00    -0.251 OA
DOCKED: BRANCH  34  36
DOCKED: ATOM     36  O   UNL d   1      -2.801   6.572 -11.022 -0.13 +0.05    -0.481 OA
DOCKED: ATOM     37  H   UNL d   1      -1.952   6.101 -11.164 -0.40 -0.11    +0.295 HD
DOCKED: ENDBRANCH  34  36
DOCKED: ENDBRANCH  33  34
DOCKED: ENDBRANCH   7  33
DOCKED: BRANCH  27  38
DOCKED: ATOM     38  C   UNL d   1      -3.814  14.768  -8.678 -0.22 -0.00    +0.017 C 
DOCKED: ATOM     39  C   UNL d   1      -4.992  14.685  -8.041 -0.23 -0.00    +0.092 C 
DOCKED: BRANCH  39  40
DOCKED: ATOM     40  C   UNL d   1      -5.863  15.860  -7.960 -0.10 +0.01    +0.330 C 
DOCKED: ATOM     41  O   UNL d   1      -7.044  15.931  -8.241 -0.06 -0.01    -0.246 OA
DOCKED: BRANCH  40  42
DOCKED: ATOM     42  O   UNL d   1      -5.172  16.916  -7.504 -0.05 -0.03    -0.477 OA
DOCKED: ATOM     43  H   UNL d   1      -4.467  16.516  -6.953 +0.05 +0.05    +0.295 HD
DOCKED: ENDBRANCH  40  42
DOCKED: ENDBRANCH  39  40
DOCKED: ENDBRANCH  27  38
DOCKED: BRANCH   8  44
DOCKED: ATOM     44  C   UNL d   1       6.109  10.828 -10.934 -0.04 +0.02    +0.141 C 
DOCKED: BRANCH  44  45
DOCKED: ATOM     45  C   UNL d   1       6.107  10.342  -9.509 -0.06 +0.14    +0.306 C 
DOCKED: ATOM     46  O   UNL d   1       5.696   9.267  -9.108 +0.06 -0.19    -0.251 OA
DOCKED: BRANCH  45  47
DOCKED: ATOM     47  O   UNL d   1       6.601  11.255  -8.653 -0.05 -0.26    -0.481 OA
DOCKED: ATOM     48  H   UNL d   1       6.852  12.015  -9.220 +0.04 +0.08    +0.295 HD
DOCKED: ENDBRANCH  45  47
DOCKED: ENDBRANCH  44  45
DOCKED: ENDBRANCH   8  44
DOCKED: BRANCH  22  49
DOCKED: ATOM     49  C   UNL d   1       0.519  16.681  -5.702 -0.09 -0.00    +0.048 C 
DOCKED: BRANCH  49  50
DOCKED: ATOM     50  C   UNL d   1      -0.601  17.503  -6.339 -0.04 -0.00    +0.125 C 
DOCKED: BRANCH  50  51
DOCKED: ATOM     51  C   UNL d   1      -1.933  17.151  -5.738 -0.04 +0.03    +0.305 C 
DOCKED: ATOM     52  O   UNL d   1      -2.264  17.228  -4.568 -0.12 -0.04    -0.251 OA
DOCKED: BRANCH  51  53
DOCKED: ATOM     53  O   UNL d   1      -2.800  16.697  -6.665 -0.59 -0.09    -0.481 OA
DOCKED: ATOM     54  H   UNL d   1      -3.091  17.506  -7.135 +0.03 +0.03    +0.295 HD
DOCKED: ENDBRANCH  51  53
DOCKED: ENDBRANCH  50  51
DOCKED: ENDBRANCH  49  50
DOCKED: ENDBRANCH  22  49
DOCKED: TORSDOF 13
DOCKED: TER
DOCKED: ENDMDL
________________________________________________________________________________


	BEGINNING GENETIC ALGORITHM DOCKING 87 of 100
Run: 87 Seed: 1939791665 1378411748 [ Run 87 of 100 GA/GALS ]
Beginning LAMARCKIAN GENETIC ALGORITHM (LGA), with a maximum of 25000000 energy evaluations.

Final-Value: -11.699


	FINAL GENETIC ALGORITHM DOCKED STATE
	_______________________________________________


Detailed state:  trans -11.018 12.815 -13.260 quatxyzw -0.431349 0.515561 0.709923 -0.210105 center 0.153 0.018 -0.028 ntor 13 -99.3105 174.0519 -9.8159 -179.6755 -139.9338 -26.8257 -41.3104 -59.1354 -177.3822 122.4389 97.5536 61.8144 10.1588
State:	-11.018  12.815 -13.260  -0.441  0.527  0.726 -155.743    -99.31  174.05   -9.82 -179.68 -139.93  -26.83  -41.31  -59.14 -177.38  122.44   97.55   61.81   10.16

DOCKED: MODEL       87
DOCKED: USER    Run = 87
DOCKED: USER    DPF = D:/Protein_go_brrr/autodock/final/mut_D99N/heme/dock.dpf
DOCKED: USER  
DOCKED: USER    Estimated Free Energy of Binding    =   -6.78 kcal/mol  [=(1)+(2)+(3)-(4)]
DOCKED: USER    Estimated Inhibition Constant, Ki   =   10.64 uM (micromolar)  [Temperature = 298.15 K]
DOCKED: USER    
DOCKED: USER    (1) Final Intermolecular Energy     =  -10.66 kcal/mol
DOCKED: USER        vdW + Hbond + desolv Energy     =   -9.54 kcal/mol
DOCKED: USER        Electrostatic Energy            =   -1.12 kcal/mol
DOCKED: USER    (2) Final Total Internal Energy     =   -1.04 kcal/mol
DOCKED: USER    (3) Torsional Free Energy           =   +3.88 kcal/mol
DOCKED: USER    (4) Unbound System's Energy  [=(2)] =   -1.04 kcal/mol
DOCKED: USER    
DOCKED: USER    
DOCKED: USER    NEWDPF move heme_opt.pdbqt
DOCKED: USER    NEWDPF about 0.153000 0.018000 -0.028000
DOCKED: USER    NEWDPF tran0 -11.017735 12.815402 -13.260282
DOCKED: USER    NEWDPF quaternion0 -0.431349 0.515561 0.709923 -0.210105
DOCKED: USER    NEWDPF axisangle0 -0.441197 0.527332 0.726131 -155.742956
DOCKED: USER    NEWDPF quat0 -0.441197 0.527332 0.726131 -155.742956
DOCKED: USER    NEWDPF dihe0 -99.31 174.05 -9.82 -179.68 -139.93 -26.83 -41.31 -59.14 -177.38 122.44 97.55 61.81 10.16 
DOCKED: USER  keepresnum = 1 
DOCKED: USER  
DOCKED: REMARK  13 active torsions:
DOCKED: REMARK  status: ('A' for Active; 'I' for Inactive)
DOCKED: REMARK    1  A    between atoms: O_3  and  C_38 
DOCKED: REMARK    2  A    between atoms: O_4  and  C_40 
DOCKED: REMARK    3  A    between atoms: O_7  and  C_46 
DOCKED: REMARK    4  A    between atoms: O_9  and  C_48 
DOCKED: REMARK    5  A    between atoms: C_15  and  C_20 
DOCKED: REMARK    6  A    between atoms: C_16  and  C_23 
DOCKED: REMARK    7  A    between atoms: C_20  and  C_38 
DOCKED: REMARK    8  A    between atoms: C_23  and  C_40 
DOCKED: REMARK    9  A    between atoms: C_32  and  C_41 
DOCKED: REMARK   10  A    between atoms: C_37  and  C_45 
DOCKED: REMARK   11  A    between atoms: C_41  and  C_44 
DOCKED: REMARK   12  A    between atoms: C_44  and  C_46 
DOCKED: REMARK   13  A    between atoms: C_47  and  C_48 
DOCKED: USER                              x       y       z     vdW  Elec       q    Type
DOCKED: USER                           _______ _______ _______ _____ _____    ______ ____
DOCKED: ROOT
DOCKED: ATOM      1  O   UNL d   1      -9.502  13.587  -7.616 -0.19 +0.00    -0.289 OA
DOCKED: ATOM      2  O   UNL d   1      -5.358  13.604 -13.878 -0.07 +0.02    -0.289 OA
DOCKED: ATOM      3  N   UNL d   1     -10.827  12.946 -10.734 -0.19 +0.07    -0.247 NA
DOCKED: ATOM      4  N   UNL d   1      -8.547  13.468 -12.566 -0.16 +0.07    -0.247 NA
DOCKED: ATOM      5  N   UNL d   1     -10.417  13.445 -14.751 -0.09 +0.19    -0.354 N 
DOCKED: ATOM      6  N   UNL d   1     -12.779  12.923 -12.841 -0.04 +0.20    -0.354 N 
DOCKED: ATOM      7  C   UNL d   1     -11.759  13.239  -8.486 -0.20 -0.01    +0.084 A 
DOCKED: ATOM      8  C   UNL d   1      -6.296  13.203 -11.653 -0.17 -0.01    +0.084 A 
DOCKED: ATOM      9  C   UNL d   1      -7.811  13.225 -11.428 -0.25 -0.01    +0.058 A 
DOCKED: ATOM     10  C   UNL d   1     -11.987  12.976  -9.978 -0.25 -0.01    +0.058 A 
DOCKED: ATOM     11  C   UNL d   1     -10.264  13.335  -8.531 -0.07 -0.01    +0.193 A 
DOCKED: ATOM     12  C   UNL d   1      -9.818  13.114  -9.943 -0.14 -0.01    +0.109 A 
DOCKED: ATOM     13  C   UNL d   1      -6.306  13.517 -13.123 -0.06 -0.02    +0.193 A 
DOCKED: ATOM     14  C   UNL d   1     -12.329  14.591  -8.048 -0.13 -0.00    +0.026 C 
DOCKED: ATOM     15  C   UNL d   1      -8.367  13.071 -10.217 -0.32 -0.00    +0.055 C 
DOCKED: ATOM     16  C   UNL d   1      -5.712  11.802 -11.453 -0.32 -0.00    +0.026 C 
DOCKED: ATOM     17  C   UNL d   1      -7.730  13.661 -13.552 -0.14 -0.02    +0.109 A 
DOCKED: ATOM     18  C   UNL d   1     -13.213  12.709 -10.465 -0.26 -0.02    +0.050 C 
DOCKED: ATOM     19  C   UNL d   1     -13.508  12.372 -11.811 -0.22 -0.02    +0.045 A 
DOCKED: ATOM     20  C   UNL d   1      -9.301  13.907 -15.400 -0.17 -0.01    +0.045 A 
DOCKED: ATOM     21  C   UNL d   1      -8.050  14.014 -14.943 -0.13 -0.01    +0.057 C 
DOCKED: ATOM     22  C   UNL d   1     -11.084  14.020 -16.824 -0.13 +0.01    -0.019 A 
DOCKED: ATOM     23  C   UNL d   1     -11.542  13.475 -15.530 -0.19 -0.03    +0.045 A 
DOCKED: ATOM     24  C   UNL d   1      -9.756  14.272 -16.741 -0.12 +0.01    -0.022 A 
DOCKED: ATOM     25  C   UNL d   1     -13.290  12.532 -14.057 -0.17 -0.04    +0.049 A 
DOCKED: ATOM     26  C   UNL d   1     -14.493  11.574 -12.371 -0.24 +0.01    -0.018 A 
DOCKED: ATOM     27  C   UNL d   1     -14.338  11.663 -13.789 -0.25 -0.00    +0.003 A 
DOCKED: ATOM     28  C   UNL d   1     -12.803  13.097 -15.267 -0.19 -0.04    +0.052 C 
DOCKED: ATOM     29  C   UNL d   1      -8.843  14.814 -17.787 -0.05 -0.01    +0.046 C 
DOCKED: ATOM     30  C   UNL d   1     -15.515  10.774 -11.637 -0.23 -0.03    +0.046 C 
DOCKED: ATOM     31  H   UNL d   1     -10.357  13.054 -13.817 -0.53 -0.14    +0.166 HD
DOCKED: ATOM     32  H   UNL d   1     -12.004  13.560 -12.701 -0.09 -0.08    +0.166 HD
DOCKED: ENDROOT
DOCKED: BRANCH   7  33
DOCKED: ATOM     33  C   UNL d   1     -12.198  12.112  -7.546 -0.23 -0.02    +0.141 C 
DOCKED: BRANCH  33  34
DOCKED: ATOM     34  C   UNL d   1     -13.069  12.603  -6.421 -0.23 -0.03    +0.306 C 
DOCKED: ATOM     35  O   UNL d   1     -12.684  13.056  -5.357 -0.44 -0.00    -0.251 OA
DOCKED: BRANCH  34  36
DOCKED: ATOM     36  O   UNL d   1     -14.381  12.499  -6.698 -0.59 +0.07    -0.481 OA
DOCKED: ATOM     37  H   UNL d   1     -14.589  11.550  -6.558 -0.19 -0.13    +0.295 HD
DOCKED: ENDBRANCH  34  36
DOCKED: ENDBRANCH  33  34
DOCKED: ENDBRANCH   7  33
DOCKED: BRANCH  27  38
DOCKED: ATOM     38  C   UNL d   1     -15.165  11.001 -14.753 -0.20 -0.01    +0.017 C 
DOCKED: ATOM     39  C   UNL d   1     -15.035   9.722 -15.136 -0.07 -0.11    +0.092 C 
DOCKED: BRANCH  39  40
DOCKED: ATOM     40  C   UNL d   1     -15.960   9.158 -16.123 -0.06 -0.29    +0.330 C 
DOCKED: ATOM     41  O   UNL d   1     -17.115   9.481 -16.329 -0.02 +0.12    -0.246 OA
DOCKED: BRANCH  40  42
DOCKED: ATOM     42  O   UNL d   1     -15.353   8.190 -16.825 -0.04 +0.55    -0.477 OA
DOCKED: ATOM     43  H   UNL d   1     -14.423   8.225 -16.519 -0.44 -0.77    +0.295 HD
DOCKED: ENDBRANCH  40  42
DOCKED: ENDBRANCH  39  40
DOCKED: ENDBRANCH  27  38
DOCKED: BRANCH   8  44
DOCKED: ATOM     44  C   UNL d   1      -5.498  14.253 -10.874 -0.09 -0.00    +0.141 C 
DOCKED: BRANCH  44  45
DOCKED: ATOM     45  C   UNL d   1      -5.398  13.952  -9.402 -0.14 -0.00    +0.306 C 
DOCKED: ATOM     46  O   UNL d   1      -6.210  14.246  -8.543 -0.20 -0.00    -0.251 OA
DOCKED: BRANCH  45  47
DOCKED: ATOM     47  O   UNL d   1      -4.257  13.314  -9.084 -0.13 +0.03    -0.481 OA
DOCKED: ATOM     48  H   UNL d   1      -4.228  13.332  -8.103 -0.10 -0.05    +0.295 HD
DOCKED: ENDBRANCH  45  47
DOCKED: ENDBRANCH  44  45
DOCKED: ENDBRANCH   8  44
DOCKED: BRANCH  22  49
DOCKED: ATOM     49  C   UNL d   1     -11.981  14.254 -18.004 -0.07 -0.02    +0.048 C 
DOCKED: BRANCH  49  50
DOCKED: ATOM     50  C   UNL d   1     -12.386  12.944 -18.679 -0.02 -0.11    +0.125 C 
DOCKED: BRANCH  50  51
DOCKED: ATOM     51  C   UNL d   1     -11.307  12.461 -19.606 -0.05 -0.19    +0.305 C 
DOCKED: ATOM     52  O   UNL d   1     -10.912  12.994 -20.628 -0.02 +0.07    -0.251 OA
DOCKED: BRANCH  51  53
DOCKED: ATOM     53  O   UNL d   1     -10.774  11.294 -19.195 -0.06 +0.46    -0.481 OA
DOCKED: ATOM     54  H   UNL d   1     -11.263  11.085 -18.371 -0.39 -0.70    +0.295 HD
DOCKED: ENDBRANCH  51  53
DOCKED: ENDBRANCH  50  51
DOCKED: ENDBRANCH  49  50
DOCKED: ENDBRANCH  22  49
DOCKED: TORSDOF 13
DOCKED: TER
DOCKED: ENDMDL
________________________________________________________________________________


	BEGINNING GENETIC ALGORITHM DOCKING 88 of 100
Run: 88 Seed: 328108725 687669417 [ Run 88 of 100 GA/GALS ]
Beginning LAMARCKIAN GENETIC ALGORITHM (LGA), with a maximum of 25000000 energy evaluations.

Final-Value: -11.494


	FINAL GENETIC ALGORITHM DOCKED STATE
	_______________________________________________


Detailed state:  trans -10.485 13.230 -10.730 quatxyzw -0.566637 -0.273020 -0.306747 -0.714345 center 0.153 0.018 -0.028 ntor 13 46.4515 -59.4675 -130.8759 164.1183 -144.3417 31.2615 122.7900 114.4548 21.8488 -24.7632 16.4747 -145.6891 -178.8682
State:	-10.485  13.230 -10.730  -0.810 -0.390 -0.438 -88.821     46.45  -59.47 -130.88  164.12 -144.34   31.26  122.79  114.45   21.85  -24.76   16.47 -145.69 -178.87

DOCKED: MODEL       88
DOCKED: USER    Run = 88
DOCKED: USER    DPF = D:/Protein_go_brrr/autodock/final/mut_D99N/heme/dock.dpf
DOCKED: USER  
DOCKED: USER    Estimated Free Energy of Binding    =   -5.69 kcal/mol  [=(1)+(2)+(3)-(4)]
DOCKED: USER    Estimated Inhibition Constant, Ki   =   67.23 uM (micromolar)  [Temperature = 298.15 K]
DOCKED: USER    
DOCKED: USER    (1) Final Intermolecular Energy     =   -9.57 kcal/mol
DOCKED: USER        vdW + Hbond + desolv Energy     =   -9.17 kcal/mol
DOCKED: USER        Electrostatic Energy            =   -0.40 kcal/mol
DOCKED: USER    (2) Final Total Internal Energy     =   -1.92 kcal/mol
DOCKED: USER    (3) Torsional Free Energy           =   +3.88 kcal/mol
DOCKED: USER    (4) Unbound System's Energy  [=(2)] =   -1.92 kcal/mol
DOCKED: USER    
DOCKED: USER    
DOCKED: USER    NEWDPF move heme_opt.pdbqt
DOCKED: USER    NEWDPF about 0.153000 0.018000 -0.028000
DOCKED: USER    NEWDPF tran0 -10.484933 13.230368 -10.729733
DOCKED: USER    NEWDPF quaternion0 -0.566637 -0.273020 -0.306747 -0.714345
DOCKED: USER    NEWDPF axisangle0 -0.809720 -0.390143 -0.438339 -88.820966
DOCKED: USER    NEWDPF quat0 -0.809720 -0.390143 -0.438339 -88.820966
DOCKED: USER    NEWDPF dihe0 46.45 -59.47 -130.88 164.12 -144.34 31.26 122.79 114.45 21.85 -24.76 16.47 -145.69 -178.87 
DOCKED: USER  keepresnum = 1 
DOCKED: USER  
DOCKED: REMARK  13 active torsions:
DOCKED: REMARK  status: ('A' for Active; 'I' for Inactive)
DOCKED: REMARK    1  A    between atoms: O_3  and  C_38 
DOCKED: REMARK    2  A    between atoms: O_4  and  C_40 
DOCKED: REMARK    3  A    between atoms: O_7  and  C_46 
DOCKED: REMARK    4  A    between atoms: O_9  and  C_48 
DOCKED: REMARK    5  A    between atoms: C_15  and  C_20 
DOCKED: REMARK    6  A    between atoms: C_16  and  C_23 
DOCKED: REMARK    7  A    between atoms: C_20  and  C_38 
DOCKED: REMARK    8  A    between atoms: C_23  and  C_40 
DOCKED: REMARK    9  A    between atoms: C_32  and  C_41 
DOCKED: REMARK   10  A    between atoms: C_37  and  C_45 
DOCKED: REMARK   11  A    between atoms: C_41  and  C_44 
DOCKED: REMARK   12  A    between atoms: C_44  and  C_46 
DOCKED: REMARK   13  A    between atoms: C_47  and  C_48 
DOCKED: USER                              x       y       z     vdW  Elec       q    Type
DOCKED: USER                           _______ _______ _______ _____ _____    ______ ____
DOCKED: ROOT
DOCKED: ATOM      1  O   UNL d   1     -12.968  14.873 -15.818 -0.02 +0.10    -0.289 OA
DOCKED: ATOM      2  O   UNL d   1     -15.802  11.208  -9.908 -0.13 +0.20    -0.289 OA
DOCKED: ATOM      3  N   UNL d   1     -11.069  14.000 -13.075 -0.04 +0.11    -0.247 NA
DOCKED: ATOM      4  N   UNL d   1     -13.072  12.892 -11.181 -0.14 +0.09    -0.247 NA
DOCKED: ATOM      5  N   UNL d   1     -11.077  13.059  -9.117 -0.07 +0.05    -0.354 N 
DOCKED: ATOM      6  N   UNL d   1      -9.011  14.226 -11.085 -0.06 +0.05    -0.354 N 
DOCKED: ATOM      7  C   UNL d   1     -10.675  15.323 -15.101 -0.05 -0.02    +0.084 A 
DOCKED: ATOM      8  C   UNL d   1     -15.108  11.939 -12.139 -0.13 -0.04    +0.084 A 
DOCKED: ATOM      9  C   UNL d   1     -13.791  12.695 -12.339 -0.17 -0.03    +0.058 A 
DOCKED: ATOM     10  C   UNL d   1     -10.149  14.762 -13.776 -0.10 -0.02    +0.058 A 
DOCKED: ATOM     11  C   UNL d   1     -12.049  14.728 -15.033 -0.05 -0.07    +0.193 A 
DOCKED: ATOM     12  C   UNL d   1     -12.156  13.927 -13.771 -0.10 -0.05    +0.109 A 
DOCKED: ATOM     13  C   UNL d   1     -15.022  11.776 -10.647 -0.10 -0.09    +0.193 A 
DOCKED: ATOM     14  C   UNL d   1     -10.794  16.849 -15.071 -0.01 -0.00    +0.026 C 
DOCKED: ATOM     15  C   UNL d   1     -13.399  13.167 -13.533 -0.17 -0.03    +0.055 C 
DOCKED: ATOM     16  C   UNL d   1     -15.071  10.552 -12.788 -0.28 -0.02    +0.026 C 
DOCKED: ATOM     17  C   UNL d   1     -13.746  12.403 -10.190 -0.19 -0.04    +0.109 A 
DOCKED: ATOM     18  C   UNL d   1      -8.869  14.936 -13.398 -0.11 -0.01    +0.050 C 
DOCKED: ATOM     19  C   UNL d   1      -8.272  14.385 -12.235 -0.13 -0.01    +0.045 A 
DOCKED: ATOM     20  C   UNL d   1     -12.179  12.764  -8.357 -0.26 -0.01    +0.045 A 
DOCKED: ATOM     21  C   UNL d   1     -13.410  12.434  -8.758 -0.30 -0.02    +0.057 C 
DOCKED: ATOM     22  C   UNL d   1     -10.426  13.231  -6.968 -0.26 +0.00    -0.019 A 
DOCKED: ATOM     23  C   UNL d   1      -9.970  13.354  -8.367 -0.15 -0.00    +0.045 A 
DOCKED: ATOM     24  C   UNL d   1     -11.734  12.880  -6.969 -0.36 +0.00    -0.022 A 
DOCKED: ATOM     25  C   UNL d   1      -8.217  13.763 -10.061 -0.21 -0.00    +0.049 A 
DOCKED: ATOM     26  C   UNL d   1      -6.974  13.981 -11.963 -0.14 +0.00    -0.018 A 
DOCKED: ATOM     27  C   UNL d   1      -6.950  13.571 -10.594 -0.21 -0.00    +0.003 A 
DOCKED: ATOM     28  C   UNL d   1      -8.719  13.669  -8.735 -0.27 -0.00    +0.052 C 
DOCKED: ATOM     29  C   UNL d   1     -12.632  12.627  -5.806 -0.44 -0.00    +0.046 C 
DOCKED: ATOM     30  C   UNL d   1      -5.826  13.973 -12.915 -0.11 -0.00    +0.046 C 
DOCKED: ATOM     31  H   UNL d   1     -11.098  12.976 -10.128 +0.05 -0.03    +0.166 HD
DOCKED: ATOM     32  H   UNL d   1      -9.993  14.462 -11.012 +0.04 -0.03    +0.166 HD
DOCKED: ENDROOT
DOCKED: BRANCH   7  33
DOCKED: ATOM     33  C   UNL d   1      -9.942  14.840 -16.356 -0.07 -0.03    +0.141 C 
DOCKED: BRANCH  33  34
DOCKED: ATOM     34  C   UNL d   1     -10.194  13.386 -16.652 -0.16 -0.14    +0.306 C 
DOCKED: ATOM     35  O   UNL d   1      -9.535  12.444 -16.246 -0.55 +0.06    -0.251 OA
DOCKED: BRANCH  34  36
DOCKED: ATOM     36  O   UNL d   1     -11.265  13.196 -17.441 -0.08 +0.37    -0.481 OA
DOCKED: ATOM     37  H   UNL d   1     -11.743  12.444 -17.031 -0.50 -0.46    +0.295 HD
DOCKED: ENDBRANCH  34  36
DOCKED: ENDBRANCH  33  34
DOCKED: ENDBRANCH   7  33
DOCKED: BRANCH  27  38
DOCKED: ATOM     38  C   UNL d   1      -5.794  13.093  -9.897 -0.23 +0.00    +0.017 C 
DOCKED: ATOM     39  C   UNL d   1      -4.746  13.846  -9.529 -0.21 -0.00    +0.092 C 
DOCKED: BRANCH  39  40
DOCKED: ATOM     40  C   UNL d   1      -3.629  13.236  -8.801 -0.22 -0.03    +0.330 C 
DOCKED: ATOM     41  O   UNL d   1      -3.239  12.086  -8.866 -0.34 +0.02    -0.246 OA
DOCKED: BRANCH  40  42
DOCKED: ATOM     42  O   UNL d   1      -3.040  14.148  -8.012 -0.16 +0.07    -0.477 OA
DOCKED: ATOM     43  H   UNL d   1      -3.132  13.772  -7.112 -0.48 -0.12    +0.295 HD
DOCKED: ENDBRANCH  40  42
DOCKED: ENDBRANCH  39  40
DOCKED: ENDBRANCH  27  38
DOCKED: BRANCH   8  44
DOCKED: ATOM     44  C   UNL d   1     -16.375  12.703 -12.536 -0.03 -0.05    +0.141 C 
DOCKED: BRANCH  44  45
DOCKED: ATOM     45  C   UNL d   1     -16.752  13.780 -11.553 +0.00 -0.07    +0.306 C 
DOCKED: ATOM     46  O   UNL d   1     -16.248  14.886 -11.458 -0.00 +0.04    -0.251 OA
DOCKED: BRANCH  45  47
DOCKED: ATOM     47  O   UNL d   1     -17.733  13.394 -10.717 +0.01 +0.12    -0.481 OA
DOCKED: ATOM     48  H   UNL d   1     -17.449  12.513 -10.392 +0.05 -0.10    +0.295 HD
DOCKED: ENDBRANCH  45  47
DOCKED: ENDBRANCH  44  45
DOCKED: ENDBRANCH   8  44
DOCKED: BRANCH  22  49
DOCKED: ATOM     49  C   UNL d   1      -9.553  13.479  -5.773 -0.48 +0.00    +0.048 C 
DOCKED: BRANCH  49  50
DOCKED: ATOM     50  C   UNL d   1      -9.747  14.887  -5.210 -0.24 +0.01    +0.125 C 
DOCKED: BRANCH  50  51
DOCKED: ATOM     51  C   UNL d   1      -8.605  15.266  -4.311 -0.18 +0.07    +0.305 C 
DOCKED: ATOM     52  O   UNL d   1      -7.718  16.072  -4.535 -0.15 -0.08    -0.251 OA
DOCKED: BRANCH  51  53
DOCKED: ATOM     53  O   UNL d   1      -8.630  14.585  -3.148 -0.17 -0.14    -0.481 OA
DOCKED: ATOM     54  H   UNL d   1      -9.539  14.222  -3.105 -0.31 -0.03    +0.295 HD
DOCKED: ENDBRANCH  51  53
DOCKED: ENDBRANCH  50  51
DOCKED: ENDBRANCH  49  50
DOCKED: ENDBRANCH  22  49
DOCKED: TORSDOF 13
DOCKED: TER
DOCKED: ENDMDL
________________________________________________________________________________


	BEGINNING GENETIC ALGORITHM DOCKING 89 of 100
Run: 89 Seed: 1396622261 48155736 [ Run 89 of 100 GA/GALS ]
Beginning LAMARCKIAN GENETIC ALGORITHM (LGA), with a maximum of 25000000 energy evaluations.

Final-Value: -12.271


	FINAL GENETIC ALGORITHM DOCKED STATE
	_______________________________________________


Detailed state:  trans 3.982 15.829 9.498 quatxyzw 0.432455 -0.448693 0.076027 0.778381 center 0.153 0.018 -0.028 ntor 13 166.4773 144.4603 -165.9806 -55.1365 -145.1763 47.8665 134.3076 -180.0000 16.9865 -21.9717 69.8024 -86.3211 125.5331
State:	  3.982  15.829   9.498   0.689 -0.715  0.121 77.775    166.48  144.46 -165.98  -55.14 -145.18   47.87  134.31 -180.00   16.99  -21.97   69.80  -86.32  125.53

DOCKED: MODEL       89
DOCKED: USER    Run = 89
DOCKED: USER    DPF = D:/Protein_go_brrr/autodock/final/mut_D99N/heme/dock.dpf
DOCKED: USER  
DOCKED: USER    Estimated Free Energy of Binding    =   -3.95 kcal/mol  [=(1)+(2)+(3)-(4)]
DOCKED: USER    Estimated Inhibition Constant, Ki   =    1.28 mM (millimolar)  [Temperature = 298.15 K]
DOCKED: USER    
DOCKED: USER    (1) Final Intermolecular Energy     =   -7.83 kcal/mol
DOCKED: USER        vdW + Hbond + desolv Energy     =   -7.64 kcal/mol
DOCKED: USER        Electrostatic Energy            =   -0.19 kcal/mol
DOCKED: USER    (2) Final Total Internal Energy     =   -4.45 kcal/mol
DOCKED: USER    (3) Torsional Free Energy           =   +3.88 kcal/mol
DOCKED: USER    (4) Unbound System's Energy  [=(2)] =   -4.45 kcal/mol
DOCKED: USER    
DOCKED: USER    
DOCKED: USER    NEWDPF move heme_opt.pdbqt
DOCKED: USER    NEWDPF about 0.153000 0.018000 -0.028000
DOCKED: USER    NEWDPF tran0 3.982480 15.829500 9.497565
DOCKED: USER    NEWDPF quaternion0 0.432455 -0.448693 0.076027 0.778381
DOCKED: USER    NEWDPF axisangle0 0.688851 -0.714716 0.121103 77.774871
DOCKED: USER    NEWDPF quat0 0.688851 -0.714716 0.121103 77.774871
DOCKED: USER    NEWDPF dihe0 166.48 144.46 -165.98 -55.14 -145.18 47.87 134.31 -180.00 16.99 -21.97 69.80 -86.32 125.53 
DOCKED: USER  keepresnum = 1 
DOCKED: USER  
DOCKED: REMARK  13 active torsions:
DOCKED: REMARK  status: ('A' for Active; 'I' for Inactive)
DOCKED: REMARK    1  A    between atoms: O_3  and  C_38 
DOCKED: REMARK    2  A    between atoms: O_4  and  C_40 
DOCKED: REMARK    3  A    between atoms: O_7  and  C_46 
DOCKED: REMARK    4  A    between atoms: O_9  and  C_48 
DOCKED: REMARK    5  A    between atoms: C_15  and  C_20 
DOCKED: REMARK    6  A    between atoms: C_16  and  C_23 
DOCKED: REMARK    7  A    between atoms: C_20  and  C_38 
DOCKED: REMARK    8  A    between atoms: C_23  and  C_40 
DOCKED: REMARK    9  A    between atoms: C_32  and  C_41 
DOCKED: REMARK   10  A    between atoms: C_37  and  C_45 
DOCKED: REMARK   11  A    between atoms: C_41  and  C_44 
DOCKED: REMARK   12  A    between atoms: C_44  and  C_46 
DOCKED: REMARK   13  A    between atoms: C_47  and  C_48 
DOCKED: USER                              x       y       z     vdW  Elec       q    Type
DOCKED: USER                           _______ _______ _______ _____ _____    ______ ____
DOCKED: ROOT
DOCKED: ATOM      1  O   UNL d   1       0.735  20.101  11.940 -0.01 +0.01    -0.289 OA
DOCKED: ATOM      2  O   UNL d   1       2.526  13.242  14.419 -0.29 +0.06    -0.289 OA
DOCKED: ATOM      3  N   UNL d   1       2.580  17.863  10.074 -0.06 -0.01    -0.247 NA
DOCKED: ATOM      4  N   UNL d   1       3.027  15.608  11.957 -0.09 +0.02    -0.247 NA
DOCKED: ATOM      5  N   UNL d   1       5.017  14.606  10.140 -0.13 +0.06    -0.354 N 
DOCKED: ATOM      6  N   UNL d   1       4.561  16.959   8.201 -0.03 -0.00    -0.354 N 
DOCKED: ATOM      7  C   UNL d   1       1.919  20.207   9.804 -0.03 +0.00    +0.084 A 
DOCKED: ATOM      8  C   UNL d   1       1.384  15.298  13.740 -0.18 -0.02    +0.084 A 
DOCKED: ATOM      9  C   UNL d   1       1.907  16.131  12.564 -0.12 -0.00    +0.058 A 
DOCKED: ATOM     10  C   UNL d   1       2.662  18.982   9.263 -0.08 +0.00    +0.058 A 
DOCKED: ATOM     11  C   UNL d   1       1.387  19.576  11.056 -0.02 -0.00    +0.193 A 
DOCKED: ATOM     12  C   UNL d   1       1.834  18.148  11.092 -0.07 -0.00    +0.109 A 
DOCKED: ATOM     13  C   UNL d   1       2.437  14.226  13.710 -0.18 -0.03    +0.193 A 
DOCKED: ATOM     14  C   UNL d   1       2.877  21.338  10.188 -0.01 -0.00    +0.026 C 
DOCKED: ATOM     15  C   UNL d   1       1.350  17.295  12.195 -0.10 -0.00    +0.055 C 
DOCKED: ATOM     16  C   UNL d   1       0.026  14.664  13.426 -0.37 -0.01    +0.026 C 
DOCKED: ATOM     17  C   UNL d   1       3.376  14.534  12.590 -0.17 -0.01    +0.109 A 
DOCKED: ATOM     18  C   UNL d   1       3.258  18.998   8.056 -0.11 +0.00    +0.050 C 
DOCKED: ATOM     19  C   UNL d   1       3.894  17.891   7.439 -0.14 +0.00    +0.045 A 
DOCKED: ATOM     20  C   UNL d   1       5.245  13.786  11.214 -0.22 -0.01    +0.045 A 
DOCKED: ATOM     21  C   UNL d   1       4.542  13.672  12.346 -0.28 -0.01    +0.057 C 
DOCKED: ATOM     22  C   UNL d   1       6.869  13.421   9.650 -0.25 +0.00    -0.019 A 
DOCKED: ATOM     23  C   UNL d   1       5.946  14.458   9.145 -0.27 -0.01    +0.045 A 
DOCKED: ATOM     24  C   UNL d   1       6.448  13.027  10.875 -0.20 +0.00    -0.022 A 
DOCKED: ATOM     25  C   UNL d   1       5.177  16.028   7.397 -0.20 -0.00    +0.049 A 
DOCKED: ATOM     26  C   UNL d   1       4.050  17.536   6.108 -0.24 -0.00    -0.018 A 
DOCKED: ATOM     27  C   UNL d   1       4.844  16.348   6.089 -0.31 -0.00    +0.003 A 
DOCKED: ATOM     28  C   UNL d   1       6.055  15.056   7.949 -0.30 -0.01    +0.052 C 
DOCKED: ATOM     29  C   UNL d   1       7.040  12.000  11.779 -0.14 -0.00    +0.046 C 
DOCKED: ATOM     30  C   UNL d   1       3.494  18.254   4.924 -0.15 +0.00    +0.046 C 
DOCKED: ATOM     31  H   UNL d   1       4.189  15.190  10.090 +0.05 -0.01    +0.166 HD
DOCKED: ATOM     32  H   UNL d   1       4.613  16.996   9.212 +0.03 -0.00    +0.166 HD
DOCKED: ENDROOT
DOCKED: BRANCH   7  33
DOCKED: ATOM     33  C   UNL d   1       0.769  20.718   8.929 -0.03 +0.00    +0.141 C 
DOCKED: BRANCH  33  34
DOCKED: ATOM     34  C   UNL d   1      -0.356  19.726   8.813 -0.04 +0.01    +0.306 C 
DOCKED: ATOM     35  O   UNL d   1      -0.474  18.867   7.955 -0.13 -0.02    -0.251 OA
DOCKED: BRANCH  34  36
DOCKED: ATOM     36  O   UNL d   1      -1.272  19.865   9.787 +0.00 -0.00    -0.481 OA
DOCKED: ATOM     37  H   UNL d   1      -0.827  20.413  10.468 +0.02 -0.00    +0.295 HD
DOCKED: ENDBRANCH  34  36
DOCKED: ENDBRANCH  33  34
DOCKED: ENDBRANCH   7  33
DOCKED: BRANCH  27  38
DOCKED: ATOM     38  C   UNL d   1       5.257  15.651   4.908 -0.31 -0.00    +0.017 C 
DOCKED: ATOM     39  C   UNL d   1       6.512  15.260   4.639 -0.28 -0.01    +0.092 C 
DOCKED: BRANCH  39  40
DOCKED: ATOM     40  C   UNL d   1       6.801  14.535   3.399 -0.21 -0.02    +0.330 C 
DOCKED: ATOM     41  O   UNL d   1       6.417  14.801   2.276 -0.23 -0.00    -0.246 OA
DOCKED: BRANCH  40  42
DOCKED: ATOM     42  O   UNL d   1       7.593  13.482   3.653 -0.16 +0.03    -0.477 OA
DOCKED: ATOM     43  H   UNL d   1       8.184  13.800   4.366 +0.08 -0.02    +0.295 HD
DOCKED: ENDBRANCH  40  42
DOCKED: ENDBRANCH  39  40
DOCKED: ENDBRANCH  27  38
DOCKED: BRANCH   8  44
DOCKED: ATOM     44  C   UNL d   1       1.364  16.010  15.096 -0.09 -0.04    +0.141 C 
DOCKED: BRANCH  44  45
DOCKED: ATOM     45  C   UNL d   1       2.736  16.221  15.677 -0.06 -0.06    +0.306 C 
DOCKED: ATOM     46  O   UNL d   1       3.457  17.189  15.507 -0.02 +0.03    -0.251 OA
DOCKED: BRANCH  45  47
DOCKED: ATOM     47  O   UNL d   1       3.144  15.180  16.426 -0.08 +0.12    -0.481 OA
DOCKED: ATOM     48  H   UNL d   1       2.511  14.461  16.216 -0.46 -0.15    +0.295 HD
DOCKED: ENDBRANCH  45  47
DOCKED: ENDBRANCH  44  45
DOCKED: ENDBRANCH   8  44
DOCKED: BRANCH  22  49
DOCKED: ATOM     49  C   UNL d   1       8.073  12.929   8.902 -0.26 -0.00    +0.048 C 
DOCKED: BRANCH  49  50
DOCKED: ATOM     50  C   UNL d   1       8.838  14.073   8.238 -0.10 -0.01    +0.125 C 
DOCKED: BRANCH  50  51
DOCKED: ATOM     51  C   UNL d   1       8.679  14.029   6.744 -0.11 -0.02    +0.305 C 
DOCKED: ATOM     52  O   UNL d   1       9.068  14.849   5.931 -0.05 +0.01    -0.251 OA
DOCKED: BRANCH  51  53
DOCKED: ATOM     53  O   UNL d   1       8.009  12.931   6.341 -0.13 +0.05    -0.481 OA
DOCKED: ATOM     54  H   UNL d   1       7.260  13.288   5.819 -0.35 -0.10    +0.295 HD
DOCKED: ENDBRANCH  51  53
DOCKED: ENDBRANCH  50  51
DOCKED: ENDBRANCH  49  50
DOCKED: ENDBRANCH  22  49
DOCKED: TORSDOF 13
DOCKED: TER
DOCKED: ENDMDL
________________________________________________________________________________


	BEGINNING GENETIC ALGORITHM DOCKING 90 of 100
Run: 90 Seed: 17392957 1709692928 [ Run 90 of 100 GA/GALS ]
Beginning LAMARCKIAN GENETIC ALGORITHM (LGA), with a maximum of 25000000 energy evaluations.

Final-Value: -10.220


	FINAL GENETIC ALGORITHM DOCKED STATE
	_______________________________________________


Detailed state:  trans 5.227 15.872 8.936 quatxyzw 0.809390 -0.061855 -0.319193 -0.489058 center 0.153 0.018 -0.028 ntor 13 119.3552 -61.0556 -131.6996 -65.2907 35.0972 7.6265 122.8925 31.5336 -114.4181 -25.0343 -29.0323 -85.5326 20.9512
State:	  5.227  15.872   8.936   0.928 -0.071 -0.366 -121.443    119.36  -61.06 -131.70  -65.29   35.10    7.63  122.89   31.53 -114.42  -25.03  -29.03  -85.53   20.95

DOCKED: MODEL       90
DOCKED: USER    Run = 90
DOCKED: USER    DPF = D:/Protein_go_brrr/autodock/final/mut_D99N/heme/dock.dpf
DOCKED: USER  
DOCKED: USER    Estimated Free Energy of Binding    =   -3.09 kcal/mol  [=(1)+(2)+(3)-(4)]
DOCKED: USER    Estimated Inhibition Constant, Ki   =    5.40 mM (millimolar)  [Temperature = 298.15 K]
DOCKED: USER    
DOCKED: USER    (1) Final Intermolecular Energy     =   -6.97 kcal/mol
DOCKED: USER        vdW + Hbond + desolv Energy     =   -6.82 kcal/mol
DOCKED: USER        Electrostatic Energy            =   -0.16 kcal/mol
DOCKED: USER    (2) Final Total Internal Energy     =   -3.25 kcal/mol
DOCKED: USER    (3) Torsional Free Energy           =   +3.88 kcal/mol
DOCKED: USER    (4) Unbound System's Energy  [=(2)] =   -3.25 kcal/mol
DOCKED: USER    
DOCKED: USER    
DOCKED: USER    NEWDPF move heme_opt.pdbqt
DOCKED: USER    NEWDPF about 0.153000 0.018000 -0.028000
DOCKED: USER    NEWDPF tran0 5.226648 15.871894 8.935509
DOCKED: USER    NEWDPF quaternion0 0.809390 -0.061855 -0.319193 -0.489058
DOCKED: USER    NEWDPF axisangle0 0.927932 -0.070914 -0.365942 -121.442615
DOCKED: USER    NEWDPF quat0 0.927932 -0.070914 -0.365942 -121.442615
DOCKED: USER    NEWDPF dihe0 119.36 -61.06 -131.70 -65.29 35.10 7.63 122.89 31.53 -114.42 -25.03 -29.03 -85.53 20.95 
DOCKED: USER  keepresnum = 1 
DOCKED: USER  
DOCKED: REMARK  13 active torsions:
DOCKED: REMARK  status: ('A' for Active; 'I' for Inactive)
DOCKED: REMARK    1  A    between atoms: O_3  and  C_38 
DOCKED: REMARK    2  A    between atoms: O_4  and  C_40 
DOCKED: REMARK    3  A    between atoms: O_7  and  C_46 
DOCKED: REMARK    4  A    between atoms: O_9  and  C_48 
DOCKED: REMARK    5  A    between atoms: C_15  and  C_20 
DOCKED: REMARK    6  A    between atoms: C_16  and  C_23 
DOCKED: REMARK    7  A    between atoms: C_20  and  C_38 
DOCKED: REMARK    8  A    between atoms: C_23  and  C_40 
DOCKED: REMARK    9  A    between atoms: C_32  and  C_41 
DOCKED: REMARK   10  A    between atoms: C_37  and  C_45 
DOCKED: REMARK   11  A    between atoms: C_41  and  C_44 
DOCKED: REMARK   12  A    between atoms: C_44  and  C_46 
DOCKED: REMARK   13  A    between atoms: C_47  and  C_48 
DOCKED: USER                              x       y       z     vdW  Elec       q    Type
DOCKED: USER                           _______ _______ _______ _____ _____    ______ ____
DOCKED: ROOT
DOCKED: ATOM      1  O   UNL d   1       0.786  16.830  12.693 -0.06 +0.02    -0.289 OA
DOCKED: ATOM      2  O   UNL d   1       3.015  20.646   6.622 -0.02 -0.01    -0.289 OA
DOCKED: ATOM      3  N   UNL d   1       3.568  15.953  10.853 -0.08 +0.01    -0.247 NA
DOCKED: ATOM      4  N   UNL d   1       3.467  17.810   8.535 -0.02 -0.01    -0.247 NA
DOCKED: ATOM      5  N   UNL d   1       5.441  16.163   7.248 -0.11 +0.02    -0.354 N 
DOCKED: ATOM      6  N   UNL d   1       5.525  14.231   9.648 -0.14 +0.09    -0.354 N 
DOCKED: ATOM      7  C   UNL d   1       2.354  14.955  12.734 -0.18 -0.01    +0.084 A 
DOCKED: ATOM      8  C   UNL d   1       2.319  19.943   8.861 -0.05 +0.00    +0.084 A 
DOCKED: ATOM      9  C   UNL d   1       2.708  18.563   9.403 -0.09 +0.00    +0.058 A 
DOCKED: ATOM     10  C   UNL d   1       3.509  14.884  11.731 -0.20 -0.01    +0.058 A 
DOCKED: ATOM     11  C   UNL d   1       1.781  16.264  12.279 -0.08 -0.01    +0.193 A 
DOCKED: ATOM     12  C   UNL d   1       2.620  16.780  11.151 -0.07 -0.00    +0.109 A 
DOCKED: ATOM     13  C   UNL d   1       2.967  19.818   7.510 -0.05 +0.01    +0.193 A 
DOCKED: ATOM     14  C   UNL d   1       1.319  13.853  12.498 -0.42 -0.00    +0.026 C 
DOCKED: ATOM     15  C   UNL d   1       2.299  18.111  10.598 -0.10 +0.00    +0.055 C 
DOCKED: ATOM     16  C   UNL d   1       3.007  21.071   9.635 -0.01 -0.00    +0.026 C 
DOCKED: ATOM     17  C   UNL d   1       3.622  18.477   7.437 -0.12 +0.00    +0.109 A 
DOCKED: ATOM     18  C   UNL d   1       4.426  13.899  11.783 -0.29 -0.01    +0.050 C 
DOCKED: ATOM     19  C   UNL d   1       5.572  13.797  10.954 -0.20 -0.01    +0.045 A 
DOCKED: ATOM     20  C   UNL d   1       5.096  16.979   6.201 -0.23 -0.00    +0.045 A 
DOCKED: ATOM     21  C   UNL d   1       4.304  18.056   6.204 -0.20 +0.00    +0.057 C 
DOCKED: ATOM     22  C   UNL d   1       6.491  15.341   5.432 -0.20 +0.00    -0.019 A 
DOCKED: ATOM     23  C   UNL d   1       6.280  15.145   6.880 -0.20 -0.01    +0.045 A 
DOCKED: ATOM     24  C   UNL d   1       5.788  16.429   5.036 -0.25 +0.00    -0.022 A 
DOCKED: ATOM     25  C   UNL d   1       6.709  13.955   9.005 -0.26 -0.01    +0.049 A 
DOCKED: ATOM     26  C   UNL d   1       6.830  13.260  11.175 -0.20 +0.00    -0.018 A 
DOCKED: ATOM     27  C   UNL d   1       7.551  13.380   9.947 -0.20 -0.00    +0.003 A 
DOCKED: ATOM     28  C   UNL d   1       6.846  14.168   7.606 -0.25 -0.01    +0.052 C 
DOCKED: ATOM     29  C   UNL d   1       5.692  17.034   3.677 -0.19 -0.00    +0.046 C 
DOCKED: ATOM     30  C   UNL d   1       7.336  12.673  12.449 -0.18 -0.00    +0.046 C 
DOCKED: ATOM     31  H   UNL d   1       5.150  16.372   8.196 +0.05 -0.01    +0.166 HD
DOCKED: ATOM     32  H   UNL d   1       4.706  14.654   9.227 -0.00 -0.03    +0.166 HD
DOCKED: ENDROOT
DOCKED: BRANCH   7  33
DOCKED: ATOM     33  C   UNL d   1       2.768  15.032  14.208 -0.16 -0.02    +0.141 C 
DOCKED: BRANCH  33  34
DOCKED: ATOM     34  C   UNL d   1       3.435  13.772  14.689 -0.19 -0.04    +0.306 C 
DOCKED: ATOM     35  O   UNL d   1       4.628  13.526  14.643 -0.16 +0.01    -0.251 OA
DOCKED: BRANCH  34  36
DOCKED: ATOM     36  O   UNL d   1       2.562  12.888  15.204 -0.14 +0.11    -0.481 OA
DOCKED: ATOM     37  H   UNL d   1       2.182  13.344  15.985 -0.36 -0.19    +0.295 HD
DOCKED: ENDBRANCH  34  36
DOCKED: ENDBRANCH  33  34
DOCKED: ENDBRANCH   7  33
DOCKED: BRANCH  27  38
DOCKED: ATOM     38  C   UNL d   1       8.894  12.933   9.731 -0.13 -0.00    +0.017 C 
DOCKED: ATOM     39  C   UNL d   1       9.304  12.187   8.693 -0.15 -0.00    +0.092 C 
DOCKED: BRANCH  39  40
DOCKED: ATOM     40  C   UNL d   1      10.715  11.809   8.579 -0.03 +0.00    +0.330 C 
DOCKED: ATOM     41  O   UNL d   1      11.607  12.012   9.381 -0.01 -0.00    -0.246 OA
DOCKED: BRANCH  40  42
DOCKED: ATOM     42  O   UNL d   1      10.928  11.166   7.421 -0.02 -0.01    -0.477 OA
DOCKED: ATOM     43  H   UNL d   1      11.574  11.734   6.952 +0.03 +0.01    +0.295 HD
DOCKED: ENDBRANCH  40  42
DOCKED: ENDBRANCH  39  40
DOCKED: ENDBRANCH  27  38
DOCKED: BRANCH   8  44
DOCKED: ATOM     44  C   UNL d   1       0.815  20.199   8.726 -0.05 +0.00    +0.141 C 
DOCKED: BRANCH  44  45
DOCKED: ATOM     45  C   UNL d   1       0.192  19.483   7.558 -0.09 +0.02    +0.306 C 
DOCKED: ATOM     46  O   UNL d   1      -0.119  18.306   7.509 -0.23 -0.03    -0.251 OA
DOCKED: BRANCH  45  47
DOCKED: ATOM     47  O   UNL d   1       0.017  20.288   6.494 -0.00 -0.03    -0.481 OA
DOCKED: ATOM     48  H   UNL d   1       0.873  20.755   6.393 +0.05 +0.01    +0.295 HD
DOCKED: ENDBRANCH  45  47
DOCKED: ENDBRANCH  44  45
DOCKED: ENDBRANCH   8  44
DOCKED: BRANCH  22  49
DOCKED: ATOM     49  C   UNL d   1       7.339  14.448   4.575 -0.25 -0.01    +0.048 C 
DOCKED: BRANCH  49  50
DOCKED: ATOM     50  C   UNL d   1       8.802  14.459   5.016 -0.13 -0.01    +0.125 C 
DOCKED: BRANCH  50  51
DOCKED: ATOM     51  C   UNL d   1       9.475  13.159   4.677 -0.09 -0.00    +0.305 C 
DOCKED: ATOM     52  O   UNL d   1       9.171  12.373   3.797 -0.13 -0.00    -0.251 OA
DOCKED: BRANCH  51  53
DOCKED: ATOM     53  O   UNL d   1      10.516  12.902   5.494 -0.01 -0.00    -0.481 OA
DOCKED: ATOM     54  H   UNL d   1      10.237  12.105   5.992 +0.05 +0.00    +0.295 HD
DOCKED: ENDBRANCH  51  53
DOCKED: ENDBRANCH  50  51
DOCKED: ENDBRANCH  49  50
DOCKED: ENDBRANCH  22  49
DOCKED: TORSDOF 13
DOCKED: TER
DOCKED: ENDMDL
________________________________________________________________________________


	BEGINNING GENETIC ALGORITHM DOCKING 91 of 100
Run: 91 Seed: 126107363 39468820 [ Run 91 of 100 GA/GALS ]
Beginning LAMARCKIAN GENETIC ALGORITHM (LGA), with a maximum of 25000000 energy evaluations.

Final-Value: -11.139


	FINAL GENETIC ALGORITHM DOCKED STATE
	_______________________________________________


Detailed state:  trans -10.120 13.506 -10.521 quatxyzw 0.529531 0.310991 0.309055 0.726200 center 0.153 0.018 -0.028 ntor 13 92.2233 -56.5831 -122.2067 179.8263 -137.0267 154.5828 120.6564 -104.6127 31.2748 -29.4143 -116.9026 96.3343 169.8829
State:	-10.120  13.506 -10.521   0.770  0.452  0.450 86.862     92.22  -56.58 -122.21  179.83 -137.03  154.58  120.66 -104.61   31.27  -29.41 -116.90   96.33  169.88

DOCKED: MODEL       91
DOCKED: USER    Run = 91
DOCKED: USER    DPF = D:/Protein_go_brrr/autodock/final/mut_D99N/heme/dock.dpf
DOCKED: USER  
DOCKED: USER    Estimated Free Energy of Binding    =   -4.63 kcal/mol  [=(1)+(2)+(3)-(4)]
DOCKED: USER    Estimated Inhibition Constant, Ki   =  404.71 uM (micromolar)  [Temperature = 298.15 K]
DOCKED: USER    
DOCKED: USER    (1) Final Intermolecular Energy     =   -8.51 kcal/mol
DOCKED: USER        vdW + Hbond + desolv Energy     =   -8.38 kcal/mol
DOCKED: USER        Electrostatic Energy            =   -0.13 kcal/mol
DOCKED: USER    (2) Final Total Internal Energy     =   -2.63 kcal/mol
DOCKED: USER    (3) Torsional Free Energy           =   +3.88 kcal/mol
DOCKED: USER    (4) Unbound System's Energy  [=(2)] =   -2.63 kcal/mol
DOCKED: USER    
DOCKED: USER    
DOCKED: USER    NEWDPF move heme_opt.pdbqt
DOCKED: USER    NEWDPF about 0.153000 0.018000 -0.028000
DOCKED: USER    NEWDPF tran0 -10.120289 13.506215 -10.520982
DOCKED: USER    NEWDPF quaternion0 0.529531 0.310991 0.309055 0.726200
DOCKED: USER    NEWDPF axisangle0 0.770245 0.452362 0.449546 86.862474
DOCKED: USER    NEWDPF quat0 0.770245 0.452362 0.449546 86.862474
DOCKED: USER    NEWDPF dihe0 92.22 -56.58 -122.21 179.83 -137.03 154.58 120.66 -104.61 31.27 -29.41 -116.90 96.33 169.88 
DOCKED: USER  keepresnum = 1 
DOCKED: USER  
DOCKED: REMARK  13 active torsions:
DOCKED: REMARK  status: ('A' for Active; 'I' for Inactive)
DOCKED: REMARK    1  A    between atoms: O_3  and  C_38 
DOCKED: REMARK    2  A    between atoms: O_4  and  C_40 
DOCKED: REMARK    3  A    between atoms: O_7  and  C_46 
DOCKED: REMARK    4  A    between atoms: O_9  and  C_48 
DOCKED: REMARK    5  A    between atoms: C_15  and  C_20 
DOCKED: REMARK    6  A    between atoms: C_16  and  C_23 
DOCKED: REMARK    7  A    between atoms: C_20  and  C_38 
DOCKED: REMARK    8  A    between atoms: C_23  and  C_40 
DOCKED: REMARK    9  A    between atoms: C_32  and  C_41 
DOCKED: REMARK   10  A    between atoms: C_37  and  C_45 
DOCKED: REMARK   11  A    between atoms: C_41  and  C_44 
DOCKED: REMARK   12  A    between atoms: C_44  and  C_46 
DOCKED: REMARK   13  A    between atoms: C_47  and  C_48 
DOCKED: USER                              x       y       z     vdW  Elec       q    Type
DOCKED: USER                           _______ _______ _______ _____ _____    ______ ____
DOCKED: ROOT
DOCKED: ATOM      1  O   UNL d   1     -12.340  15.219 -15.707 -0.02 +0.08    -0.289 OA
DOCKED: ATOM      2  O   UNL d   1     -15.331  11.103 -10.183 -0.09 +0.19    -0.289 OA
DOCKED: ATOM      3  N   UNL d   1     -10.586  14.345 -12.869 -0.08 +0.08    -0.247 NA
DOCKED: ATOM      4  N   UNL d   1     -12.639  13.021 -11.178 -0.15 +0.08    -0.247 NA
DOCKED: ATOM      5  N   UNL d   1     -10.813  13.221  -8.966 -0.06 +0.04    -0.354 N 
DOCKED: ATOM      6  N   UNL d   1      -8.696  14.612 -10.723 -0.03 +0.03    -0.354 N 
DOCKED: ATOM      7  C   UNL d   1     -10.141  15.784 -14.802 -0.03 -0.01    +0.084 A 
DOCKED: ATOM      8  C   UNL d   1     -14.531  11.982 -12.324 -0.18 -0.04    +0.084 A 
DOCKED: ATOM      9  C   UNL d   1     -13.258  12.831 -12.393 -0.16 -0.03    +0.058 A 
DOCKED: ATOM     10  C   UNL d   1      -9.673  15.197 -13.467 -0.07 -0.01    +0.058 A 
DOCKED: ATOM     11  C   UNL d   1     -11.472  15.097 -14.862 -0.04 -0.05    +0.193 A 
DOCKED: ATOM     12  C   UNL d   1     -11.613  14.234 -13.647 -0.10 -0.04    +0.109 A 
DOCKED: ATOM     13  C   UNL d   1     -14.541  11.756 -10.838 -0.12 -0.09    +0.193 A 
DOCKED: ATOM     14  C   UNL d   1     -10.366  17.296 -14.718 -0.01 -0.00    +0.026 C 
DOCKED: ATOM     15  C   UNL d   1     -12.815  13.384 -13.533 -0.15 -0.03    +0.055 C 
DOCKED: ATOM     16  C   UNL d   1     -14.353  10.632 -13.026 -0.34 -0.02    +0.026 C 
DOCKED: ATOM     17  C   UNL d   1     -13.347  12.443 -10.261 -0.22 -0.04    +0.109 A 
DOCKED: ATOM     18  C   UNL d   1      -8.438  15.437 -12.988 -0.06 -0.01    +0.050 C 
DOCKED: ATOM     19  C   UNL d   1      -7.890  14.873 -11.808 -0.08 -0.00    +0.045 A 
DOCKED: ATOM     20  C   UNL d   1     -11.943  12.820  -8.302 -0.23 -0.01    +0.045 A 
DOCKED: ATOM     21  C   UNL d   1     -13.118  12.429  -8.808 -0.31 -0.01    +0.057 C 
DOCKED: ATOM     22  C   UNL d   1     -10.331  13.334  -6.769 -0.34 +0.00    -0.019 A 
DOCKED: ATOM     23  C   UNL d   1      -9.786  13.552  -8.124 -0.19 -0.00    +0.045 A 
DOCKED: ATOM     24  C   UNL d   1     -11.608  12.899  -6.881 -0.36 +0.00    -0.022 A 
DOCKED: ATOM     25  C   UNL d   1      -7.948  14.155  -9.663 -0.17 -0.00    +0.049 A 
DOCKED: ATOM     26  C   UNL d   1      -6.590  14.542 -11.457 -0.09 +0.00    -0.018 A 
DOCKED: ATOM     27  C   UNL d   1      -6.636  14.071 -10.108 -0.17 -0.00    +0.003 A 
DOCKED: ATOM     28  C   UNL d   1      -8.536  13.966  -8.383 -0.27 +0.00    +0.052 C 
DOCKED: ATOM     29  C   UNL d   1     -12.568  12.533  -5.801 -0.45 -0.00    +0.046 C 
DOCKED: ATOM     30  C   UNL d   1      -5.379  14.654 -12.320 -0.06 -0.00    +0.046 C 
DOCKED: ATOM     31  H   UNL d   1     -10.756  13.184  -9.978 +0.06 -0.03    +0.166 HD
DOCKED: ATOM     32  H   UNL d   1      -9.695  14.780 -10.714 +0.04 -0.02    +0.166 HD
DOCKED: ENDROOT
DOCKED: BRANCH   7  33
DOCKED: ATOM     33  C   UNL d   1      -9.288  15.410 -16.019 -0.04 -0.02    +0.141 C 
DOCKED: BRANCH  33  34
DOCKED: ATOM     34  C   UNL d   1      -9.585  14.026 -16.532 -0.11 -0.08    +0.306 C 
DOCKED: ATOM     35  O   UNL d   1      -9.128  12.983 -16.096 -0.73 +0.03    -0.251 OA
DOCKED: BRANCH  34  36
DOCKED: ATOM     36  O   UNL d   1     -10.446  14.030 -17.565 -0.03 +0.18    -0.481 OA
DOCKED: ATOM     37  H   UNL d   1     -11.331  13.958 -17.148 +0.05 -0.15    +0.295 HD
DOCKED: ENDBRANCH  34  36
DOCKED: ENDBRANCH  33  34
DOCKED: ENDBRANCH   7  33
DOCKED: BRANCH  27  38
DOCKED: ATOM     38  C   UNL d   1      -5.503  13.638  -9.347 -0.27 -0.00    +0.017 C 
DOCKED: ATOM     39  C   UNL d   1      -4.552  12.798  -9.783 -0.24 -0.00    +0.092 C 
DOCKED: BRANCH  39  40
DOCKED: ATOM     40  C   UNL d   1      -3.431  12.446  -8.908 -0.22 -0.03    +0.330 C 
DOCKED: ATOM     41  O   UNL d   1      -2.771  11.425  -8.919 -0.31 +0.03    -0.246 OA
DOCKED: BRANCH  40  42
DOCKED: ATOM     42  O   UNL d   1      -3.191  13.443  -8.042 -0.23 +0.09    -0.477 OA
DOCKED: ATOM     43  H   UNL d   1      -3.263  13.015  -7.165 -0.47 -0.12    +0.295 HD
DOCKED: ENDBRANCH  40  42
DOCKED: ENDBRANCH  39  40
DOCKED: ENDBRANCH  27  38
DOCKED: BRANCH   8  44
DOCKED: ATOM     44  C   UNL d   1     -15.816  12.679 -12.781 -0.04 -0.05    +0.141 C 
DOCKED: BRANCH  44  45
DOCKED: ATOM     45  C   UNL d   1     -16.396  13.599 -11.740 +0.00 -0.08    +0.306 C 
DOCKED: ATOM     46  O   UNL d   1     -15.991  14.710 -11.445 -0.00 +0.05    -0.251 OA
DOCKED: BRANCH  45  47
DOCKED: ATOM     47  O   UNL d   1     -17.448  13.056 -11.102 +0.01 +0.13    -0.481 OA
DOCKED: ATOM     48  H   UNL d   1     -17.104  12.218 -10.724 +0.06 -0.12    +0.295 HD
DOCKED: ENDBRANCH  45  47
DOCKED: ENDBRANCH  44  45
DOCKED: ENDBRANCH   8  44
DOCKED: BRANCH  22  49
DOCKED: ATOM     49  C   UNL d   1      -9.565  13.583  -5.502 -0.48 +0.00    +0.048 C 
DOCKED: BRANCH  49  50
DOCKED: ATOM     50  C   UNL d   1      -9.678  15.037  -5.046 -0.22 +0.01    +0.125 C 
DOCKED: BRANCH  50  51
DOCKED: ATOM     51  C   UNL d   1     -11.098  15.382  -4.697 -0.10 +0.01    +0.305 C 
DOCKED: ATOM     52  O   UNL d   1     -11.851  16.128  -5.297 -0.05 -0.00    -0.251 OA
DOCKED: BRANCH  51  53
DOCKED: ATOM     53  O   UNL d   1     -11.505  14.761  -3.571 -0.04 +0.01    -0.481 OA
DOCKED: ATOM     54  H   UNL d   1     -10.727  14.232  -3.296 -0.36 -0.07    +0.295 HD
DOCKED: ENDBRANCH  51  53
DOCKED: ENDBRANCH  50  51
DOCKED: ENDBRANCH  49  50
DOCKED: ENDBRANCH  22  49
DOCKED: TORSDOF 13
DOCKED: TER
DOCKED: ENDMDL
________________________________________________________________________________


	BEGINNING GENETIC ALGORITHM DOCKING 92 of 100
Run: 92 Seed: 1043498780 942834692 [ Run 92 of 100 GA/GALS ]
Beginning LAMARCKIAN GENETIC ALGORITHM (LGA), with a maximum of 25000000 energy evaluations.

Final-Value: -11.159


	FINAL GENETIC ALGORITHM DOCKED STATE
	_______________________________________________


Detailed state:  trans -17.252 8.312 2.932 quatxyzw 0.226576 0.259637 -0.070773 0.936079 center 0.153 0.018 -0.028 ntor 13 40.0683 84.7168 -169.4167 -144.5132 39.3948 133.1392 139.6438 25.4037 17.1151 -10.4149 -47.9759 -130.0598 37.3547
State:	-17.252   8.312   2.932   0.644  0.738 -0.201 41.194     40.07   84.72 -169.42 -144.51   39.39  133.14  139.64   25.40   17.12  -10.41  -47.98 -130.06   37.35

DOCKED: MODEL       92
DOCKED: USER    Run = 92
DOCKED: USER    DPF = D:/Protein_go_brrr/autodock/final/mut_D99N/heme/dock.dpf
DOCKED: USER  
DOCKED: USER    Estimated Free Energy of Binding    =   -3.96 kcal/mol  [=(1)+(2)+(3)-(4)]
DOCKED: USER    Estimated Inhibition Constant, Ki   =    1.25 mM (millimolar)  [Temperature = 298.15 K]
DOCKED: USER    
DOCKED: USER    (1) Final Intermolecular Energy     =   -7.84 kcal/mol
DOCKED: USER        vdW + Hbond + desolv Energy     =   -7.57 kcal/mol
DOCKED: USER        Electrostatic Energy            =   -0.27 kcal/mol
DOCKED: USER    (2) Final Total Internal Energy     =   -3.32 kcal/mol
DOCKED: USER    (3) Torsional Free Energy           =   +3.88 kcal/mol
DOCKED: USER    (4) Unbound System's Energy  [=(2)] =   -3.32 kcal/mol
DOCKED: USER    
DOCKED: USER    
DOCKED: USER    NEWDPF move heme_opt.pdbqt
DOCKED: USER    NEWDPF about 0.153000 0.018000 -0.028000
DOCKED: USER    NEWDPF tran0 -17.252102 8.311942 2.931854
DOCKED: USER    NEWDPF quaternion0 0.226576 0.259637 -0.070773 0.936079
DOCKED: USER    NEWDPF axisangle0 0.644064 0.738044 -0.201180 41.193739
DOCKED: USER    NEWDPF quat0 0.644064 0.738044 -0.201180 41.193739
DOCKED: USER    NEWDPF dihe0 40.07 84.72 -169.42 -144.51 39.39 133.14 139.64 25.40 17.12 -10.41 -47.98 -130.06 37.35 
DOCKED: USER  keepresnum = 1 
DOCKED: USER  
DOCKED: REMARK  13 active torsions:
DOCKED: REMARK  status: ('A' for Active; 'I' for Inactive)
DOCKED: REMARK    1  A    between atoms: O_3  and  C_38 
DOCKED: REMARK    2  A    between atoms: O_4  and  C_40 
DOCKED: REMARK    3  A    between atoms: O_7  and  C_46 
DOCKED: REMARK    4  A    between atoms: O_9  and  C_48 
DOCKED: REMARK    5  A    between atoms: C_15  and  C_20 
DOCKED: REMARK    6  A    between atoms: C_16  and  C_23 
DOCKED: REMARK    7  A    between atoms: C_20  and  C_38 
DOCKED: REMARK    8  A    between atoms: C_23  and  C_40 
DOCKED: REMARK    9  A    between atoms: C_32  and  C_41 
DOCKED: REMARK   10  A    between atoms: C_37  and  C_45 
DOCKED: REMARK   11  A    between atoms: C_41  and  C_44 
DOCKED: REMARK   12  A    between atoms: C_44  and  C_46 
DOCKED: REMARK   13  A    between atoms: C_47  and  C_48 
DOCKED: USER                              x       y       z     vdW  Elec       q    Type
DOCKED: USER                           _______ _______ _______ _____ _____    ______ ____
DOCKED: ROOT
DOCKED: ATOM      1  O   UNL d   1     -22.411   8.658   0.100 -0.26 -0.23    -0.289 OA
DOCKED: ATOM      2  O   UNL d   1     -18.634   2.736   2.755 -0.05 -0.05    -0.289 OA
DOCKED: ATOM      3  N   UNL d   1     -19.314   8.934   1.591 -0.14 -0.02    -0.247 NA
DOCKED: ATOM      4  N   UNL d   1     -18.777   6.178   2.566 -0.11 -0.03    -0.247 NA
DOCKED: ATOM      5  N   UNL d   1     -16.630   7.255   4.146 -0.04 -0.01    -0.354 N 
DOCKED: ATOM      6  N   UNL d   1     -17.206  10.113   3.145 -0.07 +0.04    -0.354 N 
DOCKED: ATOM      7  C   UNL d   1     -20.983  10.527   0.766 -0.08 +0.02    +0.084 A 
DOCKED: ATOM      8  C   UNL d   1     -19.873   4.341   1.385 -0.16 +0.02    +0.084 A 
DOCKED: ATOM      9  C   UNL d   1     -19.687   5.849   1.586 -0.18 +0.02    +0.058 A 
DOCKED: ATOM     10  C   UNL d   1     -19.627  10.273   1.431 -0.14 +0.00    +0.058 A 
DOCKED: ATOM     11  C   UNL d   1     -21.373   9.094   0.562 -0.11 +0.08    +0.193 A 
DOCKED: ATOM     12  C   UNL d   1     -20.268   8.226   1.080 -0.17 +0.03    +0.109 A 
DOCKED: ATOM     13  C   UNL d   1     -18.929   3.877   2.458 -0.09 +0.03    +0.193 A 
DOCKED: ATOM     14  C   UNL d   1     -21.981  11.179   1.726 -0.02 +0.00    +0.026 C 
DOCKED: ATOM     15  C   UNL d   1     -20.388   6.765   0.901 -0.11 +0.02    +0.055 C 
DOCKED: ATOM     16  C   UNL d   1     -19.339   3.880   0.025 -0.13 +0.01    +0.026 C 
DOCKED: ATOM     17  C   UNL d   1     -18.336   5.087   3.104 -0.12 +0.01    +0.109 A 
DOCKED: ATOM     18  C   UNL d   1     -18.794  11.285   1.738 -0.15 -0.00    +0.050 C 
DOCKED: ATOM     19  C   UNL d   1     -17.490  11.142   2.276 -0.14 -0.01    +0.045 A 
DOCKED: ATOM     20  C   UNL d   1     -16.679   5.982   4.652 -0.09 +0.00    +0.045 A 
DOCKED: ATOM     21  C   UNL d   1     -17.400   4.939   4.228 -0.10 +0.01    +0.057 C 
DOCKED: ATOM     22  C   UNL d   1     -15.216   7.215   5.899 -0.09 -0.00    -0.019 A 
DOCKED: ATOM     23  C   UNL d   1     -15.774   8.073   4.834 -0.10 -0.00    +0.045 A 
DOCKED: ATOM     24  C   UNL d   1     -15.755   5.978   5.785 -0.07 -0.00    -0.022 A 
DOCKED: ATOM     25  C   UNL d   1     -15.916  10.217   3.612 -0.17 -0.01    +0.049 A 
DOCKED: ATOM     26  C   UNL d   1     -16.345  11.913   2.147 -0.20 +0.00    -0.018 A 
DOCKED: ATOM     27  C   UNL d   1     -15.349  11.313   2.977 -0.22 -0.00    +0.003 A 
DOCKED: ATOM     28  C   UNL d   1     -15.441   9.358   4.641 -0.14 -0.00    +0.052 C 
DOCKED: ATOM     29  C   UNL d   1     -15.498   4.769   6.618 -0.06 +0.01    +0.046 C 
DOCKED: ATOM     30  C   UNL d   1     -16.184  13.132   1.303 -0.20 -0.01    +0.046 C 
DOCKED: ATOM     31  H   UNL d   1     -17.129   7.504   3.299 +0.04 +0.00    +0.166 HD
DOCKED: ATOM     32  H   UNL d   1     -17.881   9.410   3.421 +0.03 -0.01    +0.166 HD
DOCKED: ENDROOT
DOCKED: BRANCH   7  33
DOCKED: ATOM     33  C   UNL d   1     -20.929  11.265  -0.576 -0.13 +0.03    +0.141 C 
DOCKED: BRANCH  33  34
DOCKED: ATOM     34  C   UNL d   1     -20.230  10.472  -1.646 -0.23 +0.07    +0.306 C 
DOCKED: ATOM     35  O   UNL d   1     -20.760   9.731  -2.456 -0.30 -0.17    -0.251 OA
DOCKED: BRANCH  34  36
DOCKED: ATOM     36  O   UNL d   1     -18.897  10.655  -1.640 -0.26 +0.05    -0.481 OA
DOCKED: ATOM     37  H   UNL d   1     -18.644  10.659  -2.588 -0.39 -0.14    +0.295 HD
DOCKED: ENDBRANCH  34  36
DOCKED: ENDBRANCH  33  34
DOCKED: ENDBRANCH   7  33
DOCKED: BRANCH  27  38
DOCKED: ATOM     38  C   UNL d   1     -14.014  11.803   3.150 -0.29 -0.00    +0.017 C 
DOCKED: ATOM     39  C   UNL d   1     -13.639  12.729   4.046 -0.18 -0.02    +0.092 C 
DOCKED: BRANCH  39  40
DOCKED: ATOM     40  C   UNL d   1     -12.233  13.132   4.133 -0.19 -0.10    +0.330 C 
DOCKED: ATOM     41  O   UNL d   1     -11.784  14.262   4.154 -0.22 +0.06    -0.246 OA
DOCKED: BRANCH  40  42
DOCKED: ATOM     42  O   UNL d   1     -11.445  12.048   4.202 -0.14 +0.12    -0.477 OA
DOCKED: ATOM     43  H   UNL d   1     -11.298  11.924   5.162 -0.36 -0.19    +0.295 HD
DOCKED: ENDBRANCH  40  42
DOCKED: ENDBRANCH  39  40
DOCKED: ENDBRANCH  27  38
DOCKED: BRANCH   8  44
DOCKED: ATOM     44  C   UNL d   1     -21.289   3.812   1.633 -0.07 +0.03    +0.141 C 
DOCKED: BRANCH  44  45
DOCKED: ATOM     45  C   UNL d   1     -21.778   4.058   3.035 -0.01 +0.05    +0.306 C 
DOCKED: ATOM     46  O   UNL d   1     -22.465   4.992   3.412 -0.01 -0.04    -0.251 OA
DOCKED: BRANCH  45  47
DOCKED: ATOM     47  O   UNL d   1     -21.350   3.122   3.901 +0.00 -0.06    -0.481 OA
DOCKED: ATOM     48  H   UNL d   1     -20.688   2.602   3.397 +0.02 +0.04    +0.295 HD
DOCKED: ENDBRANCH  45  47
DOCKED: ENDBRANCH  44  45
DOCKED: ENDBRANCH   8  44
DOCKED: BRANCH  22  49
DOCKED: ATOM     49  C   UNL d   1     -14.230   7.684   6.928 -0.20 -0.00    +0.048 C 
DOCKED: BRANCH  49  50
DOCKED: ATOM     50  C   UNL d   1     -13.095   8.494   6.301 -0.20 -0.03    +0.125 C 
DOCKED: BRANCH  50  51
DOCKED: ATOM     51  C   UNL d   1     -12.849   9.760   7.072 -0.26 -0.07    +0.305 C 
DOCKED: ATOM     52  O   UNL d   1     -13.186  10.010   8.216 -0.41 +0.06    -0.251 OA
DOCKED: BRANCH  51  53
DOCKED: ATOM     53  O   UNL d   1     -12.185  10.675   6.340 -0.24 +0.18    -0.481 OA
DOCKED: ATOM     54  H   UNL d   1     -12.525  10.545   5.430 +0.15 -0.08    +0.295 HD
DOCKED: ENDBRANCH  51  53
DOCKED: ENDBRANCH  50  51
DOCKED: ENDBRANCH  49  50
DOCKED: ENDBRANCH  22  49
DOCKED: TORSDOF 13
DOCKED: TER
DOCKED: ENDMDL
________________________________________________________________________________


	BEGINNING GENETIC ALGORITHM DOCKING 93 of 100
Run: 93 Seed: 1744027714 1452083125 [ Run 93 of 100 GA/GALS ]
Beginning LAMARCKIAN GENETIC ALGORITHM (LGA), with a maximum of 25000000 energy evaluations.

Final-Value: -12.607


	FINAL GENETIC ALGORITHM DOCKED STATE
	_______________________________________________


Detailed state:  trans -10.920 13.266 -12.104 quatxyzw -0.627827 0.259314 -0.392099 0.620361 center 0.153 0.018 -0.028 ntor 13 123.0253 180.0000 -101.2321 29.5472 -131.7975 1.9945 122.1243 24.3192 27.6601 -45.5042 -81.7774 -14.3144 -12.6271
State:	-10.920  13.266 -12.104  -0.800  0.331 -0.500 103.315    123.03  180.00 -101.23   29.55 -131.80    1.99  122.12   24.32   27.66  -45.50  -81.78  -14.31  -12.63

DOCKED: MODEL       93
DOCKED: USER    Run = 93
DOCKED: USER    DPF = D:/Protein_go_brrr/autodock/final/mut_D99N/heme/dock.dpf
DOCKED: USER  
DOCKED: USER    Estimated Free Energy of Binding    =   -3.99 kcal/mol  [=(1)+(2)+(3)-(4)]
DOCKED: USER    Estimated Inhibition Constant, Ki   =    1.20 mM (millimolar)  [Temperature = 298.15 K]
DOCKED: USER    
DOCKED: USER    (1) Final Intermolecular Energy     =   -7.86 kcal/mol
DOCKED: USER        vdW + Hbond + desolv Energy     =   -7.75 kcal/mol
DOCKED: USER        Electrostatic Energy            =   -0.12 kcal/mol
DOCKED: USER    (2) Final Total Internal Energy     =   -4.74 kcal/mol
DOCKED: USER    (3) Torsional Free Energy           =   +3.88 kcal/mol
DOCKED: USER    (4) Unbound System's Energy  [=(2)] =   -4.74 kcal/mol
DOCKED: USER    
DOCKED: USER    
DOCKED: USER    NEWDPF move heme_opt.pdbqt
DOCKED: USER    NEWDPF about 0.153000 0.018000 -0.028000
DOCKED: USER    NEWDPF tran0 -10.919975 13.265592 -12.104297
DOCKED: USER    NEWDPF quaternion0 -0.627827 0.259314 -0.392099 0.620361
DOCKED: USER    NEWDPF axisangle0 -0.800476 0.330624 -0.499925 103.314966
DOCKED: USER    NEWDPF quat0 -0.800476 0.330624 -0.499925 103.314966
DOCKED: USER    NEWDPF dihe0 123.03 180.00 -101.23 29.55 -131.80 1.99 122.12 24.32 27.66 -45.50 -81.78 -14.31 -12.63 
DOCKED: USER  keepresnum = 1 
DOCKED: USER  
DOCKED: REMARK  13 active torsions:
DOCKED: REMARK  status: ('A' for Active; 'I' for Inactive)
DOCKED: REMARK    1  A    between atoms: O_3  and  C_38 
DOCKED: REMARK    2  A    between atoms: O_4  and  C_40 
DOCKED: REMARK    3  A    between atoms: O_7  and  C_46 
DOCKED: REMARK    4  A    between atoms: O_9  and  C_48 
DOCKED: REMARK    5  A    between atoms: C_15  and  C_20 
DOCKED: REMARK    6  A    between atoms: C_16  and  C_23 
DOCKED: REMARK    7  A    between atoms: C_20  and  C_38 
DOCKED: REMARK    8  A    between atoms: C_23  and  C_40 
DOCKED: REMARK    9  A    between atoms: C_32  and  C_41 
DOCKED: REMARK   10  A    between atoms: C_37  and  C_45 
DOCKED: REMARK   11  A    between atoms: C_41  and  C_44 
DOCKED: REMARK   12  A    between atoms: C_44  and  C_46 
DOCKED: REMARK   13  A    between atoms: C_47  and  C_48 
DOCKED: USER                              x       y       z     vdW  Elec       q    Type
DOCKED: USER                           _______ _______ _______ _____ _____    ______ ____
DOCKED: ROOT
DOCKED: ATOM      1  O   UNL d   1     -15.312  11.565 -15.650 -0.09 +0.23    -0.289 OA
DOCKED: ATOM      2  O   UNL d   1      -8.737  14.854 -17.179 -0.03 +0.04    -0.289 OA
DOCKED: ATOM      3  N   UNL d   1     -13.082  12.512 -13.195 -0.12 +0.16    -0.247 NA
DOCKED: ATOM      4  N   UNL d   1     -10.710  13.416 -14.740 -0.13 +0.14    -0.247 NA
DOCKED: ATOM      5  N   UNL d   1      -9.206  13.351 -12.290 -0.07 +0.13    -0.354 N 
DOCKED: ATOM      6  N   UNL d   1     -11.667  12.395 -10.699 -0.14 +0.11    -0.354 N 
DOCKED: ATOM      7  C   UNL d   1     -15.197  11.274 -13.226 -0.17 -0.05    +0.084 A 
DOCKED: ATOM      8  C   UNL d   1     -11.099  14.234 -17.009 -0.09 -0.03    +0.084 A 
DOCKED: ATOM      9  C   UNL d   1     -11.647  13.586 -15.734 -0.18 -0.04    +0.058 A 
DOCKED: ATOM     10  C   UNL d   1     -14.019  11.841 -12.428 -0.24 -0.03    +0.058 A 
DOCKED: ATOM     11  C   UNL d   1     -14.770  11.760 -14.578 -0.13 -0.14    +0.193 A 
DOCKED: ATOM     12  C   UNL d   1     -13.488  12.518 -14.423 -0.18 -0.08    +0.109 A 
DOCKED: ATOM     13  C   UNL d   1      -9.668  14.365 -16.569 -0.08 -0.05    +0.193 A 
DOCKED: ATOM     14  C   UNL d   1     -15.205   9.743 -13.229 -0.25 -0.02    +0.026 C 
DOCKED: ATOM     15  C   UNL d   1     -12.920  13.175 -15.618 -0.17 -0.04    +0.055 C 
DOCKED: ATOM     16  C   UNL d   1     -11.677  15.635 -17.229 -0.02 -0.01    +0.026 C 
DOCKED: ATOM     17  C   UNL d   1      -9.564  13.827 -15.179 -0.18 -0.03    +0.109 A 
DOCKED: ATOM     18  C   UNL d   1     -13.973  11.756 -11.085 -0.27 -0.02    +0.050 C 
DOCKED: ATOM     19  C   UNL d   1     -12.969  12.322 -10.259 -0.28 -0.01    +0.045 A 
DOCKED: ATOM     20  C   UNL d   1      -8.187  13.541 -13.187 -0.21 -0.01    +0.045 A 
DOCKED: ATOM     21  C   UNL d   1      -8.261  13.786 -14.499 -0.17 -0.01    +0.057 C 
DOCKED: ATOM     22  C   UNL d   1      -7.291  13.176 -11.118 -0.26 +0.00    -0.019 A 
DOCKED: ATOM     23  C   UNL d   1      -8.763  13.123 -11.015 -0.27 -0.01    +0.045 A 
DOCKED: ATOM     24  C   UNL d   1      -6.956  13.425 -12.406 -0.19 +0.00    -0.022 A 
DOCKED: ATOM     25  C   UNL d   1     -10.850  12.892  -9.710 -0.14 -0.01    +0.049 A 
DOCKED: ATOM     26  C   UNL d   1     -13.006  12.817  -8.965 -0.25 +0.00    -0.018 A 
DOCKED: ATOM     27  C   UNL d   1     -11.668  13.194  -8.630 -0.23 -0.00    +0.003 A 
DOCKED: ATOM     28  C   UNL d   1      -9.438  12.914  -9.874 -0.16 -0.01    +0.052 C 
DOCKED: ATOM     29  C   UNL d   1      -5.599  13.580 -13.004 -0.12 -0.00    +0.046 C 
DOCKED: ATOM     30  C   UNL d   1     -14.208  12.937  -8.090 -0.27 -0.01    +0.046 C 
DOCKED: ATOM     31  H   UNL d   1     -10.176  13.457 -12.566 -0.39 -0.09    +0.166 HD
DOCKED: ATOM     32  H   UNL d   1     -11.367  12.082 -11.615 -0.46 -0.11    +0.166 HD
DOCKED: ENDROOT
DOCKED: BRANCH   7  33
DOCKED: ATOM     33  C   UNL d   1     -16.573  11.843 -12.860 -0.04 -0.06    +0.141 C 
DOCKED: BRANCH  33  34
DOCKED: ATOM     34  C   UNL d   1     -16.786  13.232 -13.397 +0.00 -0.08    +0.306 C 
DOCKED: ATOM     35  O   UNL d   1     -16.329  14.262 -12.933 -0.00 +0.06    -0.251 OA
DOCKED: BRANCH  34  36
DOCKED: ATOM     36  O   UNL d   1     -17.565  13.249 -14.493 +0.01 +0.11    -0.481 OA
DOCKED: ATOM     37  H   UNL d   1     -17.086  12.693 -15.144 +0.02 -0.09    +0.295 HD
DOCKED: ENDBRANCH  34  36
DOCKED: ENDBRANCH  33  34
DOCKED: ENDBRANCH   7  33
DOCKED: BRANCH  27  38
DOCKED: ATOM     38  C   UNL d   1     -11.254  13.741  -7.374 -0.27 -0.00    +0.017 C 
DOCKED: ATOM     39  C   UNL d   1     -10.149  14.475  -7.175 -0.19 -0.00    +0.092 C 
DOCKED: BRANCH  39  40
DOCKED: ATOM     40  C   UNL d   1      -9.847  14.993  -5.838 -0.10 +0.01    +0.330 C 
DOCKED: ATOM     41  O   UNL d   1     -10.495  14.844  -4.819 -0.18 -0.00    -0.246 OA
DOCKED: BRANCH  40  42
DOCKED: ATOM     42  O   UNL d   1      -8.698  15.686  -5.860 -0.02 -0.05    -0.477 OA
DOCKED: ATOM     43  H   UNL d   1      -8.407  15.629  -6.793 +0.09 +0.02    +0.295 HD
DOCKED: ENDBRANCH  40  42
DOCKED: ENDBRANCH  39  40
DOCKED: ENDBRANCH  27  38
DOCKED: BRANCH   8  44
DOCKED: ATOM     44  C   UNL d   1     -11.206  13.384 -18.280 -0.10 -0.08    +0.141 C 
DOCKED: BRANCH  44  45
DOCKED: ATOM     45  C   UNL d   1      -9.954  12.603 -18.580 -0.11 -0.15    +0.306 C 
DOCKED: ATOM     46  O   UNL d   1      -9.595  11.571 -18.041 -0.18 +0.15    -0.251 OA
DOCKED: BRANCH  45  47
DOCKED: ATOM     47  O   UNL d   1      -9.202  13.184 -19.533 -0.00 +0.11    -0.481 OA
DOCKED: ATOM     48  H   UNL d   1      -8.741  13.917 -19.072 +0.04 -0.05    +0.295 HD
DOCKED: ENDBRANCH  45  47
DOCKED: ENDBRANCH  44  45
DOCKED: ENDBRANCH   8  44
DOCKED: BRANCH  22  49
DOCKED: ATOM     49  C   UNL d   1      -6.357  12.966  -9.962 -0.21 +0.00    +0.048 C 
DOCKED: BRANCH  49  50
DOCKED: ATOM     50  C   UNL d   1      -5.915  14.290  -9.340 -0.18 -0.00    +0.125 C 
DOCKED: BRANCH  50  51
DOCKED: ATOM     51  C   UNL d   1      -6.719  14.599  -8.109 -0.17 +0.01    +0.305 C 
DOCKED: ATOM     52  O   UNL d   1      -7.387  13.826  -7.444 -0.23 -0.02    -0.251 OA
DOCKED: BRANCH  51  53
DOCKED: ATOM     53  O   UNL d   1      -6.648  15.903  -7.774 -0.04 -0.02    -0.481 OA
DOCKED: ATOM     54  H   UNL d   1      -6.762  15.905  -6.801 +0.07 +0.03    +0.295 HD
DOCKED: ENDBRANCH  51  53
DOCKED: ENDBRANCH  50  51
DOCKED: ENDBRANCH  49  50
DOCKED: ENDBRANCH  22  49
DOCKED: TORSDOF 13
DOCKED: TER
DOCKED: ENDMDL
________________________________________________________________________________


	BEGINNING GENETIC ALGORITHM DOCKING 94 of 100
Run: 94 Seed: 1217011570 520628632 [ Run 94 of 100 GA/GALS ]
Beginning LAMARCKIAN GENETIC ALGORITHM (LGA), with a maximum of 25000000 energy evaluations.

Final-Value: -11.497


	FINAL GENETIC ALGORITHM DOCKED STATE
	_______________________________________________


Detailed state:  trans 1.534 -15.423 4.501 quatxyzw 0.110026 0.764182 0.548365 -0.321274 center 0.153 0.018 -0.028 ntor 13 110.1821 -179.7920 -97.4750 53.2458 177.9060 -56.3594 146.1736 48.9427 -18.6499 -15.2801 -80.1016 13.1035 -5.3313
State:	  1.534 -15.423   4.501   0.116  0.807  0.579 -142.520    110.18 -179.79  -97.48   53.25  177.91  -56.36  146.17   48.94  -18.65  -15.28  -80.10   13.10   -5.33

DOCKED: MODEL       94
DOCKED: USER    Run = 94
DOCKED: USER    DPF = D:/Protein_go_brrr/autodock/final/mut_D99N/heme/dock.dpf
DOCKED: USER  
DOCKED: USER    Estimated Free Energy of Binding    =   -3.23 kcal/mol  [=(1)+(2)+(3)-(4)]
DOCKED: USER    Estimated Inhibition Constant, Ki   =    4.26 mM (millimolar)  [Temperature = 298.15 K]
DOCKED: USER    
DOCKED: USER    (1) Final Intermolecular Energy     =   -7.11 kcal/mol
DOCKED: USER        vdW + Hbond + desolv Energy     =   -6.98 kcal/mol
DOCKED: USER        Electrostatic Energy            =   -0.13 kcal/mol
DOCKED: USER    (2) Final Total Internal Energy     =   -4.39 kcal/mol
DOCKED: USER    (3) Torsional Free Energy           =   +3.88 kcal/mol
DOCKED: USER    (4) Unbound System's Energy  [=(2)] =   -4.39 kcal/mol
DOCKED: USER    
DOCKED: USER    
DOCKED: USER    NEWDPF move heme_opt.pdbqt
DOCKED: USER    NEWDPF about 0.153000 0.018000 -0.028000
DOCKED: USER    NEWDPF tran0 1.534449 -15.423071 4.501185
DOCKED: USER    NEWDPF quaternion0 0.110026 0.764182 0.548365 -0.321274
DOCKED: USER    NEWDPF axisangle0 0.116185 0.806961 0.579063 -142.520059
DOCKED: USER    NEWDPF quat0 0.116185 0.806961 0.579063 -142.520059
DOCKED: USER    NEWDPF dihe0 110.18 -179.79 -97.48 53.25 177.91 -56.36 146.17 48.94 -18.65 -15.28 -80.10 13.10 -5.33 
DOCKED: USER  keepresnum = 1 
DOCKED: USER  
DOCKED: REMARK  13 active torsions:
DOCKED: REMARK  status: ('A' for Active; 'I' for Inactive)
DOCKED: REMARK    1  A    between atoms: O_3  and  C_38 
DOCKED: REMARK    2  A    between atoms: O_4  and  C_40 
DOCKED: REMARK    3  A    between atoms: O_7  and  C_46 
DOCKED: REMARK    4  A    between atoms: O_9  and  C_48 
DOCKED: REMARK    5  A    between atoms: C_15  and  C_20 
DOCKED: REMARK    6  A    between atoms: C_16  and  C_23 
DOCKED: REMARK    7  A    between atoms: C_20  and  C_38 
DOCKED: REMARK    8  A    between atoms: C_23  and  C_40 
DOCKED: REMARK    9  A    between atoms: C_32  and  C_41 
DOCKED: REMARK   10  A    between atoms: C_37  and  C_45 
DOCKED: REMARK   11  A    between atoms: C_41  and  C_44 
DOCKED: REMARK   12  A    between atoms: C_44  and  C_46 
DOCKED: REMARK   13  A    between atoms: C_47  and  C_48 
DOCKED: USER                              x       y       z     vdW  Elec       q    Type
DOCKED: USER                           _______ _______ _______ _____ _____    ______ ____
DOCKED: ROOT
DOCKED: ATOM      1  O   UNL d   1       5.937 -17.214   7.990 -0.01 +0.03    -0.289 OA
DOCKED: ATOM      2  O   UNL d   1       3.505 -19.832   1.385 -0.04 +0.03    -0.289 OA
DOCKED: ATOM      3  N   UNL d   1       3.194 -15.907   6.357 -0.08 +0.04    -0.247 NA
DOCKED: ATOM      4  N   UNL d   1       3.197 -17.345   3.757 -0.06 +0.07    -0.247 NA
DOCKED: ATOM      5  N   UNL d   1       1.301 -15.412   2.791 -0.07 +0.07    -0.354 N 
DOCKED: ATOM      6  N   UNL d   1       1.318 -13.915   5.485 -0.14 +0.08    -0.354 N 
DOCKED: ATOM      7  C   UNL d   1       4.461 -15.302   8.366 -0.12 -0.01    +0.084 A 
DOCKED: ATOM      8  C   UNL d   1       4.242 -19.553   3.702 -0.05 -0.01    +0.084 A 
DOCKED: ATOM      9  C   UNL d   1       3.922 -18.270   4.475 -0.08 -0.01    +0.058 A 
DOCKED: ATOM     10  C   UNL d   1       3.307 -15.007   7.404 -0.20 -0.01    +0.058 A 
DOCKED: ATOM     11  C   UNL d   1       4.968 -16.540   7.690 -0.03 -0.02    +0.193 A 
DOCKED: ATOM     12  C   UNL d   1       4.102 -16.817   6.500 -0.07 -0.02    +0.109 A 
DOCKED: ATOM     13  C   UNL d   1       3.596 -19.171   2.400 -0.06 -0.03    +0.193 A 
DOCKED: ATOM     14  C   UNL d   1       5.547 -14.225   8.309 -0.24 -0.00    +0.026 C 
DOCKED: ATOM     15  C   UNL d   1       4.357 -18.048   5.725 -0.07 -0.01    +0.055 C 
DOCKED: ATOM     16  C   UNL d   1       3.503 -20.764   4.281 -0.01 -0.00    +0.026 C 
DOCKED: ATOM     17  C   UNL d   1       3.007 -17.808   2.563 +0.01 -0.03    +0.109 A 
DOCKED: ATOM     18  C   UNL d   1       2.439 -14.003   7.633 -0.22 -0.01    +0.050 C 
DOCKED: ATOM     19  C   UNL d   1       1.297 -13.708   6.846 -0.29 -0.01    +0.045 A 
DOCKED: ATOM     20  C   UNL d   1       1.602 -16.053   1.618 -0.17 -0.01    +0.045 A 
DOCKED: ATOM     21  C   UNL d   1       2.341 -17.151   1.428 -0.12 -0.01    +0.057 C 
DOCKED: ATOM     22  C   UNL d   1       0.285 -14.245   1.154 -0.23 +0.00    -0.019 A 
DOCKED: ATOM     23  C   UNL d   1       0.510 -14.308   2.612 -0.21 -0.01    +0.045 A 
DOCKED: ATOM     24  C   UNL d   1       0.933 -15.281   0.571 -0.20 +0.00    -0.022 A 
DOCKED: ATOM     25  C   UNL d   1       0.146 -13.479   4.912 -0.26 -0.01    +0.049 A 
DOCKED: ATOM     26  C   UNL d   1       0.066 -13.158   7.170 -0.37 +0.00    -0.018 A 
DOCKED: ATOM     27  C   UNL d   1      -0.664 -13.034   5.948 -0.31 -0.00    +0.003 A 
DOCKED: ATOM     28  C   UNL d   1      -0.005 -13.443   3.499 -0.16 -0.01    +0.052 C 
DOCKED: ATOM     29  C   UNL d   1       0.995 -15.650  -0.872 -0.19 -0.00    +0.046 C 
DOCKED: ATOM     30  C   UNL d   1      -0.406 -12.773   8.531 -0.36 -0.02    +0.046 C 
DOCKED: ATOM     31  H   UNL d   1       1.585 -15.794   3.687 +0.06 -0.04    +0.166 HD
DOCKED: ATOM     32  H   UNL d   1       2.114 -14.298   4.989 -0.15 -0.06    +0.166 HD
DOCKED: ENDROOT
DOCKED: BRANCH   7  33
DOCKED: ATOM     33  C   UNL d   1       4.049 -15.609   9.810 -0.07 -0.02    +0.141 C 
DOCKED: BRANCH  33  34
DOCKED: ATOM     34  C   UNL d   1       2.685 -16.237   9.903 -0.01 -0.03    +0.306 C 
DOCKED: ATOM     35  O   UNL d   1       1.764 -15.859  10.607 -0.02 +0.03    -0.251 OA
DOCKED: BRANCH  34  36
DOCKED: ATOM     36  O   UNL d   1       2.551 -17.308   9.100 +0.01 +0.04    -0.481 OA
DOCKED: ATOM     37  H   UNL d   1       2.506 -16.933   8.194 +0.04 -0.03    +0.295 HD
DOCKED: ENDBRANCH  34  36
DOCKED: ENDBRANCH  33  34
DOCKED: ENDBRANCH   7  33
DOCKED: BRANCH  27  38
DOCKED: ATOM     38  C   UNL d   1      -1.984 -12.494   5.826 -0.25 -0.00    +0.017 C 
DOCKED: ATOM     39  C   UNL d   1      -3.003 -13.078   5.177 -0.17 -0.01    +0.092 C 
DOCKED: BRANCH  39  40
DOCKED: ATOM     40  C   UNL d   1      -4.315 -12.426   5.141 -0.10 -0.01    +0.330 C 
DOCKED: ATOM     41  O   UNL d   1      -5.012 -12.106   6.085 -0.14 -0.04    -0.246 OA
DOCKED: BRANCH  40  42
DOCKED: ATOM     42  O   UNL d   1      -4.683 -12.200   3.871 -0.01 +0.02    -0.477 OA
DOCKED: ATOM     43  H   UNL d   1      -3.938 -12.553   3.344 +0.10 -0.02    +0.295 HD
DOCKED: ENDBRANCH  40  42
DOCKED: ENDBRANCH  39  40
DOCKED: ENDBRANCH  27  38
DOCKED: BRANCH   8  44
DOCKED: ATOM     44  C   UNL d   1       5.732 -19.854   3.509 -0.06 -0.01    +0.141 C 
DOCKED: BRANCH  44  45
DOCKED: ATOM     45  C   UNL d   1       6.437 -18.837   2.651 -0.09 -0.05    +0.306 C 
DOCKED: ATOM     46  O   UNL d   1       7.157 -17.933   3.039 -0.21 +0.04    -0.251 OA
DOCKED: BRANCH  45  47
DOCKED: ATOM     47  O   UNL d   1       6.172 -18.995   1.342 -0.07 +0.06    -0.481 OA
DOCKED: ATOM     48  H   UNL d   1       5.306 -18.555   1.209 -0.13 -0.07    +0.295 HD
DOCKED: ENDBRANCH  45  47
DOCKED: ENDBRANCH  44  45
DOCKED: ENDBRANCH   8  44
DOCKED: BRANCH  22  49
DOCKED: ATOM     49  C   UNL d   1      -0.522 -13.180   0.471 -0.33 -0.00    +0.048 C 
DOCKED: BRANCH  49  50
DOCKED: ATOM     50  C   UNL d   1      -2.001 -13.555   0.384 -0.17 -0.01    +0.125 C 
DOCKED: BRANCH  50  51
DOCKED: ATOM     51  C   UNL d   1      -2.796 -12.853   1.448 -0.11 -0.00    +0.305 C 
DOCKED: ATOM     52  O   UNL d   1      -2.701 -11.690   1.801 -0.76 -0.03    -0.251 OA
DOCKED: BRANCH  51  53
DOCKED: ATOM     53  O   UNL d   1      -3.687 -13.675   2.037 +0.00 +0.04    -0.481 OA
DOCKED: ATOM     54  H   UNL d   1      -4.538 -13.196   1.963 +0.08 -0.03    +0.295 HD
DOCKED: ENDBRANCH  51  53
DOCKED: ENDBRANCH  50  51
DOCKED: ENDBRANCH  49  50
DOCKED: ENDBRANCH  22  49
DOCKED: TORSDOF 13
DOCKED: TER
DOCKED: ENDMDL
________________________________________________________________________________


	BEGINNING GENETIC ALGORITHM DOCKING 95 of 100
Run: 95 Seed: 2080794571 547283705 [ Run 95 of 100 GA/GALS ]
Beginning LAMARCKIAN GENETIC ALGORITHM (LGA), with a maximum of 25000000 energy evaluations.

Final-Value: -11.275


	FINAL GENETIC ALGORITHM DOCKED STATE
	_______________________________________________


Detailed state:  trans 0.817 17.321 8.829 quatxyzw -0.072523 0.528809 0.845629 0.003638 center 0.153 0.018 -0.028 ntor 13 148.2633 -150.4773 -77.7089 -31.4175 -138.3353 3.2281 162.6311 -136.8829 18.6832 -99.3271 -76.8910 -40.6626 -14.5153
State:	  0.817  17.321   8.829  -0.073  0.529  0.846 179.583    148.26 -150.48  -77.71  -31.42 -138.34    3.23  162.63 -136.88   18.68  -99.33  -76.89  -40.66  -14.52

DOCKED: MODEL       95
DOCKED: USER    Run = 95
DOCKED: USER    DPF = D:/Protein_go_brrr/autodock/final/mut_D99N/heme/dock.dpf
DOCKED: USER  
DOCKED: USER    Estimated Free Energy of Binding    =   -2.88 kcal/mol  [=(1)+(2)+(3)-(4)]
DOCKED: USER    Estimated Inhibition Constant, Ki   =    7.68 mM (millimolar)  [Temperature = 298.15 K]
DOCKED: USER    
DOCKED: USER    (1) Final Intermolecular Energy     =   -6.76 kcal/mol
DOCKED: USER        vdW + Hbond + desolv Energy     =   -6.79 kcal/mol
DOCKED: USER        Electrostatic Energy            =   +0.02 kcal/mol
DOCKED: USER    (2) Final Total Internal Energy     =   -4.51 kcal/mol
DOCKED: USER    (3) Torsional Free Energy           =   +3.88 kcal/mol
DOCKED: USER    (4) Unbound System's Energy  [=(2)] =   -4.51 kcal/mol
DOCKED: USER    
DOCKED: USER    
DOCKED: USER    NEWDPF move heme_opt.pdbqt
DOCKED: USER    NEWDPF about 0.153000 0.018000 -0.028000
DOCKED: USER    NEWDPF tran0 0.817471 17.321142 8.829161
DOCKED: USER    NEWDPF quaternion0 -0.072523 0.528809 0.845629 0.003638
DOCKED: USER    NEWDPF axisangle0 -0.072524 0.528813 0.845634 179.583167
DOCKED: USER    NEWDPF quat0 -0.072524 0.528813 0.845634 179.583167
DOCKED: USER    NEWDPF dihe0 148.26 -150.48 -77.71 -31.42 -138.34 3.23 162.63 -136.88 18.68 -99.33 -76.89 -40.66 -14.52 
DOCKED: USER  keepresnum = 1 
DOCKED: USER  
DOCKED: REMARK  13 active torsions:
DOCKED: REMARK  status: ('A' for Active; 'I' for Inactive)
DOCKED: REMARK    1  A    between atoms: O_3  and  C_38 
DOCKED: REMARK    2  A    between atoms: O_4  and  C_40 
DOCKED: REMARK    3  A    between atoms: O_7  and  C_46 
DOCKED: REMARK    4  A    between atoms: O_9  and  C_48 
DOCKED: REMARK    5  A    between atoms: C_15  and  C_20 
DOCKED: REMARK    6  A    between atoms: C_16  and  C_23 
DOCKED: REMARK    7  A    between atoms: C_20  and  C_38 
DOCKED: REMARK    8  A    between atoms: C_23  and  C_40 
DOCKED: REMARK    9  A    between atoms: C_32  and  C_41 
DOCKED: REMARK   10  A    between atoms: C_37  and  C_45 
DOCKED: REMARK   11  A    between atoms: C_41  and  C_44 
DOCKED: REMARK   12  A    between atoms: C_44  and  C_46 
DOCKED: REMARK   13  A    between atoms: C_47  and  C_48 
DOCKED: USER                              x       y       z     vdW  Elec       q    Type
DOCKED: USER                           _______ _______ _______ _____ _____    ______ ____
DOCKED: ROOT
DOCKED: ATOM      1  O   UNL d   1       6.168  17.621  11.286 -0.01 +0.01    -0.289 OA
DOCKED: ATOM      2  O   UNL d   1       3.988  18.266   4.129 -0.11 -0.01    -0.289 OA
DOCKED: ATOM      3  N   UNL d   1       2.889  17.232  10.290 -0.00 -0.00    -0.247 NA
DOCKED: ATOM      4  N   UNL d   1       2.960  17.956   7.409 -0.02 -0.02    -0.247 NA
DOCKED: ATOM      5  N   UNL d   1       0.089  18.091   7.467 -0.17 -0.04    -0.354 N 
DOCKED: ATOM      6  N   UNL d   1       0.025  17.359  10.460 -0.06 -0.00    -0.354 N 
DOCKED: ATOM      7  C   UNL d   1       4.042  17.310  12.451 -0.03 -0.00    +0.084 A 
DOCKED: ATOM      8  C   UNL d   1       5.080  17.653   6.232 -0.16 -0.00    +0.084 A 
DOCKED: ATOM      9  C   UNL d   1       4.290  17.626   7.545 -0.13 +0.00    +0.058 A 
DOCKED: ATOM     10  C   UNL d   1       2.735  17.174  11.665 -0.08 -0.00    +0.058 A 
DOCKED: ATOM     11  C   UNL d   1       4.965  17.436  11.277 -0.03 -0.01    +0.193 A 
DOCKED: ATOM     12  C   UNL d   1       4.149  17.349  10.024 -0.08 -0.00    +0.109 A 
DOCKED: ATOM     13  C   UNL d   1       3.961  18.094   5.332 -0.13 +0.01    +0.193 A 
DOCKED: ATOM     14  C   UNL d   1       4.093  18.607  13.263 -0.01 -0.00    +0.026 C 
DOCKED: ATOM     15  C   UNL d   1       4.860  17.356   8.729 -0.13 -0.00    +0.055 C 
DOCKED: ATOM     16  C   UNL d   1       5.528  16.250   5.810 -0.32 -0.00    +0.026 C 
DOCKED: ATOM     17  C   UNL d   1       2.733  18.250   6.169 -0.21 +0.01    +0.109 A 
DOCKED: ATOM     18  C   UNL d   1       1.564  16.929  12.283 -0.11 -0.00    +0.050 C 
DOCKED: ATOM     19  C   UNL d   1       0.323  16.706  11.635 -0.13 -0.00    +0.045 A 
DOCKED: ATOM     20  C   UNL d   1       0.325  18.629   6.228 -0.29 +0.01    +0.045 A 
DOCKED: ATOM     21  C   UNL d   1       1.479  18.718   5.560 -0.26 +0.01    +0.057 C 
DOCKED: ATOM     22  C   UNL d   1      -1.899  18.833   6.710 -0.21 -0.00    -0.019 A 
DOCKED: ATOM     23  C   UNL d   1      -1.225  18.169   7.844 -0.26 +0.00    +0.045 A 
DOCKED: ATOM     24  C   UNL d   1      -0.976  19.101   5.756 -0.21 -0.00    -0.022 A 
DOCKED: ATOM     25  C   UNL d   1      -1.257  17.067  10.057 -0.19 -0.00    +0.049 A 
DOCKED: ATOM     26  C   UNL d   1      -0.780  15.942  11.984 -0.23 +0.00    -0.018 A 
DOCKED: ATOM     27  C   UNL d   1      -1.767  16.159  10.974 -0.27 -0.00    +0.003 A 
DOCKED: ATOM     28  C   UNL d   1      -1.847  17.745   8.955 -0.26 +0.00    +0.052 C 
DOCKED: ATOM     29  C   UNL d   1      -1.169  19.750   4.428 -0.18 +0.01    +0.046 C 
DOCKED: ATOM     30  C   UNL d   1      -0.911  15.062  13.181 -0.32 -0.01    +0.046 C 
DOCKED: ATOM     31  H   UNL d   1       0.823  17.620   7.984 +0.06 +0.02    +0.166 HD
DOCKED: ATOM     32  H   UNL d   1       0.662  17.995   9.996 +0.03 +0.00    +0.166 HD
DOCKED: ENDROOT
DOCKED: BRANCH   7  33
DOCKED: ATOM     33  C   UNL d   1       4.423  16.096  13.306 -0.05 -0.01    +0.141 C 
DOCKED: BRANCH  33  34
DOCKED: ATOM     34  C   UNL d   1       4.749  14.883  12.478 -0.07 -0.03    +0.306 C 
DOCKED: ATOM     35  O   UNL d   1       3.947  14.082  12.028 -0.17 +0.03    -0.251 OA
DOCKED: BRANCH  34  36
DOCKED: ATOM     36  O   UNL d   1       6.068  14.745  12.257 -0.00 +0.04    -0.481 OA
DOCKED: ATOM     37  H   UNL d   1       6.404  15.664  12.185 +0.04 -0.02    +0.295 HD
DOCKED: ENDBRANCH  34  36
DOCKED: ENDBRANCH  33  34
DOCKED: ENDBRANCH   7  33
DOCKED: BRANCH  27  38
DOCKED: ATOM     38  C   UNL d   1      -3.072  15.569  10.955 -0.30 -0.00    +0.017 C 
DOCKED: ATOM     39  C   UNL d   1      -4.027  15.830  10.049 -0.32 -0.01    +0.092 C 
DOCKED: BRANCH  39  40
DOCKED: ATOM     40  C   UNL d   1      -5.319  15.144  10.132 -0.22 -0.05    +0.330 C 
DOCKED: ATOM     41  O   UNL d   1      -5.679  14.336  10.966 -0.26 +0.05    -0.246 OA
DOCKED: BRANCH  40  42
DOCKED: ATOM     42  O   UNL d   1      -6.115  15.537   9.126 -0.14 +0.04    -0.477 OA
DOCKED: ATOM     43  H   UNL d   1      -5.491  15.762   8.406 +0.15 -0.00    +0.295 HD
DOCKED: ENDBRANCH  40  42
DOCKED: ENDBRANCH  39  40
DOCKED: ENDBRANCH  27  38
DOCKED: BRANCH   8  44
DOCKED: ATOM     44  C   UNL d   1       6.247  18.645   6.183 -0.04 -0.00    +0.141 C 
DOCKED: BRANCH  44  45
DOCKED: ATOM     45  C   UNL d   1       6.508  19.188   4.804 -0.02 +0.00    +0.306 C 
DOCKED: ATOM     46  O   UNL d   1       6.442  20.355   4.458 -0.01 -0.00    -0.251 OA
DOCKED: BRANCH  45  47
DOCKED: ATOM     47  O   UNL d   1       6.815  18.222   3.920 -0.00 -0.00    -0.481 OA
DOCKED: ATOM     48  H   UNL d   1       5.987  18.077   3.413 +0.06 +0.00    +0.295 HD
DOCKED: ENDBRANCH  45  47
DOCKED: ENDBRANCH  44  45
DOCKED: ENDBRANCH   8  44
DOCKED: BRANCH  22  49
DOCKED: ATOM     49  C   UNL d   1      -3.364  19.153   6.671 -0.15 +0.01    +0.048 C 
DOCKED: BRANCH  49  50
DOCKED: ATOM     50  C   UNL d   1      -4.156  18.101   5.895 -0.19 +0.03    +0.125 C 
DOCKED: BRANCH  50  51
DOCKED: ATOM     51  C   UNL d   1      -4.905  17.196   6.832 -0.21 +0.05    +0.305 C 
DOCKED: ATOM     52  O   UNL d   1      -5.101  15.999   6.711 -0.44 -0.04    -0.251 OA
DOCKED: BRANCH  51  53
DOCKED: ATOM     53  O   UNL d   1      -5.393  17.864   7.896 -0.02 -0.02    -0.481 OA
DOCKED: ATOM     54  H   UNL d   1      -6.220  17.386   8.118 +0.11 +0.00    +0.295 HD
DOCKED: ENDBRANCH  51  53
DOCKED: ENDBRANCH  50  51
DOCKED: ENDBRANCH  49  50
DOCKED: ENDBRANCH  22  49
DOCKED: TORSDOF 13
DOCKED: TER
DOCKED: ENDMDL
________________________________________________________________________________


	BEGINNING GENETIC ALGORITHM DOCKING 96 of 100
Run: 96 Seed: 100438856 446605162 [ Run 96 of 100 GA/GALS ]
Beginning LAMARCKIAN GENETIC ALGORITHM (LGA), with a maximum of 25000000 energy evaluations.

Final-Value: -11.067


	FINAL GENETIC ALGORITHM DOCKED STATE
	_______________________________________________


Detailed state:  trans -11.849 -8.563 -8.024 quatxyzw 0.733172 0.127815 0.644127 0.176699 center 0.153 0.018 -0.028 ntor 13 71.4633 -178.7308 -89.7670 -115.9310 156.8965 -96.2775 -169.8082 -38.5212 115.4138 -114.9841 23.6920 -5.5090 83.4844
State:	-11.849  -8.563  -8.024   0.745  0.130  0.654 159.645     71.46 -178.73  -89.77 -115.93  156.90  -96.28 -169.81  -38.52  115.41 -114.98   23.69   -5.51   83.48

DOCKED: MODEL       96
DOCKED: USER    Run = 96
DOCKED: USER    DPF = D:/Protein_go_brrr/autodock/final/mut_D99N/heme/dock.dpf
DOCKED: USER  
DOCKED: USER    Estimated Free Energy of Binding    =   -5.14 kcal/mol  [=(1)+(2)+(3)-(4)]
DOCKED: USER    Estimated Inhibition Constant, Ki   =  170.78 uM (micromolar)  [Temperature = 298.15 K]
DOCKED: USER    
DOCKED: USER    (1) Final Intermolecular Energy     =   -9.02 kcal/mol
DOCKED: USER        vdW + Hbond + desolv Energy     =   -8.06 kcal/mol
DOCKED: USER        Electrostatic Energy            =   -0.96 kcal/mol
DOCKED: USER    (2) Final Total Internal Energy     =   -2.05 kcal/mol
DOCKED: USER    (3) Torsional Free Energy           =   +3.88 kcal/mol
DOCKED: USER    (4) Unbound System's Energy  [=(2)] =   -2.05 kcal/mol
DOCKED: USER    
DOCKED: USER    
DOCKED: USER    NEWDPF move heme_opt.pdbqt
DOCKED: USER    NEWDPF about 0.153000 0.018000 -0.028000
DOCKED: USER    NEWDPF tran0 -11.849285 -8.563341 -8.023917
DOCKED: USER    NEWDPF quaternion0 0.733172 0.127815 0.644127 0.176699
DOCKED: USER    NEWDPF axisangle0 0.744893 0.129859 0.654424 159.644953
DOCKED: USER    NEWDPF quat0 0.744893 0.129859 0.654424 159.644953
DOCKED: USER    NEWDPF dihe0 71.46 -178.73 -89.77 -115.93 156.90 -96.28 -169.81 -38.52 115.41 -114.98 23.69 -5.51 83.48 
DOCKED: USER  keepresnum = 1 
DOCKED: USER  
DOCKED: REMARK  13 active torsions:
DOCKED: REMARK  status: ('A' for Active; 'I' for Inactive)
DOCKED: REMARK    1  A    between atoms: O_3  and  C_38 
DOCKED: REMARK    2  A    between atoms: O_4  and  C_40 
DOCKED: REMARK    3  A    between atoms: O_7  and  C_46 
DOCKED: REMARK    4  A    between atoms: O_9  and  C_48 
DOCKED: REMARK    5  A    between atoms: C_15  and  C_20 
DOCKED: REMARK    6  A    between atoms: C_16  and  C_23 
DOCKED: REMARK    7  A    between atoms: C_20  and  C_38 
DOCKED: REMARK    8  A    between atoms: C_23  and  C_40 
DOCKED: REMARK    9  A    between atoms: C_32  and  C_41 
DOCKED: REMARK   10  A    between atoms: C_37  and  C_45 
DOCKED: REMARK   11  A    between atoms: C_41  and  C_44 
DOCKED: REMARK   12  A    between atoms: C_44  and  C_46 
DOCKED: REMARK   13  A    between atoms: C_47  and  C_48 
DOCKED: USER                              x       y       z     vdW  Elec       q    Type
DOCKED: USER                           _______ _______ _______ _____ _____    ______ ____
DOCKED: ROOT
DOCKED: ATOM      1  O   UNL d   1     -11.337  -9.591 -13.806 -0.06 -0.03    -0.289 OA
DOCKED: ATOM      2  O   UNL d   1     -15.646  -4.741 -10.026 -0.11 -0.04    -0.289 OA
DOCKED: ATOM      3  N   UNL d   1     -11.398  -9.438 -10.361 -0.15 +0.03    -0.247 NA
DOCKED: ATOM      4  N   UNL d   1     -13.115  -7.076  -9.813 -0.15 +0.05    -0.247 NA
DOCKED: ATOM      5  N   UNL d   1     -12.188  -7.150  -7.092 -0.04 +0.10    -0.354 N 
DOCKED: ATOM      6  N   UNL d   1     -10.395  -9.589  -7.675 -0.12 +0.09    -0.354 N 
DOCKED: ATOM      7  C   UNL d   1     -10.069 -10.667 -12.015 -0.26 -0.00    +0.084 A 
DOCKED: ATOM      8  C   UNL d   1     -14.764  -6.474 -11.512 -0.14 -0.01    +0.084 A 
DOCKED: ATOM      9  C   UNL d   1     -13.586  -7.351 -11.077 -0.08 -0.01    +0.058 A 
DOCKED: ATOM     10  C   UNL d   1     -10.370 -10.348 -10.547 -0.28 -0.01    +0.058 A 
DOCKED: ATOM     11  C   UNL d   1     -11.121  -9.790 -12.625 -0.17 +0.00    +0.193 A 
DOCKED: ATOM     12  C   UNL d   1     -11.876  -9.119 -11.520 -0.19 -0.01    +0.109 A 
DOCKED: ATOM     13  C   UNL d   1     -14.850  -5.625 -10.275 -0.20 -0.00    +0.193 A 
DOCKED: ATOM     14  C   UNL d   1      -8.690 -10.156 -12.442 -0.32 -0.00    +0.026 C 
DOCKED: ATOM     15  C   UNL d   1     -13.030  -8.272 -11.881 -0.19 -0.00    +0.055 C 
DOCKED: ATOM     16  C   UNL d   1     -16.057  -7.284 -11.644 -0.05 -0.00    +0.026 C 
DOCKED: ATOM     17  C   UNL d   1     -13.792  -6.086  -9.327 -0.29 -0.01    +0.109 A 
DOCKED: ATOM     18  C   UNL d   1      -9.734 -10.983  -9.545 -0.08 -0.01    +0.050 C 
DOCKED: ATOM     19  C   UNL d   1     -10.004 -10.816  -8.163 -0.24 -0.01    +0.045 A 
DOCKED: ATOM     20  C   UNL d   1     -12.845  -5.947  -7.084 -0.08 -0.01    +0.045 A 
DOCKED: ATOM     21  C   UNL d   1     -13.609  -5.404  -8.037 -0.38 +0.00    +0.057 C 
DOCKED: ATOM     22  C   UNL d   1     -11.742  -6.199  -5.099 -0.22 +0.00    -0.019 A 
DOCKED: ATOM     23  C   UNL d   1     -11.494  -7.390  -5.936 -0.18 -0.01    +0.045 A 
DOCKED: ATOM     24  C   UNL d   1     -12.544  -5.349  -5.784 -0.34 +0.00    -0.022 A 
DOCKED: ATOM     25  C   UNL d   1     -10.514  -9.630  -6.305 -0.20 -0.02    +0.049 A 
DOCKED: ATOM     26  C   UNL d   1      -9.903 -11.685  -7.087 -0.19 +0.01    -0.018 A 
DOCKED: ATOM     27  C   UNL d   1     -10.245 -10.936  -5.919 -0.19 -0.00    +0.003 A 
DOCKED: ATOM     28  C   UNL d   1     -10.754  -8.444  -5.558 -0.23 -0.02    +0.052 C 
DOCKED: ATOM     29  C   UNL d   1     -13.080  -4.025  -5.358 -0.35 +0.01    +0.046 C 
DOCKED: ATOM     30  C   UNL d   1      -9.514 -13.124  -7.139 +0.09 -0.01    +0.046 C 
DOCKED: ATOM     31  H   UNL d   1     -12.295  -7.804  -7.860 +0.02 -0.04    +0.166 HD
DOCKED: ATOM     32  H   UNL d   1     -10.529  -8.771  -8.257 +0.05 -0.03    +0.166 HD
DOCKED: ENDROOT
DOCKED: BRANCH   7  33
DOCKED: ATOM     33  C   UNL d   1     -10.280 -12.127 -12.426 -0.13 -0.00    +0.141 C 
DOCKED: BRANCH  33  34
DOCKED: ATOM     34  C   UNL d   1     -10.368 -12.302 -13.918 -0.06 +0.02    +0.306 C 
DOCKED: ATOM     35  O   UNL d   1     -11.018 -13.148 -14.508 -0.02 -0.01    -0.251 OA
DOCKED: BRANCH  34  36
DOCKED: ATOM     36  O   UNL d   1      -9.632 -11.398 -14.590 -0.53 -0.11    -0.481 OA
DOCKED: ATOM     37  H   UNL d   1     -10.291 -10.822 -15.032 +0.07 +0.09    +0.295 HD
DOCKED: ENDBRANCH  34  36
DOCKED: ENDBRANCH  33  34
DOCKED: ENDBRANCH   7  33
DOCKED: BRANCH  27  38
DOCKED: ATOM     38  C   UNL d   1     -10.254 -11.450  -4.583 -0.10 -0.01    +0.017 C 
DOCKED: ATOM     39  C   UNL d   1     -11.072 -11.040  -3.601 -0.08 -0.07    +0.092 C 
DOCKED: BRANCH  39  40
DOCKED: ATOM     40  C   UNL d   1     -10.992 -11.662  -2.277 -0.05 -0.23    +0.330 C 
DOCKED: ATOM     41  O   UNL d   1     -11.697 -12.544  -1.826 -0.02 +0.09    -0.246 OA
DOCKED: BRANCH  40  42
DOCKED: ATOM     42  O   UNL d   1      -9.983 -11.123  -1.574 -0.03 +0.59    -0.477 OA
DOCKED: ATOM     43  H   UNL d   1      -9.613 -10.446  -2.177 -0.44 -0.78    +0.295 HD
DOCKED: ENDBRANCH  40  42
DOCKED: ENDBRANCH  39  40
DOCKED: ENDBRANCH  27  38
DOCKED: BRANCH   8  44
DOCKED: ATOM     44  C   UNL d   1     -14.521  -5.611 -12.755 -0.15 -0.00    +0.141 C 
DOCKED: BRANCH  44  45
DOCKED: ATOM     45  C   UNL d   1     -15.541  -4.517 -12.927 -0.04 +0.01    +0.306 C 
DOCKED: ATOM     46  O   UNL d   1     -15.345  -3.407 -13.391 -0.05 -0.03    -0.251 OA
DOCKED: BRANCH  45  47
DOCKED: ATOM     47  O   UNL d   1     -16.758  -4.872 -12.476 +0.00 +0.02    -0.481 OA
DOCKED: ATOM     48  H   UNL d   1     -16.759  -4.607 -11.531 +0.08 -0.02    +0.295 HD
DOCKED: ENDBRANCH  45  47
DOCKED: ENDBRANCH  44  45
DOCKED: ENDBRANCH   8  44
DOCKED: BRANCH  22  49
DOCKED: ATOM     49  C   UNL d   1     -11.167  -5.998  -3.728 -0.24 -0.01    +0.048 C 
DOCKED: BRANCH  49  50
DOCKED: ATOM     50  C   UNL d   1     -10.291  -7.175  -3.300 -0.19 -0.08    +0.125 C 
DOCKED: BRANCH  50  51
DOCKED: ATOM     51  C   UNL d   1     -10.215  -7.271  -1.803 -0.11 -0.19    +0.305 C 
DOCKED: ATOM     52  O   UNL d   1     -10.039  -6.364  -1.008 -0.17 +0.05    -0.251 OA
DOCKED: BRANCH  51  53
DOCKED: ATOM     53  O   UNL d   1     -10.357  -8.540  -1.371 -0.03 +0.45    -0.481 OA
DOCKED: ATOM     54  H   UNL d   1      -9.580  -9.006  -1.743 -0.47 -0.72    +0.295 HD
DOCKED: ENDBRANCH  51  53
DOCKED: ENDBRANCH  50  51
DOCKED: ENDBRANCH  49  50
DOCKED: ENDBRANCH  22  49
DOCKED: TORSDOF 13
DOCKED: TER
DOCKED: ENDMDL
________________________________________________________________________________


	BEGINNING GENETIC ALGORITHM DOCKING 97 of 100
Run: 97 Seed: 537289853 619524023 [ Run 97 of 100 GA/GALS ]
Beginning LAMARCKIAN GENETIC ALGORITHM (LGA), with a maximum of 25000000 energy evaluations.

Final-Value: -11.169


	FINAL GENETIC ALGORITHM DOCKED STATE
	_______________________________________________


Detailed state:  trans 0.591 15.307 16.075 quatxyzw -0.151959 -0.755545 -0.637095 0.013019 center 0.153 0.018 -0.028 ntor 13 116.1568 12.0416 -160.2977 -45.0704 -132.5003 -144.6148 132.5864 102.2902 42.4862 -13.5652 169.6427 -35.5499 -3.7239
State:	  0.591  15.307  16.075  -0.152 -0.756 -0.637 178.508    116.16   12.04 -160.30  -45.07 -132.50 -144.61  132.59  102.29   42.49  -13.57  169.64  -35.55   -3.72

DOCKED: MODEL       97
DOCKED: USER    Run = 97
DOCKED: USER    DPF = D:/Protein_go_brrr/autodock/final/mut_D99N/heme/dock.dpf
DOCKED: USER  
DOCKED: USER    Estimated Free Energy of Binding    =   -4.45 kcal/mol  [=(1)+(2)+(3)-(4)]
DOCKED: USER    Estimated Inhibition Constant, Ki   =  551.56 uM (micromolar)  [Temperature = 298.15 K]
DOCKED: USER    
DOCKED: USER    (1) Final Intermolecular Energy     =   -8.32 kcal/mol
DOCKED: USER        vdW + Hbond + desolv Energy     =   -8.28 kcal/mol
DOCKED: USER        Electrostatic Energy            =   -0.05 kcal/mol
DOCKED: USER    (2) Final Total Internal Energy     =   -2.85 kcal/mol
DOCKED: USER    (3) Torsional Free Energy           =   +3.88 kcal/mol
DOCKED: USER    (4) Unbound System's Energy  [=(2)] =   -2.85 kcal/mol
DOCKED: USER    
DOCKED: USER    
DOCKED: USER    NEWDPF move heme_opt.pdbqt
DOCKED: USER    NEWDPF about 0.153000 0.018000 -0.028000
DOCKED: USER    NEWDPF tran0 0.590763 15.307261 16.074612
DOCKED: USER    NEWDPF quaternion0 -0.151959 -0.755545 -0.637095 0.013019
DOCKED: USER    NEWDPF axisangle0 -0.151972 -0.755609 -0.637149 178.508126
DOCKED: USER    NEWDPF quat0 -0.151972 -0.755609 -0.637149 178.508126
DOCKED: USER    NEWDPF dihe0 116.16 12.04 -160.30 -45.07 -132.50 -144.61 132.59 102.29 42.49 -13.57 169.64 -35.55 -3.72 
DOCKED: USER  keepresnum = 1 
DOCKED: USER  
DOCKED: REMARK  13 active torsions:
DOCKED: REMARK  status: ('A' for Active; 'I' for Inactive)
DOCKED: REMARK    1  A    between atoms: O_3  and  C_38 
DOCKED: REMARK    2  A    between atoms: O_4  and  C_40 
DOCKED: REMARK    3  A    between atoms: O_7  and  C_46 
DOCKED: REMARK    4  A    between atoms: O_9  and  C_48 
DOCKED: REMARK    5  A    between atoms: C_15  and  C_20 
DOCKED: REMARK    6  A    between atoms: C_16  and  C_23 
DOCKED: REMARK    7  A    between atoms: C_20  and  C_38 
DOCKED: REMARK    8  A    between atoms: C_23  and  C_40 
DOCKED: REMARK    9  A    between atoms: C_32  and  C_41 
DOCKED: REMARK   10  A    between atoms: C_37  and  C_45 
DOCKED: REMARK   11  A    between atoms: C_41  and  C_44 
DOCKED: REMARK   12  A    between atoms: C_44  and  C_46 
DOCKED: REMARK   13  A    between atoms: C_47  and  C_48 
DOCKED: USER                              x       y       z     vdW  Elec       q    Type
DOCKED: USER                           _______ _______ _______ _____ _____    ______ ____
DOCKED: ROOT
DOCKED: ATOM      1  O   UNL d   1       6.439  14.787  16.610 -0.05 +0.01    -0.289 OA
DOCKED: ATOM      2  O   UNL d   1       1.755  12.451  11.225 -0.42 +0.06    -0.289 OA
DOCKED: ATOM      3  N   UNL d   1       3.021  15.207  16.795 -0.11 +0.07    -0.247 NA
DOCKED: ATOM      4  N   UNL d   1       2.072  14.270  14.140 -0.16 +0.06    -0.247 NA
DOCKED: ATOM      5  N   UNL d   1      -0.470  15.481  14.724 -0.11 +0.09    -0.354 N 
DOCKED: ATOM      6  N   UNL d   1       0.529  16.466  17.469 -0.07 +0.09    -0.354 N 
DOCKED: ATOM      7  C   UNL d   1       4.929  15.938  18.149 -0.06 -0.01    +0.084 A 
DOCKED: ATOM      8  C   UNL d   1       3.464  12.640  12.967 -0.38 -0.01    +0.084 A 
DOCKED: ATOM      9  C   UNL d   1       3.267  13.586  14.156 -0.29 -0.01    +0.058 A 
DOCKED: ATOM     10  C   UNL d   1       3.415  15.922  17.914 -0.13 -0.01    +0.058 A 
DOCKED: ATOM     11  C   UNL d   1       5.318  15.090  16.975 -0.08 -0.01    +0.193 A 
DOCKED: ATOM     12  C   UNL d   1       4.072  14.689  16.249 -0.18 -0.01    +0.109 A 
DOCKED: ATOM     13  C   UNL d   1       2.177  12.943  12.253 -0.36 -0.03    +0.193 A 
DOCKED: ATOM     14  C   UNL d   1       5.523  17.337  17.969 -0.02 -0.00    +0.026 C 
DOCKED: ATOM     15  C   UNL d   1       4.201  13.768  15.102 -0.22 -0.00    +0.055 C 
DOCKED: ATOM     16  C   UNL d   1       3.454  11.172  13.401 -0.33 -0.00    +0.026 C 
DOCKED: ATOM     17  C   UNL d   1       1.428  13.950  13.064 -0.31 -0.02    +0.109 A 
DOCKED: ATOM     18  C   UNL d   1       2.562  16.486  18.789 -0.12 -0.01    +0.050 C 
DOCKED: ATOM     19  C   UNL d   1       1.147  16.449  18.698 -0.15 -0.01    +0.045 A 
DOCKED: ATOM     20  C   UNL d   1      -0.653  15.177  13.400 -0.28 -0.01    +0.045 A 
DOCKED: ATOM     21  C   UNL d   1       0.139  14.472  12.585 -0.33 -0.01    +0.057 C 
DOCKED: ATOM     22  C   UNL d   1      -2.430  16.414  14.125 -0.13 +0.00    -0.019 A 
DOCKED: ATOM     23  C   UNL d   1      -1.491  16.226  15.249 -0.16 -0.01    +0.045 A 
DOCKED: ATOM     24  C   UNL d   1      -1.929  15.789  13.034 -0.20 +0.01    -0.022 A 
DOCKED: ATOM     25  C   UNL d   1      -0.838  16.515  17.616 -0.07 -0.01    +0.049 A 
DOCKED: ATOM     26  C   UNL d   1       0.157  16.449  19.669 -0.15 +0.00    -0.018 A 
DOCKED: ATOM     27  C   UNL d   1      -1.095  16.472  18.979 -0.05 -0.00    +0.003 A 
DOCKED: ATOM     28  C   UNL d   1      -1.686  16.698  16.490 -0.13 -0.01    +0.052 C 
DOCKED: ATOM     29  C   UNL d   1      -2.514  15.686  11.666 -0.24 -0.01    +0.046 C 
DOCKED: ATOM     30  C   UNL d   1       0.358  16.428  21.146 -0.09 -0.01    +0.046 C 
DOCKED: ATOM     31  H   UNL d   1       0.314  15.105  15.247 -0.45 -0.08    +0.166 HD
DOCKED: ATOM     32  H   UNL d   1       1.031  16.482  16.589 -0.07 -0.05    +0.166 HD
DOCKED: ENDROOT
DOCKED: BRANCH   7  33
DOCKED: ATOM     33  C   UNL d   1       5.397  15.292  19.458 -0.06 -0.01    +0.141 C 
DOCKED: BRANCH  33  34
DOCKED: ATOM     34  C   UNL d   1       5.691  13.824  19.306 -0.09 -0.03    +0.306 C 
DOCKED: ATOM     35  O   UNL d   1       4.868  12.925  19.267 -0.18 +0.01    -0.251 OA
DOCKED: BRANCH  34  36
DOCKED: ATOM     36  O   UNL d   1       7.007  13.566  19.211 -0.01 +0.05    -0.481 OA
DOCKED: ATOM     37  H   UNL d   1       7.276  13.970  18.358 +0.04 -0.02    +0.295 HD
DOCKED: ENDBRANCH  34  36
DOCKED: ENDBRANCH  33  34
DOCKED: ENDBRANCH   7  33
DOCKED: BRANCH  27  38
DOCKED: ATOM     38  C   UNL d   1      -2.382  16.495  19.606 -0.06 -0.00    +0.017 C 
DOCKED: ATOM     39  C   UNL d   1      -3.558  16.494  18.960 -0.06 -0.01    +0.092 C 
DOCKED: BRANCH  39  40
DOCKED: ATOM     40  C   UNL d   1      -4.809  16.502  19.722 -0.02 -0.05    +0.330 C 
DOCKED: ATOM     41  O   UNL d   1      -5.864  15.974  19.425 -0.03 +0.05    -0.246 OA
DOCKED: BRANCH  40  42
DOCKED: ATOM     42  O   UNL d   1      -4.652  17.192  20.862 +0.01 +0.06    -0.477 OA
DOCKED: ATOM     43  H   UNL d   1      -5.455  16.978  21.379 +0.02 -0.04    +0.295 HD
DOCKED: ENDBRANCH  40  42
DOCKED: ENDBRANCH  39  40
DOCKED: ENDBRANCH  27  38
DOCKED: BRANCH   8  44
DOCKED: ATOM     44  C   UNL d   1       4.671  12.946  12.073 -0.29 -0.02    +0.141 C 
DOCKED: BRANCH  44  45
DOCKED: ATOM     45  C   UNL d   1       4.581  14.284  11.389 -0.16 -0.05    +0.306 C 
DOCKED: ATOM     46  O   UNL d   1       4.969  15.352  11.829 -0.07 +0.02    -0.251 OA
DOCKED: BRANCH  45  47
DOCKED: ATOM     47  O   UNL d   1       3.976  14.209  10.190 -0.09 +0.11    -0.481 OA
DOCKED: ATOM     48  H   UNL d   1       3.485  13.360  10.212 -0.38 -0.14    +0.295 HD
DOCKED: ENDBRANCH  45  47
DOCKED: ENDBRANCH  44  45
DOCKED: ENDBRANCH   8  44
DOCKED: BRANCH  22  49
DOCKED: ATOM     49  C   UNL d   1      -3.710  17.191  14.217 -0.05 -0.01    +0.048 C 
DOCKED: BRANCH  49  50
DOCKED: ATOM     50  C   UNL d   1      -4.872  16.321  14.697 -0.06 -0.02    +0.125 C 
DOCKED: BRANCH  50  51
DOCKED: ATOM     51  C   UNL d   1      -4.478  14.871  14.728 -0.15 -0.07    +0.305 C 
DOCKED: ATOM     52  O   UNL d   1      -4.077  14.230  15.683 -0.23 +0.05    -0.251 OA
DOCKED: BRANCH  51  53
DOCKED: ATOM     53  O   UNL d   1      -4.601  14.289  13.518 -0.10 +0.16    -0.481 OA
DOCKED: ATOM     54  H   UNL d   1      -3.770  13.780  13.413 -0.38 -0.18    +0.295 HD
DOCKED: ENDBRANCH  51  53
DOCKED: ENDBRANCH  50  51
DOCKED: ENDBRANCH  49  50
DOCKED: ENDBRANCH  22  49
DOCKED: TORSDOF 13
DOCKED: TER
DOCKED: ENDMDL
________________________________________________________________________________


	BEGINNING GENETIC ALGORITHM DOCKING 98 of 100
Run: 98 Seed: 806940912 1999314781 [ Run 98 of 100 GA/GALS ]
Beginning LAMARCKIAN GENETIC ALGORITHM (LGA), with a maximum of 25000000 energy evaluations.

Final-Value: -10.247


	FINAL GENETIC ALGORITHM DOCKED STATE
	_______________________________________________


Detailed state:  trans 5.337 16.066 2.232 quatxyzw -0.618371 0.481789 -0.229920 -0.576744 center 0.153 0.018 -0.028 ntor 13 -101.2097 114.3277 -112.2339 153.1156 35.2603 133.6105 120.8681 73.4451 131.0833 -29.4731 59.5263 -129.9830 128.1482
State:	  5.337  16.066   2.232  -0.757  0.590 -0.281 -109.556   -101.21  114.33 -112.23  153.12   35.26  133.61  120.87   73.45  131.08  -29.47   59.53 -129.98  128.15

DOCKED: MODEL       98
DOCKED: USER    Run = 98
DOCKED: USER    DPF = D:/Protein_go_brrr/autodock/final/mut_D99N/heme/dock.dpf
DOCKED: USER  
DOCKED: USER    Estimated Free Energy of Binding    =   -3.11 kcal/mol  [=(1)+(2)+(3)-(4)]
DOCKED: USER    Estimated Inhibition Constant, Ki   =    5.22 mM (millimolar)  [Temperature = 298.15 K]
DOCKED: USER    
DOCKED: USER    (1) Final Intermolecular Energy     =   -6.99 kcal/mol
DOCKED: USER        vdW + Hbond + desolv Energy     =   -6.83 kcal/mol
DOCKED: USER        Electrostatic Energy            =   -0.16 kcal/mol
DOCKED: USER    (2) Final Total Internal Energy     =   -3.26 kcal/mol
DOCKED: USER    (3) Torsional Free Energy           =   +3.88 kcal/mol
DOCKED: USER    (4) Unbound System's Energy  [=(2)] =   -3.26 kcal/mol
DOCKED: USER    
DOCKED: USER    
DOCKED: USER    NEWDPF move heme_opt.pdbqt
DOCKED: USER    NEWDPF about 0.153000 0.018000 -0.028000
DOCKED: USER    NEWDPF tran0 5.337406 16.065612 2.231704
DOCKED: USER    NEWDPF quaternion0 -0.618371 0.481789 -0.229920 -0.576744
DOCKED: USER    NEWDPF axisangle0 -0.756950 0.589759 -0.281446 -109.556317
DOCKED: USER    NEWDPF quat0 -0.756950 0.589759 -0.281446 -109.556317
DOCKED: USER    NEWDPF dihe0 -101.21 114.33 -112.23 153.12 35.26 133.61 120.87 73.45 131.08 -29.47 59.53 -129.98 128.15 
DOCKED: USER  keepresnum = 1 
DOCKED: USER  
DOCKED: REMARK  13 active torsions:
DOCKED: REMARK  status: ('A' for Active; 'I' for Inactive)
DOCKED: REMARK    1  A    between atoms: O_3  and  C_38 
DOCKED: REMARK    2  A    between atoms: O_4  and  C_40 
DOCKED: REMARK    3  A    between atoms: O_7  and  C_46 
DOCKED: REMARK    4  A    between atoms: O_9  and  C_48 
DOCKED: REMARK    5  A    between atoms: C_15  and  C_20 
DOCKED: REMARK    6  A    between atoms: C_16  and  C_23 
DOCKED: REMARK    7  A    between atoms: C_20  and  C_38 
DOCKED: REMARK    8  A    between atoms: C_23  and  C_40 
DOCKED: REMARK    9  A    between atoms: C_32  and  C_41 
DOCKED: REMARK   10  A    between atoms: C_37  and  C_45 
DOCKED: REMARK   11  A    between atoms: C_41  and  C_44 
DOCKED: REMARK   12  A    between atoms: C_44  and  C_46 
DOCKED: REMARK   13  A    between atoms: C_47  and  C_48 
DOCKED: USER                              x       y       z     vdW  Elec       q    Type
DOCKED: USER                           _______ _______ _______ _____ _____    ______ ____
DOCKED: ROOT
DOCKED: ATOM      1  O   UNL d   1       2.910  21.434   2.027 -0.01 -0.01    -0.289 OA
DOCKED: ATOM      2  O   UNL d   1       4.471  16.949   7.845 -0.11 -0.00    -0.289 OA
DOCKED: ATOM      3  N   UNL d   1       4.229  18.270   1.646 -0.11 -0.01    -0.247 NA
DOCKED: ATOM      4  N   UNL d   1       4.774  17.416   4.439 -0.06 -0.00    -0.247 NA
DOCKED: ATOM      5  N   UNL d   1       6.351  15.261   3.374 -0.16 +0.02    -0.354 N 
DOCKED: ATOM      6  N   UNL d   1       5.797  16.165   0.480 -0.09 -0.01    -0.354 N 
DOCKED: ATOM      7  C   UNL d   1       3.740  20.134   0.131 -0.04 +0.00    +0.084 A 
DOCKED: ATOM      8  C   UNL d   1       3.418  18.428   6.202 -0.18 +0.00    +0.084 A 
DOCKED: ATOM      9  C   UNL d   1       3.816  18.363   4.724 -0.11 +0.00    +0.058 A 
DOCKED: ATOM     10  C   UNL d   1       4.277  18.714   0.335 -0.10 +0.00    +0.058 A 
DOCKED: ATOM     11  C   UNL d   1       3.363  20.407   1.556 -0.04 +0.01    +0.193 A 
DOCKED: ATOM     12  C   UNL d   1       3.684  19.193   2.370 -0.12 +0.00    +0.109 A 
DOCKED: ATOM     13  C   UNL d   1       4.354  17.368   6.709 -0.16 +0.00    +0.193 A 
DOCKED: ATOM     14  C   UNL d   1       4.843  21.111  -0.285 -0.01 +0.00    +0.026 C 
DOCKED: ATOM     15  C   UNL d   1       3.311  19.194   3.799 -0.16 +0.00    +0.055 C 
DOCKED: ATOM     16  C   UNL d   1       1.977  17.959   6.423 -0.24 +0.00    +0.026 C 
DOCKED: ATOM     17  C   UNL d   1       5.124  16.839   5.543 -0.22 -0.00    +0.109 A 
DOCKED: ATOM     18  C   UNL d   1       4.670  17.955  -0.705 -0.10 +0.00    +0.050 C 
DOCKED: ATOM     19  C   UNL d   1       5.100  16.606  -0.623 -0.13 +0.00    +0.045 A 
DOCKED: ATOM     20  C   UNL d   1       6.676  15.157   4.701 -0.26 -0.01    +0.045 A 
DOCKED: ATOM     21  C   UNL d   1       6.156  15.811   5.745 -0.27 -0.01    +0.057 C 
DOCKED: ATOM     22  C   UNL d   1       7.989  13.721   3.505 -0.26 +0.00    -0.019 A 
DOCKED: ATOM     23  C   UNL d   1       7.091  14.432   2.574 -0.23 +0.00    +0.045 A 
DOCKED: ATOM     24  C   UNL d   1       7.738  14.153   4.763 -0.23 +0.00    -0.022 A 
DOCKED: ATOM     25  C   UNL d   1       6.192  14.859   0.311 -0.21 +0.00    +0.049 A 
DOCKED: ATOM     26  C   UNL d   1       5.008  15.549  -1.514 -0.16 -0.00    -0.018 A 
DOCKED: ATOM     27  C   UNL d   1       5.682  14.442  -0.911 -0.24 +0.00    +0.003 A 
DOCKED: ATOM     28  C   UNL d   1       7.059  14.232   1.247 -0.11 +0.00    +0.052 C 
DOCKED: ATOM     29  C   UNL d   1       8.375  13.726   6.042 -0.23 -0.00    +0.046 C 
DOCKED: ATOM     30  C   UNL d   1       4.334  15.562  -2.845 -0.13 -0.00    +0.046 C 
DOCKED: ATOM     31  H   UNL d   1       5.580  15.843   3.065 +0.06 -0.00    +0.166 HD
DOCKED: ATOM     32  H   UNL d   1       6.013  16.752   1.277 +0.04 +0.00    +0.166 HD
DOCKED: ENDROOT
DOCKED: BRANCH   7  33
DOCKED: ATOM     33  C   UNL d   1       2.514  20.248  -0.781 -0.03 +0.00    +0.141 C 
DOCKED: BRANCH  33  34
DOCKED: ATOM     34  C   UNL d   1       2.021  21.664  -0.915 -0.00 +0.01    +0.306 C 
DOCKED: ATOM     35  O   UNL d   1       2.382  22.477  -1.749 -0.00 -0.01    -0.251 OA
DOCKED: BRANCH  34  36
DOCKED: ATOM     36  O   UNL d   1       1.097  21.980   0.010 +0.00 -0.02    -0.481 OA
DOCKED: ATOM     37  H   UNL d   1       1.609  22.116   0.835 +0.02 +0.01    +0.295 HD
DOCKED: ENDBRANCH  34  36
DOCKED: ENDBRANCH  33  34
DOCKED: ENDBRANCH   7  33
DOCKED: BRANCH  27  38
DOCKED: ATOM     38  C   UNL d   1       5.838  13.148  -1.504 -0.28 +0.00    +0.017 C 
DOCKED: ATOM     39  C   UNL d   1       6.829  12.791  -2.334 -0.20 +0.02    +0.092 C 
DOCKED: BRANCH  39  40
DOCKED: ATOM     40  C   UNL d   1       6.884  11.424  -2.860 -0.13 +0.16    +0.330 C 
DOCKED: ATOM     41  O   UNL d   1       7.043  11.078  -4.015 -0.57 -0.25    -0.246 OA
DOCKED: BRANCH  40  42
DOCKED: ATOM     42  O   UNL d   1       6.739  10.539  -1.862 -0.09 -0.15    -0.477 OA
DOCKED: ATOM     43  H   UNL d   1       7.541  10.667  -1.316 -0.06 +0.11    +0.295 HD
DOCKED: ENDBRANCH  40  42
DOCKED: ENDBRANCH  39  40
DOCKED: ENDBRANCH  27  38
DOCKED: BRANCH   8  44
DOCKED: ATOM     44  C   UNL d   1       3.678  19.768   6.898 -0.06 +0.00    +0.141 C 
DOCKED: BRANCH  44  45
DOCKED: ATOM     45  C   UNL d   1       5.117  19.961   7.298 -0.01 +0.00    +0.306 C 
DOCKED: ATOM     46  O   UNL d   1       6.042  20.255   6.562 -0.01 -0.00    -0.251 OA
DOCKED: BRANCH  45  47
DOCKED: ATOM     47  O   UNL d   1       5.319  19.743   8.610 +0.00 +0.00    -0.481 OA
DOCKED: ATOM     48  H   UNL d   1       5.154  18.784   8.731 +0.03 -0.00    +0.295 HD
DOCKED: ENDBRANCH  45  47
DOCKED: ENDBRANCH  44  45
DOCKED: ENDBRANCH   8  44
DOCKED: BRANCH  22  49
DOCKED: ATOM     49  C   UNL d   1       9.010  12.705   3.082 -0.22 +0.00    +0.048 C 
DOCKED: BRANCH  49  50
DOCKED: ATOM     50  C   UNL d   1       9.799  13.169   1.857 -0.10 +0.01    +0.125 C 
DOCKED: BRANCH  50  51
DOCKED: ATOM     51  C   UNL d   1       9.616  12.217   0.710 -0.08 +0.04    +0.305 C 
DOCKED: ATOM     52  O   UNL d   1       8.597  12.003   0.077 -0.66 -0.10    -0.251 OA
DOCKED: BRANCH  51  53
DOCKED: ATOM     53  O   UNL d   1      10.754  11.555   0.417 -0.01 -0.04    -0.481 OA
DOCKED: ATOM     54  H   UNL d   1      11.465  12.164   0.707 +0.02 +0.02    +0.295 HD
DOCKED: ENDBRANCH  51  53
DOCKED: ENDBRANCH  50  51
DOCKED: ENDBRANCH  49  50
DOCKED: ENDBRANCH  22  49
DOCKED: TORSDOF 13
DOCKED: TER
DOCKED: ENDMDL
________________________________________________________________________________


	BEGINNING GENETIC ALGORITHM DOCKING 99 of 100
Run: 99 Seed: 1394862183 1608392078 [ Run 99 of 100 GA/GALS ]
Beginning LAMARCKIAN GENETIC ALGORITHM (LGA), with a maximum of 25000000 energy evaluations.

Final-Value: -11.079


	FINAL GENETIC ALGORITHM DOCKED STATE
	_______________________________________________


Detailed state:  trans -4.301 16.339 10.800 quatxyzw -0.122226 0.878527 -0.447826 -0.112705 center 0.153 0.018 -0.028 ntor 13 -115.4136 -67.0447 -109.3576 -7.9170 34.7271 113.7447 173.3587 149.1778 141.6684 17.5194 85.3656 148.3490 -25.8100
State:	 -4.301  16.339  10.800  -0.123  0.884 -0.451 -167.057   -115.41  -67.04 -109.36   -7.92   34.73  113.74  173.36  149.18  141.67   17.52   85.37  148.35  -25.81

DOCKED: MODEL       99
DOCKED: USER    Run = 99
DOCKED: USER    DPF = D:/Protein_go_brrr/autodock/final/mut_D99N/heme/dock.dpf
DOCKED: USER  
DOCKED: USER    Estimated Free Energy of Binding    =   -5.28 kcal/mol  [=(1)+(2)+(3)-(4)]
DOCKED: USER    Estimated Inhibition Constant, Ki   =  135.40 uM (micromolar)  [Temperature = 298.15 K]
DOCKED: USER    
DOCKED: USER    (1) Final Intermolecular Energy     =   -9.16 kcal/mol
DOCKED: USER        vdW + Hbond + desolv Energy     =   -8.76 kcal/mol
DOCKED: USER        Electrostatic Energy            =   -0.40 kcal/mol
DOCKED: USER    (2) Final Total Internal Energy     =   -1.92 kcal/mol
DOCKED: USER    (3) Torsional Free Energy           =   +3.88 kcal/mol
DOCKED: USER    (4) Unbound System's Energy  [=(2)] =   -1.92 kcal/mol
DOCKED: USER    
DOCKED: USER    
DOCKED: USER    NEWDPF move heme_opt.pdbqt
DOCKED: USER    NEWDPF about 0.153000 0.018000 -0.028000
DOCKED: USER    NEWDPF tran0 -4.301009 16.339223 10.799784
DOCKED: USER    NEWDPF quaternion0 -0.122226 0.878527 -0.447826 -0.112705
DOCKED: USER    NEWDPF axisangle0 -0.123009 0.884161 -0.450698 -167.057458
DOCKED: USER    NEWDPF quat0 -0.123009 0.884161 -0.450698 -167.057458
DOCKED: USER    NEWDPF dihe0 -115.41 -67.04 -109.36 -7.92 34.73 113.74 173.36 149.18 141.67 17.52 85.37 148.35 -25.81 
DOCKED: USER  keepresnum = 1 
DOCKED: USER  
DOCKED: REMARK  13 active torsions:
DOCKED: REMARK  status: ('A' for Active; 'I' for Inactive)
DOCKED: REMARK    1  A    between atoms: O_3  and  C_38 
DOCKED: REMARK    2  A    between atoms: O_4  and  C_40 
DOCKED: REMARK    3  A    between atoms: O_7  and  C_46 
DOCKED: REMARK    4  A    between atoms: O_9  and  C_48 
DOCKED: REMARK    5  A    between atoms: C_15  and  C_20 
DOCKED: REMARK    6  A    between atoms: C_16  and  C_23 
DOCKED: REMARK    7  A    between atoms: C_20  and  C_38 
DOCKED: REMARK    8  A    between atoms: C_23  and  C_40 
DOCKED: REMARK    9  A    between atoms: C_32  and  C_41 
DOCKED: REMARK   10  A    between atoms: C_37  and  C_45 
DOCKED: REMARK   11  A    between atoms: C_41  and  C_44 
DOCKED: REMARK   12  A    between atoms: C_44  and  C_46 
DOCKED: REMARK   13  A    between atoms: C_47  and  C_48 
DOCKED: USER                              x       y       z     vdW  Elec       q    Type
DOCKED: USER                           _______ _______ _______ _____ _____    ______ ____
DOCKED: ROOT
DOCKED: ATOM      1  O   UNL d   1       1.007  18.580   9.550 -0.09 -0.01    -0.289 OA
DOCKED: ATOM      2  O   UNL d   1      -1.725  15.619  15.887 -0.07 +0.03    -0.289 OA
DOCKED: ATOM      3  N   UNL d   1      -2.256  17.504   9.854 -0.11 +0.01    -0.247 NA
DOCKED: ATOM      4  N   UNL d   1      -2.311  16.243  12.544 -0.09 +0.05    -0.247 NA
DOCKED: ATOM      5  N   UNL d   1      -4.844  15.076  11.843 -0.08 +0.09    -0.354 N 
DOCKED: ATOM      6  N   UNL d   1      -4.769  16.372   9.048 -0.14 +0.02    -0.354 N 
DOCKED: ATOM      7  C   UNL d   1      -0.874  18.334   8.008 -0.23 +0.01    +0.084 A 
DOCKED: ATOM      8  C   UNL d   1      -0.684  17.038  14.185 -0.08 -0.01    +0.084 A 
DOCKED: ATOM      9  C   UNL d   1      -1.222  17.060  12.750 -0.09 -0.01    +0.058 A 
DOCKED: ATOM     10  C   UNL d   1      -2.222  17.802   8.502 -0.24 +0.00    +0.058 A 
DOCKED: ATOM     11  C   UNL d   1      -0.157  18.301   9.324 -0.12 +0.01    +0.193 A 
DOCKED: ATOM     12  C   UNL d   1      -1.108  17.804  10.368 -0.13 -0.00    +0.109 A 
DOCKED: ATOM     13  C   UNL d   1      -1.647  16.029  14.745 -0.14 -0.03    +0.193 A 
DOCKED: ATOM     14  C   UNL d   1      -0.190  17.360   7.046 -0.10 +0.00    +0.026 C 
DOCKED: ATOM     15  C   UNL d   1      -0.647  17.774  11.771 -0.10 -0.00    +0.055 C 
DOCKED: ATOM     16  C   UNL d   1      -0.906  18.377  14.895 -0.03 -0.00    +0.026 C 
DOCKED: ATOM     17  C   UNL d   1      -2.575  15.621  13.648 -0.18 -0.03    +0.109 A 
DOCKED: ATOM     18  C   UNL d   1      -3.291  17.729   7.687 -0.27 +0.00    +0.050 C 
DOCKED: ATOM     19  C   UNL d   1      -4.596  17.330   8.074 -0.24 +0.00    +0.045 A 
DOCKED: ATOM     20  C   UNL d   1      -4.590  14.404  13.011 -0.10 -0.02    +0.045 A 
DOCKED: ATOM     21  C   UNL d   1      -3.606  14.602  13.894 -0.28 -0.02    +0.057 C 
DOCKED: ATOM     22  C   UNL d   1      -6.449  13.507  12.032 -0.35 +0.00    -0.019 A 
DOCKED: ATOM     23  C   UNL d   1      -5.946  14.605  11.182 -0.28 -0.01    +0.045 A 
DOCKED: ATOM     24  C   UNL d   1      -5.642  13.394  13.114 -0.33 +0.01    -0.022 A 
DOCKED: ATOM     25  C   UNL d   1      -6.103  16.074   9.200 -0.26 -0.00    +0.049 A 
DOCKED: ATOM     26  C   UNL d   1      -5.851  17.691   7.609 -0.20 -0.00    -0.018 A 
DOCKED: ATOM     27  C   UNL d   1      -6.800  16.909   8.337 -0.20 -0.00    +0.003 A 
DOCKED: ATOM     28  C   UNL d   1      -6.520  15.003  10.036 -0.35 -0.01    +0.052 C 
DOCKED: ATOM     29  C   UNL d   1      -5.745  12.445  14.259 -0.35 -0.01    +0.046 C 
DOCKED: ATOM     30  C   UNL d   1      -6.153  18.701   6.554 -0.14 +0.01    +0.046 C 
DOCKED: ATOM     31  H   UNL d   1      -4.296  15.885  11.572 +0.05 -0.03    +0.166 HD
DOCKED: ATOM     32  H   UNL d   1      -4.003  15.930   9.541 +0.06 -0.02    +0.166 HD
DOCKED: ENDROOT
DOCKED: BRANCH   7  33
DOCKED: ATOM     33  C   UNL d   1      -0.897  19.759   7.443 -0.10 +0.01    +0.141 C 
DOCKED: BRANCH  33  34
DOCKED: ATOM     34  C   UNL d   1       0.396  20.138   6.775 -0.05 +0.02    +0.306 C 
DOCKED: ATOM     35  O   UNL d   1       0.681  19.958   5.603 -0.08 -0.02    -0.251 OA
DOCKED: BRANCH  34  36
DOCKED: ATOM     36  O   UNL d   1       1.263  20.727   7.618 +0.00 -0.01    -0.481 OA
DOCKED: ATOM     37  H   UNL d   1       1.447  20.044   8.298 +0.04 +0.01    +0.295 HD
DOCKED: ENDBRANCH  34  36
DOCKED: ENDBRANCH  33  34
DOCKED: ENDBRANCH   7  33
DOCKED: BRANCH  27  38
DOCKED: ATOM     38  C   UNL d   1      -8.220  16.957   8.158 -0.16 -0.00    +0.017 C 
DOCKED: ATOM     39  C   UNL d   1      -8.858  17.670   7.218 -0.14 -0.01    +0.092 C 
DOCKED: BRANCH  39  40
DOCKED: ATOM     40  C   UNL d   1     -10.319  17.619   7.129 -0.09 -0.15    +0.330 C 
DOCKED: ATOM     41  O   UNL d   1     -11.111  18.510   7.372 -0.05 +0.09    -0.246 OA
DOCKED: BRANCH  40  42
DOCKED: ATOM     42  O   UNL d   1     -10.715  16.406   6.714 -0.11 +0.39    -0.477 OA
DOCKED: ATOM     43  H   UNL d   1     -11.178  16.031   7.492 -0.44 -0.67    +0.295 HD
DOCKED: ENDBRANCH  40  42
DOCKED: ENDBRANCH  39  40
DOCKED: ENDBRANCH  27  38
DOCKED: BRANCH   8  44
DOCKED: ATOM     44  C   UNL d   1       0.763  16.561  14.341 -0.10 -0.02    +0.141 C 
DOCKED: BRANCH  44  45
DOCKED: ATOM     45  C   UNL d   1       1.162  15.528  13.321 -0.12 -0.05    +0.306 C 
DOCKED: ATOM     46  O   UNL d   1       2.151  15.553  12.610 -0.11 +0.02    -0.251 OA
DOCKED: BRANCH  45  47
DOCKED: ATOM     47  O   UNL d   1       0.271  14.524  13.229 -0.23 +0.10    -0.481 OA
DOCKED: ATOM     48  H   UNL d   1      -0.520  14.932  12.816 +0.12 -0.07    +0.295 HD
DOCKED: ENDBRANCH  45  47
DOCKED: ENDBRANCH  44  45
DOCKED: ENDBRANCH   8  44
DOCKED: BRANCH  22  49
DOCKED: ATOM     49  C   UNL d   1      -7.650  12.669  11.705 -0.51 -0.01    +0.048 C 
DOCKED: BRANCH  49  50
DOCKED: ATOM     50  C   UNL d   1      -8.826  12.974  12.631 -0.27 -0.03    +0.125 C 
DOCKED: BRANCH  50  51
DOCKED: ATOM     51  C   UNL d   1      -8.846  12.032  13.801 -0.25 -0.09    +0.305 C 
DOCKED: ATOM     52  O   UNL d   1      -9.153  12.285  14.953 -0.22 +0.08    -0.251 OA
DOCKED: BRANCH  51  53
DOCKED: ATOM     53  O   UNL d   1      -8.455  10.790  13.455 -0.30 +0.18    -0.481 OA
DOCKED: ATOM     54  H   UNL d   1      -8.378  10.317  14.310 -0.40 -0.19    +0.295 HD
DOCKED: ENDBRANCH  51  53
DOCKED: ENDBRANCH  50  51
DOCKED: ENDBRANCH  49  50
DOCKED: ENDBRANCH  22  49
DOCKED: TORSDOF 13
DOCKED: TER
DOCKED: ENDMDL
________________________________________________________________________________


	BEGINNING GENETIC ALGORITHM DOCKING 100 of 100
Run: 100 Seed: 1676582206 1944370022 [ Run 100 of 100 GA/GALS ]
Beginning LAMARCKIAN GENETIC ALGORITHM (LGA), with a maximum of 25000000 energy evaluations.

Final-Value: -11.594


	FINAL GENETIC ALGORITHM DOCKED STATE
	_______________________________________________


Detailed state:  trans 5.824 14.681 10.108 quatxyzw -0.834011 0.044847 0.306918 0.456306 center 0.153 0.018 -0.028 ntor 13 136.2191 -154.2744 99.3571 -38.0888 -131.9784 67.4898 -44.8687 -104.5380 31.1520 -124.1720 -83.5713 -102.4269 0.5730
State:	  5.824  14.681  10.108  -0.937  0.050  0.345 125.702    136.22 -154.27   99.36  -38.09 -131.98   67.49  -44.87 -104.54   31.15 -124.17  -83.57 -102.43    0.57

DOCKED: MODEL      100
DOCKED: USER    Run = 100
DOCKED: USER    DPF = D:/Protein_go_brrr/autodock/final/mut_D99N/heme/dock.dpf
DOCKED: USER  
DOCKED: USER    Estimated Free Energy of Binding    =   -2.98 kcal/mol  [=(1)+(2)+(3)-(4)]
DOCKED: USER    Estimated Inhibition Constant, Ki   =    6.55 mM (millimolar)  [Temperature = 298.15 K]
DOCKED: USER    
DOCKED: USER    (1) Final Intermolecular Energy     =   -6.86 kcal/mol
DOCKED: USER        vdW + Hbond + desolv Energy     =   -6.83 kcal/mol
DOCKED: USER        Electrostatic Energy            =   -0.03 kcal/mol
DOCKED: USER    (2) Final Total Internal Energy     =   -4.74 kcal/mol
DOCKED: USER    (3) Torsional Free Energy           =   +3.88 kcal/mol
DOCKED: USER    (4) Unbound System's Energy  [=(2)] =   -4.74 kcal/mol
DOCKED: USER    
DOCKED: USER    
DOCKED: USER    NEWDPF move heme_opt.pdbqt
DOCKED: USER    NEWDPF about 0.153000 0.018000 -0.028000
DOCKED: USER    NEWDPF tran0 5.823838 14.681344 10.108473
DOCKED: USER    NEWDPF quaternion0 -0.834011 0.044847 0.306918 0.456306
DOCKED: USER    NEWDPF axisangle0 -0.937278 0.050400 0.344920 125.701992
DOCKED: USER    NEWDPF quat0 -0.937278 0.050400 0.344920 125.701992
DOCKED: USER    NEWDPF dihe0 136.22 -154.27 99.36 -38.09 -131.98 67.49 -44.87 -104.54 31.15 -124.17 -83.57 -102.43 0.57 
DOCKED: USER  keepresnum = 1 
DOCKED: USER  
DOCKED: REMARK  13 active torsions:
DOCKED: REMARK  status: ('A' for Active; 'I' for Inactive)
DOCKED: REMARK    1  A    between atoms: O_3  and  C_38 
DOCKED: REMARK    2  A    between atoms: O_4  and  C_40 
DOCKED: REMARK    3  A    between atoms: O_7  and  C_46 
DOCKED: REMARK    4  A    between atoms: O_9  and  C_48 
DOCKED: REMARK    5  A    between atoms: C_15  and  C_20 
DOCKED: REMARK    6  A    between atoms: C_16  and  C_23 
DOCKED: REMARK    7  A    between atoms: C_20  and  C_38 
DOCKED: REMARK    8  A    between atoms: C_23  and  C_40 
DOCKED: REMARK    9  A    between atoms: C_32  and  C_41 
DOCKED: REMARK   10  A    between atoms: C_37  and  C_45 
DOCKED: REMARK   11  A    between atoms: C_41  and  C_44 
DOCKED: REMARK   12  A    between atoms: C_44  and  C_46 
DOCKED: REMARK   13  A    between atoms: C_47  and  C_48 
DOCKED: USER                              x       y       z     vdW  Elec       q    Type
DOCKED: USER                           _______ _______ _______ _____ _____    ______ ____
DOCKED: ROOT
DOCKED: ATOM      1  O   UNL d   1       1.281  15.218  13.827 -0.13 +0.06    -0.289 OA
DOCKED: ATOM      2  O   UNL d   1       3.556  19.591   8.162 -0.03 -0.00    -0.289 OA
DOCKED: ATOM      3  N   UNL d   1       4.122  14.562  11.985 -0.11 +0.03    -0.247 NA
DOCKED: ATOM      4  N   UNL d   1       4.030  16.610   9.835 -0.00 +0.00    -0.247 NA
DOCKED: ATOM      5  N   UNL d   1       6.069  15.122   8.458 -0.13 +0.05    -0.354 N 
DOCKED: ATOM      6  N   UNL d   1       6.143  12.991  10.684 -0.07 +0.09    -0.354 N 
DOCKED: ATOM      7  C   UNL d   1       2.890  13.380  13.744 -0.32 -0.01    +0.084 A 
DOCKED: ATOM      8  C   UNL d   1       2.827  18.682  10.315 -0.07 +0.00    +0.084 A 
DOCKED: ATOM      9  C   UNL d   1       3.235  17.269  10.745 -0.09 -0.00    +0.058 A 
DOCKED: ATOM     10  C   UNL d   1       4.068  13.420  12.766 -0.28 -0.01    +0.058 A 
DOCKED: ATOM     11  C   UNL d   1       2.298  14.711  13.390 -0.15 -0.03    +0.193 A 
DOCKED: ATOM     12  C   UNL d   1       3.149  15.340  12.331 -0.13 -0.01    +0.109 A 
DOCKED: ATOM     13  C   UNL d   1       3.507  18.689   8.975 -0.06 +0.00    +0.193 A 
DOCKED: ATOM     14  C   UNL d   1       1.885  12.281  13.389 -0.65 -0.00    +0.026 C 
DOCKED: ATOM     15  C   UNL d   1       2.810  16.707  11.887 -0.11 -0.00    +0.055 C 
DOCKED: ATOM     16  C   UNL d   1       3.472  19.754  11.199 -0.02 -0.00    +0.026 C 
DOCKED: ATOM     17  C   UNL d   1       4.194  17.373   8.802 +0.00 +0.00    +0.109 A 
DOCKED: ATOM     18  C   UNL d   1       5.005  12.453  12.756 -0.33 -0.00    +0.050 C 
DOCKED: ATOM     19  C   UNL d   1       6.171  12.447  11.948 -0.19 -0.00    +0.045 A 
DOCKED: ATOM     20  C   UNL d   1       5.729  16.018   7.477 -0.22 -0.00    +0.045 A 
DOCKED: ATOM     21  C   UNL d   1       4.913  17.074   7.554 -0.19 -0.00    +0.057 C 
DOCKED: ATOM     22  C   UNL d   1       7.177  14.482   6.604 -0.10 +0.00    -0.019 A 
DOCKED: ATOM     23  C   UNL d   1       6.939  14.157   8.024 -0.27 -0.01    +0.045 A 
DOCKED: ATOM     24  C   UNL d   1       6.459  15.586   6.286 -0.23 +0.00    -0.022 A 
DOCKED: ATOM     25  C   UNL d   1       7.348  12.797  10.048 -0.23 -0.01    +0.049 A 
DOCKED: ATOM     26  C   UNL d   1       7.437  11.919  12.153 -0.16 +0.00    -0.018 A 
DOCKED: ATOM     27  C   UNL d   1       8.181  12.160  10.957 -0.17 -0.00    +0.003 A 
DOCKED: ATOM     28  C   UNL d   1       7.510  13.133   8.676 -0.31 -0.01    +0.052 C 
DOCKED: ATOM     29  C   UNL d   1       6.379  16.303   4.982 -0.23 -0.00    +0.046 C 
DOCKED: ATOM     30  C   UNL d   1       7.927  11.234  13.383 -0.14 +0.00    +0.046 C 
DOCKED: ATOM     31  H   UNL d   1       5.752  15.242   9.414 +0.05 -0.02    +0.166 HD
DOCKED: ATOM     32  H   UNL d   1       5.325  13.432  10.281 -0.35 -0.07    +0.166 HD
DOCKED: ENDROOT
DOCKED: BRANCH   7  33
DOCKED: ATOM     33  C   UNL d   1       3.269  13.338  15.228 -0.14 -0.02    +0.141 C 
DOCKED: BRANCH  33  34
DOCKED: ATOM     34  C   UNL d   1       3.662  14.688  15.764 -0.14 -0.05    +0.306 C 
DOCKED: ATOM     35  O   UNL d   1       4.733  15.246  15.595 -0.07 +0.02    -0.251 OA
DOCKED: BRANCH  34  36
DOCKED: ATOM     36  O   UNL d   1       2.684  15.264  16.485 +0.02 +0.16    -0.481 OA
DOCKED: ATOM     37  H   UNL d   1       1.876  15.147  15.941 -0.42 -0.17    +0.295 HD
DOCKED: ENDBRANCH  34  36
DOCKED: ENDBRANCH  33  34
DOCKED: ENDBRANCH   7  33
DOCKED: BRANCH  27  38
DOCKED: ATOM     38  C   UNL d   1       9.538  11.761  10.735 -0.10 -0.00    +0.017 C 
DOCKED: ATOM     39  C   UNL d   1       9.941  10.856   9.831 -0.10 +0.00    +0.092 C 
DOCKED: BRANCH  39  40
DOCKED: ATOM     40  C   UNL d   1      11.367  10.548   9.691 -0.01 +0.01    +0.330 C 
DOCKED: ATOM     41  O   UNL d   1      12.098  10.022  10.508 -0.01 -0.01    -0.246 OA
DOCKED: BRANCH  40  42
DOCKED: ATOM     42  O   UNL d   1      11.805  10.928   8.480 +0.00 -0.02    -0.477 OA
DOCKED: ATOM     43  H   UNL d   1      11.190  11.645   8.223 +0.03 +0.01    +0.295 HD
DOCKED: ENDBRANCH  40  42
DOCKED: ENDBRANCH  39  40
DOCKED: ENDBRANCH  27  38
DOCKED: BRANCH   8  44
DOCKED: ATOM     44  C   UNL d   1       1.321  18.919  10.167 -0.08 +0.00    +0.141 C 
DOCKED: BRANCH  44  45
DOCKED: ATOM     45  C   UNL d   1       0.984  20.273   9.602 -0.02 +0.00    +0.306 C 
DOCKED: ATOM     46  O   UNL d   1       0.808  21.300  10.234 -0.01 +0.00    -0.251 OA
DOCKED: BRANCH  45  47
DOCKED: ATOM     47  O   UNL d   1       0.860  20.256   8.263 -0.00 -0.01    -0.481 OA
DOCKED: ATOM     48  H   UNL d   1       1.781  20.306   7.928 +0.04 +0.01    +0.295 HD
DOCKED: ENDBRANCH  45  47
DOCKED: ENDBRANCH  44  45
DOCKED: ENDBRANCH   8  44
DOCKED: BRANCH  22  49
DOCKED: ATOM     49  C   UNL d   1       8.063  13.684   5.694 -0.24 -0.01    +0.048 C 
DOCKED: BRANCH  49  50
DOCKED: ATOM     50  C   UNL d   1       9.534  14.073   5.848 -0.09 -0.00    +0.125 C 
DOCKED: BRANCH  50  51
DOCKED: ATOM     51  C   UNL d   1      10.245  13.125   6.771 -0.05 -0.00    +0.305 C 
DOCKED: ATOM     52  O   UNL d   1      10.675  13.358   7.887 -0.02 +0.00    -0.251 OA
DOCKED: BRANCH  51  53
DOCKED: ATOM     53  O   UNL d   1      10.394  11.903   6.223 -0.04 -0.01    -0.481 OA
DOCKED: ATOM     54  H   UNL d   1      11.286  11.619   6.511 +0.03 +0.01    +0.295 HD
DOCKED: ENDBRANCH  51  53
DOCKED: ENDBRANCH  50  51
DOCKED: ENDBRANCH  49  50
DOCKED: ENDBRANCH  22  49
DOCKED: TORSDOF 13
DOCKED: TER
DOCKED: ENDMDL
________________________________________________________________________________

DPF> analysis                             # perform a ranked cluster analysis


		CLUSTER ANALYSIS OF CONFORMATIONS
		_________________________________

Number of conformations = 100

RMSD cluster analysis will be performed using the ligand atoms only (54 / 54 total atoms).

Outputting structurally similar clusters, ranked in order of increasing energy.


________________________________________________________________________________

Number of distinct conformational clusters found = 57,  out of 100 runs,
Using an rmsd-tolerance of 2.0 A


	CLUSTERING HISTOGRAM
	____________________

________________________________________________________________________________
     |           |     |           |     |                                    
Clus | Lowest    | Run | Mean      | Num | Histogram                          
-ter | Binding   |     | Binding   | in  |                                    
Rank | Energy    |     | Energy    | Clus|    5    10   15   20   25   30   35
_____|___________|_____|___________|_____|____:____|____:____|____:____|____:___
   1 |     -7.71 |  45 |     -6.91 |   9 |#########
   2 |     -7.39 |  47 |     -6.48 |   6 |######
   3 |     -6.86 |  71 |     -6.58 |   2 |##
   4 |     -6.78 |  87 |     -6.09 |   4 |####
   5 |     -6.77 |  56 |     -4.92 |  12 |############
   6 |     -6.35 |  74 |     -5.91 |   3 |###
   7 |     -5.62 |  82 |     -5.62 |   1 |#
   8 |     -5.52 |  48 |     -5.52 |   1 |#
   9 |     -5.28 |  99 |     -5.28 |   1 |#
  10 |     -5.14 |  96 |     -5.14 |   1 |#
  11 |     -4.96 |  13 |     -4.96 |   1 |#
  12 |     -4.91 |  44 |     -4.91 |   1 |#
  13 |     -4.86 |  19 |     -4.86 |   1 |#
  14 |     -4.82 |  30 |     -4.82 |   1 |#
  15 |     -4.82 |  59 |     -4.82 |   1 |#
  16 |     -4.77 |   7 |     -4.77 |   1 |#
  17 |     -4.75 |  50 |     -4.32 |   2 |##
  18 |     -4.73 |  27 |     -4.31 |   2 |##
  19 |     -4.70 |  75 |     -4.70 |   1 |#
  20 |     -4.68 |  39 |     -4.55 |   2 |##
  21 |     -4.64 |  79 |     -4.64 |   1 |#
  22 |     -4.60 |  29 |     -4.60 |   1 |#
  23 |     -4.45 |  97 |     -4.02 |   2 |##
  24 |     -4.40 |   3 |     -3.99 |   2 |##
  25 |     -4.40 |   9 |     -4.40 |   1 |#
  26 |     -4.31 |   5 |     -4.31 |   1 |#
  27 |     -4.30 |  60 |     -4.30 |   1 |#
  28 |     -4.30 |  54 |     -4.30 |   1 |#
  29 |     -4.22 |  11 |     -4.22 |   1 |#
  30 |     -4.21 |  51 |     -3.66 |   2 |##
  31 |     -4.18 |   1 |     -4.18 |   1 |#
  32 |     -4.11 |  53 |     -4.00 |   2 |##
  33 |     -4.10 |  63 |     -4.10 |   1 |#
  34 |     -3.96 |  92 |     -3.96 |   1 |#
  35 |     -3.95 |  89 |     -3.67 |   3 |###
  36 |     -3.94 |   8 |     -3.94 |   1 |#
  37 |     -3.88 |   4 |     -3.88 |   1 |#
  38 |     -3.87 |  85 |     -3.87 |   1 |#
  39 |     -3.83 |  57 |     -3.83 |   1 |#
  40 |     -3.76 |  14 |     -3.76 |   1 |#
  41 |     -3.75 |  33 |     -3.75 |   1 |#
  42 |     -3.63 |  26 |     -3.63 |   1 |#
  43 |     -3.61 |  86 |     -3.61 |   1 |#
  44 |     -3.56 |  20 |     -3.56 |   1 |#
  45 |     -3.41 |   6 |     -3.41 |   1 |#
  46 |     -3.30 |  83 |     -3.30 |   1 |#
  47 |     -3.29 |  37 |     -3.29 |   1 |#
  48 |     -3.23 |  94 |     -3.23 |   1 |#
  49 |     -3.14 |  72 |     -3.14 |   1 |#
  50 |     -3.11 |  98 |     -2.97 |   2 |##
  51 |     -3.09 |  90 |     -3.05 |   3 |###
  52 |     -3.07 |  24 |     -3.07 |   1 |#
  53 |     -3.01 |  68 |     -3.01 |   1 |#
  54 |     -3.00 |  32 |     -3.00 |   1 |#
  55 |     -2.97 |  62 |     -2.93 |   2 |##
  56 |     -2.75 |  16 |     -2.75 |   1 |#
  57 |     -2.69 |  21 |     -2.69 |   1 |#
_____|___________|_____|___________|_____|______________________________________


Number of multi-member conformational clusters found = 17, out of 100 runs.

	RMSD TABLE
	__________

_____________________________________________________________________
     |      |      |           |         |                 |
Rank | Sub- | Run  | Binding   | Cluster | Reference       | Grep
     | Rank |      | Energy    | RMSD    | RMSD            | Pattern
_____|______|______|___________|_________|_________________|___________
   1      1     45       -7.71      0.00     14.48           RANKING
   1      2     34       -7.46      1.54     14.52           RANKING
   1      3     58       -7.23      1.08     14.39           RANKING
   1      4     18       -6.97      1.24     14.62           RANKING
   1      5     70       -6.96      1.19     14.67           RANKING
   1      6     55       -6.92      0.94     14.61           RANKING
   1      7     80       -6.63      0.92     14.50           RANKING
   1      8     31       -6.56      1.89     14.73           RANKING
   1      9     67       -5.77      1.51     14.98           RANKING
   2      1     47       -7.39      0.00     14.54           RANKING
   2      2     28       -6.52      1.20     14.28           RANKING
   2      3     84       -6.50      1.09     14.59           RANKING
   2      4     77       -6.17      1.64     14.53           RANKING
   2      5     38       -6.15      1.66     14.47           RANKING
   2      6     52       -6.14      1.76     14.50           RANKING
   3      1     71       -6.86      0.00     15.52           RANKING
   3      2     49       -6.30      1.82     16.07           RANKING
   4      1     87       -6.78      0.00     17.81           RANKING
   4      2     17       -6.28      1.13     17.86           RANKING
   4      3     65       -5.80      1.20     17.92           RANKING
   4      4     73       -5.49      1.47     18.06           RANKING
   5      1     56       -6.77      0.00     17.39           RANKING
   5      2     88       -5.69      1.80     16.88           RANKING
   5      3     22       -5.41      1.34     17.64           RANKING
   5      4     40       -5.37      1.22     17.82           RANKING
   5      5     25       -5.00      1.63     17.96           RANKING
   5      6     41       -5.00      1.20     17.47           RANKING
   5      7     76       -4.88      1.31     17.56           RANKING
   5      8     91       -4.63      1.99     16.84           RANKING
   5      9     64       -4.55      1.65     17.96           RANKING
   5     10     93       -3.99      1.55     17.81           RANKING
   5     11     78       -3.91      1.84     17.84           RANKING
   5     12     35       -3.83      1.69     17.88           RANKING
   6      1     74       -6.35      0.00     16.61           RANKING
   6      2     12       -5.86      1.21     16.58           RANKING
   6      3      2       -5.53      0.90     16.73           RANKING
   7      1     82       -5.62      0.00     12.42           RANKING
   8      1     48       -5.52      0.00     15.33           RANKING
   9      1     99       -5.28      0.00     17.04           RANKING
  10      1     96       -5.14      0.00     13.23           RANKING
  11      1     13       -4.96      0.00     13.61           RANKING
  12      1     44       -4.91      0.00     17.05           RANKING
  13      1     19       -4.86      0.00     15.44           RANKING
  14      1     30       -4.82      0.00     17.27           RANKING
  15      1     59       -4.82      0.00     17.66           RANKING
  16      1      7       -4.77      0.00     14.31           RANKING
  17      1     50       -4.75      0.00     17.64           RANKING
  17      2     10       -3.88      0.68     17.83           RANKING
  18      1     27       -4.73      0.00     13.91           RANKING
  18      2     69       -3.88      1.35     13.81           RANKING
  19      1     75       -4.70      0.00     15.32           RANKING
  20      1     39       -4.68      0.00     14.33           RANKING
  20      2     36       -4.43      0.93     14.47           RANKING
  21      1     79       -4.64      0.00     17.53           RANKING
  22      1     29       -4.60      0.00     12.49           RANKING
  23      1     97       -4.45      0.00     19.88           RANKING
  23      2     81       -3.59      0.91     20.11           RANKING
  24      1      3       -4.40      0.00     14.75           RANKING
  24      2     15       -3.58      1.32     14.90           RANKING
  25      1      9       -4.40      0.00     10.32           RANKING
  26      1      5       -4.31      0.00     13.49           RANKING
  27      1     60       -4.30      0.00     14.23           RANKING
  28      1     54       -4.30      0.00     14.67           RANKING
  29      1     11       -4.22      0.00     18.86           RANKING
  30      1     51       -4.21      0.00     16.44           RANKING
  30      2     42       -3.11      1.75     16.38           RANKING
  31      1      1       -4.18      0.00     13.27           RANKING
  32      1     53       -4.11      0.00     11.67           RANKING
  32      2     46       -3.89      1.08     11.37           RANKING
  33      1     63       -4.10      0.00     18.55           RANKING
  34      1     92       -3.96      0.00     15.69           RANKING
  35      1     89       -3.95      0.00     16.56           RANKING
  35      2     61       -3.70      1.65     16.46           RANKING
  35      3     23       -3.37      0.74     16.64           RANKING
  36      1      8       -3.94      0.00     12.33           RANKING
  37      1      4       -3.88      0.00     20.29           RANKING
  38      1     85       -3.87      0.00     14.18           RANKING
  39      1     57       -3.83      0.00     11.53           RANKING
  40      1     14       -3.76      0.00     14.44           RANKING
  41      1     33       -3.75      0.00     13.25           RANKING
  42      1     26       -3.63      0.00     12.79           RANKING
  43      1     86       -3.61      0.00     12.85           RANKING
  44      1     20       -3.56      0.00     20.97           RANKING
  45      1      6       -3.41      0.00     13.81           RANKING
  46      1     83       -3.30      0.00     13.68           RANKING
  47      1     37       -3.29      0.00     15.13           RANKING
  48      1     94       -3.23      0.00     13.37           RANKING
  49      1     72       -3.14      0.00     12.91           RANKING
  50      1     98       -3.11      0.00     14.30           RANKING
  50      2     43       -2.82      1.40     13.78           RANKING
  51      1     90       -3.09      0.00     15.96           RANKING
  51      2     66       -3.07      1.70     16.35           RANKING
  51      3    100       -2.98      1.68     16.33           RANKING
  52      1     24       -3.07      0.00     13.32           RANKING
  53      1     68       -3.01      0.00     20.01           RANKING
  54      1     32       -3.00      0.00     10.29           RANKING
  55      1     62       -2.97      0.00     16.62           RANKING
  55      2     95       -2.88      1.11     16.55           RANKING
  56      1     16       -2.75      0.00     14.77           RANKING
  57      1     21       -2.69      0.00     17.37           RANKING
_______________________________________________________________________



	INFORMATION ENTROPY ANALYSIS FOR THIS CLUSTERING
	________________________________________________


Information entropy for this clustering = 0.81  (rmstol = 2.00 Angstrom)

_______________________________________________________________________


	STATISTICAL MECHANICAL ANALYSIS
	_______________________________


Partition function, Q =   100.79            at Temperature, T = 298.15 K
Free energy,        A ~ -2733.16 kcal/mol   at Temperature, T = 298.15 K
Internal energy,    U =    -4.68 kcal/mol   at Temperature, T = 298.15 K
Entropy,            S =     9.15 kcal/mol/K at Temperature, T = 298.15 K

_______________________________________________________________________


	LOWEST ENERGY DOCKED CONFORMATION from EACH CLUSTER
	___________________________________________________



Keeping original residue number (specified in the input PDBQ file) for outputting.

MODEL       45
USER    Run = 45
USER    Cluster Rank = 1
USER    Number of conformations in this cluster = 9
USER  
USER    RMSD from reference structure       = 14.481 A
USER  
USER    Estimated Free Energy of Binding    =   -7.71 kcal/mol  [=(1)+(2)+(3)-(4)]
USER    Estimated Inhibition Constant, Ki   =    2.23 uM (micromolar)  [Temperature = 298.15 K]
USER    
USER    (1) Final Intermolecular Energy     =  -11.59 kcal/mol
USER        vdW + Hbond + desolv Energy     =  -10.61 kcal/mol
USER        Electrostatic Energy            =   -0.98 kcal/mol
USER    (2) Final Total Internal Energy     =   -1.82 kcal/mol
USER    (3) Torsional Free Energy           =   +3.88 kcal/mol
USER    (4) Unbound System's Energy  [=(2)] =   -1.82 kcal/mol
USER    
USER    
USER  
USER    DPF = D:/Protein_go_brrr/autodock/final/mut_D99N/heme/dock.dpf
USER    NEWDPF move	heme_opt.pdbqt
USER    NEWDPF about	0.153000 0.018000 -0.028000
USER    NEWDPF tran0	13.709046 -8.549864 8.298834
USER    NEWDPF axisangle0	0.172718 -0.361244 0.916336 177.571052
USER    NEWDPF quaternion0	0.172679 -0.361163 0.916130 0.021195
USER    NEWDPF dihe0	-157.44 68.45 -141.39 60.01 -137.63 180.00 128.25 -159.94 162.67 -15.14 67.58 21.01 122.72 
USER  
USER                              x       y       z    vdW   Elec        q     RMS 
ATOM      1  O   UNL d   1      19.050  -9.303   5.920 -0.54 -0.08    -0.289    14.481
ATOM      2  O   UNL d   1      16.098  -3.504   9.668 -0.15 +0.05    -0.289    14.481
ATOM      3  N   UNL d   1      15.783  -9.261   7.024 -0.18 +0.09    -0.247    14.481
ATOM      4  N   UNL d   1      15.633  -6.759   8.620 -0.16 +0.09    -0.247    14.481
ATOM      5  N   UNL d   1      13.133  -7.698   9.686 -0.12 +0.14    -0.354    14.481
ATOM      6  N   UNL d   1      13.306 -10.300   8.041 +0.11 +0.18    -0.354    14.481
ATOM      7  C   UNL d   1      17.229 -10.932   5.964 -0.22 -0.02    +0.084    14.481
ATOM      8  C   UNL d   1      17.195  -4.970   8.043 -0.17 -0.01    +0.084    14.481
ATOM      9  C   UNL d   1      16.711  -6.409   7.837 -0.23 -0.01    +0.058    14.481
ATOM     10  C   UNL d   1      15.865 -10.561   6.554 -0.25 -0.02    +0.058    14.481
ATOM     11  C   UNL d   1      17.897  -9.606   6.166 -0.21 -0.00    +0.193    14.481
ATOM     12  C   UNL d   1      16.910  -8.670   6.792 -0.26 -0.01    +0.109    14.481
ATOM     13  C   UNL d   1      16.216  -4.581   9.115 -0.11 -0.05    +0.193    14.481
ATOM     14  C   UNL d   1      17.953 -11.985   6.807 -0.09 -0.00    +0.026    14.481
ATOM     15  C   UNL d   1      17.318  -7.267   7.003 -0.20 -0.00    +0.055    14.481
ATOM     16  C   UNL d   1      16.941  -4.103   6.807 -0.32 -0.00    +0.026    14.481
ATOM     17  C   UNL d   1      15.331  -5.755   9.379 -0.12 -0.04    +0.109    14.481
ATOM     18  C   UNL d   1      14.828 -11.419   6.522 -0.27 -0.02    +0.050    14.481
ATOM     19  C   UNL d   1      13.511 -11.134   6.966 -0.15 -0.02    +0.045    14.481
ATOM     20  C   UNL d   1      13.346  -6.618  10.502 -0.22 -0.02    +0.045    14.481
ATOM     21  C   UNL d   1      14.296  -5.680  10.420 -0.25 -0.02    +0.057    14.481
ATOM     22  C   UNL d   1      11.529  -7.772  11.264 -0.16 +0.01    -0.019    14.481
ATOM     23  C   UNL d   1      12.058  -8.455  10.067 -0.21 -0.02    +0.045    14.481
ATOM     24  C   UNL d   1      12.295  -6.684  11.516 -0.15 +0.01    -0.022    14.481
ATOM     25  C   UNL d   1      11.968 -10.236   8.355 -0.11 -0.02    +0.049    14.481
ATOM     26  C   UNL d   1      12.273 -11.596   6.547 -0.28 +0.01    -0.018    14.481
ATOM     27  C   UNL d   1      11.301 -11.010   7.416 -0.28 -0.00    +0.003    14.481
ATOM     28  C   UNL d   1      11.525  -9.561   9.524 -0.22 -0.02    +0.052    14.481
ATOM     29  C   UNL d   1      12.154  -5.676  12.605 -0.12 -0.02    +0.046    14.481
ATOM     30  C   UNL d   1      12.006 -12.523   5.410 -0.13 -0.02    +0.046    14.481
ATOM     31  H   UNL d   1      13.687  -7.842   8.848 -0.18 -0.09    +0.166    14.481
ATOM     32  H   UNL d   1      14.055  -9.838   8.543 -0.07 -0.07    +0.166    14.481
ATOM     33  C   UNL d   1      17.221 -11.310   4.478 -0.30 -0.07    +0.141    14.481
ATOM     34  C   UNL d   1      18.293 -12.305   4.128 -0.14 -0.09    +0.306    14.481
ATOM     35  O   UNL d   1      19.459 -12.050   3.878 -0.21 -0.01    -0.251    14.481
ATOM     36  O   UNL d   1      17.840 -13.572   4.114 -0.05 +0.30    -0.481    14.481
ATOM     37  H   UNL d   1      16.868 -13.485   4.017 -0.33 -0.51    +0.295    14.481
ATOM     38  C   UNL d   1       9.888 -11.235   7.344 -0.35 -0.01    +0.017    14.481
ATOM     39  C   UNL d   1       8.960 -10.280   7.183 -0.46 -0.03    +0.092    14.481
ATOM     40  C   UNL d   1       7.543 -10.645   7.107 -0.30 -0.07    +0.330    14.481
ATOM     41  O   UNL d   1       6.587  -9.900   6.998 -0.88 -0.00    -0.246    14.481
ATOM     42  O   UNL d   1       7.406 -11.979   7.167 -0.26 +0.16    -0.477    14.481
ATOM     43  H   UNL d   1       7.092 -12.223   6.272 -0.39 -0.21    +0.295    14.481
ATOM     44  C   UNL d   1      18.638  -4.823   8.537 -0.06 -0.00    +0.141    14.481
ATOM     45  C   UNL d   1      18.854  -5.387   9.916 +0.00 -0.00    +0.306    14.481
ATOM     46  O   UNL d   1      19.083  -6.550  10.198 -0.00 -0.00    -0.251    14.481
ATOM     47  O   UNL d   1      18.742  -4.453  10.878 +0.01 +0.01    -0.481    14.481
ATOM     48  H   UNL d   1      18.011  -3.873  10.576 +0.04 -0.01    +0.295    14.481
ATOM     49  C   UNL d   1      10.344  -8.250  12.052 -0.15 -0.04    +0.048    14.481
ATOM     50  C   UNL d   1      10.326  -9.772  12.185 -0.07 -0.07    +0.125    14.481
ATOM     51  C   UNL d   1       9.186 -10.365  11.406 -0.08 -0.25    +0.305    14.481
ATOM     52  O   UNL d   1       8.746 -11.499  11.479 -0.06 +0.16    -0.251    14.481
ATOM     53  O   UNL d   1       8.652  -9.479  10.542 -0.21 +0.60    -0.481    14.481
ATOM     54  H   UNL d   1       7.716  -9.407  10.823 -0.31 -0.79    +0.295    14.481
TER
ENDMDL
MODEL       47
USER    Run = 47
USER    Cluster Rank = 2
USER    Number of conformations in this cluster = 6
USER  
USER    RMSD from reference structure       = 14.543 A
USER  
USER    Estimated Free Energy of Binding    =   -7.39 kcal/mol  [=(1)+(2)+(3)-(4)]
USER    Estimated Inhibition Constant, Ki   =    3.83 uM (micromolar)  [Temperature = 298.15 K]
USER    
USER    (1) Final Intermolecular Energy     =  -11.27 kcal/mol
USER        vdW + Hbond + desolv Energy     =  -10.40 kcal/mol
USER        Electrostatic Energy            =   -0.86 kcal/mol
USER    (2) Final Total Internal Energy     =   -2.61 kcal/mol
USER    (3) Torsional Free Energy           =   +3.88 kcal/mol
USER    (4) Unbound System's Energy  [=(2)] =   -2.61 kcal/mol
USER    
USER    
USER  
USER    DPF = D:/Protein_go_brrr/autodock/final/mut_D99N/heme/dock.dpf
USER    NEWDPF move	heme_opt.pdbqt
USER    NEWDPF about	0.153000 0.018000 -0.028000
USER    NEWDPF tran0	13.342341 -10.795534 7.672713
USER    NEWDPF axisangle0	-0.936608 0.285257 0.203458 -159.378837
USER    NEWDPF quaternion0	-0.921483 0.280650 0.200172 -0.178984
USER    NEWDPF dihe0	88.38 167.02 38.09 -54.72 -132.89 129.42 -179.82 68.40 46.48 146.37 -56.39 -170.00 15.07 
USER  
USER                              x       y       z    vdW   Elec        q     RMS 
ATOM      1  O   UNL d   1       7.896  -9.324   9.384 -0.52 +0.31    -0.289    14.543
ATOM      2  O   UNL d   1      14.594  -6.538  11.325 -0.04 +0.06    -0.289    14.543
ATOM      3  N   UNL d   1      10.869 -10.615   8.206 -0.16 +0.08    -0.247    14.543
ATOM      4  N   UNL d   1      12.901  -8.717   9.253 -0.08 +0.11    -0.247    14.543
ATOM      5  N   UNL d   1      14.802  -9.902   7.450 +0.06 +0.17    -0.354    14.543
ATOM      6  N   UNL d   1      12.683 -11.854   6.356 -0.13 +0.15    -0.354    14.543
ATOM      7  C   UNL d   1       8.499 -11.028   7.740 -0.32 -0.03    +0.084    14.543
ATOM      8  C   UNL d   1      12.338  -7.486  11.287 -0.11 -0.03    +0.084    14.543
ATOM      9  C   UNL d   1      11.913  -8.449  10.174 -0.20 -0.02    +0.058    14.543
ATOM     10  C   UNL d   1       9.969 -11.352   7.455 -0.26 -0.02    +0.058    14.543
ATOM     11  C   UNL d   1       8.728  -9.992   8.798 -0.11 -0.09    +0.193    14.543
ATOM     12  C   UNL d   1      10.204  -9.850   9.009 -0.19 -0.04    +0.109    14.543
ATOM     13  C   UNL d   1      13.738  -7.228  10.807 -0.08 -0.06    +0.193    14.543
ATOM     14  C   UNL d   1       7.813 -10.369   6.541 -0.59 -0.01    +0.026    14.543
ATOM     15  C   UNL d   1      10.670  -8.945  10.078 -0.23 -0.03    +0.055    14.543
ATOM     16  C   UNL d   1      12.405  -8.185  12.648 -0.04 -0.01    +0.026    14.543
ATOM     17  C   UNL d   1      13.952  -8.027   9.563 -0.15 -0.04    +0.109    14.543
ATOM     18  C   UNL d   1      10.320 -12.337   6.608 -0.29 -0.01    +0.050    14.543
ATOM     19  C   UNL d   1      11.648 -12.762   6.347 -0.22 -0.01    +0.045    14.543
ATOM     20  C   UNL d   1      15.526  -8.819   7.878 -0.18 -0.02    +0.045    14.543
ATOM     21  C   UNL d   1      15.229  -7.939   8.840 -0.21 -0.02    +0.057    14.543
ATOM     22  C   UNL d   1      16.674  -9.858   6.198 -0.30 +0.00    -0.019    14.543
ATOM     23  C   UNL d   1      15.414 -10.590   6.437 -0.27 -0.02    +0.045    14.543
ATOM     24  C   UNL d   1      16.735  -8.811   7.055 -0.27 +0.00    -0.022    14.543
ATOM     25  C   UNL d   1      13.862 -12.461   5.990 -0.22 -0.03    +0.049    14.543
ATOM     26  C   UNL d   1      12.174 -13.998   6.002 -0.20 +0.00    -0.018    14.543
ATOM     27  C   UNL d   1      13.575 -13.806   5.798 -0.17 -0.00    +0.003    14.543
ATOM     28  C   UNL d   1      15.040 -11.696   5.775 -0.30 -0.04    +0.052    14.543
ATOM     29  C   UNL d   1      17.811  -7.791   7.206 -0.24 +0.00    +0.046    14.543
ATOM     30  C   UNL d   1      11.424 -15.280   5.873 -0.18 -0.00    +0.046    14.543
ATOM     31  H   UNL d   1      13.945 -10.178   7.916 -0.20 -0.08    +0.166    14.543
ATOM     32  H   UNL d   1      12.563 -10.870   6.565 -0.07 -0.08    +0.166    14.543
ATOM     33  C   UNL d   1       7.666 -12.189   8.295 -0.25 -0.05    +0.141    14.543
ATOM     34  C   UNL d   1       7.604 -12.190   9.798 -0.10 -0.14    +0.306    14.543
ATOM     35  O   UNL d   1       8.475 -12.584  10.555 -0.04 +0.10    -0.251    14.543
ATOM     36  O   UNL d   1       6.447 -11.691  10.269 -0.48 +0.33    -0.481    14.543
ATOM     37  H   UNL d   1       6.637 -10.744  10.436 -0.42 -0.54    +0.295    14.543
ATOM     38  C   UNL d   1      14.500 -14.828   5.411 -0.06 -0.01    +0.017    14.543
ATOM     39  C   UNL d   1      14.306 -15.716   4.424 -0.12 -0.04    +0.092    14.543
ATOM     40  C   UNL d   1      15.343 -16.704   4.116 -0.09 -0.05    +0.330    14.543
ATOM     41  O   UNL d   1      15.218 -17.911   4.034 -0.04 -0.01    -0.246    14.543
ATOM     42  O   UNL d   1      16.519 -16.091   3.914 -0.06 +0.20    -0.477    14.543
ATOM     43  H   UNL d   1      16.279 -15.146   3.825 -0.10 -0.34    +0.295    14.543
ATOM     44  C   UNL d   1      11.538  -6.182  11.373 -0.22 -0.07    +0.141    14.543
ATOM     45  C   UNL d   1      10.430  -6.230  12.391 -0.10 -0.22    +0.306    14.543
ATOM     46  O   UNL d   1      10.145  -5.361  13.196 -0.08 +0.15    -0.251    14.543
ATOM     47  O   UNL d   1       9.752  -7.391  12.359 -0.07 +0.54    -0.481    14.543
ATOM     48  H   UNL d   1       8.820  -7.139  12.529 -0.44 -0.65    +0.295    14.543
ATOM     49  C   UNL d   1      17.683 -10.236   5.154 -0.37 -0.01    +0.048    14.543
ATOM     50  C   UNL d   1      18.382 -11.553   5.489 -0.21 -0.01    +0.125    14.543
ATOM     51  C   UNL d   1      18.240 -12.537   4.363 -0.13 -0.10    +0.305    14.543
ATOM     52  O   UNL d   1      18.656 -12.427   3.223 -0.20 +0.05    -0.251    14.543
ATOM     53  O   UNL d   1      17.554 -13.636   4.736 -0.04 +0.31    -0.481    14.543
ATOM     54  H   UNL d   1      16.823 -13.692   4.086 -0.29 -0.50    +0.295    14.543
TER
ENDMDL
MODEL       71
USER    Run = 71
USER    Cluster Rank = 3
USER    Number of conformations in this cluster = 2
USER  
USER    RMSD from reference structure       = 15.523 A
USER  
USER    Estimated Free Energy of Binding    =   -6.86 kcal/mol  [=(1)+(2)+(3)-(4)]
USER    Estimated Inhibition Constant, Ki   =    9.31 uM (micromolar)  [Temperature = 298.15 K]
USER    
USER    (1) Final Intermolecular Energy     =  -10.74 kcal/mol
USER        vdW + Hbond + desolv Energy     =  -10.16 kcal/mol
USER        Electrostatic Energy            =   -0.59 kcal/mol
USER    (2) Final Total Internal Energy     =   -1.08 kcal/mol
USER    (3) Torsional Free Energy           =   +3.88 kcal/mol
USER    (4) Unbound System's Energy  [=(2)] =   -1.08 kcal/mol
USER    
USER    
USER  
USER    DPF = D:/Protein_go_brrr/autodock/final/mut_D99N/heme/dock.dpf
USER    NEWDPF move	heme_opt.pdbqt
USER    NEWDPF about	0.153000 0.018000 -0.028000
USER    NEWDPF tran0	-16.754708 9.949396 2.265570
USER    NEWDPF axisangle0	0.293438 -0.164001 -0.941806 -165.499613
USER    NEWDPF quaternion0	0.291092 -0.162689 -0.934276 -0.126202
USER    NEWDPF dihe0	126.15 78.24 110.83 21.51 47.52 55.20 160.38 34.37 177.56 149.64 116.92 -108.65 18.30 
USER  
USER                              x       y       z    vdW   Elec        q     RMS 
ATOM      1  O   UNL d   1     -12.414  10.408   6.229 -0.31 +0.09    -0.289    15.523
ATOM      2  O   UNL d   1     -14.393  14.899   0.545 -0.12 +0.01    -0.289    15.523
ATOM      3  N   UNL d   1     -14.983   9.650   4.056 -0.10 +0.03    -0.247    15.523
ATOM      4  N   UNL d   1     -15.210  12.097   2.386 -0.14 +0.04    -0.247    15.523
ATOM      5  N   UNL d   1     -17.735  11.103   1.436 +0.04 +0.09    -0.354    15.523
ATOM      6  N   UNL d   1     -17.501   8.576   3.186 -0.09 +0.02    -0.354    15.523
ATOM      7  C   UNL d   1     -14.104   8.646   6.112 -0.16 -0.01    +0.084    15.523
ATOM      8  C   UNL d   1     -13.206  13.473   2.142 -0.22 -0.01    +0.084    15.523
ATOM      9  C   UNL d   1     -13.907  12.277   2.793 -0.23 -0.01    +0.058    15.523
ATOM     10  C   UNL d   1     -15.127   8.621   4.972 -0.11 -0.00    +0.058    15.523
ATOM     11  C   UNL d   1     -13.346   9.860   5.668 -0.19 -0.04    +0.193    15.523
ATOM     12  C   UNL d   1     -13.959  10.361   4.397 -0.19 -0.02    +0.109    15.523
ATOM     13  C   UNL d   1     -14.364  13.961   1.318 -0.15 -0.02    +0.193    15.523
ATOM     14  C   UNL d   1     -14.759   8.938   7.465 -0.18 -0.00    +0.026    15.523
ATOM     15  C   UNL d   1     -13.316  11.505   3.719 -0.32 -0.01    +0.055    15.523
ATOM     16  C   UNL d   1     -12.083  13.029   1.199 -0.21 -0.00    +0.026    15.523
ATOM     17  C   UNL d   1     -15.519  13.045   1.561 -0.19 -0.01    +0.109    15.523
ATOM     18  C   UNL d   1     -16.018   7.620   4.849 -0.10 -0.00    +0.050    15.523
ATOM     19  C   UNL d   1     -16.944   7.469   3.785 -0.11 +0.00    +0.045    15.523
ATOM     20  C   UNL d   1     -17.775  12.374   0.924 -0.19 -0.01    +0.045    15.523
ATOM     21  C   UNL d   1     -16.814  13.304   0.915 -0.15 -0.01    +0.057    15.523
ATOM     22  C   UNL d   1     -19.795  11.370   0.564 -0.16 -0.00    -0.019    15.523
ATOM     23  C   UNL d   1     -18.909  10.419   1.267 -0.12 -0.00    +0.045    15.523
ATOM     24  C   UNL d   1     -19.117  12.524   0.363 -0.16 +0.00    -0.022    15.523
ATOM     25  C   UNL d   1     -18.433   8.200   2.247 -0.21 +0.00    +0.049    15.523
ATOM     26  C   UNL d   1     -17.500   6.345   3.194 -0.17 -0.00    -0.018    15.523
ATOM     27  C   UNL d   1     -18.425   6.813   2.210 -0.25 +0.00    +0.003    15.523
ATOM     28  C   UNL d   1     -19.254   9.168   1.607 -0.20 +0.00    +0.052    15.523
ATOM     29  C   UNL d   1     -19.578  13.772  -0.311 -0.11 +0.00    +0.046    15.523
ATOM     30  C   UNL d   1     -17.192   4.923   3.519 -0.16 +0.01    +0.046    15.523
ATOM     31  H   UNL d   1     -16.879  10.717   1.820 -0.34 -0.06    +0.166    15.523
ATOM     32  H   UNL d   1     -17.273   9.528   3.446 +0.03 -0.01    +0.166    15.523
ATOM     33  C   UNL d   1     -13.175   7.429   6.188 -0.20 -0.02    +0.141    15.523
ATOM     34  C   UNL d   1     -13.029   6.899   7.588 -0.23 -0.01    +0.306    15.523
ATOM     35  O   UNL d   1     -13.588   5.919   8.050 -0.19 -0.04    -0.251    15.523
ATOM     36  O   UNL d   1     -12.181   7.631   8.333 -0.51 +0.03    -0.481    15.523
ATOM     37  H   UNL d   1     -11.342   7.629   7.826 -0.30 -0.09    +0.295    15.523
ATOM     38  C   UNL d   1     -19.233   5.977   1.374 -0.23 +0.00    +0.017    15.523
ATOM     39  C   UNL d   1     -20.560   5.814   1.493 -0.16 +0.03    +0.092    15.523
ATOM     40  C   UNL d   1     -21.275   4.940   0.559 -0.09 +0.16    +0.330    15.523
ATOM     41  O   UNL d   1     -21.025   3.782   0.285 -0.12 -0.09    -0.246    15.523
ATOM     42  O   UNL d   1     -22.307   5.599   0.009 -0.09 -0.40    -0.477    15.523
ATOM     43  H   UNL d   1     -23.086   5.267   0.501 +0.03 +0.17    +0.295    15.523
ATOM     44  C   UNL d   1     -12.722  14.561   3.107 -0.14 -0.02    +0.141    15.523
ATOM     45  C   UNL d   1     -11.251  14.471   3.414 -0.23 +0.00    +0.306    15.523
ATOM     46  O   UNL d   1     -10.400  15.299   3.140 -0.27 -0.08    -0.251    15.523
ATOM     47  O   UNL d   1     -10.923  13.321   4.030 -0.23 +0.08    -0.481    15.523
ATOM     48  H   UNL d   1     -11.315  13.399   4.926 -0.17 -0.17    +0.295    15.523
ATOM     49  C   UNL d   1     -21.212  11.069   0.173 -0.10 +0.01    +0.048    15.523
ATOM     50  C   UNL d   1     -21.289   9.956  -0.872 -0.19 +0.07    +0.125    15.523
ATOM     51  C   UNL d   1     -20.593  10.362  -2.140 -0.18 +0.11    +0.305    15.523
ATOM     52  O   UNL d   1     -19.663  11.139  -2.262 -0.42 -0.01    -0.251    15.523
ATOM     53  O   UNL d   1     -21.127   9.761  -3.223 -0.53 -0.41    -0.481    15.523
ATOM     54  H   UNL d   1     -20.418   9.812  -3.897 -0.34 +0.04    +0.295    15.523
TER
ENDMDL
MODEL       87
USER    Run = 87
USER    Cluster Rank = 4
USER    Number of conformations in this cluster = 4
USER  
USER    RMSD from reference structure       = 17.807 A
USER  
USER    Estimated Free Energy of Binding    =   -6.78 kcal/mol  [=(1)+(2)+(3)-(4)]
USER    Estimated Inhibition Constant, Ki   =   10.64 uM (micromolar)  [Temperature = 298.15 K]
USER    
USER    (1) Final Intermolecular Energy     =  -10.66 kcal/mol
USER        vdW + Hbond + desolv Energy     =   -9.54 kcal/mol
USER        Electrostatic Energy            =   -1.12 kcal/mol
USER    (2) Final Total Internal Energy     =   -1.04 kcal/mol
USER    (3) Torsional Free Energy           =   +3.88 kcal/mol
USER    (4) Unbound System's Energy  [=(2)] =   -1.04 kcal/mol
USER    
USER    
USER  
USER    DPF = D:/Protein_go_brrr/autodock/final/mut_D99N/heme/dock.dpf
USER    NEWDPF move	heme_opt.pdbqt
USER    NEWDPF about	0.153000 0.018000 -0.028000
USER    NEWDPF tran0	-11.017735 12.815402 -13.260282
USER    NEWDPF axisangle0	-0.441197 0.527332 0.726131 -155.742956
USER    NEWDPF quaternion0	-0.431349 0.515561 0.709923 -0.210105
USER    NEWDPF dihe0	-99.31 174.05 -9.82 -179.68 -139.93 -26.83 -41.31 -59.14 -177.38 122.44 97.55 61.81 10.16 
USER  
USER                              x       y       z    vdW   Elec        q     RMS 
ATOM      1  O   UNL d   1      -9.502  13.587  -7.616 -0.19 +0.00    -0.289    17.807
ATOM      2  O   UNL d   1      -5.358  13.604 -13.878 -0.07 +0.02    -0.289    17.807
ATOM      3  N   UNL d   1     -10.827  12.946 -10.734 -0.19 +0.07    -0.247    17.807
ATOM      4  N   UNL d   1      -8.547  13.468 -12.566 -0.16 +0.07    -0.247    17.807
ATOM      5  N   UNL d   1     -10.417  13.445 -14.751 -0.09 +0.19    -0.354    17.807
ATOM      6  N   UNL d   1     -12.779  12.923 -12.841 -0.04 +0.20    -0.354    17.807
ATOM      7  C   UNL d   1     -11.759  13.239  -8.486 -0.20 -0.01    +0.084    17.807
ATOM      8  C   UNL d   1      -6.296  13.203 -11.653 -0.17 -0.01    +0.084    17.807
ATOM      9  C   UNL d   1      -7.811  13.225 -11.428 -0.25 -0.01    +0.058    17.807
ATOM     10  C   UNL d   1     -11.987  12.976  -9.978 -0.25 -0.01    +0.058    17.807
ATOM     11  C   UNL d   1     -10.264  13.335  -8.531 -0.07 -0.01    +0.193    17.807
ATOM     12  C   UNL d   1      -9.818  13.114  -9.943 -0.14 -0.01    +0.109    17.807
ATOM     13  C   UNL d   1      -6.306  13.517 -13.123 -0.06 -0.02    +0.193    17.807
ATOM     14  C   UNL d   1     -12.329  14.591  -8.048 -0.13 -0.00    +0.026    17.807
ATOM     15  C   UNL d   1      -8.367  13.071 -10.217 -0.32 -0.00    +0.055    17.807
ATOM     16  C   UNL d   1      -5.712  11.802 -11.453 -0.32 -0.00    +0.026    17.807
ATOM     17  C   UNL d   1      -7.730  13.661 -13.552 -0.14 -0.02    +0.109    17.807
ATOM     18  C   UNL d   1     -13.213  12.709 -10.465 -0.26 -0.02    +0.050    17.807
ATOM     19  C   UNL d   1     -13.508  12.372 -11.811 -0.22 -0.02    +0.045    17.807
ATOM     20  C   UNL d   1      -9.301  13.907 -15.400 -0.17 -0.01    +0.045    17.807
ATOM     21  C   UNL d   1      -8.050  14.014 -14.943 -0.13 -0.01    +0.057    17.807
ATOM     22  C   UNL d   1     -11.084  14.020 -16.824 -0.13 +0.01    -0.019    17.807
ATOM     23  C   UNL d   1     -11.542  13.475 -15.530 -0.19 -0.03    +0.045    17.807
ATOM     24  C   UNL d   1      -9.756  14.272 -16.741 -0.12 +0.01    -0.022    17.807
ATOM     25  C   UNL d   1     -13.290  12.532 -14.057 -0.17 -0.04    +0.049    17.807
ATOM     26  C   UNL d   1     -14.493  11.574 -12.371 -0.24 +0.01    -0.018    17.807
ATOM     27  C   UNL d   1     -14.338  11.663 -13.789 -0.25 -0.00    +0.003    17.807
ATOM     28  C   UNL d   1     -12.803  13.097 -15.267 -0.19 -0.04    +0.052    17.807
ATOM     29  C   UNL d   1      -8.843  14.814 -17.787 -0.05 -0.01    +0.046    17.807
ATOM     30  C   UNL d   1     -15.515  10.774 -11.637 -0.23 -0.03    +0.046    17.807
ATOM     31  H   UNL d   1     -10.357  13.054 -13.817 -0.53 -0.14    +0.166    17.807
ATOM     32  H   UNL d   1     -12.004  13.560 -12.701 -0.09 -0.08    +0.166    17.807
ATOM     33  C   UNL d   1     -12.198  12.112  -7.546 -0.23 -0.02    +0.141    17.807
ATOM     34  C   UNL d   1     -13.069  12.603  -6.421 -0.23 -0.03    +0.306    17.807
ATOM     35  O   UNL d   1     -12.684  13.056  -5.357 -0.44 -0.00    -0.251    17.807
ATOM     36  O   UNL d   1     -14.381  12.499  -6.698 -0.59 +0.07    -0.481    17.807
ATOM     37  H   UNL d   1     -14.589  11.550  -6.558 -0.19 -0.13    +0.295    17.807
ATOM     38  C   UNL d   1     -15.165  11.001 -14.753 -0.20 -0.01    +0.017    17.807
ATOM     39  C   UNL d   1     -15.035   9.722 -15.136 -0.07 -0.11    +0.092    17.807
ATOM     40  C   UNL d   1     -15.960   9.158 -16.123 -0.06 -0.29    +0.330    17.807
ATOM     41  O   UNL d   1     -17.115   9.481 -16.329 -0.02 +0.12    -0.246    17.807
ATOM     42  O   UNL d   1     -15.353   8.190 -16.825 -0.04 +0.55    -0.477    17.807
ATOM     43  H   UNL d   1     -14.423   8.225 -16.519 -0.44 -0.77    +0.295    17.807
ATOM     44  C   UNL d   1      -5.498  14.253 -10.874 -0.09 -0.00    +0.141    17.807
ATOM     45  C   UNL d   1      -5.398  13.952  -9.402 -0.14 -0.00    +0.306    17.807
ATOM     46  O   UNL d   1      -6.210  14.246  -8.543 -0.20 -0.00    -0.251    17.807
ATOM     47  O   UNL d   1      -4.257  13.314  -9.084 -0.13 +0.03    -0.481    17.807
ATOM     48  H   UNL d   1      -4.228  13.332  -8.103 -0.10 -0.05    +0.295    17.807
ATOM     49  C   UNL d   1     -11.981  14.254 -18.004 -0.07 -0.02    +0.048    17.807
ATOM     50  C   UNL d   1     -12.386  12.944 -18.679 -0.02 -0.11    +0.125    17.807
ATOM     51  C   UNL d   1     -11.307  12.461 -19.606 -0.05 -0.19    +0.305    17.807
ATOM     52  O   UNL d   1     -10.912  12.994 -20.628 -0.02 +0.07    -0.251    17.807
ATOM     53  O   UNL d   1     -10.774  11.294 -19.195 -0.06 +0.46    -0.481    17.807
ATOM     54  H   UNL d   1     -11.263  11.085 -18.371 -0.39 -0.70    +0.295    17.807
TER
ENDMDL
MODEL       56
USER    Run = 56
USER    Cluster Rank = 5
USER    Number of conformations in this cluster = 12
USER  
USER    RMSD from reference structure       = 17.385 A
USER  
USER    Estimated Free Energy of Binding    =   -6.77 kcal/mol  [=(1)+(2)+(3)-(4)]
USER    Estimated Inhibition Constant, Ki   =   10.94 uM (micromolar)  [Temperature = 298.15 K]
USER    
USER    (1) Final Intermolecular Energy     =  -10.65 kcal/mol
USER        vdW + Hbond + desolv Energy     =   -9.91 kcal/mol
USER        Electrostatic Energy            =   -0.74 kcal/mol
USER    (2) Final Total Internal Energy     =   -0.97 kcal/mol
USER    (3) Torsional Free Energy           =   +3.88 kcal/mol
USER    (4) Unbound System's Energy  [=(2)] =   -0.97 kcal/mol
USER    
USER    
USER  
USER    DPF = D:/Protein_go_brrr/autodock/final/mut_D99N/heme/dock.dpf
USER    NEWDPF move	heme_opt.pdbqt
USER    NEWDPF about	0.153000 0.018000 -0.028000
USER    NEWDPF tran0	-10.868241 13.281039 -12.026041
USER    NEWDPF axisangle0	-0.831054 0.296963 -0.470280 101.430126
USER    NEWDPF quaternion0	-0.643241 0.229851 -0.364000 0.633177
USER    NEWDPF dihe0	30.86 -55.94 -140.88 27.95 179.98 -128.60 -60.22 145.00 -146.30 -55.29 29.47 -93.01 32.18 
USER  
USER                              x       y       z    vdW   Elec        q     RMS 
ATOM      1  O   UNL d   1     -15.563  11.561 -15.150 -0.07 +0.19    -0.289    17.385
ATOM      2  O   UNL d   1      -9.153  14.841 -17.286 -0.03 +0.05    -0.289    17.385
ATOM      3  N   UNL d   1     -13.120  12.522 -12.913 -0.12 +0.15    -0.247    17.385
ATOM      4  N   UNL d   1     -10.897  13.417 -14.670 -0.07 +0.15    -0.247    17.385
ATOM      5  N   UNL d   1      -9.178  13.365 -12.367 -0.07 +0.13    -0.354    17.385
ATOM      6  N   UNL d   1     -11.485  12.419 -10.554 -0.14 +0.10    -0.354    17.385
ATOM      7  C   UNL d   1     -15.229  11.284 -12.745 -0.16 -0.05    +0.084    17.385
ATOM      8  C   UNL d   1     -11.490  14.222 -16.900 -0.09 -0.04    +0.084    17.385
ATOM      9  C   UNL d   1     -11.921  13.582 -15.576 -0.17 -0.04    +0.058    17.385
ATOM     10  C   UNL d   1     -13.983  11.855 -12.060 -0.24 -0.03    +0.058    17.385
ATOM     11  C   UNL d   1     -14.926  11.763 -14.133 -0.13 -0.12    +0.193    17.385
ATOM     12  C   UNL d   1     -13.635  12.521 -14.099 -0.18 -0.07    +0.109    17.385
ATOM     13  C   UNL d   1     -10.026  14.356 -16.592 -0.08 -0.06    +0.193    17.385
ATOM     14  C   UNL d   1     -15.237   9.753 -12.739 -0.19 -0.02    +0.026    17.385
ATOM     15  C   UNL d   1     -13.178  13.171 -15.344 -0.17 -0.04    +0.055    17.385
ATOM     16  C   UNL d   1     -12.087  15.622 -17.074 -0.02 -0.01    +0.026    17.385
ATOM     17  C   UNL d   1      -9.796  13.825 -15.214 -0.18 -0.04    +0.109    17.385
ATOM     18  C   UNL d   1     -13.816  11.777 -10.726 -0.25 -0.02    +0.050    17.385
ATOM     19  C   UNL d   1     -12.742  12.348  -9.997 -0.29 -0.01    +0.045    17.385
ATOM     20  C   UNL d   1      -8.245  13.550 -13.353 -0.20 -0.01    +0.045    17.385
ATOM     21  C   UNL d   1      -8.437  13.787 -14.655 -0.17 -0.01    +0.057    17.385
ATOM     22  C   UNL d   1      -7.164  13.197 -11.372 -0.25 +0.00    -0.019    17.385
ATOM     23  C   UNL d   1      -8.621  13.144 -11.135 -0.27 -0.01    +0.045    17.385
ATOM     24  C   UNL d   1      -6.948  13.438 -12.686 -0.17 +0.00    -0.022    17.385
ATOM     25  C   UNL d   1     -10.582  12.920  -9.646 -0.06 -0.01    +0.049    17.385
ATOM     26  C   UNL d   1     -12.661  12.850  -8.708 -0.27 +0.00    -0.018    17.385
ATOM     27  C   UNL d   1     -11.299  13.228  -8.498 -0.20 -0.00    +0.003    17.385
ATOM     28  C   UNL d   1      -9.191  12.942  -9.937 -0.22 -0.00    +0.052    17.385
ATOM     29  C   UNL d   1      -5.651  13.590 -13.405 -0.10 -0.00    +0.046    17.385
ATOM     30  C   UNL d   1     -13.779  12.975  -7.729 -0.31 -0.01    +0.046    17.385
ATOM     31  H   UNL d   1     -10.169  13.470 -12.554 -0.38 -0.09    +0.166    17.385
ATOM     32  H   UNL d   1     -11.268  12.100 -11.491 -0.46 -0.10    +0.166    17.385
ATOM     33  C   UNL d   1     -16.565  11.855 -12.259 -0.05 -0.06    +0.141    17.385
ATOM     34  C   UNL d   1     -17.246  10.964 -11.255 -0.06 -0.18    +0.306    17.385
ATOM     35  O   UNL d   1     -18.384  10.533 -11.330 -0.05 +0.14    -0.251    17.385
ATOM     36  O   UNL d   1     -16.454  10.660 -10.212 -0.07 +0.43    -0.481    17.385
ATOM     37  H   UNL d   1     -16.773   9.783  -9.907 -0.30 -0.50    +0.295    17.385
ATOM     38  C   UNL d   1     -10.773  13.783  -7.287 -0.28 -0.00    +0.017    17.385
ATOM     39  C   UNL d   1      -9.752  13.273  -6.582 -0.37 -0.00    +0.092    17.385
ATOM     40  C   UNL d   1      -9.297  13.949  -5.364 -0.26 +0.02    +0.330    17.385
ATOM     41  O   UNL d   1      -8.158  14.247  -5.060 -0.28 -0.06    -0.246    17.385
ATOM     42  O   UNL d   1     -10.344  14.228  -4.573 -0.13 +0.02    -0.477    17.385
ATOM     43  H   UNL d   1     -10.117  13.799  -3.722 -0.18 -0.08    +0.295    17.385
ATOM     44  C   UNL d   1     -11.712  13.366 -18.151 -0.09 -0.10    +0.141    17.385
ATOM     45  C   UNL d   1     -10.441  12.769 -18.695 -0.09 -0.17    +0.306    17.385
ATOM     46  O   UNL d   1      -9.828  13.139 -19.681 -0.03 +0.07    -0.251    17.385
ATOM     47  O   UNL d   1     -10.021  11.711 -17.978 -0.09 +0.38    -0.481    17.385
ATOM     48  H   UNL d   1     -10.844  11.235 -17.734 -0.41 -0.58    +0.295    17.385
ATOM     49  C   UNL d   1      -6.130  12.993 -10.304 -0.25 -0.00    +0.048    17.385
ATOM     50  C   UNL d   1      -6.385  13.882  -9.088 -0.21 +0.00    +0.125    17.385
ATOM     51  C   UNL d   1      -5.094  14.244  -8.408 -0.18 -0.01    +0.305    17.385
ATOM     52  O   UNL d   1      -4.775  15.325  -7.946 -0.17 +0.00    -0.251    17.385
ATOM     53  O   UNL d   1      -4.244  13.199  -8.353 -0.21 +0.05    -0.481    17.385
ATOM     54  H   UNL d   1      -3.698  13.378  -7.558 -0.43 -0.10    +0.295    17.385
TER
ENDMDL
MODEL       74
USER    Run = 74
USER    Cluster Rank = 6
USER    Number of conformations in this cluster = 3
USER  
USER    RMSD from reference structure       = 16.606 A
USER  
USER    Estimated Free Energy of Binding    =   -6.35 kcal/mol  [=(1)+(2)+(3)-(4)]
USER    Estimated Inhibition Constant, Ki   =   22.03 uM (micromolar)  [Temperature = 298.15 K]
USER    
USER    (1) Final Intermolecular Energy     =  -10.23 kcal/mol
USER        vdW + Hbond + desolv Energy     =  -10.03 kcal/mol
USER        Electrostatic Energy            =   -0.20 kcal/mol
USER    (2) Final Total Internal Energy     =   -2.31 kcal/mol
USER    (3) Torsional Free Energy           =   +3.88 kcal/mol
USER    (4) Unbound System's Energy  [=(2)] =   -2.31 kcal/mol
USER    
USER    
USER  
USER    DPF = D:/Protein_go_brrr/autodock/final/mut_D99N/heme/dock.dpf
USER    NEWDPF move	heme_opt.pdbqt
USER    NEWDPF about	0.153000 0.018000 -0.028000
USER    NEWDPF tran0	15.798160 -13.026653 5.303820
USER    NEWDPF axisangle0	0.435310 0.887714 0.149894 153.713009
USER    NEWDPF quaternion0	0.423907 0.864459 0.145968 0.227391
USER    NEWDPF dihe0	-140.01 -84.09 -150.23 -120.38 42.39 -44.06 131.85 87.52 160.02 -10.73 -9.29 -140.53 -17.54 
USER  
USER                              x       y       z    vdW   Elec        q     RMS 
ATOM      1  O   UNL d   1      19.988 -15.468   1.951 -0.02 +0.01    -0.289    16.606
ATOM      2  O   UNL d   1      13.778 -18.398   4.990 -0.02 -0.02    -0.289    16.606
ATOM      3  N   UNL d   1      17.870 -13.658   3.985 -0.05 +0.15    -0.247    16.606
ATOM      4  N   UNL d   1      15.599 -15.520   4.436 +0.06 +0.19    -0.247    16.606
ATOM      5  N   UNL d   1      14.101 -13.296   5.472 +0.08 +0.35    -0.354    16.606
ATOM      6  N   UNL d   1      16.456 -11.367   4.983 -0.17 +0.25    -0.354    16.606
ATOM      7  C   UNL d   1      19.849 -13.127   2.639 -0.18 +0.00    +0.084    16.606
ATOM      8  C   UNL d   1      16.065 -17.913   4.265 -0.03 -0.00    +0.084    16.606
ATOM      9  C   UNL d   1      16.547 -16.467   4.116 -0.08 -0.02    +0.058    16.606
ATOM     10  C   UNL d   1      18.736 -12.656   3.580 -0.18 -0.01    +0.058    16.606
ATOM     11  C   UNL d   1      19.470 -14.577   2.599 -0.06 -0.02    +0.193    16.606
ATOM     12  C   UNL d   1      18.272 -14.777   3.474 -0.09 -0.04    +0.109    16.606
ATOM     13  C   UNL d   1      14.656 -17.612   4.692 -0.04 +0.00    +0.193    16.606
ATOM     14  C   UNL d   1      19.701 -12.537   1.234 -0.27 +0.00    +0.026    16.606
ATOM     15  C   UNL d   1      17.771 -16.153   3.664 -0.08 -0.01    +0.055    16.606
ATOM     16  C   UNL d   1      16.782 -18.636   5.409 -0.00 -0.00    +0.026    16.606
ATOM     17  C   UNL d   1      14.500 -16.127   4.749 -0.12 -0.03    +0.109    16.606
ATOM     18  C   UNL d   1      18.684 -11.388   4.029 -0.39 -0.00    +0.050    16.606
ATOM     19  C   UNL d   1      17.745 -10.884   4.964 -0.36 -0.01    +0.045    16.606
ATOM     20  C   UNL d   1      13.105 -14.234   5.393 -0.20 -0.02    +0.045    16.606
ATOM     21  C   UNL d   1      13.201 -15.535   5.099 -0.19 -0.01    +0.057    16.606
ATOM     22  C   UNL d   1      12.180 -12.220   5.948 -0.26 +0.01    -0.019    16.606
ATOM     23  C   UNL d   1      13.640 -12.049   5.801 -0.30 -0.03    +0.045    16.606
ATOM     24  C   UNL d   1      11.870 -13.516   5.707 -0.26 +0.01    -0.022    16.606
ATOM     25  C   UNL d   1      15.695 -10.679   5.900 -0.32 -0.02    +0.049    16.606
ATOM     26  C   UNL d   1      17.834  -9.882   5.918 -0.31 +0.00    -0.018    16.606
ATOM     27  C   UNL d   1      16.542  -9.771   6.519 -0.29 -0.00    +0.003    16.606
ATOM     28  C   UNL d   1      14.293 -10.892   5.990 -0.33 -0.03    +0.052    16.606
ATOM     29  C   UNL d   1      10.535 -14.178   5.744 -0.29 -0.01    +0.046    16.606
ATOM     30  C   UNL d   1      19.043  -9.078   6.254 -0.28 +0.01    +0.046    16.606
ATOM     31  H   UNL d   1      15.077 -13.554   5.370 -0.47 -0.22    +0.166    16.606
ATOM     32  H   UNL d   1      16.123 -12.100   4.368 -0.51 -0.29    +0.166    16.606
ATOM     33  C   UNL d   1      21.275 -12.958   3.173 -0.13 +0.03    +0.141    16.606
ATOM     34  C   UNL d   1      22.289 -12.788   2.073 -0.08 +0.09    +0.306    16.606
ATOM     35  O   UNL d   1      22.729 -11.729   1.657 -0.14 -0.11    -0.251    16.606
ATOM     36  O   UNL d   1      22.696 -13.961   1.558 +0.00 -0.09    -0.481    16.606
ATOM     37  H   UNL d   1      21.891 -14.520   1.550 +0.04 +0.03    +0.295    16.606
ATOM     38  C   UNL d   1      16.188  -8.841   7.549 -0.28 -0.00    +0.017    16.606
ATOM     39  C   UNL d   1      15.959  -7.531   7.365 -0.33 -0.03    +0.092    16.606
ATOM     40  C   UNL d   1      15.586  -6.688   8.503 -0.10 -0.12    +0.330    16.606
ATOM     41  O   UNL d   1      14.762  -6.925   9.365 -0.19 +0.09    -0.246    16.606
ATOM     42  O   UNL d   1      16.308  -5.556   8.496 -0.07 +0.15    -0.477    16.606
ATOM     43  H   UNL d   1      15.725  -4.910   8.047 -0.44 -0.19    +0.295    16.606
ATOM     44  C   UNL d   1      16.083 -18.751   2.982 -0.02 +0.01    +0.141    16.606
ATOM     45  C   UNL d   1      15.208 -18.189   1.893 -0.06 +0.13    +0.306    16.606
ATOM     46  O   UNL d   1      15.528 -17.361   1.058 -0.20 -0.15    -0.251    16.606
ATOM     47  O   UNL d   1      13.957 -18.682   1.932 -0.05 -0.28    -0.481    16.606
ATOM     48  H   UNL d   1      13.802 -18.893   2.878 +0.03 +0.10    +0.295    16.606
ATOM     49  C   UNL d   1      11.232 -11.110   6.294 -0.24 -0.02    +0.048    16.606
ATOM     50  C   UNL d   1      10.834 -11.140   7.769 -0.23 -0.04    +0.125    16.606
ATOM     51  C   UNL d   1      10.055  -9.910   8.139 -0.20 -0.09    +0.305    16.606
ATOM     52  O   UNL d   1       8.868  -9.700   7.957 -0.71 +0.07    -0.251    16.606
ATOM     53  O   UNL d   1      10.832  -8.978   8.726 -0.32 +0.17    -0.481    16.606
ATOM     54  H   UNL d   1      11.518  -8.783   8.054 -0.33 -0.14    +0.295    16.606
TER
ENDMDL
MODEL       82
USER    Run = 82
USER    Cluster Rank = 7
USER    Number of conformations in this cluster = 1
USER  
USER    RMSD from reference structure       = 12.416 A
USER  
USER    Estimated Free Energy of Binding    =   -5.62 kcal/mol  [=(1)+(2)+(3)-(4)]
USER    Estimated Inhibition Constant, Ki   =   75.34 uM (micromolar)  [Temperature = 298.15 K]
USER    
USER    (1) Final Intermolecular Energy     =   -9.50 kcal/mol
USER        vdW + Hbond + desolv Energy     =   -9.38 kcal/mol
USER        Electrostatic Energy            =   -0.13 kcal/mol
USER    (2) Final Total Internal Energy     =   -2.44 kcal/mol
USER    (3) Torsional Free Energy           =   +3.88 kcal/mol
USER    (4) Unbound System's Energy  [=(2)] =   -2.44 kcal/mol
USER    
USER    
USER  
USER    DPF = D:/Protein_go_brrr/autodock/final/mut_D99N/heme/dock.dpf
USER    NEWDPF move	heme_opt.pdbqt
USER    NEWDPF about	0.153000 0.018000 -0.028000
USER    NEWDPF tran0	-13.725828 6.539267 4.736174
USER    NEWDPF axisangle0	-0.908915 0.416654 -0.016548 143.106966
USER    NEWDPF quaternion0	-0.862214 0.395246 -0.015698 0.316419
USER    NEWDPF dihe0	166.15 57.76 102.01 -20.89 -145.98 -15.91 -37.26 -36.37 14.49 -117.00 -52.37 -101.26 -170.79 
USER  
USER                              x       y       z    vdW   Elec        q     RMS 
ATOM      1  O   UNL d   1     -18.893   9.123   3.564 -0.04 -0.00    -0.289    12.416
ATOM      2  O   UNL d   1     -11.848  11.567   2.678 +0.05 +0.05    -0.289    12.416
ATOM      3  N   UNL d   1     -16.142   7.283   4.532 -0.06 -0.00    -0.247    12.416
ATOM      4  N   UNL d   1     -13.856   8.890   3.525 -0.10 +0.02    -0.247    12.416
ATOM      5  N   UNL d   1     -12.164   6.615   4.005 -0.11 +0.02    -0.354    12.416
ATOM      6  N   UNL d   1     -14.546   4.948   5.030 -0.04 -0.04    -0.354    12.416
ATOM      7  C   UNL d   1     -18.555   6.863   4.431 -0.05 +0.01    +0.084    12.416
ATOM      8  C   UNL d   1     -14.211  11.293   3.254 -0.23 -0.02    +0.084    12.416
ATOM      9  C   UNL d   1     -14.782   9.908   3.578 -0.23 -0.01    +0.058    12.416
ATOM     10  C   UNL d   1     -17.147   6.357   4.760 -0.08 +0.00    +0.058    12.416
ATOM     11  C   UNL d   1     -18.170   8.245   3.996 -0.06 +0.00    +0.193    12.416
ATOM     12  C   UNL d   1     -16.685   8.385   4.127 -0.11 -0.00    +0.109    12.416
ATOM     13  C   UNL d   1     -12.798  10.867   2.971 -0.27 -0.04    +0.193    12.416
ATOM     14  C   UNL d   1     -19.169   6.122   3.241 -0.12 +0.00    +0.026    12.416
ATOM     15  C   UNL d   1     -16.082   9.702   3.840 -0.17 -0.01    +0.055    12.416
ATOM     16  C   UNL d   1     -14.213  12.209   4.482 -0.17 -0.01    +0.026    12.416
ATOM     17  C   UNL d   1     -12.717   9.388   3.163 -0.40 -0.01    +0.109    12.416
ATOM     18  C   UNL d   1     -16.946   5.144   5.307 -0.07 +0.00    +0.050    12.416
ATOM     19  C   UNL d   1     -15.692   4.626   5.720 -0.06 +0.01    +0.045    12.416
ATOM     20  C   UNL d   1     -11.294   7.413   3.308 -0.43 -0.00    +0.045    12.416
ATOM     21  C   UNL d   1     -11.453   8.679   2.910 -0.40 -0.00    +0.057    12.416
ATOM     22  C   UNL d   1     -10.328   5.368   3.626 -0.45 -0.00    -0.019    12.416
ATOM     23  C   UNL d   1     -11.669   5.361   4.244 -0.31 +0.00    +0.045    12.416
ATOM     24  C   UNL d   1     -10.111   6.585   3.075 -0.52 -0.00    -0.022    12.416
ATOM     25  C   UNL d   1     -13.465   4.268   5.543 -0.13 +0.01    +0.049    12.416
ATOM     26  C   UNL d   1     -15.343   3.743   6.730 -0.04 -0.00    -0.018    12.416
ATOM     27  C   UNL d   1     -13.932   3.536   6.626 -0.09 +0.00    +0.003    12.416
ATOM     28  C   UNL d   1     -12.200   4.317   4.898 -0.27 +0.01    +0.052    12.416
ATOM     29  C   UNL d   1      -8.906   7.081   2.351 -0.41 +0.01    +0.046    12.416
ATOM     30  C   UNL d   1     -16.260   3.130   7.734 -0.02 +0.01    +0.046    12.416
ATOM     31  H   UNL d   1     -13.042   6.979   4.360 +0.07 -0.01    +0.166    12.416
ATOM     32  H   UNL d   1     -14.529   5.570   4.231 +0.06 +0.01    +0.166    12.416
ATOM     33  C   UNL d   1     -19.524   6.924   5.617 -0.01 +0.01    +0.141    12.416
ATOM     34  C   UNL d   1     -19.067   7.872   6.691 +0.00 +0.01    +0.306    12.416
ATOM     35  O   UNL d   1     -18.383   7.588   7.660 -0.00 -0.01    -0.251    12.416
ATOM     36  O   UNL d   1     -19.493   9.131   6.487 +0.00 -0.00    -0.481    12.416
ATOM     37  H   UNL d   1     -19.770   9.149   5.547 +0.01 +0.00    +0.295    12.416
ATOM     38  C   UNL d   1     -13.159   2.678   7.473 -0.18 +0.00    +0.017    12.416
ATOM     39  C   UNL d   1     -12.509   1.576   7.071 -0.20 +0.03    +0.092    12.416
ATOM     40  C   UNL d   1     -11.736   0.791   8.037 -0.15 +0.13    +0.330    12.416
ATOM     41  O   UNL d   1     -11.338   1.142   9.132 -0.25 -0.07    -0.246    12.416
ATOM     42  O   UNL d   1     -11.509  -0.441   7.555 -0.65 -0.32    -0.477    12.416
ATOM     43  H   UNL d   1     -11.897  -1.033   8.232 +0.12 +0.15    +0.295    12.416
ATOM     44  C   UNL d   1     -14.828  11.993   2.039 -0.28 -0.03    +0.141    12.416
ATOM     45  C   UNL d   1     -14.034  13.184   1.573 -0.19 -0.04    +0.306    12.416
ATOM     46  O   UNL d   1     -14.065  14.308   2.044 -0.08 +0.02    -0.251    12.416
ATOM     47  O   UNL d   1     -13.256  12.902   0.512 -0.13 +0.10    -0.481    12.416
ATOM     48  H   UNL d   1     -12.480  12.437   0.891 -0.27 -0.12    +0.295    12.416
ATOM     49  C   UNL d   1      -9.397   4.190   3.619 -0.33 +0.01    +0.048    12.416
ATOM     50  C   UNL d   1      -9.326   3.529   2.243 -0.33 +0.03    +0.125    12.416
ATOM     51  C   UNL d   1      -7.901   3.371   1.797 -0.06 +0.12    +0.305    12.416
ATOM     52  O   UNL d   1      -6.996   4.182   1.897 -0.46 -0.05    -0.251    12.416
ATOM     53  O   UNL d   1      -7.683   2.172   1.220 -0.90 -0.18    -0.481    12.416
ATOM     54  H   UNL d   1      -6.878   2.311   0.679 +0.18 +0.07    +0.295    12.416
TER
ENDMDL
MODEL       48
USER    Run = 48
USER    Cluster Rank = 8
USER    Number of conformations in this cluster = 1
USER  
USER    RMSD from reference structure       = 15.329 A
USER  
USER    Estimated Free Energy of Binding    =   -5.52 kcal/mol  [=(1)+(2)+(3)-(4)]
USER    Estimated Inhibition Constant, Ki   =   89.42 uM (micromolar)  [Temperature = 298.15 K]
USER    
USER    (1) Final Intermolecular Energy     =   -9.40 kcal/mol
USER        vdW + Hbond + desolv Energy     =   -8.63 kcal/mol
USER        Electrostatic Energy            =   -0.77 kcal/mol
USER    (2) Final Total Internal Energy     =   -3.98 kcal/mol
USER    (3) Torsional Free Energy           =   +3.88 kcal/mol
USER    (4) Unbound System's Energy  [=(2)] =   -3.98 kcal/mol
USER    
USER    
USER  
USER    DPF = D:/Protein_go_brrr/autodock/final/mut_D99N/heme/dock.dpf
USER    NEWDPF move	heme_opt.pdbqt
USER    NEWDPF about	0.153000 0.018000 -0.028000
USER    NEWDPF tran0	9.027434 -15.054640 6.591190
USER    NEWDPF axisangle0	-0.501613 0.816269 0.286513 167.059837
USER    NEWDPF quaternion0	-0.498418 0.811070 0.284688 0.112684
USER    NEWDPF dihe0	114.05 -179.95 -179.59 23.58 19.61 -14.20 -62.01 17.27 -20.56 -149.64 -77.76 -6.03 -11.51 
USER  
USER                              x       y       z    vdW   Elec        q     RMS 
ATOM      1  O   UNL d   1      10.149  -9.356   7.601 -0.51 +0.07    -0.289    15.329
ATOM      2  O   UNL d   1      14.641 -14.941   5.360 -0.09 +0.20    -0.289    15.329
ATOM      3  N   UNL d   1       9.059 -12.611   7.271 -0.14 +0.08    -0.247    15.329
ATOM      4  N   UNL d   1      11.399 -13.996   6.072 -0.13 +0.05    -0.247    15.329
ATOM      5  N   UNL d   1       9.667 -16.216   5.486 -0.11 +0.00    -0.354    15.329
ATOM      6  N   UNL d   1       7.241 -14.763   6.713 -0.01 +0.11    -0.354    15.329
ATOM      7  C   UNL d   1       7.978 -10.468   7.764 -0.40 -0.03    +0.084    15.329
ATOM      8  C   UNL d   1      13.606 -13.039   6.503 -0.14 -0.04    +0.084    15.329
ATOM      9  C   UNL d   1      12.082 -12.940   6.632 -0.17 -0.02    +0.058    15.329
ATOM     10  C   UNL d   1       7.858 -11.979   7.545 -0.29 -0.02    +0.058    15.329
ATOM     11  C   UNL d   1       9.462 -10.361   7.584 -0.27 -0.06    +0.193    15.329
ATOM     12  C   UNL d   1      10.005 -11.731   7.316 -0.22 -0.03    +0.109    15.329
ATOM     13  C   UNL d   1      13.659 -14.329   5.734 -0.09 -0.10    +0.193    15.329
ATOM     14  C   UNL d   1       7.286  -9.669   6.656 -0.57 -0.00    +0.026    15.329
ATOM     15  C   UNL d   1      11.468 -11.888   7.195 -0.24 -0.02    +0.055    15.329
ATOM     16  C   UNL d   1      14.278 -13.249   7.863 -0.06 -0.01    +0.026    15.329
ATOM     17  C   UNL d   1      12.256 -14.802   5.532 -0.18 -0.02    +0.109    15.329
ATOM     18  C   UNL d   1       6.685 -12.621   7.702 -0.22 -0.01    +0.050    15.329
ATOM     19  C   UNL d   1       6.496 -14.023   7.603 -0.23 -0.01    +0.045    15.329
ATOM     20  C   UNL d   1      10.782 -16.594   4.784 -0.12 +0.01    +0.045    15.329
ATOM     21  C   UNL d   1      11.994 -16.030   4.766 -0.17 +0.00    +0.057    15.329
ATOM     22  C   UNL d   1       9.083 -18.045   4.310 -0.16 -0.00    -0.019    15.329
ATOM     23  C   UNL d   1       8.590 -17.031   5.263 -0.18 -0.00    +0.045    15.329
ATOM     24  C   UNL d   1      10.381 -17.782   4.030 -0.13 -0.00    -0.022    15.329
ATOM     25  C   UNL d   1       6.833 -16.077   6.717 -0.16 -0.01    +0.049    15.329
ATOM     26  C   UNL d   1       5.606 -14.884   8.227 -0.17 +0.00    -0.018    15.329
ATOM     27  C   UNL d   1       5.837 -16.183   7.678 -0.09 -0.00    +0.003    15.329
ATOM     28  C   UNL d   1       7.348 -17.003   5.770 -0.20 -0.01    +0.052    15.329
ATOM     29  C   UNL d   1      11.312 -18.526   3.135 -0.11 +0.02    +0.046    15.329
ATOM     30  C   UNL d   1       4.604 -14.524   9.271 -0.16 -0.01    +0.046    15.329
ATOM     31  H   UNL d   1       9.700 -15.452   6.153 +0.04 -0.02    +0.166    15.329
ATOM     32  H   UNL d   1       7.958 -14.368   6.117 -0.52 -0.08    +0.166    15.329
ATOM     33  C   UNL d   1       7.568  -9.971   9.154 -0.17 -0.13    +0.141    15.329
ATOM     34  C   UNL d   1       7.744 -11.020  10.219 -0.02 -0.29    +0.306    15.329
ATOM     35  O   UNL d   1       8.803 -11.396  10.692 -0.07 +0.15    -0.251    15.329
ATOM     36  O   UNL d   1       6.574 -11.538  10.634 -0.45 +0.45    -0.481    15.329
ATOM     37  H   UNL d   1       6.134 -10.803  11.111 -0.47 -0.66    +0.295    15.329
ATOM     38  C   UNL d   1       5.119 -17.369   8.036 -0.04 -0.00    +0.017    15.329
ATOM     39  C   UNL d   1       5.623 -18.613   8.023 -0.01 -0.01    +0.092    15.329
ATOM     40  C   UNL d   1       4.785 -19.744   8.430 -0.00 -0.02    +0.330    15.329
ATOM     41  O   UNL d   1       3.739 -19.709   9.048 -0.00 +0.01    -0.246    15.329
ATOM     42  O   UNL d   1       5.331 -20.896   8.011 +0.00 +0.02    -0.477    15.329
ATOM     43  H   UNL d   1       6.146 -20.615   7.547 +0.00 -0.01    +0.295    15.329
ATOM     44  C   UNL d   1      14.278 -11.906   5.721 -0.26 -0.10    +0.141    15.329
ATOM     45  C   UNL d   1      15.752 -11.784   6.001 -0.15 -0.18    +0.306    15.329
ATOM     46  O   UNL d   1      16.296 -10.920   6.667 -0.13 +0.08    -0.251    15.329
ATOM     47  O   UNL d   1      16.472 -12.748   5.399 -0.02 +0.42    -0.481    15.329
ATOM     48  H   UNL d   1      15.809 -13.295   4.927 -0.47 -0.55    +0.295    15.329
ATOM     49  C   UNL d   1       8.242 -19.157   3.754 -0.12 +0.00    +0.048    15.329
ATOM     50  C   UNL d   1       8.404 -20.448   4.556 -0.03 -0.00    +0.125    15.329
ATOM     51  C   UNL d   1       7.222 -20.672   5.456 -0.01 -0.01    +0.305    15.329
ATOM     52  O   UNL d   1       6.160 -20.074   5.451 -0.01 +0.01    -0.251    15.329
ATOM     53  O   UNL d   1       7.447 -21.656   6.349 +0.00 +0.01    -0.481    15.329
ATOM     54  H   UNL d   1       6.550 -21.963   6.597 +0.00 -0.01    +0.295    15.329
TER
ENDMDL
MODEL       99
USER    Run = 99
USER    Cluster Rank = 9
USER    Number of conformations in this cluster = 1
USER  
USER    RMSD from reference structure       = 17.040 A
USER  
USER    Estimated Free Energy of Binding    =   -5.28 kcal/mol  [=(1)+(2)+(3)-(4)]
USER    Estimated Inhibition Constant, Ki   =  135.40 uM (micromolar)  [Temperature = 298.15 K]
USER    
USER    (1) Final Intermolecular Energy     =   -9.16 kcal/mol
USER        vdW + Hbond + desolv Energy     =   -8.76 kcal/mol
USER        Electrostatic Energy            =   -0.40 kcal/mol
USER    (2) Final Total Internal Energy     =   -1.92 kcal/mol
USER    (3) Torsional Free Energy           =   +3.88 kcal/mol
USER    (4) Unbound System's Energy  [=(2)] =   -1.92 kcal/mol
USER    
USER    
USER  
USER    DPF = D:/Protein_go_brrr/autodock/final/mut_D99N/heme/dock.dpf
USER    NEWDPF move	heme_opt.pdbqt
USER    NEWDPF about	0.153000 0.018000 -0.028000
USER    NEWDPF tran0	-4.301009 16.339223 10.799784
USER    NEWDPF axisangle0	-0.123009 0.884161 -0.450698 -167.057458
USER    NEWDPF quaternion0	-0.122226 0.878527 -0.447826 -0.112705
USER    NEWDPF dihe0	-115.41 -67.04 -109.36 -7.92 34.73 113.74 173.36 149.18 141.67 17.52 85.37 148.35 -25.81 
USER  
USER                              x       y       z    vdW   Elec        q     RMS 
ATOM      1  O   UNL d   1       1.007  18.580   9.550 -0.09 -0.01    -0.289    17.040
ATOM      2  O   UNL d   1      -1.725  15.619  15.887 -0.07 +0.03    -0.289    17.040
ATOM      3  N   UNL d   1      -2.256  17.504   9.854 -0.11 +0.01    -0.247    17.040
ATOM      4  N   UNL d   1      -2.311  16.243  12.544 -0.09 +0.05    -0.247    17.040
ATOM      5  N   UNL d   1      -4.844  15.076  11.843 -0.08 +0.09    -0.354    17.040
ATOM      6  N   UNL d   1      -4.769  16.372   9.048 -0.14 +0.02    -0.354    17.040
ATOM      7  C   UNL d   1      -0.874  18.334   8.008 -0.23 +0.01    +0.084    17.040
ATOM      8  C   UNL d   1      -0.684  17.038  14.185 -0.08 -0.01    +0.084    17.040
ATOM      9  C   UNL d   1      -1.222  17.060  12.750 -0.09 -0.01    +0.058    17.040
ATOM     10  C   UNL d   1      -2.222  17.802   8.502 -0.24 +0.00    +0.058    17.040
ATOM     11  C   UNL d   1      -0.157  18.301   9.324 -0.12 +0.01    +0.193    17.040
ATOM     12  C   UNL d   1      -1.108  17.804  10.368 -0.13 -0.00    +0.109    17.040
ATOM     13  C   UNL d   1      -1.647  16.029  14.745 -0.14 -0.03    +0.193    17.040
ATOM     14  C   UNL d   1      -0.190  17.360   7.046 -0.10 +0.00    +0.026    17.040
ATOM     15  C   UNL d   1      -0.647  17.774  11.771 -0.10 -0.00    +0.055    17.040
ATOM     16  C   UNL d   1      -0.906  18.377  14.895 -0.03 -0.00    +0.026    17.040
ATOM     17  C   UNL d   1      -2.575  15.621  13.648 -0.18 -0.03    +0.109    17.040
ATOM     18  C   UNL d   1      -3.291  17.729   7.687 -0.27 +0.00    +0.050    17.040
ATOM     19  C   UNL d   1      -4.596  17.330   8.074 -0.24 +0.00    +0.045    17.040
ATOM     20  C   UNL d   1      -4.590  14.404  13.011 -0.10 -0.02    +0.045    17.040
ATOM     21  C   UNL d   1      -3.606  14.602  13.894 -0.28 -0.02    +0.057    17.040
ATOM     22  C   UNL d   1      -6.449  13.507  12.032 -0.35 +0.00    -0.019    17.040
ATOM     23  C   UNL d   1      -5.946  14.605  11.182 -0.28 -0.01    +0.045    17.040
ATOM     24  C   UNL d   1      -5.642  13.394  13.114 -0.33 +0.01    -0.022    17.040
ATOM     25  C   UNL d   1      -6.103  16.074   9.200 -0.26 -0.00    +0.049    17.040
ATOM     26  C   UNL d   1      -5.851  17.691   7.609 -0.20 -0.00    -0.018    17.040
ATOM     27  C   UNL d   1      -6.800  16.909   8.337 -0.20 -0.00    +0.003    17.040
ATOM     28  C   UNL d   1      -6.520  15.003  10.036 -0.35 -0.01    +0.052    17.040
ATOM     29  C   UNL d   1      -5.745  12.445  14.259 -0.35 -0.01    +0.046    17.040
ATOM     30  C   UNL d   1      -6.153  18.701   6.554 -0.14 +0.01    +0.046    17.040
ATOM     31  H   UNL d   1      -4.296  15.885  11.572 +0.05 -0.03    +0.166    17.040
ATOM     32  H   UNL d   1      -4.003  15.930   9.541 +0.06 -0.02    +0.166    17.040
ATOM     33  C   UNL d   1      -0.897  19.759   7.443 -0.10 +0.01    +0.141    17.040
ATOM     34  C   UNL d   1       0.396  20.138   6.775 -0.05 +0.02    +0.306    17.040
ATOM     35  O   UNL d   1       0.681  19.958   5.603 -0.08 -0.02    -0.251    17.040
ATOM     36  O   UNL d   1       1.263  20.727   7.618 +0.00 -0.01    -0.481    17.040
ATOM     37  H   UNL d   1       1.447  20.044   8.298 +0.04 +0.01    +0.295    17.040
ATOM     38  C   UNL d   1      -8.220  16.957   8.158 -0.16 -0.00    +0.017    17.040
ATOM     39  C   UNL d   1      -8.858  17.670   7.218 -0.14 -0.01    +0.092    17.040
ATOM     40  C   UNL d   1     -10.319  17.619   7.129 -0.09 -0.15    +0.330    17.040
ATOM     41  O   UNL d   1     -11.111  18.510   7.372 -0.05 +0.09    -0.246    17.040
ATOM     42  O   UNL d   1     -10.715  16.406   6.714 -0.11 +0.39    -0.477    17.040
ATOM     43  H   UNL d   1     -11.178  16.031   7.492 -0.44 -0.67    +0.295    17.040
ATOM     44  C   UNL d   1       0.763  16.561  14.341 -0.10 -0.02    +0.141    17.040
ATOM     45  C   UNL d   1       1.162  15.528  13.321 -0.12 -0.05    +0.306    17.040
ATOM     46  O   UNL d   1       2.151  15.553  12.610 -0.11 +0.02    -0.251    17.040
ATOM     47  O   UNL d   1       0.271  14.524  13.229 -0.23 +0.10    -0.481    17.040
ATOM     48  H   UNL d   1      -0.520  14.932  12.816 +0.12 -0.07    +0.295    17.040
ATOM     49  C   UNL d   1      -7.650  12.669  11.705 -0.51 -0.01    +0.048    17.040
ATOM     50  C   UNL d   1      -8.826  12.974  12.631 -0.27 -0.03    +0.125    17.040
ATOM     51  C   UNL d   1      -8.846  12.032  13.801 -0.25 -0.09    +0.305    17.040
ATOM     52  O   UNL d   1      -9.153  12.285  14.953 -0.22 +0.08    -0.251    17.040
ATOM     53  O   UNL d   1      -8.455  10.790  13.455 -0.30 +0.18    -0.481    17.040
ATOM     54  H   UNL d   1      -8.378  10.317  14.310 -0.40 -0.19    +0.295    17.040
TER
ENDMDL
MODEL       96
USER    Run = 96
USER    Cluster Rank = 10
USER    Number of conformations in this cluster = 1
USER  
USER    RMSD from reference structure       = 13.232 A
USER  
USER    Estimated Free Energy of Binding    =   -5.14 kcal/mol  [=(1)+(2)+(3)-(4)]
USER    Estimated Inhibition Constant, Ki   =  170.78 uM (micromolar)  [Temperature = 298.15 K]
USER    
USER    (1) Final Intermolecular Energy     =   -9.02 kcal/mol
USER        vdW + Hbond + desolv Energy     =   -8.06 kcal/mol
USER        Electrostatic Energy            =   -0.96 kcal/mol
USER    (2) Final Total Internal Energy     =   -2.05 kcal/mol
USER    (3) Torsional Free Energy           =   +3.88 kcal/mol
USER    (4) Unbound System's Energy  [=(2)] =   -2.05 kcal/mol
USER    
USER    
USER  
USER    DPF = D:/Protein_go_brrr/autodock/final/mut_D99N/heme/dock.dpf
USER    NEWDPF move	heme_opt.pdbqt
USER    NEWDPF about	0.153000 0.018000 -0.028000
USER    NEWDPF tran0	-11.849285 -8.563341 -8.023917
USER    NEWDPF axisangle0	0.744893 0.129859 0.654424 159.644953
USER    NEWDPF quaternion0	0.733172 0.127815 0.644127 0.176699
USER    NEWDPF dihe0	71.46 -178.73 -89.77 -115.93 156.90 -96.28 -169.81 -38.52 115.41 -114.98 23.69 -5.51 83.48 
USER  
USER                              x       y       z    vdW   Elec        q     RMS 
ATOM      1  O   UNL d   1     -11.337  -9.591 -13.806 -0.06 -0.03    -0.289    13.232
ATOM      2  O   UNL d   1     -15.646  -4.741 -10.026 -0.11 -0.04    -0.289    13.232
ATOM      3  N   UNL d   1     -11.398  -9.438 -10.361 -0.15 +0.03    -0.247    13.232
ATOM      4  N   UNL d   1     -13.115  -7.076  -9.813 -0.15 +0.05    -0.247    13.232
ATOM      5  N   UNL d   1     -12.188  -7.150  -7.092 -0.04 +0.10    -0.354    13.232
ATOM      6  N   UNL d   1     -10.395  -9.589  -7.675 -0.12 +0.09    -0.354    13.232
ATOM      7  C   UNL d   1     -10.069 -10.667 -12.015 -0.26 -0.00    +0.084    13.232
ATOM      8  C   UNL d   1     -14.764  -6.474 -11.512 -0.14 -0.01    +0.084    13.232
ATOM      9  C   UNL d   1     -13.586  -7.351 -11.077 -0.08 -0.01    +0.058    13.232
ATOM     10  C   UNL d   1     -10.370 -10.348 -10.547 -0.28 -0.01    +0.058    13.232
ATOM     11  C   UNL d   1     -11.121  -9.790 -12.625 -0.17 +0.00    +0.193    13.232
ATOM     12  C   UNL d   1     -11.876  -9.119 -11.520 -0.19 -0.01    +0.109    13.232
ATOM     13  C   UNL d   1     -14.850  -5.625 -10.275 -0.20 -0.00    +0.193    13.232
ATOM     14  C   UNL d   1      -8.690 -10.156 -12.442 -0.32 -0.00    +0.026    13.232
ATOM     15  C   UNL d   1     -13.030  -8.272 -11.881 -0.19 -0.00    +0.055    13.232
ATOM     16  C   UNL d   1     -16.057  -7.284 -11.644 -0.05 -0.00    +0.026    13.232
ATOM     17  C   UNL d   1     -13.792  -6.086  -9.327 -0.29 -0.01    +0.109    13.232
ATOM     18  C   UNL d   1      -9.734 -10.983  -9.545 -0.08 -0.01    +0.050    13.232
ATOM     19  C   UNL d   1     -10.004 -10.816  -8.163 -0.24 -0.01    +0.045    13.232
ATOM     20  C   UNL d   1     -12.845  -5.947  -7.084 -0.08 -0.01    +0.045    13.232
ATOM     21  C   UNL d   1     -13.609  -5.404  -8.037 -0.38 +0.00    +0.057    13.232
ATOM     22  C   UNL d   1     -11.742  -6.199  -5.099 -0.22 +0.00    -0.019    13.232
ATOM     23  C   UNL d   1     -11.494  -7.390  -5.936 -0.18 -0.01    +0.045    13.232
ATOM     24  C   UNL d   1     -12.544  -5.349  -5.784 -0.34 +0.00    -0.022    13.232
ATOM     25  C   UNL d   1     -10.514  -9.630  -6.305 -0.20 -0.02    +0.049    13.232
ATOM     26  C   UNL d   1      -9.903 -11.685  -7.087 -0.19 +0.01    -0.018    13.232
ATOM     27  C   UNL d   1     -10.245 -10.936  -5.919 -0.19 -0.00    +0.003    13.232
ATOM     28  C   UNL d   1     -10.754  -8.444  -5.558 -0.23 -0.02    +0.052    13.232
ATOM     29  C   UNL d   1     -13.080  -4.025  -5.358 -0.35 +0.01    +0.046    13.232
ATOM     30  C   UNL d   1      -9.514 -13.124  -7.139 +0.09 -0.01    +0.046    13.232
ATOM     31  H   UNL d   1     -12.295  -7.804  -7.860 +0.02 -0.04    +0.166    13.232
ATOM     32  H   UNL d   1     -10.529  -8.771  -8.257 +0.05 -0.03    +0.166    13.232
ATOM     33  C   UNL d   1     -10.280 -12.127 -12.426 -0.13 -0.00    +0.141    13.232
ATOM     34  C   UNL d   1     -10.368 -12.302 -13.918 -0.06 +0.02    +0.306    13.232
ATOM     35  O   UNL d   1     -11.018 -13.148 -14.508 -0.02 -0.01    -0.251    13.232
ATOM     36  O   UNL d   1      -9.632 -11.398 -14.590 -0.53 -0.11    -0.481    13.232
ATOM     37  H   UNL d   1     -10.291 -10.822 -15.032 +0.07 +0.09    +0.295    13.232
ATOM     38  C   UNL d   1     -10.254 -11.450  -4.583 -0.10 -0.01    +0.017    13.232
ATOM     39  C   UNL d   1     -11.072 -11.040  -3.601 -0.08 -0.07    +0.092    13.232
ATOM     40  C   UNL d   1     -10.992 -11.662  -2.277 -0.05 -0.23    +0.330    13.232
ATOM     41  O   UNL d   1     -11.697 -12.544  -1.826 -0.02 +0.09    -0.246    13.232
ATOM     42  O   UNL d   1      -9.983 -11.123  -1.574 -0.03 +0.59    -0.477    13.232
ATOM     43  H   UNL d   1      -9.613 -10.446  -2.177 -0.44 -0.78    +0.295    13.232
ATOM     44  C   UNL d   1     -14.521  -5.611 -12.755 -0.15 -0.00    +0.141    13.232
ATOM     45  C   UNL d   1     -15.541  -4.517 -12.927 -0.04 +0.01    +0.306    13.232
ATOM     46  O   UNL d   1     -15.345  -3.407 -13.391 -0.05 -0.03    -0.251    13.232
ATOM     47  O   UNL d   1     -16.758  -4.872 -12.476 +0.00 +0.02    -0.481    13.232
ATOM     48  H   UNL d   1     -16.759  -4.607 -11.531 +0.08 -0.02    +0.295    13.232
ATOM     49  C   UNL d   1     -11.167  -5.998  -3.728 -0.24 -0.01    +0.048    13.232
ATOM     50  C   UNL d   1     -10.291  -7.175  -3.300 -0.19 -0.08    +0.125    13.232
ATOM     51  C   UNL d   1     -10.215  -7.271  -1.803 -0.11 -0.19    +0.305    13.232
ATOM     52  O   UNL d   1     -10.039  -6.364  -1.008 -0.17 +0.05    -0.251    13.232
ATOM     53  O   UNL d   1     -10.357  -8.540  -1.371 -0.03 +0.45    -0.481    13.232
ATOM     54  H   UNL d   1      -9.580  -9.006  -1.743 -0.47 -0.72    +0.295    13.232
TER
ENDMDL
MODEL       13
USER    Run = 13
USER    Cluster Rank = 11
USER    Number of conformations in this cluster = 1
USER  
USER    RMSD from reference structure       = 13.606 A
USER  
USER    Estimated Free Energy of Binding    =   -4.96 kcal/mol  [=(1)+(2)+(3)-(4)]
USER    Estimated Inhibition Constant, Ki   =  231.71 uM (micromolar)  [Temperature = 298.15 K]
USER    
USER    (1) Final Intermolecular Energy     =   -8.84 kcal/mol
USER        vdW + Hbond + desolv Energy     =   -8.33 kcal/mol
USER        Electrostatic Energy            =   -0.51 kcal/mol
USER    (2) Final Total Internal Energy     =   -2.90 kcal/mol
USER    (3) Torsional Free Energy           =   +3.88 kcal/mol
USER    (4) Unbound System's Energy  [=(2)] =   -2.90 kcal/mol
USER    
USER    
USER  
USER    DPF = D:/Protein_go_brrr/autodock/final/mut_D99N/heme/dock.dpf
USER    NEWDPF move	heme_opt.pdbqt
USER    NEWDPF about	0.153000 0.018000 -0.028000
USER    NEWDPF tran0	-9.274146 -4.845952 11.634043
USER    NEWDPF axisangle0	-0.732761 0.279304 0.620525 98.416197
USER    NEWDPF quaternion0	-0.554764 0.211458 0.469792 0.653314
USER    NEWDPF dihe0	-112.37 -45.79 -152.79 -27.34 45.56 96.17 -80.83 -81.33 146.70 -151.80 48.84 -136.09 124.79 
USER  
USER                              x       y       z    vdW   Elec        q     RMS 
ATOM      1  O   UNL d   1     -11.783  -0.522  14.760 -0.10 -0.16    -0.289    13.606
ATOM      2  O   UNL d   1     -11.099  -1.485   7.343 -0.72 -0.21    -0.289    13.606
ATOM      3  N   UNL d   1     -10.088  -3.185  13.370 +0.01 -0.05    -0.247    13.606
ATOM      4  N   UNL d   1     -10.609  -2.883  10.460 -0.10 -0.07    -0.247    13.606
ATOM      5  N   UNL d   1      -9.616  -5.557  10.099 -0.06 -0.08    -0.354    13.606
ATOM      6  N   UNL d   1      -9.097  -5.869  13.121 -0.00 -0.07    -0.354    13.606
ATOM      7  C   UNL d   1     -10.737  -2.546  15.645 -0.17 +0.02    +0.084    13.606
ATOM      8  C   UNL d   1     -11.087  -0.632   9.638 -0.30 +0.03    +0.084    13.606
ATOM      9  C   UNL d   1     -10.833  -1.573  10.820 -0.28 +0.02    +0.058    13.606
ATOM     10  C   UNL d   1     -10.056  -3.546  14.706 -0.18 +0.01    +0.058    13.606
ATOM     11  C   UNL d   1     -11.143  -1.547  14.605 -0.15 +0.07    +0.193    13.606
ATOM     12  C   UNL d   1     -10.670  -2.035  13.271 -0.23 +0.03    +0.109    13.606
ATOM     13  C   UNL d   1     -11.003  -1.658   8.543 -0.24 +0.08    +0.193    13.606
ATOM     14  C   UNL d   1     -11.997  -3.130  16.290 -0.07 +0.01    +0.026    13.606
ATOM     15  C   UNL d   1     -10.877  -1.162  12.097 -0.34 +0.02    +0.055    13.606
ATOM     16  C   UNL d   1      -9.948   0.375   9.458 -0.37 +0.01    +0.026    13.606
ATOM     17  C   UNL d   1     -10.716  -2.981   9.174 -0.24 +0.03    +0.109    13.606
ATOM     18  C   UNL d   1      -9.411  -4.629  15.180 -0.16 +0.01    +0.050    13.606
ATOM     19  C   UNL d   1      -8.683  -5.561  14.397 -0.12 +0.01    +0.045    13.606
ATOM     20  C   UNL d   1     -10.129  -5.325   8.849 -0.24 +0.01    +0.045    13.606
ATOM     21  C   UNL d   1     -10.621  -4.190   8.343 -0.31 +0.02    +0.057    13.606
ATOM     22  C   UNL d   1      -9.478  -7.511   8.986 -0.19 -0.00    -0.019    13.606
ATOM     23  C   UNL d   1      -9.197  -6.849  10.276 -0.19 +0.01    +0.045    13.606
ATOM     24  C   UNL d   1     -10.028  -6.603   8.145 -0.22 -0.01    -0.022    13.606
ATOM     25  C   UNL d   1      -8.305  -6.856  12.581 -0.12 +0.01    +0.049    13.606
ATOM     26  C   UNL d   1      -7.572  -6.340  14.680 -0.12 -0.00    -0.018    13.606
ATOM     27  C   UNL d   1      -7.326  -7.141  13.523 -0.12 +0.00    +0.003    13.606
ATOM     28  C   UNL d   1      -8.632  -7.452  11.333 -0.18 +0.01    +0.052    13.606
ATOM     29  C   UNL d   1     -10.470  -6.788   6.733 -0.22 +0.01    +0.046    13.606
ATOM     30  C   UNL d   1      -6.783  -6.340  15.946 -0.10 +0.01    +0.046    13.606
ATOM     31  H   UNL d   1      -9.501  -4.804  10.768 +0.10 +0.05    +0.166    13.606
ATOM     32  H   UNL d   1      -9.902  -5.446  12.676 +0.04 +0.03    +0.166    13.606
ATOM     33  C   UNL d   1      -9.821  -1.895  16.688 -0.24 +0.04    +0.141    13.606
ATOM     34  C   UNL d   1     -10.589  -1.203  17.781 -0.13 +0.10    +0.306    13.606
ATOM     35  O   UNL d   1     -10.818  -1.648  18.894 -0.06 -0.06    -0.251    13.606
ATOM     36  O   UNL d   1     -11.026   0.015  17.417 -0.09 -0.25    -0.481    13.606
ATOM     37  H   UNL d   1     -11.671  -0.159  16.698 +0.08 +0.18    +0.295    13.606
ATOM     38  C   UNL d   1      -6.274  -8.104  13.394 -0.15 +0.00    +0.017    13.606
ATOM     39  C   UNL d   1      -6.304  -9.354  13.883 -0.07 +0.02    +0.092    13.606
ATOM     40  C   UNL d   1      -5.165 -10.249  13.667 -0.06 +0.02    +0.330    13.606
ATOM     41  O   UNL d   1      -4.221 -10.444  14.409 -0.04 +0.02    -0.246    13.606
ATOM     42  O   UNL d   1      -5.289 -10.879  12.488 -0.24 -0.20    -0.477    13.606
ATOM     43  H   UNL d   1      -4.400 -10.800  12.085 -0.49 -0.15    +0.295    13.606
ATOM     44  C   UNL d   1     -12.451   0.067   9.631 -0.15 +0.05    +0.141    13.606
ATOM     45  C   UNL d   1     -12.474   1.318   8.794 -0.12 +0.09    +0.306    13.606
ATOM     46  O   UNL d   1     -12.806   2.431   9.161 -0.15 -0.07    -0.251    13.606
ATOM     47  O   UNL d   1     -12.100   1.093   7.522 -0.15 -0.19    -0.481    13.606
ATOM     48  H   UNL d   1     -12.320   0.150   7.362 +0.10 +0.17    +0.295    13.606
ATOM     49  C   UNL d   1      -9.198  -8.957   8.703 -0.15 +0.02    +0.048    13.606
ATOM     50  C   UNL d   1      -9.571  -9.851   9.886 -0.08 +0.05    +0.125    13.606
ATOM     51  C   UNL d   1      -8.443 -10.781  10.232 +0.01 +0.24    +0.305    13.606
ATOM     52  O   UNL d   1      -8.220 -11.884   9.763 -0.07 -0.20    -0.251    13.606
ATOM     53  O   UNL d   1      -7.639 -10.268  11.184 -0.44 -0.54    -0.481    13.606
ATOM     54  H   UNL d   1      -7.270 -11.057  11.634 +0.03 +0.33    +0.295    13.606
TER
ENDMDL
MODEL       44
USER    Run = 44
USER    Cluster Rank = 12
USER    Number of conformations in this cluster = 1
USER  
USER    RMSD from reference structure       = 17.047 A
USER  
USER    Estimated Free Energy of Binding    =   -4.91 kcal/mol  [=(1)+(2)+(3)-(4)]
USER    Estimated Inhibition Constant, Ki   =  253.01 uM (micromolar)  [Temperature = 298.15 K]
USER    
USER    (1) Final Intermolecular Energy     =   -8.78 kcal/mol
USER        vdW + Hbond + desolv Energy     =   -8.32 kcal/mol
USER        Electrostatic Energy            =   -0.46 kcal/mol
USER    (2) Final Total Internal Energy     =   -2.48 kcal/mol
USER    (3) Torsional Free Energy           =   +3.88 kcal/mol
USER    (4) Unbound System's Energy  [=(2)] =   -2.48 kcal/mol
USER    
USER    
USER  
USER    DPF = D:/Protein_go_brrr/autodock/final/mut_D99N/heme/dock.dpf
USER    NEWDPF move	heme_opt.pdbqt
USER    NEWDPF about	0.153000 0.018000 -0.028000
USER    NEWDPF tran0	-6.717730 17.131968 8.736660
USER    NEWDPF axisangle0	0.920993 0.333259 -0.201768 -123.898915
USER    NEWDPF quaternion0	0.812807 0.294112 -0.178067 -0.470250
USER    NEWDPF dihe0	-42.35 -112.64 125.08 -151.01 3.54 34.60 121.71 -8.40 -148.10 139.50 117.83 -48.48 39.28 
USER  
USER                              x       y       z    vdW   Elec        q     RMS 
ATOM      1  O   UNL d   1      -9.920  14.176  12.707 -0.15 +0.10    -0.289    17.047
ATOM      2  O   UNL d   1     -11.855  19.543   7.824 -0.01 +0.07    -0.289    17.047
ATOM      3  N   UNL d   1      -7.639  15.732  10.641 -0.11 +0.06    -0.247    17.047
ATOM      4  N   UNL d   1      -9.343  17.438   8.904 -0.09 +0.12    -0.247    17.047
ATOM      5  N   UNL d   1      -7.068  17.798   7.183 -0.06 -0.03    -0.354    17.047
ATOM      6  N   UNL d   1      -5.313  16.011   8.980 -0.17 +0.02    -0.354    17.047
ATOM      7  C   UNL d   1      -7.548  13.855  12.214 -0.23 -0.02    +0.084    17.047
ATOM      8  C   UNL d   1     -11.495  18.157   9.810 -0.07 -0.05    +0.084    17.047
ATOM      9  C   UNL d   1     -10.222  17.317   9.957 -0.08 -0.04    +0.058    17.047
ATOM     10  C   UNL d   1      -6.833  14.757  11.204 -0.24 -0.01    +0.058    17.047
ATOM     11  C   UNL d   1      -8.896  14.505  12.136 -0.13 -0.06    +0.193    17.047
ATOM     12  C   UNL d   1      -8.816  15.645  11.169 -0.15 -0.05    +0.109    17.047
ATOM     13  C   UNL d   1     -11.192  18.748   8.461 -0.04 -0.08    +0.193    17.047
ATOM     14  C   UNL d   1      -7.663  12.413  11.715 -0.56 -0.01    +0.026    17.047
ATOM     15  C   UNL d   1     -10.010  16.497  10.997 -0.13 -0.04    +0.055    17.047
ATOM     16  C   UNL d   1     -11.552  19.288  10.841 -0.02 -0.01    +0.026    17.047
ATOM     17  C   UNL d   1      -9.863  18.227   8.020 -0.08 -0.04    +0.109    17.047
ATOM     18  C   UNL d   1      -5.511  14.645  10.973 -0.32 -0.01    +0.050    17.047
ATOM     19  C   UNL d   1      -4.750  15.487  10.122 -0.31 -0.01    +0.045    17.047
ATOM     20  C   UNL d   1      -8.046  18.352   6.399 -0.12 +0.00    +0.045    17.047
ATOM     21  C   UNL d   1      -9.323  18.604   6.706 -0.10 -0.00    +0.057    17.047
ATOM     22  C   UNL d   1      -6.110  18.238   5.193 -0.22 -0.01    -0.019    17.047
ATOM     23  C   UNL d   1      -5.864  17.687   6.540 -0.24 +0.01    +0.045    17.047
ATOM     24  C   UNL d   1      -7.403  18.631   5.116 -0.15 -0.01    -0.022    17.047
ATOM     25  C   UNL d   1      -4.377  16.719   8.262 -0.32 +0.00    +0.049    17.047
ATOM     26  C   UNL d   1      -3.426  15.894  10.166 -0.31 +0.00    -0.018    17.047
ATOM     27  C   UNL d   1      -3.201  16.688   8.999 -0.30 -0.00    +0.003    17.047
ATOM     28  C   UNL d   1      -4.679  17.222   6.967 -0.34 +0.01    +0.052    17.047
ATOM     29  C   UNL d   1      -8.122  19.256   3.968 -0.12 +0.02    +0.046    17.047
ATOM     30  C   UNL d   1      -2.429  15.570  11.226 -0.28 -0.01    +0.046    17.047
ATOM     31  H   UNL d   1      -7.236  17.580   8.159 +0.05 -0.01    +0.166    17.047
ATOM     32  H   UNL d   1      -6.274  15.851   8.704 +0.07 -0.01    +0.166    17.047
ATOM     33  C   UNL d   1      -7.004  13.913  13.646 -0.16 -0.03    +0.141    17.047
ATOM     34  C   UNL d   1      -6.102  12.753  13.970 -0.25 -0.08    +0.306    17.047
ATOM     35  O   UNL d   1      -5.084  12.445  13.374 -0.28 +0.08    -0.251    17.047
ATOM     36  O   UNL d   1      -6.528  12.045  15.031 -0.36 +0.16    -0.481    17.047
ATOM     37  H   UNL d   1      -6.439  11.108  14.754 -0.35 -0.14    +0.295    17.047
ATOM     38  C   UNL d   1      -1.955  17.298   8.643 -0.31 +0.00    +0.017    17.047
ATOM     39  C   UNL d   1      -1.675  17.850   7.453 -0.27 +0.01    +0.092    17.047
ATOM     40  C   UNL d   1      -0.363  18.459   7.221 -0.20 +0.04    +0.330    17.047
ATOM     41  O   UNL d   1       0.707  18.122   7.691 -0.19 -0.03    -0.246    17.047
ATOM     42  O   UNL d   1      -0.477  19.491   6.371 -0.05 -0.05    -0.477    17.047
ATOM     43  H   UNL d   1      -0.990  20.155   6.875 +0.06 +0.02    +0.295    17.047
ATOM     44  C   UNL d   1     -12.808  17.367   9.780 +0.02 -0.16    +0.141    17.047
ATOM     45  C   UNL d   1     -13.407  17.159  11.145 -0.06 -0.24    +0.306    17.047
ATOM     46  O   UNL d   1     -14.025  17.980  11.801 -0.02 +0.10    -0.251    17.047
ATOM     47  O   UNL d   1     -13.171  15.926  11.629 -0.07 +0.53    -0.481    17.047
ATOM     48  H   UNL d   1     -13.522  15.320  10.943 -0.11 -0.67    +0.295    17.047
ATOM     49  C   UNL d   1      -5.072  18.314   4.111 -0.28 +0.03    +0.048    17.047
ATOM     50  C   UNL d   1      -3.731  18.818   4.644 -0.13 +0.04    +0.125    17.047
ATOM     51  C   UNL d   1      -3.864  20.206   5.204 -0.03 +0.05    +0.305    17.047
ATOM     52  O   UNL d   1      -4.787  20.985   5.047 -0.01 -0.04    -0.251    17.047
ATOM     53  O   UNL d   1      -2.793  20.555   5.945 +0.00 -0.05    -0.481    17.047
ATOM     54  H   UNL d   1      -2.056  20.041   5.554 +0.07 +0.04    +0.295    17.047
TER
ENDMDL
MODEL       19
USER    Run = 19
USER    Cluster Rank = 13
USER    Number of conformations in this cluster = 1
USER  
USER    RMSD from reference structure       = 15.438 A
USER  
USER    Estimated Free Energy of Binding    =   -4.86 kcal/mol  [=(1)+(2)+(3)-(4)]
USER    Estimated Inhibition Constant, Ki   =  273.23 uM (micromolar)  [Temperature = 298.15 K]
USER    
USER    (1) Final Intermolecular Energy     =   -8.74 kcal/mol
USER        vdW + Hbond + desolv Energy     =   -8.41 kcal/mol
USER        Electrostatic Energy            =   -0.33 kcal/mol
USER    (2) Final Total Internal Energy     =   -3.85 kcal/mol
USER    (3) Torsional Free Energy           =   +3.88 kcal/mol
USER    (4) Unbound System's Energy  [=(2)] =   -3.85 kcal/mol
USER    
USER    
USER  
USER    DPF = D:/Protein_go_brrr/autodock/final/mut_D99N/heme/dock.dpf
USER    NEWDPF move	heme_opt.pdbqt
USER    NEWDPF about	0.153000 0.018000 -0.028000
USER    NEWDPF tran0	9.717292 0.882496 -14.566510
USER    NEWDPF axisangle0	-0.595248 0.430496 -0.678493 68.641707
USER    NEWDPF quaternion0	-0.335617 0.242725 -0.382553 0.825893
USER    NEWDPF dihe0	77.53 155.36 -177.93 80.04 -178.98 -88.54 140.37 52.59 -146.65 -19.51 -92.70 35.80 7.41 
USER  
USER                              x       y       z    vdW   Elec        q     RMS 
ATOM      1  O   UNL d   1       4.974  -1.414 -17.209 -0.78 -0.14    -0.289    15.438
ATOM      2  O   UNL d   1      12.230  -1.531 -19.138 -0.01 -0.07    -0.289    15.438
ATOM      3  N   UNL d   1       7.416   0.209 -15.393 -0.11 -0.08    -0.247    15.438
ATOM      4  N   UNL d   1       9.934  -0.645 -16.719 +0.09 -0.16    -0.247    15.438
ATOM      5  N   UNL d   1      11.370   0.397 -14.456 -0.06 -0.12    -0.354    15.438
ATOM      6  N   UNL d   1       8.751   1.262 -13.079 -0.12 -0.08    -0.354    15.438
ATOM      7  C   UNL d   1       5.019  -0.204 -15.086 -0.33 +0.02    +0.084    15.438
ATOM      8  C   UNL d   1       9.795  -1.293 -19.071 -0.08 +0.03    +0.084    15.438
ATOM      9  C   UNL d   1       9.086  -0.874 -17.779 -0.14 +0.03    +0.058    15.438
ATOM     10  C   UNL d   1       6.325   0.404 -14.563 -0.22 +0.02    +0.058    15.438
ATOM     11  C   UNL d   1       5.562  -0.760 -16.368 -0.25 +0.07    +0.193    15.438
ATOM     12  C   UNL d   1       7.019  -0.422 -16.450 -0.20 +0.04    +0.109    15.438
ATOM     13  C   UNL d   1      11.200  -1.295 -18.538 -0.05 +0.08    +0.193    15.438
ATOM     14  C   UNL d   1       4.533  -1.362 -14.210 -0.43 +0.01    +0.026    15.438
ATOM     15  C   UNL d   1       7.750  -0.790 -17.679 -0.22 +0.02    +0.055    15.438
ATOM     16  C   UNL d   1       9.681  -0.218 -20.155 -0.03 +0.00    +0.026    15.438
ATOM     17  C   UNL d   1      11.146  -0.892 -17.100 -0.00 +0.07    +0.109    15.438
ATOM     18  C   UNL d   1       6.357   1.136 -13.434 -0.29 +0.01    +0.050    15.438
ATOM     19  C   UNL d   1       7.497   1.805 -12.919 -0.28 +0.01    +0.045    15.438
ATOM     20  C   UNL d   1      12.387  -0.261 -15.098 -0.09 +0.02    +0.045    15.438
ATOM     21  C   UNL d   1      12.379  -0.847 -16.299 -0.07 +0.03    +0.057    15.438
ATOM     22  C   UNL d   1      13.148   0.480 -13.075 -0.14 -0.00    -0.019    15.438
ATOM     23  C   UNL d   1      11.734   0.879 -13.227 -0.17 +0.01    +0.045    15.438
ATOM     24  C   UNL d   1      13.529  -0.193 -14.187 -0.11 -0.00    -0.022    15.438
ATOM     25  C   UNL d   1       9.694   2.023 -12.428 -0.23 +0.01    +0.049    15.438
ATOM     26  C   UNL d   1       7.631   2.968 -12.177 -0.25 -0.00    -0.018    15.438
ATOM     27  C   UNL d   1       9.023   3.111 -11.886 -0.21 +0.00    +0.003    15.438
ATOM     28  C   UNL d   1      11.040   1.580 -12.318 -0.24 +0.01    +0.052    15.438
ATOM     29  C   UNL d   1      14.859  -0.783 -14.510 -0.07 +0.01    +0.046    15.438
ATOM     30  C   UNL d   1       6.537   3.892 -11.764 -0.10 +0.01    +0.046    15.438
ATOM     31  H   UNL d   1      10.478   0.559 -14.912 +0.03 +0.06    +0.166    15.438
ATOM     32  H   UNL d   1       8.929   0.397 -13.576 +0.07 +0.05    +0.166    15.438
ATOM     33  C   UNL d   1       3.895   0.799 -15.367 -0.23 +0.04    +0.141    15.438
ATOM     34  C   UNL d   1       2.891   0.873 -14.249 -0.28 +0.09    +0.306    15.438
ATOM     35  O   UNL d   1       1.687   0.710 -14.350 -0.44 -0.13    -0.251    15.438
ATOM     36  O   UNL d   1       3.459   1.146 -13.061 -0.07 -0.09    -0.481    15.438
ATOM     37  H   UNL d   1       3.449   0.291 -12.580 -0.35 -0.01    +0.295    15.438
ATOM     38  C   UNL d   1       9.602   4.176 -11.123 -0.15 +0.00    +0.017    15.438
ATOM     39  C   UNL d   1      10.339   5.178 -11.627 -0.05 +0.01    +0.092    15.438
ATOM     40  C   UNL d   1      10.860   6.219 -10.737 -0.01 +0.04    +0.330    15.438
ATOM     41  O   UNL d   1      10.329   7.270 -10.431 -0.01 -0.03    -0.246    15.438
ATOM     42  O   UNL d   1      12.060   5.859 -10.258 +0.00 -0.04    -0.477    15.438
ATOM     43  H   UNL d   1      12.050   4.881 -10.310 +0.04 +0.03    +0.295    15.438
ATOM     44  C   UNL d   1       9.413  -2.673 -19.616 -0.18 +0.04    +0.141    15.438
ATOM     45  C   UNL d   1       9.903  -3.808 -18.757 -0.18 +0.19    +0.306    15.438
ATOM     46  O   UNL d   1       9.267  -4.398 -17.900 -1.15 -0.27    -0.251    15.438
ATOM     47  O   UNL d   1      11.187  -4.125 -19.004 -0.06 -0.22    -0.481    15.438
ATOM     48  H   UNL d   1      11.470  -3.488 -19.695 +0.07 +0.08    +0.295    15.438
ATOM     49  C   UNL d   1      13.982   0.778 -11.864 -0.13 +0.01    +0.048    15.438
ATOM     50  C   UNL d   1      14.429   2.239 -11.827 -0.05 +0.01    +0.125    15.438
ATOM     51  C   UNL d   1      13.405   3.095 -11.137 -0.03 +0.03    +0.305    15.438
ATOM     52  O   UNL d   1      12.834   2.869 -10.085 -0.09 -0.03    -0.251    15.438
ATOM     53  O   UNL d   1      13.136   4.218 -11.833 +0.01 -0.04    -0.481    15.438
ATOM     54  H   UNL d   1      13.658   4.911 -11.378 +0.02 +0.02    +0.295    15.438
TER
ENDMDL
MODEL       30
USER    Run = 30
USER    Cluster Rank = 14
USER    Number of conformations in this cluster = 1
USER  
USER    RMSD from reference structure       = 17.275 A
USER  
USER    Estimated Free Energy of Binding    =   -4.82 kcal/mol  [=(1)+(2)+(3)-(4)]
USER    Estimated Inhibition Constant, Ki   =  292.78 uM (micromolar)  [Temperature = 298.15 K]
USER    
USER    (1) Final Intermolecular Energy     =   -8.70 kcal/mol
USER        vdW + Hbond + desolv Energy     =   -8.27 kcal/mol
USER        Electrostatic Energy            =   -0.43 kcal/mol
USER    (2) Final Total Internal Energy     =   -2.76 kcal/mol
USER    (3) Torsional Free Energy           =   +3.88 kcal/mol
USER    (4) Unbound System's Energy  [=(2)] =   -2.76 kcal/mol
USER    
USER    
USER  
USER    DPF = D:/Protein_go_brrr/autodock/final/mut_D99N/heme/dock.dpf
USER    NEWDPF move	heme_opt.pdbqt
USER    NEWDPF about	0.153000 0.018000 -0.028000
USER    NEWDPF tran0	-2.199191 16.838119 10.228657
USER    NEWDPF axisangle0	0.511343 -0.354012 -0.783073 122.171472
USER    NEWDPF quaternion0	0.447601 -0.309882 -0.685459 0.483500
USER    NEWDPF dihe0	-98.20 136.54 -153.97 130.48 32.25 71.89 -32.81 16.71 135.86 14.54 -81.25 -63.45 -30.76 
USER  
USER                              x       y       z    vdW   Elec        q     RMS 
ATOM      1  O   UNL d   1      -3.251  14.656  15.603 -0.05 +0.04    -0.289    17.275
ATOM      2  O   UNL d   1       3.203  16.109  12.051 -0.07 +0.02    -0.289    17.275
ATOM      3  N   UNL d   1      -3.126  15.822  12.360 -0.10 +0.06    -0.247    17.275
ATOM      4  N   UNL d   1      -0.236  16.375  11.944 -0.10 +0.02    -0.247    17.275
ATOM      5  N   UNL d   1      -0.951  17.833   9.572 -0.10 -0.01    -0.354    17.275
ATOM      6  N   UNL d   1      -3.948  17.271  10.021 -0.04 +0.02    -0.354    17.275
ATOM      7  C   UNL d   1      -4.919  15.393  13.975 -0.11 -0.02    +0.084    17.275
ATOM      8  C   UNL d   1       1.352  15.098  13.293 -0.20 -0.01    +0.084    17.275
ATOM      9  C   UNL d   1      -0.100  15.467  12.970 -0.23 -0.01    +0.058    17.275
ATOM     10  C   UNL d   1      -4.492  15.867  12.583 -0.12 -0.01    +0.058    17.275
ATOM     11  C   UNL d   1      -3.554  15.053  14.493 -0.18 -0.05    +0.193    17.275
ATOM     12  C   UNL d   1      -2.555  15.332  13.412 -0.19 -0.03    +0.109    17.275
ATOM     13  C   UNL d   1       2.016  15.993  12.285 -0.09 -0.01    +0.193    17.275
ATOM     14  C   UNL d   1      -5.499  16.532  14.817 -0.05 -0.00    +0.026    17.275
ATOM     15  C   UNL d   1      -1.142  14.984  13.664 -0.33 -0.02    +0.055    17.275
ATOM     16  C   UNL d   1       1.660  13.640  12.935 -0.44 -0.00    +0.026    17.275
ATOM     17  C   UNL d   1       0.944  16.718  11.538 -0.07 -0.00    +0.109    17.275
ATOM     18  C   UNL d   1      -5.398  16.207  11.647 -0.13 -0.01    +0.050    17.275
ATOM     19  C   UNL d   1      -5.101  16.577  10.310 -0.15 -0.00    +0.045    17.275
ATOM     20  C   UNL d   1       0.373  18.176   9.669 -0.13 +0.00    +0.045    17.275
ATOM     21  C   UNL d   1       1.301  17.705  10.508 -0.08 +0.00    +0.057    17.275
ATOM     22  C   UNL d   1      -0.586  19.401   7.997 -0.13 -0.00    -0.019    17.275
ATOM     23  C   UNL d   1      -1.613  18.521   8.590 -0.18 +0.00    +0.045    17.275
ATOM     24  C   UNL d   1       0.587  19.191   8.639 -0.12 -0.00    -0.022    17.275
ATOM     25  C   UNL d   1      -3.906  17.603   8.687 -0.19 +0.00    +0.049    17.275
ATOM     26  C   UNL d   1      -5.808  16.421   9.128 -0.25 +0.00    -0.018    17.275
ATOM     27  C   UNL d   1      -5.039  17.054   8.103 -0.29 +0.00    +0.003    17.275
ATOM     28  C   UNL d   1      -2.889  18.456   8.180 -0.19 +0.00    +0.052    17.275
ATOM     29  C   UNL d   1       1.911  19.831   8.394 -0.08 +0.00    +0.046    17.275
ATOM     30  C   UNL d   1      -7.116  15.726   8.958 -0.19 -0.01    +0.046    17.275
ATOM     31  H   UNL d   1      -1.343  17.084  10.132 +0.05 -0.00    +0.166    17.275
ATOM     32  H   UNL d   1      -3.259  17.528  10.718 +0.04 -0.01    +0.166    17.275
ATOM     33  C   UNL d   1      -5.826  14.158  13.998 -0.20 -0.03    +0.141    17.275
ATOM     34  C   UNL d   1      -6.276  13.796  15.388 -0.15 -0.07    +0.306    17.275
ATOM     35  O   UNL d   1      -7.248  14.247  15.970 -0.06 +0.05    -0.251    17.275
ATOM     36  O   UNL d   1      -5.478  12.883  15.970 -0.76 +0.11    -0.481    17.275
ATOM     37  H   UNL d   1      -4.702  13.396  16.281 +0.11 -0.09    +0.295    17.275
ATOM     38  C   UNL d   1      -5.415  17.140   6.724 -0.37 +0.00    +0.017    17.275
ATOM     39  C   UNL d   1      -5.025  18.102   5.873 -0.26 +0.02    +0.092    17.275
ATOM     40  C   UNL d   1      -5.468  18.065   4.477 -0.14 +0.19    +0.330    17.275
ATOM     41  O   UNL d   1      -6.589  18.256   4.047 -0.65 -0.24    -0.246    17.275
ATOM     42  O   UNL d   1      -4.431  17.789   3.671 -0.16 -0.30    -0.477    17.275
ATOM     43  H   UNL d   1      -3.706  18.347   4.021 +0.11 +0.13    +0.295    17.275
ATOM     44  C   UNL d   1       1.818  15.430  14.714 -0.11 -0.04    +0.141    17.275
ATOM     45  C   UNL d   1       1.212  16.698  15.256 -0.06 -0.06    +0.306    17.275
ATOM     46  O   UNL d   1       1.537  17.838  14.973 -0.02 +0.03    -0.251    17.275
ATOM     47  O   UNL d   1       0.240  16.460  16.155 -0.07 +0.12    -0.481    17.275
ATOM     48  H   UNL d   1       0.451  15.574  16.520 -0.51 -0.17    +0.295    17.275
ATOM     49  C   UNL d   1      -0.849  20.367   6.878 -0.08 +0.00    +0.048    17.275
ATOM     50  C   UNL d   1      -0.099  19.979   5.604 -0.13 +0.01    +0.125    17.275
ATOM     51  C   UNL d   1      -1.008  19.266   4.643 -0.09 +0.05    +0.305    17.275
ATOM     52  O   UNL d   1      -2.219  19.153   4.710 -0.13 -0.06    -0.251    17.275
ATOM     53  O   UNL d   1      -0.326  18.706   3.625 -0.12 -0.09    -0.481    17.275
ATOM     54  H   UNL d   1       0.246  19.430   3.294 +0.08 +0.04    +0.295    17.275
TER
ENDMDL
MODEL       59
USER    Run = 59
USER    Cluster Rank = 15
USER    Number of conformations in this cluster = 1
USER  
USER    RMSD from reference structure       = 17.657 A
USER  
USER    Estimated Free Energy of Binding    =   -4.82 kcal/mol  [=(1)+(2)+(3)-(4)]
USER    Estimated Inhibition Constant, Ki   =  293.25 uM (micromolar)  [Temperature = 298.15 K]
USER    
USER    (1) Final Intermolecular Energy     =   -8.70 kcal/mol
USER        vdW + Hbond + desolv Energy     =   -8.54 kcal/mol
USER        Electrostatic Energy            =   -0.15 kcal/mol
USER    (2) Final Total Internal Energy     =   -3.72 kcal/mol
USER    (3) Torsional Free Energy           =   +3.88 kcal/mol
USER    (4) Unbound System's Energy  [=(2)] =   -3.72 kcal/mol
USER    
USER    
USER  
USER    DPF = D:/Protein_go_brrr/autodock/final/mut_D99N/heme/dock.dpf
USER    NEWDPF move	heme_opt.pdbqt
USER    NEWDPF about	0.153000 0.018000 -0.028000
USER    NEWDPF tran0	-3.269115 16.339477 11.815818
USER    NEWDPF axisangle0	-0.915127 0.095183 -0.391768 112.771015
USER    NEWDPF quaternion0	-0.762101 0.079267 -0.326257 0.553602
USER    NEWDPF dihe0	18.41 -109.89 103.33 42.34 179.63 -28.45 -57.69 -100.65 -148.11 -122.97 -88.56 -27.68 -12.95 
USER  
USER                              x       y       z    vdW   Elec        q     RMS 
ATOM      1  O   UNL d   1      -8.164  13.778   9.758 -0.23 +0.10    -0.289    17.657
ATOM      2  O   UNL d   1      -3.638  18.929   6.698 -0.09 -0.04    -0.289    17.657
ATOM      3  N   UNL d   1      -5.446  15.100  11.420 -0.13 +0.05    -0.247    17.657
ATOM      4  N   UNL d   1      -4.130  16.777   9.350 -0.14 +0.02    -0.247    17.657
ATOM      5  N   UNL d   1      -1.829  16.927  11.068 -0.07 +0.03    -0.354    17.657
ATOM      6  N   UNL d   1      -3.195  15.171  13.201 -0.09 +0.12    -0.354    17.657
ATOM      7  C   UNL d   1      -7.061  13.318  11.891 -0.33 -0.02    +0.084    17.657
ATOM      8  C   UNL d   1      -5.540  17.649   7.555 -0.19 +0.01    +0.084    17.657
ATOM      9  C   UNL d   1      -5.389  16.760   8.794 -0.23 -0.00    +0.058    17.657
ATOM     10  C   UNL d   1      -5.833  14.124  12.323 -0.24 -0.01    +0.058    17.657
ATOM     11  C   UNL d   1      -7.312  14.024  10.592 -0.26 -0.05    +0.193    17.657
ATOM     12  C   UNL d   1      -6.283  15.100  10.433 -0.25 -0.02    +0.109    17.657
ATOM     13  C   UNL d   1      -4.122  18.143   7.488 -0.13 +0.02    +0.193    17.657
ATOM     14  C   UNL d   1      -6.716  11.855  11.600 -0.46 -0.01    +0.026    17.657
ATOM     15  C   UNL d   1      -6.387  15.994   9.263 -0.29 -0.01    +0.055    17.657
ATOM     16  C   UNL d   1      -6.465  18.840   7.818 -0.09 +0.00    +0.026    17.657
ATOM     17  C   UNL d   1      -3.370  17.536   8.627 -0.20 +0.00    +0.109    17.657
ATOM     18  C   UNL d   1      -5.256  13.936  13.524 -0.31 -0.01    +0.050    17.657
ATOM     19  C   UNL d   1      -4.172  14.690  14.043 -0.25 -0.01    +0.045    17.657
ATOM     20  C   UNL d   1      -1.307  17.479   9.926 -0.19 -0.00    +0.045    17.657
ATOM     21  C   UNL d   1      -1.934  17.808   8.792 -0.26 +0.00    +0.057    17.657
ATOM     22  C   UNL d   1       0.374  17.203  11.448 -0.12 +0.00    -0.019    17.657
ATOM     23  C   UNL d   1      -0.889  16.723  12.043 -0.14 -0.00    +0.045    17.657
ATOM     24  C   UNL d   1       0.120  17.650  10.195 -0.11 -0.00    -0.022    17.657
ATOM     25  C   UNL d   1      -2.199  15.790  13.920 -0.19 -0.01    +0.049    17.657
ATOM     26  C   UNL d   1      -3.821  15.037  15.338 -0.21 +0.00    -0.018    17.657
ATOM     27  C   UNL d   1      -2.585  15.748  15.253 -0.18 -0.00    +0.003    17.657
ATOM     28  C   UNL d   1      -1.006  16.229  13.285 -0.17 -0.01    +0.052    17.657
ATOM     29  C   UNL d   1       1.066  18.239   9.205 -0.10 +0.00    +0.046    17.657
ATOM     30  C   UNL d   1      -4.587  14.730  16.581 -0.17 -0.01    +0.046    17.657
ATOM     31  H   UNL d   1      -2.827  16.776  11.170 +0.06 -0.02    +0.166    17.657
ATOM     32  H   UNL d   1      -3.206  15.039  12.196 -0.18 -0.07    +0.166    17.657
ATOM     33  C   UNL d   1      -8.281  13.435  12.811 -0.24 -0.03    +0.141    17.657
ATOM     34  C   UNL d   1      -8.425  12.256  13.735 -0.25 -0.09    +0.306    17.657
ATOM     35  O   UNL d   1      -9.417  11.559  13.863 -0.28 +0.09    -0.251    17.657
ATOM     36  O   UNL d   1      -7.310  12.016  14.447 -0.15 +0.17    -0.481    17.657
ATOM     37  H   UNL d   1      -7.431  11.107  14.795 -0.35 -0.21    +0.295    17.657
ATOM     38  C   UNL d   1      -1.858  16.277  16.368 -0.05 -0.00    +0.017    17.657
ATOM     39  C   UNL d   1      -0.793  17.088  16.284 -0.12 -0.01    +0.092    17.657
ATOM     40  C   UNL d   1      -0.147  17.575  17.506 -0.06 -0.04    +0.330    17.657
ATOM     41  O   UNL d   1      -0.666  17.791  18.585 -0.05 +0.03    -0.246    17.657
ATOM     42  O   UNL d   1       1.165  17.760  17.293 -0.01 +0.06    -0.477    17.657
ATOM     43  H   UNL d   1       1.198  18.536  16.697 +0.02 -0.03    +0.295    17.657
ATOM     44  C   UNL d   1      -5.928  16.920   6.263 -0.13 +0.04    +0.141    17.657
ATOM     45  C   UNL d   1      -5.889  17.807   5.047 -0.08 +0.15    +0.306    17.657
ATOM     46  O   UNL d   1      -6.846  18.316   4.488 -0.71 -0.17    -0.251    17.657
ATOM     47  O   UNL d   1      -4.641  17.984   4.578 -0.16 -0.22    -0.481    17.657
ATOM     48  H   UNL d   1      -4.239  18.640   5.186 +0.10 +0.09    +0.295    17.657
ATOM     49  C   UNL d   1       1.702  17.166  12.146 -0.10 -0.00    +0.048    17.657
ATOM     50  C   UNL d   1       2.033  18.503  12.809 -0.03 -0.01    +0.125    17.657
ATOM     51  C   UNL d   1       1.567  18.524  14.237 -0.01 -0.02    +0.305    17.657
ATOM     52  O   UNL d   1       0.618  19.132  14.700 -0.01 +0.02    -0.251    17.657
ATOM     53  O   UNL d   1       2.347  17.767  15.033 +0.00 +0.05    -0.481    17.657
ATOM     54  H   UNL d   1       1.711  17.301  15.617 +0.04 -0.04    +0.295    17.657
TER
ENDMDL
MODEL        7
USER    Run = 7
USER    Cluster Rank = 16
USER    Number of conformations in this cluster = 1
USER  
USER    RMSD from reference structure       = 14.308 A
USER  
USER    Estimated Free Energy of Binding    =   -4.77 kcal/mol  [=(1)+(2)+(3)-(4)]
USER    Estimated Inhibition Constant, Ki   =  320.10 uM (micromolar)  [Temperature = 298.15 K]
USER    
USER    (1) Final Intermolecular Energy     =   -8.65 kcal/mol
USER        vdW + Hbond + desolv Energy     =   -8.08 kcal/mol
USER        Electrostatic Energy            =   -0.57 kcal/mol
USER    (2) Final Total Internal Energy     =   -1.87 kcal/mol
USER    (3) Torsional Free Energy           =   +3.88 kcal/mol
USER    (4) Unbound System's Energy  [=(2)] =   -1.87 kcal/mol
USER    
USER    
USER  
USER    DPF = D:/Protein_go_brrr/autodock/final/mut_D99N/heme/dock.dpf
USER    NEWDPF move	heme_opt.pdbqt
USER    NEWDPF about	0.153000 0.018000 -0.028000
USER    NEWDPF tran0	-13.945754 5.282562 8.828531
USER    NEWDPF axisangle0	-0.914453 0.261833 0.308575 136.472131
USER    NEWDPF quaternion0	-0.849271 0.243170 0.286579 0.370783
USER    NEWDPF dihe0	133.81 19.50 70.61 -134.37 -135.85 -179.99 -54.67 -101.14 18.28 -179.18 75.54 -102.84 178.05 
USER  
USER                              x       y       z    vdW   Elec        q     RMS 
ATOM      1  O   UNL d   1     -18.742   7.450  11.484 -0.01 -0.02    -0.289    14.308
ATOM      2  O   UNL d   1     -13.827  10.659   6.801 -0.16 +0.10    -0.289    14.308
ATOM      3  N   UNL d   1     -15.968   5.800  10.270 +0.06 -0.09    -0.247    14.308
ATOM      4  N   UNL d   1     -14.832   7.723   8.310 -0.10 -0.01    -0.247    14.308
ATOM      5  N   UNL d   1     -13.185   5.590   7.310 -0.09 -0.03    -0.354    14.308
ATOM      6  N   UNL d   1     -14.383   3.596   9.333 -0.05 -0.13    -0.354    14.308
ATOM      7  C   UNL d   1     -17.909   5.156  11.621 -0.03 +0.02    +0.084    14.308
ATOM      8  C   UNL d   1     -15.308  10.094   8.666 -0.15 -0.02    +0.084    14.308
ATOM      9  C   UNL d   1     -15.534   8.633   9.070 -0.14 +0.00    +0.058    14.308
ATOM     10  C   UNL d   1     -16.599   4.761  10.933 -0.07 +0.02    +0.058    14.308
ATOM     11  C   UNL d   1     -17.897   6.607  11.245 -0.02 +0.03    +0.193    14.308
ATOM     12  C   UNL d   1     -16.657   6.879  10.450 -0.01 +0.02    +0.109    14.308
ATOM     13  C   UNL d   1     -14.377   9.843   7.513 -0.14 -0.04    +0.193    14.308
ATOM     14  C   UNL d   1     -19.123   4.487  10.972 -0.01 +0.00    +0.026    14.308
ATOM     15  C   UNL d   1     -16.382   8.272  10.045 -0.10 +0.01    +0.055    14.308
ATOM     16  C   UNL d   1     -14.552  10.871   9.748 -0.10 -0.01    +0.026    14.308
ATOM     17  C   UNL d   1     -14.176   8.366   7.399 -0.19 -0.01    +0.109    14.308
ATOM     18  C   UNL d   1     -16.085   3.522  11.057 -0.09 +0.02    +0.050    14.308
ATOM     19  C   UNL d   1     -14.842   3.091  10.528 -0.12 +0.02    +0.045    14.308
ATOM     20  C   UNL d   1     -12.952   6.538   6.348 -0.23 -0.00    +0.045    14.308
ATOM     21  C   UNL d   1     -13.339   7.817   6.322 -0.24 -0.01    +0.057    14.308
ATOM     22  C   UNL d   1     -11.974   4.577   5.703 -0.28 -0.00    -0.019    14.308
ATOM     23  C   UNL d   1     -12.634   4.373   7.008 -0.23 +0.01    +0.045    14.308
ATOM     24  C   UNL d   1     -12.164   5.861   5.319 -0.28 +0.00    -0.022    14.308
ATOM     25  C   UNL d   1     -13.211   2.977   8.965 -0.18 +0.01    +0.049    14.308
ATOM     26  C   UNL d   1     -13.927   2.146  10.967 -0.18 -0.01    -0.018    14.308
ATOM     27  C   UNL d   1     -12.889   2.092   9.986 -0.22 +0.00    +0.003    14.308
ATOM     28  C   UNL d   1     -12.627   3.218   7.692 -0.24 +0.01    +0.052    14.308
ATOM     29  C   UNL d   1     -11.681   6.547   4.086 -0.38 -0.00    +0.046    14.308
ATOM     30  C   UNL d   1     -14.009   1.343  12.220 -0.17 +0.02    +0.046    14.308
ATOM     31  H   UNL d   1     -13.653   5.825   8.178 +0.05 +0.03    +0.166    14.308
ATOM     32  H   UNL d   1     -14.877   4.297   8.794 +0.04 +0.06    +0.166    14.308
ATOM     33  C   UNL d   1     -17.925   4.995  13.145 -0.02 +0.03    +0.141    14.308
ATOM     34  C   UNL d   1     -16.972   5.932  13.836 -0.05 +0.10    +0.306    14.308
ATOM     35  O   UNL d   1     -15.772   5.764  13.977 -0.16 -0.14    -0.251    14.308
ATOM     36  O   UNL d   1     -17.580   7.033  14.311 +0.00 -0.10    -0.481    14.308
ATOM     37  H   UNL d   1     -18.119   7.361  13.560 +0.03 +0.04    +0.295    14.308
ATOM     38  C   UNL d   1     -11.747   1.231  10.040 -0.29 +0.01    +0.017    14.308
ATOM     39  C   UNL d   1     -11.493   0.227   9.186 -0.30 +0.03    +0.092    14.308
ATOM     40  C   UNL d   1     -10.274  -0.572   9.341 -0.27 +0.10    +0.330    14.308
ATOM     41  O   UNL d   1      -9.922  -1.527   8.676 -0.44 -0.09    -0.246    14.308
ATOM     42  O   UNL d   1      -9.537  -0.098  10.357 -0.29 -0.09    -0.477    14.308
ATOM     43  H   UNL d   1      -8.643  -0.459  10.187 -0.36 -0.01    +0.295    14.308
ATOM     44  C   UNL d   1     -16.557  10.853   8.208 -0.04 -0.03    +0.141    14.308
ATOM     45  C   UNL d   1     -16.716  12.193   8.876 -0.04 -0.14    +0.306    14.308
ATOM     46  O   UNL d   1     -17.431  12.449   9.829 -0.03 +0.08    -0.251    14.308
ATOM     47  O   UNL d   1     -15.982  13.153   8.286 -0.04 +0.40    -0.481    14.308
ATOM     48  H   UNL d   1     -15.277  13.361   8.935 -0.43 -0.55    +0.295    14.308
ATOM     49  C   UNL d   1     -11.238   3.505   4.955 -0.27 +0.01    +0.048    14.308
ATOM     50  C   UNL d   1     -12.133   2.813   3.926 -0.21 +0.03    +0.125    14.308
ATOM     51  C   UNL d   1     -12.569   1.462   4.418 -0.11 +0.18    +0.305    14.308
ATOM     52  O   UNL d   1     -12.191   0.371   4.027 -0.76 -0.29    -0.251    14.308
ATOM     53  O   UNL d   1     -13.494   1.555   5.394 -0.02 -0.23    -0.481    14.308
ATOM     54  H   UNL d   1     -14.123   2.229   5.063 +0.07 +0.10    +0.295    14.308
TER
ENDMDL
MODEL       50
USER    Run = 50
USER    Cluster Rank = 17
USER    Number of conformations in this cluster = 2
USER  
USER    RMSD from reference structure       = 17.636 A
USER  
USER    Estimated Free Energy of Binding    =   -4.75 kcal/mol  [=(1)+(2)+(3)-(4)]
USER    Estimated Inhibition Constant, Ki   =  330.53 uM (micromolar)  [Temperature = 298.15 K]
USER    
USER    (1) Final Intermolecular Energy     =   -8.63 kcal/mol
USER        vdW + Hbond + desolv Energy     =   -8.56 kcal/mol
USER        Electrostatic Energy            =   -0.07 kcal/mol
USER    (2) Final Total Internal Energy     =   -3.20 kcal/mol
USER    (3) Torsional Free Energy           =   +3.88 kcal/mol
USER    (4) Unbound System's Energy  [=(2)] =   -3.20 kcal/mol
USER    
USER    
USER  
USER    DPF = D:/Protein_go_brrr/autodock/final/mut_D99N/heme/dock.dpf
USER    NEWDPF move	heme_opt.pdbqt
USER    NEWDPF about	0.153000 0.018000 -0.028000
USER    NEWDPF tran0	-9.095679 16.358169 10.394760
USER    NEWDPF axisangle0	0.766374 0.523852 -0.371819 -149.227515
USER    NEWDPF quaternion0	0.738907 0.505077 -0.358492 -0.265325
USER    NEWDPF dihe0	119.23 -125.32 -139.74 -91.64 -132.13 40.49 129.03 136.60 48.89 -12.23 44.46 -119.81 117.76 
USER  
USER                              x       y       z    vdW   Elec        q     RMS 
ATOM      1  O   UNL d   1      -8.989  12.159  14.532 -0.23 +0.09    -0.289    17.636
ATOM      2  O   UNL d   1     -13.840  17.763  13.320 -0.01 +0.07    -0.289    17.636
ATOM      3  N   UNL d   1      -8.563  14.490  12.026 -0.12 +0.07    -0.247    17.636
ATOM      4  N   UNL d   1     -11.074  16.075  12.132 -0.10 +0.15    -0.247    17.636
ATOM      5  N   UNL d   1     -10.367  17.193   9.579 -0.01 +0.33    -0.354    17.636
ATOM      6  N   UNL d   1      -7.774  15.531   9.468 -0.14 +0.09    -0.354    17.636
ATOM      7  C   UNL d   1      -7.409  12.431  12.687 -0.38 -0.02    +0.084    17.636
ATOM      8  C   UNL d   1     -12.251  16.161  14.272 -0.03 -0.02    +0.084    17.636
ATOM      9  C   UNL d   1     -11.110  15.594  13.422 -0.10 -0.02    +0.058    17.636
ATOM     10  C   UNL d   1      -7.524  13.623  11.732 -0.32 -0.01    +0.058    17.636
ATOM     11  C   UNL d   1      -8.556  12.788  13.584 -0.21 -0.05    +0.193    17.636
ATOM     12  C   UNL d   1      -9.157  14.069  13.094 -0.16 -0.03    +0.109    17.636
ATOM     13  C   UNL d   1     -12.879  17.026  13.214 -0.03 -0.07    +0.193    17.636
ATOM     14  C   UNL d   1      -7.720  11.105  11.990 -0.53 -0.01    +0.026    17.636
ATOM     15  C   UNL d   1     -10.253  14.669  13.882 -0.13 -0.01    +0.055    17.636
ATOM     16  C   UNL d   1     -11.729  17.060  15.397 -0.01 -0.00    +0.026    17.636
ATOM     17  C   UNL d   1     -12.075  16.878  11.964 -0.09 -0.07    +0.109    17.636
ATOM     18  C   UNL d   1      -6.621  13.831  10.755 -0.37 -0.01    +0.050    17.636
ATOM     19  C   UNL d   1      -6.597  14.947   9.880 -0.31 -0.01    +0.045    17.636
ATOM     20  C   UNL d   1     -11.652  17.658   9.692 +0.04 -0.04    +0.045    17.636
ATOM     21  C   UNL d   1     -12.482  17.580  10.738 -0.09 -0.04    +0.057    17.636
ATOM     22  C   UNL d   1     -10.866  18.160   7.607 -0.09 +0.01    -0.019    17.636
ATOM     23  C   UNL d   1      -9.810  17.450   8.355 -0.13 -0.03    +0.045    17.636
ATOM     24  C   UNL d   1     -11.954  18.281   8.405 -0.07 +0.01    -0.022    17.636
ATOM     25  C   UNL d   1      -7.524  16.531   8.558 -0.14 -0.01    +0.049    17.636
ATOM     26  C   UNL d   1      -5.555  15.609   9.251 -0.36 +0.00    -0.018    17.636
ATOM     27  C   UNL d   1      -6.144  16.621   8.432 -0.26 -0.00    +0.003    17.636
ATOM     28  C   UNL d   1      -8.589  17.176   7.871 -0.13 -0.01    +0.052    17.636
ATOM     29  C   UNL d   1     -13.262  18.930   8.106 -0.04 -0.02    +0.046    17.636
ATOM     30  C   UNL d   1      -4.099  15.322   9.401 -0.34 -0.01    +0.046    17.636
ATOM     31  H   UNL d   1      -9.886  16.780  10.371 +0.00 -0.12    +0.166    17.636
ATOM     32  H   UNL d   1      -8.689  15.223   9.773 +0.03 -0.09    +0.166    17.636
ATOM     33  C   UNL d   1      -6.104  12.354  13.487 -0.33 -0.04    +0.141    17.636
ATOM     34  C   UNL d   1      -6.235  12.943  14.866 -0.24 -0.08    +0.306    17.636
ATOM     35  O   UNL d   1      -6.233  14.129  15.145 -0.12 +0.05    -0.251    17.636
ATOM     36  O   UNL d   1      -6.363  12.004  15.820 -0.59 +0.14    -0.481    17.636
ATOM     37  H   UNL d   1      -7.207  11.550  15.608 -0.34 -0.19    +0.295    17.636
ATOM     38  C   UNL d   1      -5.421  17.530   7.594 -0.27 +0.00    +0.017    17.636
ATOM     39  C   UNL d   1      -5.210  17.369   6.279 -0.32 +0.02    +0.092    17.636
ATOM     40  C   UNL d   1      -4.466  18.385   5.530 -0.13 +0.09    +0.330    17.636
ATOM     41  O   UNL d   1      -3.494  19.017   5.897 -0.12 -0.05    -0.246    17.636
ATOM     42  O   UNL d   1      -5.005  18.547   4.311 -0.14 -0.23    -0.477    17.636
ATOM     43  H   UNL d   1      -5.947  18.743   4.495 +0.08 +0.15    +0.295    17.636
ATOM     44  C   UNL d   1     -13.253  15.132  14.804 -0.03 -0.03    +0.141    17.636
ATOM     45  C   UNL d   1     -13.985  14.395  13.714 -0.07 -0.12    +0.306    17.636
ATOM     46  O   UNL d   1     -13.598  13.404  13.121 -0.18 +0.13    -0.251    17.636
ATOM     47  O   UNL d   1     -15.163  14.968  13.408 -0.01 +0.17    -0.481    17.636
ATOM     48  H   UNL d   1     -14.987  15.932  13.443 +0.03 -0.10    +0.295    17.636
ATOM     49  C   UNL d   1     -10.722  18.637   6.192 -0.07 -0.01    +0.048    17.636
ATOM     50  C   UNL d   1      -9.859  17.689   5.358 -0.14 +0.00    +0.125    17.636
ATOM     51  C   UNL d   1      -8.862  18.455   4.535 -0.09 +0.11    +0.305    17.636
ATOM     52  O   UNL d   1      -7.664  18.256   4.445 -0.64 -0.17    -0.251    17.636
ATOM     53  O   UNL d   1      -9.439  19.469   3.859 -0.02 -0.12    -0.481    17.636
ATOM     54  H   UNL d   1      -9.412  20.220   4.488 +0.03 +0.04    +0.295    17.636
TER
ENDMDL
MODEL       27
USER    Run = 27
USER    Cluster Rank = 18
USER    Number of conformations in this cluster = 2
USER  
USER    RMSD from reference structure       = 13.913 A
USER  
USER    Estimated Free Energy of Binding    =   -4.73 kcal/mol  [=(1)+(2)+(3)-(4)]
USER    Estimated Inhibition Constant, Ki   =  342.59 uM (micromolar)  [Temperature = 298.15 K]
USER    
USER    (1) Final Intermolecular Energy     =   -8.61 kcal/mol
USER        vdW + Hbond + desolv Energy     =   -7.98 kcal/mol
USER        Electrostatic Energy            =   -0.63 kcal/mol
USER    (2) Final Total Internal Energy     =   -1.43 kcal/mol
USER    (3) Torsional Free Energy           =   +3.88 kcal/mol
USER    (4) Unbound System's Energy  [=(2)] =   -1.43 kcal/mol
USER    
USER    
USER  
USER    DPF = D:/Protein_go_brrr/autodock/final/mut_D99N/heme/dock.dpf
USER    NEWDPF move	heme_opt.pdbqt
USER    NEWDPF about	0.153000 0.018000 -0.028000
USER    NEWDPF tran0	-9.569911 -4.180051 12.730307
USER    NEWDPF axisangle0	0.242759 0.622769 -0.743793 122.090334
USER    NEWDPF quaternion0	0.212414 0.544924 -0.650820 0.484120
USER    NEWDPF dihe0	54.60 -77.93 17.53 -145.88 -136.19 133.62 -26.70 3.24 -16.38 130.71 68.66 13.87 144.65 
USER  
USER                              x       y       z    vdW   Elec        q     RMS 
ATOM      1  O   UNL d   1      -8.290  -9.235   9.981 -0.12 -0.19    -0.289    13.913
ATOM      2  O   UNL d   1      -5.197  -5.978  15.998 -0.07 -0.05    -0.289    13.913
ATOM      3  N   UNL d   1      -9.302  -6.159  11.167 -0.04 -0.06    -0.247    13.913
ATOM      4  N   UNL d   1      -7.754  -5.855  13.685 -0.07 -0.04    -0.247    13.913
ATOM      5  N   UNL d   1      -9.486  -3.666  14.376 -0.10 -0.06    -0.354    13.913
ATOM      6  N   UNL d   1     -11.099  -4.001  11.770 -0.02 -0.08    -0.354    13.913
ATOM      7  C   UNL d   1     -10.094  -7.684   9.419 -0.09 +0.02    +0.084    13.913
ATOM      8  C   UNL d   1      -5.635  -7.061  13.847 -0.13 +0.01    +0.084    13.913
ATOM      9  C   UNL d   1      -6.923  -6.765  13.071 -0.17 +0.01    +0.058    13.913
ATOM     10  C   UNL d   1     -10.254  -6.366  10.182 -0.13 +0.01    +0.058    13.913
ATOM     11  C   UNL d   1      -8.871  -8.177  10.134 -0.11 +0.07    +0.193    13.913
ATOM     12  C   UNL d   1      -8.474  -7.152  11.151 -0.16 +0.03    +0.109    13.913
ATOM     13  C   UNL d   1      -5.908  -6.179  15.033 -0.11 +0.03    +0.193    13.913
ATOM     14  C   UNL d   1     -11.250  -8.650   9.692 -0.04 +0.00    +0.026    13.913
ATOM     15  C   UNL d   1      -7.234  -7.380  11.920 -0.24 +0.02    +0.055    13.913
ATOM     16  C   UNL d   1      -4.397  -6.534  13.116 -0.34 +0.00    +0.026    13.913
ATOM     17  C   UNL d   1      -7.226  -5.510  14.815 -0.17 +0.01    +0.109    13.913
ATOM     18  C   UNL d   1     -11.194  -5.466   9.841 -0.12 +0.01    +0.050    13.913
ATOM     19  C   UNL d   1     -11.363  -4.188  10.432 -0.12 +0.01    +0.045    13.913
ATOM     20  C   UNL d   1      -8.820  -3.823  15.563 -0.24 +0.01    +0.045    13.913
ATOM     21  C   UNL d   1      -7.776  -4.612  15.841 -0.23 +0.01    +0.057    13.913
ATOM     22  C   UNL d   1     -10.495  -2.298  15.854 -0.23 -0.00    -0.019    13.913
ATOM     23  C   UNL d   1     -10.515  -2.766  14.453 -0.22 +0.01    +0.045    13.913
ATOM     24  C   UNL d   1      -9.489  -2.927  16.505 -0.22 -0.00    -0.022    13.913
ATOM     25  C   UNL d   1     -11.415  -2.718  12.151 -0.14 +0.01    +0.049    13.913
ATOM     26  C   UNL d   1     -11.828  -2.985   9.922 -0.13 -0.01    -0.018    13.913
ATOM     27  C   UNL d   1     -11.840  -2.056  11.008 -0.15 +0.00    +0.003    13.913
ATOM     28  C   UNL d   1     -11.375  -2.332  13.519 -0.19 +0.01    +0.052    13.913
ATOM     29  C   UNL d   1      -9.063  -2.781  17.927 -0.02 +0.01    +0.046    13.913
ATOM     30  C   UNL d   1     -12.234  -2.713   8.514 -0.16 +0.02    +0.046    13.913
ATOM     31  H   UNL d   1      -9.169  -4.126  13.530 +0.08 +0.03    +0.166    13.913
ATOM     32  H   UNL d   1     -10.758  -4.734  12.382 +0.03 +0.03    +0.166    13.913
ATOM     33  C   UNL d   1      -9.819  -7.545   7.918 -0.17 +0.04    +0.141    13.913
ATOM     34  C   UNL d   1      -9.043  -6.300   7.584 -0.25 +0.06    +0.306    13.913
ATOM     35  O   UNL d   1      -9.502  -5.179   7.450 -0.23 -0.06    -0.251    13.913
ATOM     36  O   UNL d   1      -7.726  -6.533   7.439 -0.21 -0.07    -0.481    13.913
ATOM     37  H   UNL d   1      -7.293  -5.880   8.028 -0.42 -0.03    +0.295    13.913
ATOM     38  C   UNL d   1     -12.268  -0.692  10.921 -0.19 +0.01    +0.017    13.913
ATOM     39  C   UNL d   1     -11.570   0.368  11.358 -0.32 +0.03    +0.092    13.913
ATOM     40  C   UNL d   1     -12.114   1.718  11.194 -0.18 +0.14    +0.330    13.913
ATOM     41  O   UNL d   1     -12.194   2.595  12.033 -0.35 -0.16    -0.246    13.913
ATOM     42  O   UNL d   1     -12.534   1.896   9.932 -0.06 -0.15    -0.477    13.913
ATOM     43  H   UNL d   1     -13.507   1.800   9.993 +0.10 +0.09    +0.295    13.913
ATOM     44  C   UNL d   1      -5.445  -8.519  14.280 -0.06 +0.01    +0.141    13.913
ATOM     45  C   UNL d   1      -4.912  -9.400  13.182 -0.09 +0.00    +0.306    13.913
ATOM     46  O   UNL d   1      -5.513  -9.765  12.187 -0.43 -0.16    -0.251    13.913
ATOM     47  O   UNL d   1      -3.648  -9.800  13.412 -0.05 +0.18    -0.481    13.913
ATOM     48  H   UNL d   1      -3.327 -10.118  12.541 -0.50 -0.41    +0.295    13.913
ATOM     49  C   UNL d   1     -11.462  -1.301  16.423 -0.19 +0.02    +0.048    13.913
ATOM     50  C   UNL d   1     -12.904  -1.802  16.350 -0.07 +0.04    +0.125    13.913
ATOM     51  C   UNL d   1     -13.697  -1.011  15.348 -0.06 +0.12    +0.305    13.913
ATOM     52  O   UNL d   1     -13.322  -0.055  14.692 -0.11 -0.15    -0.251    13.913
ATOM     53  O   UNL d   1     -14.959  -1.469  15.229 +0.00 -0.13    -0.481    13.913
ATOM     54  H   UNL d   1     -15.186  -1.779  16.130 +0.01 +0.07    +0.295    13.913
TER
ENDMDL
MODEL       75
USER    Run = 75
USER    Cluster Rank = 19
USER    Number of conformations in this cluster = 1
USER  
USER    RMSD from reference structure       = 15.324 A
USER  
USER    Estimated Free Energy of Binding    =   -4.70 kcal/mol  [=(1)+(2)+(3)-(4)]
USER    Estimated Inhibition Constant, Ki   =  360.11 uM (micromolar)  [Temperature = 298.15 K]
USER    
USER    (1) Final Intermolecular Energy     =   -8.58 kcal/mol
USER        vdW + Hbond + desolv Energy     =   -7.99 kcal/mol
USER        Electrostatic Energy            =   -0.58 kcal/mol
USER    (2) Final Total Internal Energy     =   -2.42 kcal/mol
USER    (3) Torsional Free Energy           =   +3.88 kcal/mol
USER    (4) Unbound System's Energy  [=(2)] =   -2.42 kcal/mol
USER    
USER    
USER  
USER    DPF = D:/Protein_go_brrr/autodock/final/mut_D99N/heme/dock.dpf
USER    NEWDPF move	heme_opt.pdbqt
USER    NEWDPF about	0.153000 0.018000 -0.028000
USER    NEWDPF tran0	-16.466252 8.449863 3.205905
USER    NEWDPF axisangle0	0.647185 0.374663 -0.663912 50.458344
USER    NEWDPF quaternion0	0.275856 0.159696 -0.282986 0.904610
USER    NEWDPF dihe0	-90.74 126.45 -150.87 126.53 26.46 111.28 131.24 56.36 131.54 -13.40 -118.03 -19.71 171.92 
USER  
USER                              x       y       z    vdW   Elec        q     RMS 
ATOM      1  O   UNL d   1     -21.897   6.509   1.981 -0.04 -0.09    -0.289    15.324
ATOM      2  O   UNL d   1     -15.805   2.878   4.451 -0.04 -0.06    -0.289    15.324
ATOM      3  N   UNL d   1     -18.851   8.063   2.433 -0.12 -0.01    -0.247    15.324
ATOM      4  N   UNL d   1     -17.185   5.948   3.692 -0.08 -0.02    -0.247    15.324
ATOM      5  N   UNL d   1     -15.268   7.984   4.358 +0.01 +0.01    -0.354    15.324
ATOM      6  N   UNL d   1     -17.011  10.175   3.066 -0.07 +0.05    -0.354    15.324
ATOM      7  C   UNL d   1     -21.109   8.819   1.854 -0.08 +0.02    +0.084    15.324
ATOM      8  C   UNL d   1     -17.792   3.626   3.233 -0.11 +0.01    +0.084    15.324
ATOM      9  C   UNL d   1     -18.108   5.119   3.095 -0.14 +0.01    +0.058    15.324
ATOM     10  C   UNL d   1     -19.641   9.159   2.131 -0.14 +0.00    +0.058    15.324
ATOM     11  C   UNL d   1     -21.004   7.335   2.035 -0.08 +0.05    +0.193    15.324
ATOM     12  C   UNL d   1     -19.581   6.998   2.358 -0.14 +0.02    +0.109    15.324
ATOM     13  C   UNL d   1     -16.539   3.760   4.051 -0.07 +0.03    +0.193    15.324
ATOM     14  C   UNL d   1     -22.042   9.385   2.928 -0.02 +0.00    +0.026    15.324
ATOM     15  C   UNL d   1     -19.216   5.573   2.489 -0.17 +0.01    +0.055    15.324
ATOM     16  C   UNL d   1     -17.434   2.994   1.884 -0.09 +0.00    +0.026    15.324
ATOM     17  C   UNL d   1     -16.285   5.217   4.266 -0.07 +0.01    +0.109    15.324
ATOM     18  C   UNL d   1     -19.172  10.413   1.994 -0.14 -0.00    +0.050    15.324
ATOM     19  C   UNL d   1     -17.817  10.805   2.147 -0.09 -0.01    +0.045    15.324
ATOM     20  C   UNL d   1     -14.757   6.936   5.078 -0.07 +0.00    +0.045    15.324
ATOM     21  C   UNL d   1     -15.139   5.654   5.077 -0.10 +0.00    +0.057    15.324
ATOM     22  C   UNL d   1     -13.590   8.828   5.601 -0.24 +0.00    -0.019    15.324
ATOM     23  C   UNL d   1     -14.627   9.169   4.607 -0.16 -0.00    +0.045    15.324
ATOM     24  C   UNL d   1     -13.671   7.504   5.875 -0.21 +0.00    -0.022    15.324
ATOM     25  C   UNL d   1     -15.772  10.770   3.111 -0.20 -0.01    +0.049    15.324
ATOM     26  C   UNL d   1     -17.073  11.813   1.553 -0.16 +0.00    -0.018    15.324
ATOM     27  C   UNL d   1     -15.776  11.773   2.152 -0.26 -0.00    +0.003    15.324
ATOM     28  C   UNL d   1     -14.817  10.395   4.096 -0.19 -0.01    +0.052    15.324
ATOM     29  C   UNL d   1     -12.834   6.690   6.801 -0.29 -0.00    +0.046    15.324
ATOM     30  C   UNL d   1     -17.534  12.754   0.492 -0.11 -0.01    +0.046    15.324
ATOM     31  H   UNL d   1     -15.991   7.842   3.661 +0.04 -0.00    +0.166    15.324
ATOM     32  H   UNL d   1     -17.320   9.406   3.649 +0.03 -0.01    +0.166    15.324
ATOM     33  C   UNL d   1     -21.606   9.155   0.444 -0.14 +0.07    +0.141    15.324
ATOM     34  C   UNL d   1     -23.048   8.780   0.233 -0.06 +0.21    +0.306    15.324
ATOM     35  O   UNL d   1     -24.020   9.425   0.589 -0.03 -0.10    -0.251    15.324
ATOM     36  O   UNL d   1     -23.190   7.611  -0.417 -0.59 -0.74    -0.481    15.324
ATOM     37  H   UNL d   1     -23.163   6.931   0.290 +0.03 +0.26    +0.295    15.324
ATOM     38  C   UNL d   1     -14.694  12.658   1.838 -0.31 -0.00    +0.017    15.324
ATOM     39  C   UNL d   1     -13.405  12.442   2.140 -0.31 -0.02    +0.092    15.324
ATOM     40  C   UNL d   1     -12.389  13.422   1.746 -0.20 -0.03    +0.330    15.324
ATOM     41  O   UNL d   1     -11.761  14.174   2.467 -0.20 -0.00    -0.246    15.324
ATOM     42  O   UNL d   1     -12.210  13.391   0.416 -0.21 +0.06    -0.477    15.324
ATOM     43  H   UNL d   1     -12.022  12.448   0.227 -0.35 -0.14    +0.295    15.324
ATOM     44  C   UNL d   1     -18.844   2.794   3.973 -0.04 +0.02    +0.141    15.324
ATOM     45  C   UNL d   1     -19.024   3.206   5.410 -0.01 +0.04    +0.306    15.324
ATOM     46  O   UNL d   1     -19.769   4.075   5.829 -0.00 -0.03    -0.251    15.324
ATOM     47  O   UNL d   1     -18.230   2.515   6.247 +0.00 -0.07    -0.481    15.324
ATOM     48  H   UNL d   1     -17.450   2.272   5.705 +0.02 +0.05    +0.295    15.324
ATOM     49  C   UNL d   1     -12.635   9.821   6.196 -0.30 -0.01    +0.048    15.324
ATOM     50  C   UNL d   1     -13.209  10.482   7.449 -0.39 -0.04    +0.125    15.324
ATOM     51  C   UNL d   1     -13.449   9.466   8.530 -0.30 -0.03    +0.305    15.324
ATOM     52  O   UNL d   1     -12.669   8.628   8.948 -0.98 -0.04    -0.251    15.324
ATOM     53  O   UNL d   1     -14.695   9.552   9.035 -0.12 +0.06    -0.481    15.324
ATOM     54  H   UNL d   1     -14.781  10.491   9.301 +0.09 -0.11    +0.295    15.324
TER
ENDMDL
MODEL       39
USER    Run = 39
USER    Cluster Rank = 20
USER    Number of conformations in this cluster = 2
USER  
USER    RMSD from reference structure       = 14.329 A
USER  
USER    Estimated Free Energy of Binding    =   -4.68 kcal/mol  [=(1)+(2)+(3)-(4)]
USER    Estimated Inhibition Constant, Ki   =  370.40 uM (micromolar)  [Temperature = 298.15 K]
USER    
USER    (1) Final Intermolecular Energy     =   -8.56 kcal/mol
USER        vdW + Hbond + desolv Energy     =   -8.32 kcal/mol
USER        Electrostatic Energy            =   -0.24 kcal/mol
USER    (2) Final Total Internal Energy     =   -2.55 kcal/mol
USER    (3) Torsional Free Energy           =   +3.88 kcal/mol
USER    (4) Unbound System's Energy  [=(2)] =   -2.55 kcal/mol
USER    
USER    
USER  
USER    DPF = D:/Protein_go_brrr/autodock/final/mut_D99N/heme/dock.dpf
USER    NEWDPF move	heme_opt.pdbqt
USER    NEWDPF about	0.153000 0.018000 -0.028000
USER    NEWDPF tran0	1.617710 17.542710 0.794767
USER    NEWDPF axisangle0	0.146148 0.869560 0.471706 162.468121
USER    NEWDPF quaternion0	0.144441 0.859402 0.466196 0.152398
USER    NEWDPF dihe0	140.95 55.09 -123.48 82.49 -136.50 146.24 121.81 96.11 19.31 -33.62 -45.05 83.15 -155.36 
USER  
USER                              x       y       z    vdW   Elec        q     RMS 
ATOM      1  O   UNL d   1       7.311  18.379  -0.488 -0.01 -0.01    -0.289    14.329
ATOM      2  O   UNL d   1       2.350  13.389  -3.110 -0.22 +0.10    -0.289    14.329
ATOM      3  N   UNL d   1       4.070  18.178   0.676 -0.10 -0.01    -0.247    14.329
ATOM      4  N   UNL d   1       2.821  16.173  -1.125 -0.11 -0.01    -0.247    14.329
ATOM      5  N   UNL d   1       0.258  17.005  -0.122 -0.11 -0.02    -0.354    14.329
ATOM      6  N   UNL d   1       1.561  19.097   1.729 -0.12 -0.03    -0.354    14.329
ATOM      7  C   UNL d   1       5.952  19.703   1.054 -0.03 +0.00    +0.084    14.329
ATOM      8  C   UNL d   1       4.299  14.524  -2.159 -0.22 +0.00    +0.084    14.329
ATOM      9  C   UNL d   1       4.130  15.783  -1.302 -0.18 +0.00    +0.058    14.329
ATOM     10  C   UNL d   1       4.499  19.314   1.343 -0.08 +0.00    +0.058    14.329
ATOM     11  C   UNL d   1       6.274  18.576   0.119 -0.03 +0.00    +0.193    14.329
ATOM     12  C   UNL d   1       5.061  17.707  -0.008 -0.10 +0.00    +0.109    14.329
ATOM     13  C   UNL d   1       2.846  14.293  -2.467 -0.23 -0.02    +0.193    14.329
ATOM     14  C   UNL d   1       6.051  21.025   0.288 -0.01 +0.00    +0.026    14.329
ATOM     15  C   UNL d   1       5.171  16.473  -0.812 -0.15 +0.00    +0.055    14.329
ATOM     16  C   UNL d   1       4.822  13.343  -1.337 -0.28 +0.00    +0.026    14.329
ATOM     17  C   UNL d   1       2.057  15.365  -1.788 -0.21 -0.00    +0.109    14.329
ATOM     18  C   UNL d   1       3.757  19.985   2.243 -0.09 +0.00    +0.050    14.329
ATOM     19  C   UNL d   1       2.437  19.648   2.637 -0.14 +0.00    +0.045    14.329
ATOM     20  C   UNL d   1      -0.144  16.208  -1.163 -0.22 +0.00    +0.045    14.329
ATOM     21  C   UNL d   1       0.596  15.419  -1.948 -0.32 +0.00    +0.057    14.329
ATOM     22  C   UNL d   1      -1.973  17.262  -0.291 -0.22 -0.00    -0.019    14.329
ATOM     23  C   UNL d   1      -0.777  17.681   0.466 -0.22 +0.01    +0.045    14.329
ATOM     24  C   UNL d   1      -1.592  16.389  -1.253 -0.25 -0.00    -0.022    14.329
ATOM     25  C   UNL d   1       0.318  18.935   2.294 -0.21 +0.01    +0.049    14.329
ATOM     26  C   UNL d   1       1.756  19.815   3.832 -0.15 -0.00    -0.018    14.329
ATOM     27  C   UNL d   1       0.424  19.344   3.616 -0.21 +0.00    +0.003    14.329
ATOM     28  C   UNL d   1      -0.794  18.528   1.507 -0.24 +0.01    +0.052    14.329
ATOM     29  C   UNL d   1      -2.436  15.683  -2.260 -0.29 +0.01    +0.046    14.329
ATOM     30  C   UNL d   1       2.307  20.374   5.100 -0.10 +0.00    +0.046    14.329
ATOM     31  H   UNL d   1       1.220  17.003   0.200 +0.03 +0.01    +0.166    14.329
ATOM     32  H   UNL d   1       1.808  18.885   0.769 +0.03 +0.01    +0.166    14.329
ATOM     33  C   UNL d   1       6.891  19.683   2.265 -0.02 +0.00    +0.141    14.329
ATOM     34  C   UNL d   1       7.114  18.295   2.802 -0.03 +0.00    +0.306    14.329
ATOM     35  O   UNL d   1       6.376  17.689   3.560 -0.07 -0.00    -0.251    14.329
ATOM     36  O   UNL d   1       8.254  17.742   2.351 +0.00 -0.00    -0.481    14.329
ATOM     37  H   UNL d   1       8.290  17.988   1.403 +0.02 +0.00    +0.295    14.329
ATOM     38  C   UNL d   1      -0.622  19.350   4.594 -0.23 +0.00    +0.017    14.329
ATOM     39  C   UNL d   1      -0.586  18.704   5.770 -0.25 +0.02    +0.092    14.329
ATOM     40  C   UNL d   1      -1.719  18.805   6.693 -0.13 +0.04    +0.330    14.329
ATOM     41  O   UNL d   1      -2.159  17.941   7.428 -0.22 -0.03    -0.246    14.329
ATOM     42  O   UNL d   1      -2.248  20.037   6.643 -0.01 -0.04    -0.477    14.329
ATOM     43  H   UNL d   1      -2.229  20.339   7.574 +0.04 +0.02    +0.295    14.329
ATOM     44  C   UNL d   1       5.110  14.706  -3.447 -0.13 +0.00    +0.141    14.329
ATOM     45  C   UNL d   1       4.295  15.242  -4.593 -0.07 -0.04    +0.306    14.329
ATOM     46  O   UNL d   1       3.950  16.399  -4.760 -0.03 +0.02    -0.251    14.329
ATOM     47  O   UNL d   1       3.930  14.280  -5.460 -0.11 +0.26    -0.481    14.329
ATOM     48  H   UNL d   1       3.461  13.617  -4.911 -0.43 -0.36    +0.295    14.329
ATOM     49  C   UNL d   1      -3.362  17.760  -0.016 -0.23 +0.02    +0.048    14.329
ATOM     50  C   UNL d   1      -3.972  18.446  -1.238 -0.10 +0.06    +0.125    14.329
ATOM     51  C   UNL d   1      -5.395  18.009  -1.444 +0.00 +0.28    +0.305    14.329
ATOM     52  O   UNL d   1      -6.402  18.517  -0.984 -0.58 -0.29    -0.251    14.329
ATOM     53  O   UNL d   1      -5.478  16.917  -2.229 -1.04 -0.49    -0.481    14.329
ATOM     54  H   UNL d   1      -5.683  17.277  -3.117 +0.06 +0.20    +0.295    14.329
TER
ENDMDL
MODEL       79
USER    Run = 79
USER    Cluster Rank = 21
USER    Number of conformations in this cluster = 1
USER  
USER    RMSD from reference structure       = 17.531 A
USER  
USER    Estimated Free Energy of Binding    =   -4.64 kcal/mol  [=(1)+(2)+(3)-(4)]
USER    Estimated Inhibition Constant, Ki   =  398.72 uM (micromolar)  [Temperature = 298.15 K]
USER    
USER    (1) Final Intermolecular Energy     =   -8.52 kcal/mol
USER        vdW + Hbond + desolv Energy     =   -8.17 kcal/mol
USER        Electrostatic Energy            =   -0.35 kcal/mol
USER    (2) Final Total Internal Energy     =   -1.64 kcal/mol
USER    (3) Torsional Free Energy           =   +3.88 kcal/mol
USER    (4) Unbound System's Energy  [=(2)] =   -1.64 kcal/mol
USER    
USER    
USER  
USER    DPF = D:/Protein_go_brrr/autodock/final/mut_D99N/heme/dock.dpf
USER    NEWDPF move	heme_opt.pdbqt
USER    NEWDPF about	0.153000 0.018000 -0.028000
USER    NEWDPF tran0	-11.747212 13.707002 -11.854374
USER    NEWDPF axisangle0	-0.216354 -0.851850 0.477013 133.838631
USER    NEWDPF quaternion0	-0.199036 -0.783663 0.438830 0.392027
USER    NEWDPF dihe0	-96.57 -54.66 -148.61 170.49 30.88 -119.49 -51.26 94.31 125.86 115.15 -79.00 -94.89 -178.71 
USER  
USER                              x       y       z    vdW   Elec        q     RMS 
ATOM      1  O   UNL d   1      -6.912  14.245  -8.524 -0.16 -0.01    -0.289    17.531
ATOM      2  O   UNL d   1     -13.991  12.529  -6.695 -0.80 +0.04    -0.289    17.531
ATOM      3  N   UNL d   1      -9.474  14.179 -10.832 -0.10 +0.04    -0.247    17.531
ATOM      4  N   UNL d   1     -11.773  13.126  -9.271 -0.16 +0.04    -0.247    17.531
ATOM      5  N   UNL d   1     -13.153  12.710 -11.759 -0.11 +0.15    -0.354    17.531
ATOM      6  N   UNL d   1     -10.756  13.786 -13.372 +0.06 +0.18    -0.354    17.531
ATOM      7  C   UNL d   1      -7.045  14.478 -10.954 -0.09 -0.00    +0.084    17.531
ATOM      8  C   UNL d   1     -11.748  13.497  -6.856 -0.26 -0.01    +0.084    17.531
ATOM      9  C   UNL d   1     -11.037  13.601  -8.209 -0.19 -0.00    +0.058    17.531
ATOM     10  C   UNL d   1      -8.394  14.386 -11.673 -0.13 -0.01    +0.058    17.531
ATOM     11  C   UNL d   1      -7.557  14.305  -9.555 -0.11 -0.00    +0.193    17.531
ATOM     12  C   UNL d   1      -9.046  14.159  -9.612 -0.15 -0.01    +0.109    17.531
ATOM     13  C   UNL d   1     -13.009  12.840  -7.342 -0.25 -0.03    +0.193    17.531
ATOM     14  C   UNL d   1      -6.130  13.300 -11.295 -0.21 -0.00    +0.026    17.531
ATOM     15  C   UNL d   1      -9.785  14.068  -8.337 -0.22 -0.00    +0.055    17.531
ATOM     16  C   UNL d   1     -12.098  14.877  -6.291 -0.19 -0.00    +0.026    17.531
ATOM     17  C   UNL d   1     -12.895  12.663  -8.821 -0.23 -0.02    +0.109    17.531
ATOM     18  C   UNL d   1      -8.498  14.584 -13.000 -0.14 -0.01    +0.050    17.531
ATOM     19  C   UNL d   1      -9.710  14.602 -13.737 -0.12 -0.01    +0.045    17.531
ATOM     20  C   UNL d   1     -14.002  12.054 -10.906 -0.23 -0.02    +0.045    17.531
ATOM     21  C   UNL d   1     -13.973  12.002  -9.571 -0.15 -0.02    +0.057    17.531
ATOM     22  C   UNL d   1     -14.684  11.686 -13.055 -0.21 +0.01    -0.019    17.531
ATOM     23  C   UNL d   1     -13.484  12.546 -13.078 -0.18 -0.03    +0.045    17.531
ATOM     24  C   UNL d   1     -14.987  11.399 -11.767 -0.21 +0.01    -0.022    17.531
ATOM     25  C   UNL d   1     -11.792  13.896 -14.271 -0.13 -0.02    +0.049    17.531
ATOM     26  C   UNL d   1     -10.088  15.287 -14.881 -0.07 +0.00    -0.018    17.531
ATOM     27  C   UNL d   1     -11.411  14.852 -15.202 -0.08 -0.00    +0.003    17.531
ATOM     28  C   UNL d   1     -12.920  13.035 -14.192 -0.17 -0.03    +0.052    17.531
ATOM     29  C   UNL d   1     -16.112  10.579 -11.233 -0.21 -0.03    +0.046    17.531
ATOM     30  C   UNL d   1      -9.274  16.286 -15.631 -0.02 -0.01    +0.046    17.531
ATOM     31  H   UNL d   1     -12.415  13.311 -11.408 +0.03 -0.06    +0.166    17.531
ATOM     32  H   UNL d   1     -10.731  13.166 -12.571 -0.52 -0.12    +0.166    17.531
ATOM     33  C   UNL d   1      -6.314  15.818 -11.097 -0.02 -0.00    +0.141    17.531
ATOM     34  C   UNL d   1      -5.077  15.897 -10.244 -0.01 -0.01    +0.306    17.531
ATOM     35  O   UNL d   1      -3.968  15.488 -10.544 -0.02 +0.01    -0.251    17.531
ATOM     36  O   UNL d   1      -5.302  16.490  -9.058 -0.00 -0.00    -0.481    17.531
ATOM     37  H   UNL d   1      -5.695  15.786  -8.500 +0.07 +0.00    +0.295    17.531
ATOM     38  C   UNL d   1     -12.177  15.301 -16.326 -0.04 -0.00    +0.017    17.531
ATOM     39  C   UNL d   1     -12.675  14.510 -17.289 -0.05 -0.04    +0.092    17.531
ATOM     40  C   UNL d   1     -13.460  15.094 -18.379 +0.00 -0.09    +0.330    17.531
ATOM     41  O   UNL d   1     -14.605  14.831 -18.696 -0.00 +0.06    -0.246    17.531
ATOM     42  O   UNL d   1     -12.734  16.018 -19.028 +0.01 +0.08    -0.477    17.531
ATOM     43  H   UNL d   1     -12.765  15.727 -19.962 +0.01 -0.05    +0.295    17.531
ATOM     44  C   UNL d   1     -11.047  12.629  -5.806 -0.41 -0.01    +0.141    17.531
ATOM     45  C   UNL d   1      -9.721  13.188  -5.362 -0.33 -0.01    +0.306    17.531
ATOM     46  O   UNL d   1      -8.624  12.890  -5.800 -0.40 -0.01    -0.251    17.531
ATOM     47  O   UNL d   1      -9.848  14.080  -4.363 -0.12 +0.02    -0.481    17.531
ATOM     48  H   UNL d   1     -10.640  13.785  -3.866 -0.21 -0.07    +0.295    17.531
ATOM     49  C   UNL d   1     -15.408  11.217 -14.283 -0.17 -0.03    +0.048    17.531
ATOM     50  C   UNL d   1     -14.991   9.802 -14.684 -0.20 -0.14    +0.125    17.531
ATOM     51  C   UNL d   1     -16.025   8.798 -14.261 -0.11 -0.22    +0.305    17.531
ATOM     52  O   UNL d   1     -17.005   8.432 -14.887 -0.04 +0.12    -0.251    17.531
ATOM     53  O   UNL d   1     -15.773   8.300 -13.034 -0.07 +0.39    -0.481    17.531
ATOM     54  H   UNL d   1     -14.873   8.628 -12.825 -0.34 -0.35    +0.295    17.531
TER
ENDMDL
MODEL       29
USER    Run = 29
USER    Cluster Rank = 22
USER    Number of conformations in this cluster = 1
USER  
USER    RMSD from reference structure       = 12.494 A
USER  
USER    Estimated Free Energy of Binding    =   -4.60 kcal/mol  [=(1)+(2)+(3)-(4)]
USER    Estimated Inhibition Constant, Ki   =  425.70 uM (micromolar)  [Temperature = 298.15 K]
USER    
USER    (1) Final Intermolecular Energy     =   -8.48 kcal/mol
USER        vdW + Hbond + desolv Energy     =   -8.25 kcal/mol
USER        Electrostatic Energy            =   -0.23 kcal/mol
USER    (2) Final Total Internal Energy     =   -3.10 kcal/mol
USER    (3) Torsional Free Energy           =   +3.88 kcal/mol
USER    (4) Unbound System's Energy  [=(2)] =   -3.10 kcal/mol
USER    
USER    
USER  
USER    DPF = D:/Protein_go_brrr/autodock/final/mut_D99N/heme/dock.dpf
USER    NEWDPF move	heme_opt.pdbqt
USER    NEWDPF about	0.153000 0.018000 -0.028000
USER    NEWDPF tran0	16.226408 -0.451532 3.302592
USER    NEWDPF axisangle0	-0.826638 0.398183 -0.397643 -103.936337
USER    NEWDPF quaternion0	-0.651117 0.313636 -0.313211 -0.616099
USER    NEWDPF dihe0	-158.07 97.50 -68.75 13.34 48.25 -147.26 130.74 110.93 163.86 -53.71 -51.60 -107.22 4.39 
USER  
USER                              x       y       z    vdW   Elec        q     RMS 
ATOM      1  O   UNL d   1      13.297   4.324   1.467 +0.10 +0.00    -0.289    12.494
ATOM      2  O   UNL d   1      13.468   0.916   8.156 -0.13 -0.05    -0.289    12.494
ATOM      3  N   UNL d   1      15.082   1.430   2.044 -0.10 -0.00    -0.247    12.494
ATOM      4  N   UNL d   1      14.798   1.025   4.974 -0.14 -0.01    -0.247    12.494
ATOM      5  N   UNL d   1      16.912  -0.918   4.817 -0.09 +0.01    -0.354    12.494
ATOM      6  N   UNL d   1      17.213  -0.477   1.781 -0.04 +0.01    -0.354    12.494
ATOM      7  C   UNL d   1      14.866   2.982   0.159 -0.13 +0.00    +0.084    12.494
ATOM      8  C   UNL d   1      12.818   1.974   6.047 -0.27 +0.02    +0.084    12.494
ATOM      9  C   UNL d   1      13.681   1.809   4.791 -0.25 +0.00    +0.058    12.494
ATOM     10  C   UNL d   1      15.494   1.717   0.753 -0.14 -0.00    +0.058    12.494
ATOM     11  C   UNL d   1      14.013   3.348   1.335 -0.06 +0.00    +0.193    12.494
ATOM     12  C   UNL d   1      14.212   2.317   2.403 -0.18 +0.00    +0.109    12.494
ATOM     13  C   UNL d   1      13.673   1.169   6.985 -0.14 +0.03    +0.193    12.494
ATOM     14  C   UNL d   1      15.902   4.087  -0.064 -0.05 +0.00    +0.026    12.494
ATOM     15  C   UNL d   1      13.397   2.419   3.630 -0.24 +0.00    +0.055    12.494
ATOM     16  C   UNL d   1      11.461   1.280   5.899 -0.39 +0.00    +0.026    12.494
ATOM     17  C   UNL d   1      14.844   0.656   6.213 -0.19 +0.01    +0.109    12.494
ATOM     18  C   UNL d   1      16.303   0.925   0.025 -0.19 -0.00    +0.050    12.494
ATOM     19  C   UNL d   1      16.861  -0.304   0.461 -0.17 -0.00    +0.045    12.494
ATOM     20  C   UNL d   1      16.798  -0.804   6.178 -0.18 +0.00    +0.045    12.494
ATOM     21  C   UNL d   1      15.883  -0.136   6.889 -0.19 +0.01    +0.057    12.494
ATOM     22  C   UNL d   1      18.610  -2.108   5.696 -0.09 -0.00    -0.019    12.494
ATOM     23  C   UNL d   1      17.977  -1.687   4.430 -0.14 -0.00    +0.045    12.494
ATOM     24  C   UNL d   1      17.906  -1.583   6.727 -0.11 +0.00    -0.022    12.494
ATOM     25  C   UNL d   1      17.814  -1.701   1.963 -0.18 -0.00    +0.049    12.494
ATOM     26  C   UNL d   1      17.208  -1.458  -0.223 -0.28 +0.00    -0.018    12.494
ATOM     27  C   UNL d   1      17.792  -2.345   0.734 -0.30 -0.00    +0.003    12.494
ATOM     28  C   UNL d   1      18.405  -2.044   3.210 -0.18 -0.00    +0.052    12.494
ATOM     29  C   UNL d   1      18.144  -1.733   8.191 -0.08 +0.00    +0.046    12.494
ATOM     30  C   UNL d   1      17.009  -1.725  -1.677 -0.38 -0.02    +0.046    12.494
ATOM     31  H   UNL d   1      16.212  -0.527   4.195 +0.06 -0.01    +0.166    12.494
ATOM     32  H   UNL d   1      17.077   0.229   2.494 +0.05 -0.00    +0.166    12.494
ATOM     33  C   UNL d   1      14.001   2.762  -1.086 -0.19 +0.00    +0.141    12.494
ATOM     34  C   UNL d   1      14.038   3.933  -2.031 -0.08 +0.02    +0.306    12.494
ATOM     35  O   UNL d   1      14.675   4.002  -3.068 -0.30 -0.03    -0.251    12.494
ATOM     36  O   UNL d   1      13.267   4.955  -1.620 -0.02 -0.01    -0.481    12.494
ATOM     37  H   UNL d   1      13.131   4.793  -0.662 +0.04 -0.00    +0.295    12.494
ATOM     38  C   UNL d   1      18.305  -3.650   0.444 -0.40 -0.00    +0.017    12.494
ATOM     39  C   UNL d   1      19.603  -3.990   0.449 -0.31 -0.01    +0.092    12.494
ATOM     40  C   UNL d   1      19.997  -5.369   0.152 -0.21 -0.04    +0.330    12.494
ATOM     41  O   UNL d   1      20.961  -5.976   0.578 -0.18 -0.02    -0.246    12.494
ATOM     42  O   UNL d   1      19.115  -5.930  -0.691 -0.32 +0.14    -0.477    12.494
ATOM     43  H   UNL d   1      18.388  -6.227  -0.106 -0.39 -0.17    +0.295    12.494
ATOM     44  C   UNL d   1      12.654   3.412   6.551 -0.16 +0.05    +0.141    12.494
ATOM     45  C   UNL d   1      13.501   3.719   7.756 -0.05 +0.10    +0.306    12.494
ATOM     46  O   UNL d   1      14.658   4.102   7.753 -0.01 -0.04    -0.251    12.494
ATOM     47  O   UNL d   1      12.849   3.501   8.913 -0.38 -0.34    -0.481    12.494
ATOM     48  H   UNL d   1      13.291   2.716   9.302 +0.06 +0.15    +0.295    12.494
ATOM     49  C   UNL d   1      19.840  -2.963   5.779 -0.08 +0.00    +0.048    12.494
ATOM     50  C   UNL d   1      19.520  -4.442   5.561 -0.14 +0.02    +0.125    12.494
ATOM     51  C   UNL d   1      20.425  -5.038   4.520 -0.15 +0.07    +0.305    12.494
ATOM     52  O   UNL d   1      21.374  -5.781   4.698 -0.16 -0.10    -0.251    12.494
ATOM     53  O   UNL d   1      20.086  -4.649   3.275 -0.11 -0.06    -0.481    12.494
ATOM     54  H   UNL d   1      20.592  -5.252   2.691 +0.09 +0.04    +0.295    12.494
TER
ENDMDL
MODEL       97
USER    Run = 97
USER    Cluster Rank = 23
USER    Number of conformations in this cluster = 2
USER  
USER    RMSD from reference structure       = 19.883 A
USER  
USER    Estimated Free Energy of Binding    =   -4.45 kcal/mol  [=(1)+(2)+(3)-(4)]
USER    Estimated Inhibition Constant, Ki   =  551.56 uM (micromolar)  [Temperature = 298.15 K]
USER    
USER    (1) Final Intermolecular Energy     =   -8.32 kcal/mol
USER        vdW + Hbond + desolv Energy     =   -8.28 kcal/mol
USER        Electrostatic Energy            =   -0.05 kcal/mol
USER    (2) Final Total Internal Energy     =   -2.85 kcal/mol
USER    (3) Torsional Free Energy           =   +3.88 kcal/mol
USER    (4) Unbound System's Energy  [=(2)] =   -2.85 kcal/mol
USER    
USER    
USER  
USER    DPF = D:/Protein_go_brrr/autodock/final/mut_D99N/heme/dock.dpf
USER    NEWDPF move	heme_opt.pdbqt
USER    NEWDPF about	0.153000 0.018000 -0.028000
USER    NEWDPF tran0	0.590763 15.307261 16.074612
USER    NEWDPF axisangle0	-0.151972 -0.755609 -0.637149 178.508126
USER    NEWDPF quaternion0	-0.151959 -0.755545 -0.637095 0.013019
USER    NEWDPF dihe0	116.16 12.04 -160.30 -45.07 -132.50 -144.61 132.59 102.29 42.49 -13.57 169.64 -35.55 -3.72 
USER  
USER                              x       y       z    vdW   Elec        q     RMS 
ATOM      1  O   UNL d   1       6.439  14.787  16.610 -0.05 +0.01    -0.289    19.883
ATOM      2  O   UNL d   1       1.755  12.451  11.225 -0.42 +0.06    -0.289    19.883
ATOM      3  N   UNL d   1       3.021  15.207  16.795 -0.11 +0.07    -0.247    19.883
ATOM      4  N   UNL d   1       2.072  14.270  14.140 -0.16 +0.06    -0.247    19.883
ATOM      5  N   UNL d   1      -0.470  15.481  14.724 -0.11 +0.09    -0.354    19.883
ATOM      6  N   UNL d   1       0.529  16.466  17.469 -0.07 +0.09    -0.354    19.883
ATOM      7  C   UNL d   1       4.929  15.938  18.149 -0.06 -0.01    +0.084    19.883
ATOM      8  C   UNL d   1       3.464  12.640  12.967 -0.38 -0.01    +0.084    19.883
ATOM      9  C   UNL d   1       3.267  13.586  14.156 -0.29 -0.01    +0.058    19.883
ATOM     10  C   UNL d   1       3.415  15.922  17.914 -0.13 -0.01    +0.058    19.883
ATOM     11  C   UNL d   1       5.318  15.090  16.975 -0.08 -0.01    +0.193    19.883
ATOM     12  C   UNL d   1       4.072  14.689  16.249 -0.18 -0.01    +0.109    19.883
ATOM     13  C   UNL d   1       2.177  12.943  12.253 -0.36 -0.03    +0.193    19.883
ATOM     14  C   UNL d   1       5.523  17.337  17.969 -0.02 -0.00    +0.026    19.883
ATOM     15  C   UNL d   1       4.201  13.768  15.102 -0.22 -0.00    +0.055    19.883
ATOM     16  C   UNL d   1       3.454  11.172  13.401 -0.33 -0.00    +0.026    19.883
ATOM     17  C   UNL d   1       1.428  13.950  13.064 -0.31 -0.02    +0.109    19.883
ATOM     18  C   UNL d   1       2.562  16.486  18.789 -0.12 -0.01    +0.050    19.883
ATOM     19  C   UNL d   1       1.147  16.449  18.698 -0.15 -0.01    +0.045    19.883
ATOM     20  C   UNL d   1      -0.653  15.177  13.400 -0.28 -0.01    +0.045    19.883
ATOM     21  C   UNL d   1       0.139  14.472  12.585 -0.33 -0.01    +0.057    19.883
ATOM     22  C   UNL d   1      -2.430  16.414  14.125 -0.13 +0.00    -0.019    19.883
ATOM     23  C   UNL d   1      -1.491  16.226  15.249 -0.16 -0.01    +0.045    19.883
ATOM     24  C   UNL d   1      -1.929  15.789  13.034 -0.20 +0.01    -0.022    19.883
ATOM     25  C   UNL d   1      -0.838  16.515  17.616 -0.07 -0.01    +0.049    19.883
ATOM     26  C   UNL d   1       0.157  16.449  19.669 -0.15 +0.00    -0.018    19.883
ATOM     27  C   UNL d   1      -1.095  16.472  18.979 -0.05 -0.00    +0.003    19.883
ATOM     28  C   UNL d   1      -1.686  16.698  16.490 -0.13 -0.01    +0.052    19.883
ATOM     29  C   UNL d   1      -2.514  15.686  11.666 -0.24 -0.01    +0.046    19.883
ATOM     30  C   UNL d   1       0.358  16.428  21.146 -0.09 -0.01    +0.046    19.883
ATOM     31  H   UNL d   1       0.314  15.105  15.247 -0.45 -0.08    +0.166    19.883
ATOM     32  H   UNL d   1       1.031  16.482  16.589 -0.07 -0.05    +0.166    19.883
ATOM     33  C   UNL d   1       5.397  15.292  19.458 -0.06 -0.01    +0.141    19.883
ATOM     34  C   UNL d   1       5.691  13.824  19.306 -0.09 -0.03    +0.306    19.883
ATOM     35  O   UNL d   1       4.868  12.925  19.267 -0.18 +0.01    -0.251    19.883
ATOM     36  O   UNL d   1       7.007  13.566  19.211 -0.01 +0.05    -0.481    19.883
ATOM     37  H   UNL d   1       7.276  13.970  18.358 +0.04 -0.02    +0.295    19.883
ATOM     38  C   UNL d   1      -2.382  16.495  19.606 -0.06 -0.00    +0.017    19.883
ATOM     39  C   UNL d   1      -3.558  16.494  18.960 -0.06 -0.01    +0.092    19.883
ATOM     40  C   UNL d   1      -4.809  16.502  19.722 -0.02 -0.05    +0.330    19.883
ATOM     41  O   UNL d   1      -5.864  15.974  19.425 -0.03 +0.05    -0.246    19.883
ATOM     42  O   UNL d   1      -4.652  17.192  20.862 +0.01 +0.06    -0.477    19.883
ATOM     43  H   UNL d   1      -5.455  16.978  21.379 +0.02 -0.04    +0.295    19.883
ATOM     44  C   UNL d   1       4.671  12.946  12.073 -0.29 -0.02    +0.141    19.883
ATOM     45  C   UNL d   1       4.581  14.284  11.389 -0.16 -0.05    +0.306    19.883
ATOM     46  O   UNL d   1       4.969  15.352  11.829 -0.07 +0.02    -0.251    19.883
ATOM     47  O   UNL d   1       3.976  14.209  10.190 -0.09 +0.11    -0.481    19.883
ATOM     48  H   UNL d   1       3.485  13.360  10.212 -0.38 -0.14    +0.295    19.883
ATOM     49  C   UNL d   1      -3.710  17.191  14.217 -0.05 -0.01    +0.048    19.883
ATOM     50  C   UNL d   1      -4.872  16.321  14.697 -0.06 -0.02    +0.125    19.883
ATOM     51  C   UNL d   1      -4.478  14.871  14.728 -0.15 -0.07    +0.305    19.883
ATOM     52  O   UNL d   1      -4.077  14.230  15.683 -0.23 +0.05    -0.251    19.883
ATOM     53  O   UNL d   1      -4.601  14.289  13.518 -0.10 +0.16    -0.481    19.883
ATOM     54  H   UNL d   1      -3.770  13.780  13.413 -0.38 -0.18    +0.295    19.883
TER
ENDMDL
MODEL        3
USER    Run = 3
USER    Cluster Rank = 24
USER    Number of conformations in this cluster = 2
USER  
USER    RMSD from reference structure       = 14.753 A
USER  
USER    Estimated Free Energy of Binding    =   -4.40 kcal/mol  [=(1)+(2)+(3)-(4)]
USER    Estimated Inhibition Constant, Ki   =  596.78 uM (micromolar)  [Temperature = 298.15 K]
USER    
USER    (1) Final Intermolecular Energy     =   -8.28 kcal/mol
USER        vdW + Hbond + desolv Energy     =   -8.18 kcal/mol
USER        Electrostatic Energy            =   -0.10 kcal/mol
USER    (2) Final Total Internal Energy     =   -3.20 kcal/mol
USER    (3) Torsional Free Energy           =   +3.88 kcal/mol
USER    (4) Unbound System's Energy  [=(2)] =   -3.20 kcal/mol
USER    
USER    
USER  
USER    DPF = D:/Protein_go_brrr/autodock/final/mut_D99N/heme/dock.dpf
USER    NEWDPF move	heme_opt.pdbqt
USER    NEWDPF about	0.153000 0.018000 -0.028000
USER    NEWDPF tran0	19.127555 -2.881740 2.555725
USER    NEWDPF axisangle0	0.870984 0.073426 -0.485795 -113.935067
USER    NEWDPF quaternion0	0.730199 0.061557 -0.407272 -0.545114
USER    NEWDPF dihe0	122.85 -111.99 116.10 -6.88 -131.01 -111.38 -55.05 175.75 33.59 -136.99 -67.28 -13.38 44.76 
USER  
USER                              x       y       z    vdW   Elec        q     RMS 
ATOM      1  O   UNL d   1      15.980  -2.116   7.482 -0.55 -0.02    -0.289    14.753
ATOM      2  O   UNL d   1      15.618   1.325   0.816 -0.09 +0.00    -0.289    14.753
ATOM      3  N   UNL d   1      18.153  -2.818   4.896 -0.12 +0.01    -0.247    14.753
ATOM      4  N   UNL d   1      17.061  -1.228   2.636 -0.12 +0.01    -0.247    14.753
ATOM      5  N   UNL d   1      18.762  -2.736   0.875 -0.08 +0.04    -0.354    14.753
ATOM      6  N   UNL d   1      19.875  -4.394   3.224 -0.09 -0.03    -0.354    14.753
ATOM      7  C   UNL d   1      17.746  -3.766   7.119 -0.17 -0.01    +0.084    14.753
ATOM      8  C   UNL d   1      15.765   0.766   3.195 -0.15 -0.00    +0.084    14.753
ATOM      9  C   UNL d   1      16.504  -0.493   3.659 -0.19 -0.00    +0.058    14.753
ATOM     10  C   UNL d   1      18.530  -3.793   5.804 -0.15 +0.00    +0.058    14.753
ATOM     11  C   UNL d   1      16.871  -2.591   6.802 -0.21 -0.01    +0.193    14.753
ATOM     12  C   UNL d   1      17.231  -2.089   5.438 -0.20 -0.01    +0.109    14.753
ATOM     13  C   UNL d   1      15.973   0.590   1.717 -0.06 -0.00    +0.193    14.753
ATOM     14  C   UNL d   1      16.866  -5.008   7.289 -0.28 -0.01    +0.026    14.753
ATOM     15  C   UNL d   1      16.559  -0.871   4.945 -0.25 -0.00    +0.055    14.753
ATOM     16  C   UNL d   1      16.481   2.044   3.644 -0.06 +0.00    +0.026    14.753
ATOM     17  C   UNL d   1      16.766  -0.659   1.511 -0.10 -0.00    +0.109    14.753
ATOM     18  C   UNL d   1      19.555  -4.645   5.613 -0.17 +0.01    +0.050    14.753
ATOM     19  C   UNL d   1      20.388  -4.686   4.467 -0.20 +0.01    +0.045    14.753
ATOM     20  C   UNL d   1      17.991  -2.078  -0.048 -0.24 -0.01    +0.045    14.753
ATOM     21  C   UNL d   1      17.087  -1.113   0.150 -0.26 -0.01    +0.057    14.753
ATOM     22  C   UNL d   1      19.308  -3.597  -1.133 -0.31 +0.00    -0.019    14.753
ATOM     23  C   UNL d   1      19.588  -3.673   0.314 -0.26 -0.01    +0.045    14.753
ATOM     24  C   UNL d   1      18.362  -2.650  -1.342 -0.25 +0.01    -0.022    14.753
ATOM     25  C   UNL d   1      20.828  -4.582   2.250 -0.22 +0.00    +0.049    14.753
ATOM     26  C   UNL d   1      21.719  -5.037   4.301 -0.18 -0.01    -0.018    14.753
ATOM     27  C   UNL d   1      21.997  -4.951   2.902 -0.19 +0.00    +0.003    14.753
ATOM     28  C   UNL d   1      20.491  -4.494   0.872 -0.29 -0.00    +0.052    14.753
ATOM     29  C   UNL d   1      17.760  -2.201  -2.629 -0.47 -0.01    +0.046    14.753
ATOM     30  C   UNL d   1      22.677  -5.427   5.376 -0.13 +0.02    +0.046    14.753
ATOM     31  H   UNL d   1      18.751  -2.471   1.854 +0.06 -0.01    +0.166    14.753
ATOM     32  H   UNL d   1      18.912  -4.120   3.065 +0.06 +0.00    +0.166    14.753
ATOM     33  C   UNL d   1      18.580  -3.492   8.376 -0.05 -0.00    +0.141    14.753
ATOM     34  C   UNL d   1      18.857  -2.027   8.579 -0.01 +0.00    +0.306    14.753
ATOM     35  O   UNL d   1      19.678  -1.359   7.973 -0.01 -0.01    -0.251    14.753
ATOM     36  O   UNL d   1      18.082  -1.480   9.532 -0.01 -0.00    -0.481    14.753
ATOM     37  H   UNL d   1      17.165  -1.619   9.214 +0.05 +0.00    +0.295    14.753
ATOM     38  C   UNL d   1      23.258  -5.246   2.291 -0.15 +0.01    +0.017    14.753
ATOM     39  C   UNL d   1      23.674  -4.772   1.107 -0.08 +0.02    +0.092    14.753
ATOM     40  C   UNL d   1      24.999  -5.138   0.600 -0.02 +0.06    +0.330    14.753
ATOM     41  O   UNL d   1      25.959  -4.410   0.434 -0.01 -0.03    -0.246    14.753
ATOM     42  O   UNL d   1      25.043  -6.452   0.329 -0.01 -0.12    -0.477    14.753
ATOM     43  H   UNL d   1      24.440  -6.554  -0.436 +0.05 +0.06    +0.295    14.753
ATOM     44  C   UNL d   1      14.272   0.819   3.537 -0.29 -0.00    +0.141    14.753
ATOM     45  C   UNL d   1      13.632   2.140   3.201 -0.14 +0.02    +0.306    14.753
ATOM     46  O   UNL d   1      13.399   3.052   3.975 -0.15 -0.02    -0.251    14.753
ATOM     47  O   UNL d   1      13.290   2.231   1.903 -0.10 -0.03    -0.481    14.753
ATOM     48  H   UNL d   1      14.143   2.204   1.420 +0.11 +0.01    +0.295    14.753
ATOM     49  C   UNL d   1      19.972  -4.459  -2.167 -0.31 -0.00    +0.048    14.753
ATOM     50  C   UNL d   1      21.452  -4.679  -1.857 -0.22 +0.01    +0.125    14.753
ATOM     51  C   UNL d   1      21.723  -6.120  -1.527 -0.19 +0.02    +0.305    14.753
ATOM     52  O   UNL d   1      22.807  -6.664  -1.408 -0.10 -0.03    -0.251    14.753
ATOM     53  O   UNL d   1      20.584  -6.824  -1.373 -0.18 +0.04    -0.481    14.753
ATOM     54  H   UNL d   1      20.888  -7.751  -1.284 -0.44 -0.06    +0.295    14.753
TER
ENDMDL
MODEL        9
USER    Run = 9
USER    Cluster Rank = 25
USER    Number of conformations in this cluster = 1
USER  
USER    RMSD from reference structure       = 10.325 A
USER  
USER    Estimated Free Energy of Binding    =   -4.40 kcal/mol  [=(1)+(2)+(3)-(4)]
USER    Estimated Inhibition Constant, Ki   =  597.78 uM (micromolar)  [Temperature = 298.15 K]
USER    
USER    (1) Final Intermolecular Energy     =   -8.28 kcal/mol
USER        vdW + Hbond + desolv Energy     =   -7.93 kcal/mol
USER        Electrostatic Energy            =   -0.35 kcal/mol
USER    (2) Final Total Internal Energy     =   -2.44 kcal/mol
USER    (3) Torsional Free Energy           =   +3.88 kcal/mol
USER    (4) Unbound System's Energy  [=(2)] =   -2.44 kcal/mol
USER    
USER    
USER  
USER    DPF = D:/Protein_go_brrr/autodock/final/mut_D99N/heme/dock.dpf
USER    NEWDPF move	heme_opt.pdbqt
USER    NEWDPF about	0.153000 0.018000 -0.028000
USER    NEWDPF tran0	13.314928 3.481963 1.505936
USER    NEWDPF axisangle0	0.524020 -0.849926 -0.055035 95.964997
USER    NEWDPF quaternion0	0.389315 -0.631444 -0.040888 0.669358
USER    NEWDPF dihe0	178.79 -59.57 109.50 171.19 -155.09 -178.51 -53.71 140.18 8.08 -128.42 97.10 -170.36 167.72 
USER  
USER                              x       y       z    vdW   Elec        q     RMS 
ATOM      1  O   UNL d   1      11.801   7.476   5.569 -0.03 -0.04    -0.289    10.325
ATOM      2  O   UNL d   1      14.149   0.378   6.271 -0.22 -0.03    -0.289    10.325
ATOM      3  N   UNL d   1      12.451   5.447   2.857 +0.10 -0.01    -0.247    10.325
ATOM      4  N   UNL d   1      13.589   2.997   4.095 -0.11 -0.02    -0.247    10.325
ATOM      5  N   UNL d   1      14.459   2.190   1.476 -0.09 -0.00    -0.354    10.325
ATOM      6  N   UNL d   1      13.293   4.744   0.203 +0.02 +0.00    -0.354    10.325
ATOM      7  C   UNL d   1      11.872   7.810   3.149 -0.06 +0.00    +0.084    10.325
ATOM      8  C   UNL d   1      12.938   2.501   6.397 -0.21 +0.02    +0.084    10.325
ATOM      9  C   UNL d   1      12.906   3.455   5.199 -0.16 +0.01    +0.058    10.325
ATOM     10  C   UNL d   1      12.213   6.648   2.212 -0.05 +0.00    +0.058    10.325
ATOM     11  C   UNL d   1      11.942   7.049   4.438 -0.04 +0.02    +0.193    10.325
ATOM     12  C   UNL d   1      12.275   5.623   4.127 -0.08 +0.01    +0.109    10.325
ATOM     13  C   UNL d   1      13.797   1.433   5.781 -0.19 +0.02    +0.193    10.325
ATOM     14  C   UNL d   1      12.960   8.886   3.150 -0.02 +0.00    +0.026    10.325
ATOM     15  C   UNL d   1      12.308   4.656   5.242 -0.15 +0.01    +0.055    10.325
ATOM     16  C   UNL d   1      11.555   1.912   6.691 -0.41 +0.01    +0.026    10.325
ATOM     17  C   UNL d   1      14.130   1.858   4.388 -0.20 +0.00    +0.109    10.325
ATOM     18  C   UNL d   1      12.185   6.793   0.873 -0.05 +0.00    +0.050    10.325
ATOM     19  C   UNL d   1      12.403   5.758  -0.071 +0.17 -0.00    +0.045    10.325
ATOM     20  C   UNL d   1      15.111   1.256   2.238 -0.18 +0.00    +0.045    10.325
ATOM     21  C   UNL d   1      15.002   1.022   3.550 -0.25 +0.00    +0.057    10.325
ATOM     22  C   UNL d   1      15.808   1.057   0.072 -0.19 +0.00    -0.019    10.325
ATOM     23  C   UNL d   1      14.816   2.147   0.154 -0.20 -0.00    +0.045    10.325
ATOM     24  C   UNL d   1      15.977   0.532   1.309 -0.13 +0.00    -0.022    10.325
ATOM     25  C   UNL d   1      13.416   3.904  -0.879 -0.16 +0.00    +0.049    10.325
ATOM     26  C   UNL d   1      11.907   5.550  -1.349 -0.11 -0.00    -0.018    10.325
ATOM     27  C   UNL d   1      12.536   4.368  -1.847 -0.19 +0.00    +0.003    10.325
ATOM     28  C   UNL d   1      14.394   2.872  -0.893 -0.21 +0.00    +0.052    10.325
ATOM     29  C   UNL d   1      16.861  -0.591   1.733 -0.19 -0.00    +0.046    10.325
ATOM     30  C   UNL d   1      10.910   6.396  -2.065 -0.17 +0.00    +0.046    10.325
ATOM     31  H   UNL d   1      13.735   2.780   1.871 +0.04 +0.01    +0.166    10.325
ATOM     32  H   UNL d   1      13.807   4.669   1.073 +0.01 +0.00    +0.166    10.325
ATOM     33  C   UNL d   1      10.478   8.420   2.960 -0.13 +0.01    +0.141    10.325
ATOM     34  C   UNL d   1       9.379   7.400   3.077 -0.17 +0.02    +0.306    10.325
ATOM     35  O   UNL d   1       8.781   6.876   2.152 -0.26 -0.01    -0.251    10.325
ATOM     36  O   UNL d   1       9.092   7.091   4.354 -0.07 -0.06    -0.481    10.325
ATOM     37  H   UNL d   1       9.747   7.595   4.883 +0.11 +0.04    +0.295    10.325
ATOM     38  C   UNL d   1      12.320   3.802  -3.144 -0.25 +0.00    +0.017    10.325
ATOM     39  C   UNL d   1      12.307   4.489  -4.297 -0.19 +0.00    +0.092    10.325
ATOM     40  C   UNL d   1      12.091   3.785  -5.564 -0.11 -0.00    +0.330    10.325
ATOM     41  O   UNL d   1      12.044   4.263  -6.681 -0.15 -0.00    -0.246    10.325
ATOM     42  O   UNL d   1      11.950   2.469  -5.343 -0.58 -0.02    -0.477    10.325
ATOM     43  H   UNL d   1      11.058   2.266  -5.693 -0.31 -0.18    +0.295    10.325
ATOM     44  C   UNL d   1      13.585   3.060   7.669 -0.12 +0.04    +0.141    10.325
ATOM     45  C   UNL d   1      13.630   2.066   8.799 -0.14 +0.10    +0.306    10.325
ATOM     46  O   UNL d   1      12.845   1.984   9.727 -0.54 -0.16    -0.251    10.325
ATOM     47  O   UNL d   1      14.687   1.238   8.713 -0.09 -0.06    -0.481    10.325
ATOM     48  H   UNL d   1      14.480   0.649   7.956 +0.08 +0.05    +0.295    10.325
ATOM     49  C   UNL d   1      16.502   0.643  -1.192 -0.15 -0.01    +0.048    10.325
ATOM     50  C   UNL d   1      17.730   1.509  -1.476 -0.11 -0.01    +0.125    10.325
ATOM     51  C   UNL d   1      17.334   2.798  -2.139 -0.07 -0.00    +0.305    10.325
ATOM     52  O   UNL d   1      17.715   3.922  -1.864 -0.02 -0.00    -0.251    10.325
ATOM     53  O   UNL d   1      16.446   2.602  -3.134 -0.54 -0.05    -0.481    10.325
ATOM     54  H   UNL d   1      16.421   1.628  -3.242 -0.43 -0.05    +0.295    10.325
TER
ENDMDL
MODEL        5
USER    Run = 5
USER    Cluster Rank = 26
USER    Number of conformations in this cluster = 1
USER  
USER    RMSD from reference structure       = 13.493 A
USER  
USER    Estimated Free Energy of Binding    =   -4.31 kcal/mol  [=(1)+(2)+(3)-(4)]
USER    Estimated Inhibition Constant, Ki   =  697.11 uM (micromolar)  [Temperature = 298.15 K]
USER    
USER    (1) Final Intermolecular Energy     =   -8.18 kcal/mol
USER        vdW + Hbond + desolv Energy     =   -7.83 kcal/mol
USER        Electrostatic Energy            =   -0.35 kcal/mol
USER    (2) Final Total Internal Energy     =   -2.26 kcal/mol
USER    (3) Torsional Free Energy           =   +3.88 kcal/mol
USER    (4) Unbound System's Energy  [=(2)] =   -2.26 kcal/mol
USER    
USER    
USER  
USER    DPF = D:/Protein_go_brrr/autodock/final/mut_D99N/heme/dock.dpf
USER    NEWDPF move	heme_opt.pdbqt
USER    NEWDPF about	0.153000 0.018000 -0.028000
USER    NEWDPF tran0	1.679254 5.939774 -13.480260
USER    NEWDPF axisangle0	-0.924876 0.332675 -0.184204 -124.351926
USER    NEWDPF quaternion0	-0.817947 0.294213 -0.162907 -0.466758
USER    NEWDPF dihe0	155.42 114.52 143.83 -119.39 -140.22 85.48 163.41 -53.17 23.10 -10.21 94.67 63.42 -17.21 
USER  
USER                              x       y       z    vdW   Elec        q     RMS 
ATOM      1  O   UNL d   1      -2.868   9.266 -15.217 -0.11 -0.01    -0.289    13.493
ATOM      2  O   UNL d   1       0.364   8.464  -8.487 -0.28 +0.07    -0.289    13.493
ATOM      3  N   UNL d   1      -0.275   7.066 -14.640 -0.06 +0.01    -0.247    13.493
ATOM      4  N   UNL d   1       0.518   7.664 -11.840 -0.01 +0.05    -0.247    13.493
ATOM      5  N   UNL d   1       2.914   6.140 -12.291 -0.10 -0.04    -0.354    13.493
ATOM      6  N   UNL d   1       2.092   5.540 -15.201 +0.04 -0.10    -0.354    13.493
ATOM      7  C   UNL d   1      -1.499   7.813 -16.628 -0.04 +0.01    +0.084    13.493
ATOM      8  C   UNL d   1      -1.191   8.609 -10.371 -0.24 -0.01    +0.084    13.493
ATOM      9  C   UNL d   1      -0.767   8.154 -11.772 -0.09 -0.01    +0.058    13.493
ATOM     10  C   UNL d   1      -0.395   6.947 -16.015 -0.09 +0.01    +0.058    13.493
ATOM     11  C   UNL d   1      -1.995   8.428 -15.354 -0.06 +0.01    +0.193    13.493
ATOM     12  C   UNL d   1      -1.191   7.876 -14.218 -0.09 -0.00    +0.109    13.493
ATOM     13  C   UNL d   1       0.105   8.323  -9.666 -0.23 -0.03    +0.193    13.493
ATOM     14  C   UNL d   1      -0.932   8.918 -17.524 -0.01 +0.00    +0.026    13.493
ATOM     15  C   UNL d   1      -1.564   8.271 -12.845 -0.15 -0.01    +0.055    13.493
ATOM     16  C   UNL d   1      -2.281   7.706  -9.786 -0.54 -0.00    +0.026    13.493
ATOM     17  C   UNL d   1       1.059   7.761 -10.668 -0.19 -0.01    +0.109    13.493
ATOM     18  C   UNL d   1       0.321   6.086 -16.763 -0.08 +0.01    +0.050    13.493
ATOM     19  C   UNL d   1       1.302   5.188 -16.271 -0.02 +0.01    +0.045    13.493
ATOM     20  C   UNL d   1       3.217   6.701 -11.077 -0.19 +0.01    +0.045    13.493
ATOM     21  C   UNL d   1       2.434   7.424 -10.270 -0.05 +0.01    +0.057    13.493
ATOM     22  C   UNL d   1       5.061   5.608 -11.866 -0.10 -0.00    -0.019    13.493
ATOM     23  C   UNL d   1       3.966   5.460 -12.845 -0.14 +0.01    +0.045    13.493
ATOM     24  C   UNL d   1       4.611   6.342 -10.821 -0.16 -0.00    -0.022    13.493
ATOM     25  C   UNL d   1       3.030   4.564 -14.951 -0.04 +0.01    +0.049    13.493
ATOM     26  C   UNL d   1       1.711   3.936 -16.704 -0.07 -0.01    -0.018    13.493
ATOM     27  C   UNL d   1       2.789   3.539 -15.854 -0.09 +0.00    +0.003    13.493
ATOM     28  C   UNL d   1       4.059   4.771 -13.993 -0.13 +0.01    +0.052    13.493
ATOM     29  C   UNL d   1       5.338   6.749  -9.585 -0.14 +0.02    +0.046    13.493
ATOM     30  C   UNL d   1       1.136   3.153 -17.836 -0.07 +0.02    +0.046    13.493
ATOM     31  H   UNL d   1       1.973   6.178 -12.668 -0.08 +0.01    +0.166    13.493
ATOM     32  H   UNL d   1       2.006   6.420 -14.706 +0.01 +0.03    +0.166    13.493
ATOM     33  C   UNL d   1      -2.625   7.044 -17.328 -0.04 +0.03    +0.141    13.493
ATOM     34  C   UNL d   1      -3.511   6.307 -16.361 -0.07 +0.09    +0.306    13.493
ATOM     35  O   UNL d   1      -3.316   5.189 -15.914 -0.15 -0.11    -0.251    13.493
ATOM     36  O   UNL d   1      -4.595   7.019 -16.005 -0.05 -0.09    -0.481    13.493
ATOM     37  H   UNL d   1      -4.319   7.954 -16.104 +0.08 +0.03    +0.295    13.493
ATOM     38  C   UNL d   1       3.517   2.311 -15.964 -0.14 +0.00    +0.017    13.493
ATOM     39  C   UNL d   1       3.101   1.120 -15.505 -0.25 +0.03    +0.092    13.493
ATOM     40  C   UNL d   1       3.936  -0.068 -15.698 -0.21 +0.10    +0.330    13.493
ATOM     41  O   UNL d   1       4.869  -0.441 -15.012 -0.31 -0.07    -0.246    13.493
ATOM     42  O   UNL d   1       3.526  -0.751 -16.778 -0.32 -0.16    -0.477    13.493
ATOM     43  H   UNL d   1       2.631  -1.063 -16.533 -0.44 +0.04    +0.295    13.493
ATOM     44  C   UNL d   1      -1.570  10.089 -10.245 -0.22 -0.03    +0.141    13.493
ATOM     45  C   UNL d   1      -0.448  11.023 -10.615 -0.07 -0.08    +0.306    13.493
ATOM     46  O   UNL d   1      -0.457  11.850 -11.510 -0.03 +0.04    -0.251    13.493
ATOM     47  O   UNL d   1       0.643  10.845  -9.849 -0.07 +0.28    -0.481    13.493
ATOM     48  H   UNL d   1       0.290  10.648  -8.955 -0.38 -0.36    +0.295    13.493
ATOM     49  C   UNL d   1       6.436   5.036 -12.047 -0.11 +0.01    +0.048    13.493
ATOM     50  C   UNL d   1       6.624   3.744 -11.252 -0.04 +0.02    +0.125    13.493
ATOM     51  C   UNL d   1       7.016   4.040  -9.832 -0.12 +0.09    +0.305    13.493
ATOM     52  O   UNL d   1       7.997   4.651  -9.444 -0.36 -0.08    -0.251    13.493
ATOM     53  O   UNL d   1       6.137   3.528  -8.949 -0.65 -0.16    -0.481    13.493
ATOM     54  H   UNL d   1       6.158   2.563  -9.124 -0.29 -0.02    +0.295    13.493
TER
ENDMDL
MODEL       60
USER    Run = 60
USER    Cluster Rank = 27
USER    Number of conformations in this cluster = 1
USER  
USER    RMSD from reference structure       = 14.232 A
USER  
USER    Estimated Free Energy of Binding    =   -4.30 kcal/mol  [=(1)+(2)+(3)-(4)]
USER    Estimated Inhibition Constant, Ki   =  699.12 uM (micromolar)  [Temperature = 298.15 K]
USER    
USER    (1) Final Intermolecular Energy     =   -8.18 kcal/mol
USER        vdW + Hbond + desolv Energy     =   -7.54 kcal/mol
USER        Electrostatic Energy            =   -0.64 kcal/mol
USER    (2) Final Total Internal Energy     =   -2.26 kcal/mol
USER    (3) Torsional Free Energy           =   +3.88 kcal/mol
USER    (4) Unbound System's Energy  [=(2)] =   -2.26 kcal/mol
USER    
USER    
USER  
USER    DPF = D:/Protein_go_brrr/autodock/final/mut_D99N/heme/dock.dpf
USER    NEWDPF move	heme_opt.pdbqt
USER    NEWDPF about	0.153000 0.018000 -0.028000
USER    NEWDPF tran0	-15.624616 7.352116 4.301447
USER    NEWDPF axisangle0	-0.322482 -0.454616 0.830259 -84.692739
USER    NEWDPF quaternion0	-0.217227 -0.306234 0.559271 -0.739086
USER    NEWDPF dihe0	-101.77 -27.25 120.00 -141.88 35.09 174.74 -32.49 70.97 129.72 -133.02 65.45 66.79 -168.40 
USER  
USER                              x       y       z    vdW   Elec        q     RMS 
ATOM      1  O   UNL d   1     -18.296   2.426   2.469 -0.07 -0.05    -0.289    14.232
ATOM      2  O   UNL d   1     -11.661   3.479   5.826 -0.18 -0.04    -0.289    14.232
ATOM      3  N   UNL d   1     -17.071   5.555   3.246 -0.09 -0.02    -0.247    14.232
ATOM      4  N   UNL d   1     -14.599   4.959   4.785 -0.06 -0.02    -0.247    14.232
ATOM      5  N   UNL d   1     -14.561   7.712   5.613 -0.04 +0.01    -0.354    14.232
ATOM      6  N   UNL d   1     -17.136   8.317   4.030 -0.05 +0.01    -0.354    14.232
ATOM      7  C   UNL d   1     -19.188   4.699   2.357 -0.13 +0.01    +0.084    14.232
ATOM      8  C   UNL d   1     -13.492   2.827   4.338 -0.13 +0.02    +0.084    14.232
ATOM      9  C   UNL d   1     -14.682   3.764   4.106 -0.12 +0.01    +0.058    14.232
ATOM     10  C   UNL d   1     -18.340   5.892   2.806 -0.17 +0.01    +0.058    14.232
ATOM     11  C   UNL d   1     -18.168   3.629   2.605 -0.10 +0.03    +0.193    14.232
ATOM     12  C   UNL d   1     -16.919   4.277   3.118 -0.15 +0.01    +0.109    14.232
ATOM     13  C   UNL d   1     -12.737   3.696   5.303 -0.12 +0.03    +0.193    14.232
ATOM     14  C   UNL d   1     -20.385   4.465   3.283 -0.05 +0.00    +0.026    14.232
ATOM     15  C   UNL d   1     -15.736   3.424   3.348 -0.19 +0.01    +0.055    14.232
ATOM     16  C   UNL d   1     -12.651   2.652   3.070 -0.27 +0.01    +0.026    14.232
ATOM     17  C   UNL d   1     -13.518   4.956   5.495 -0.12 +0.01    +0.109    14.232
ATOM     18  C   UNL d   1     -18.785   7.157   2.684 -0.19 +0.00    +0.050    14.232
ATOM     19  C   UNL d   1     -18.041   8.324   2.992 -0.17 -0.00    +0.045    14.232
ATOM     20  C   UNL d   1     -13.584   7.207   6.430 -0.21 -0.00    +0.045    14.232
ATOM     21  C   UNL d   1     -13.039   5.986   6.429 -0.26 -0.00    +0.057    14.232
ATOM     22  C   UNL d   1     -13.999   9.372   7.027 -0.23 +0.00    -0.019    14.232
ATOM     23  C   UNL d   1     -14.879   9.013   5.897 -0.10 -0.00    +0.045    14.232
ATOM     24  C   UNL d   1     -13.233   8.299   7.337 -0.34 +0.00    -0.022    14.232
ATOM     25  C   UNL d   1     -16.598   9.570   4.210 -0.10 -0.00    +0.049    14.232
ATOM     26  C   UNL d   1     -18.064   9.604   2.461 -0.14 +0.00    -0.018    14.232
ATOM     27  C   UNL d   1     -17.136  10.382   3.221 -0.15 -0.00    +0.003    14.232
ATOM     28  C   UNL d   1     -15.756   9.849   5.321 -0.08 -0.01    +0.052    14.232
ATOM     29  C   UNL d   1     -12.188   8.172   8.392 -0.33 -0.00    +0.046    14.232
ATOM     30  C   UNL d   1     -18.893  10.079   1.316 -0.13 -0.00    +0.046    14.232
ATOM     31  H   UNL d   1     -14.928   7.173   4.836 +0.04 -0.00    +0.166    14.232
ATOM     32  H   UNL d   1     -16.940   7.501   4.597 +0.03 +0.00    +0.166    14.232
ATOM     33  C   UNL d   1     -19.610   4.709   0.884 -0.18 +0.04    +0.141    14.232
ATOM     34  C   UNL d   1     -20.386   3.480   0.495 -0.12 +0.09    +0.306    14.232
ATOM     35  O   UNL d   1     -21.596   3.341   0.564 -0.06 -0.08    -0.251    14.232
ATOM     36  O   UNL d   1     -19.597   2.492   0.038 -0.06 -0.10    -0.481    14.232
ATOM     37  H   UNL d   1     -19.176   2.120   0.842 +0.06 +0.05    +0.295    14.232
ATOM     38  C   UNL d   1     -16.861  11.772   3.015 -0.13 -0.00    +0.017    14.232
ATOM     39  C   UNL d   1     -16.104  12.273   2.026 -0.21 -0.02    +0.092    14.232
ATOM     40  C   UNL d   1     -15.913  13.721   1.915 -0.07 -0.03    +0.330    14.232
ATOM     41  O   UNL d   1     -15.168  14.317   1.161 -0.12 +0.02    -0.246    14.232
ATOM     42  O   UNL d   1     -16.709  14.360   2.787 +0.01 +0.05    -0.477    14.232
ATOM     43  H   UNL d   1     -16.232  15.195   2.971 +0.03 -0.03    +0.295    14.232
ATOM     44  C   UNL d   1     -13.831   1.472   4.969 -0.10 +0.07    +0.141    14.232
ATOM     45  C   UNL d   1     -12.636   0.569   5.116 -0.12 +0.28    +0.306    14.232
ATOM     46  O   UNL d   1     -12.094  -0.069   4.230 -0.75 -0.40    -0.251    14.232
ATOM     47  O   UNL d   1     -12.199   0.495   6.386 -0.25 -0.32    -0.481    14.232
ATOM     48  H   UNL d   1     -11.950   1.415   6.617 +0.11 +0.12    +0.295    14.232
ATOM     49  C   UNL d   1     -13.998  10.712   7.702 -0.30 -0.02    +0.048    14.232
ATOM     50  C   UNL d   1     -14.615  10.647   9.098 -0.23 -0.05    +0.125    14.232
ATOM     51  C   UNL d   1     -15.897  11.429   9.156 -0.07 -0.15    +0.305    14.232
ATOM     52  O   UNL d   1     -16.933  11.202   8.556 -0.02 +0.06    -0.251    14.232
ATOM     53  O   UNL d   1     -15.802  12.492   9.978 -0.05 +0.44    -0.481    14.232
ATOM     54  H   UNL d   1     -14.892  12.825   9.833 -0.49 -0.69    +0.295    14.232
TER
ENDMDL
MODEL       54
USER    Run = 54
USER    Cluster Rank = 28
USER    Number of conformations in this cluster = 1
USER  
USER    RMSD from reference structure       = 14.674 A
USER  
USER    Estimated Free Energy of Binding    =   -4.30 kcal/mol  [=(1)+(2)+(3)-(4)]
USER    Estimated Inhibition Constant, Ki   =  703.07 uM (micromolar)  [Temperature = 298.15 K]
USER    
USER    (1) Final Intermolecular Energy     =   -8.18 kcal/mol
USER        vdW + Hbond + desolv Energy     =   -7.78 kcal/mol
USER        Electrostatic Energy            =   -0.40 kcal/mol
USER    (2) Final Total Internal Energy     =   -3.95 kcal/mol
USER    (3) Torsional Free Energy           =   +3.88 kcal/mol
USER    (4) Unbound System's Energy  [=(2)] =   -3.95 kcal/mol
USER    
USER    
USER  
USER    DPF = D:/Protein_go_brrr/autodock/final/mut_D99N/heme/dock.dpf
USER    NEWDPF move	heme_opt.pdbqt
USER    NEWDPF about	0.153000 0.018000 -0.028000
USER    NEWDPF tran0	12.730656 -10.466126 8.578812
USER    NEWDPF axisangle0	0.295390 -0.845064 -0.445659 -166.062157
USER    NEWDPF quaternion0	0.293208 -0.838820 -0.442366 -0.121331
USER    NEWDPF dihe0	121.13 -136.37 134.44 145.50 -134.04 51.10 -48.00 -88.57 27.97 -97.64 -81.90 -102.08 0.21 
USER  
USER                              x       y       z    vdW   Elec        q     RMS 
ATOM      1  O   UNL d   1      16.262  -5.931   9.891 -0.07 +0.06    -0.289    14.674
ATOM      2  O   UNL d   1      17.447 -12.050   5.701 -0.11 +0.10    -0.289    14.674
ATOM      3  N   UNL d   1      13.906  -8.422   9.512 -0.11 +0.09    -0.247    14.674
ATOM      4  N   UNL d   1      15.131 -10.220   7.489 -0.12 +0.09    -0.247    14.674
ATOM      5  N   UNL d   1      12.566 -11.485   7.195 -0.10 +0.14    -0.354    14.674
ATOM      6  N   UNL d   1      11.298  -9.602   9.281 -0.11 +0.14    -0.354    14.674
ATOM      7  C   UNL d   1      13.933  -6.214  10.576 -0.19 -0.03    +0.084    14.674
ATOM      8  C   UNL d   1      17.570 -10.229   7.333 -0.10 -0.01    +0.084    14.674
ATOM      9  C   UNL d   1      16.294  -9.633   7.937 -0.14 -0.01    +0.058    14.674
ATOM     10  C   UNL d   1      13.165  -7.490  10.219 -0.20 -0.02    +0.058    14.674
ATOM     11  C   UNL d   1      15.245  -6.597   9.961 -0.11 -0.05    +0.193    14.674
ATOM     12  C   UNL d   1      15.108  -7.967   9.372 -0.14 -0.03    +0.109    14.674
ATOM     13  C   UNL d   1      16.914 -11.238   6.432 -0.12 -0.05    +0.193    14.674
ATOM     14  C   UNL d   1      13.382  -4.988   9.843 -0.17 -0.01    +0.026    14.674
ATOM     15  C   UNL d   1      16.310  -8.596   8.787 -0.13 -0.01    +0.055    14.674
ATOM     16  C   UNL d   1      18.401 -10.974   8.382 -0.04 -0.00    +0.026    14.674
ATOM     17  C   UNL d   1      15.436 -11.125   6.615 -0.20 -0.05    +0.109    14.674
ATOM     18  C   UNL d   1      11.906  -7.696  10.650 -0.23 -0.02    +0.050    14.674
ATOM     19  C   UNL d   1      11.149  -8.877  10.441 -0.18 -0.02    +0.045    14.674
ATOM     20  C   UNL d   1      13.233 -12.056   6.142 -0.27 -0.02    +0.045    14.674
ATOM     21  C   UNL d   1      14.528 -11.966   5.822 -0.28 -0.04    +0.057    14.674
ATOM     22  C   UNL d   1      11.033 -12.662   6.040 -0.21 +0.01    -0.019    14.674
ATOM     23  C   UNL d   1      11.232 -11.793   7.217 -0.22 -0.01    +0.045    14.674
ATOM     24  C   UNL d   1      12.221 -12.815   5.409 -0.25 +0.01    -0.022    14.674
ATOM     25  C   UNL d   1      10.408 -10.650   9.248 -0.15 -0.02    +0.049    14.674
ATOM     26  C   UNL d   1      10.162  -9.490  11.198 -0.15 +0.01    -0.018    14.674
ATOM     27  C   UNL d   1       9.712 -10.621  10.449 -0.13 -0.00    +0.003    14.674
ATOM     28  C   UNL d   1      10.265 -11.449   8.081 -0.22 -0.02    +0.052    14.674
ATOM     29  C   UNL d   1      12.532 -13.608   4.185 -0.20 -0.03    +0.046    14.674
ATOM     30  C   UNL d   1       9.668  -9.056  12.536 -0.11 -0.04    +0.046    14.674
ATOM     31  H   UNL d   1      13.061 -10.961   7.909 +0.00 -0.07    +0.166    14.674
ATOM     32  H   UNL d   1      11.952  -9.356   8.547 -0.18 -0.08    +0.166    14.674
ATOM     33  C   UNL d   1      14.099  -5.944  12.076 -0.08 -0.03    +0.141    14.674
ATOM     34  C   UNL d   1      15.142  -6.825  12.710 -0.00 -0.04    +0.306    14.674
ATOM     35  O   UNL d   1      14.992  -7.985  13.054 -0.00 +0.03    -0.251    14.674
ATOM     36  O   UNL d   1      16.320  -6.197  12.874 +0.01 +0.04    -0.481    14.674
ATOM     37  H   UNL d   1      16.603  -5.963  11.965 +0.03 -0.03    +0.295    14.674
ATOM     38  C   UNL d   1       8.683 -11.527  10.860 -0.12 -0.01    +0.017    14.674
ATOM     39  C   UNL d   1       7.499 -11.685  10.248 -0.19 -0.06    +0.092    14.674
ATOM     40  C   UNL d   1       6.536 -12.662  10.761 -0.06 -0.13    +0.330    14.674
ATOM     41  O   UNL d   1       6.160 -12.803  11.910 -0.39 +0.09    -0.246    14.674
ATOM     42  O   UNL d   1       6.077 -13.428   9.760 -0.16 +0.09    -0.477    14.674
ATOM     43  H   UNL d   1       6.880 -13.643   9.241 +0.08 -0.06    +0.295    14.674
ATOM     44  C   UNL d   1      18.437  -9.256   6.528 -0.23 +0.01    +0.141    14.674
ATOM     45  C   UNL d   1      19.156  -9.911   5.379 -0.21 +0.08    +0.306    14.674
ATOM     46  O   UNL d   1      20.277 -10.388   5.400 -0.21 -0.11    -0.251    14.674
ATOM     47  O   UNL d   1      18.429  -9.906   4.247 -0.35 -0.08    -0.481    14.674
ATOM     48  H   UNL d   1      17.536 -10.202   4.524 -0.03 -0.07    +0.295    14.674
ATOM     49  C   UNL d   1       9.710 -13.245   5.637 -0.15 -0.01    +0.048    14.674
ATOM     50  C   UNL d   1       9.394 -14.526   6.408 -0.21 -0.02    +0.125    14.674
ATOM     51  C   UNL d   1       8.465 -14.246   7.556 -0.09 -0.07    +0.305    14.674
ATOM     52  O   UNL d   1       8.764 -14.028   8.717 -0.04 +0.05    -0.251    14.674
ATOM     53  O   UNL d   1       7.172 -14.269   7.176 -0.07 +0.16    -0.481    14.674
ATOM     54  H   UNL d   1       7.185 -13.902   6.267 -0.38 -0.23    +0.295    14.674
TER
ENDMDL
MODEL       11
USER    Run = 11
USER    Cluster Rank = 29
USER    Number of conformations in this cluster = 1
USER  
USER    RMSD from reference structure       = 18.855 A
USER  
USER    Estimated Free Energy of Binding    =   -4.22 kcal/mol  [=(1)+(2)+(3)-(4)]
USER    Estimated Inhibition Constant, Ki   =  813.14 uM (micromolar)  [Temperature = 298.15 K]
USER    
USER    (1) Final Intermolecular Energy     =   -8.09 kcal/mol
USER        vdW + Hbond + desolv Energy     =   -7.66 kcal/mol
USER        Electrostatic Energy            =   -0.43 kcal/mol
USER    (2) Final Total Internal Energy     =   -2.90 kcal/mol
USER    (3) Torsional Free Energy           =   +3.88 kcal/mol
USER    (4) Unbound System's Energy  [=(2)] =   -2.90 kcal/mol
USER    
USER    
USER  
USER    DPF = D:/Protein_go_brrr/autodock/final/mut_D99N/heme/dock.dpf
USER    NEWDPF move	heme_opt.pdbqt
USER    NEWDPF about	0.153000 0.018000 -0.028000
USER    NEWDPF tran0	-11.600832 15.185220 12.259591
USER    NEWDPF axisangle0	-0.194507 0.372664 0.907353 -119.168989
USER    NEWDPF quaternion0	-0.167738 0.321376 0.782480 -0.506267
USER    NEWDPF dihe0	100.45 180.00 143.78 25.85 -143.70 -27.61 0.11 -51.03 21.04 21.04 159.35 12.72 14.77 
USER  
USER                              x       y       z    vdW   Elec        q     RMS 
ATOM      1  O   UNL d   1     -10.661  11.306  16.599 -0.18 +0.04    -0.289    18.855
ATOM      2  O   UNL d   1      -6.193  13.665  11.043 -0.25 +0.05    -0.289    18.855
ATOM      3  N   UNL d   1     -11.708  13.525  14.174 -0.12 +0.07    -0.247    18.855
ATOM      4  N   UNL d   1      -9.225  14.080  12.639 -0.13 +0.07    -0.247    18.855
ATOM      5  N   UNL d   1     -10.585  16.300  11.419 -0.07 +0.26    -0.354    18.855
ATOM      6  N   UNL d   1     -13.151  15.729  13.030 -0.06 +0.18    -0.354    18.855
ATOM      7  C   UNL d   1     -12.686  12.627  16.234 -0.07 -0.01    +0.084    18.855
ATOM      8  C   UNL d   1      -7.495  12.354  12.649 -0.40 -0.02    +0.084    18.855
ATOM      9  C   UNL d   1      -8.843  12.866  13.166 -0.28 -0.01    +0.058    18.855
ATOM     10  C   UNL d   1     -12.810  13.541  15.011 -0.10 -0.01    +0.058    18.855
ATOM     11  C   UNL d   1     -11.325  12.077  15.929 -0.13 -0.04    +0.193    18.855
ATOM     12  C   UNL d   1     -10.850  12.678  14.643 -0.14 -0.03    +0.109    18.855
ATOM     13  C   UNL d   1      -7.164  13.519  11.759 -0.25 -0.04    +0.193    18.855
ATOM     14  C   UNL d   1     -12.618  13.421  17.541 -0.03 -0.00    +0.026    18.855
ATOM     15  C   UNL d   1      -9.562  12.211  14.090 -0.28 -0.02    +0.055    18.855
ATOM     16  C   UNL d   1      -7.658  11.102  11.781 -0.47 -0.01    +0.026    18.855
ATOM     17  C   UNL d   1      -8.289  14.498  11.848 -0.19 -0.03    +0.109    18.855
ATOM     18  C   UNL d   1     -13.944  14.219  14.753 -0.06 -0.01    +0.050    18.855
ATOM     19  C   UNL d   1     -14.180  15.020  13.607 -0.07 -0.02    +0.045    18.855
ATOM     20  C   UNL d   1      -9.308  16.537  10.982 -0.12 -0.02    +0.045    18.855
ATOM     21  C   UNL d   1      -8.222  15.769  11.111 -0.18 -0.02    +0.057    18.855
ATOM     22  C   UNL d   1     -10.631  18.304  10.393 -0.06 +0.01    -0.019    18.855
ATOM     23  C   UNL d   1     -11.455  17.311  11.110 -0.09 -0.03    +0.045    18.855
ATOM     24  C   UNL d   1      -9.361  17.839  10.319 -0.08 +0.01    -0.022    18.855
ATOM     25  C   UNL d   1     -13.618  16.503  11.994 -0.09 -0.03    +0.049    18.855
ATOM     26  C   UNL d   1     -15.339  15.313  12.905 -0.06 +0.01    -0.018    18.855
ATOM     27  C   UNL d   1     -14.975  16.235  11.875 -0.07 -0.00    +0.003    18.855
ATOM     28  C   UNL d   1     -12.770  17.441  11.345 -0.09 -0.03    +0.052    18.855
ATOM     29  C   UNL d   1      -8.171  18.474   9.683 -0.05 -0.01    +0.046    18.855
ATOM     30  C   UNL d   1     -16.703  14.771  13.171 -0.02 -0.01    +0.046    18.855
ATOM     31  H   UNL d   1     -10.838  15.417  11.851 +0.03 -0.12    +0.166    18.855
ATOM     32  H   UNL d   1     -12.195  15.701  13.365 +0.02 -0.07    +0.166    18.855
ATOM     33  C   UNL d   1     -13.717  11.496  16.316 -0.08 -0.01    +0.141    18.855
ATOM     34  C   UNL d   1     -13.515  10.450  15.254 -0.07 -0.03    +0.306    18.855
ATOM     35  O   UNL d   1     -14.007  10.452  14.138 -0.20 +0.03    -0.251    18.855
ATOM     36  O   UNL d   1     -12.701   9.456  15.652 -0.17 -0.00    -0.481    18.855
ATOM     37  H   UNL d   1     -11.796   9.808  15.514 -0.40 -0.06    +0.295    18.855
ATOM     38  C   UNL d   1     -15.878  16.811  10.925 -0.05 -0.01    +0.017    18.855
ATOM     39  C   UNL d   1     -15.686  16.848   9.598 -0.06 -0.06    +0.092    18.855
ATOM     40  C   UNL d   1     -16.700  17.453   8.730 -0.00 -0.10    +0.330    18.855
ATOM     41  O   UNL d   1     -17.900  17.509   8.916 -0.00 +0.05    -0.246    18.855
ATOM     42  O   UNL d   1     -16.120  17.980   7.640 +0.00 +0.13    -0.477    18.855
ATOM     43  H   UNL d   1     -15.167  17.792   7.768 +0.02 -0.12    +0.295    18.855
ATOM     44  C   UNL d   1      -6.412  12.152  13.714 -0.36 -0.04    +0.141    18.855
ATOM     45  C   UNL d   1      -6.564  13.072  14.896 -0.21 -0.08    +0.306    18.855
ATOM     46  O   UNL d   1      -6.817  14.263  14.862 -0.07 +0.05    -0.251    18.855
ATOM     47  O   UNL d   1      -6.359  12.443  16.068 -0.73 +0.13    -0.481    18.855
ATOM     48  H   UNL d   1      -6.747  11.551  15.941 -0.37 -0.15    +0.295    18.855
ATOM     49  C   UNL d   1     -11.152  19.608   9.864 -0.02 -0.01    +0.048    18.855
ATOM     50  C   UNL d   1     -12.115  19.404   8.695 -0.03 -0.04    +0.125    18.855
ATOM     51  C   UNL d   1     -11.927  18.048   8.076 -0.04 -0.22    +0.305    18.855
ATOM     52  O   UNL d   1     -10.904  17.580   7.606 -0.10 +0.18    -0.251    18.855
ATOM     53  O   UNL d   1     -13.070  17.334   8.068 -0.05 +0.51    -0.481    18.855
ATOM     54  H   UNL d   1     -12.769  16.402   8.054 -0.53 -0.68    +0.295    18.855
TER
ENDMDL
MODEL       51
USER    Run = 51
USER    Cluster Rank = 30
USER    Number of conformations in this cluster = 2
USER  
USER    RMSD from reference structure       = 16.435 A
USER  
USER    Estimated Free Energy of Binding    =   -4.21 kcal/mol  [=(1)+(2)+(3)-(4)]
USER    Estimated Inhibition Constant, Ki   =  820.94 uM (micromolar)  [Temperature = 298.15 K]
USER    
USER    (1) Final Intermolecular Energy     =   -8.09 kcal/mol
USER        vdW + Hbond + desolv Energy     =   -7.50 kcal/mol
USER        Electrostatic Energy            =   -0.59 kcal/mol
USER    (2) Final Total Internal Energy     =   -2.38 kcal/mol
USER    (3) Torsional Free Energy           =   +3.88 kcal/mol
USER    (4) Unbound System's Energy  [=(2)] =   -2.38 kcal/mol
USER    
USER    
USER  
USER    DPF = D:/Protein_go_brrr/autodock/final/mut_D99N/heme/dock.dpf
USER    NEWDPF move	heme_opt.pdbqt
USER    NEWDPF about	0.153000 0.018000 -0.028000
USER    NEWDPF tran0	-12.912116 14.595354 -5.484952
USER    NEWDPF axisangle0	-0.660071 0.664284 0.350760 -142.488428
USER    NEWDPF quaternion0	-0.625020 0.629009 0.332133 -0.321535
USER    NEWDPF dihe0	106.63 -69.57 -84.23 179.92 -135.28 -171.08 127.93 -101.80 50.35 -31.49 -64.62 165.54 180.00 
USER  
USER                              x       y       z    vdW   Elec        q     RMS 
ATOM      1  O   UNL d   1     -14.541  18.337  -1.230 -0.01 -0.00    -0.289    16.435
ATOM      2  O   UNL d   1      -8.018  14.832  -2.480 -0.29 -0.20    -0.289    16.435
ATOM      3  N   UNL d   1     -14.089  16.097  -3.814 -0.12 +0.01    -0.247    16.435
ATOM      4  N   UNL d   1     -11.183  15.488  -3.689 -0.11 -0.01    -0.247    16.435
ATOM      5  N   UNL d   1     -11.417  14.288  -6.291 -0.07 +0.01    -0.354    16.435
ATOM      6  N   UNL d   1     -14.427  14.942  -6.421 -0.08 +0.04    -0.354    16.435
ATOM      7  C   UNL d   1     -15.900  17.597  -3.122 -0.05 -0.00    +0.084    16.435
ATOM      8  C   UNL d   1     -10.080  15.741  -1.523 -0.22 +0.03    +0.084    16.435
ATOM      9  C   UNL d   1     -11.336  15.904  -2.385 -0.16 +0.01    +0.058    16.435
ATOM     10  C   UNL d   1     -15.361  16.557  -4.109 -0.13 -0.00    +0.058    16.435
ATOM     11  C   UNL d   1     -14.713  17.631  -2.207 -0.04 -0.00    +0.193    16.435
ATOM     12  C   UNL d   1     -13.694  16.660  -2.718 -0.10 +0.00    +0.109    16.435
ATOM     13  C   UNL d   1      -9.175  15.190  -2.589 -0.22 +0.06    +0.193    16.435
ATOM     14  C   UNL d   1     -16.064  18.974  -3.772 -0.01 -0.00    +0.026    16.435
ATOM     15  C   UNL d   1     -12.469  16.453  -1.920 -0.13 +0.00    +0.055    16.435
ATOM     16  C   UNL d   1     -10.270  14.675  -0.439 -0.38 +0.01    +0.026    16.435
ATOM     17  C   UNL d   1      -9.962  15.093  -3.855 -0.19 +0.01    +0.109    16.435
ATOM     18  C   UNL d   1     -16.120  16.082  -5.114 -0.14 -0.01    +0.050    16.435
ATOM     19  C   UNL d   1     -15.739  15.062  -6.022 -0.12 -0.01    +0.045    16.435
ATOM     20  C   UNL d   1     -10.053  14.299  -6.159 -0.26 +0.00    +0.045    16.435
ATOM     21  C   UNL d   1      -9.317  14.623  -5.090 -0.33 +0.00    +0.057    16.435
ATOM     22  C   UNL d   1     -10.583  13.630  -8.278 -0.20 +0.00    -0.019    16.435
ATOM     23  C   UNL d   1     -11.832  13.898  -7.537 -0.19 -0.00    +0.045    16.435
ATOM     24  C   UNL d   1      -9.534  13.868  -7.456 -0.26 +0.00    -0.022    16.435
ATOM     25  C   UNL d   1     -14.298  13.951  -7.367 -0.18 -0.01    +0.049    16.435
ATOM     26  C   UNL d   1     -16.475  14.101  -6.698 -0.09 +0.00    -0.018    16.435
ATOM     27  C   UNL d   1     -15.557  13.389  -7.531 -0.20 -0.00    +0.003    16.435
ATOM     28  C   UNL d   1     -13.065  13.745  -8.044 -0.20 -0.01    +0.052    16.435
ATOM     29  C   UNL d   1      -8.077  13.729  -7.740 -0.25 +0.00    +0.046    16.435
ATOM     30  C   UNL d   1     -17.941  13.854  -6.578 -0.07 -0.01    +0.046    16.435
ATOM     31  H   UNL d   1     -12.024  14.477  -5.501 +0.07 -0.00    +0.166    16.435
ATOM     32  H   UNL d   1     -13.682  15.539  -6.083 +0.04 -0.01    +0.166    16.435
ATOM     33  C   UNL d   1     -17.160  17.184  -2.354 -0.06 -0.01    +0.141    16.435
ATOM     34  C   UNL d   1     -16.853  16.661  -0.977 -0.05 -0.01    +0.306    16.435
ATOM     35  O   UNL d   1     -16.482  15.532  -0.702 -0.10 +0.01    -0.251    16.435
ATOM     36  O   UNL d   1     -17.029  17.588  -0.019 +0.00 +0.01    -0.481    16.435
ATOM     37  H   UNL d   1     -16.247  18.176  -0.099 +0.02 -0.00    +0.295    16.435
ATOM     38  C   UNL d   1     -15.904  12.317  -8.413 -0.28 -0.01    +0.017    16.435
ATOM     39  C   UNL d   1     -17.128  12.091  -8.914 -0.17 -0.04    +0.092    16.435
ATOM     40  C   UNL d   1     -17.348  10.964  -9.824 -0.09 -0.27    +0.330    16.435
ATOM     41  O   UNL d   1     -18.359  10.697 -10.446 -0.09 +0.17    -0.246    16.435
ATOM     42  O   UNL d   1     -16.238  10.216  -9.910 -0.04 +0.57    -0.477    16.435
ATOM     43  H   UNL d   1     -16.479   9.384  -9.452 -0.32 -0.79    +0.295    16.435
ATOM     44  C   UNL d   1      -9.510  17.035  -0.934 -0.14 +0.08    +0.141    16.435
ATOM     45  C   UNL d   1      -8.663  17.809  -1.909 -0.06 +0.17    +0.306    16.435
ATOM     46  O   UNL d   1      -9.059  18.592  -2.754 -0.01 -0.07    -0.251    16.435
ATOM     47  O   UNL d   1      -7.352  17.531  -1.785 -0.41 -0.49    -0.481    16.435
ATOM     48  H   UNL d   1      -7.182  16.834  -2.453 +0.08 +0.27    +0.295    16.435
ATOM     49  C   UNL d   1     -10.532  13.186  -9.710 -0.21 -0.01    +0.048    16.435
ATOM     50  C   UNL d   1     -10.310  14.360 -10.662 -0.15 -0.02    +0.125    16.435
ATOM     51  C   UNL d   1      -9.000  14.224 -11.386 -0.10 -0.05    +0.305    16.435
ATOM     52  O   UNL d   1      -7.987  14.878 -11.216 -0.05 +0.02    -0.251    16.435
ATOM     53  O   UNL d   1      -9.038  13.252 -12.319 -0.09 +0.17    -0.481    16.435
ATOM     54  H   UNL d   1      -9.947  12.892 -12.251 -0.46 -0.20    +0.295    16.435
TER
ENDMDL
MODEL        1
USER    Run = 1
USER    Cluster Rank = 31
USER    Number of conformations in this cluster = 1
USER  
USER    RMSD from reference structure       = 13.272 A
USER  
USER    Estimated Free Energy of Binding    =   -4.18 kcal/mol  [=(1)+(2)+(3)-(4)]
USER    Estimated Inhibition Constant, Ki   =  860.65 uM (micromolar)  [Temperature = 298.15 K]
USER    
USER    (1) Final Intermolecular Energy     =   -8.06 kcal/mol
USER        vdW + Hbond + desolv Energy     =   -7.58 kcal/mol
USER        Electrostatic Energy            =   -0.48 kcal/mol
USER    (2) Final Total Internal Energy     =   -1.34 kcal/mol
USER    (3) Torsional Free Energy           =   +3.88 kcal/mol
USER    (4) Unbound System's Energy  [=(2)] =   -1.34 kcal/mol
USER    
USER    
USER  
USER    DPF = D:/Protein_go_brrr/autodock/final/mut_D99N/heme/dock.dpf
USER    NEWDPF move	heme_opt.pdbqt
USER    NEWDPF about	0.153000 0.018000 -0.028000
USER    NEWDPF tran0	-14.038596 3.616030 8.918692
USER    NEWDPF axisangle0	0.307834 0.844784 -0.437697 125.340790
USER    NEWDPF quaternion0	0.273474 0.750489 -0.388841 0.459109
USER    NEWDPF dihe0	-43.59 20.82 31.59 -87.03 -29.41 67.33 -1.65 -94.89 -9.17 130.17 -145.68 47.90 147.41 
USER  
USER                              x       y       z    vdW   Elec        q     RMS 
ATOM      1  O   UNL d   1     -12.126   0.020   4.657 -0.71 -0.40    -0.289    13.272
ATOM      2  O   UNL d   1     -11.734  -0.554  12.134 -0.16 -0.10    -0.289    13.272
ATOM      3  N   UNL d   1     -13.283   2.477   6.782 -0.05 -0.07    -0.247    13.272
ATOM      4  N   UNL d   1     -12.986   1.250   9.472 -0.07 -0.08    -0.247    13.272
ATOM      5  N   UNL d   1     -14.645   3.354  10.513 -0.07 -0.14    -0.354    13.272
ATOM      6  N   UNL d   1     -14.964   4.610   7.716 -0.03 -0.07    -0.354    13.272
ATOM      7  C   UNL d   1     -13.353   2.113   4.359 -0.13 +0.03    +0.084    13.272
ATOM      8  C   UNL d   1     -11.272  -0.472   9.731 -0.27 +0.03    +0.084    13.272
ATOM      9  C   UNL d   1     -12.053   0.477   8.817 -0.21 +0.02    +0.058    13.272
ATOM     10  C   UNL d   1     -13.717   2.981   5.567 -0.09 +0.01    +0.058    13.272
ATOM     11  C   UNL d   1     -12.620   1.038   5.104 -0.12 +0.13    +0.193    13.272
ATOM     12  C   UNL d   1     -12.624   1.387   6.561 -0.14 +0.05    +0.109    13.272
ATOM     13  C   UNL d   1     -11.961  -0.122  11.020 -0.16 +0.06    +0.193    13.272
ATOM     14  C   UNL d   1     -14.590   1.501   3.698 -0.15 +0.01    +0.026    13.272
ATOM     15  C   UNL d   1     -11.876   0.513   7.487 -0.16 +0.03    +0.055    13.272
ATOM     16  C   UNL d   1      -9.797  -0.073   9.837 -0.50 +0.01    +0.026    13.272
ATOM     17  C   UNL d   1     -12.982   0.927  10.725 -0.14 +0.04    +0.109    13.272
ATOM     18  C   UNL d   1     -14.327   4.172   5.419 -0.11 +0.01    +0.050    13.272
ATOM     19  C   UNL d   1     -14.626   5.079   6.467 -0.08 +0.01    +0.045    13.272
ATOM     20  C   UNL d   1     -14.588   2.535  11.610 -0.16 +0.02    +0.045    13.272
ATOM     21  C   UNL d   1     -13.848   1.437  11.799 -0.18 +0.03    +0.057    13.272
ATOM     22  C   UNL d   1     -16.078   4.216  12.022 -0.11 -0.01    -0.019    13.272
ATOM     23  C   UNL d   1     -15.519   4.398  10.668 +0.03 +0.02    +0.045    13.272
ATOM     24  C   UNL d   1     -15.522   3.112  12.576 -0.14 -0.01    -0.022    13.272
ATOM     25  C   UNL d   1     -15.302   5.652   8.549 -0.07 +0.01    +0.049    13.272
ATOM     26  C   UNL d   1     -14.710   6.463   6.499 -0.12 -0.00    -0.018    13.272
ATOM     27  C   UNL d   1     -15.118   6.820   7.821 -0.13 +0.00    +0.003    13.272
ATOM     28  C   UNL d   1     -15.836   5.407   9.843 +0.04 +0.02    +0.052    13.272
ATOM     29  C   UNL d   1     -15.757   2.527  13.927 -0.11 +0.03    +0.046    13.272
ATOM     30  C   UNL d   1     -14.428   7.398   5.373 -0.17 -0.00    +0.046    13.272
ATOM     31  H   UNL d   1     -14.029   3.215   9.720 +0.05 +0.06    +0.166    13.272
ATOM     32  H   UNL d   1     -14.994   3.626   7.956 +0.03 +0.04    +0.166    13.272
ATOM     33  C   UNL d   1     -12.433   2.775   3.328 -0.21 +0.04    +0.141    13.272
ATOM     34  C   UNL d   1     -11.370   3.630   3.963 -0.18 +0.05    +0.306    13.272
ATOM     35  O   UNL d   1     -10.927   3.507   5.093 -0.23 -0.03    -0.251    13.272
ATOM     36  O   UNL d   1     -10.920   4.594   3.141 -0.09 -0.05    -0.481    13.272
ATOM     37  H   UNL d   1     -10.908   5.404   3.694 +0.18 +0.01    +0.295    13.272
ATOM     38  C   UNL d   1     -15.342   8.156   8.283 -0.16 +0.00    +0.017    13.272
ATOM     39  C   UNL d   1     -14.443   8.913   8.930 -0.28 -0.00    +0.092    13.272
ATOM     40  C   UNL d   1     -14.792  10.277   9.336 -0.18 -0.10    +0.330    13.272
ATOM     41  O   UNL d   1     -15.632  10.619  10.147 -0.14 +0.07    -0.246    13.272
ATOM     42  O   UNL d   1     -14.030  11.164   8.678 -0.11 +0.35    -0.477    13.272
ATOM     43  H   UNL d   1     -14.079  11.971   9.231 -0.32 -0.50    +0.295    13.272
ATOM     44  C   UNL d   1     -11.421  -1.964   9.417 -0.20 +0.05    +0.141    13.272
ATOM     45  C   UNL d   1     -10.547  -2.422   8.280 -0.27 +0.13    +0.306    13.272
ATOM     46  O   UNL d   1     -10.397  -1.862   7.208 -0.70 -0.17    -0.251    13.272
ATOM     47  O   UNL d   1      -9.926  -3.586   8.545 -0.17 -0.12    -0.481    13.272
ATOM     48  H   UNL d   1      -9.081  -3.533   8.050 -0.04 +0.02    +0.295    13.272
ATOM     49  C   UNL d   1     -17.105   5.121  12.638 -0.07 +0.01    +0.048    13.272
ATOM     50  C   UNL d   1     -18.427   5.085  11.872 -0.01 +0.02    +0.125    13.272
ATOM     51  C   UNL d   1     -18.698   3.708  11.334 +0.00 +0.05    +0.305    13.272
ATOM     52  O   UNL d   1     -18.535   3.311  10.194 -0.00 -0.04    -0.251    13.272
ATOM     53  O   UNL d   1     -19.185   2.883  12.282 +0.01 -0.07    -0.481    13.272
ATOM     54  H   UNL d   1     -20.158   2.969  12.196 +0.00 +0.03    +0.295    13.272
TER
ENDMDL
MODEL       53
USER    Run = 53
USER    Cluster Rank = 32
USER    Number of conformations in this cluster = 2
USER  
USER    RMSD from reference structure       = 11.674 A
USER  
USER    Estimated Free Energy of Binding    =   -4.11 kcal/mol  [=(1)+(2)+(3)-(4)]
USER    Estimated Inhibition Constant, Ki   =  964.90 uM (micromolar)  [Temperature = 298.15 K]
USER    
USER    (1) Final Intermolecular Energy     =   -7.99 kcal/mol
USER        vdW + Hbond + desolv Energy     =   -7.73 kcal/mol
USER        Electrostatic Energy            =   -0.26 kcal/mol
USER    (2) Final Total Internal Energy     =   -2.53 kcal/mol
USER    (3) Torsional Free Energy           =   +3.88 kcal/mol
USER    (4) Unbound System's Energy  [=(2)] =   -2.53 kcal/mol
USER    
USER    
USER  
USER    DPF = D:/Protein_go_brrr/autodock/final/mut_D99N/heme/dock.dpf
USER    NEWDPF move	heme_opt.pdbqt
USER    NEWDPF about	0.153000 0.018000 -0.028000
USER    NEWDPF tran0	8.897959 11.287999 2.481488
USER    NEWDPF axisangle0	0.732896 -0.213197 0.646073 158.006612
USER    NEWDPF quaternion0	0.719439 -0.209282 0.634210 0.190752
USER    NEWDPF dihe0	170.50 -152.65 110.77 -60.83 -150.76 -108.18 -46.13 90.38 14.43 -124.81 90.69 -60.53 13.32 
USER  
USER                              x       y       z    vdW   Elec        q     RMS 
ATOM      1  O   UNL d   1       8.835  12.923  -3.182 -0.01 -0.06    -0.289    11.674
ATOM      2  O   UNL d   1       7.331  16.786   3.079 -0.05 +0.00    -0.289    11.674
ATOM      3  N   UNL d   1       8.873  11.487  -0.047 -0.47 -0.10    -0.247    11.674
ATOM      4  N   UNL d   1       8.470  13.803   1.770 -0.11 -0.01    -0.247    11.674
ATOM      5  N   UNL d   1       9.268  12.110   3.953 -0.06 -0.01    -0.354    11.674
ATOM      6  N   UNL d   1       9.702   9.718   2.058 -0.09 -0.01    -0.354    11.674
ATOM      7  C   UNL d   1       9.460  10.729  -2.303 -0.07 +0.02    +0.084    11.674
ATOM      8  C   UNL d   1       7.287  15.740   0.866 -0.11 +0.00    +0.084    11.674
ATOM      9  C   UNL d   1       7.918  14.362   0.640 -0.14 +0.00    +0.058    11.674
ATOM     10  C   UNL d   1       9.352  10.431  -0.805 -0.08 +0.01    +0.058    11.674
ATOM     11  C   UNL d   1       8.939  12.135  -2.260 -0.04 +0.04    +0.193    11.674
ATOM     12  C   UNL d   1       8.594  12.468  -0.842 -0.10 +0.03    +0.109    11.674
ATOM     13  C   UNL d   1       7.617  15.875   2.326 -0.09 +0.00    +0.193    11.674
ATOM     14  C   UNL d   1      10.914  10.754  -2.780 -0.01 +0.00    +0.026    11.674
ATOM     15  C   UNL d   1       7.971  13.778  -0.567 -0.15 +0.01    +0.055    11.674
ATOM     16  C   UNL d   1       5.764  15.701   0.707 -0.20 +0.00    +0.026    11.674
ATOM     17  C   UNL d   1       8.340  14.638   2.750 -0.13 +0.00    +0.109    11.674
ATOM     18  C   UNL d   1       9.620   9.208  -0.310 -0.15 +0.00    +0.050    11.674
ATOM     19  C   UNL d   1       9.468   8.817   1.044 -0.16 +0.00    +0.045    11.674
ATOM     20  C   UNL d   1       9.253  13.324   4.590 -0.15 -0.00    +0.045    11.674
ATOM     21  C   UNL d   1       8.829  14.506   4.130 -0.14 -0.00    +0.057    11.674
ATOM     22  C   UNL d   1      10.119  11.758   6.009 -0.13 -0.00    -0.019    11.674
ATOM     23  C   UNL d   1       9.774  11.103   4.731 +0.08 +0.00    +0.045    11.674
ATOM     24  C   UNL d   1       9.807  13.072   5.919 -0.12 +0.00    -0.022    11.674
ATOM     25  C   UNL d   1       9.586   9.107   3.285 -0.17 +0.00    +0.049    11.674
ATOM     26  C   UNL d   1       9.155   7.598   1.627 -0.28 +0.00    -0.018    11.674
ATOM     27  C   UNL d   1       9.212   7.792   3.042 -0.28 +0.00    +0.003    11.674
ATOM     28  C   UNL d   1       9.935   9.795   4.479 -0.01 +0.00    +0.052    11.674
ATOM     29  C   UNL d   1       9.958  14.139   6.950 -0.06 -0.00    +0.046    11.674
ATOM     30  C   UNL d   1       8.822   6.331   0.916 -0.34 +0.00    +0.046    11.674
ATOM     31  H   UNL d   1       8.862  11.995   3.031 +0.04 +0.01    +0.166    11.674
ATOM     32  H   UNL d   1       9.964  10.684   1.900 +0.03 +0.01    +0.166    11.674
ATOM     33  C   UNL d   1       8.585   9.859  -3.211 -0.17 +0.06    +0.141    11.674
ATOM     34  C   UNL d   1       7.115  10.031  -2.937 -0.16 +0.18    +0.306    11.674
ATOM     35  O   UNL d   1       6.426   9.315  -2.230 -0.91 -0.12    -0.251    11.674
ATOM     36  O   UNL d   1       6.591  11.097  -3.566 -0.37 -0.42    -0.481    11.674
ATOM     37  H   UNL d   1       7.369  11.599  -3.890 +0.08 +0.21    +0.295    11.674
ATOM     38  C   UNL d   1       8.970   6.779   4.024 -0.36 +0.00    +0.017    11.674
ATOM     39  C   UNL d   1       9.437   6.792   5.282 -0.23 +0.02    +0.092    11.674
ATOM     40  C   UNL d   1       9.101   5.698   6.197 -0.20 +0.16    +0.330    11.674
ATOM     41  O   UNL d   1       8.373   5.740   7.170 -0.90 -0.16    -0.246    11.674
ATOM     42  O   UNL d   1       9.718   4.569   5.813 -0.23 -0.26    -0.477    11.674
ATOM     43  H   UNL d   1      10.517   4.886   5.344 +0.12 +0.10    +0.295    11.674
ATOM     44  C   UNL d   1       7.900  16.888   0.057 -0.03 +0.00    +0.141    11.674
ATOM     45  C   UNL d   1       7.334  18.236   0.415 -0.01 +0.01    +0.306    11.674
ATOM     46  O   UNL d   1       6.370  18.779  -0.097 -0.02 -0.01    -0.251    11.674
ATOM     47  O   UNL d   1       8.034  18.847   1.388 +0.00 -0.01    -0.481    11.674
ATOM     48  H   UNL d   1       7.843  18.325   2.196 +0.02 +0.00    +0.295    11.674
ATOM     49  C   UNL d   1      10.729  11.047   7.181 -0.10 +0.00    +0.048    11.674
ATOM     50  C   UNL d   1       9.738  10.093   7.847 -0.09 +0.01    +0.125    11.674
ATOM     51  C   UNL d   1       8.938  10.801   8.903 -0.15 +0.01    +0.305    11.674
ATOM     52  O   UNL d   1       7.928  11.465   8.749 -0.28 +0.01    -0.251    11.674
ATOM     53  O   UNL d   1       9.471  10.642  10.131 -0.03 -0.01    -0.481    11.674
ATOM     54  H   UNL d   1       9.690  11.554  10.415 +0.05 -0.00    +0.295    11.674
TER
ENDMDL
MODEL       63
USER    Run = 63
USER    Cluster Rank = 33
USER    Number of conformations in this cluster = 1
USER  
USER    RMSD from reference structure       = 18.553 A
USER  
USER    Estimated Free Energy of Binding    =   -4.10 kcal/mol  [=(1)+(2)+(3)-(4)]
USER    Estimated Inhibition Constant, Ki   =  987.76 uM (micromolar)  [Temperature = 298.15 K]
USER    
USER    (1) Final Intermolecular Energy     =   -7.98 kcal/mol
USER        vdW + Hbond + desolv Energy     =   -7.78 kcal/mol
USER        Electrostatic Energy            =   -0.20 kcal/mol
USER    (2) Final Total Internal Energy     =   -2.64 kcal/mol
USER    (3) Torsional Free Energy           =   +3.88 kcal/mol
USER    (4) Unbound System's Energy  [=(2)] =   -2.64 kcal/mol
USER    
USER    
USER  
USER    DPF = D:/Protein_go_brrr/autodock/final/mut_D99N/heme/dock.dpf
USER    NEWDPF move	heme_opt.pdbqt
USER    NEWDPF about	0.153000 0.018000 -0.028000
USER    NEWDPF tran0	-3.309733 15.775857 12.771896
USER    NEWDPF axisangle0	-0.318657 0.560522 0.764377 163.112563
USER    NEWDPF quaternion0	-0.315203 0.554446 0.756092 0.146838
USER    NEWDPF dihe0	-115.36 -73.68 -109.28 176.58 38.00 -61.29 120.44 78.54 138.57 -30.71 84.80 -92.18 173.48 
USER  
USER                              x       y       z    vdW   Elec        q     RMS 
ATOM      1  O   UNL d   1       0.315  18.889  16.226 -0.01 +0.02    -0.289    18.553
ATOM      2  O   UNL d   1       0.332  17.774   8.800 -0.13 -0.03    -0.289    18.553
ATOM      3  N   UNL d   1      -1.966  16.846  14.638 -0.05 +0.03    -0.247    18.553
ATOM      4  N   UNL d   1      -1.372  17.269  11.757 -0.06 +0.02    -0.247    18.553
ATOM      5  N   UNL d   1      -3.863  15.968  11.148 -0.09 +0.07    -0.354    18.553
ATOM      6  N   UNL d   1      -4.480  15.551  14.139 -0.04 +0.07    -0.354    18.553
ATOM      7  C   UNL d   1      -1.679  17.663  16.931 -0.07 -0.01    +0.084    18.553
ATOM      8  C   UNL d   1       0.898  17.960  11.174 -0.09 -0.00    +0.084    18.553
ATOM      9  C   UNL d   1      -0.146  17.654  12.253 -0.07 -0.00    +0.058    18.553
ATOM     10  C   UNL d   1      -2.481  16.833  15.924 -0.10 -0.01    +0.058    18.553
ATOM     11  C   UNL d   1      -0.610  18.132  15.991 -0.03 -0.02    +0.193    18.553
ATOM     12  C   UNL d   1      -0.880  17.549  14.639 -0.05 -0.01    +0.109    18.553
ATOM     13  C   UNL d   1       0.027  17.712   9.975 -0.07 +0.01    +0.193    18.553
ATOM     14  C   UNL d   1      -2.466  18.876  17.432 -0.02 -0.00    +0.026    18.553
ATOM     15  C   UNL d   1       0.100  17.800  13.564 -0.05 -0.00    +0.055    18.553
ATOM     16  C   UNL d   1       2.035  16.933  11.177 -0.12 -0.00    +0.026    18.553
ATOM     17  C   UNL d   1      -1.325  17.307  10.465 -0.16 -0.00    +0.109    18.553
ATOM     18  C   UNL d   1      -3.538  16.092  16.306 -0.12 -0.01    +0.050    18.553
ATOM     19  C   UNL d   1      -4.286  15.231  15.464 -0.18 -0.01    +0.045    18.553
ATOM     20  C   UNL d   1      -3.537  16.448   9.906 -0.26 -0.01    +0.045    18.553
ATOM     21  C   UNL d   1      -2.408  17.041   9.506 -0.28 -0.00    +0.057    18.553
ATOM     22  C   UNL d   1      -5.642  15.562   9.827 -0.31 +0.00    -0.019    18.553
ATOM     23  C   UNL d   1      -5.115  15.415  11.199 -0.21 -0.01    +0.045    18.553
ATOM     24  C   UNL d   1      -4.703  16.173   9.066 -0.34 +0.00    -0.022    18.553
ATOM     25  C   UNL d   1      -5.305  14.630  13.535 -0.18 -0.01    +0.049    18.553
ATOM     26  C   UNL d   1      -4.971  14.053  15.718 -0.29 +0.00    -0.018    18.553
ATOM     27  C   UNL d   1      -5.597  13.668  14.492 -0.31 -0.00    +0.003    18.553
ATOM     28  C   UNL d   1      -5.777  14.833  12.210 -0.22 -0.01    +0.052    18.553
ATOM     29  C   UNL d   1      -4.761  16.529   7.620 -0.43 +0.00    +0.046    18.553
ATOM     30  C   UNL d   1      -5.041  13.326  17.018 -0.32 -0.02    +0.046    18.553
ATOM     31  H   UNL d   1      -3.188  15.967  11.905 +0.05 -0.04    +0.166    18.553
ATOM     32  H   UNL d   1      -4.094  16.378  13.700 +0.04 -0.03    +0.166    18.553
ATOM     33  C   UNL d   1      -1.066  16.873  18.092 -0.10 -0.02    +0.141    18.553
ATOM     34  C   UNL d   1      -0.421  17.762  19.121 -0.04 -0.03    +0.306    18.553
ATOM     35  O   UNL d   1      -0.956  18.211  20.121 -0.02 +0.02    -0.251    18.553
ATOM     36  O   UNL d   1       0.864  18.036  18.837 -0.00 +0.05    -0.481    18.553
ATOM     37  H   UNL d   1       0.831  18.516  17.983 +0.03 -0.03    +0.295    18.553
ATOM     38  C   UNL d   1      -6.420  12.510  14.314 -0.43 -0.00    +0.017    18.553
ATOM     39  C   UNL d   1      -7.676  12.519  13.840 -0.35 -0.03    +0.092    18.553
ATOM     40  C   UNL d   1      -8.407  11.258  13.689 -0.24 -0.12    +0.330    18.553
ATOM     41  O   UNL d   1      -8.134  10.322  12.961 -0.54 +0.09    -0.246    18.553
ATOM     42  O   UNL d   1      -9.476  11.244  14.501 -0.13 +0.20    -0.477    18.553
ATOM     43  H   UNL d   1     -10.233  11.373  13.894 -0.39 -0.17    +0.295    18.553
ATOM     44  C   UNL d   1       1.444  19.391  11.170 -0.04 -0.00    +0.141    18.553
ATOM     45  C   UNL d   1       0.527  20.375  10.494 -0.01 -0.00    +0.306    18.553
ATOM     46  O   UNL d   1      -0.499  20.847  10.953 -0.01 +0.00    -0.251    18.553
ATOM     47  O   UNL d   1       0.939  20.695   9.254 +0.00 -0.00    -0.481    18.553
ATOM     48  H   UNL d   1       0.793  19.880   8.727 +0.04 +0.01    +0.295    18.553
ATOM     49  C   UNL d   1      -7.006  15.111   9.396 -0.26 -0.01    +0.048    18.553
ATOM     50  C   UNL d   1      -8.052  16.211   9.573 -0.22 -0.04    +0.125    18.553
ATOM     51  C   UNL d   1      -8.754  16.078  10.894 -0.10 -0.13    +0.305    18.553
ATOM     52  O   UNL d   1      -8.304  16.315  12.002 -0.04 +0.06    -0.251    18.553
ATOM     53  O   UNL d   1     -10.016  15.628  10.751 -0.03 +0.45    -0.481    18.553
ATOM     54  H   UNL d   1     -10.141  15.572   9.781 -0.34 -0.52    +0.295    18.553
TER
ENDMDL
MODEL       92
USER    Run = 92
USER    Cluster Rank = 34
USER    Number of conformations in this cluster = 1
USER  
USER    RMSD from reference structure       = 15.695 A
USER  
USER    Estimated Free Energy of Binding    =   -3.96 kcal/mol  [=(1)+(2)+(3)-(4)]
USER    Estimated Inhibition Constant, Ki   =    1.25 mM (millimolar)  [Temperature = 298.15 K]
USER    
USER    (1) Final Intermolecular Energy     =   -7.84 kcal/mol
USER        vdW + Hbond + desolv Energy     =   -7.57 kcal/mol
USER        Electrostatic Energy            =   -0.27 kcal/mol
USER    (2) Final Total Internal Energy     =   -3.32 kcal/mol
USER    (3) Torsional Free Energy           =   +3.88 kcal/mol
USER    (4) Unbound System's Energy  [=(2)] =   -3.32 kcal/mol
USER    
USER    
USER  
USER    DPF = D:/Protein_go_brrr/autodock/final/mut_D99N/heme/dock.dpf
USER    NEWDPF move	heme_opt.pdbqt
USER    NEWDPF about	0.153000 0.018000 -0.028000
USER    NEWDPF tran0	-17.252102 8.311942 2.931854
USER    NEWDPF axisangle0	0.644064 0.738044 -0.201180 41.193739
USER    NEWDPF quaternion0	0.226576 0.259637 -0.070773 0.936079
USER    NEWDPF dihe0	40.07 84.72 -169.42 -144.51 39.39 133.14 139.64 25.40 17.12 -10.41 -47.98 -130.06 37.35 
USER  
USER                              x       y       z    vdW   Elec        q     RMS 
ATOM      1  O   UNL d   1     -22.411   8.658   0.100 -0.26 -0.23    -0.289    15.695
ATOM      2  O   UNL d   1     -18.634   2.736   2.755 -0.05 -0.05    -0.289    15.695
ATOM      3  N   UNL d   1     -19.314   8.934   1.591 -0.14 -0.02    -0.247    15.695
ATOM      4  N   UNL d   1     -18.777   6.178   2.566 -0.11 -0.03    -0.247    15.695
ATOM      5  N   UNL d   1     -16.630   7.255   4.146 -0.04 -0.01    -0.354    15.695
ATOM      6  N   UNL d   1     -17.206  10.113   3.145 -0.07 +0.04    -0.354    15.695
ATOM      7  C   UNL d   1     -20.983  10.527   0.766 -0.08 +0.02    +0.084    15.695
ATOM      8  C   UNL d   1     -19.873   4.341   1.385 -0.16 +0.02    +0.084    15.695
ATOM      9  C   UNL d   1     -19.687   5.849   1.586 -0.18 +0.02    +0.058    15.695
ATOM     10  C   UNL d   1     -19.627  10.273   1.431 -0.14 +0.00    +0.058    15.695
ATOM     11  C   UNL d   1     -21.373   9.094   0.562 -0.11 +0.08    +0.193    15.695
ATOM     12  C   UNL d   1     -20.268   8.226   1.080 -0.17 +0.03    +0.109    15.695
ATOM     13  C   UNL d   1     -18.929   3.877   2.458 -0.09 +0.03    +0.193    15.695
ATOM     14  C   UNL d   1     -21.981  11.179   1.726 -0.02 +0.00    +0.026    15.695
ATOM     15  C   UNL d   1     -20.388   6.765   0.901 -0.11 +0.02    +0.055    15.695
ATOM     16  C   UNL d   1     -19.339   3.880   0.025 -0.13 +0.01    +0.026    15.695
ATOM     17  C   UNL d   1     -18.336   5.087   3.104 -0.12 +0.01    +0.109    15.695
ATOM     18  C   UNL d   1     -18.794  11.285   1.738 -0.15 -0.00    +0.050    15.695
ATOM     19  C   UNL d   1     -17.490  11.142   2.276 -0.14 -0.01    +0.045    15.695
ATOM     20  C   UNL d   1     -16.679   5.982   4.652 -0.09 +0.00    +0.045    15.695
ATOM     21  C   UNL d   1     -17.400   4.939   4.228 -0.10 +0.01    +0.057    15.695
ATOM     22  C   UNL d   1     -15.216   7.215   5.899 -0.09 -0.00    -0.019    15.695
ATOM     23  C   UNL d   1     -15.774   8.073   4.834 -0.10 -0.00    +0.045    15.695
ATOM     24  C   UNL d   1     -15.755   5.978   5.785 -0.07 -0.00    -0.022    15.695
ATOM     25  C   UNL d   1     -15.916  10.217   3.612 -0.17 -0.01    +0.049    15.695
ATOM     26  C   UNL d   1     -16.345  11.913   2.147 -0.20 +0.00    -0.018    15.695
ATOM     27  C   UNL d   1     -15.349  11.313   2.977 -0.22 -0.00    +0.003    15.695
ATOM     28  C   UNL d   1     -15.441   9.358   4.641 -0.14 -0.00    +0.052    15.695
ATOM     29  C   UNL d   1     -15.498   4.769   6.618 -0.06 +0.01    +0.046    15.695
ATOM     30  C   UNL d   1     -16.184  13.132   1.303 -0.20 -0.01    +0.046    15.695
ATOM     31  H   UNL d   1     -17.129   7.504   3.299 +0.04 +0.00    +0.166    15.695
ATOM     32  H   UNL d   1     -17.881   9.410   3.421 +0.03 -0.01    +0.166    15.695
ATOM     33  C   UNL d   1     -20.929  11.265  -0.576 -0.13 +0.03    +0.141    15.695
ATOM     34  C   UNL d   1     -20.230  10.472  -1.646 -0.23 +0.07    +0.306    15.695
ATOM     35  O   UNL d   1     -20.760   9.731  -2.456 -0.30 -0.17    -0.251    15.695
ATOM     36  O   UNL d   1     -18.897  10.655  -1.640 -0.26 +0.05    -0.481    15.695
ATOM     37  H   UNL d   1     -18.644  10.659  -2.588 -0.39 -0.14    +0.295    15.695
ATOM     38  C   UNL d   1     -14.014  11.803   3.150 -0.29 -0.00    +0.017    15.695
ATOM     39  C   UNL d   1     -13.639  12.729   4.046 -0.18 -0.02    +0.092    15.695
ATOM     40  C   UNL d   1     -12.233  13.132   4.133 -0.19 -0.10    +0.330    15.695
ATOM     41  O   UNL d   1     -11.784  14.262   4.154 -0.22 +0.06    -0.246    15.695
ATOM     42  O   UNL d   1     -11.445  12.048   4.202 -0.14 +0.12    -0.477    15.695
ATOM     43  H   UNL d   1     -11.298  11.924   5.162 -0.36 -0.19    +0.295    15.695
ATOM     44  C   UNL d   1     -21.289   3.812   1.633 -0.07 +0.03    +0.141    15.695
ATOM     45  C   UNL d   1     -21.778   4.058   3.035 -0.01 +0.05    +0.306    15.695
ATOM     46  O   UNL d   1     -22.465   4.992   3.412 -0.01 -0.04    -0.251    15.695
ATOM     47  O   UNL d   1     -21.350   3.122   3.901 +0.00 -0.06    -0.481    15.695
ATOM     48  H   UNL d   1     -20.688   2.602   3.397 +0.02 +0.04    +0.295    15.695
ATOM     49  C   UNL d   1     -14.230   7.684   6.928 -0.20 -0.00    +0.048    15.695
ATOM     50  C   UNL d   1     -13.095   8.494   6.301 -0.20 -0.03    +0.125    15.695
ATOM     51  C   UNL d   1     -12.849   9.760   7.072 -0.26 -0.07    +0.305    15.695
ATOM     52  O   UNL d   1     -13.186  10.010   8.216 -0.41 +0.06    -0.251    15.695
ATOM     53  O   UNL d   1     -12.185  10.675   6.340 -0.24 +0.18    -0.481    15.695
ATOM     54  H   UNL d   1     -12.525  10.545   5.430 +0.15 -0.08    +0.295    15.695
TER
ENDMDL
MODEL       89
USER    Run = 89
USER    Cluster Rank = 35
USER    Number of conformations in this cluster = 3
USER  
USER    RMSD from reference structure       = 16.562 A
USER  
USER    Estimated Free Energy of Binding    =   -3.95 kcal/mol  [=(1)+(2)+(3)-(4)]
USER    Estimated Inhibition Constant, Ki   =    1.28 mM (millimolar)  [Temperature = 298.15 K]
USER    
USER    (1) Final Intermolecular Energy     =   -7.83 kcal/mol
USER        vdW + Hbond + desolv Energy     =   -7.64 kcal/mol
USER        Electrostatic Energy            =   -0.19 kcal/mol
USER    (2) Final Total Internal Energy     =   -4.45 kcal/mol
USER    (3) Torsional Free Energy           =   +3.88 kcal/mol
USER    (4) Unbound System's Energy  [=(2)] =   -4.45 kcal/mol
USER    
USER    
USER  
USER    DPF = D:/Protein_go_brrr/autodock/final/mut_D99N/heme/dock.dpf
USER    NEWDPF move	heme_opt.pdbqt
USER    NEWDPF about	0.153000 0.018000 -0.028000
USER    NEWDPF tran0	3.982480 15.829500 9.497565
USER    NEWDPF axisangle0	0.688851 -0.714716 0.121103 77.774871
USER    NEWDPF quaternion0	0.432455 -0.448693 0.076027 0.778381
USER    NEWDPF dihe0	166.48 144.46 -165.98 -55.14 -145.18 47.87 134.31 -180.00 16.99 -21.97 69.80 -86.32 125.53 
USER  
USER                              x       y       z    vdW   Elec        q     RMS 
ATOM      1  O   UNL d   1       0.735  20.101  11.940 -0.01 +0.01    -0.289    16.562
ATOM      2  O   UNL d   1       2.526  13.242  14.419 -0.29 +0.06    -0.289    16.562
ATOM      3  N   UNL d   1       2.580  17.863  10.074 -0.06 -0.01    -0.247    16.562
ATOM      4  N   UNL d   1       3.027  15.608  11.957 -0.09 +0.02    -0.247    16.562
ATOM      5  N   UNL d   1       5.017  14.606  10.140 -0.13 +0.06    -0.354    16.562
ATOM      6  N   UNL d   1       4.561  16.959   8.201 -0.03 -0.00    -0.354    16.562
ATOM      7  C   UNL d   1       1.919  20.207   9.804 -0.03 +0.00    +0.084    16.562
ATOM      8  C   UNL d   1       1.384  15.298  13.740 -0.18 -0.02    +0.084    16.562
ATOM      9  C   UNL d   1       1.907  16.131  12.564 -0.12 -0.00    +0.058    16.562
ATOM     10  C   UNL d   1       2.662  18.982   9.263 -0.08 +0.00    +0.058    16.562
ATOM     11  C   UNL d   1       1.387  19.576  11.056 -0.02 -0.00    +0.193    16.562
ATOM     12  C   UNL d   1       1.834  18.148  11.092 -0.07 -0.00    +0.109    16.562
ATOM     13  C   UNL d   1       2.437  14.226  13.710 -0.18 -0.03    +0.193    16.562
ATOM     14  C   UNL d   1       2.877  21.338  10.188 -0.01 -0.00    +0.026    16.562
ATOM     15  C   UNL d   1       1.350  17.295  12.195 -0.10 -0.00    +0.055    16.562
ATOM     16  C   UNL d   1       0.026  14.664  13.426 -0.37 -0.01    +0.026    16.562
ATOM     17  C   UNL d   1       3.376  14.534  12.590 -0.17 -0.01    +0.109    16.562
ATOM     18  C   UNL d   1       3.258  18.998   8.056 -0.11 +0.00    +0.050    16.562
ATOM     19  C   UNL d   1       3.894  17.891   7.439 -0.14 +0.00    +0.045    16.562
ATOM     20  C   UNL d   1       5.245  13.786  11.214 -0.22 -0.01    +0.045    16.562
ATOM     21  C   UNL d   1       4.542  13.672  12.346 -0.28 -0.01    +0.057    16.562
ATOM     22  C   UNL d   1       6.869  13.421   9.650 -0.25 +0.00    -0.019    16.562
ATOM     23  C   UNL d   1       5.946  14.458   9.145 -0.27 -0.01    +0.045    16.562
ATOM     24  C   UNL d   1       6.448  13.027  10.875 -0.20 +0.00    -0.022    16.562
ATOM     25  C   UNL d   1       5.177  16.028   7.397 -0.20 -0.00    +0.049    16.562
ATOM     26  C   UNL d   1       4.050  17.536   6.108 -0.24 -0.00    -0.018    16.562
ATOM     27  C   UNL d   1       4.844  16.348   6.089 -0.31 -0.00    +0.003    16.562
ATOM     28  C   UNL d   1       6.055  15.056   7.949 -0.30 -0.01    +0.052    16.562
ATOM     29  C   UNL d   1       7.040  12.000  11.779 -0.14 -0.00    +0.046    16.562
ATOM     30  C   UNL d   1       3.494  18.254   4.924 -0.15 +0.00    +0.046    16.562
ATOM     31  H   UNL d   1       4.189  15.190  10.090 +0.05 -0.01    +0.166    16.562
ATOM     32  H   UNL d   1       4.613  16.996   9.212 +0.03 -0.00    +0.166    16.562
ATOM     33  C   UNL d   1       0.769  20.718   8.929 -0.03 +0.00    +0.141    16.562
ATOM     34  C   UNL d   1      -0.356  19.726   8.813 -0.04 +0.01    +0.306    16.562
ATOM     35  O   UNL d   1      -0.474  18.867   7.955 -0.13 -0.02    -0.251    16.562
ATOM     36  O   UNL d   1      -1.272  19.865   9.787 +0.00 -0.00    -0.481    16.562
ATOM     37  H   UNL d   1      -0.827  20.413  10.468 +0.02 -0.00    +0.295    16.562
ATOM     38  C   UNL d   1       5.257  15.651   4.908 -0.31 -0.00    +0.017    16.562
ATOM     39  C   UNL d   1       6.512  15.260   4.639 -0.28 -0.01    +0.092    16.562
ATOM     40  C   UNL d   1       6.801  14.535   3.399 -0.21 -0.02    +0.330    16.562
ATOM     41  O   UNL d   1       6.417  14.801   2.276 -0.23 -0.00    -0.246    16.562
ATOM     42  O   UNL d   1       7.593  13.482   3.653 -0.16 +0.03    -0.477    16.562
ATOM     43  H   UNL d   1       8.184  13.800   4.366 +0.08 -0.02    +0.295    16.562
ATOM     44  C   UNL d   1       1.364  16.010  15.096 -0.09 -0.04    +0.141    16.562
ATOM     45  C   UNL d   1       2.736  16.221  15.677 -0.06 -0.06    +0.306    16.562
ATOM     46  O   UNL d   1       3.457  17.189  15.507 -0.02 +0.03    -0.251    16.562
ATOM     47  O   UNL d   1       3.144  15.180  16.426 -0.08 +0.12    -0.481    16.562
ATOM     48  H   UNL d   1       2.511  14.461  16.216 -0.46 -0.15    +0.295    16.562
ATOM     49  C   UNL d   1       8.073  12.929   8.902 -0.26 -0.00    +0.048    16.562
ATOM     50  C   UNL d   1       8.838  14.073   8.238 -0.10 -0.01    +0.125    16.562
ATOM     51  C   UNL d   1       8.679  14.029   6.744 -0.11 -0.02    +0.305    16.562
ATOM     52  O   UNL d   1       9.068  14.849   5.931 -0.05 +0.01    -0.251    16.562
ATOM     53  O   UNL d   1       8.009  12.931   6.341 -0.13 +0.05    -0.481    16.562
ATOM     54  H   UNL d   1       7.260  13.288   5.819 -0.35 -0.10    +0.295    16.562
TER
ENDMDL
MODEL        8
USER    Run = 8
USER    Cluster Rank = 36
USER    Number of conformations in this cluster = 1
USER  
USER    RMSD from reference structure       = 12.327 A
USER  
USER    Estimated Free Energy of Binding    =   -3.94 kcal/mol  [=(1)+(2)+(3)-(4)]
USER    Estimated Inhibition Constant, Ki   =    1.29 mM (millimolar)  [Temperature = 298.15 K]
USER    
USER    (1) Final Intermolecular Energy     =   -7.82 kcal/mol
USER        vdW + Hbond + desolv Energy     =   -7.39 kcal/mol
USER        Electrostatic Energy            =   -0.43 kcal/mol
USER    (2) Final Total Internal Energy     =   -2.51 kcal/mol
USER    (3) Torsional Free Energy           =   +3.88 kcal/mol
USER    (4) Unbound System's Energy  [=(2)] =   -2.51 kcal/mol
USER    
USER    
USER  
USER    DPF = D:/Protein_go_brrr/autodock/final/mut_D99N/heme/dock.dpf
USER    NEWDPF move	heme_opt.pdbqt
USER    NEWDPF about	0.153000 0.018000 -0.028000
USER    NEWDPF tran0	8.250524 12.990640 2.408908
USER    NEWDPF axisangle0	-0.478879 -0.524315 -0.704108 176.814230
USER    NEWDPF quaternion0	-0.478694 -0.524112 -0.703836 0.027798
USER    NEWDPF dihe0	-179.04 76.90 -169.72 81.83 -154.68 -175.53 -60.72 96.94 9.78 -138.40 123.21 -60.57 -179.90 
USER  
USER                              x       y       z    vdW   Elec        q     RMS 
ATOM      1  O   UNL d   1      12.518   9.658   0.078 -0.00 -0.01    -0.289    12.327
ATOM      2  O   UNL d   1       6.334  12.607  -2.996 -0.29 -0.10    -0.289    12.327
ATOM      3  N   UNL d   1      10.204  11.457   1.895 -0.07 -0.02    -0.247    12.327
ATOM      4  N   UNL d   1       8.324  12.447  -0.182 -0.64 -0.08    -0.247    12.327
ATOM      5  N   UNL d   1       7.247  14.248   1.783 -0.09 -0.02    -0.354    12.327
ATOM      6  N   UNL d   1       9.215  13.230   3.927 -0.07 +0.00    -0.354    12.327
ATOM      7  C   UNL d   1      12.404  10.488   2.374 -0.02 +0.00    +0.084    12.327
ATOM      8  C   UNL d   1       8.139  11.138  -2.237 -0.16 +0.03    +0.084    12.327
ATOM      9  C   UNL d   1       8.825  11.376  -0.888 +0.01 +0.02    +0.058    12.327
ATOM     10  C   UNL d   1      11.187  11.283   2.856 -0.06 +0.00    +0.058    12.327
ATOM     11  C   UNL d   1      11.927  10.228   0.977 -0.01 +0.01    +0.193    12.327
ATOM     12  C   UNL d   1      10.572  10.843   0.818 -0.07 +0.01    +0.109    12.327
ATOM     13  C   UNL d   1       7.181  12.295  -2.183 -0.15 +0.05    +0.193    12.327
ATOM     14  C   UNL d   1      13.667  11.351   2.314 -0.00 +0.00    +0.026    12.327
ATOM     15  C   UNL d   1       9.858  10.635  -0.458 -0.11 +0.01    +0.055    12.327
ATOM     16  C   UNL d   1       7.336   9.834  -2.244 -0.34 +0.01    +0.026    12.327
ATOM     17  C   UNL d   1       7.400  13.012  -0.890 -0.15 +0.02    +0.109    12.327
ATOM     18  C   UNL d   1      11.071  11.685   4.135 -0.08 +0.00    +0.050    12.327
ATOM     19  C   UNL d   1       9.948  12.350   4.690 -0.12 +0.00    +0.045    12.327
ATOM     20  C   UNL d   1       6.630  14.731   0.659 -0.19 +0.00    +0.045    12.327
ATOM     21  C   UNL d   1       6.627  14.223  -0.578 -0.22 +0.01    +0.057    12.327
ATOM     22  C   UNL d   1       6.184  16.134   2.405 -0.21 -0.00    -0.019    12.327
ATOM     23  C   UNL d   1       7.036  15.029   2.888 -0.25 -0.00    +0.045    12.327
ATOM     24  C   UNL d   1       5.946  15.951   1.084 -0.17 -0.00    -0.022    12.327
ATOM     25  C   UNL d   1       8.233  13.825   4.685 -0.22 -0.00    +0.049    12.327
ATOM     26  C   UNL d   1       9.407  12.346   5.966 -0.15 +0.00    -0.018    12.327
ATOM     27  C   UNL d   1       8.312  13.264   5.952 -0.21 -0.00    +0.003    12.327
ATOM     28  C   UNL d   1       7.448  14.886   4.157 -0.25 -0.00    +0.052    12.327
ATOM     29  C   UNL d   1       5.134  16.790   0.157 -0.16 +0.00    +0.046    12.327
ATOM     30  C   UNL d   1       9.875  11.538   7.129 -0.16 +0.00    +0.046    12.327
ATOM     31  H   UNL d   1       7.734  13.358   1.776 +0.05 +0.02    +0.166    12.327
ATOM     32  H   UNL d   1       9.414  13.427   2.953 +0.04 +0.00    +0.166    12.327
ATOM     33  C   UNL d   1      12.659   9.167   3.109 -0.02 +0.01    +0.141    12.327
ATOM     34  C   UNL d   1      11.484   8.230   3.042 -0.04 +0.01    +0.306    12.327
ATOM     35  O   UNL d   1      10.659   8.046   3.921 -0.08 -0.02    -0.251    12.327
ATOM     36  O   UNL d   1      11.409   7.576   1.870 -0.02 -0.01    -0.481    12.327
ATOM     37  H   UNL d   1      12.161   7.923   1.345 +0.04 +0.01    +0.295    12.327
ATOM     38  C   UNL d   1       7.482  13.577   7.076 -0.23 -0.00    +0.017    12.327
ATOM     39  C   UNL d   1       6.779  14.710   7.229 -0.22 -0.02    +0.092    12.327
ATOM     40  C   UNL d   1       5.952  14.900   8.423 -0.19 -0.05    +0.330    12.327
ATOM     41  O   UNL d   1       5.231  15.844   8.685 -0.16 +0.02    -0.246    12.327
ATOM     42  O   UNL d   1       6.077  13.846   9.244 -0.15 +0.12    -0.477    12.327
ATOM     43  H   UNL d   1       5.252  13.338   9.102 -0.43 -0.19    +0.295    12.327
ATOM     44  C   UNL d   1       9.048  11.236  -3.466 -0.07 +0.04    +0.141    12.327
ATOM     45  C   UNL d   1       8.372  10.807  -4.741 -0.02 +0.21    +0.306    12.327
ATOM     46  O   UNL d   1       8.546   9.760  -5.340 -0.64 -0.22    -0.251    12.327
ATOM     47  O   UNL d   1       7.525  11.740  -5.213 -0.42 -0.48    -0.481    12.327
ATOM     48  H   UNL d   1       7.695  12.532  -4.660 +0.05 +0.16    +0.295    12.327
ATOM     49  C   UNL d   1       5.699  17.263   3.266 -0.17 +0.00    +0.048    12.327
ATOM     50  C   UNL d   1       6.588  18.499   3.138 -0.06 +0.00    +0.125    12.327
ATOM     51  C   UNL d   1       8.018  18.167   3.457 -0.01 +0.00    +0.305    12.327
ATOM     52  O   UNL d   1       8.887  17.803   2.683 -0.01 -0.00    -0.251    12.327
ATOM     53  O   UNL d   1       8.286  18.301   4.771 +0.00 +0.00    -0.481    12.327
ATOM     54  H   UNL d   1       8.708  19.183   4.839 +0.00 -0.00    +0.295    12.327
TER
ENDMDL
MODEL        4
USER    Run = 4
USER    Cluster Rank = 37
USER    Number of conformations in this cluster = 1
USER  
USER    RMSD from reference structure       = 20.289 A
USER  
USER    Estimated Free Energy of Binding    =   -3.88 kcal/mol  [=(1)+(2)+(3)-(4)]
USER    Estimated Inhibition Constant, Ki   =    1.44 mM (millimolar)  [Temperature = 298.15 K]
USER    
USER    (1) Final Intermolecular Energy     =   -7.75 kcal/mol
USER        vdW + Hbond + desolv Energy     =   -7.72 kcal/mol
USER        Electrostatic Energy            =   -0.03 kcal/mol
USER    (2) Final Total Internal Energy     =   -4.83 kcal/mol
USER    (3) Torsional Free Energy           =   +3.88 kcal/mol
USER    (4) Unbound System's Energy  [=(2)] =   -4.83 kcal/mol
USER    
USER    
USER  
USER    DPF = D:/Protein_go_brrr/autodock/final/mut_D99N/heme/dock.dpf
USER    NEWDPF move	heme_opt.pdbqt
USER    NEWDPF about	0.153000 0.018000 -0.028000
USER    NEWDPF tran0	0.763534 15.802862 15.969552
USER    NEWDPF axisangle0	-0.107016 -0.634019 0.765877 -146.815857
USER    NEWDPF quaternion0	-0.102560 -0.607620 0.733988 -0.285556
USER    NEWDPF dihe0	178.41 -169.46 -118.83 -48.12 -148.15 -61.17 126.46 -89.53 26.93 -34.78 -101.65 23.20 -9.95 
USER  
USER                              x       y       z    vdW   Elec        q     RMS 
ATOM      1  O   UNL d   1       4.522  12.045  13.418 -0.21 +0.01    -0.289    20.289
ATOM      2  O   UNL d   1       5.144  16.151  19.674 -0.02 +0.02    -0.289    20.289
ATOM      3  N   UNL d   1       2.075  14.240  14.463 -0.13 +0.07    -0.247    20.289
ATOM      4  N   UNL d   1       3.057  15.143  17.118 -0.12 +0.06    -0.247    20.289
ATOM      5  N   UNL d   1       0.443  16.235  17.610 +0.02 +0.10    -0.354    20.289
ATOM      6  N   UNL d   1      -0.573  15.278  14.861 -0.07 +0.10    -0.354    20.289
ATOM      7  C   UNL d   1       2.261  12.587  12.663 -0.48 -0.01    +0.084    20.289
ATOM      8  C   UNL d   1       5.469  15.068  17.503 -0.09 -0.01    +0.084    20.289
ATOM      9  C   UNL d   1       4.271  14.753  16.600 -0.18 -0.01    +0.058    20.289
ATOM     10  C   UNL d   1       1.429  13.646  13.392 -0.37 -0.01    +0.058    20.289
ATOM     11  C   UNL d   1       3.499  12.700  13.500 -0.29 -0.02    +0.193    20.289
ATOM     12  C   UNL d   1       3.271  13.753  14.540 -0.25 -0.02    +0.109    20.289
ATOM     13  C   UNL d   1       4.705  15.675  18.646 -0.06 -0.02    +0.193    20.289
ATOM     14  C   UNL d   1       1.676  11.182  12.831 -0.76 -0.00    +0.026    20.289
ATOM     15  C   UNL d   1       4.395  14.107  15.430 -0.21 -0.00    +0.055    20.289
ATOM     16  C   UNL d   1       6.375  16.141  16.891 -0.04 -0.00    +0.026    20.289
ATOM     17  C   UNL d   1       3.253  15.655  18.291 -0.13 -0.02    +0.109    20.289
ATOM     18  C   UNL d   1       0.211  14.012  12.948 -0.25 -0.01    +0.050    20.289
ATOM     19  C   UNL d   1      -0.593  15.038  13.506 -0.29 -0.01    +0.045    20.289
ATOM     20  C   UNL d   1       0.992  16.366  18.859 -0.15 -0.01    +0.045    20.289
ATOM     21  C   UNL d   1       2.252  16.150  19.247 -0.14 -0.01    +0.057    20.289
ATOM     22  C   UNL d   1      -1.224  16.914  18.964 -0.11 +0.00    -0.019    20.289
ATOM     23  C   UNL d   1      -0.891  16.544  17.574 -0.07 -0.01    +0.045    20.289
ATOM     24  C   UNL d   1      -0.105  16.809  19.720 -0.11 +0.00    -0.022    20.289
ATOM     25  C   UNL d   1      -1.490  16.248  15.194 -0.16 -0.01    +0.049    20.289
ATOM     26  C   UNL d   1      -1.520  15.899  12.939 -0.20 +0.00    -0.018    20.289
ATOM     27  C   UNL d   1      -2.069  16.674  14.007 -0.11 -0.00    +0.003    20.289
ATOM     28  C   UNL d   1      -1.763  16.556  16.554 -0.12 -0.01    +0.052    20.289
ATOM     29  C   UNL d   1       0.069  17.085  21.174 -0.05 -0.01    +0.046    20.289
ATOM     30  C   UNL d   1      -1.875  16.000  11.494 -0.27 -0.01    +0.046    20.289
ATOM     31  H   UNL d   1       1.016  16.009  16.804 -0.40 -0.07    +0.166    20.289
ATOM     32  H   UNL d   1       0.014  14.769  15.511 -0.40 -0.10    +0.166    20.289
ATOM     33  C   UNL d   1       2.575  12.893  11.195 -0.38 -0.03    +0.141    20.289
ATOM     34  C   UNL d   1       3.631  13.953  11.037 -0.13 -0.06    +0.306    20.289
ATOM     35  O   UNL d   1       3.436  15.148  10.890 -0.16 +0.02    -0.251    20.289
ATOM     36  O   UNL d   1       4.878  13.452  11.076 -0.03 +0.14    -0.481    20.289
ATOM     37  H   UNL d   1       4.755  12.498  11.270 -0.29 -0.10    +0.295    20.289
ATOM     38  C   UNL d   1      -3.078  17.679  13.863 -0.05 -0.00    +0.017    20.289
ATOM     39  C   UNL d   1      -2.938  18.971  14.196 -0.01 -0.01    +0.092    20.289
ATOM     40  C   UNL d   1      -4.046  19.905  13.982 +0.00 -0.02    +0.330    20.289
ATOM     41  O   UNL d   1      -4.553  20.227  12.924 -0.00 +0.01    -0.246    20.289
ATOM     42  O   UNL d   1      -4.474  20.392  15.157 +0.00 +0.03    -0.477    20.289
ATOM     43  H   UNL d   1      -3.793  20.096  15.796 +0.00 -0.02    +0.295    20.289
ATOM     44  C   UNL d   1       6.281  13.856  17.969 -0.12 -0.01    +0.141    20.289
ATOM     45  C   UNL d   1       5.708  13.190  19.191 -0.11 -0.03    +0.306    20.289
ATOM     46  O   UNL d   1       4.798  12.379  19.218 -0.17 +0.01    -0.251    20.289
ATOM     47  O   UNL d   1       6.297  13.604  20.327 -0.01 +0.06    -0.481    20.289
ATOM     48  H   UNL d   1       6.128  14.570  20.356 +0.04 -0.03    +0.295    20.289
ATOM     49  C   UNL d   1      -2.594  17.319  19.424 -0.07 -0.00    +0.048    20.289
ATOM     50  C   UNL d   1      -2.780  18.835  19.389 -0.01 -0.01    +0.125    20.289
ATOM     51  C   UNL d   1      -3.060  19.309  17.991 -0.00 -0.02    +0.305    20.289
ATOM     52  O   UNL d   1      -2.262  19.748  17.181 -0.00 +0.02    -0.251    20.289
ATOM     53  O   UNL d   1      -4.368  19.216  17.680 +0.00 +0.04    -0.481    20.289
ATOM     54  H   UNL d   1      -4.585  20.092  17.297 +0.00 -0.02    +0.295    20.289
TER
ENDMDL
MODEL       85
USER    Run = 85
USER    Cluster Rank = 38
USER    Number of conformations in this cluster = 1
USER  
USER    RMSD from reference structure       = 14.175 A
USER  
USER    Estimated Free Energy of Binding    =   -3.87 kcal/mol  [=(1)+(2)+(3)-(4)]
USER    Estimated Inhibition Constant, Ki   =    1.46 mM (millimolar)  [Temperature = 298.15 K]
USER    
USER    (1) Final Intermolecular Energy     =   -7.75 kcal/mol
USER        vdW + Hbond + desolv Energy     =   -7.53 kcal/mol
USER        Electrostatic Energy            =   -0.22 kcal/mol
USER    (2) Final Total Internal Energy     =   -4.05 kcal/mol
USER    (3) Torsional Free Energy           =   +3.88 kcal/mol
USER    (4) Unbound System's Energy  [=(2)] =   -4.05 kcal/mol
USER    
USER    
USER  
USER    DPF = D:/Protein_go_brrr/autodock/final/mut_D99N/heme/dock.dpf
USER    NEWDPF move	heme_opt.pdbqt
USER    NEWDPF about	0.153000 0.018000 -0.028000
USER    NEWDPF tran0	18.012853 -1.947862 2.383764
USER    NEWDPF axisangle0	-0.226352 -0.579576 -0.782852 144.522978
USER    NEWDPF quaternion0	-0.215591 -0.552021 -0.745632 0.304673
USER    NEWDPF dihe0	112.11 -140.12 -100.07 -57.56 -152.14 82.01 122.34 -137.27 64.87 -33.24 -101.55 -95.97 -18.19 
USER  
USER                              x       y       z    vdW   Elec        q     RMS 
ATOM      1  O   UNL d   1      22.121  -5.731   4.272 -0.06 -0.13    -0.289    14.175
ATOM      2  O   UNL d   1      19.939  -3.887  -2.673 -0.13 -0.01    -0.289    14.175
ATOM      3  N   UNL d   1      19.541  -3.529   3.648 -0.11 -0.01    -0.247    14.175
ATOM      4  N   UNL d   1      19.619  -3.205   0.695 -0.11 +0.02    -0.247    14.175
ATOM      5  N   UNL d   1      17.876  -0.938   0.991 -0.03 +0.02    -0.354    14.175
ATOM      6  N   UNL d   1      17.815  -1.270   4.055 -0.04 +0.01    -0.354    14.175
ATOM      7  C   UNL d   1      20.721  -4.284   5.659 -0.10 +0.01    +0.084    14.175
ATOM      8  C   UNL d   1      20.558  -5.047  -0.608 -0.33 -0.00    +0.084    14.175
ATOM      9  C   UNL d   1      20.258  -4.423   0.759 -0.26 -0.00    +0.058    14.175
ATOM     10  C   UNL d   1      19.639  -3.406   5.024 -0.11 +0.00    +0.058    14.175
ATOM     11  C   UNL d   1      21.205  -4.939   4.400 -0.16 +0.05    +0.193    14.175
ATOM     12  C   UNL d   1      20.394  -4.418   3.254 -0.18 +0.01    +0.109    14.175
ATOM     13  C   UNL d   1      20.005  -3.939  -1.460 -0.24 -0.01    +0.193    14.175
ATOM     14  C   UNL d   1      21.860  -3.452   6.254 -0.04 +0.00    +0.026    14.175
ATOM     15  C   UNL d   1      20.632  -4.993   1.915 -0.24 +0.00    +0.055    14.175
ATOM     16  C   UNL d   1      19.730  -6.313  -0.848 -0.29 -0.00    +0.026    14.175
ATOM     17  C   UNL d   1      19.474  -2.880  -0.550 -0.19 -0.01    +0.109    14.175
ATOM     18  C   UNL d   1      18.809  -2.659   5.775 -0.12 +0.00    +0.050    14.175
ATOM     19  C   UNL d   1      17.728  -1.884   5.284 -0.16 -0.00    +0.045    14.175
ATOM     20  C   UNL d   1      18.211  -0.806  -0.332 -0.13 -0.00    +0.045    14.175
ATOM     21  C   UNL d   1      18.905  -1.645  -1.108 -0.21 -0.01    +0.057    14.175
ATOM     22  C   UNL d   1      17.011   1.028   0.312 -0.11 +0.00    -0.019    14.175
ATOM     23  C   UNL d   1      17.151   0.121   1.469 -0.11 -0.00    +0.045    14.175
ATOM     24  C   UNL d   1      17.639   0.473  -0.751 -0.13 +0.00    -0.022    14.175
ATOM     25  C   UNL d   1      16.699  -0.501   3.818 -0.18 -0.00    +0.049    14.175
ATOM     26  C   UNL d   1      16.509  -1.534   5.844 -0.27 +0.00    -0.018    14.175
ATOM     27  C   UNL d   1      15.856  -0.676   4.906 -0.27 -0.00    +0.003    14.175
ATOM     28  C   UNL d   1      16.629   0.352   2.683 -0.14 -0.00    +0.052    14.175
ATOM     29  C   UNL d   1      17.764   0.999  -2.141 -0.13 -0.01    +0.046    14.175
ATOM     30  C   UNL d   1      15.980  -1.970   7.169 -0.03 +0.00    +0.046    14.175
ATOM     31  H   UNL d   1      18.091  -1.785   1.506 +0.07 -0.01    +0.166    14.175
ATOM     32  H   UNL d   1      18.618  -1.354   3.442 +0.04 -0.00    +0.166    14.175
ATOM     33  C   UNL d   1      20.215  -5.336   6.652 -0.11 +0.03    +0.141    14.175
ATOM     34  C   UNL d   1      20.401  -6.742   6.150 -0.15 +0.11    +0.306    14.175
ATOM     35  O   UNL d   1      19.553  -7.432   5.610 -0.55 -0.12    -0.251    14.175
ATOM     36  O   UNL d   1      21.647  -7.205   6.355 -0.07 -0.29    -0.481    14.175
ATOM     37  H   UNL d   1      22.205  -6.697   5.729 +0.05 +0.21    +0.295    14.175
ATOM     38  C   UNL d   1      14.572  -0.072   5.096 -0.29 -0.00    +0.017    14.175
ATOM     39  C   UNL d   1      14.329   1.248   5.095 -0.26 +0.00    +0.092    14.175
ATOM     40  C   UNL d   1      12.962   1.739   5.283 -0.19 +0.03    +0.330    14.175
ATOM     41  O   UNL d   1      12.352   1.857   6.329 -0.28 -0.06    -0.246    14.175
ATOM     42  O   UNL d   1      12.424   2.075   4.100 +0.04 -0.05    -0.477    14.175
ATOM     43  H   UNL d   1      12.737   1.373   3.493 -0.20 -0.01    +0.295    14.175
ATOM     44  C   UNL d   1      22.040  -5.287  -0.913 -0.17 +0.01    +0.141    14.175
ATOM     45  C   UNL d   1      22.746  -4.062  -1.431 -0.04 +0.02    +0.306    14.175
ATOM     46  O   UNL d   1      23.142  -3.118  -0.770 -0.02 -0.02    -0.251    14.175
ATOM     47  O   UNL d   1      22.893  -4.080  -2.768 -0.03 -0.04    -0.481    14.175
ATOM     48  H   UNL d   1      22.017  -3.810  -3.117 +0.08 +0.03    +0.295    14.175
ATOM     49  C   UNL d   1      16.296   2.346   0.356 -0.09 -0.00    +0.048    14.175
ATOM     50  C   UNL d   1      14.898   2.257  -0.256 -0.19 -0.00    +0.125    14.175
ATOM     51  C   UNL d   1      13.926   1.648   0.714 -0.21 +0.00    +0.305    14.175
ATOM     52  O   UNL d   1      13.000   0.896   0.464 -0.34 +0.00    -0.251    14.175
ATOM     53  O   UNL d   1      14.167   2.038   1.981 -0.10 -0.01    -0.481    14.175
ATOM     54  H   UNL d   1      13.328   2.458   2.265 +0.12 +0.02    +0.295    14.175
TER
ENDMDL
MODEL       57
USER    Run = 57
USER    Cluster Rank = 39
USER    Number of conformations in this cluster = 1
USER  
USER    RMSD from reference structure       = 11.532 A
USER  
USER    Estimated Free Energy of Binding    =   -3.83 kcal/mol  [=(1)+(2)+(3)-(4)]
USER    Estimated Inhibition Constant, Ki   =    1.57 mM (millimolar)  [Temperature = 298.15 K]
USER    
USER    (1) Final Intermolecular Energy     =   -7.70 kcal/mol
USER        vdW + Hbond + desolv Energy     =   -7.25 kcal/mol
USER        Electrostatic Energy            =   -0.45 kcal/mol
USER    (2) Final Total Internal Energy     =   -2.52 kcal/mol
USER    (3) Torsional Free Energy           =   +3.88 kcal/mol
USER    (4) Unbound System's Energy  [=(2)] =   -2.52 kcal/mol
USER    
USER    
USER  
USER    DPF = D:/Protein_go_brrr/autodock/final/mut_D99N/heme/dock.dpf
USER    NEWDPF move	heme_opt.pdbqt
USER    NEWDPF about	0.153000 0.018000 -0.028000
USER    NEWDPF tran0	-12.097518 -4.779300 7.018146
USER    NEWDPF axisangle0	0.890013 0.201503 0.408990 163.946239
USER    NEWDPF quaternion0	0.881294 0.199529 0.404983 0.139638
USER    NEWDPF dihe0	120.90 17.16 -165.01 -13.12 -131.40 6.10 136.91 12.47 28.78 -8.51 -113.69 136.32 -44.19 
USER  
USER                              x       y       z    vdW   Elec        q     RMS 
ATOM      1  O   UNL d   1     -14.210  -7.342   2.147 -0.02 -0.08    -0.289    11.532
ATOM      2  O   UNL d   1     -16.963  -1.786   6.382 -0.00 -0.11    -0.289    11.532
ATOM      3  N   UNL d   1     -12.664  -6.249   5.030 -0.09 -0.17    -0.247    11.532
ATOM      4  N   UNL d   1     -14.283  -3.886   5.819 -0.52 -0.39    -0.247    11.532
ATOM      5  N   UNL d   1     -12.185  -3.177   7.653 -0.08 -0.24    -0.354    11.532
ATOM      6  N   UNL d   1     -10.503  -5.620   6.814 -0.08 -0.15    -0.354    11.532
ATOM      7  C   UNL d   1     -12.088  -7.839   3.256 -0.08 +0.02    +0.084    11.532
ATOM      8  C   UNL d   1     -16.613  -3.831   5.084 -0.03 +0.05    +0.084    11.532
ATOM      9  C   UNL d   1     -15.241  -4.514   5.056 -0.05 +0.06    +0.058    11.532
ATOM     10  C   UNL d   1     -11.710  -7.139   4.564 -0.13 +0.02    +0.058    11.532
ATOM     11  C   UNL d   1     -13.433  -7.201   3.074 -0.06 +0.07    +0.193    11.532
ATOM     12  C   UNL d   1     -13.677  -6.277   4.227 -0.08 +0.07    +0.109    11.532
ATOM     13  C   UNL d   1     -16.245  -2.677   5.974 -0.03 +0.12    +0.193    11.532
ATOM     14  C   UNL d   1     -11.180  -7.420   2.097 -0.15 +0.00    +0.026    11.532
ATOM     15  C   UNL d   1     -14.987  -5.601   4.311 -0.08 +0.04    +0.055    11.532
ATOM     16  C   UNL d   1     -17.661  -4.689   5.798 -0.00 +0.01    +0.026    11.532
ATOM     17  C   UNL d   1     -14.805  -2.823   6.344 -0.03 +0.12    +0.109    11.532
ATOM     18  C   UNL d   1     -10.582  -7.451   5.228 -0.19 +0.02    +0.050    11.532
ATOM     19  C   UNL d   1     -10.192  -6.919   6.484 -0.20 +0.01    +0.045    11.532
ATOM     20  C   UNL d   1     -12.950  -2.041   7.719 -0.13 +0.03    +0.045    11.532
ATOM     21  C   UNL d   1     -14.151  -1.807   7.181 -0.09 +0.04    +0.057    11.532
ATOM     22  C   UNL d   1     -11.017  -1.699   8.888 -0.31 -0.01    -0.019    11.532
ATOM     23  C   UNL d   1     -10.999  -3.065   8.329 -0.29 +0.02    +0.045    11.532
ATOM     24  C   UNL d   1     -12.175  -1.098   8.525 -0.17 -0.01    -0.022    11.532
ATOM     25  C   UNL d   1      -9.954  -5.285   8.030 -0.29 +0.01    +0.049    11.532
ATOM     26  C   UNL d   1      -9.453  -7.455   7.527 -0.25 -0.00    -0.018    11.532
ATOM     27  C   UNL d   1      -9.323  -6.425   8.510 -0.31 +0.00    +0.003    11.532
ATOM     28  C   UNL d   1     -10.006  -3.949   8.511 -0.33 +0.01    +0.052    11.532
ATOM     29  C   UNL d   1     -12.658   0.273   8.855 -0.17 +0.02    +0.046    11.532
ATOM     30  C   UNL d   1      -8.903  -8.838   7.611 -0.19 +0.02    +0.046    11.532
ATOM     31  H   UNL d   1     -12.533  -4.019   7.208 +0.03 +0.13    +0.166    11.532
ATOM     32  H   UNL d   1     -11.030  -4.999   6.211 +0.06 +0.12    +0.166    11.532
ATOM     33  C   UNL d   1     -12.224  -9.363   3.341 -0.02 +0.01    +0.141    11.532
ATOM     34  C   UNL d   1     -13.508  -9.794   3.997 -0.00 +0.03    +0.306    11.532
ATOM     35  O   UNL d   1     -13.746  -9.783   5.192 -0.00 -0.03    -0.251    11.532
ATOM     36  O   UNL d   1     -14.427 -10.216   3.109 +0.00 -0.03    -0.481    11.532
ATOM     37  H   UNL d   1     -14.602  -9.433   2.545 +0.01 +0.02    +0.295    11.532
ATOM     38  C   UNL d   1      -8.615  -6.551   9.748 -0.32 +0.00    +0.017    11.532
ATOM     39  C   UNL d   1      -8.088  -7.688  10.227 -0.15 +0.04    +0.092    11.532
ATOM     40  C   UNL d   1      -7.370  -7.679  11.504 -0.13 +0.12    +0.330    11.532
ATOM     41  O   UNL d   1      -7.230  -6.746  12.272 -0.16 -0.06    -0.246    11.532
ATOM     42  O   UNL d   1      -6.859  -8.894  11.755 -0.39 -0.32    -0.477    11.532
ATOM     43  H   UNL d   1      -6.658  -8.871  12.713 +0.07 +0.11    +0.295    11.532
ATOM     44  C   UNL d   1     -17.131  -3.336   3.729 -0.03 +0.07    +0.141    11.532
ATOM     45  C   UNL d   1     -16.205  -2.354   3.062 -0.05 +0.28    +0.306    11.532
ATOM     46  O   UNL d   1     -15.328  -2.614   2.257 -0.55 -0.37    -0.251    11.532
ATOM     47  O   UNL d   1     -16.417  -1.089   3.467 -0.02 -0.32    -0.481    11.532
ATOM     48  H   UNL d   1     -16.975  -1.176   4.269 +0.02 +0.15    +0.295    11.532
ATOM     49  C   UNL d   1      -9.906  -1.108   9.705 -0.48 +0.01    +0.048    11.532
ATOM     50  C   UNL d   1     -10.415  -0.536  11.028 -0.43 +0.04    +0.125    11.532
ATOM     51  C   UNL d   1     -10.910  -1.630  11.931 -0.18 +0.09    +0.305    11.532
ATOM     52  O   UNL d   1     -10.838  -2.833  11.749 -0.12 -0.06    -0.251    11.532
ATOM     53  O   UNL d   1     -11.498  -1.141  13.041 -0.08 -0.17    -0.481    11.532
ATOM     54  H   UNL d   1     -11.965  -1.913  13.423 +0.08 +0.08    +0.295    11.532
TER
ENDMDL
MODEL       14
USER    Run = 14
USER    Cluster Rank = 40
USER    Number of conformations in this cluster = 1
USER  
USER    RMSD from reference structure       = 14.438 A
USER  
USER    Estimated Free Energy of Binding    =   -3.76 kcal/mol  [=(1)+(2)+(3)-(4)]
USER    Estimated Inhibition Constant, Ki   =    1.76 mM (millimolar)  [Temperature = 298.15 K]
USER    
USER    (1) Final Intermolecular Energy     =   -7.64 kcal/mol
USER        vdW + Hbond + desolv Energy     =   -7.41 kcal/mol
USER        Electrostatic Energy            =   -0.22 kcal/mol
USER    (2) Final Total Internal Energy     =   -3.53 kcal/mol
USER    (3) Torsional Free Energy           =   +3.88 kcal/mol
USER    (4) Unbound System's Energy  [=(2)] =   -3.53 kcal/mol
USER    
USER    
USER  
USER    DPF = D:/Protein_go_brrr/autodock/final/mut_D99N/heme/dock.dpf
USER    NEWDPF move	heme_opt.pdbqt
USER    NEWDPF about	0.153000 0.018000 -0.028000
USER    NEWDPF tran0	-16.095209 7.614641 3.558852
USER    NEWDPF axisangle0	-0.369060 0.094024 0.924637 -108.814477
USER    NEWDPF quaternion0	-0.300110 0.076458 0.751891 -0.582020
USER    NEWDPF dihe0	-179.45 147.32 -84.49 -172.56 -154.58 131.34 137.03 70.23 9.13 -25.29 -68.54 -141.56 17.99 
USER  
USER                              x       y       z    vdW   Elec        q     RMS 
ATOM      1  O   UNL d   1     -17.087   2.737   6.718 +0.00 -0.05    -0.289    14.438
ATOM      2  O   UNL d   1     -10.681   6.184   4.854 -0.22 +0.06    -0.289    14.438
ATOM      3  N   UNL d   1     -16.989   5.537   4.707 -0.05 -0.02    -0.247    14.438
ATOM      4  N   UNL d   1     -14.128   6.335   4.786 +0.05 -0.00    -0.247    14.438
ATOM      5  N   UNL d   1     -14.894   8.852   3.626 -0.03 +0.03    -0.354    14.438
ATOM      6  N   UNL d   1     -17.862   8.024   3.566 -0.06 -0.00    -0.354    14.438
ATOM      7  C   UNL d   1     -18.774   4.203   5.729 -0.01 +0.01    +0.084    14.438
ATOM      8  C   UNL d   1     -12.490   4.579   5.236 -0.20 +0.01    +0.084    14.438
ATOM      9  C   UNL d   1     -13.955   5.012   5.124 -0.12 +0.01    +0.058    14.438
ATOM     10  C   UNL d   1     -18.358   5.398   4.865 -0.04 +0.01    +0.058    14.438
ATOM     11  C   UNL d   1     -17.398   3.681   6.015 -0.01 +0.03    +0.193    14.438
ATOM     12  C   UNL d   1     -16.405   4.560   5.320 -0.05 +0.01    +0.109    14.438
ATOM     13  C   UNL d   1     -11.863   5.912   4.936 -0.20 -0.02    +0.193    14.438
ATOM     14  C   UNL d   1     -19.421   4.643   7.044 -0.00 +0.00    +0.026    14.438
ATOM     15  C   UNL d   1     -14.978   4.183   5.384 -0.09 +0.01    +0.055    14.438
ATOM     16  C   UNL d   1     -12.102   3.593   4.131 -0.28 +0.00    +0.026    14.438
ATOM     17  C   UNL d   1     -12.963   6.892   4.689 -0.10 -0.01    +0.109    14.438
ATOM     18  C   UNL d   1     -19.271   6.174   4.251 -0.06 +0.00    +0.050    14.438
ATOM     19  C   UNL d   1     -18.980   7.245   3.369 -0.10 +0.00    +0.045    14.438
ATOM     20  C   UNL d   1     -13.591   9.129   3.950 -0.28 -0.00    +0.045    14.438
ATOM     21  C   UNL d   1     -12.648   8.301   4.411 -0.35 -0.01    +0.057    14.438
ATOM     22  C   UNL d   1     -14.596  11.049   3.227 -0.25 +0.00    -0.019    14.438
ATOM     23  C   UNL d   1     -15.581   9.950   3.180 -0.24 -0.01    +0.045    14.438
ATOM     24  C   UNL d   1     -13.419  10.556   3.682 -0.34 +0.00    -0.022    14.438
ATOM     25  C   UNL d   1     -17.824   9.054   2.655 -0.17 -0.00    +0.049    14.438
ATOM     26  C   UNL d   1     -19.666   7.760   2.279 -0.16 -0.00    -0.018    14.438
ATOM     27  C   UNL d   1     -18.921   8.890   1.821 -0.20 +0.00    +0.003    14.438
ATOM     28  C   UNL d   1     -16.847  10.081   2.757 -0.19 -0.01    +0.052    14.438
ATOM     29  C   UNL d   1     -12.128  11.270   3.892 -0.39 -0.01    +0.046    14.438
ATOM     30  C   UNL d   1     -20.934   7.235   1.697 -0.15 +0.01    +0.046    14.438
ATOM     31  H   UNL d   1     -15.252   7.904   3.651 +0.07 -0.00    +0.166    14.438
ATOM     32  H   UNL d   1     -17.195   7.867   4.312 +0.03 +0.00    +0.166    14.438
ATOM     33  C   UNL d   1     -19.615   3.139   5.016 -0.01 +0.02    +0.141    14.438
ATOM     34  C   UNL d   1     -18.933   2.582   3.796 -0.02 +0.05    +0.306    14.438
ATOM     35  O   UNL d   1     -19.155   2.897   2.639 -0.05 -0.04    -0.251    14.438
ATOM     36  O   UNL d   1     -18.003   1.658   4.098 +0.00 -0.10    -0.481    14.438
ATOM     37  H   UNL d   1     -18.002   1.621   5.079 +0.01 +0.06    +0.295    14.438
ATOM     38  C   UNL d   1     -19.287   9.727   0.718 -0.16 +0.00    +0.017    14.438
ATOM     39  C   UNL d   1     -20.261  10.650   0.736 -0.15 +0.01    +0.092    14.438
ATOM     40  C   UNL d   1     -20.524  11.456  -0.459 -0.10 +0.05    +0.330    14.438
ATOM     41  O   UNL d   1     -21.593  11.645  -1.007 -0.05 -0.05    -0.246    14.438
ATOM     42  O   UNL d   1     -19.384  12.005  -0.906 -0.45 -0.04    -0.477    14.438
ATOM     43  H   UNL d   1     -18.865  12.165  -0.091 +0.08 -0.01    +0.295    14.438
ATOM     44  C   UNL d   1     -12.056   4.067   6.614 -0.26 +0.02    +0.141    14.438
ATOM     45  C   UNL d   1     -11.881   5.165   7.628 -0.26 +0.01    +0.306    14.438
ATOM     46  O   UNL d   1     -12.721   5.570   8.413 -0.13 -0.03    -0.251    14.438
ATOM     47  O   UNL d   1     -10.656   5.719   7.582 -0.23 +0.03    -0.481    14.438
ATOM     48  H   UNL d   1     -10.759   6.501   6.999 -0.38 -0.13    +0.295    14.438
ATOM     49  C   UNL d   1     -14.896  12.467   2.840 -0.19 -0.01    +0.048    14.438
ATOM     50  C   UNL d   1     -15.219  12.595   1.352 -0.29 -0.02    +0.125    14.438
ATOM     51  C   UNL d   1     -16.660  12.967   1.145 -0.10 -0.04    +0.305    14.438
ATOM     52  O   UNL d   1     -17.219  13.994   1.488 -0.07 +0.02    -0.251    14.438
ATOM     53  O   UNL d   1     -17.346  11.995   0.511 -0.11 +0.11    -0.481    14.438
ATOM     54  H   UNL d   1     -16.711  11.249   0.462 -0.34 -0.18    +0.295    14.438
TER
ENDMDL
MODEL       33
USER    Run = 33
USER    Cluster Rank = 41
USER    Number of conformations in this cluster = 1
USER  
USER    RMSD from reference structure       = 13.247 A
USER  
USER    Estimated Free Energy of Binding    =   -3.75 kcal/mol  [=(1)+(2)+(3)-(4)]
USER    Estimated Inhibition Constant, Ki   =    1.78 mM (millimolar)  [Temperature = 298.15 K]
USER    
USER    (1) Final Intermolecular Energy     =   -7.63 kcal/mol
USER        vdW + Hbond + desolv Energy     =   -7.32 kcal/mol
USER        Electrostatic Energy            =   -0.31 kcal/mol
USER    (2) Final Total Internal Energy     =   -2.01 kcal/mol
USER    (3) Torsional Free Energy           =   +3.88 kcal/mol
USER    (4) Unbound System's Energy  [=(2)] =   -2.01 kcal/mol
USER    
USER    
USER  
USER    DPF = D:/Protein_go_brrr/autodock/final/mut_D99N/heme/dock.dpf
USER    NEWDPF move	heme_opt.pdbqt
USER    NEWDPF about	0.153000 0.018000 -0.028000
USER    NEWDPF tran0	9.574929 2.892854 -11.891606
USER    NEWDPF axisangle0	-0.533250 0.818175 0.215021 -142.407569
USER    NEWDPF quaternion0	-0.504812 0.774542 0.203554 -0.322203
USER    NEWDPF dihe0	-108.24 140.69 116.99 85.56 70.62 98.97 -44.36 106.35 12.53 -136.17 -37.75 13.82 -135.63 
USER  
USER                              x       y       z    vdW   Elec        q     RMS 
ATOM      1  O   UNL d   1       9.809   7.648  -8.415 -0.02 -0.06    -0.289    13.247
ATOM      2  O   UNL d   1      14.288   1.636  -8.851 -0.13 -0.02    -0.289    13.247
ATOM      3  N   UNL d   1       9.190   5.008 -10.546 -0.07 -0.04    -0.247    13.247
ATOM      4  N   UNL d   1      11.603   3.302 -10.239 -0.08 -0.04    -0.247    13.247
ATOM      5  N   UNL d   1      10.777   1.870 -12.591 -0.07 -0.06    -0.354    13.247
ATOM      6  N   UNL d   1       8.286   3.657 -12.913 -0.02 -0.05    -0.354    13.247
ATOM      7  C   UNL d   1       8.176   7.209 -10.180 -0.05 +0.02    +0.084    13.247
ATOM      8  C   UNL d   1      12.819   3.455  -8.125 -0.15 +0.01    +0.084    13.247
ATOM      9  C   UNL d   1      11.696   3.963  -9.035 -0.05 +0.01    +0.058    13.247
ATOM     10  C   UNL d   1       8.199   5.886 -10.951 -0.07 +0.01    +0.058    13.247
ATOM     11  C   UNL d   1       9.319   6.916  -9.255 -0.05 +0.04    +0.193    13.247
ATOM     12  C   UNL d   1       9.831   5.542  -9.558 -0.09 +0.02    +0.109    13.247
ATOM     13  C   UNL d   1      13.371   2.408  -9.051 -0.13 +0.02    +0.193    13.247
ATOM     14  C   UNL d   1       8.551   8.398 -11.068 -0.02 +0.00    +0.026    13.247
ATOM     15  C   UNL d   1      10.906   4.996  -8.704 -0.11 +0.01    +0.055    13.247
ATOM     16  C   UNL d   1      12.268   2.764  -6.874 -0.22 +0.00    +0.026    13.247
ATOM     17  C   UNL d   1      12.551   2.422 -10.300 -0.14 +0.01    +0.109    13.247
ATOM     18  C   UNL d   1       7.264   5.595 -11.875 -0.08 +0.01    +0.050    13.247
ATOM     19  C   UNL d   1       7.155   4.367 -12.576 -0.09 +0.01    +0.045    13.247
ATOM     20  C   UNL d   1      12.033   1.348 -12.427 -0.17 +0.01    +0.045    13.247
ATOM     21  C   UNL d   1      12.888   1.524 -11.415 -0.19 +0.01    +0.057    13.247
ATOM     22  C   UNL d   1      11.174   0.597 -14.406 -0.13 -0.01    -0.019    13.247
ATOM     23  C   UNL d   1      10.179   1.474 -13.758 -0.15 +0.01    +0.045    13.247
ATOM     24  C   UNL d   1      12.269   0.526 -13.613 -0.16 -0.00    -0.022    13.247
ATOM     25  C   UNL d   1       7.956   2.552 -13.664 -0.14 +0.01    +0.049    13.247
ATOM     26  C   UNL d   1       6.062   3.687 -13.089 -0.11 -0.00    -0.018    13.247
ATOM     27  C   UNL d   1       6.572   2.532 -13.758 -0.18 +0.00    +0.003    13.247
ATOM     28  C   UNL d   1       8.966   1.750 -14.261 -0.16 +0.01    +0.052    13.247
ATOM     29  C   UNL d   1      13.530  -0.241 -13.830 -0.14 +0.01    +0.046    13.247
ATOM     30  C   UNL d   1       4.629   4.083 -12.965 +0.08 +0.01    +0.046    13.247
ATOM     31  H   UNL d   1      10.338   2.423 -11.863 +0.06 +0.03    +0.166    13.247
ATOM     32  H   UNL d   1       9.224   3.948 -12.668 +0.04 +0.02    +0.166    13.247
ATOM     33  C   UNL d   1       6.896   7.484  -9.383 -0.14 +0.06    +0.141    13.247
ATOM     34  C   UNL d   1       6.628   6.436  -8.338 -0.20 +0.15    +0.306    13.247
ATOM     35  O   UNL d   1       6.459   6.633  -7.146 -0.96 -0.18    -0.251    13.247
ATOM     36  O   UNL d   1       6.585   5.192  -8.849 -0.51 -0.18    -0.481    13.247
ATOM     37  H   UNL d   1       7.510   5.002  -9.114 +0.12 +0.10    +0.295    13.247
ATOM     38  C   UNL d   1       5.778   1.558 -14.444 -0.25 +0.00    +0.017    13.247
ATOM     39  C   UNL d   1       5.854   0.230 -14.264 -0.27 +0.02    +0.092    13.247
ATOM     40  C   UNL d   1       4.969  -0.661 -15.019 -0.29 +0.10    +0.330    13.247
ATOM     41  O   UNL d   1       5.221  -1.262 -16.046 -0.76 -0.10    -0.246    13.247
ATOM     42  O   UNL d   1       3.777  -0.754 -14.410 -0.26 -0.14    -0.477    13.247
ATOM     43  H   UNL d   1       4.003  -0.783 -13.457 -0.19 +0.02    +0.295    13.247
ATOM     44  C   UNL d   1      13.892   4.487  -7.761 -0.06 +0.01    +0.141    13.247
ATOM     45  C   UNL d   1      14.892   3.976  -6.758 -0.05 +0.01    +0.306    13.247
ATOM     46  O   UNL d   1      14.799   4.036  -5.544 -0.07 -0.01    -0.251    13.247
ATOM     47  O   UNL d   1      15.977   3.437  -7.342 -0.00 -0.01    -0.481    13.247
ATOM     48  H   UNL d   1      15.635   2.660  -7.833 +0.07 +0.01    +0.295    13.247
ATOM     49  C   UNL d   1      10.971  -0.071 -15.735 +0.07 +0.02    +0.048    13.247
ATOM     50  C   UNL d   1      12.249  -0.071 -16.573 -0.07 +0.04    +0.125    13.247
ATOM     51  C   UNL d   1      12.379  -1.348 -17.353 -0.04 +0.15    +0.305    13.247
ATOM     52  O   UNL d   1      12.115  -1.532 -18.528 -0.05 -0.09    -0.251    13.247
ATOM     53  O   UNL d   1      12.836  -2.361 -16.589 -0.48 -0.39    -0.481    13.247
ATOM     54  H   UNL d   1      13.804  -2.359 -16.746 +0.04 +0.10    +0.295    13.247
TER
ENDMDL
MODEL       26
USER    Run = 26
USER    Cluster Rank = 42
USER    Number of conformations in this cluster = 1
USER  
USER    RMSD from reference structure       = 12.790 A
USER  
USER    Estimated Free Energy of Binding    =   -3.63 kcal/mol  [=(1)+(2)+(3)-(4)]
USER    Estimated Inhibition Constant, Ki   =    2.18 mM (millimolar)  [Temperature = 298.15 K]
USER    
USER    (1) Final Intermolecular Energy     =   -7.51 kcal/mol
USER        vdW + Hbond + desolv Energy     =   -7.32 kcal/mol
USER        Electrostatic Energy            =   -0.19 kcal/mol
USER    (2) Final Total Internal Energy     =   -4.08 kcal/mol
USER    (3) Torsional Free Energy           =   +3.88 kcal/mol
USER    (4) Unbound System's Energy  [=(2)] =   -4.08 kcal/mol
USER    
USER    
USER  
USER    DPF = D:/Protein_go_brrr/autodock/final/mut_D99N/heme/dock.dpf
USER    NEWDPF move	heme_opt.pdbqt
USER    NEWDPF about	0.153000 0.018000 -0.028000
USER    NEWDPF tran0	1.679508 11.306759 -10.070891
USER    NEWDPF axisangle0	0.024203 0.084267 -0.996149 94.289083
USER    NEWDPF quaternion0	0.017743 0.061774 -0.730249 0.680151
USER    NEWDPF dihe0	-162.32 116.48 -115.97 -101.95 -173.74 19.42 120.10 -21.96 -28.33 -34.83 -51.74 -42.19 8.70 
USER  
USER                              x       y       z    vdW   Elec        q     RMS 
ATOM      1  O   UNL d   1       0.350   5.564  -9.947 -0.32 +0.04    -0.289    12.790
ATOM      2  O   UNL d   1       6.853   9.091 -11.237 -0.01 -0.05    -0.289    12.790
ATOM      3  N   UNL d   1       0.623   9.001 -10.052 -0.14 +0.05    -0.247    12.790
ATOM      4  N   UNL d   1       3.550   9.447 -10.305 +0.13 -0.04    -0.247    12.790
ATOM      5  N   UNL d   1       3.091  12.211  -9.659 -0.11 +0.12    -0.354    12.790
ATOM      6  N   UNL d   1       0.058  11.735  -9.379 -0.01 +0.29    -0.354    12.790
ATOM      7  C   UNL d   1      -1.170   7.425  -9.496 -0.44 -0.01    +0.084    12.790
ATOM      8  C   UNL d   1       4.868   7.663 -11.332 -0.07 +0.02    +0.084    12.790
ATOM      9  C   UNL d   1       3.519   8.163 -10.801 -0.02 +0.01    +0.058    12.790
ATOM     10  C   UNL d   1      -0.694   8.873  -9.643 -0.33 -0.01    +0.058    12.790
ATOM     11  C   UNL d   1       0.106   6.757  -9.912 -0.24 -0.02    +0.193    12.790
ATOM     12  C   UNL d   1       1.107   7.818 -10.249 -0.20 -0.01    +0.109    12.790
ATOM     13  C   UNL d   1       5.677   8.888 -11.010 -0.04 +0.04    +0.193    12.790
ATOM     14  C   UNL d   1      -1.466   7.063  -8.038 -0.53 -0.00    +0.026    12.790
ATOM     15  C   UNL d   1       2.420   7.394 -10.777 -0.21 +0.00    +0.055    12.790
ATOM     16  C   UNL d   1       4.845   7.473 -12.851 -0.04 +0.00    +0.026    12.790
ATOM     17  C   UNL d   1       4.763   9.891 -10.385 -0.06 +0.03    +0.109    12.790
ATOM     18  C   UNL d   1      -1.535   9.910  -9.471 -0.38 -0.01    +0.050    12.790
ATOM     19  C   UNL d   1      -1.207  11.276  -9.667 -0.25 -0.02    +0.045    12.790
ATOM     20  C   UNL d   1       4.460  12.177  -9.592 -0.15 +0.00    +0.045    12.790
ATOM     21  C   UNL d   1       5.291  11.183  -9.923 -0.13 +0.01    +0.057    12.790
ATOM     22  C   UNL d   1       3.735  14.216  -8.860 -0.11 +0.00    -0.019    12.790
ATOM     23  C   UNL d   1       2.562  13.401  -9.237 -0.13 -0.02    +0.045    12.790
ATOM     24  C   UNL d   1       4.855  13.486  -9.073 -0.11 +0.00    -0.022    12.790
ATOM     25  C   UNL d   1       0.130  13.098  -9.555 -0.13 -0.02    +0.049    12.790
ATOM     26  C   UNL d   1      -1.967  12.361 -10.075 -0.18 +0.00    -0.018    12.790
ATOM     27  C   UNL d   1      -1.113  13.506 -10.021 -0.11 -0.00    +0.003    12.790
ATOM     28  C   UNL d   1       1.290  13.823  -9.170 -0.13 -0.03    +0.052    12.790
ATOM     29  C   UNL d   1       6.278  13.876  -8.857 -0.05 +0.00    +0.046    12.790
ATOM     30  C   UNL d   1      -3.398  12.339 -10.492 -0.20 -0.00    +0.046    12.790
ATOM     31  H   UNL d   1       2.565  11.442 -10.061 +0.01 -0.05    +0.166    12.790
ATOM     32  H   UNL d   1       0.808  11.141  -9.045 -0.41 -0.25    +0.166    12.790
ATOM     33  C   UNL d   1      -2.319   7.014 -10.422 -0.39 -0.02    +0.141    12.790
ATOM     34  C   UNL d   1      -2.466   7.931 -11.606 -0.18 -0.02    +0.306    12.790
ATOM     35  O   UNL d   1      -3.448   8.598 -11.883 -0.24 -0.01    -0.251    12.790
ATOM     36  O   UNL d   1      -1.365   7.960 -12.378 -0.03 +0.09    -0.481    12.790
ATOM     37  H   UNL d   1      -0.842   7.181 -12.092 -0.39 -0.16    +0.295    12.790
ATOM     38  C   UNL d   1      -1.503  14.844 -10.348 -0.05 -0.00    +0.017    12.790
ATOM     39  C   UNL d   1      -0.735  15.933 -10.199 -0.01 -0.01    +0.092    12.790
ATOM     40  C   UNL d   1      -1.249  17.249 -10.590 +0.01 -0.01    +0.330    12.790
ATOM     41  O   UNL d   1      -2.408  17.567 -10.782 +0.00 +0.00    -0.246    12.790
ATOM     42  O   UNL d   1      -0.238  18.122 -10.712 +0.00 +0.01    -0.477    12.790
ATOM     43  H   UNL d   1       0.130  18.183  -9.806 +0.01 -0.01    +0.295    12.790
ATOM     44  C   UNL d   1       5.438   6.428 -10.627 -0.13 +0.03    +0.141    12.790
ATOM     45  C   UNL d   1       6.207   6.760  -9.376 -0.13 +0.12    +0.306    12.790
ATOM     46  O   UNL d   1       5.738   7.074  -8.296 -0.68 -0.20    -0.251    12.790
ATOM     47  O   UNL d   1       7.539   6.705  -9.561 -0.02 -0.14    -0.481    12.790
ATOM     48  H   UNL d   1       7.726   7.403 -10.224 +0.06 +0.07    +0.295    12.790
ATOM     49  C   UNL d   1       3.651  15.612  -8.317 -0.05 -0.01    +0.048    12.790
ATOM     50  C   UNL d   1       3.311  16.627  -9.408 -0.00 -0.01    +0.125    12.790
ATOM     51  C   UNL d   1       2.156  17.494  -8.994 +0.01 -0.02    +0.305    12.790
ATOM     52  O   UNL d   1       1.247  17.208  -8.235 -0.01 +0.02    -0.251    12.790
ATOM     53  O   UNL d   1       2.200  18.706  -9.581 +0.00 +0.01    -0.481    12.790
ATOM     54  H   UNL d   1       1.879  18.541 -10.492 +0.00 -0.01    +0.295    12.790
TER
ENDMDL
MODEL       86
USER    Run = 86
USER    Cluster Rank = 43
USER    Number of conformations in this cluster = 1
USER  
USER    RMSD from reference structure       = 12.853 A
USER  
USER    Estimated Free Energy of Binding    =   -3.61 kcal/mol  [=(1)+(2)+(3)-(4)]
USER    Estimated Inhibition Constant, Ki   =    2.26 mM (millimolar)  [Temperature = 298.15 K]
USER    
USER    (1) Final Intermolecular Energy     =   -7.49 kcal/mol
USER        vdW + Hbond + desolv Energy     =   -7.16 kcal/mol
USER        Electrostatic Energy            =   -0.32 kcal/mol
USER    (2) Final Total Internal Energy     =   -3.17 kcal/mol
USER    (3) Torsional Free Energy           =   +3.88 kcal/mol
USER    (4) Unbound System's Energy  [=(2)] =   -3.17 kcal/mol
USER    
USER    
USER  
USER    DPF = D:/Protein_go_brrr/autodock/final/mut_D99N/heme/dock.dpf
USER    NEWDPF move	heme_opt.pdbqt
USER    NEWDPF about	0.153000 0.018000 -0.028000
USER    NEWDPF tran0	0.602637 13.061036 -9.222560
USER    NEWDPF axisangle0	0.123561 -0.271141 0.954576 -121.706838
USER    NEWDPF quaternion0	0.107915 -0.236809 0.833704 -0.487046
USER    NEWDPF dihe0	178.91 152.35 -180.00 104.12 35.48 131.33 149.96 64.92 -120.88 -0.99 -63.74 -158.10 27.72 
USER  
USER                              x       y       z    vdW   Elec        q     RMS 
ATOM      1  O   UNL d   1       1.930   7.769 -11.456 -0.10 +0.00    -0.289    12.853
ATOM      2  O   UNL d   1       6.200  13.832 -10.275 +0.00 -0.01    -0.289    12.853
ATOM      3  N   UNL d   1       0.665  10.735 -10.232 -0.10 +0.10    -0.247    12.853
ATOM      4  N   UNL d   1       3.094  12.397  -9.825 -0.11 +0.07    -0.247    12.853
ATOM      5  N   UNL d   1       1.482  14.210  -8.282 -0.06 +0.22    -0.354    12.853
ATOM      6  N   UNL d   1      -1.029  12.470  -8.693 -0.13 +0.21    -0.354    12.853
ATOM      7  C   UNL d   1      -0.243   8.488 -10.598 -0.20 -0.01    +0.084    12.853
ATOM      8  C   UNL d   1       5.041  11.891 -11.212 -0.03 +0.00    +0.084    12.853
ATOM      9  C   UNL d   1       3.621  11.535 -10.760 -0.09 -0.00    +0.058    12.853
ATOM     10  C   UNL d   1      -0.454   9.927 -10.118 -0.21 -0.02    +0.058    12.853
ATOM     11  C   UNL d   1       1.188   8.631 -11.021 -0.10 -0.02    +0.193    12.853
ATOM     12  C   UNL d   1       1.615  10.044 -10.772 -0.11 -0.02    +0.109    12.853
ATOM     13  C   UNL d   1       5.237  13.093 -10.333 -0.02 +0.01    +0.193    12.853
ATOM     14  C   UNL d   1      -0.322   7.481  -9.448 -0.49 -0.00    +0.026    12.853
ATOM     15  C   UNL d   1       2.970  10.447 -11.200 -0.10 -0.00    +0.055    12.853
ATOM     16  C   UNL d   1       5.075  12.340 -12.676 -0.00 +0.00    +0.026    12.853
ATOM     17  C   UNL d   1       3.988  13.289  -9.537 -0.11 -0.02    +0.109    12.853
ATOM     18  C   UNL d   1      -1.661  10.363  -9.712 -0.34 -0.01    +0.050    12.853
ATOM     19  C   UNL d   1      -1.970  11.694  -9.331 -0.30 -0.01    +0.045    12.853
ATOM     20  C   UNL d   1       2.728  14.715  -8.012 -0.12 -0.02    +0.045    12.853
ATOM     21  C   UNL d   1       3.904  14.375  -8.549 -0.12 -0.01    +0.057    12.853
ATOM     22  C   UNL d   1       1.196  15.791  -6.703 -0.11 +0.00    -0.019    12.853
ATOM     23  C   UNL d   1       0.493  14.798  -7.540 -0.11 -0.02    +0.045    12.853
ATOM     24  C   UNL d   1       2.519  15.738  -6.988 -0.09 +0.01    -0.022    12.853
ATOM     25  C   UNL d   1      -1.566  13.685  -8.336 -0.22 -0.01    +0.049    12.853
ATOM     26  C   UNL d   1      -3.136  12.437  -9.425 -0.30 +0.00    -0.018    12.853
ATOM     27  C   UNL d   1      -2.869  13.700  -8.812 -0.27 -0.00    +0.003    12.853
ATOM     28  C   UNL d   1      -0.834  14.597  -7.528 -0.18 -0.01    +0.052    12.853
ATOM     29  C   UNL d   1       3.630  16.550  -6.415 -0.04 -0.01    +0.046    12.853
ATOM     30  C   UNL d   1      -4.421  12.003 -10.046 -0.15 +0.00    +0.046    12.853
ATOM     31  H   UNL d   1       1.339  13.530  -9.020 +0.02 -0.11    +0.166    12.853
ATOM     32  H   UNL d   1      -0.088  12.154  -8.487 -0.37 -0.24    +0.166    12.853
ATOM     33  C   UNL d   1      -1.113   8.057 -11.784 -0.09 -0.03    +0.141    12.853
ATOM     34  C   UNL d   1      -2.551   7.839 -11.397 -0.19 -0.02    +0.306    12.853
ATOM     35  O   UNL d   1      -3.435   8.679 -11.406 -0.21 -0.00    -0.251    12.853
ATOM     36  O   UNL d   1      -2.801   6.572 -11.022 -0.13 +0.05    -0.481    12.853
ATOM     37  H   UNL d   1      -1.952   6.101 -11.164 -0.40 -0.11    +0.295    12.853
ATOM     38  C   UNL d   1      -3.814  14.768  -8.678 -0.22 -0.00    +0.017    12.853
ATOM     39  C   UNL d   1      -4.992  14.685  -8.041 -0.23 -0.00    +0.092    12.853
ATOM     40  C   UNL d   1      -5.863  15.860  -7.960 -0.10 +0.01    +0.330    12.853
ATOM     41  O   UNL d   1      -7.044  15.931  -8.241 -0.06 -0.01    -0.246    12.853
ATOM     42  O   UNL d   1      -5.172  16.916  -7.504 -0.05 -0.03    -0.477    12.853
ATOM     43  H   UNL d   1      -4.467  16.516  -6.953 +0.05 +0.05    +0.295    12.853
ATOM     44  C   UNL d   1       6.109  10.828 -10.934 -0.04 +0.02    +0.141    12.853
ATOM     45  C   UNL d   1       6.107  10.342  -9.509 -0.06 +0.14    +0.306    12.853
ATOM     46  O   UNL d   1       5.696   9.267  -9.108 +0.06 -0.19    -0.251    12.853
ATOM     47  O   UNL d   1       6.601  11.255  -8.653 -0.05 -0.26    -0.481    12.853
ATOM     48  H   UNL d   1       6.852  12.015  -9.220 +0.04 +0.08    +0.295    12.853
ATOM     49  C   UNL d   1       0.519  16.681  -5.702 -0.09 -0.00    +0.048    12.853
ATOM     50  C   UNL d   1      -0.601  17.503  -6.339 -0.04 -0.00    +0.125    12.853
ATOM     51  C   UNL d   1      -1.933  17.151  -5.738 -0.04 +0.03    +0.305    12.853
ATOM     52  O   UNL d   1      -2.264  17.228  -4.568 -0.12 -0.04    -0.251    12.853
ATOM     53  O   UNL d   1      -2.800  16.697  -6.665 -0.59 -0.09    -0.481    12.853
ATOM     54  H   UNL d   1      -3.091  17.506  -7.135 +0.03 +0.03    +0.295    12.853
TER
ENDMDL
MODEL       20
USER    Run = 20
USER    Cluster Rank = 44
USER    Number of conformations in this cluster = 1
USER  
USER    RMSD from reference structure       = 20.971 A
USER  
USER    Estimated Free Energy of Binding    =   -3.56 kcal/mol  [=(1)+(2)+(3)-(4)]
USER    Estimated Inhibition Constant, Ki   =    2.47 mM (millimolar)  [Temperature = 298.15 K]
USER    
USER    (1) Final Intermolecular Energy     =   -7.44 kcal/mol
USER        vdW + Hbond + desolv Energy     =   -7.38 kcal/mol
USER        Electrostatic Energy            =   -0.06 kcal/mol
USER    (2) Final Total Internal Energy     =   -3.84 kcal/mol
USER    (3) Torsional Free Energy           =   +3.88 kcal/mol
USER    (4) Unbound System's Energy  [=(2)] =   -3.84 kcal/mol
USER    
USER    
USER  
USER    DPF = D:/Protein_go_brrr/autodock/final/mut_D99N/heme/dock.dpf
USER    NEWDPF move	heme_opt.pdbqt
USER    NEWDPF about	0.153000 0.018000 -0.028000
USER    NEWDPF tran0	1.601523 15.970885 16.810478
USER    NEWDPF axisangle0	0.320478 -0.760701 0.564472 -86.513585
USER    NEWDPF quaternion0	0.219614 -0.521285 0.386815 -0.728290
USER    NEWDPF dihe0	-91.12 141.60 -111.89 41.05 33.88 -31.08 -37.58 34.72 122.33 47.48 -81.19 4.04 -9.45 
USER  
USER                              x       y       z    vdW   Elec        q     RMS 
ATOM      1  O   UNL d   1      -1.001  14.646  11.689 -0.19 +0.08    -0.289    20.971
ATOM      2  O   UNL d   1       5.954  13.296  14.177 -0.11 +0.01    -0.289    20.971
ATOM      3  N   UNL d   1       0.133  15.747  14.755 -0.11 +0.06    -0.247    20.971
ATOM      4  N   UNL d   1       2.821  14.500  14.977 -0.14 +0.06    -0.247    20.971
ATOM      5  N   UNL d   1       2.810  15.194  17.767 -0.06 +0.10    -0.354    20.971
ATOM      6  N   UNL d   1       0.013  16.468  17.532 -0.08 +0.08    -0.354    20.971
ATOM      7  C   UNL d   1      -2.032  15.760  13.605 -0.19 -0.02    +0.084    20.971
ATOM      8  C   UNL d   1       3.980  13.963  12.894 -0.20 -0.01    +0.084    20.971
ATOM      9  C   UNL d   1       2.716  14.460  13.604 -0.21 -0.01    +0.058    20.971
ATOM     10  C   UNL d   1      -1.201  16.107  14.845 -0.17 -0.01    +0.058    20.971
ATOM     11  C   UNL d   1      -0.927  15.158  12.791 -0.21 -0.05    +0.193    20.971
ATOM     12  C   UNL d   1       0.340  15.232  13.587 -0.22 -0.02    +0.109    20.971
ATOM     13  C   UNL d   1       4.807  13.693  14.119 -0.13 -0.01    +0.193    20.971
ATOM     14  C   UNL d   1      -3.077  14.680  13.898 -0.30 -0.01    +0.026    20.971
ATOM     15  C   UNL d   1       1.591  14.779  12.946 -0.28 -0.01    +0.055    20.971
ATOM     16  C   UNL d   1       4.650  15.076  12.083 -0.16 -0.00    +0.026    20.971
ATOM     17  C   UNL d   1       3.987  14.052  15.315 -0.19 -0.01    +0.109    20.971
ATOM     18  C   UNL d   1      -1.732  16.785  15.880 -0.14 -0.01    +0.050    20.971
ATOM     19  C   UNL d   1      -1.022  17.222  17.027 -0.11 -0.01    +0.045    20.971
ATOM     20  C   UNL d   1       3.917  14.386  17.729 -0.22 -0.01    +0.045    20.971
ATOM     21  C   UNL d   1       4.527  13.850  16.668 -0.13 -0.00    +0.057    20.971
ATOM     22  C   UNL d   1       3.461  14.913  19.905 -0.04 +0.00    -0.019    20.971
ATOM     23  C   UNL d   1       2.458  15.563  19.038 -0.16 -0.01    +0.045    20.971
ATOM     24  C   UNL d   1       4.323  14.219  19.124 -0.15 +0.00    -0.022    20.971
ATOM     25  C   UNL d   1       0.497  17.028  18.692 -0.11 -0.01    +0.049    20.971
ATOM     26  C   UNL d   1      -1.192  18.317  17.859 -0.04 +0.00    -0.018    20.971
ATOM     27  C   UNL d   1      -0.217  18.200  18.898 -0.04 -0.00    +0.003    20.971
ATOM     28  C   UNL d   1       1.464  16.348  19.481 -0.15 -0.01    +0.052    20.971
ATOM     29  C   UNL d   1       5.508  13.411  19.532 -0.16 -0.00    +0.046    20.971
ATOM     30  C   UNL d   1      -2.195  19.409  17.701 -0.01 -0.00    +0.046    20.971
ATOM     31  H   UNL d   1       2.373  15.528  16.915 -0.24 -0.06    +0.166    20.971
ATOM     32  H   UNL d   1       0.332  15.602  17.114 -0.50 -0.09    +0.166    20.971
ATOM     33  C   UNL d   1      -2.649  16.956  12.873 -0.08 -0.02    +0.141    20.971
ATOM     34  C   UNL d   1      -3.245  16.577  11.544 -0.09 -0.05    +0.306    20.971
ATOM     35  O   UNL d   1      -4.383  16.186  11.350 -0.10 +0.04    -0.251    20.971
ATOM     36  O   UNL d   1      -2.374  16.712  10.528 -0.08 +0.05    -0.481    20.971
ATOM     37  H   UNL d   1      -1.885  15.862  10.507 +0.12 -0.04    +0.295    20.971
ATOM     38  C   UNL d   1      -0.053  19.119  19.983 -0.02 -0.00    +0.017    20.971
ATOM     39  C   UNL d   1       1.124  19.537  20.474 -0.01 -0.01    +0.092    20.971
ATOM     40  C   UNL d   1       1.155  20.496  21.581 +0.00 -0.02    +0.330    20.971
ATOM     41  O   UNL d   1       0.367  21.395  21.808 +0.00 +0.01    -0.246    20.971
ATOM     42  O   UNL d   1       2.211  20.254  22.373 +0.00 +0.02    -0.477    20.971
ATOM     43  H   UNL d   1       2.264  19.277  22.401 +0.00 -0.02    +0.295    20.971
ATOM     44  C   UNL d   1       3.809  12.692  12.055 -0.34 -0.02    +0.141    20.971
ATOM     45  C   UNL d   1       2.418  12.119  12.121 -0.37 -0.04    +0.306    20.971
ATOM     46  O   UNL d   1       1.966  11.409  13.002 -0.57 +0.03    -0.251    20.971
ATOM     47  O   UNL d   1       1.674  12.451  11.051 -0.24 +0.11    -0.481    20.971
ATOM     48  H   UNL d   1       2.096  11.981  10.300 -0.34 -0.13    +0.295    20.971
ATOM     49  C   UNL d   1       3.476  15.018  21.402 -0.07 -0.01    +0.048    20.971
ATOM     50  C   UNL d   1       4.362  16.166  21.883 -0.02 -0.01    +0.125    20.971
ATOM     51  C   UNL d   1       3.537  17.373  22.226 -0.00 -0.02    +0.305    20.971
ATOM     52  O   UNL d   1       2.383  17.399  22.616 -0.01 +0.02    -0.251    20.971
ATOM     53  O   UNL d   1       4.221  18.520  22.043 +0.00 +0.03    -0.481    20.971
ATOM     54  H   UNL d   1       3.969  19.073  22.812 +0.00 -0.02    +0.295    20.971
TER
ENDMDL
MODEL        6
USER    Run = 6
USER    Cluster Rank = 45
USER    Number of conformations in this cluster = 1
USER  
USER    RMSD from reference structure       = 13.811 A
USER  
USER    Estimated Free Energy of Binding    =   -3.41 kcal/mol  [=(1)+(2)+(3)-(4)]
USER    Estimated Inhibition Constant, Ki   =    3.16 mM (millimolar)  [Temperature = 298.15 K]
USER    
USER    (1) Final Intermolecular Energy     =   -7.29 kcal/mol
USER        vdW + Hbond + desolv Energy     =   -7.13 kcal/mol
USER        Electrostatic Energy            =   -0.16 kcal/mol
USER    (2) Final Total Internal Energy     =   -4.30 kcal/mol
USER    (3) Torsional Free Energy           =   +3.88 kcal/mol
USER    (4) Unbound System's Energy  [=(2)] =   -4.30 kcal/mol
USER    
USER    
USER  
USER    DPF = D:/Protein_go_brrr/autodock/final/mut_D99N/heme/dock.dpf
USER    NEWDPF move	heme_opt.pdbqt
USER    NEWDPF about	0.153000 0.018000 -0.028000
USER    NEWDPF tran0	3.821491 16.674341 0.991151
USER    NEWDPF axisangle0	0.750384 0.394626 0.530278 165.689108
USER    NEWDPF quaternion0	0.744540 0.391552 0.526148 0.124562
USER    NEWDPF dihe0	-132.76 149.34 -175.63 -61.94 60.67 -49.01 -69.01 -21.62 159.52 -143.63 -64.11 -5.97 9.18 
USER  
USER                              x       y       z    vdW   Elec        q     RMS 
ATOM      1  O   UNL d   1       4.688  13.407  -3.839 -0.17 +0.00    -0.289    13.811
ATOM      2  O   UNL d   1      -1.093  17.740  -1.792 -0.05 -0.04    -0.289    13.811
ATOM      3  N   UNL d   1       4.566  15.049  -0.809 -0.16 -0.01    -0.247    13.811
ATOM      4  N   UNL d   1       2.110  16.708  -1.029 -0.14 -0.01    -0.247    13.811
ATOM      5  N   UNL d   1       2.993  18.159   1.291 -0.07 -0.02    -0.354    13.811
ATOM      6  N   UNL d   1       5.547  16.446   1.501 -0.05 -0.01    -0.354    13.811
ATOM      7  C   UNL d   1       6.254  13.720  -1.988 -0.16 +0.01    +0.084    13.811
ATOM      8  C   UNL d   1       0.360  15.918  -2.540 -0.19 +0.00    +0.084    13.811
ATOM      9  C   UNL d   1       1.774  15.762  -1.972 -0.22 -0.00    +0.058    13.811
ATOM     10  C   UNL d   1       5.853  14.542  -0.759 -0.21 +0.00    +0.058    13.811
ATOM     11  C   UNL d   1       4.958  13.838  -2.732 -0.17 +0.01    +0.193    13.811
ATOM     12  C   UNL d   1       4.008  14.645  -1.903 -0.22 -0.00    +0.109    13.811
ATOM     13  C   UNL d   1      -0.031  17.149  -1.773 -0.11 +0.01    +0.193    13.811
ATOM     14  C   UNL d   1       7.356  14.402  -2.801 -0.06 +0.00    +0.026    13.811
ATOM     15  C   UNL d   1       2.627  14.816  -2.396 -0.31 -0.00    +0.055    13.811
ATOM     16  C   UNL d   1      -0.553  14.763  -2.117 -0.43 +0.00    +0.026    13.811
ATOM     17  C   UNL d   1       1.119  17.530  -0.899 -0.18 +0.01    +0.109    13.811
ATOM     18  C   UNL d   1       6.673  14.665   0.302 -0.22 +0.00    +0.050    13.811
ATOM     19  C   UNL d   1       6.356  15.332   1.513 -0.21 +0.00    +0.045    13.811
ATOM     20  C   UNL d   1       1.946  18.952   0.901 -0.18 +0.00    +0.045    13.811
ATOM     21  C   UNL d   1       1.040  18.734  -0.058 -0.18 +0.00    +0.057    13.811
ATOM     22  C   UNL d   1       3.059  19.984   2.608 -0.10 -0.00    -0.019    13.811
ATOM     23  C   UNL d   1       3.723  18.699   2.316 -0.12 +0.00    +0.045    13.811
ATOM     24  C   UNL d   1       2.006  20.128   1.768 -0.10 -0.00    -0.022    13.811
ATOM     25  C   UNL d   1       5.447  16.984   2.763 -0.02 +0.00    +0.049    13.811
ATOM     26  C   UNL d   1       6.761  15.119   2.821 -0.27 +0.00    -0.018    13.811
ATOM     27  C   UNL d   1       6.168  16.153   3.609 -0.25 -0.00    +0.003    13.811
ATOM     28  C   UNL d   1       4.792  18.228   2.976 -0.13 +0.00    +0.052    13.811
ATOM     29  C   UNL d   1       1.027  21.249   1.683 -0.05 +0.00    +0.046    13.811
ATOM     30  C   UNL d   1       7.643  14.021   3.313 -0.29 -0.00    +0.046    13.811
ATOM     31  H   UNL d   1       3.131  17.236   0.892 +0.04 +0.01    +0.166    13.811
ATOM     32  H   UNL d   1       5.128  16.825   0.660 +0.04 +0.01    +0.166    13.811
ATOM     33  C   UNL d   1       6.585  12.249  -1.715 -0.20 +0.04    +0.141    13.811
ATOM     34  C   UNL d   1       7.549  11.676  -2.718 -0.13 +0.11    +0.306    13.811
ATOM     35  O   UNL d   1       8.682  11.288  -2.488 -0.07 -0.07    -0.251    13.811
ATOM     36  O   UNL d   1       7.034  11.621  -3.959 -0.57 -0.42    -0.481    13.811
ATOM     37  H   UNL d   1       6.597  12.491  -4.084 +0.08 +0.22    +0.295    13.811
ATOM     38  C   UNL d   1       6.341  16.317   5.021 -0.24 -0.00    +0.017    13.811
ATOM     39  C   UNL d   1       5.431  16.838   5.858 -0.24 -0.00    +0.092    13.811
ATOM     40  C   UNL d   1       5.725  16.935   7.290 -0.09 -0.01    +0.330    13.811
ATOM     41  O   UNL d   1       6.126  16.054   8.027 -0.12 +0.02    -0.246    13.811
ATOM     42  O   UNL d   1       5.499  18.184   7.725 -0.01 +0.00    -0.477    13.811
ATOM     43  H   UNL d   1       5.693  18.743   6.945 +0.04 -0.00    +0.295    13.811
ATOM     44  C   UNL d   1       0.278  16.163  -4.051 -0.12 -0.00    +0.141    13.811
ATOM     45  C   UNL d   1      -1.111  15.994  -4.606 -0.10 +0.01    +0.306    13.811
ATOM     46  O   UNL d   1      -1.485  15.126  -5.376 -0.32 -0.00    -0.251    13.811
ATOM     47  O   UNL d   1      -1.956  16.950  -4.180 -0.04 -0.07    -0.481    13.811
ATOM     48  H   UNL d   1      -1.398  17.553  -3.645 +0.06 +0.03    +0.295    13.811
ATOM     49  C   UNL d   1       3.518  20.950   3.661 -0.05 +0.00    +0.048    13.811
ATOM     50  C   UNL d   1       3.182  20.459   5.069 -0.06 +0.00    +0.125    13.811
ATOM     51  C   UNL d   1       4.433  20.217   5.865 -0.02 +0.01    +0.305    13.811
ATOM     52  O   UNL d   1       5.535  19.911   5.443 -0.02 -0.00    -0.251    13.811
ATOM     53  O   UNL d   1       4.225  20.363   7.188 +0.00 -0.01    -0.481    13.811
ATOM     54  H   UNL d   1       4.415  19.476   7.559 +0.04 +0.00    +0.295    13.811
TER
ENDMDL
MODEL       83
USER    Run = 83
USER    Cluster Rank = 46
USER    Number of conformations in this cluster = 1
USER  
USER    RMSD from reference structure       = 13.675 A
USER  
USER    Estimated Free Energy of Binding    =   -3.30 kcal/mol  [=(1)+(2)+(3)-(4)]
USER    Estimated Inhibition Constant, Ki   =    3.83 mM (millimolar)  [Temperature = 298.15 K]
USER    
USER    (1) Final Intermolecular Energy     =   -7.18 kcal/mol
USER        vdW + Hbond + desolv Energy     =   -7.09 kcal/mol
USER        Electrostatic Energy            =   -0.09 kcal/mol
USER    (2) Final Total Internal Energy     =   -4.64 kcal/mol
USER    (3) Torsional Free Energy           =   +3.88 kcal/mol
USER    (4) Unbound System's Energy  [=(2)] =   -4.64 kcal/mol
USER    
USER    
USER  
USER    DPF = D:/Protein_go_brrr/autodock/final/mut_D99N/heme/dock.dpf
USER    NEWDPF move	heme_opt.pdbqt
USER    NEWDPF about	0.153000 0.018000 -0.028000
USER    NEWDPF tran0	17.672759 -1.302986 3.327055
USER    NEWDPF axisangle0	-0.774152 -0.131090 0.619277 131.767845
USER    NEWDPF quaternion0	-0.706584 -0.119649 0.565226 0.408587
USER    NEWDPF dihe0	175.32 -179.93 -174.12 32.62 -149.25 103.64 143.75 66.34 16.86 -22.52 -87.04 -115.43 3.02 
USER  
USER                              x       y       z    vdW   Elec        q     RMS 
ATOM      1  O   UNL d   1      16.419  -1.199   9.087 -0.40 -0.03    -0.289    13.675
ATOM      2  O   UNL d   1      14.839   3.690   3.609 -0.04 -0.01    -0.289    13.675
ATOM      3  N   UNL d   1      17.492  -1.624   5.837 -0.09 +0.01    -0.247    13.675
ATOM      4  N   UNL d   1      16.154   0.593   4.380 -0.08 +0.00    -0.247    13.675
ATOM      5  N   UNL d   1      16.858  -0.720   1.921 -0.06 +0.01    -0.354    13.675
ATOM      6  N   UNL d   1      18.228  -3.026   3.441 -0.11 +0.02    -0.354    13.675
ATOM      7  C   UNL d   1      17.575  -2.980   7.876 -0.14 -0.00    +0.084    13.675
ATOM      8  C   UNL d   1      15.569   2.585   5.668 -0.04 +0.00    +0.084    13.675
ATOM      9  C   UNL d   1      16.112   1.153   5.637 -0.09 +0.00    +0.058    13.675
ATOM     10  C   UNL d   1      17.898  -2.828   6.387 -0.17 -0.00    +0.058    13.675
ATOM     11  C   UNL d   1      16.932  -1.641   8.075 -0.12 +0.01    +0.193    13.675
ATOM     12  C   UNL d   1      16.966  -0.903   6.772 -0.15 +0.00    +0.109    13.675
ATOM     13  C   UNL d   1      15.275   2.721   4.201 -0.04 +0.01    +0.193    13.675
ATOM     14  C   UNL d   1      16.533  -4.072   8.130 -0.19 -0.01    +0.026    13.675
ATOM     15  C   UNL d   1      16.467   0.487   6.747 -0.14 +0.00    +0.055    13.675
ATOM     16  C   UNL d   1      16.655   3.596   6.049 -0.02 +0.00    +0.026    13.675
ATOM     17  C   UNL d   1      15.667   1.443   3.534 -0.11 +0.00    +0.109    13.675
ATOM     18  C   UNL d   1      18.598  -3.765   5.720 -0.18 +0.00    +0.050    13.675
ATOM     19  C   UNL d   1      19.014  -3.672   4.367 -0.15 +0.00    +0.045    13.675
ATOM     20  C   UNL d   1      16.013   0.245   1.439 -0.05 -0.00    +0.045    13.675
ATOM     21  C   UNL d   1      15.451   1.269   2.090 -0.18 +0.00    +0.057    13.675
ATOM     22  C   UNL d   1      16.563  -1.173  -0.265 -0.31 +0.00    -0.019    13.675
ATOM     23  C   UNL d   1      17.244  -1.622   0.966 -0.23 -0.00    +0.045    13.675
ATOM     24  C   UNL d   1      15.837  -0.067   0.021 -0.18 +0.00    -0.022    13.675
ATOM     25  C   UNL d   1      18.775  -3.135   2.183 -0.22 -0.00    +0.049    13.675
ATOM     26  C   UNL d   1      20.118  -4.182   3.702 -0.20 -0.00    -0.018    13.675
ATOM     27  C   UNL d   1      19.972  -3.822   2.326 -0.22 +0.00    +0.003    13.675
ATOM     28  C   UNL d   1      18.065  -2.682   1.038 -0.32 -0.01    +0.052    13.675
ATOM     29  C   UNL d   1      14.990   0.754  -0.890 -0.29 -0.00    +0.046    13.675
ATOM     30  C   UNL d   1      21.243  -4.953   4.304 -0.22 +0.01    +0.046    13.675
ATOM     31  H   UNL d   1      17.204  -0.688   2.874 +0.05 -0.01    +0.166    13.675
ATOM     32  H   UNL d   1      17.349  -2.575   3.668 +0.04 -0.02    +0.166    13.675
ATOM     33  C   UNL d   1      18.789  -3.136   8.799 -0.03 -0.00    +0.141    13.675
ATOM     34  C   UNL d   1      19.666  -1.913   8.814 +0.00 +0.01    +0.306    13.675
ATOM     35  O   UNL d   1      20.659  -1.730   8.131 -0.00 -0.01    -0.251    13.675
ATOM     36  O   UNL d   1      19.242  -0.982   9.688 +0.01 -0.00    -0.481    13.675
ATOM     37  H   UNL d   1      18.379  -1.320  10.008 +0.03 +0.00    +0.295    13.675
ATOM     38  C   UNL d   1      20.888  -4.165   1.281 -0.24 +0.00    +0.017    13.675
ATOM     39  C   UNL d   1      20.717  -5.158   0.395 -0.31 +0.00    +0.092    13.675
ATOM     40  C   UNL d   1      21.726  -5.395  -0.640 -0.14 +0.02    +0.330    13.675
ATOM     41  O   UNL d   1      22.585  -6.255  -0.658 -0.13 -0.03    -0.246    13.675
ATOM     42  O   UNL d   1      21.583  -4.506  -1.636 -0.05 -0.03    -0.477    13.675
ATOM     43  H   UNL d   1      20.824  -3.956  -1.353 +0.12 +0.00    +0.295    13.675
ATOM     44  C   UNL d   1      14.301   2.793   6.504 -0.08 +0.02    +0.141    13.675
ATOM     45  C   UNL d   1      13.069   2.205   5.870 -0.17 +0.05    +0.306    13.675
ATOM     46  O   UNL d   1      12.548   1.138   6.146 -0.29 -0.03    -0.251    13.675
ATOM     47  O   UNL d   1      12.570   2.985   4.894 -0.08 -0.08    -0.481    13.675
ATOM     48  H   UNL d   1      13.218   3.717   4.805 +0.09 +0.04    +0.295    13.675
ATOM     49  C   UNL d   1      16.673  -1.869  -1.590 -0.41 -0.02    +0.048    13.675
ATOM     50  C   UNL d   1      17.964  -1.502  -2.321 -0.32 -0.03    +0.125    13.675
ATOM     51  C   UNL d   1      19.048  -2.501  -2.030 -0.22 -0.04    +0.305    13.675
ATOM     52  O   UNL d   1      19.038  -3.697  -2.263 -0.29 +0.05    -0.251    13.675
ATOM     53  O   UNL d   1      20.113  -1.930  -1.433 -0.02 +0.02    -0.481    13.675
ATOM     54  H   UNL d   1      20.876  -2.452  -1.757 +0.09 +0.00    +0.295    13.675
TER
ENDMDL
MODEL       37
USER    Run = 37
USER    Cluster Rank = 47
USER    Number of conformations in this cluster = 1
USER  
USER    RMSD from reference structure       = 15.131 A
USER  
USER    Estimated Free Energy of Binding    =   -3.29 kcal/mol  [=(1)+(2)+(3)-(4)]
USER    Estimated Inhibition Constant, Ki   =    3.87 mM (millimolar)  [Temperature = 298.15 K]
USER    
USER    (1) Final Intermolecular Energy     =   -7.17 kcal/mol
USER        vdW + Hbond + desolv Energy     =   -7.13 kcal/mol
USER        Electrostatic Energy            =   -0.04 kcal/mol
USER    (2) Final Total Internal Energy     =   -2.50 kcal/mol
USER    (3) Torsional Free Energy           =   +3.88 kcal/mol
USER    (4) Unbound System's Energy  [=(2)] =   -2.50 kcal/mol
USER    
USER    
USER  
USER    DPF = D:/Protein_go_brrr/autodock/final/mut_D99N/heme/dock.dpf
USER    NEWDPF move	heme_opt.pdbqt
USER    NEWDPF about	0.153000 0.018000 -0.028000
USER    NEWDPF tran0	7.231842 14.437150 8.262983
USER    NEWDPF axisangle0	-0.107243 -0.882938 0.457076 -139.316544
USER    NEWDPF quaternion0	-0.100555 -0.827875 0.428571 -0.347619
USER    NEWDPF dihe0	175.98 17.53 -145.81 5.23 -152.50 -106.66 128.89 139.29 9.83 -13.96 -38.88 -149.56 -153.85 
USER  
USER                              x       y       z    vdW   Elec        q     RMS 
ATOM      1  O   UNL d   1      10.722  12.451   3.947 -0.04 -0.01    -0.289    15.131
ATOM      2  O   UNL d   1      10.875  11.245  11.358 -0.01 -0.00    -0.289    15.131
ATOM      3  N   UNL d   1       8.520  13.959   6.131 -0.12 +0.02    -0.247    15.131
ATOM      4  N   UNL d   1       9.143  12.666   8.732 -0.08 +0.01    -0.247    15.131
ATOM      5  N   UNL d   1       6.697  13.771   9.763 -0.12 +0.06    -0.354    15.131
ATOM      6  N   UNL d   1       6.048  15.093   7.055 -0.12 +0.07    -0.354    15.131
ATOM      7  C   UNL d   1       8.752  13.876   3.692 -0.16 -0.00    +0.084    15.131
ATOM      8  C   UNL d   1      11.402  11.782   9.028 -0.03 +0.00    +0.084    15.131
ATOM      9  C   UNL d   1      10.351  12.424   8.117 -0.07 +0.00    +0.058    15.131
ATOM     10  C   UNL d   1       7.988  14.375   4.922 -0.20 -0.01    +0.058    15.131
ATOM     11  C   UNL d   1       9.822  13.119   4.421 -0.08 +0.00    +0.193    15.131
ATOM     12  C   UNL d   1       9.586  13.268   5.893 -0.11 -0.00    +0.109    15.131
ATOM     13  C   UNL d   1      10.555  11.669  10.264 -0.03 +0.00    +0.193    15.131
ATOM     14  C   UNL d   1       7.926  12.889   2.863 -0.18 +0.00    +0.026    15.131
ATOM     15  C   UNL d   1      10.575  12.679   6.818 -0.08 +0.00    +0.055    15.131
ATOM     16  C   UNL d   1      12.566  12.736   9.313 -0.01 +0.00    +0.026    15.131
ATOM     17  C   UNL d   1       9.207  12.233   9.950 -0.09 -0.00    +0.109    15.131
ATOM     18  C   UNL d   1       6.945  15.219   4.806 -0.27 -0.01    +0.050    15.131
ATOM     19  C   UNL d   1       6.232  15.798   5.887 -0.24 -0.01    +0.045    15.131
ATOM     20  C   UNL d   1       7.027  12.928  10.792 -0.21 -0.01    +0.045    15.131
ATOM     21  C   UNL d   1       8.146  12.217  10.968 -0.18 -0.00    +0.057    15.131
ATOM     22  C   UNL d   1       4.948  13.791  11.182 -0.23 +0.00    -0.019    15.131
ATOM     23  C   UNL d   1       5.460  14.339   9.910 -0.21 -0.01    +0.045    15.131
ATOM     24  C   UNL d   1       5.881  12.958  11.700 -0.24 +0.00    -0.022    15.131
ATOM     25  C   UNL d   1       5.257  15.803   7.928 -0.21 -0.00    +0.049    15.131
ATOM     26  C   UNL d   1       5.575  17.012   6.019 -0.20 +0.00    -0.018    15.131
ATOM     27  C   UNL d   1       4.978  17.017   7.317 -0.19 -0.00    +0.003    15.131
ATOM     28  C   UNL d   1       4.799  15.215   9.139 -0.10 -0.01    +0.052    15.131
ATOM     29  C   UNL d   1       5.834  12.179  12.971 -0.12 -0.00    +0.046    15.131
ATOM     30  C   UNL d   1       5.507  18.102   5.003 -0.14 +0.00    +0.046    15.131
ATOM     31  H   UNL d   1       7.361  13.988   9.027 +0.05 -0.02    +0.166    15.131
ATOM     32  H   UNL d   1       6.419  14.163   7.213 -0.22 -0.05    +0.166    15.131
ATOM     33  C   UNL d   1       9.370  14.969   2.814 -0.06 +0.00    +0.141    15.131
ATOM     34  C   UNL d   1      10.319  15.856   3.575 -0.01 +0.00    +0.306    15.131
ATOM     35  O   UNL d   1      10.061  16.951   4.044 -0.00 -0.00    -0.251    15.131
ATOM     36  O   UNL d   1      11.543  15.314   3.706 +0.00 -0.00    -0.481    15.131
ATOM     37  H   UNL d   1      11.451  14.406   3.344 +0.02 +0.00    +0.295    15.131
ATOM     38  C   UNL d   1       4.188  18.082   7.857 -0.15 +0.00    +0.017    15.131
ATOM     39  C   UNL d   1       2.980  18.456   7.408 -0.15 +0.01    +0.092    15.131
ATOM     40  C   UNL d   1       2.266  19.555   8.062 -0.05 +0.01    +0.330    15.131
ATOM     41  O   UNL d   1       1.274  19.484   8.763 -0.06 -0.01    -0.246    15.131
ATOM     42  O   UNL d   1       2.869  20.723   7.793 +0.00 -0.01    -0.477    15.131
ATOM     43  H   UNL d   1       2.518  21.331   8.475 +0.01 +0.00    +0.295    15.131
ATOM     44  C   UNL d   1      11.909  10.406   8.584 -0.02 +0.01    +0.141    15.131
ATOM     45  C   UNL d   1      10.836   9.350   8.576 -0.04 +0.03    +0.306    15.131
ATOM     46  O   UNL d   1      10.047   9.122   7.675 -0.09 -0.03    -0.251    15.131
ATOM     47  O   UNL d   1      10.794   8.650   9.724 +0.00 -0.06    -0.481    15.131
ATOM     48  H   UNL d   1      11.049   9.296  10.418 +0.04 +0.02    +0.295    15.131
ATOM     49  C   UNL d   1       3.603  14.119  11.760 -0.31 -0.01    +0.048    15.131
ATOM     50  C   UNL d   1       2.761  12.863  11.987 -0.45 -0.02    +0.125    15.131
ATOM     51  C   UNL d   1       1.966  12.973  13.258 -0.33 -0.05    +0.305    15.131
ATOM     52  O   UNL d   1       0.785  12.722  13.420 -0.95 +0.05    -0.251    15.131
ATOM     53  O   UNL d   1       2.717  13.418  14.285 -0.15 +0.09    -0.481    15.131
ATOM     54  H   UNL d   1       2.116  13.370  15.058 -0.15 -0.12    +0.295    15.131
TER
ENDMDL
MODEL       94
USER    Run = 94
USER    Cluster Rank = 48
USER    Number of conformations in this cluster = 1
USER  
USER    RMSD from reference structure       = 13.372 A
USER  
USER    Estimated Free Energy of Binding    =   -3.23 kcal/mol  [=(1)+(2)+(3)-(4)]
USER    Estimated Inhibition Constant, Ki   =    4.26 mM (millimolar)  [Temperature = 298.15 K]
USER    
USER    (1) Final Intermolecular Energy     =   -7.11 kcal/mol
USER        vdW + Hbond + desolv Energy     =   -6.98 kcal/mol
USER        Electrostatic Energy            =   -0.13 kcal/mol
USER    (2) Final Total Internal Energy     =   -4.39 kcal/mol
USER    (3) Torsional Free Energy           =   +3.88 kcal/mol
USER    (4) Unbound System's Energy  [=(2)] =   -4.39 kcal/mol
USER    
USER    
USER  
USER    DPF = D:/Protein_go_brrr/autodock/final/mut_D99N/heme/dock.dpf
USER    NEWDPF move	heme_opt.pdbqt
USER    NEWDPF about	0.153000 0.018000 -0.028000
USER    NEWDPF tran0	1.534449 -15.423071 4.501185
USER    NEWDPF axisangle0	0.116185 0.806961 0.579063 -142.520059
USER    NEWDPF quaternion0	0.110026 0.764182 0.548365 -0.321274
USER    NEWDPF dihe0	110.18 -179.79 -97.48 53.25 177.91 -56.36 146.17 48.94 -18.65 -15.28 -80.10 13.10 -5.33 
USER  
USER                              x       y       z    vdW   Elec        q     RMS 
ATOM      1  O   UNL d   1       5.937 -17.214   7.990 -0.01 +0.03    -0.289    13.372
ATOM      2  O   UNL d   1       3.505 -19.832   1.385 -0.04 +0.03    -0.289    13.372
ATOM      3  N   UNL d   1       3.194 -15.907   6.357 -0.08 +0.04    -0.247    13.372
ATOM      4  N   UNL d   1       3.197 -17.345   3.757 -0.06 +0.07    -0.247    13.372
ATOM      5  N   UNL d   1       1.301 -15.412   2.791 -0.07 +0.07    -0.354    13.372
ATOM      6  N   UNL d   1       1.318 -13.915   5.485 -0.14 +0.08    -0.354    13.372
ATOM      7  C   UNL d   1       4.461 -15.302   8.366 -0.12 -0.01    +0.084    13.372
ATOM      8  C   UNL d   1       4.242 -19.553   3.702 -0.05 -0.01    +0.084    13.372
ATOM      9  C   UNL d   1       3.922 -18.270   4.475 -0.08 -0.01    +0.058    13.372
ATOM     10  C   UNL d   1       3.307 -15.007   7.404 -0.20 -0.01    +0.058    13.372
ATOM     11  C   UNL d   1       4.968 -16.540   7.690 -0.03 -0.02    +0.193    13.372
ATOM     12  C   UNL d   1       4.102 -16.817   6.500 -0.07 -0.02    +0.109    13.372
ATOM     13  C   UNL d   1       3.596 -19.171   2.400 -0.06 -0.03    +0.193    13.372
ATOM     14  C   UNL d   1       5.547 -14.225   8.309 -0.24 -0.00    +0.026    13.372
ATOM     15  C   UNL d   1       4.357 -18.048   5.725 -0.07 -0.01    +0.055    13.372
ATOM     16  C   UNL d   1       3.503 -20.764   4.281 -0.01 -0.00    +0.026    13.372
ATOM     17  C   UNL d   1       3.007 -17.808   2.563 +0.01 -0.03    +0.109    13.372
ATOM     18  C   UNL d   1       2.439 -14.003   7.633 -0.22 -0.01    +0.050    13.372
ATOM     19  C   UNL d   1       1.297 -13.708   6.846 -0.29 -0.01    +0.045    13.372
ATOM     20  C   UNL d   1       1.602 -16.053   1.618 -0.17 -0.01    +0.045    13.372
ATOM     21  C   UNL d   1       2.341 -17.151   1.428 -0.12 -0.01    +0.057    13.372
ATOM     22  C   UNL d   1       0.285 -14.245   1.154 -0.23 +0.00    -0.019    13.372
ATOM     23  C   UNL d   1       0.510 -14.308   2.612 -0.21 -0.01    +0.045    13.372
ATOM     24  C   UNL d   1       0.933 -15.281   0.571 -0.20 +0.00    -0.022    13.372
ATOM     25  C   UNL d   1       0.146 -13.479   4.912 -0.26 -0.01    +0.049    13.372
ATOM     26  C   UNL d   1       0.066 -13.158   7.170 -0.37 +0.00    -0.018    13.372
ATOM     27  C   UNL d   1      -0.664 -13.034   5.948 -0.31 -0.00    +0.003    13.372
ATOM     28  C   UNL d   1      -0.005 -13.443   3.499 -0.16 -0.01    +0.052    13.372
ATOM     29  C   UNL d   1       0.995 -15.650  -0.872 -0.19 -0.00    +0.046    13.372
ATOM     30  C   UNL d   1      -0.406 -12.773   8.531 -0.36 -0.02    +0.046    13.372
ATOM     31  H   UNL d   1       1.585 -15.794   3.687 +0.06 -0.04    +0.166    13.372
ATOM     32  H   UNL d   1       2.114 -14.298   4.989 -0.15 -0.06    +0.166    13.372
ATOM     33  C   UNL d   1       4.049 -15.609   9.810 -0.07 -0.02    +0.141    13.372
ATOM     34  C   UNL d   1       2.685 -16.237   9.903 -0.01 -0.03    +0.306    13.372
ATOM     35  O   UNL d   1       1.764 -15.859  10.607 -0.02 +0.03    -0.251    13.372
ATOM     36  O   UNL d   1       2.551 -17.308   9.100 +0.01 +0.04    -0.481    13.372
ATOM     37  H   UNL d   1       2.506 -16.933   8.194 +0.04 -0.03    +0.295    13.372
ATOM     38  C   UNL d   1      -1.984 -12.494   5.826 -0.25 -0.00    +0.017    13.372
ATOM     39  C   UNL d   1      -3.003 -13.078   5.177 -0.17 -0.01    +0.092    13.372
ATOM     40  C   UNL d   1      -4.315 -12.426   5.141 -0.10 -0.01    +0.330    13.372
ATOM     41  O   UNL d   1      -5.012 -12.106   6.085 -0.14 -0.04    -0.246    13.372
ATOM     42  O   UNL d   1      -4.683 -12.200   3.871 -0.01 +0.02    -0.477    13.372
ATOM     43  H   UNL d   1      -3.938 -12.553   3.344 +0.10 -0.02    +0.295    13.372
ATOM     44  C   UNL d   1       5.732 -19.854   3.509 -0.06 -0.01    +0.141    13.372
ATOM     45  C   UNL d   1       6.437 -18.837   2.651 -0.09 -0.05    +0.306    13.372
ATOM     46  O   UNL d   1       7.157 -17.933   3.039 -0.21 +0.04    -0.251    13.372
ATOM     47  O   UNL d   1       6.172 -18.995   1.342 -0.07 +0.06    -0.481    13.372
ATOM     48  H   UNL d   1       5.306 -18.555   1.209 -0.13 -0.07    +0.295    13.372
ATOM     49  C   UNL d   1      -0.522 -13.180   0.471 -0.33 -0.00    +0.048    13.372
ATOM     50  C   UNL d   1      -2.001 -13.555   0.384 -0.17 -0.01    +0.125    13.372
ATOM     51  C   UNL d   1      -2.796 -12.853   1.448 -0.11 -0.00    +0.305    13.372
ATOM     52  O   UNL d   1      -2.701 -11.690   1.801 -0.76 -0.03    -0.251    13.372
ATOM     53  O   UNL d   1      -3.687 -13.675   2.037 +0.00 +0.04    -0.481    13.372
ATOM     54  H   UNL d   1      -4.538 -13.196   1.963 +0.08 -0.03    +0.295    13.372
TER
ENDMDL
MODEL       72
USER    Run = 72
USER    Cluster Rank = 49
USER    Number of conformations in this cluster = 1
USER  
USER    RMSD from reference structure       = 12.911 A
USER  
USER    Estimated Free Energy of Binding    =   -3.14 kcal/mol  [=(1)+(2)+(3)-(4)]
USER    Estimated Inhibition Constant, Ki   =    5.01 mM (millimolar)  [Temperature = 298.15 K]
USER    
USER    (1) Final Intermolecular Energy     =   -7.02 kcal/mol
USER        vdW + Hbond + desolv Energy     =   -7.05 kcal/mol
USER        Electrostatic Energy            =   +0.04 kcal/mol
USER    (2) Final Total Internal Energy     =   -4.18 kcal/mol
USER    (3) Torsional Free Energy           =   +3.88 kcal/mol
USER    (4) Unbound System's Energy  [=(2)] =   -4.18 kcal/mol
USER    
USER    
USER  
USER    DPF = D:/Protein_go_brrr/autodock/final/mut_D99N/heme/dock.dpf
USER    NEWDPF move	heme_opt.pdbqt
USER    NEWDPF about	0.153000 0.018000 -0.028000
USER    NEWDPF tran0	1.183686 12.144180 -8.715891
USER    NEWDPF axisangle0	0.870449 -0.482979 -0.095128 165.466149
USER    NEWDPF quaternion0	0.863458 -0.479099 -0.094364 0.126492
USER    NEWDPF dihe0	-167.76 -143.78 179.69 -9.30 40.00 -2.71 143.52 -8.31 136.29 -12.43 56.38 -73.53 121.16 
USER  
USER                              x       y       z    vdW   Elec        q     RMS 
ATOM      1  O   UNL d   1      -3.216  15.993  -7.953 -0.23 -0.01    -0.289    12.911
ATOM      2  O   UNL d   1       3.985  16.258  -5.840 -0.03 +0.03    -0.289    12.911
ATOM      3  N   UNL d   1      -1.009  13.403  -8.513 -0.16 +0.11    -0.247    12.911
ATOM      4  N   UNL d   1       1.597  14.523  -7.629 -0.05 +0.15    -0.247    12.911
ATOM      5  N   UNL d   1       2.887  12.313  -8.940 -0.09 +0.24    -0.354    12.911
ATOM      6  N   UNL d   1       0.180  11.168  -9.869 -0.08 +0.20    -0.354    12.911
ATOM      7  C   UNL d   1      -3.327  13.868  -9.157 -0.20 -0.01    +0.084    12.911
ATOM      8  C   UNL d   1       1.540  16.298  -5.950 -0.08 -0.01    +0.084    12.911
ATOM      9  C   UNL d   1       0.784  15.359  -6.897 -0.11 -0.02    +0.058    12.911
ATOM     10  C   UNL d   1      -2.114  12.935  -9.204 -0.25 -0.01    +0.058    12.911
ATOM     11  C   UNL d   1      -2.719  14.938  -8.300 -0.14 -0.02    +0.193    12.911
ATOM     12  C   UNL d   1      -1.321  14.527  -7.954 -0.18 -0.02    +0.109    12.911
ATOM     13  C   UNL d   1       2.934  15.866  -6.309 -0.06 -0.05    +0.193    12.911
ATOM     14  C   UNL d   1      -3.652  14.460 -10.531 -0.08 -0.00    +0.026    12.911
ATOM     15  C   UNL d   1      -0.550  15.388  -7.035 -0.18 -0.01    +0.055    12.911
ATOM     16  C   UNL d   1       1.280  15.952  -4.481 -0.14 -0.00    +0.026    12.911
ATOM     17  C   UNL d   1       2.831  14.791  -7.342 -0.09 -0.05    +0.109    12.911
ATOM     18  C   UNL d   1      -2.177  11.729  -9.799 -0.28 -0.01    +0.050    12.911
ATOM     19  C   UNL d   1      -1.136  10.767  -9.819 -0.25 -0.01    +0.045    12.911
ATOM     20  C   UNL d   1       3.981  13.086  -8.651 -0.17 -0.01    +0.045    12.911
ATOM     21  C   UNL d   1       4.048  14.202  -7.918 -0.15 -0.02    +0.057    12.911
ATOM     22  C   UNL d   1       4.641  11.332  -9.956 -0.14 -0.00    -0.019    12.911
ATOM     23  C   UNL d   1       3.187  11.231  -9.724 -0.13 -0.01    +0.045    12.911
ATOM     24  C   UNL d   1       5.106  12.431  -9.317 -0.14 -0.00    -0.022    12.911
ATOM     25  C   UNL d   1       1.014  10.079  -9.973 -0.19 -0.02    +0.049    12.911
ATOM     26  C   UNL d   1      -1.156   9.381  -9.855 -0.31 +0.00    -0.018    12.911
ATOM     27  C   UNL d   1       0.205   8.951  -9.933 -0.28 -0.00    +0.003    12.911
ATOM     28  C   UNL d   1       2.407  10.246 -10.197 -0.11 -0.01    +0.052    12.911
ATOM     29  C   UNL d   1       6.503  12.948  -9.245 -0.07 +0.01    +0.046    12.911
ATOM     30  C   UNL d   1      -2.364   8.507  -9.818 -0.42 -0.00    +0.046    12.911
ATOM     31  H   UNL d   1       1.980  12.510  -8.530 -0.25 -0.26    +0.166    12.911
ATOM     32  H   UNL d   1       0.470  12.139  -9.869 +0.01 -0.10    +0.166    12.911
ATOM     33  C   UNL d   1      -4.577  13.288  -8.486 -0.22 -0.01    +0.141    12.911
ATOM     34  C   UNL d   1      -5.758  14.218  -8.557 -0.17 -0.00    +0.306    12.911
ATOM     35  O   UNL d   1      -6.632  14.209  -9.407 -0.13 +0.00    -0.251    12.911
ATOM     36  O   UNL d   1      -5.776  15.110  -7.551 -0.10 -0.01    -0.481    12.911
ATOM     37  H   UNL d   1      -4.904  15.008  -7.115 -0.02 -0.01    +0.295    12.911
ATOM     38  C   UNL d   1       0.637   7.588 -10.005 -0.36 -0.00    +0.017    12.911
ATOM     39  C   UNL d   1       1.676   7.143 -10.728 -0.26 -0.00    +0.092    12.911
ATOM     40  C   UNL d   1       2.027   5.721 -10.702 -0.23 +0.01    +0.330    12.911
ATOM     41  O   UNL d   1       1.528   4.844 -10.023 -0.40 +0.00    -0.246    12.911
ATOM     42  O   UNL d   1       3.017   5.473 -11.574 -0.13 -0.06    -0.477    12.911
ATOM     43  H   UNL d   1       3.580   6.273 -11.522 +0.10 +0.04    +0.295    12.911
ATOM     44  C   UNL d   1       1.345  17.795  -6.210 -0.01 -0.01    +0.141    12.911
ATOM     45  C   UNL d   1       1.835  18.231  -7.566 +0.01 -0.01    +0.306    12.911
ATOM     46  O   UNL d   1       1.155  18.413  -8.560 +0.00 +0.01    -0.251    12.911
ATOM     47  O   UNL d   1       3.170  18.390  -7.603 +0.01 +0.01    -0.481    12.911
ATOM     48  H   UNL d   1       3.470  18.186  -6.692 +0.01 -0.01    +0.295    12.911
ATOM     49  C   UNL d   1       5.431  10.362 -10.785 -0.09 +0.01    +0.048    12.911
ATOM     50  C   UNL d   1       4.649   9.893 -12.011 -0.03 +0.01    +0.125    12.911
ATOM     51  C   UNL d   1       4.518   8.396 -12.023 -0.02 +0.04    +0.305    12.911
ATOM     52  O   UNL d   1       5.141   7.590 -11.355 -0.05 -0.05    -0.251    12.911
ATOM     53  O   UNL d   1       3.592   7.978 -12.910 +0.01 -0.04    -0.481    12.911
ATOM     54  H   UNL d   1       3.713   7.006 -12.940 +0.05 +0.03    +0.295    12.911
TER
ENDMDL
MODEL       98
USER    Run = 98
USER    Cluster Rank = 50
USER    Number of conformations in this cluster = 2
USER  
USER    RMSD from reference structure       = 14.301 A
USER  
USER    Estimated Free Energy of Binding    =   -3.11 kcal/mol  [=(1)+(2)+(3)-(4)]
USER    Estimated Inhibition Constant, Ki   =    5.22 mM (millimolar)  [Temperature = 298.15 K]
USER    
USER    (1) Final Intermolecular Energy     =   -6.99 kcal/mol
USER        vdW + Hbond + desolv Energy     =   -6.83 kcal/mol
USER        Electrostatic Energy            =   -0.16 kcal/mol
USER    (2) Final Total Internal Energy     =   -3.26 kcal/mol
USER    (3) Torsional Free Energy           =   +3.88 kcal/mol
USER    (4) Unbound System's Energy  [=(2)] =   -3.26 kcal/mol
USER    
USER    
USER  
USER    DPF = D:/Protein_go_brrr/autodock/final/mut_D99N/heme/dock.dpf
USER    NEWDPF move	heme_opt.pdbqt
USER    NEWDPF about	0.153000 0.018000 -0.028000
USER    NEWDPF tran0	5.337406 16.065612 2.231704
USER    NEWDPF axisangle0	-0.756950 0.589759 -0.281446 -109.556317
USER    NEWDPF quaternion0	-0.618371 0.481789 -0.229920 -0.576744
USER    NEWDPF dihe0	-101.21 114.33 -112.23 153.12 35.26 133.61 120.87 73.45 131.08 -29.47 59.53 -129.98 128.15 
USER  
USER                              x       y       z    vdW   Elec        q     RMS 
ATOM      1  O   UNL d   1       2.910  21.434   2.027 -0.01 -0.01    -0.289    14.301
ATOM      2  O   UNL d   1       4.471  16.949   7.845 -0.11 -0.00    -0.289    14.301
ATOM      3  N   UNL d   1       4.229  18.270   1.646 -0.11 -0.01    -0.247    14.301
ATOM      4  N   UNL d   1       4.774  17.416   4.439 -0.06 -0.00    -0.247    14.301
ATOM      5  N   UNL d   1       6.351  15.261   3.374 -0.16 +0.02    -0.354    14.301
ATOM      6  N   UNL d   1       5.797  16.165   0.480 -0.09 -0.01    -0.354    14.301
ATOM      7  C   UNL d   1       3.740  20.134   0.131 -0.04 +0.00    +0.084    14.301
ATOM      8  C   UNL d   1       3.418  18.428   6.202 -0.18 +0.00    +0.084    14.301
ATOM      9  C   UNL d   1       3.816  18.363   4.724 -0.11 +0.00    +0.058    14.301
ATOM     10  C   UNL d   1       4.277  18.714   0.335 -0.10 +0.00    +0.058    14.301
ATOM     11  C   UNL d   1       3.363  20.407   1.556 -0.04 +0.01    +0.193    14.301
ATOM     12  C   UNL d   1       3.684  19.193   2.370 -0.12 +0.00    +0.109    14.301
ATOM     13  C   UNL d   1       4.354  17.368   6.709 -0.16 +0.00    +0.193    14.301
ATOM     14  C   UNL d   1       4.843  21.111  -0.285 -0.01 +0.00    +0.026    14.301
ATOM     15  C   UNL d   1       3.311  19.194   3.799 -0.16 +0.00    +0.055    14.301
ATOM     16  C   UNL d   1       1.977  17.959   6.423 -0.24 +0.00    +0.026    14.301
ATOM     17  C   UNL d   1       5.124  16.839   5.543 -0.22 -0.00    +0.109    14.301
ATOM     18  C   UNL d   1       4.670  17.955  -0.705 -0.10 +0.00    +0.050    14.301
ATOM     19  C   UNL d   1       5.100  16.606  -0.623 -0.13 +0.00    +0.045    14.301
ATOM     20  C   UNL d   1       6.676  15.157   4.701 -0.26 -0.01    +0.045    14.301
ATOM     21  C   UNL d   1       6.156  15.811   5.745 -0.27 -0.01    +0.057    14.301
ATOM     22  C   UNL d   1       7.989  13.721   3.505 -0.26 +0.00    -0.019    14.301
ATOM     23  C   UNL d   1       7.091  14.432   2.574 -0.23 +0.00    +0.045    14.301
ATOM     24  C   UNL d   1       7.738  14.153   4.763 -0.23 +0.00    -0.022    14.301
ATOM     25  C   UNL d   1       6.192  14.859   0.311 -0.21 +0.00    +0.049    14.301
ATOM     26  C   UNL d   1       5.008  15.549  -1.514 -0.16 -0.00    -0.018    14.301
ATOM     27  C   UNL d   1       5.682  14.442  -0.911 -0.24 +0.00    +0.003    14.301
ATOM     28  C   UNL d   1       7.059  14.232   1.247 -0.11 +0.00    +0.052    14.301
ATOM     29  C   UNL d   1       8.375  13.726   6.042 -0.23 -0.00    +0.046    14.301
ATOM     30  C   UNL d   1       4.334  15.562  -2.845 -0.13 -0.00    +0.046    14.301
ATOM     31  H   UNL d   1       5.580  15.843   3.065 +0.06 -0.00    +0.166    14.301
ATOM     32  H   UNL d   1       6.013  16.752   1.277 +0.04 +0.00    +0.166    14.301
ATOM     33  C   UNL d   1       2.514  20.248  -0.781 -0.03 +0.00    +0.141    14.301
ATOM     34  C   UNL d   1       2.021  21.664  -0.915 -0.00 +0.01    +0.306    14.301
ATOM     35  O   UNL d   1       2.382  22.477  -1.749 -0.00 -0.01    -0.251    14.301
ATOM     36  O   UNL d   1       1.097  21.980   0.010 +0.00 -0.02    -0.481    14.301
ATOM     37  H   UNL d   1       1.609  22.116   0.835 +0.02 +0.01    +0.295    14.301
ATOM     38  C   UNL d   1       5.838  13.148  -1.504 -0.28 +0.00    +0.017    14.301
ATOM     39  C   UNL d   1       6.829  12.791  -2.334 -0.20 +0.02    +0.092    14.301
ATOM     40  C   UNL d   1       6.884  11.424  -2.860 -0.13 +0.16    +0.330    14.301
ATOM     41  O   UNL d   1       7.043  11.078  -4.015 -0.57 -0.25    -0.246    14.301
ATOM     42  O   UNL d   1       6.739  10.539  -1.862 -0.09 -0.15    -0.477    14.301
ATOM     43  H   UNL d   1       7.541  10.667  -1.316 -0.06 +0.11    +0.295    14.301
ATOM     44  C   UNL d   1       3.678  19.768   6.898 -0.06 +0.00    +0.141    14.301
ATOM     45  C   UNL d   1       5.117  19.961   7.298 -0.01 +0.00    +0.306    14.301
ATOM     46  O   UNL d   1       6.042  20.255   6.562 -0.01 -0.00    -0.251    14.301
ATOM     47  O   UNL d   1       5.319  19.743   8.610 +0.00 +0.00    -0.481    14.301
ATOM     48  H   UNL d   1       5.154  18.784   8.731 +0.03 -0.00    +0.295    14.301
ATOM     49  C   UNL d   1       9.010  12.705   3.082 -0.22 +0.00    +0.048    14.301
ATOM     50  C   UNL d   1       9.799  13.169   1.857 -0.10 +0.01    +0.125    14.301
ATOM     51  C   UNL d   1       9.616  12.217   0.710 -0.08 +0.04    +0.305    14.301
ATOM     52  O   UNL d   1       8.597  12.003   0.077 -0.66 -0.10    -0.251    14.301
ATOM     53  O   UNL d   1      10.754  11.555   0.417 -0.01 -0.04    -0.481    14.301
ATOM     54  H   UNL d   1      11.465  12.164   0.707 +0.02 +0.02    +0.295    14.301
TER
ENDMDL
MODEL       90
USER    Run = 90
USER    Cluster Rank = 51
USER    Number of conformations in this cluster = 3
USER  
USER    RMSD from reference structure       = 15.956 A
USER  
USER    Estimated Free Energy of Binding    =   -3.09 kcal/mol  [=(1)+(2)+(3)-(4)]
USER    Estimated Inhibition Constant, Ki   =    5.40 mM (millimolar)  [Temperature = 298.15 K]
USER    
USER    (1) Final Intermolecular Energy     =   -6.97 kcal/mol
USER        vdW + Hbond + desolv Energy     =   -6.82 kcal/mol
USER        Electrostatic Energy            =   -0.16 kcal/mol
USER    (2) Final Total Internal Energy     =   -3.25 kcal/mol
USER    (3) Torsional Free Energy           =   +3.88 kcal/mol
USER    (4) Unbound System's Energy  [=(2)] =   -3.25 kcal/mol
USER    
USER    
USER  
USER    DPF = D:/Protein_go_brrr/autodock/final/mut_D99N/heme/dock.dpf
USER    NEWDPF move	heme_opt.pdbqt
USER    NEWDPF about	0.153000 0.018000 -0.028000
USER    NEWDPF tran0	5.226648 15.871894 8.935509
USER    NEWDPF axisangle0	0.927932 -0.070914 -0.365942 -121.442615
USER    NEWDPF quaternion0	0.809390 -0.061855 -0.319193 -0.489058
USER    NEWDPF dihe0	119.36 -61.06 -131.70 -65.29 35.10 7.63 122.89 31.53 -114.42 -25.03 -29.03 -85.53 20.95 
USER  
USER                              x       y       z    vdW   Elec        q     RMS 
ATOM      1  O   UNL d   1       0.786  16.830  12.693 -0.06 +0.02    -0.289    15.956
ATOM      2  O   UNL d   1       3.015  20.646   6.622 -0.02 -0.01    -0.289    15.956
ATOM      3  N   UNL d   1       3.568  15.953  10.853 -0.08 +0.01    -0.247    15.956
ATOM      4  N   UNL d   1       3.467  17.810   8.535 -0.02 -0.01    -0.247    15.956
ATOM      5  N   UNL d   1       5.441  16.163   7.248 -0.11 +0.02    -0.354    15.956
ATOM      6  N   UNL d   1       5.525  14.231   9.648 -0.14 +0.09    -0.354    15.956
ATOM      7  C   UNL d   1       2.354  14.955  12.734 -0.18 -0.01    +0.084    15.956
ATOM      8  C   UNL d   1       2.319  19.943   8.861 -0.05 +0.00    +0.084    15.956
ATOM      9  C   UNL d   1       2.708  18.563   9.403 -0.09 +0.00    +0.058    15.956
ATOM     10  C   UNL d   1       3.509  14.884  11.731 -0.20 -0.01    +0.058    15.956
ATOM     11  C   UNL d   1       1.781  16.264  12.279 -0.08 -0.01    +0.193    15.956
ATOM     12  C   UNL d   1       2.620  16.780  11.151 -0.07 -0.00    +0.109    15.956
ATOM     13  C   UNL d   1       2.967  19.818   7.510 -0.05 +0.01    +0.193    15.956
ATOM     14  C   UNL d   1       1.319  13.853  12.498 -0.42 -0.00    +0.026    15.956
ATOM     15  C   UNL d   1       2.299  18.111  10.598 -0.10 +0.00    +0.055    15.956
ATOM     16  C   UNL d   1       3.007  21.071   9.635 -0.01 -0.00    +0.026    15.956
ATOM     17  C   UNL d   1       3.622  18.477   7.437 -0.12 +0.00    +0.109    15.956
ATOM     18  C   UNL d   1       4.426  13.899  11.783 -0.29 -0.01    +0.050    15.956
ATOM     19  C   UNL d   1       5.572  13.797  10.954 -0.20 -0.01    +0.045    15.956
ATOM     20  C   UNL d   1       5.096  16.979   6.201 -0.23 -0.00    +0.045    15.956
ATOM     21  C   UNL d   1       4.304  18.056   6.204 -0.20 +0.00    +0.057    15.956
ATOM     22  C   UNL d   1       6.491  15.341   5.432 -0.20 +0.00    -0.019    15.956
ATOM     23  C   UNL d   1       6.280  15.145   6.880 -0.20 -0.01    +0.045    15.956
ATOM     24  C   UNL d   1       5.788  16.429   5.036 -0.25 +0.00    -0.022    15.956
ATOM     25  C   UNL d   1       6.709  13.955   9.005 -0.26 -0.01    +0.049    15.956
ATOM     26  C   UNL d   1       6.830  13.260  11.175 -0.20 +0.00    -0.018    15.956
ATOM     27  C   UNL d   1       7.551  13.380   9.947 -0.20 -0.00    +0.003    15.956
ATOM     28  C   UNL d   1       6.846  14.168   7.606 -0.25 -0.01    +0.052    15.956
ATOM     29  C   UNL d   1       5.692  17.034   3.677 -0.19 -0.00    +0.046    15.956
ATOM     30  C   UNL d   1       7.336  12.673  12.449 -0.18 -0.00    +0.046    15.956
ATOM     31  H   UNL d   1       5.150  16.372   8.196 +0.05 -0.01    +0.166    15.956
ATOM     32  H   UNL d   1       4.706  14.654   9.227 -0.00 -0.03    +0.166    15.956
ATOM     33  C   UNL d   1       2.768  15.032  14.208 -0.16 -0.02    +0.141    15.956
ATOM     34  C   UNL d   1       3.435  13.772  14.689 -0.19 -0.04    +0.306    15.956
ATOM     35  O   UNL d   1       4.628  13.526  14.643 -0.16 +0.01    -0.251    15.956
ATOM     36  O   UNL d   1       2.562  12.888  15.204 -0.14 +0.11    -0.481    15.956
ATOM     37  H   UNL d   1       2.182  13.344  15.985 -0.36 -0.19    +0.295    15.956
ATOM     38  C   UNL d   1       8.894  12.933   9.731 -0.13 -0.00    +0.017    15.956
ATOM     39  C   UNL d   1       9.304  12.187   8.693 -0.15 -0.00    +0.092    15.956
ATOM     40  C   UNL d   1      10.715  11.809   8.579 -0.03 +0.00    +0.330    15.956
ATOM     41  O   UNL d   1      11.607  12.012   9.381 -0.01 -0.00    -0.246    15.956
ATOM     42  O   UNL d   1      10.928  11.166   7.421 -0.02 -0.01    -0.477    15.956
ATOM     43  H   UNL d   1      11.574  11.734   6.952 +0.03 +0.01    +0.295    15.956
ATOM     44  C   UNL d   1       0.815  20.199   8.726 -0.05 +0.00    +0.141    15.956
ATOM     45  C   UNL d   1       0.192  19.483   7.558 -0.09 +0.02    +0.306    15.956
ATOM     46  O   UNL d   1      -0.119  18.306   7.509 -0.23 -0.03    -0.251    15.956
ATOM     47  O   UNL d   1       0.017  20.288   6.494 -0.00 -0.03    -0.481    15.956
ATOM     48  H   UNL d   1       0.873  20.755   6.393 +0.05 +0.01    +0.295    15.956
ATOM     49  C   UNL d   1       7.339  14.448   4.575 -0.25 -0.01    +0.048    15.956
ATOM     50  C   UNL d   1       8.802  14.459   5.016 -0.13 -0.01    +0.125    15.956
ATOM     51  C   UNL d   1       9.475  13.159   4.677 -0.09 -0.00    +0.305    15.956
ATOM     52  O   UNL d   1       9.171  12.373   3.797 -0.13 -0.00    -0.251    15.956
ATOM     53  O   UNL d   1      10.516  12.902   5.494 -0.01 -0.00    -0.481    15.956
ATOM     54  H   UNL d   1      10.237  12.105   5.992 +0.05 +0.00    +0.295    15.956
TER
ENDMDL
MODEL       24
USER    Run = 24
USER    Cluster Rank = 52
USER    Number of conformations in this cluster = 1
USER  
USER    RMSD from reference structure       = 13.321 A
USER  
USER    Estimated Free Energy of Binding    =   -3.07 kcal/mol  [=(1)+(2)+(3)-(4)]
USER    Estimated Inhibition Constant, Ki   =    5.65 mM (millimolar)  [Temperature = 298.15 K]
USER    
USER    (1) Final Intermolecular Energy     =   -6.95 kcal/mol
USER        vdW + Hbond + desolv Energy     =   -6.77 kcal/mol
USER        Electrostatic Energy            =   -0.18 kcal/mol
USER    (2) Final Total Internal Energy     =   -4.13 kcal/mol
USER    (3) Torsional Free Energy           =   +3.88 kcal/mol
USER    (4) Unbound System's Energy  [=(2)] =   -4.13 kcal/mol
USER    
USER    
USER  
USER    DPF = D:/Protein_go_brrr/autodock/final/mut_D99N/heme/dock.dpf
USER    NEWDPF move	heme_opt.pdbqt
USER    NEWDPF about	0.153000 0.018000 -0.028000
USER    NEWDPF tran0	16.372478 2.349444 -5.202357
USER    NEWDPF axisangle0	-0.762703 -0.210370 0.611579 92.186747
USER    NEWDPF quaternion0	-0.549505 -0.151565 0.440625 0.693485
USER    NEWDPF dihe0	130.45 -165.89 98.65 -54.20 -135.29 -1.90 173.34 -104.81 24.57 26.92 -95.35 -18.60 -14.59 
USER  
USER                              x       y       z    vdW   Elec        q     RMS 
ATOM      1  O   UNL d   1      14.334   4.277  -0.017 -0.06 -0.00    -0.289    13.321
ATOM      2  O   UNL d   1      11.533   4.907  -6.956 -0.12 -0.01    -0.289    13.321
ATOM      3  N   UNL d   1      15.973   3.087  -2.809 -0.62 -0.05    -0.247    13.321
ATOM      4  N   UNL d   1      14.001   3.509  -4.991 +0.30 -0.02    -0.247    13.321
ATOM      5  N   UNL d   1      15.611   1.800  -6.650 -0.09 +0.01    -0.354    13.321
ATOM      6  N   UNL d   1      17.641   1.351  -4.375 +0.00 +0.06    -0.354    13.321
ATOM      7  C   UNL d   1      16.360   2.961  -0.392 -0.07 -0.00    +0.084    13.321
ATOM      8  C   UNL d   1      12.363   5.296  -4.686 -0.10 +0.00    +0.084    13.321
ATOM      9  C   UNL d   1      13.508   4.453  -4.117 -0.10 +0.00    +0.058    13.321
ATOM     10  C   UNL d   1      16.802   2.599  -1.812 -0.10 -0.00    +0.058    13.321
ATOM     11  C   UNL d   1      15.144   3.756  -0.762 -0.07 +0.00    +0.193    13.321
ATOM     12  C   UNL d   1      15.033   3.781  -2.255 +0.03 +0.01    +0.109    13.321
ATOM     13  C   UNL d   1      12.272   4.632  -6.031 -0.11 +0.00    +0.193    13.321
ATOM     14  C   UNL d   1      15.922   1.730   0.406 -0.16 -0.00    +0.026    13.321
ATOM     15  C   UNL d   1      13.955   4.589  -2.859 -0.12 +0.00    +0.055    13.321
ATOM     16  C   UNL d   1      12.778   6.757  -4.886 -0.04 +0.00    +0.026    13.321
ATOM     17  C   UNL d   1      13.313   3.562  -6.086 -0.15 +0.01    +0.109    13.321
ATOM     18  C   UNL d   1      17.952   1.939  -2.044 -0.11 -0.00    +0.050    13.321
ATOM     19  C   UNL d   1      18.483   1.634  -3.323 -0.11 -0.00    +0.045    13.321
ATOM     20  C   UNL d   1      14.500   1.921  -7.444 -0.23 +0.00    +0.045    13.321
ATOM     21  C   UNL d   1      13.432   2.708  -7.277 -0.26 +0.00    +0.057    13.321
ATOM     22  C   UNL d   1      15.906   0.379  -8.373 -0.33 -0.00    -0.019    13.321
ATOM     23  C   UNL d   1      16.516   0.891  -7.130 -0.28 -0.00    +0.045    13.321
ATOM     24  C   UNL d   1      14.713   0.993  -8.554 -0.29 -0.00    -0.022    13.321
ATOM     25  C   UNL d   1      18.364   0.998  -5.491 -0.19 -0.00    +0.049    13.321
ATOM     26  C   UNL d   1      19.786   1.497  -3.777 -0.08 +0.00    -0.018    13.321
ATOM     27  C   UNL d   1      19.705   1.114  -5.151 -0.13 +0.00    +0.003    13.321
ATOM     28  C   UNL d   1      17.713   0.511  -6.657 -0.29 -0.00    +0.052    13.321
ATOM     29  C   UNL d   1      13.735   0.821  -9.666 -0.22 +0.01    +0.046    13.321
ATOM     30  C   UNL d   1      21.031   1.710  -2.985 -0.03 +0.00    +0.046    13.321
ATOM     31  H   UNL d   1      15.748   2.398  -5.843 +0.03 -0.01    +0.166    13.321
ATOM     32  H   UNL d   1      16.631   1.367  -4.304 -0.38 -0.06    +0.166    13.321
ATOM     33  C   UNL d   1      17.346   3.824   0.403 -0.01 +0.00    +0.141    13.321
ATOM     34  C   UNL d   1      17.398   5.246  -0.088 +0.00 +0.00    +0.306    13.321
ATOM     35  O   UNL d   1      18.028   5.653  -1.049 +0.00 -0.00    -0.251    13.321
ATOM     36  O   UNL d   1      16.650   6.079   0.656 +0.00 -0.01    -0.481    13.321
ATOM     37  H   UNL d   1      15.766   5.654   0.691 +0.02 +0.01    +0.295    13.321
ATOM     38  C   UNL d   1      20.826   0.852  -6.002 -0.11 +0.00    +0.017    13.321
ATOM     39  C   UNL d   1      20.792   0.830  -7.344 -0.09 +0.01    +0.092    13.321
ATOM     40  C   UNL d   1      22.018   0.565  -8.101 -0.04 +0.02    +0.330    13.321
ATOM     41  O   UNL d   1      23.143   0.413  -7.664 -0.03 -0.01    -0.246    13.321
ATOM     42  O   UNL d   1      21.744   0.494  -9.413 -0.01 -0.02    -0.477    13.321
ATOM     43  H   UNL d   1      20.842   0.869  -9.485 +0.03 +0.01    +0.295    13.321
ATOM     44  C   UNL d   1      11.032   5.196  -3.934 -0.21 +0.00    +0.141    13.321
ATOM     45  C   UNL d   1      10.897   3.930  -3.130 -0.27 -0.01    +0.306    13.321
ATOM     46  O   UNL d   1      10.583   3.845  -1.956 -0.33 +0.02    -0.251    13.321
ATOM     47  O   UNL d   1      11.195   2.831  -3.847 -0.39 +0.03    -0.481    13.321
ATOM     48  H   UNL d   1      10.374   2.631  -4.345 -0.34 -0.17    +0.295    13.321
ATOM     49  C   UNL d   1      16.532  -0.664  -9.251 -0.28 -0.00    +0.048    13.321
ATOM     50  C   UNL d   1      17.262  -0.042 -10.441 -0.15 +0.00    +0.125    13.321
ATOM     51  C   UNL d   1      18.665   0.346 -10.067 -0.06 +0.01    +0.305    13.321
ATOM     52  O   UNL d   1      19.120   1.471  -9.957 -0.02 -0.01    -0.251    13.321
ATOM     53  O   UNL d   1      19.447  -0.732  -9.858 -0.06 -0.03    -0.481    13.321
ATOM     54  H   UNL d   1      20.210  -0.592 -10.457 +0.05 +0.02    +0.295    13.321
TER
ENDMDL
MODEL       68
USER    Run = 68
USER    Cluster Rank = 53
USER    Number of conformations in this cluster = 1
USER  
USER    RMSD from reference structure       = 20.006 A
USER  
USER    Estimated Free Energy of Binding    =   -3.01 kcal/mol  [=(1)+(2)+(3)-(4)]
USER    Estimated Inhibition Constant, Ki   =    6.23 mM (millimolar)  [Temperature = 298.15 K]
USER    
USER    (1) Final Intermolecular Energy     =   -6.89 kcal/mol
USER        vdW + Hbond + desolv Energy     =   -6.82 kcal/mol
USER        Electrostatic Energy            =   -0.07 kcal/mol
USER    (2) Final Total Internal Energy     =   -4.62 kcal/mol
USER    (3) Torsional Free Energy           =   +3.88 kcal/mol
USER    (4) Unbound System's Energy  [=(2)] =   -4.62 kcal/mol
USER    
USER    
USER  
USER    DPF = D:/Protein_go_brrr/autodock/final/mut_D99N/heme/dock.dpf
USER    NEWDPF move	heme_opt.pdbqt
USER    NEWDPF about	0.153000 0.018000 -0.028000
USER    NEWDPF tran0	-3.418175 15.754823 15.456579
USER    NEWDPF axisangle0	0.101063 0.790578 -0.603964 -124.347000
USER    NEWDPF quaternion0	0.089377 0.699160 -0.534124 -0.466796
USER    NEWDPF dihe0	160.60 167.69 179.23 -33.51 -142.71 32.43 153.47 -92.76 18.06 3.28 -94.14 -32.90 -17.09 
USER  
USER                              x       y       z    vdW   Elec        q     RMS 
ATOM      1  O   UNL d   1       1.072  18.012  18.538 -0.02 +0.03    -0.289    20.006
ATOM      2  O   UNL d   1      -5.864  16.055  20.650 -0.01 +0.05    -0.289    20.006
ATOM      3  N   UNL d   1      -1.295  16.841  16.320 -0.09 +0.03    -0.247    20.006
ATOM      4  N   UNL d   1      -3.556  16.062  18.083 +0.11 +0.02    -0.247    20.006
ATOM      5  N   UNL d   1      -4.699  14.665  15.845 -0.11 +0.07    -0.354    20.006
ATOM      6  N   UNL d   1      -2.339  15.461  14.028 -0.12 +0.08    -0.354    20.006
ATOM      7  C   UNL d   1       1.084  17.409  16.169 -0.07 -0.01    +0.084    20.006
ATOM      8  C   UNL d   1      -3.746  17.210  20.232 -0.03 -0.01    +0.084    20.006
ATOM      9  C   UNL d   1      -2.958  16.956  18.942 -0.07 -0.01    +0.058    20.006
ATOM     10  C   UNL d   1      -0.190  16.903  15.488 -0.11 -0.01    +0.058    20.006
ATOM     11  C   UNL d   1       0.500  17.640  17.530 -0.06 -0.03    +0.193    20.006
ATOM     12  C   UNL d   1      -0.954  17.283  17.487 -0.09 -0.01    +0.109    20.006
ATOM     13  C   UNL d   1      -4.883  16.265  19.963 -0.03 -0.03    +0.193    20.006
ATOM     14  C   UNL d   1       2.155  16.319  16.269 -0.10 -0.01    +0.026    20.006
ATOM     15  C   UNL d   1      -1.765  17.519  18.698 -0.08 -0.01    +0.055    20.006
ATOM     16  C   UNL d   1      -4.296  18.638  20.290 -0.01 -0.00    +0.026    20.006
ATOM     17  C   UNL d   1      -4.645  15.627  18.633 -0.05 -0.02    +0.109    20.006
ATOM     18  C   UNL d   1      -0.223  16.635  14.169 -0.13 -0.01    +0.050    20.006
ATOM     19  C   UNL d   1      -1.374  16.244  13.437 -0.15 -0.01    +0.045    20.006
ATOM     20  C   UNL d   1      -5.522  14.219  16.846 -0.24 -0.01    +0.045    20.006
ATOM     21  C   UNL d   1      -5.581  14.615  18.121 -0.19 -0.02    +0.057    20.006
ATOM     22  C   UNL d   1      -6.003  13.073  14.929 -0.36 +0.00    -0.019    20.006
ATOM     23  C   UNL d   1      -4.915  14.031  14.650 -0.30 -0.01    +0.045    20.006
ATOM     24  C   UNL d   1      -6.359  13.190  16.230 -0.33 +0.01    -0.022    20.006
ATOM     25  C   UNL d   1      -3.315  15.127  13.117 -0.13 -0.02    +0.049    20.006
ATOM     26  C   UNL d   1      -1.749  16.455  12.120 -0.17 +0.00    -0.018    20.006
ATOM     27  C   UNL d   1      -2.986  15.764  11.929 -0.19 -0.00    +0.003    20.006
ATOM     28  C   UNL d   1      -4.336  14.196  13.451 -0.14 -0.02    +0.052    20.006
ATOM     29  C   UNL d   1      -7.414  12.448  16.979 -0.28 -0.02    +0.046    20.006
ATOM     30  C   UNL d   1      -1.009  17.252  11.099 -0.17 -0.00    +0.046    20.006
ATOM     31  H   UNL d   1      -4.064  15.442  15.993 +0.04 -0.02    +0.166    20.006
ATOM     32  H   UNL d   1      -2.297  15.150  14.992 +0.05 -0.03    +0.166    20.006
ATOM     33  C   UNL d   1       1.659  18.712  15.603 -0.02 -0.01    +0.141    20.006
ATOM     34  C   UNL d   1       0.751  19.891  15.825 -0.00 -0.02    +0.306    20.006
ATOM     35  O   UNL d   1      -0.143  20.261  15.083 -0.00 +0.01    -0.251    20.006
ATOM     36  O   UNL d   1       1.015  20.540  16.972 +0.00 +0.03    -0.481    20.006
ATOM     37  H   UNL d   1       1.482  19.880  17.527 +0.01 -0.02    +0.295    20.006
ATOM     38  C   UNL d   1      -3.719  15.708  10.700 -0.32 -0.00    +0.017    20.006
ATOM     39  C   UNL d   1      -4.914  15.120  10.537 -0.31 -0.02    +0.092    20.006
ATOM     40  C   UNL d   1      -5.569  15.148   9.227 -0.24 -0.02    +0.330    20.006
ATOM     41  O   UNL d   1      -5.040  15.175   8.132 -0.51 -0.01    -0.246    20.006
ATOM     42  O   UNL d   1      -6.902  15.132   9.377 -0.13 +0.07    -0.477    20.006
ATOM     43  H   UNL d   1      -7.029  14.902  10.320 +0.15 -0.06    +0.295    20.006
ATOM     44  C   UNL d   1      -3.022  16.841  21.531 -0.03 -0.02    +0.141    20.006
ATOM     45  C   UNL d   1      -2.363  15.488  21.481 -0.05 -0.05    +0.306    20.006
ATOM     46  O   UNL d   1      -1.165  15.264  21.439 -0.13 +0.04    -0.251    20.006
ATOM     47  O   UNL d   1      -3.255  14.481  21.457 -0.56 +0.11    -0.481    20.006
ATOM     48  H   UNL d   1      -4.129  14.923  21.507 +0.05 -0.08    +0.295    20.006
ATOM     49  C   UNL d   1      -6.578  12.131  13.912 -0.43 -0.01    +0.048    20.006
ATOM     50  C   UNL d   1      -7.902  12.645  13.345 -0.33 -0.03    +0.125    20.006
ATOM     51  C   UNL d   1      -7.666  13.562  12.179 -0.19 -0.07    +0.305    20.006
ATOM     52  O   UNL d   1      -7.663  14.781  12.181 -0.09 +0.06    -0.251    20.006
ATOM     53  O   UNL d   1      -7.452  12.880  11.036 -0.21 +0.13    -0.481    20.006
ATOM     54  H   UNL d   1      -7.853  13.445  10.343 +0.15 -0.09    +0.295    20.006
TER
ENDMDL
MODEL       32
USER    Run = 32
USER    Cluster Rank = 54
USER    Number of conformations in this cluster = 1
USER  
USER    RMSD from reference structure       = 10.289 A
USER  
USER    Estimated Free Energy of Binding    =   -3.00 kcal/mol  [=(1)+(2)+(3)-(4)]
USER    Estimated Inhibition Constant, Ki   =    6.28 mM (millimolar)  [Temperature = 298.15 K]
USER    
USER    (1) Final Intermolecular Energy     =   -6.88 kcal/mol
USER        vdW + Hbond + desolv Energy     =   -6.40 kcal/mol
USER        Electrostatic Energy            =   -0.49 kcal/mol
USER    (2) Final Total Internal Energy     =   -4.35 kcal/mol
USER    (3) Torsional Free Energy           =   +3.88 kcal/mol
USER    (4) Unbound System's Energy  [=(2)] =   -4.35 kcal/mol
USER    
USER    
USER  
USER    DPF = D:/Protein_go_brrr/autodock/final/mut_D99N/heme/dock.dpf
USER    NEWDPF move	heme_opt.pdbqt
USER    NEWDPF about	0.153000 0.018000 -0.028000
USER    NEWDPF tran0	-11.599922 -6.392362 4.055096
USER    NEWDPF axisangle0	-0.545032 0.674439 -0.498069 79.859014
USER    NEWDPF quaternion0	-0.349826 0.432885 -0.319683 0.766835
USER    NEWDPF dihe0	140.57 -179.21 177.85 24.71 -139.40 -68.34 141.83 -168.71 11.65 -16.40 70.11 -19.96 124.03 
USER  
USER                              x       y       z    vdW   Elec        q     RMS 
ATOM      1  O   UNL d   1     -15.586  -7.041  -0.240 -0.00 -0.03    -0.289    10.289
ATOM      2  O   UNL d   1      -8.179  -8.276  -0.163 -0.16 +0.23    -0.289    10.289
ATOM      3  N   UNL d   1     -13.611  -6.380   2.509 -0.06 -0.14    -0.247    10.289
ATOM      4  N   UNL d   1     -10.955  -7.449   1.714 -0.08 -0.03    -0.247    10.289
ATOM      5  N   UNL d   1     -10.145  -7.227   4.464 -0.08 -0.11    -0.354    10.289
ATOM      6  N   UNL d   1     -12.910  -6.137   5.284 -0.08 -0.24    -0.354    10.289
ATOM      7  C   UNL d   1     -16.020  -6.335   2.060 -0.01 +0.03    +0.084    10.289
ATOM      8  C   UNL d   1     -10.460  -7.551  -0.676 -0.15 -0.03    +0.084    10.289
ATOM      9  C   UNL d   1     -11.463  -7.270   0.447 -0.09 +0.00    +0.058    10.289
ATOM     10  C   UNL d   1     -14.864  -6.138   3.046 -0.06 +0.03    +0.058    10.289
ATOM     11  C   UNL d   1     -15.196  -6.714   0.866 -0.01 +0.04    +0.193    10.289
ATOM     12  C   UNL d   1     -13.751  -6.680   1.259 -0.05 +0.03    +0.109    10.289
ATOM     13  C   UNL d   1      -9.300  -7.958   0.187 -0.20 -0.09    +0.193    10.289
ATOM     14  C   UNL d   1     -16.908  -7.521   2.445 -0.00 +0.00    +0.026    10.289
ATOM     15  C   UNL d   1     -12.740  -6.930   0.213 -0.07 +0.01    +0.055    10.289
ATOM     16  C   UNL d   1     -10.085  -6.274  -1.435 -0.25 -0.01    +0.026    10.289
ATOM     17  C   UNL d   1      -9.732  -7.861   1.614 -0.19 -0.01    +0.109    10.289
ATOM     18  C   UNL d   1     -15.075  -5.680   4.294 -0.08 +0.03    +0.050    10.289
ATOM     19  C   UNL d   1     -14.064  -5.387   5.244 -0.07 +0.04    +0.045    10.289
ATOM     20  C   UNL d   1      -9.084  -7.935   3.963 -0.25 +0.01    +0.045    10.289
ATOM     21  C   UNL d   1      -8.808  -8.244   2.692 -0.31 -0.00    +0.057    10.289
ATOM     22  C   UNL d   1      -8.880  -7.808   6.235 -0.30 -0.00    -0.019    10.289
ATOM     23  C   UNL d   1     -10.109  -7.098   5.827 -0.18 +0.01    +0.045    10.289
ATOM     24  C   UNL d   1      -8.277  -8.300   5.127 -0.32 -0.00    -0.022    10.289
ATOM     25  C   UNL d   1     -12.113  -5.742   6.333 -0.11 +0.03    +0.049    10.289
ATOM     26  C   UNL d   1     -13.999  -4.459   6.272 -0.07 -0.02    -0.018    10.289
ATOM     27  C   UNL d   1     -12.757  -4.674   6.944 -0.13 +0.00    +0.003    10.289
ATOM     28  C   UNL d   1     -10.941  -6.471   6.673 -0.20 +0.02    +0.052    10.289
ATOM     29  C   UNL d   1      -7.008  -9.076   5.022 -0.38 +0.01    +0.046    10.289
ATOM     30  C   UNL d   1     -15.026  -3.431   6.609 -0.06 +0.04    +0.046    10.289
ATOM     31  H   UNL d   1     -10.823  -6.790   3.850 +0.03 +0.07    +0.166    10.289
ATOM     32  H   UNL d   1     -12.713  -6.897   4.643 +0.02 +0.08    +0.166    10.289
ATOM     33  C   UNL d   1     -16.852  -5.082   1.764 -0.01 +0.05    +0.141    10.289
ATOM     34  C   UNL d   1     -16.029  -3.964   1.184 -0.04 +0.16    +0.306    10.289
ATOM     35  O   UNL d   1     -15.385  -3.142   1.814 -0.58 -0.29    -0.251    10.289
ATOM     36  O   UNL d   1     -16.057  -3.942  -0.160 +0.00 -0.15    -0.481    10.289
ATOM     37  H   UNL d   1     -15.980  -4.884  -0.424 +0.04 +0.07    +0.295    10.289
ATOM     38  C   UNL d   1     -12.295  -3.937   8.081 -0.15 +0.01    +0.017    10.289
ATOM     39  C   UNL d   1     -11.027  -3.906   8.521 -0.25 +0.03    +0.092    10.289
ATOM     40  C   UNL d   1     -10.681  -3.095   9.691 -0.13 +0.09    +0.330    10.289
ATOM     41  O   UNL d   1     -10.643  -1.882   9.770 -0.24 -0.07    -0.246    10.289
ATOM     42  O   UNL d   1     -10.400  -3.889  10.736 +0.04 -0.12    -0.477    10.289
ATOM     43  H   UNL d   1     -10.506  -4.794  10.378 +0.10 +0.07    +0.295    10.289
ATOM     44  C   UNL d   1     -10.848  -8.675  -1.642 -0.06 -0.11    +0.141    10.289
ATOM     45  C   UNL d   1     -10.881 -10.032  -0.991 -0.05 -0.21    +0.306    10.289
ATOM     46  O   UNL d   1     -11.866 -10.612  -0.567 -0.02 +0.08    -0.251    10.289
ATOM     47  O   UNL d   1      -9.657 -10.581  -0.882 -0.03 +0.58    -0.481    10.289
ATOM     48  H   UNL d   1      -9.058  -9.939  -1.319 -0.49 -0.74    +0.295    10.289
ATOM     49  C   UNL d   1      -8.421  -7.950   7.656 -0.24 +0.02    +0.048    10.289
ATOM     50  C   UNL d   1      -9.587  -8.233   8.604 -0.14 +0.04    +0.125    10.289
ATOM     51  C   UNL d   1      -9.871  -7.042   9.475 -0.10 +0.07    +0.305    10.289
ATOM     52  O   UNL d   1     -10.672  -6.964  10.389 -0.05 -0.05    -0.251    10.289
ATOM     53  O   UNL d   1      -9.119  -5.976   9.133 -0.12 -0.08    -0.481    10.289
ATOM     54  H   UNL d   1      -9.080  -5.440   9.952 +0.09 +0.06    +0.295    10.289
TER
ENDMDL
MODEL       62
USER    Run = 62
USER    Cluster Rank = 55
USER    Number of conformations in this cluster = 2
USER  
USER    RMSD from reference structure       = 16.618 A
USER  
USER    Estimated Free Energy of Binding    =   -2.97 kcal/mol  [=(1)+(2)+(3)-(4)]
USER    Estimated Inhibition Constant, Ki   =    6.69 mM (millimolar)  [Temperature = 298.15 K]
USER    
USER    (1) Final Intermolecular Energy     =   -6.84 kcal/mol
USER        vdW + Hbond + desolv Energy     =   -6.79 kcal/mol
USER        Electrostatic Energy            =   -0.06 kcal/mol
USER    (2) Final Total Internal Energy     =   -3.98 kcal/mol
USER    (3) Torsional Free Energy           =   +3.88 kcal/mol
USER    (4) Unbound System's Energy  [=(2)] =   -3.98 kcal/mol
USER    
USER    
USER  
USER    DPF = D:/Protein_go_brrr/autodock/final/mut_D99N/heme/dock.dpf
USER    NEWDPF move	heme_opt.pdbqt
USER    NEWDPF about	0.153000 0.018000 -0.028000
USER    NEWDPF tran0	0.903690 17.202651 8.909159
USER    NEWDPF axisangle0	-0.042651 0.498759 0.865690 -178.104438
USER    NEWDPF quaternion0	-0.042645 0.498691 0.865572 -0.016541
USER    NEWDPF dihe0	28.29 -179.87 -107.91 -43.67 -153.31 72.68 173.64 -127.59 -11.81 21.04 -90.98 -72.17 -9.33 
USER  
USER                              x       y       z    vdW   Elec        q     RMS 
ATOM      1  O   UNL d   1       6.334  16.993  11.195 -0.01 +0.01    -0.289    16.618
ATOM      2  O   UNL d   1       3.985  18.307   4.185 -0.11 -0.01    -0.289    16.618
ATOM      3  N   UNL d   1       3.009  16.879  10.287 +0.08 -0.00    -0.247    16.618
ATOM      4  N   UNL d   1       3.038  17.813   7.466 +0.02 -0.02    -0.247    16.618
ATOM      5  N   UNL d   1       0.184  18.116   7.633 -0.16 -0.04    -0.354    16.618
ATOM      6  N   UNL d   1       0.165  17.165  10.565 -0.01 -0.00    -0.354    16.618
ATOM      7  C   UNL d   1       4.228  16.723  12.407 -0.05 -0.00    +0.084    16.618
ATOM      8  C   UNL d   1       5.099  17.473   6.198 -0.17 -0.00    +0.084    16.618
ATOM      9  C   UNL d   1       4.349  17.395   7.531 -0.13 +0.00    +0.058    16.618
ATOM     10  C   UNL d   1       2.892  16.726  11.658 -0.10 -0.00    +0.058    16.618
ATOM     11  C   UNL d   1       5.122  16.882  11.214 -0.04 -0.01    +0.193    16.618
ATOM     12  C   UNL d   1       4.265  16.939   9.987 -0.07 -0.00    +0.109    16.618
ATOM     13  C   UNL d   1       3.983  18.047   5.372 -0.13 +0.01    +0.193    16.618
ATOM     14  C   UNL d   1       4.384  17.950  13.310 -0.02 -0.00    +0.026    16.618
ATOM     15  C   UNL d   1       4.936  17.002   8.673 -0.14 -0.00    +0.055    16.618
ATOM     16  C   UNL d   1       5.445  16.081   5.658 -0.35 -0.00    +0.026    16.618
ATOM     17  C   UNL d   1       2.793  18.213   6.260 -0.20 +0.01    +0.109    16.618
ATOM     18  C   UNL d   1       1.728  16.506  12.297 -0.13 -0.00    +0.050    16.618
ATOM     19  C   UNL d   1       0.456  16.408  11.678 -0.12 -0.00    +0.045    16.618
ATOM     20  C   UNL d   1       0.416  18.730   6.430 -0.27 +0.01    +0.045    16.618
ATOM     21  C   UNL d   1       1.553  18.800   5.730 -0.26 +0.01    +0.057    16.618
ATOM     22  C   UNL d   1      -1.775  19.031   7.002 -0.18 -0.00    -0.019    16.618
ATOM     23  C   UNL d   1      -1.111  18.244   8.060 -0.25 +0.00    +0.045    16.618
ATOM     24  C   UNL d   1      -0.866  19.315   6.039 -0.20 -0.00    -0.022    16.618
ATOM     25  C   UNL d   1      -1.145  16.982  10.186 -0.18 -0.00    +0.049    16.618
ATOM     26  C   UNL d   1      -0.682  15.688  12.008 -0.24 +0.00    -0.018    16.618
ATOM     27  C   UNL d   1      -1.683  16.039  11.051 -0.28 -0.00    +0.003    16.618
ATOM     28  C   UNL d   1      -1.724  17.775   9.158 -0.25 +0.00    +0.052    16.618
ATOM     29  C   UNL d   1      -1.058  20.073   4.770 -0.15 +0.01    +0.046    16.618
ATOM     30  C   UNL d   1      -0.831  14.729  13.140 -0.35 -0.01    +0.046    16.618
ATOM     31  H   UNL d   1       0.903  17.564   8.089 +0.07 +0.02    +0.166    16.618
ATOM     32  H   UNL d   1       0.826  17.795  10.127 +0.03 +0.00    +0.166    16.618
ATOM     33  C   UNL d   1       4.558  15.428  13.157 -0.08 -0.01    +0.141    16.618
ATOM     34  C   UNL d   1       4.082  14.200  12.429 -0.13 -0.03    +0.306    16.618
ATOM     35  O   UNL d   1       3.060  13.576  12.660 -0.20 +0.03    -0.251    16.618
ATOM     36  O   UNL d   1       4.917  13.824  11.444 -0.09 +0.09    -0.481    16.618
ATOM     37  H   UNL d   1       4.349  13.337  10.810 -0.38 -0.12    +0.295    16.618
ATOM     38  C   UNL d   1      -3.022  15.533  11.034 -0.26 -0.00    +0.017    16.618
ATOM     39  C   UNL d   1      -4.110  16.231  10.673 -0.22 -0.01    +0.092    16.618
ATOM     40  C   UNL d   1      -5.427  15.588  10.683 -0.14 -0.05    +0.330    16.618
ATOM     41  O   UNL d   1      -6.081  15.248  11.650 -0.11 +0.05    -0.246    16.618
ATOM     42  O   UNL d   1      -5.864  15.411   9.426 -0.14 +0.04    -0.477    16.618
ATOM     43  H   UNL d   1      -5.143  15.779   8.874 +0.15 -0.01    +0.295    16.618
ATOM     44  C   UNL d   1       6.324  18.393   6.182 -0.05 -0.00    +0.141    16.618
ATOM     45  C   UNL d   1       6.220  19.537   7.155 -0.01 -0.00    +0.306    16.618
ATOM     46  O   UNL d   1       7.055  19.870   7.978 -0.00 +0.00    -0.251    16.618
ATOM     47  O   UNL d   1       5.048  20.191   7.058 +0.00 -0.00    -0.481    16.618
ATOM     48  H   UNL d   1       4.386  19.569   7.428 +0.04 +0.00    +0.295    16.618
ATOM     49  C   UNL d   1      -3.218  19.441   7.037 -0.12 +0.00    +0.048    16.618
ATOM     50  C   UNL d   1      -4.114  18.431   6.321 -0.20 +0.02    +0.125    16.618
ATOM     51  C   UNL d   1      -4.596  17.373   7.273 -0.20 +0.04    +0.305    16.618
ATOM     52  O   UNL d   1      -4.614  16.167   7.096 -0.39 -0.03    -0.251    16.618
ATOM     53  O   UNL d   1      -5.054  17.901   8.425 -0.01 -0.01    -0.481    16.618
ATOM     54  H   UNL d   1      -5.885  17.410   8.598 +0.10 -0.00    +0.295    16.618
TER
ENDMDL
MODEL       16
USER    Run = 16
USER    Cluster Rank = 56
USER    Number of conformations in this cluster = 1
USER  
USER    RMSD from reference structure       = 14.772 A
USER  
USER    Estimated Free Energy of Binding    =   -2.75 kcal/mol  [=(1)+(2)+(3)-(4)]
USER    Estimated Inhibition Constant, Ki   =    9.67 mM (millimolar)  [Temperature = 298.15 K]
USER    
USER    (1) Final Intermolecular Energy     =   -6.63 kcal/mol
USER        vdW + Hbond + desolv Energy     =   -6.51 kcal/mol
USER        Electrostatic Energy            =   -0.11 kcal/mol
USER    (2) Final Total Internal Energy     =   -4.15 kcal/mol
USER    (3) Torsional Free Energy           =   +3.88 kcal/mol
USER    (4) Unbound System's Energy  [=(2)] =   -4.15 kcal/mol
USER    
USER    
USER  
USER    DPF = D:/Protein_go_brrr/autodock/final/mut_D99N/heme/dock.dpf
USER    NEWDPF move	heme_opt.pdbqt
USER    NEWDPF about	0.153000 0.018000 -0.028000
USER    NEWDPF tran0	0.662631 17.925055 1.550442
USER    NEWDPF axisangle0	-0.533976 -0.673464 -0.511191 -143.940494
USER    NEWDPF quaternion0	-0.507755 -0.640394 -0.486090 -0.309511
USER    NEWDPF dihe0	-169.16 134.83 40.74 55.44 -159.61 95.72 83.65 67.66 7.90 -13.52 -84.11 -101.10 4.82 
USER  
USER                              x       y       z    vdW   Elec        q     RMS 
ATOM      1  O   UNL d   1       3.975  16.591  -3.141 -0.02 +0.01    -0.289    14.772
ATOM      2  O   UNL d   1      -3.323  15.460  -1.778 -0.25 -0.13    -0.289    14.772
ATOM      3  N   UNL d   1       2.481  17.434  -0.148 -0.15 -0.01    -0.247    14.772
ATOM      4  N   UNL d   1      -0.400  16.910  -0.652 -0.17 -0.02    -0.247    14.772
ATOM      5  N   UNL d   1      -0.992  18.375   1.750 -0.13 -0.07    -0.354    14.772
ATOM      6  N   UNL d   1       1.998  18.931   2.254 -0.11 -0.03    -0.354    14.772
ATOM      7  C   UNL d   1       4.705  17.764  -1.124 -0.07 +0.00    +0.084    14.772
ATOM      8  C   UNL d   1      -0.953  15.242  -2.351 -0.29 +0.01    +0.084    14.772
ATOM      9  C   UNL d   1       0.107  16.077  -1.625 -0.24 +0.00    +0.058    14.772
ATOM     10  C   UNL d   1       3.742  17.970   0.049 -0.14 +0.00    +0.058    14.772
ATOM     11  C   UNL d   1       3.770  16.999  -2.012 -0.06 +0.00    +0.193    14.772
ATOM     12  C   UNL d   1       2.463  16.842  -1.298 -0.15 +0.00    +0.109    14.772
ATOM     13  C   UNL d   1      -2.159  15.783  -1.637 -0.21 +0.04    +0.193    14.772
ATOM     14  C   UNL d   1       5.069  19.084  -1.808 -0.02 +0.00    +0.026    14.772
ATOM     15  C   UNL d   1       1.409  16.036  -1.946 -0.25 -0.00    +0.055    14.772
ATOM     16  C   UNL d   1      -0.818  13.751  -2.031 -0.50 -0.00    +0.026    14.772
ATOM     17  C   UNL d   1      -1.689  16.790  -0.638 -0.18 +0.02    +0.109    14.772
ATOM     18  C   UNL d   1       4.145  18.548   1.196 -0.15 +0.00    +0.050    14.772
ATOM     19  C   UNL d   1       3.352  18.705   2.361 -0.11 +0.00    +0.045    14.772
ATOM     20  C   UNL d   1      -2.257  18.237   1.241 -0.21 +0.01    +0.045    14.772
ATOM     21  C   UNL d   1      -2.662  17.522   0.186 -0.25 +0.02    +0.057    14.772
ATOM     22  C   UNL d   1      -2.340  19.614   3.061 -0.15 -0.00    -0.019    14.772
ATOM     23  C   UNL d   1      -0.942  19.189   2.850 -0.20 +0.01    +0.045    14.772
ATOM     24  C   UNL d   1      -3.114  19.046   2.106 -0.18 -0.01    -0.022    14.772
ATOM     25  C   UNL d   1       1.444  19.143   3.495 -0.17 +0.00    +0.049    14.772
ATOM     26  C   UNL d   1       3.679  18.734   3.708 -0.11 -0.00    -0.018    14.772
ATOM     27  C   UNL d   1       2.467  18.992   4.421 -0.14 +0.00    +0.003    14.772
ATOM     28  C   UNL d   1       0.089  19.551   3.629 -0.21 +0.01    +0.052    14.772
ATOM     29  C   UNL d   1      -4.587  19.162   1.907 -0.11 +0.03    +0.046    14.772
ATOM     30  C   UNL d   1       5.033  18.534   4.300 -0.14 +0.00    +0.046    14.772
ATOM     31  H   UNL d   1      -0.212  17.848   1.372 +0.03 +0.02    +0.166    14.772
ATOM     32  H   UNL d   1       1.505  18.973   1.370 +0.03 +0.01    +0.166    14.772
ATOM     33  C   UNL d   1       5.952  16.930  -0.811 -0.07 +0.00    +0.141    14.772
ATOM     34  C   UNL d   1       5.617  15.576  -0.245 -0.13 +0.02    +0.306    14.772
ATOM     35  O   UNL d   1       5.733  15.233   0.919 -0.20 -0.01    -0.251    14.772
ATOM     36  O   UNL d   1       5.151  14.726  -1.177 -0.08 -0.03    -0.481    14.772
ATOM     37  H   UNL d   1       5.284  15.196  -2.028 +0.09 +0.01    +0.295    14.772
ATOM     38  C   UNL d   1       2.357  19.118   5.843 -0.21 +0.00    +0.017    14.772
ATOM     39  C   UNL d   1       1.996  20.233   6.495 -0.08 +0.00    +0.092    14.772
ATOM     40  C   UNL d   1       1.904  20.226   7.958 -0.03 +0.01    +0.330    14.772
ATOM     41  O   UNL d   1       2.762  20.546   8.758 -0.02 -0.00    -0.246    14.772
ATOM     42  O   UNL d   1       0.688  19.809   8.342 -0.01 -0.02    -0.477    14.772
ATOM     43  H   UNL d   1       0.075  20.301   7.757 +0.05 +0.01    +0.295    14.772
ATOM     44  C   UNL d   1      -1.058  15.478  -3.861 -0.20 +0.01    +0.141    14.772
ATOM     45  C   UNL d   1      -1.475  16.881  -4.216 -0.06 +0.03    +0.306    14.772
ATOM     46  O   UNL d   1      -1.112  17.907  -3.669 -0.03 -0.02    -0.251    14.772
ATOM     47  O   UNL d   1      -2.356  16.914  -5.233 -0.26 -0.10    -0.481    14.772
ATOM     48  H   UNL d   1      -2.080  17.683  -5.775 +0.04 +0.03    +0.295    14.772
ATOM     49  C   UNL d   1      -2.784  20.538   4.157 -0.08 +0.01    +0.048    14.772
ATOM     50  C   UNL d   1      -2.894  19.817   5.500 -0.11 +0.02    +0.125    14.772
ATOM     51  C   UNL d   1      -1.650  20.015   6.319 -0.06 +0.03    +0.305    14.772
ATOM     52  O   UNL d   1      -1.191  21.066   6.731 -0.02 -0.01    -0.251    14.772
ATOM     53  O   UNL d   1      -1.022  18.850   6.573 -0.09 -0.06    -0.481    14.772
ATOM     54  H   UNL d   1      -0.943  18.829   7.549 +0.09 +0.02    +0.295    14.772
TER
ENDMDL
MODEL       21
USER    Run = 21
USER    Cluster Rank = 57
USER    Number of conformations in this cluster = 1
USER  
USER    RMSD from reference structure       = 17.368 A
USER  
USER    Estimated Free Energy of Binding    =   -2.69 kcal/mol  [=(1)+(2)+(3)-(4)]
USER    Estimated Inhibition Constant, Ki   =   10.67 mM (millimolar)  [Temperature = 298.15 K]
USER    
USER    (1) Final Intermolecular Energy     =   -6.57 kcal/mol
USER        vdW + Hbond + desolv Energy     =   -6.47 kcal/mol
USER        Electrostatic Energy            =   -0.10 kcal/mol
USER    (2) Final Total Internal Energy     =   -4.39 kcal/mol
USER    (3) Torsional Free Energy           =   +3.88 kcal/mol
USER    (4) Unbound System's Energy  [=(2)] =   -4.39 kcal/mol
USER    
USER    
USER  
USER    DPF = D:/Protein_go_brrr/autodock/final/mut_D99N/heme/dock.dpf
USER    NEWDPF move	heme_opt.pdbqt
USER    NEWDPF about	0.153000 0.018000 -0.028000
USER    NEWDPF tran0	-0.356248 17.894135 9.409528
USER    NEWDPF axisangle0	-0.042656 0.834196 -0.549817 -170.607790
USER    NEWDPF quaternion0	-0.042513 0.831395 -0.547971 -0.081871
USER    NEWDPF dihe0	-116.87 132.05 -84.83 67.23 37.69 124.54 155.91 59.57 139.25 -93.60 -85.46 -123.94 11.52 
USER  
USER                              x       y       z    vdW   Elec        q     RMS 
ATOM      1  O   UNL d   1       5.310  18.877   8.111 -0.02 +0.00    -0.289    17.368
ATOM      2  O   UNL d   1       1.875  17.830  14.706 -0.01 +0.03    -0.289    17.368
ATOM      3  N   UNL d   1       1.897  18.465   8.395 -0.06 -0.02    -0.247    17.368
ATOM      4  N   UNL d   1       1.524  17.827  11.273 -0.06 +0.00    -0.247    17.368
ATOM      5  N   UNL d   1      -1.155  16.991  10.645 -0.09 +0.02    -0.354    17.368
ATOM      6  N   UNL d   1      -0.752  17.637   7.658 -0.18 -0.04    -0.354    17.368
ATOM      7  C   UNL d   1       3.468  18.639   6.522 -0.15 +0.00    +0.084    17.368
ATOM      8  C   UNL d   1       3.212  18.659  12.831 -0.02 -0.00    +0.084    17.368
ATOM      9  C   UNL d   1       2.736  18.470  11.387 -0.05 -0.00    +0.058    17.368
ATOM     10  C   UNL d   1       2.029  18.462   7.017 -0.18 +0.00    +0.058    17.368
ATOM     11  C   UNL d   1       4.123  18.761   7.865 -0.07 +0.00    +0.193    17.368
ATOM     12  C   UNL d   1       3.063  18.666   8.918 -0.08 +0.00    +0.109    17.368
ATOM     13  C   UNL d   1       2.064  17.970  13.514 -0.01 -0.01    +0.193    17.368
ATOM     14  C   UNL d   1       3.995  17.382   5.826 -0.28 +0.00    +0.026    17.368
ATOM     15  C   UNL d   1       3.464  18.853  10.327 -0.06 -0.00    +0.055    17.368
ATOM     16  C   UNL d   1       3.215  20.135  13.240 -0.01 -0.00    +0.026    17.368
ATOM     17  C   UNL d   1       1.114  17.506  12.458 -0.06 -0.01    +0.109    17.368
ATOM     18  C   UNL d   1       0.993  18.403   6.160 -0.33 +0.01    +0.050    17.368
ATOM     19  C   UNL d   1      -0.375  18.325   6.527 -0.30 +0.01    +0.045    17.368
ATOM     20  C   UNL d   1      -1.067  16.547  11.939 -0.16 -0.01    +0.045    17.368
ATOM     21  C   UNL d   1      -0.093  16.754  12.831 -0.12 -0.01    +0.057    17.368
ATOM     22  C   UNL d   1      -3.024  15.796  11.032 -0.26 +0.00    -0.019    17.368
ATOM     23  C   UNL d   1      -2.302  16.587  10.016 -0.27 -0.00    +0.045    17.368
ATOM     24  C   UNL d   1      -2.289  15.777  12.169 -0.20 +0.01    -0.022    17.368
ATOM     25  C   UNL d   1      -2.123  17.612   7.773 -0.21 +0.00    +0.049    17.368
ATOM     26  C   UNL d   1      -1.527  18.790   5.911 -0.14 -0.00    -0.018    17.368
ATOM     27  C   UNL d   1      -2.626  18.353   6.713 -0.19 +0.00    +0.003    17.368
ATOM     28  C   UNL d   1      -2.755  16.828   8.776 -0.29 -0.00    +0.052    17.368
ATOM     29  C   UNL d   1      -2.600  15.122  13.471 -0.26 -0.02    +0.046    17.368
ATOM     30  C   UNL d   1      -1.604  19.592   4.657 -0.18 +0.01    +0.046    17.368
ATOM     31  H   UNL d   1      -0.460  17.619  10.256 +0.04 +0.00    +0.166    17.368
ATOM     32  H   UNL d   1      -0.096  17.184   8.283 +0.05 +0.02    +0.166    17.368
ATOM     33  C   UNL d   1       3.724  19.895   5.682 -0.07 +0.00    +0.141    17.368
ATOM     34  C   UNL d   1       5.107  19.925   5.091 -0.02 +0.00    +0.306    17.368
ATOM     35  O   UNL d   1       5.431  19.501   3.995 -0.03 -0.00    -0.251    17.368
ATOM     36  O   UNL d   1       6.010  20.490   5.912 +0.00 -0.00    -0.481    17.368
ATOM     37  H   UNL d   1       6.001  19.926   6.715 +0.02 +0.00    +0.295    17.368
ATOM     38  C   UNL d   1      -4.006  18.605   6.428 -0.21 +0.00    +0.017    17.368
ATOM     39  C   UNL d   1      -4.818  17.786   5.742 -0.29 +0.03    +0.092    17.368
ATOM     40  C   UNL d   1      -6.221  18.154   5.533 -0.12 +0.12    +0.330    17.368
ATOM     41  O   UNL d   1      -6.807  18.279   4.475 -0.73 -0.17    -0.246    17.368
ATOM     42  O   UNL d   1      -6.829  18.340   6.715 -0.04 -0.06    -0.477    17.368
ATOM     43  H   UNL d   1      -6.575  17.552   7.237 +0.11 +0.03    +0.295    17.368
ATOM     44  C   UNL d   1       4.543  17.984  13.181 -0.01 -0.01    +0.141    17.368
ATOM     45  C   UNL d   1       4.575  17.421  14.577 -0.01 -0.02    +0.306    17.368
ATOM     46  O   UNL d   1       4.611  16.243  14.885 -0.03 +0.02    -0.251    17.368
ATOM     47  O   UNL d   1       4.532  18.380  15.520 +0.00 +0.03    -0.481    17.368
ATOM     48  H   UNL d   1       3.581  18.461  15.748 +0.01 -0.02    +0.295    17.368
ATOM     49  C   UNL d   1      -4.346  15.127  10.796 -0.29 -0.01    +0.048    17.368
ATOM     50  C   UNL d   1      -5.489  16.139  10.708 -0.16 -0.02    +0.125    17.368
ATOM     51  C   UNL d   1      -5.779  16.497   9.278 -0.15 -0.02    +0.305    17.368
ATOM     52  O   UNL d   1      -6.015  15.737   8.355 -0.28 -0.00    -0.251    17.368
ATOM     53  O   UNL d   1      -5.745  17.829   9.075 +0.01 +0.02    -0.481    17.368
ATOM     54  H   UNL d   1      -6.673  18.061   8.863 +0.07 -0.02    +0.295    17.368
TER
ENDMDL


AVSFLD: # AVS field file
AVSFLD: #
AVSFLD: # Created by AutoDock
AVSFLD: #
AVSFLD: ndim=2           # number of dimensions in the field
AVSFLD: nspace=1         # number of physical coordinates
AVSFLD: veclen=7         # vector size
AVSFLD: dim1=54          # atoms
AVSFLD: dim2=57          # conformations
AVSFLD: data=Real       # data type (byte,integer,Real,double)
AVSFLD: field=uniform    # field coordinate layout
AVSFLD: label= x y z vdW Elec q RMS
AVSFLD: variable 1 file = D:/Protein_go_brrr/autodock/final/mut_D99N/heme/dock.dlg.pdb filetype = ascii offset = 5 stride = 12
AVSFLD: variable 2 file = D:/Protein_go_brrr/autodock/final/mut_D99N/heme/dock.dlg.pdb filetype = ascii offset = 6 stride = 12
AVSFLD: variable 3 file = D:/Protein_go_brrr/autodock/final/mut_D99N/heme/dock.dlg.pdb filetype = ascii offset = 7 stride = 12
AVSFLD: variable 4 file = D:/Protein_go_brrr/autodock/final/mut_D99N/heme/dock.dlg.pdb filetype = ascii offset = 8 stride = 12
AVSFLD: variable 5 file = D:/Protein_go_brrr/autodock/final/mut_D99N/heme/dock.dlg.pdb filetype = ascii offset = 9 stride = 12
AVSFLD: variable 6 file = D:/Protein_go_brrr/autodock/final/mut_D99N/heme/dock.dlg.pdb filetype = ascii offset = 10 stride = 12
AVSFLD: variable 7 file = D:/Protein_go_brrr/autodock/final/mut_D99N/heme/dock.dlg.pdb filetype = ascii offset = 11 stride = 12
AVSFLD: # end of file

>>> Closing the docking parameter file (DPF)...
This docking finished at:			10:31 44" a.m., 10/03/2025


________________________________________________________________________________

D:/autodockScripts/autodock4.exe: Successful Completion on "ACER"

Real= 16h 59m 55.35s,  CPU= 5m 54.50s,  System= 1m 34.75s
________________________________________________________________________________

