          AutoDock 4.2 Release 4.2.6   
         (C) 1989-2012 The Scripps Research Institute
        AutoDock comes with ABSOLUTELY NO WARRANTY.
        AutoDock is free software, and you are welcome
        to redistribute it under certain conditions;
        for details type 'autodock4 -C'

                     main.cc  $Revision: 1.213 $

                   Compiled on Jul 18 2014 at 15:34:58


This file was created at:			3:08 50" p.m., 10/17/2025
                   on host:		"ACER"
Current Working Directory = "D:\Protein_go_brrr\autodock\final\mut_K82N\heme_O2"

      ________________________________________________________________

                   SETTING UP DEFAULT PARAMETER LIBRARY
      ________________________________________________________________


Random number generator was seeded with values 49856, 1760706530.
Docking parameter file (DPF) used for this docking:		D:/Protein_go_brrr/autodock/final/mut_K82N/heme_O2/dock.dpf
DPF> autodock_parameter_version 4.2       # used by autodock to validate parameter set

	Autodock parameter version 4.2.
DPF> outlev 1                             # diagnostic output level

Output Level = 1  ADT-COMPATIBLE OUTPUT DURING DOCKING.
DPF> intelec                              # calculate internal electrostatics

Electrostatic energies will be calculated for all non-bonds between moving atoms.
DPF> seed pid time                        # seeds for random generator

Random number generator was seeded with values 49856, 1760706530.
DPF> ligand_types A C OA N Fe HD          # atoms types in ligand

DPF> fld mut_K82N_m0.maps.fld             # grid_data_file

Opening Grid Map Dimensions file:		mut_K82N_m0.maps.fld
Grid Point Spacing =				0.619 Angstroms

Even Number of User-specified Grid Points =	126 x-points
						126 y-points
						126 z-points

Coordinates of Central Grid Point of Maps =	(0.575, 0.825, 0.156)
Macromolecule file used to create Grid Maps =	mut_K82N_m0.pdbqt
Grid Parameter file used to create Grid Maps =	D:/Protein_go_brrr/autodock/final/mut_K82N/heme_O2/grid.gpf
Minimum coordinates in grid = (-38.422, -38.172, -38.841)
Maximum coordinates in grid = (39.572, 39.822, 39.153)

DPF> map mut_K82N_m0.A.map                # atom-specific affinity map

DPF> map mut_K82N_m0.C.map                # atom-specific affinity map

DPF> map mut_K82N_m0.OA.map               # atom-specific affinity map

DPF> map mut_K82N_m0.N.map                # atom-specific affinity map

DPF> map mut_K82N_m0.Fe.map               # atom-specific affinity map

DPF> map mut_K82N_m0.HD.map               # atom-specific affinity map

DPF> elecmap mut_K82N_m0.e.map            # electrostatics map

DPF> desolvmap mut_K82N_m0.d.map          # desolvation map

DPF> move heme_O2_opt.pdbqt               # small molecule

1,4-interactions will be _ignored_ in the non-bonded internal energy calculation.

Ligand PDBQT file = "heme_O2_opt.pdbqt"

INPUT LIGAND PDBQT FILE:
________________________

INPUT-LIGAND-PDBQT: REMARK  10 active torsions:
INPUT-LIGAND-PDBQT: REMARK  status: ('A' for Active; 'I' for Inactive)
INPUT-LIGAND-PDBQT: REMARK    1  A    between atoms: C_6  and  C_10 
INPUT-LIGAND-PDBQT: REMARK    2  A    between atoms: C_10  and  C_11 
INPUT-LIGAND-PDBQT: REMARK    3  A    between atoms: C_11  and  C_12 
INPUT-LIGAND-PDBQT: REMARK    4  A    between atoms: C_12  and  O_14 
INPUT-LIGAND-PDBQT: REMARK    5  A    between atoms: C_17  and  C_20 
INPUT-LIGAND-PDBQT: REMARK    6  A    between atoms: C_24  and  C_27 
INPUT-LIGAND-PDBQT: REMARK    7  A    between atoms: C_31  and  C_34 
INPUT-LIGAND-PDBQT: REMARK    8  A    between atoms: C_34  and  C_35 
INPUT-LIGAND-PDBQT: REMARK    9  A    between atoms: C_35  and  C_36 
INPUT-LIGAND-PDBQT: REMARK   10  A    between atoms: C_36  and  O_38 
INPUT-LIGAND-PDBQT: ROOT
INPUT-LIGAND-PDBQT: ATOM      1  C   UNL d   1       6.417  35.070  -1.470  0.00  0.00     0.064 A 
INPUT-LIGAND-PDBQT: ATOM      2  C   UNL d   1       7.592  32.343   2.237  0.00  0.00     0.064 A 
INPUT-LIGAND-PDBQT: ATOM      3  C   UNL d   1      12.269  32.904   1.285  0.00  0.00     0.064 C 
INPUT-LIGAND-PDBQT: ATOM      4  C   UNL d   1      11.084  36.099  -2.244  0.00  0.00     0.064 A 
INPUT-LIGAND-PDBQT: ATOM      5  C   UNL d   1       6.355  34.284  -0.383  0.00  0.00     0.066 A 
INPUT-LIGAND-PDBQT: ATOM      6  C   UNL d   1       5.162  33.858   0.208  0.00  0.00    -0.021 A 
INPUT-LIGAND-PDBQT: ATOM      7  C   UNL d   1       5.501  33.104   1.307  0.00  0.00    -0.025 A 
INPUT-LIGAND-PDBQT: ATOM      8  C   UNL d   1       6.892  33.050   1.329  0.00  0.00     0.066 A 
INPUT-LIGAND-PDBQT: ATOM      9  C   UNL d   1       4.513  32.505   2.284  0.00  0.00     0.051 C 
INPUT-LIGAND-PDBQT: ATOM     10  C   UNL d   1       9.050  32.230   2.297  0.00  0.00     0.066 A 
INPUT-LIGAND-PDBQT: ATOM     11  C   UNL d   1       9.719  31.353   3.158  0.00  0.00    -0.021 A 
INPUT-LIGAND-PDBQT: ATOM     12  C   UNL d   1      11.068  31.487   2.886  0.00  0.00     0.000 A 
INPUT-LIGAND-PDBQT: ATOM     13  C   UNL d   1      11.148  32.469   1.860  0.00  0.00     0.070 A 
INPUT-LIGAND-PDBQT: ATOM     14  C   UNL d   1       9.096  30.407   4.178  0.00  0.00     0.052 C 
INPUT-LIGAND-PDBQT: ATOM     15  C   UNL d   1      12.395  33.921   0.269  0.00  0.00     0.066 A 
INPUT-LIGAND-PDBQT: ATOM     16  C   UNL d   1      13.607  34.449  -0.175  0.00  0.00    -0.021 A 
INPUT-LIGAND-PDBQT: ATOM     17  C   UNL d   1      13.294  35.363  -1.181  0.00  0.00     0.000 A 
INPUT-LIGAND-PDBQT: ATOM     18  C   UNL d   1      11.896  35.322  -1.278  0.00  0.00     0.070 A 
INPUT-LIGAND-PDBQT: ATOM     19  C   UNL d   1      14.937  34.079   0.432  0.00  0.00     0.052 C 
INPUT-LIGAND-PDBQT: ATOM     20  C   UNL d   1       9.740  36.116  -2.335  0.00  0.00     0.066 A 
INPUT-LIGAND-PDBQT: ATOM     21  C   UNL d   1       9.031  36.855  -3.278  0.00  0.00    -0.025 A 
INPUT-LIGAND-PDBQT: ATOM     22  C   UNL d   1       7.701  36.553  -3.090  0.00  0.00    -0.021 A 
INPUT-LIGAND-PDBQT: ATOM     23  C   UNL d   1       7.646  35.651  -2.023  0.00  0.00     0.066 A 
INPUT-LIGAND-PDBQT: ATOM     24  C   UNL d   1       9.594  37.804  -4.304  0.00  0.00     0.051 C 
INPUT-LIGAND-PDBQT: ATOM     25  N   UNL d   1       7.418  33.831   0.326  0.00  0.00    -0.248 N 
INPUT-LIGAND-PDBQT: ATOM     26  N   UNL d   1       9.916  32.919   1.511  0.00  0.00    -0.248 N 
INPUT-LIGAND-PDBQT: ATOM     27  N   UNL d   1      11.363  34.498  -0.340  0.00  0.00    -0.248 N 
INPUT-LIGAND-PDBQT: ATOM     28  N   UNL d   1       8.884  35.423  -1.538  0.00  0.00    -0.248 N 
INPUT-LIGAND-PDBQT: ATOM     29 FE   UNL d   1       9.399  34.181  -0.025  0.00  0.00     0.000 Fe
INPUT-LIGAND-PDBQT: ATOM     30  O   UNL d   1       8.866  34.841   1.280  0.00  0.00     0.000 OA
INPUT-LIGAND-PDBQT: ATOM     31  O   UNL d   1       9.881  35.626   0.366  0.00  0.00     0.000 OA
INPUT-LIGAND-PDBQT: ENDROOT
INPUT-LIGAND-PDBQT: BRANCH   6  32
INPUT-LIGAND-PDBQT: ATOM     32  C   UNL d   1       3.756  34.255  -0.161  0.00  0.00     0.052 C 
INPUT-LIGAND-PDBQT: BRANCH  32  33
INPUT-LIGAND-PDBQT: ATOM     33  C   UNL d   1       3.190  33.429  -1.312  0.00  0.00     0.115 C 
INPUT-LIGAND-PDBQT: BRANCH  33  34
INPUT-LIGAND-PDBQT: ATOM     34  C   UNL d   1       1.764  33.798  -1.638  0.00  0.00     0.139 C 
INPUT-LIGAND-PDBQT: ATOM     35  O   UNL d   1       1.015  32.956  -2.107  0.00  0.00    -0.650 OA
INPUT-LIGAND-PDBQT: BRANCH  34  36
INPUT-LIGAND-PDBQT: ATOM     36  O   UNL d   1       1.301  35.051  -1.449  0.00  0.00    -0.776 OA
INPUT-LIGAND-PDBQT: ATOM     37  H   UNL d   1       1.861  35.756  -1.104  0.00  0.00     0.167 HD
INPUT-LIGAND-PDBQT: ENDBRANCH  34  36
INPUT-LIGAND-PDBQT: ENDBRANCH  33  34
INPUT-LIGAND-PDBQT: ENDBRANCH  32  33
INPUT-LIGAND-PDBQT: ENDBRANCH   6  32
INPUT-LIGAND-PDBQT: BRANCH  22  38
INPUT-LIGAND-PDBQT: ATOM     38  C   UNL d   1       6.548  37.151  -3.854  0.00  0.00     0.052 C 
INPUT-LIGAND-PDBQT: BRANCH  38  39
INPUT-LIGAND-PDBQT: ATOM     39  C   UNL d   1       6.010  36.208  -4.928  0.00  0.00     0.115 C 
INPUT-LIGAND-PDBQT: BRANCH  39  40
INPUT-LIGAND-PDBQT: ATOM     40  C   UNL d   1       4.838  36.794  -5.675  0.00  0.00     0.139 C 
INPUT-LIGAND-PDBQT: ATOM     41  O   UNL d   1       4.700  36.561  -6.865  0.00  0.00    -0.650 OA
INPUT-LIGAND-PDBQT: BRANCH  40  42
INPUT-LIGAND-PDBQT: ATOM     42  O   UNL d   1       3.907  37.532  -5.040  0.00  0.00    -0.776 OA
INPUT-LIGAND-PDBQT: ATOM     43  H   UNL d   1       3.982  37.740  -4.101  0.00  0.00     0.167 HD
INPUT-LIGAND-PDBQT: ENDBRANCH  40  42
INPUT-LIGAND-PDBQT: ENDBRANCH  39  40
INPUT-LIGAND-PDBQT: ENDBRANCH  38  39
INPUT-LIGAND-PDBQT: ENDBRANCH  22  38
INPUT-LIGAND-PDBQT: BRANCH  12  44
INPUT-LIGAND-PDBQT: ATOM     44  C   UNL d   1      12.120  30.683   3.621  0.00  0.00     0.004 C 
INPUT-LIGAND-PDBQT: ATOM     45  C   UNL d   1      13.434  30.659   3.401  0.00  0.00     0.012 C 
INPUT-LIGAND-PDBQT: ENDBRANCH  12  44
INPUT-LIGAND-PDBQT: BRANCH  17  46
INPUT-LIGAND-PDBQT: ATOM     46  C   UNL d   1      14.171  36.282  -1.989  0.00  0.00     0.004 C 
INPUT-LIGAND-PDBQT: ATOM     47  C   UNL d   1      15.480  36.522  -1.839  0.00  0.00     0.012 C 
INPUT-LIGAND-PDBQT: ENDBRANCH  17  46
INPUT-LIGAND-PDBQT: TORSDOF 10
________________________________________________________________________________

Total charge on ligand                               =	-2.002 e
REMARK  10 active torsions:
REMARK  status: ('A' for Active; 'I' for Inactive)
REMARK    1  A    between atoms: C_6  and  C_10 
REMARK    2  A    between atoms: C_10  and  C_11 
REMARK    3  A    between atoms: C_11  and  C_12 
REMARK    4  A    between atoms: C_12  and  O_14 
REMARK    5  A    between atoms: C_17  and  C_20 
REMARK    6  A    between atoms: C_24  and  C_27 
REMARK    7  A    between atoms: C_31  and  C_34 
REMARK    8  A    between atoms: C_34  and  C_35 
REMARK    9  A    between atoms: C_35  and  C_36 
REMARK   10  A    between atoms: C_36  and  O_38 


Number of Rotatable Bonds in Small Molecule =	10 torsions
Number of atoms in ligand:  47

Number of non-hydrogen atoms in ligand:  45

Number of vibrational degrees of freedom of ligand:  135


Number of torsional degrees of freedom = 10
Estimated loss of torsional free energy upon binding = +2.9830 kcal/mol


DPF> about 8.287 34.468 -0.670            # small molecule center

Small molecule center of rotation =	(+8.287, +34.468, -0.670)

DPF> tran0 random                         # initial coordinates/A or random

Initial translation =			(27.441, 28.391, 29.577) Angstroms
DPF> quaternion0 random                   # initial orientation

Each run will begin with a new, random initial orientation.
Initial quaternion,  (x,y,z,w) =	( 0.008, 0.992, 0.124, 0.019 ),
DPF> dihe0 random                         # initial dihedrals (relative) or random

DPF> torsdof 10                            # torsional degrees of freedom

Number of torsional degrees of freedom = 10
Free energy coefficient for torsional degrees of freedom = 0.2983, the factory default value.

Estimated loss of torsional free energy upon binding = +2.9830 kcal/mol

DPF> rmstol 2.0                           # cluster_tolerance/A

Maximum RMS tolerance for conformational cluster analysis = 2.00 Angstroms
DPF> extnrg 1000.0                        # external grid energy

External grid energy (beyond grid map walls) = 1000.00

DPF> e0max 0.0 10000                      # max initial energy; max number of retries

Using user-specified maximum number of retries for simanneal initialization, 10000 retries.
If the simanneal initial energy is greater than e0max, 0.000,
then a new, random initial state will be created.

DPF> ga_pop_size 150                      # number of individuals in population

A population of 150 individuals will be used
DPF> ga_num_evals 25000000                # maximum number of energy evaluations

There will be at most 25000000 function evaluations used.
DPF> ga_num_generations 27000             # maximum number of generations

The GA will run for at most 27000 generations.
DPF> ga_elitism 1                         # number of top individuals to survive to next generation

The 1 best will be preserved each GA generation.
DPF> ga_mutation_rate 0.02                # rate of gene mutation

The mutation rate is 0.020000.
DPF> ga_crossover_rate 0.8                # rate of crossover

The crossover rate is 0.800000.
DPF> ga_window_size 10                    # 

The GA's selection window is 10 generations.
DPF> ga_cauchy_alpha 0.0                  # Alpha parameter of Cauchy distribution

The alpha parameter (for the Cauchy distribution) is being set to 0.000000.
DPF> ga_cauchy_beta 1.0                   # Beta parameter Cauchy distribution

The beta parameter (for the Cauchy distribution) is being set to 1.000000.
DPF> set_ga                               # set the above parameters for GA or LGA

DPF> sw_max_its 300                       # iterations of Solis & Wets local search

Solis & Wets algorithms will perform at most 300 iterations.
DPF> sw_max_succ 4                        # consecutive successes before changing rho

Solis & Wets algorithms expand rho every 4 in a row successes.
DPF> sw_max_fail 4                        # consecutive failures before changing rho

Solis & Wets algorithms contract rho every 4 in a row failures.
DPF> sw_rho 1.0                           # size of local search space to sample

rho is set to 1.000000.
DPF> sw_lb_rho 0.01                       # lower bound on rho

rho will never get smaller than 0.010000.
DPF> ls_search_freq 0.06                  # probability of performing local search on individual

Local search will be performed with frequency 0.060000.
DPF> set_psw1                             # set the above pseudo-Solis & Wets parameters

Creating a new Local Search object using the pseudo-Solis-Wets algorithm (pSW1) with the current settings.

DPF> unbound_model bound                  # state of unbound ligand

DPF> ga_run 100                           # do this many hybrid GA-LS runs

centering ligand on specified point: 8.287 34.468 -0.670
Furthest true ligand atom from "about" center is 7.588 Angstroms (maxrad).
Number of requested GA dockings = 100 runs
Unbound model to be used is 'same as bound' [AutoDock 4.2 default].

	BEGINNING GENETIC ALGORITHM DOCKING 1 of 100
Run: 1 Seed: 2089921540 1488920413 [ Run 1 of 100 GA/GALS ]
Beginning LAMARCKIAN GENETIC ALGORITHM (LGA), with a maximum of 25000000 energy evaluations.

Final-Value: -8.977


	FINAL GENETIC ALGORITHM DOCKED STATE
	_______________________________________________


Detailed state:  trans 12.265 2.523 13.607 quatxyzw -0.479555 -0.732838 -0.482333 0.018186 center 8.287 34.468 -0.670 ntor 10 143.9045 -85.3554 -113.2729 -127.1858 -179.8259 149.6207 -63.2647 24.2222 -167.2870 179.1887
State:	 12.265   2.523  13.607  -0.480 -0.733 -0.482 177.916    143.90  -85.36 -113.27 -127.19 -179.83  149.62  -63.26   24.22 -167.29  179.19

DOCKED: MODEL        1
DOCKED: USER    Run = 1
DOCKED: USER    DPF = D:/Protein_go_brrr/autodock/final/mut_K82N/heme_O2/dock.dpf
DOCKED: USER  
DOCKED: USER    Estimated Free Energy of Binding    =   -3.92 kcal/mol  [=(1)+(2)+(3)-(4)]
DOCKED: USER    Estimated Inhibition Constant, Ki   =    1.34 mM (millimolar)  [Temperature = 298.15 K]
DOCKED: USER    
DOCKED: USER    (1) Final Intermolecular Energy     =   -6.90 kcal/mol
DOCKED: USER        vdW + Hbond + desolv Energy     =   -6.86 kcal/mol
DOCKED: USER        Electrostatic Energy            =   -0.04 kcal/mol
DOCKED: USER    (2) Final Total Internal Energy     =   -2.07 kcal/mol
DOCKED: USER    (3) Torsional Free Energy           =   +2.98 kcal/mol
DOCKED: USER    (4) Unbound System's Energy  [=(2)] =   -2.07 kcal/mol
DOCKED: USER    
DOCKED: USER    
DOCKED: USER    NEWDPF move heme_O2_opt.pdbqt
DOCKED: USER    NEWDPF about 8.287000 34.468000 -0.670000
DOCKED: USER    NEWDPF tran0 12.265013 2.523370 13.607280
DOCKED: USER    NEWDPF quaternion0 -0.479555 -0.732838 -0.482333 0.018186
DOCKED: USER    NEWDPF axisangle0 -0.479635 -0.732959 -0.482412 177.915883
DOCKED: USER    NEWDPF quat0 -0.479635 -0.732959 -0.482412 177.915883
DOCKED: USER    NEWDPF dihe0 143.90 -85.36 -113.27 -127.19 -179.83 149.62 -63.26 24.22 -167.29 179.19 
DOCKED: USER  keepresnum = 1 
DOCKED: USER  
DOCKED: REMARK  10 active torsions:
DOCKED: REMARK  status: ('A' for Active; 'I' for Inactive)
DOCKED: REMARK    1  A    between atoms: C_6  and  C_10 
DOCKED: REMARK    2  A    between atoms: C_10  and  C_11 
DOCKED: REMARK    3  A    between atoms: C_11  and  C_12 
DOCKED: REMARK    4  A    between atoms: C_12  and  O_14 
DOCKED: REMARK    5  A    between atoms: C_17  and  C_20 
DOCKED: REMARK    6  A    between atoms: C_24  and  C_27 
DOCKED: REMARK    7  A    between atoms: C_31  and  C_34 
DOCKED: REMARK    8  A    between atoms: C_34  and  C_35 
DOCKED: REMARK    9  A    between atoms: C_35  and  C_36 
DOCKED: REMARK   10  A    between atoms: C_36  and  O_38 
DOCKED: USER                              x       y       z     vdW  Elec       q    Type
DOCKED: USER                           _______ _______ _______ _____ _____    ______ ____
DOCKED: ROOT
DOCKED: ATOM      1  C   UNL d   1      13.295   0.670  13.655 -0.17 -0.01    +0.064 A 
DOCKED: ATOM      2  C   UNL d   1      12.606   3.868  10.212 -0.12 -0.00    +0.064 A 
DOCKED: ATOM      3  C   UNL d   1      10.002   6.623  13.166 -0.21 -0.00    +0.064 C 
DOCKED: ATOM      4  C   UNL d   1      11.104   3.575  16.849 -0.13 -0.00    +0.064 A 
DOCKED: ATOM      5  C   UNL d   1      13.321   1.316  12.478 -0.15 -0.01    +0.066 A 
DOCKED: ATOM      6  C   UNL d   1      13.962   0.832  11.334 -0.13 +0.00    -0.021 A 
DOCKED: ATOM      7  C   UNL d   1      13.800   1.777  10.349 -0.14 +0.00    -0.025 A 
DOCKED: ATOM      8  C   UNL d   1      13.024   2.791  10.904 -0.12 -0.00    +0.066 A 
DOCKED: ATOM      9  C   UNL d   1      14.401   1.695   8.962 -0.11 +0.00    +0.051 C 
DOCKED: ATOM     10  C   UNL d   1      11.771   4.951  10.734 -0.16 -0.00    +0.066 A 
DOCKED: ATOM     11  C   UNL d   1      11.231   5.962   9.931 -0.22 +0.00    -0.021 A 
DOCKED: ATOM     12  C   UNL d   1      10.462   6.756  10.761 -0.29 -0.00    +0.000 A 
DOCKED: ATOM     13  C   UNL d   1      10.590   6.179  12.055 -0.25 -0.00    +0.070 A 
DOCKED: ATOM     14  C   UNL d   1      11.417   6.145   8.429 -0.16 +0.00    +0.052 C 
DOCKED: ATOM     15  C   UNL d   1      10.134   6.089  14.500 -0.22 -0.01    +0.066 A 
DOCKED: ATOM     16  C   UNL d   1       9.625   6.696  15.648 -0.28 +0.00    -0.021 A 
DOCKED: ATOM     17  C   UNL d   1       9.928   5.845  16.711 -0.19 -0.00    +0.000 A 
DOCKED: ATOM     18  C   UNL d   1      10.606   4.768  16.124 -0.17 -0.00    +0.070 A 
DOCKED: ATOM     19  C   UNL d   1       8.951   8.045  15.636 -0.26 -0.01    +0.052 C 
DOCKED: ATOM     20  C   UNL d   1      11.796   2.545  16.324 -0.21 -0.01    +0.066 A 
DOCKED: ATOM     21  C   UNL d   1      12.224   1.440  17.054 -0.24 +0.00    -0.025 A 
DOCKED: ATOM     22  C   UNL d   1      12.826   0.588  16.155 -0.23 +0.00    -0.021 A 
DOCKED: ATOM     23  C   UNL d   1      12.760   1.217  14.907 -0.17 -0.01    +0.066 A 
DOCKED: ATOM     24  C   UNL d   1      12.068   1.209  18.534 -0.23 +0.00    +0.051 C 
DOCKED: ATOM     25  N   UNL d   1      12.784   2.536  12.235 -0.07 +0.02    -0.248 N 
DOCKED: ATOM     26  N   UNL d   1      11.392   5.085  12.031 -0.12 +0.01    -0.248 N 
DOCKED: ATOM     27  N   UNL d   1      10.788   4.969  14.794 -0.16 +0.03    -0.248 N 
DOCKED: ATOM     28  N   UNL d   1      12.173   2.426  15.023 -0.10 +0.03    -0.248 N 
DOCKED: ATOM     29 FE   UNL d   1      11.784   3.748  13.540 -0.04 -0.00    +0.000 Fe
DOCKED: ATOM     30  O   UNL d   1      13.162   4.313  13.088 -0.07 -0.00    +0.000 OA
DOCKED: ATOM     31  O   UNL d   1      12.706   4.473  14.588 -0.09 -0.00    +0.000 OA
DOCKED: ENDROOT
DOCKED: BRANCH   6  32
DOCKED: ATOM     32  C   UNL d   1      14.812  -0.406  11.206 -0.04 -0.01    +0.052 C 
DOCKED: BRANCH  32  33
DOCKED: ATOM     33  C   UNL d   1      16.258  -0.179  11.637 -0.07 -0.01    +0.115 C 
DOCKED: BRANCH  33  34
DOCKED: ATOM     34  C   UNL d   1      16.624  -0.976  12.864 -0.08 -0.00    +0.139 C 
DOCKED: ATOM     35  O   UNL d   1      16.066  -2.039  13.082 -0.02 +0.00    -0.650 OA
DOCKED: BRANCH  34  36
DOCKED: ATOM     36  O   UNL d   1      17.540  -0.526  13.747 +0.02 +0.01    -0.776 OA
DOCKED: ATOM     37  H   UNL d   1      17.454  -0.681  14.695 +0.02 -0.00    +0.167 HD
DOCKED: ENDBRANCH  34  36
DOCKED: ENDBRANCH  33  34
DOCKED: ENDBRANCH  32  33
DOCKED: ENDBRANCH   6  32
DOCKED: BRANCH  22  38
DOCKED: ATOM     38  C   UNL d   1      13.484  -0.724  16.493 -0.28 -0.00    +0.052 C 
DOCKED: BRANCH  38  39
DOCKED: ATOM     39  C   UNL d   1      14.882  -0.540  17.080 -0.11 +0.00    +0.115 C 
DOCKED: BRANCH  39  40
DOCKED: ATOM     40  C   UNL d   1      15.745  -1.765  16.908 -0.10 +0.01    +0.139 C 
DOCKED: ATOM     41  O   UNL d   1      15.452  -2.799  17.487 -0.01 -0.07    -0.650 OA
DOCKED: BRANCH  40  42
DOCKED: ATOM     42  O   UNL d   1      16.810  -1.755  16.084 +0.01 -0.03    -0.776 OA
DOCKED: ATOM     43  H   UNL d   1      16.715  -1.898  15.134 +0.02 +0.01    +0.167 HD
DOCKED: ENDBRANCH  40  42
DOCKED: ENDBRANCH  39  40
DOCKED: ENDBRANCH  38  39
DOCKED: ENDBRANCH  22  38
DOCKED: BRANCH  12  44
DOCKED: ATOM     44  C   UNL d   1       9.703   7.960  10.245 -0.33 +0.00    +0.004 C 
DOCKED: ATOM     45  C   UNL d   1       8.720   7.985   9.346 -0.39 +0.00    +0.012 C 
DOCKED: ENDBRANCH  12  44
DOCKED: BRANCH  17  46
DOCKED: ATOM     46  C   UNL d   1       9.689   5.988  18.191 -0.11 +0.00    +0.004 C 
DOCKED: ATOM     47  C   UNL d   1      10.544   5.754  19.195 -0.17 +0.00    +0.012 C 
DOCKED: ENDBRANCH  17  46
DOCKED: TORSDOF 10
DOCKED: TER
DOCKED: ENDMDL
________________________________________________________________________________


	BEGINNING GENETIC ALGORITHM DOCKING 2 of 100
Run: 2 Seed: 1813460061 1832738111 [ Run 2 of 100 GA/GALS ]
Beginning LAMARCKIAN GENETIC ALGORITHM (LGA), with a maximum of 25000000 energy evaluations.

Final-Value: -10.012


	FINAL GENETIC ALGORITHM DOCKED STATE
	_______________________________________________


Detailed state:  trans -12.588 14.451 -7.534 quatxyzw -0.037112 0.525001 -0.235786 -0.816946 center 8.287 34.468 -0.670 ntor 10 143.1587 1.6250 67.1162 -102.8349 -179.6787 -110.0134 -86.4609 -147.1820 176.8998 142.3340
State:	-12.588  14.451  -7.534  -0.064  0.910 -0.409 -70.439    143.16    1.63   67.12 -102.83 -179.68 -110.01  -86.46 -147.18  176.90  142.33

DOCKED: MODEL        2
DOCKED: USER    Run = 2
DOCKED: USER    DPF = D:/Protein_go_brrr/autodock/final/mut_K82N/heme_O2/dock.dpf
DOCKED: USER  
DOCKED: USER    Estimated Free Energy of Binding    =   -4.82 kcal/mol  [=(1)+(2)+(3)-(4)]
DOCKED: USER    Estimated Inhibition Constant, Ki   =  292.46 uM (micromolar)  [Temperature = 298.15 K]
DOCKED: USER    
DOCKED: USER    (1) Final Intermolecular Energy     =   -7.80 kcal/mol
DOCKED: USER        vdW + Hbond + desolv Energy     =   -5.91 kcal/mol
DOCKED: USER        Electrostatic Energy            =   -1.90 kcal/mol
DOCKED: USER    (2) Final Total Internal Energy     =   -2.21 kcal/mol
DOCKED: USER    (3) Torsional Free Energy           =   +2.98 kcal/mol
DOCKED: USER    (4) Unbound System's Energy  [=(2)] =   -2.21 kcal/mol
DOCKED: USER    
DOCKED: USER    
DOCKED: USER    NEWDPF move heme_O2_opt.pdbqt
DOCKED: USER    NEWDPF about 8.287000 34.468000 -0.670000
DOCKED: USER    NEWDPF tran0 -12.588125 14.450709 -7.534295
DOCKED: USER    NEWDPF quaternion0 -0.037112 0.525001 -0.235786 -0.816946
DOCKED: USER    NEWDPF axisangle0 -0.064350 0.910332 -0.408845 -70.439440
DOCKED: USER    NEWDPF quat0 -0.064350 0.910332 -0.408845 -70.439440
DOCKED: USER    NEWDPF dihe0 143.16 1.63 67.12 -102.83 -179.68 -110.01 -86.46 -147.18 176.90 142.33 
DOCKED: USER  keepresnum = 1 
DOCKED: USER  
DOCKED: REMARK  10 active torsions:
DOCKED: REMARK  status: ('A' for Active; 'I' for Inactive)
DOCKED: REMARK    1  A    between atoms: C_6  and  C_10 
DOCKED: REMARK    2  A    between atoms: C_10  and  C_11 
DOCKED: REMARK    3  A    between atoms: C_11  and  C_12 
DOCKED: REMARK    4  A    between atoms: C_12  and  O_14 
DOCKED: REMARK    5  A    between atoms: C_17  and  C_20 
DOCKED: REMARK    6  A    between atoms: C_24  and  C_27 
DOCKED: REMARK    7  A    between atoms: C_31  and  C_34 
DOCKED: REMARK    8  A    between atoms: C_34  and  C_35 
DOCKED: REMARK    9  A    between atoms: C_35  and  C_36 
DOCKED: REMARK   10  A    between atoms: C_36  and  O_38 
DOCKED: USER                              x       y       z     vdW  Elec       q    Type
DOCKED: USER                           _______ _______ _______ _____ _____    ______ ____
DOCKED: ROOT
DOCKED: ATOM      1  C   UNL d   1     -13.711  15.927  -6.505 -0.08 +0.04    +0.064 A 
DOCKED: ATOM      2  C   UNL d   1     -11.014  12.319  -4.999 -0.25 +0.02    +0.064 A 
DOCKED: ATOM      3  C   UNL d   1     -10.074  11.010  -9.526 -0.14 +0.02    +0.064 C 
DOCKED: ATOM      4  C   UNL d   1     -12.457  15.004 -11.089 -0.05 +0.02    +0.064 A 
DOCKED: ATOM      5  C   UNL d   1     -13.053  15.054  -5.726 -0.08 +0.04    +0.066 A 
DOCKED: ATOM      6  C   UNL d   1     -13.086  15.072  -4.329 -0.14 -0.01    -0.021 A 
DOCKED: ATOM      7  C   UNL d   1     -12.270  14.054  -3.891 -0.12 -0.01    -0.025 A 
DOCKED: ATOM      8  C   UNL d   1     -11.800  13.412  -5.033 -0.16 +0.03    +0.066 A 
DOCKED: ATOM      9  C   UNL d   1     -11.956  13.760  -2.441 -0.30 +0.01    +0.051 C 
DOCKED: ATOM     10  C   UNL d   1     -10.509  11.589  -6.162 -0.22 +0.02    +0.066 A 
DOCKED: ATOM     11  C   UNL d   1      -9.833  10.368  -6.070 -0.26 -0.01    -0.021 A 
DOCKED: ATOM     12  C   UNL d   1      -9.569   9.965  -7.366 -0.21 +0.00    +0.000 A 
DOCKED: ATOM     13  C   UNL d   1     -10.100  10.993  -8.194 -0.16 +0.02    +0.070 A 
DOCKED: ATOM     14  C   UNL d   1      -9.478   9.603  -4.800 -0.35 +0.02    +0.052 C 
DOCKED: ATOM     15  C   UNL d   1     -10.569  12.048 -10.399 -0.09 +0.02    +0.066 A 
DOCKED: ATOM     16  C   UNL d   1     -10.366  12.085 -11.778 -0.03 -0.01    -0.021 A 
DOCKED: ATOM     17  C   UNL d   1     -11.035  13.215 -12.245 -0.07 +0.00    +0.000 A 
DOCKED: ATOM     18  C   UNL d   1     -11.606  13.790 -11.101 -0.08 +0.02    +0.070 A 
DOCKED: ATOM     19  C   UNL d   1      -9.513  11.079 -12.511 -0.09 +0.01    +0.052 C 
DOCKED: ATOM     20  C   UNL d   1     -12.984  15.606 -10.006 -0.06 +0.03    +0.066 A 
DOCKED: ATOM     21  C   UNL d   1     -13.793  16.738 -10.058 -0.03 -0.01    -0.025 A 
DOCKED: ATOM     22  C   UNL d   1     -14.182  16.999  -8.764 -0.04 -0.01    -0.021 A 
DOCKED: ATOM     23  C   UNL d   1     -13.579  16.024  -7.964 -0.07 +0.04    +0.066 A 
DOCKED: ATOM     24  C   UNL d   1     -14.173  17.531 -11.281 -0.01 +0.01    +0.051 C 
DOCKED: ATOM     25  N   UNL d   1     -12.230  14.069  -6.164 -0.09 -0.14    -0.248 N 
DOCKED: ATOM     26  N   UNL d   1     -10.666  11.979  -7.453 -0.12 -0.08    -0.248 N 
DOCKED: ATOM     27  N   UNL d   1     -11.251  13.111  -9.981 -0.09 -0.09    -0.248 N 
DOCKED: ATOM     28  N   UNL d   1     -12.816  15.206  -8.717 -0.07 -0.16    -0.248 N 
DOCKED: ATOM     29 FE   UNL d   1     -11.748  13.604  -8.093 -0.03 +0.00    +0.000 Fe
DOCKED: ATOM     30  O   UNL d   1     -10.557  14.171  -7.266 -0.34 +0.00    +0.000 OA
DOCKED: ATOM     31  O   UNL d   1     -10.742  14.607  -8.769 -0.62 +0.00    +0.000 OA
DOCKED: ENDROOT
DOCKED: BRANCH   6  32
DOCKED: ATOM     32  C   UNL d   1     -13.746  16.089  -3.434 -0.11 +0.02    +0.052 C 
DOCKED: BRANCH  32  33
DOCKED: ATOM     33  C   UNL d   1     -12.765  17.122  -2.887 -0.16 +0.04    +0.115 C 
DOCKED: BRANCH  33  34
DOCKED: ATOM     34  C   UNL d   1     -12.661  18.341  -3.770 -0.09 +0.06    +0.139 C 
DOCKED: ATOM     35  O   UNL d   1     -13.623  18.685  -4.439 +0.00 -0.24    -0.650 OA
DOCKED: BRANCH  34  36
DOCKED: ATOM     36  O   UNL d   1     -11.516  19.048  -3.861 +0.05 -0.43    -0.776 OA
DOCKED: ATOM     37  H   UNL d   1     -11.226  19.446  -4.690 +0.03 +0.12    +0.167 HD
DOCKED: ENDBRANCH  34  36
DOCKED: ENDBRANCH  33  34
DOCKED: ENDBRANCH  32  33
DOCKED: ENDBRANCH   6  32
DOCKED: BRANCH  22  38
DOCKED: ATOM     38  C   UNL d   1     -15.033  18.161  -8.320 -0.02 +0.02    +0.052 C 
DOCKED: BRANCH  38  39
DOCKED: ATOM     39  C   UNL d   1     -14.278  19.117  -7.399 -0.04 +0.05    +0.115 C 
DOCKED: BRANCH  39  40
DOCKED: ATOM     40  C   UNL d   1     -12.805  19.179  -7.716 +0.12 +0.13    +0.139 C 
DOCKED: ATOM     41  O   UNL d   1     -12.429  19.079  -8.873 -0.37 -0.61    -0.650 OA
DOCKED: BRANCH  40  42
DOCKED: ATOM     42  O   UNL d   1     -11.893  19.396  -6.748 -0.21 -1.05    -0.776 OA
DOCKED: ATOM     43  H   UNL d   1     -12.148  19.455  -5.819 +0.02 +0.15    +0.167 HD
DOCKED: ENDBRANCH  40  42
DOCKED: ENDBRANCH  39  40
DOCKED: ENDBRANCH  38  39
DOCKED: ENDBRANCH  22  38
DOCKED: BRANCH  12  44
DOCKED: ATOM     44  C   UNL d   1      -8.849   8.669  -7.675 -0.26 +0.00    +0.004 C 
DOCKED: ATOM     45  C   UNL d   1      -7.675   8.509  -8.285 -0.31 +0.00    +0.012 C 
DOCKED: ENDBRANCH  12  44
DOCKED: BRANCH  17  46
DOCKED: ATOM     46  C   UNL d   1     -11.128  13.808 -13.626 -0.05 +0.00    +0.004 C 
DOCKED: ATOM     47  C   UNL d   1     -10.580  14.943 -14.079 -0.06 +0.00    +0.012 C 
DOCKED: ENDBRANCH  17  46
DOCKED: TORSDOF 10
DOCKED: TER
DOCKED: ENDMDL
________________________________________________________________________________


	BEGINNING GENETIC ALGORITHM DOCKING 3 of 100
Run: 3 Seed: 1883813046 2848696 [ Run 3 of 100 GA/GALS ]
Beginning LAMARCKIAN GENETIC ALGORITHM (LGA), with a maximum of 25000000 energy evaluations.

Final-Value: -10.917


	FINAL GENETIC ALGORITHM DOCKED STATE
	_______________________________________________


Detailed state:  trans -11.949 2.678 -10.434 quatxyzw -0.012340 0.278601 -0.060027 0.958450 center 8.287 34.468 -0.670 ntor 10 84.0159 106.3386 52.6679 63.8742 -124.7253 -104.9615 113.0838 -31.1987 8.0777 -4.9331
State:	-11.949   2.678 -10.434  -0.043  0.977 -0.210 33.149     84.02  106.34   52.67   63.87 -124.73 -104.96  113.08  -31.20    8.08   -4.93

DOCKED: MODEL        3
DOCKED: USER    Run = 3
DOCKED: USER    DPF = D:/Protein_go_brrr/autodock/final/mut_K82N/heme_O2/dock.dpf
DOCKED: USER  
DOCKED: USER    Estimated Free Energy of Binding    =   -6.45 kcal/mol  [=(1)+(2)+(3)-(4)]
DOCKED: USER    Estimated Inhibition Constant, Ki   =   18.59 uM (micromolar)  [Temperature = 298.15 K]
DOCKED: USER    
DOCKED: USER    (1) Final Intermolecular Energy     =   -9.44 kcal/mol
DOCKED: USER        vdW + Hbond + desolv Energy     =   -6.56 kcal/mol
DOCKED: USER        Electrostatic Energy            =   -2.88 kcal/mol
DOCKED: USER    (2) Final Total Internal Energy     =   -1.48 kcal/mol
DOCKED: USER    (3) Torsional Free Energy           =   +2.98 kcal/mol
DOCKED: USER    (4) Unbound System's Energy  [=(2)] =   -1.48 kcal/mol
DOCKED: USER    
DOCKED: USER    
DOCKED: USER    NEWDPF move heme_O2_opt.pdbqt
DOCKED: USER    NEWDPF about 8.287000 34.468000 -0.670000
DOCKED: USER    NEWDPF tran0 -11.949484 2.677636 -10.433763
DOCKED: USER    NEWDPF quaternion0 -0.012340 0.278601 -0.060027 0.958450
DOCKED: USER    NEWDPF axisangle0 -0.043257 0.976652 -0.210428 33.148943
DOCKED: USER    NEWDPF quat0 -0.043257 0.976652 -0.210428 33.148943
DOCKED: USER    NEWDPF dihe0 84.02 106.34 52.67 63.87 -124.73 -104.96 113.08 -31.20 8.08 -4.93 
DOCKED: USER  keepresnum = 1 
DOCKED: USER  
DOCKED: REMARK  10 active torsions:
DOCKED: REMARK  status: ('A' for Active; 'I' for Inactive)
DOCKED: REMARK    1  A    between atoms: C_6  and  C_10 
DOCKED: REMARK    2  A    between atoms: C_10  and  C_11 
DOCKED: REMARK    3  A    between atoms: C_11  and  C_12 
DOCKED: REMARK    4  A    between atoms: C_12  and  O_14 
DOCKED: REMARK    5  A    between atoms: C_17  and  C_20 
DOCKED: REMARK    6  A    between atoms: C_24  and  C_27 
DOCKED: REMARK    7  A    between atoms: C_31  and  C_34 
DOCKED: REMARK    8  A    between atoms: C_34  and  C_35 
DOCKED: REMARK    9  A    between atoms: C_35  and  C_36 
DOCKED: REMARK   10  A    between atoms: C_36  and  O_38 
DOCKED: USER                              x       y       z     vdW  Elec       q    Type
DOCKED: USER                           _______ _______ _______ _____ _____    ______ ____
DOCKED: ROOT
DOCKED: ATOM      1  C   UNL d   1     -13.163   3.118 -12.117 -0.08 +0.03    +0.064 A 
DOCKED: ATOM      2  C   UNL d   1     -13.821   0.327  -8.330 -0.05 +0.02    +0.064 A 
DOCKED: ATOM      3  C   UNL d   1      -9.465   1.445  -6.635 -0.03 +0.06    +0.064 C 
DOCKED: ATOM      4  C   UNL d   1      -8.967   4.689 -10.281 -0.19 +0.02    +0.064 A 
DOCKED: ATOM      5  C   UNL d   1     -13.698   2.270 -11.224 -0.05 +0.02    +0.066 A 
DOCKED: ATOM      6  C   UNL d   1     -14.960   1.684 -11.360 -0.02 -0.01    -0.021 A 
DOCKED: ATOM      7  C   UNL d   1     -15.169   0.910 -10.243 -0.01 -0.01    -0.025 A 
DOCKED: ATOM      8  C   UNL d   1     -14.010   1.005  -9.479 -0.04 +0.02    +0.066 A 
DOCKED: ATOM      9  C   UNL d   1     -16.444   0.152  -9.941 -0.00 +0.01    +0.051 C 
DOCKED: ATOM     10  C   UNL d   1     -12.618   0.370  -7.498 -0.13 +0.04    +0.066 A 
DOCKED: ATOM     11  C   UNL d   1     -12.409  -0.478  -6.404 -0.14 -0.01    -0.021 A 
DOCKED: ATOM     12  C   UNL d   1     -11.151  -0.183  -5.912 -0.16 +0.00    +0.000 A 
DOCKED: ATOM     13  C   UNL d   1     -10.657   0.859  -6.746 -0.08 +0.06    +0.070 A 
DOCKED: ATOM     14  C   UNL d   1     -13.359  -1.542  -5.867 -0.07 +0.01    +0.052 C 
DOCKED: ATOM     15  C   UNL d   1      -8.942   2.526  -7.435 -0.21 +0.06    +0.066 A 
DOCKED: ATOM     16  C   UNL d   1      -7.755   3.206  -7.167 -0.36 -0.01    -0.021 A 
DOCKED: ATOM     17  C   UNL d   1      -7.593   4.137  -8.193 -0.32 +0.00    +0.000 A 
DOCKED: ATOM     18  C   UNL d   1      -8.707   3.950  -9.023 -0.20 +0.04    +0.070 A 
DOCKED: ATOM     19  C   UNL d   1      -6.919   2.948  -5.938 -0.39 +0.02    +0.052 C 
DOCKED: ATOM     20  C   UNL d   1     -10.047   4.566 -11.078 -0.18 +0.02    +0.066 A 
DOCKED: ATOM     21  C   UNL d   1     -10.228   5.276 -12.261 -0.18 -0.01    -0.025 A 
DOCKED: ATOM     22  C   UNL d   1     -11.406   4.822 -12.812 -0.14 -0.01    -0.021 A 
DOCKED: ATOM     23  C   UNL d   1     -11.910   3.860 -11.931 -0.11 +0.02    +0.066 A 
DOCKED: ATOM     24  C   UNL d   1      -9.326   6.337 -12.835 -0.11 +0.01    +0.051 C 
DOCKED: ATOM     25  N   UNL d   1     -13.130   1.895 -10.052 -0.05 -0.11    -0.248 N 
DOCKED: ATOM     26  N   UNL d   1     -11.558   1.192  -7.704 -0.10 -0.25    -0.248 N 
DOCKED: ATOM     27  N   UNL d   1      -9.553   3.021  -8.508 -0.01 -0.21    -0.248 N 
DOCKED: ATOM     28  N   UNL d   1     -11.104   3.740 -10.856 -0.07 -0.10    -0.248 N 
DOCKED: ATOM     29 FE   UNL d   1     -11.327   2.476  -9.291 -0.04 +0.00    +0.000 Fe
DOCKED: ATOM     30  O   UNL d   1     -12.549   2.999  -8.481 -0.42 +0.00    +0.000 OA
DOCKED: ATOM     31  O   UNL d   1     -11.307   3.940  -8.717 -0.17 +0.00    +0.000 OA
DOCKED: ENDROOT
DOCKED: BRANCH   6  32
DOCKED: ATOM     32  C   UNL d   1     -15.990   1.947 -12.428 -0.01 +0.01    +0.052 C 
DOCKED: BRANCH  32  33
DOCKED: ATOM     33  C   UNL d   1     -15.869   0.995 -13.615 -0.03 +0.05    +0.115 C 
DOCKED: BRANCH  33  34
DOCKED: ATOM     34  C   UNL d   1     -14.621   1.242 -14.425 -0.02 +0.14    +0.139 C 
DOCKED: ATOM     35  O   UNL d   1     -13.566   0.733 -14.081 -0.39 -0.88    -0.650 OA
DOCKED: BRANCH  34  36
DOCKED: ATOM     36  O   UNL d   1     -14.636   2.040 -15.513 -0.01 -1.09    -0.776 OA
DOCKED: ATOM     37  H   UNL d   1     -14.544   2.998 -15.446 +0.01 +0.16    +0.167 HD
DOCKED: ENDBRANCH  34  36
DOCKED: ENDBRANCH  33  34
DOCKED: ENDBRANCH  32  33
DOCKED: ENDBRANCH   6  32
DOCKED: BRANCH  22  38
DOCKED: ATOM     38  C   UNL d   1     -12.037   5.334 -14.080 -0.11 +0.02    +0.052 C 
DOCKED: BRANCH  38  39
DOCKED: ATOM     39  C   UNL d   1     -11.701   4.465 -15.290 -0.17 +0.06    +0.115 C 
DOCKED: BRANCH  39  40
DOCKED: ATOM     40  C   UNL d   1     -12.818   4.429 -16.302 -0.11 +0.10    +0.139 C 
DOCKED: ATOM     41  O   UNL d   1     -13.447   5.446 -16.548 +0.00 -0.23    -0.650 OA
DOCKED: BRANCH  40  42
DOCKED: ATOM     42  O   UNL d   1     -13.105   3.302 -16.982 -0.49 -1.31    -0.776 OA
DOCKED: ATOM     43  H   UNL d   1     -13.908   2.798 -16.808 +0.02 +0.34    +0.167 HD
DOCKED: ENDBRANCH  40  42
DOCKED: ENDBRANCH  39  40
DOCKED: ENDBRANCH  38  39
DOCKED: ENDBRANCH  22  38
DOCKED: BRANCH  12  44
DOCKED: ATOM     44  C   UNL d   1     -10.563  -0.909  -4.720 -0.24 +0.00    +0.004 C 
DOCKED: ATOM     45  C   UNL d   1      -9.977  -0.380  -3.647 -0.35 +0.00    +0.012 C 
DOCKED: ENDBRANCH  12  44
DOCKED: BRANCH  17  46
DOCKED: ATOM     46  C   UNL d   1      -6.540   5.190  -8.414 -0.15 +0.00    +0.004 C 
DOCKED: ATOM     47  C   UNL d   1      -5.214   5.029  -8.506 -0.40 +0.00    +0.012 C 
DOCKED: ENDBRANCH  17  46
DOCKED: TORSDOF 10
DOCKED: TER
DOCKED: ENDMDL
________________________________________________________________________________


	BEGINNING GENETIC ALGORITHM DOCKING 4 of 100
Run: 4 Seed: 33566200 485190494 [ Run 4 of 100 GA/GALS ]
Beginning LAMARCKIAN GENETIC ALGORITHM (LGA), with a maximum of 25000000 energy evaluations.

Final-Value: -9.423


	FINAL GENETIC ALGORITHM DOCKED STATE
	_______________________________________________


Detailed state:  trans 11.617 3.792 16.321 quatxyzw 0.807489 -0.292234 -0.512226 0.013639 center 8.287 34.468 -0.670 ntor 10 -102.0424 44.2676 34.6591 -125.7813 132.7892 127.8112 84.1822 -34.4559 -129.5104 -20.4331
State:	 11.617   3.792  16.321   0.808 -0.292 -0.512 178.437   -102.04   44.27   34.66 -125.78  132.79  127.81   84.18  -34.46 -129.51  -20.43

DOCKED: MODEL        4
DOCKED: USER    Run = 4
DOCKED: USER    DPF = D:/Protein_go_brrr/autodock/final/mut_K82N/heme_O2/dock.dpf
DOCKED: USER  
DOCKED: USER    Estimated Free Energy of Binding    =   -5.85 kcal/mol  [=(1)+(2)+(3)-(4)]
DOCKED: USER    Estimated Inhibition Constant, Ki   =   51.85 uM (micromolar)  [Temperature = 298.15 K]
DOCKED: USER    
DOCKED: USER    (1) Final Intermolecular Energy     =   -8.83 kcal/mol
DOCKED: USER        vdW + Hbond + desolv Energy     =   -7.94 kcal/mol
DOCKED: USER        Electrostatic Energy            =   -0.89 kcal/mol
DOCKED: USER    (2) Final Total Internal Energy     =   -0.59 kcal/mol
DOCKED: USER    (3) Torsional Free Energy           =   +2.98 kcal/mol
DOCKED: USER    (4) Unbound System's Energy  [=(2)] =   -0.59 kcal/mol
DOCKED: USER    
DOCKED: USER    
DOCKED: USER    NEWDPF move heme_O2_opt.pdbqt
DOCKED: USER    NEWDPF about 8.287000 34.468000 -0.670000
DOCKED: USER    NEWDPF tran0 11.616783 3.792252 16.321440
DOCKED: USER    NEWDPF quaternion0 0.807489 -0.292234 -0.512226 0.013639
DOCKED: USER    NEWDPF axisangle0 0.807564 -0.292261 -0.512274 178.437063
DOCKED: USER    NEWDPF quat0 0.807564 -0.292261 -0.512274 178.437063
DOCKED: USER    NEWDPF dihe0 -102.04 44.27 34.66 -125.78 132.79 127.81 84.18 -34.46 -129.51 -20.43 
DOCKED: USER  keepresnum = 1 
DOCKED: USER  
DOCKED: REMARK  10 active torsions:
DOCKED: REMARK  status: ('A' for Active; 'I' for Inactive)
DOCKED: REMARK    1  A    between atoms: C_6  and  C_10 
DOCKED: REMARK    2  A    between atoms: C_10  and  C_11 
DOCKED: REMARK    3  A    between atoms: C_11  and  C_12 
DOCKED: REMARK    4  A    between atoms: C_12  and  O_14 
DOCKED: REMARK    5  A    between atoms: C_17  and  C_20 
DOCKED: REMARK    6  A    between atoms: C_24  and  C_27 
DOCKED: REMARK    7  A    between atoms: C_31  and  C_34 
DOCKED: REMARK    8  A    between atoms: C_34  and  C_35 
DOCKED: REMARK    9  A    between atoms: C_35  and  C_36 
DOCKED: REMARK   10  A    between atoms: C_36  and  O_38 
DOCKED: USER                              x       y       z     vdW  Elec       q    Type
DOCKED: USER                           _______ _______ _______ _____ _____    ______ ____
DOCKED: ROOT
DOCKED: ATOM      1  C   UNL d   1      11.410   3.893  18.430 -0.17 +0.01    +0.064 A 
DOCKED: ATOM      2  C   UNL d   1      10.056   6.806  14.932 -0.25 -0.01    +0.064 A 
DOCKED: ATOM      3  C   UNL d   1      11.987   3.893  11.633 -0.13 -0.00    +0.064 C 
DOCKED: ATOM      4  C   UNL d   1      12.965   0.654  15.185 -0.19 -0.01    +0.064 A 
DOCKED: ATOM      5  C   UNL d   1      10.883   4.922  17.748 -0.10 +0.01    +0.066 A 
DOCKED: ATOM      6  C   UNL d   1      10.242   6.011  18.345 -0.13 -0.00    -0.021 A 
DOCKED: ATOM      7  C   UNL d   1       9.812   6.834  17.331 -0.15 +0.00    -0.025 A 
DOCKED: ATOM      8  C   UNL d   1      10.243   6.249  16.144 -0.19 -0.00    +0.066 A 
DOCKED: ATOM      9  C   UNL d   1       9.002   8.097  17.526 -0.14 -0.00    +0.051 C 
DOCKED: ATOM     10  C   UNL d   1      10.506   6.251  13.655 -0.24 -0.00    +0.066 A 
DOCKED: ATOM     11  C   UNL d   1      10.430   6.949  12.444 -0.26 +0.00    -0.021 A 
DOCKED: ATOM     12  C   UNL d   1      10.999   6.132  11.483 -0.24 -0.00    +0.000 A 
DOCKED: ATOM     13  C   UNL d   1      11.386   4.952  12.176 -0.16 -0.00    +0.070 A 
DOCKED: ATOM     14  C   UNL d   1       9.865   8.346  12.217 -0.06 +0.01    +0.052 C 
DOCKED: ATOM     15  C   UNL d   1      12.364   2.666  12.293 -0.14 -0.01    +0.066 A 
DOCKED: ATOM     16  C   UNL d   1      12.840   1.531  11.638 -0.21 +0.00    -0.021 A 
DOCKED: ATOM     17  C   UNL d   1      13.125   0.593  12.630 -0.22 -0.00    +0.000 A 
DOCKED: ATOM     18  C   UNL d   1      12.799   1.236  13.833 -0.17 -0.01    +0.070 A 
DOCKED: ATOM     19  C   UNL d   1      12.928   1.423  10.136 -0.20 -0.01    +0.052 C 
DOCKED: ATOM     20  C   UNL d   1      12.622   1.226  16.356 -0.20 -0.01    +0.066 A 
DOCKED: ATOM     21  C   UNL d   1      12.820   0.635  17.601 -0.23 +0.00    -0.025 A 
DOCKED: ATOM     22  C   UNL d   1      12.408   1.555  18.538 -0.24 -0.00    -0.021 A 
DOCKED: ATOM     23  C   UNL d   1      11.955   2.670  17.827 -0.19 +0.00    +0.066 A 
DOCKED: ATOM     24  C   UNL d   1      13.371  -0.739  17.881 -0.25 +0.00    +0.051 C 
DOCKED: ATOM     25  N   UNL d   1      10.846   5.038  16.398 -0.12 +0.01    -0.248 N 
DOCKED: ATOM     26  N   UNL d   1      11.079   5.031  13.496 -0.15 +0.02    -0.248 N 
DOCKED: ATOM     27  N   UNL d   1      12.268   2.465  13.604 -0.09 +0.03    -0.248 N 
DOCKED: ATOM     28  N   UNL d   1      12.046   2.448  16.500 -0.13 +0.02    -0.248 N 
DOCKED: ATOM     29 FE   UNL d   1      11.566   3.728  15.007 -0.04 -0.00    +0.000 Fe
DOCKED: ATOM     30  O   UNL d   1      10.014   3.845  15.015 -0.26 -0.00    +0.000 OA
DOCKED: ATOM     31  O   UNL d   1      10.691   2.435  14.819 -0.48 -0.00    +0.000 OA
DOCKED: ENDROOT
DOCKED: BRANCH   6  32
DOCKED: ATOM     32  C   UNL d   1       9.924   6.207  19.805 -0.15 +0.01    +0.052 C 
DOCKED: BRANCH  32  33
DOCKED: ATOM     33  C   UNL d   1       9.323   4.964  20.452 -0.15 +0.04    +0.115 C 
DOCKED: BRANCH  33  34
DOCKED: ATOM     34  C   UNL d   1       7.817   5.027  20.531 -0.18 +0.04    +0.139 C 
DOCKED: ATOM     35  O   UNL d   1       7.252   6.103  20.419 +0.01 -0.04    -0.650 OA
DOCKED: BRANCH  34  36
DOCKED: ATOM     36  O   UNL d   1       7.078   3.920  20.753 -0.57 -0.26    -0.776 OA
DOCKED: ATOM     37  H   UNL d   1       6.612   3.467  20.041 -0.09 +0.03    +0.167 HD
DOCKED: ENDBRANCH  34  36
DOCKED: ENDBRANCH  33  34
DOCKED: ENDBRANCH  32  33
DOCKED: ENDBRANCH   6  32
DOCKED: BRANCH  22  38
DOCKED: ATOM     38  C   UNL d   1      12.392   1.342  20.030 -0.02 +0.01    +0.052 C 
DOCKED: BRANCH  38  39
DOCKED: ATOM     39  C   UNL d   1      13.763   1.568  20.665 -0.13 +0.03    +0.115 C 
DOCKED: BRANCH  39  40
DOCKED: ATOM     40  C   UNL d   1      13.668   2.194  22.033 -0.05 +0.07    +0.139 C 
DOCKED: ATOM     41  O   UNL d   1      13.629   3.409  22.143 +0.00 -0.39    -0.650 OA
DOCKED: BRANCH  40  42
DOCKED: ATOM     42  O   UNL d   1      13.573   1.434  23.141 -0.02 -0.52    -0.776 OA
DOCKED: ATOM     43  H   UNL d   1      14.154   0.678  23.286 +0.02 +0.07    +0.167 HD
DOCKED: ENDBRANCH  40  42
DOCKED: ENDBRANCH  39  40
DOCKED: ENDBRANCH  38  39
DOCKED: ENDBRANCH  22  38
DOCKED: BRANCH  12  44
DOCKED: ATOM     44  C   UNL d   1      11.107   6.553  10.033 -0.25 +0.00    +0.004 C 
DOCKED: ATOM     45  C   UNL d   1      11.091   5.775   8.951 -0.27 +0.00    +0.012 C 
DOCKED: ENDBRANCH  12  44
DOCKED: BRANCH  17  46
DOCKED: ATOM     46  C   UNL d   1      13.607  -0.830  12.537 -0.06 -0.00    +0.004 C 
DOCKED: ATOM     47  C   UNL d   1      13.131  -1.910  13.170 -0.36 -0.00    +0.012 C 
DOCKED: ENDBRANCH  17  46
DOCKED: TORSDOF 10
DOCKED: TER
DOCKED: ENDMDL
________________________________________________________________________________


	BEGINNING GENETIC ALGORITHM DOCKING 5 of 100
Run: 5 Seed: 1493139808 901526347 [ Run 5 of 100 GA/GALS ]
Beginning LAMARCKIAN GENETIC ALGORITHM (LGA), with a maximum of 25000000 energy evaluations.

Final-Value: -11.418


	FINAL GENETIC ALGORITHM DOCKED STATE
	_______________________________________________


Detailed state:  trans -10.401 10.657 -7.858 quatxyzw -0.421723 -0.797650 -0.390446 0.182911 center 8.287 34.468 -0.670 ntor 10 -142.4718 -61.3789 59.6587 -129.5086 72.3455 134.4450 113.5287 -148.3155 8.7474 -21.7840
State:	-10.401  10.657  -7.858  -0.429 -0.811 -0.397 158.921   -142.47  -61.38   59.66 -129.51   72.35  134.45  113.53 -148.32    8.75  -21.78

DOCKED: MODEL        5
DOCKED: USER    Run = 5
DOCKED: USER    DPF = D:/Protein_go_brrr/autodock/final/mut_K82N/heme_O2/dock.dpf
DOCKED: USER  
DOCKED: USER    Estimated Free Energy of Binding    =   -6.20 kcal/mol  [=(1)+(2)+(3)-(4)]
DOCKED: USER    Estimated Inhibition Constant, Ki   =   28.50 uM (micromolar)  [Temperature = 298.15 K]
DOCKED: USER    
DOCKED: USER    (1) Final Intermolecular Energy     =   -9.18 kcal/mol
DOCKED: USER        vdW + Hbond + desolv Energy     =   -6.56 kcal/mol
DOCKED: USER        Electrostatic Energy            =   -2.63 kcal/mol
DOCKED: USER    (2) Final Total Internal Energy     =   -2.23 kcal/mol
DOCKED: USER    (3) Torsional Free Energy           =   +2.98 kcal/mol
DOCKED: USER    (4) Unbound System's Energy  [=(2)] =   -2.23 kcal/mol
DOCKED: USER    
DOCKED: USER    
DOCKED: USER    NEWDPF move heme_O2_opt.pdbqt
DOCKED: USER    NEWDPF about 8.287000 34.468000 -0.670000
DOCKED: USER    NEWDPF tran0 -10.401461 10.656761 -7.857570
DOCKED: USER    NEWDPF quaternion0 -0.421723 -0.797650 -0.390446 0.182911
DOCKED: USER    NEWDPF axisangle0 -0.428960 -0.811337 -0.397146 158.921322
DOCKED: USER    NEWDPF quat0 -0.428960 -0.811337 -0.397146 158.921322
DOCKED: USER    NEWDPF dihe0 -142.47 -61.38 59.66 -129.51 72.35 134.45 113.53 -148.32 8.75 -21.78 
DOCKED: USER  keepresnum = 1 
DOCKED: USER  
DOCKED: REMARK  10 active torsions:
DOCKED: REMARK  status: ('A' for Active; 'I' for Inactive)
DOCKED: REMARK    1  A    between atoms: C_6  and  C_10 
DOCKED: REMARK    2  A    between atoms: C_10  and  C_11 
DOCKED: REMARK    3  A    between atoms: C_11  and  C_12 
DOCKED: REMARK    4  A    between atoms: C_12  and  O_14 
DOCKED: REMARK    5  A    between atoms: C_17  and  C_20 
DOCKED: REMARK    6  A    between atoms: C_24  and  C_27 
DOCKED: REMARK    7  A    between atoms: C_31  and  C_34 
DOCKED: REMARK    8  A    between atoms: C_34  and  C_35 
DOCKED: REMARK    9  A    between atoms: C_35  and  C_36 
DOCKED: REMARK   10  A    between atoms: C_36  and  O_38 
DOCKED: USER                              x       y       z     vdW  Elec       q    Type
DOCKED: USER                           _______ _______ _______ _____ _____    ______ ____
DOCKED: ROOT
DOCKED: ATOM      1  C   UNL d   1      -9.500   8.961  -6.957 -0.20 +0.02    +0.064 A 
DOCKED: ATOM      2  C   UNL d   1      -9.321  10.731 -11.361 -0.08 +0.01    +0.064 A 
DOCKED: ATOM      3  C   UNL d   1     -12.315  14.290 -10.152 -0.09 +0.02    +0.064 C 
DOCKED: ATOM      4  C   UNL d   1     -12.130  12.754  -5.496 -0.14 +0.02    +0.064 A 
DOCKED: ATOM      5  C   UNL d   1      -9.205   9.153  -8.253 -0.16 +0.02    +0.066 A 
DOCKED: ATOM      6  C   UNL d   1      -8.375   8.312  -9.000 -0.18 -0.00    -0.021 A 
DOCKED: ATOM      7  C   UNL d   1      -8.288   8.848 -10.264 -0.13 -0.00    -0.025 A 
DOCKED: ATOM      8  C   UNL d   1      -9.106   9.974 -10.268 -0.12 +0.01    +0.066 A 
DOCKED: ATOM      9  C   UNL d   1      -7.428   8.297 -11.380 -0.18 +0.00    +0.051 C 
DOCKED: ATOM     10  C   UNL d   1     -10.185  11.910 -11.432 +0.03 +0.02    +0.066 A 
DOCKED: ATOM     11  C   UNL d   1     -10.501  12.561 -12.629 -0.07 -0.00    -0.021 A 
DOCKED: ATOM     12  C   UNL d   1     -11.378  13.580 -12.304 -0.07 +0.00    +0.000 A 
DOCKED: ATOM     13  C   UNL d   1     -11.541  13.497 -10.893 -0.08 +0.02    +0.070 A 
DOCKED: ATOM     14  C   UNL d   1     -10.009  12.210 -14.029 -0.05 +0.00    +0.052 C 
DOCKED: ATOM     15  C   UNL d   1     -12.480  14.262  -8.718 -0.11 +0.03    +0.066 A 
DOCKED: ATOM     16  C   UNL d   1     -13.176  15.221  -7.984 -0.10 -0.01    -0.021 A 
DOCKED: ATOM     17  C   UNL d   1     -13.136  14.805  -6.653 -0.11 +0.00    +0.000 A 
DOCKED: ATOM     18  C   UNL d   1     -12.410  13.605  -6.677 -0.13 +0.03    +0.070 A 
DOCKED: ATOM     19  C   UNL d   1     -13.763  16.465  -8.603 -0.07 +0.03    +0.052 C 
DOCKED: ATOM     20  C   UNL d   1     -11.401  11.621  -5.476 -0.16 +0.02    +0.066 A 
DOCKED: ATOM     21  C   UNL d   1     -11.186  10.852  -4.336 -0.23 -0.01    -0.025 A 
DOCKED: ATOM     22  C   UNL d   1     -10.461   9.752  -4.739 -0.30 -0.01    -0.021 A 
DOCKED: ATOM     23  C   UNL d   1     -10.245   9.901  -6.112 -0.20 +0.02    +0.066 A 
DOCKED: ATOM     24  C   UNL d   1     -11.645  11.152  -2.933 -0.25 +0.01    +0.051 C 
DOCKED: ATOM     25  N   UNL d   1      -9.619  10.199  -9.011 -0.08 -0.05    -0.248 N 
DOCKED: ATOM     26  N   UNL d   1     -10.808  12.482 -10.370 -0.08 -0.09    -0.248 N 
DOCKED: ATOM     27  N   UNL d   1     -11.957  13.330  -7.926 -0.08 -0.11    -0.248 N 
DOCKED: ATOM     28  N   UNL d   1     -10.779  11.061  -6.548 -0.09 -0.07    -0.248 N 
DOCKED: ATOM     29 FE   UNL d   1     -10.795  11.769  -8.444 -0.03 +0.00    +0.000 Fe
DOCKED: ATOM     30  O   UNL d   1      -9.327  12.169  -8.771 -0.27 +0.00    +0.000 OA
DOCKED: ATOM     31  O   UNL d   1     -10.065  12.835  -7.549 -0.39 +0.00    +0.000 OA
DOCKED: ENDROOT
DOCKED: BRANCH   6  32
DOCKED: ATOM     32  C   UNL d   1      -7.582   7.127  -8.513 -0.21 +0.01    +0.052 C 
DOCKED: BRANCH  32  33
DOCKED: ATOM     33  C   UNL d   1      -8.339   5.810  -8.653 -0.20 +0.05    +0.115 C 
DOCKED: BRANCH  33  34
DOCKED: ATOM     34  C   UNL d   1      -9.515   5.720  -7.712 -0.06 +0.14    +0.139 C 
DOCKED: ATOM     35  O   UNL d   1      -9.329   5.446  -6.538 -0.51 -1.06    -0.650 OA
DOCKED: BRANCH  34  36
DOCKED: ATOM     36  O   UNL d   1     -10.778   5.908  -8.147 -0.10 -0.84    -0.776 OA
DOCKED: ATOM     37  H   UNL d   1     -11.438   6.369  -7.615 +0.02 +0.19    +0.167 HD
DOCKED: ENDBRANCH  34  36
DOCKED: ENDBRANCH  33  34
DOCKED: ENDBRANCH  32  33
DOCKED: ENDBRANCH   6  32
DOCKED: BRANCH  22  38
DOCKED: ATOM     38  C   UNL d   1      -9.953   8.657  -3.838 -0.37 +0.02    +0.052 C 
DOCKED: BRANCH  38  39
DOCKED: ATOM     39  C   UNL d   1     -11.036   7.635  -3.497 -0.34 +0.06    +0.115 C 
DOCKED: BRANCH  39  40
DOCKED: ATOM     40  C   UNL d   1     -12.050   7.480  -4.602 -0.16 +0.10    +0.139 C 
DOCKED: ATOM     41  O   UNL d   1     -12.958   8.289  -4.709 +0.04 -0.28    -0.650 OA
DOCKED: BRANCH  40  42
DOCKED: ATOM     42  O   UNL d   1     -11.945   6.489  -5.509 -0.16 -1.27    -0.776 OA
DOCKED: ATOM     43  H   UNL d   1     -11.165   6.398  -6.068 +0.02 +0.29    +0.167 HD
DOCKED: ENDBRANCH  40  42
DOCKED: ENDBRANCH  39  40
DOCKED: ENDBRANCH  38  39
DOCKED: ENDBRANCH  22  38
DOCKED: BRANCH  12  44
DOCKED: ATOM     44  C   UNL d   1     -11.955  14.509 -13.351 -0.03 +0.00    +0.004 C 
DOCKED: ATOM     45  C   UNL d   1     -11.906  15.840 -13.380 -0.04 +0.00    +0.012 C 
DOCKED: ENDBRANCH  12  44
DOCKED: BRANCH  17  46
DOCKED: ATOM     46  C   UNL d   1     -13.657  15.453  -5.398 -0.12 +0.00    +0.004 C 
DOCKED: ATOM     47  C   UNL d   1     -13.048  15.568  -4.211 -0.15 +0.01    +0.012 C 
DOCKED: ENDBRANCH  17  46
DOCKED: TORSDOF 10
DOCKED: TER
DOCKED: ENDMDL
________________________________________________________________________________


	BEGINNING GENETIC ALGORITHM DOCKING 6 of 100
Run: 6 Seed: 1805048587 1544629388 [ Run 6 of 100 GA/GALS ]
Beginning LAMARCKIAN GENETIC ALGORITHM (LGA), with a maximum of 25000000 energy evaluations.

Final-Value: -9.160


	FINAL GENETIC ALGORITHM DOCKED STATE
	_______________________________________________


Detailed state:  trans 11.564 3.734 16.894 quatxyzw -0.122845 0.534282 -0.425105 -0.720235 center 8.287 34.468 -0.670 ntor 10 48.0331 88.3195 -93.8656 -108.3499 57.6333 175.4107 -134.3573 -44.1481 3.6565 157.9514
State:	 11.564   3.734  16.894  -0.177  0.770 -0.613 -87.852     48.03   88.32  -93.87 -108.35   57.63  175.41 -134.36  -44.15    3.66  157.95

DOCKED: MODEL        6
DOCKED: USER    Run = 6
DOCKED: USER    DPF = D:/Protein_go_brrr/autodock/final/mut_K82N/heme_O2/dock.dpf
DOCKED: USER  
DOCKED: USER    Estimated Free Energy of Binding    =   -5.37 kcal/mol  [=(1)+(2)+(3)-(4)]
DOCKED: USER    Estimated Inhibition Constant, Ki   =  115.72 uM (micromolar)  [Temperature = 298.15 K]
DOCKED: USER    
DOCKED: USER    (1) Final Intermolecular Energy     =   -8.35 kcal/mol
DOCKED: USER        vdW + Hbond + desolv Energy     =   -7.70 kcal/mol
DOCKED: USER        Electrostatic Energy            =   -0.65 kcal/mol
DOCKED: USER    (2) Final Total Internal Energy     =   -0.81 kcal/mol
DOCKED: USER    (3) Torsional Free Energy           =   +2.98 kcal/mol
DOCKED: USER    (4) Unbound System's Energy  [=(2)] =   -0.81 kcal/mol
DOCKED: USER    
DOCKED: USER    
DOCKED: USER    NEWDPF move heme_O2_opt.pdbqt
DOCKED: USER    NEWDPF about 8.287000 34.468000 -0.670000
DOCKED: USER    NEWDPF tran0 11.564190 3.734144 16.894177
DOCKED: USER    NEWDPF quaternion0 -0.122845 0.534282 -0.425105 -0.720235
DOCKED: USER    NEWDPF axisangle0 -0.177079 0.770158 -0.612781 -87.852298
DOCKED: USER    NEWDPF quat0 -0.177079 0.770158 -0.612781 -87.852298
DOCKED: USER    NEWDPF dihe0 48.03 88.32 -93.87 -108.35 57.63 175.41 -134.36 -44.15 3.66 157.95 
DOCKED: USER  keepresnum = 1 
DOCKED: USER  
DOCKED: REMARK  10 active torsions:
DOCKED: REMARK  status: ('A' for Active; 'I' for Inactive)
DOCKED: REMARK    1  A    between atoms: C_6  and  C_10 
DOCKED: REMARK    2  A    between atoms: C_10  and  C_11 
DOCKED: REMARK    3  A    between atoms: C_11  and  C_12 
DOCKED: REMARK    4  A    between atoms: C_12  and  O_14 
DOCKED: REMARK    5  A    between atoms: C_17  and  C_20 
DOCKED: REMARK    6  A    between atoms: C_24  and  C_27 
DOCKED: REMARK    7  A    between atoms: C_31  and  C_34 
DOCKED: REMARK    8  A    between atoms: C_34  and  C_35 
DOCKED: REMARK    9  A    between atoms: C_35  and  C_36 
DOCKED: REMARK   10  A    between atoms: C_36  and  O_38 
DOCKED: USER                              x       y       z     vdW  Elec       q    Type
DOCKED: USER                           _______ _______ _______ _____ _____    ______ ____
DOCKED: ROOT
DOCKED: ATOM      1  C   UNL d   1      11.028   5.713  17.439 -0.11 +0.00    +0.064 A 
DOCKED: ATOM      2  C   UNL d   1      13.036   2.152  19.857 -0.16 +0.01    +0.064 A 
DOCKED: ATOM      3  C   UNL d   1      12.790  -0.721  16.013 -0.33 -0.01    +0.064 C 
DOCKED: ATOM      4  C   UNL d   1      11.162   3.083  13.376 -0.08 -0.01    +0.064 A 
DOCKED: ATOM      5  C   UNL d   1      11.596   4.979  18.410 -0.13 +0.01    +0.066 A 
DOCKED: ATOM      6  C   UNL d   1      11.827   5.443  19.708 -0.12 -0.00    -0.021 A 
DOCKED: ATOM      7  C   UNL d   1      12.448   4.428  20.397 -0.13 -0.01    -0.025 A 
DOCKED: ATOM      8  C   UNL d   1      12.535   3.354  19.515 -0.16 +0.01    +0.066 A 
DOCKED: ATOM      9  C   UNL d   1      12.946   4.527  21.822 +0.06 +0.03    +0.051 C 
DOCKED: ATOM     10  C   UNL d   1      13.132   0.982  18.983 -0.17 +0.01    +0.066 A 
DOCKED: ATOM     11  C   UNL d   1      13.508  -0.287  19.435 -0.16 -0.00    -0.021 A 
DOCKED: ATOM     12  C   UNL d   1      13.426  -1.134  18.344 -0.23 +0.00    +0.000 A 
DOCKED: ATOM     13  C   UNL d   1      13.007  -0.311  17.262 -0.25 -0.00    +0.070 A 
DOCKED: ATOM     14  C   UNL d   1      13.903  -0.682  20.853 -0.12 +0.01    +0.052 C 
DOCKED: ATOM     15  C   UNL d   1      12.400   0.086  14.881 -0.24 -0.02    +0.066 A 
DOCKED: ATOM     16  C   UNL d   1      12.348  -0.371  13.565 -0.36 +0.01    -0.021 A 
DOCKED: ATOM     17  C   UNL d   1      11.887   0.697  12.795 -0.36 -0.00    +0.000 A 
DOCKED: ATOM     18  C   UNL d   1      11.688   1.739  13.712 -0.27 -0.01    +0.070 A 
DOCKED: ATOM     19  C   UNL d   1      12.790  -1.753  13.156 -0.42 -0.02    +0.052 C 
DOCKED: ATOM     20  C   UNL d   1      11.000   4.118  14.223 -0.21 -0.01    +0.066 A 
DOCKED: ATOM     21  C   UNL d   1      10.483   5.356  13.852 -0.23 +0.00    -0.025 A 
DOCKED: ATOM     22  C   UNL d   1      10.412   6.109  15.003 -0.24 +0.00    -0.021 A 
DOCKED: ATOM     23  C   UNL d   1      10.907   5.306  16.034 -0.17 -0.00    +0.066 A 
DOCKED: ATOM     24  C   UNL d   1      10.081   5.800  12.469 -0.11 -0.00    +0.051 C 
DOCKED: ATOM     25  N   UNL d   1      12.070   3.717  18.272 -0.12 -0.02    -0.248 N 
DOCKED: ATOM     26  N   UNL d   1      12.836   0.976  17.658 -0.12 +0.01    -0.248 N 
DOCKED: ATOM     27  N   UNL d   1      12.075   1.374  14.961 -0.15 +0.05    -0.248 N 
DOCKED: ATOM     28  N   UNL d   1      11.305   4.112  15.548 -0.13 +0.02    -0.248 N 
DOCKED: ATOM     29 FE   UNL d   1      12.065   2.554  16.593 -0.04 -0.00    +0.000 Fe
DOCKED: ATOM     30  O   UNL d   1      13.487   2.990  17.051 -0.09 -0.00    +0.000 OA
DOCKED: ATOM     31  O   UNL d   1      13.135   2.966  15.516 -0.10 -0.00    +0.000 OA
DOCKED: ENDROOT
DOCKED: BRANCH   6  32
DOCKED: ATOM     32  C   UNL d   1      11.600   6.833  20.246 -0.06 +0.01    +0.052 C 
DOCKED: BRANCH  32  33
DOCKED: ATOM     33  C   UNL d   1      10.181   7.042  20.766 -0.06 +0.02    +0.115 C 
DOCKED: BRANCH  33  34
DOCKED: ATOM     34  C   UNL d   1       9.692   5.875  21.587 -0.14 +0.05    +0.139 C 
DOCKED: ATOM     35  O   UNL d   1       9.054   4.984  21.048 -0.14 -0.26    -0.650 OA
DOCKED: BRANCH  34  36
DOCKED: ATOM     36  O   UNL d   1       9.918   5.804  22.915 +0.01 -0.54    -0.776 OA
DOCKED: ATOM     37  H   UNL d   1       9.742   6.547  23.503 +0.01 +0.09    +0.167 HD
DOCKED: ENDBRANCH  34  36
DOCKED: ENDBRANCH  33  34
DOCKED: ENDBRANCH  32  33
DOCKED: ENDBRANCH   6  32
DOCKED: BRANCH  22  38
DOCKED: ATOM     38  C   UNL d   1       9.954   7.543  15.087 -0.26 -0.00    +0.052 C 
DOCKED: BRANCH  38  39
DOCKED: ATOM     39  C   UNL d   1      11.122   8.524  15.160 -0.08 -0.00    +0.115 C 
DOCKED: BRANCH  39  40
DOCKED: ATOM     40  C   UNL d   1      10.942   9.704  14.239 -0.09 +0.00    +0.139 C 
DOCKED: ATOM     41  O   UNL d   1      10.474   9.537  13.124 -0.41 -0.07    -0.650 OA
DOCKED: BRANCH  40  42
DOCKED: ATOM     42  O   UNL d   1      11.241  10.954  14.643 +0.02 +0.00    -0.776 OA
DOCKED: ATOM     43  H   UNL d   1      12.118  11.332  14.507 +0.01 -0.00    +0.167 HD
DOCKED: ENDBRANCH  40  42
DOCKED: ENDBRANCH  39  40
DOCKED: ENDBRANCH  38  39
DOCKED: ENDBRANCH  22  38
DOCKED: BRANCH  12  44
DOCKED: ATOM     44  C   UNL d   1      13.753  -2.609  18.445 -0.22 +0.00    +0.004 C 
DOCKED: ATOM     45  C   UNL d   1      12.968  -3.594  18.880 -0.25 +0.00    +0.012 C 
DOCKED: ENDBRANCH  12  44
DOCKED: BRANCH  17  46
DOCKED: ATOM     46  C   UNL d   1      11.682   0.828  11.309 -0.31 -0.00    +0.004 C 
DOCKED: ATOM     47  C   UNL d   1      12.322   1.635  10.453 -0.29 -0.00    +0.012 C 
DOCKED: ENDBRANCH  17  46
DOCKED: TORSDOF 10
DOCKED: TER
DOCKED: ENDMDL
________________________________________________________________________________


	BEGINNING GENETIC ALGORITHM DOCKING 7 of 100
Run: 7 Seed: 86074213 1928779844 [ Run 7 of 100 GA/GALS ]
Beginning LAMARCKIAN GENETIC ALGORITHM (LGA), with a maximum of 25000000 energy evaluations.

Final-Value: -10.440


	FINAL GENETIC ALGORITHM DOCKED STATE
	_______________________________________________


Detailed state:  trans -11.973 13.540 -8.504 quatxyzw -0.230708 0.159024 -0.423847 -0.861301 center 8.287 34.468 -0.670 ntor 10 -95.8174 162.3985 -62.3421 -83.8055 30.7158 149.8306 -80.6925 100.2473 155.7293 159.1383
State:	-11.973  13.540  -8.504  -0.454  0.313 -0.834 -61.074    -95.82  162.40  -62.34  -83.81   30.72  149.83  -80.69  100.25  155.73  159.14

DOCKED: MODEL        7
DOCKED: USER    Run = 7
DOCKED: USER    DPF = D:/Protein_go_brrr/autodock/final/mut_K82N/heme_O2/dock.dpf
DOCKED: USER  
DOCKED: USER    Estimated Free Energy of Binding    =   -5.00 kcal/mol  [=(1)+(2)+(3)-(4)]
DOCKED: USER    Estimated Inhibition Constant, Ki   =  217.57 uM (micromolar)  [Temperature = 298.15 K]
DOCKED: USER    
DOCKED: USER    (1) Final Intermolecular Energy     =   -7.98 kcal/mol
DOCKED: USER        vdW + Hbond + desolv Energy     =   -6.31 kcal/mol
DOCKED: USER        Electrostatic Energy            =   -1.67 kcal/mol
DOCKED: USER    (2) Final Total Internal Energy     =   -2.46 kcal/mol
DOCKED: USER    (3) Torsional Free Energy           =   +2.98 kcal/mol
DOCKED: USER    (4) Unbound System's Energy  [=(2)] =   -2.46 kcal/mol
DOCKED: USER    
DOCKED: USER    
DOCKED: USER    NEWDPF move heme_O2_opt.pdbqt
DOCKED: USER    NEWDPF about 8.287000 34.468000 -0.670000
DOCKED: USER    NEWDPF tran0 -11.973029 13.540202 -8.503513
DOCKED: USER    NEWDPF quaternion0 -0.230708 0.159024 -0.423847 -0.861301
DOCKED: USER    NEWDPF axisangle0 -0.454063 0.312981 -0.834188 -61.074136
DOCKED: USER    NEWDPF quat0 -0.454063 0.312981 -0.834188 -61.074136
DOCKED: USER    NEWDPF dihe0 -95.82 162.40 -62.34 -83.81 30.72 149.83 -80.69 100.25 155.73 159.14 
DOCKED: USER  keepresnum = 1 
DOCKED: USER  
DOCKED: REMARK  10 active torsions:
DOCKED: REMARK  status: ('A' for Active; 'I' for Inactive)
DOCKED: REMARK    1  A    between atoms: C_6  and  C_10 
DOCKED: REMARK    2  A    between atoms: C_10  and  C_11 
DOCKED: REMARK    3  A    between atoms: C_11  and  C_12 
DOCKED: REMARK    4  A    between atoms: C_12  and  O_14 
DOCKED: REMARK    5  A    between atoms: C_17  and  C_20 
DOCKED: REMARK    6  A    between atoms: C_24  and  C_27 
DOCKED: REMARK    7  A    between atoms: C_31  and  C_34 
DOCKED: REMARK    8  A    between atoms: C_34  and  C_35 
DOCKED: REMARK    9  A    between atoms: C_35  and  C_36 
DOCKED: REMARK   10  A    between atoms: C_36  and  O_38 
DOCKED: USER                              x       y       z     vdW  Elec       q    Type
DOCKED: USER                           _______ _______ _______ _____ _____    ______ ____
DOCKED: ROOT
DOCKED: ATOM      1  C   UNL d   1     -13.057  15.154  -9.352 -0.07 +0.03    +0.064 A 
DOCKED: ATOM      2  C   UNL d   1     -12.414  13.727  -4.868 -0.15 +0.03    +0.064 A 
DOCKED: ATOM      3  C   UNL d   1      -9.732  10.019  -6.335 -0.27 +0.02    +0.064 C 
DOCKED: ATOM      4  C   UNL d   1      -9.990  11.751 -10.918 +0.20 +0.03    +0.064 A 
DOCKED: ATOM      5  C   UNL d   1     -13.099  15.070  -8.012 -0.09 +0.04    +0.066 A 
DOCKED: ATOM      6  C   UNL d   1     -13.806  15.956  -7.194 -0.08 -0.01    -0.021 A 
DOCKED: ATOM      7  C   UNL d   1     -13.585  15.569  -5.893 -0.08 -0.01    -0.025 A 
DOCKED: ATOM      8  C   UNL d   1     -12.789  14.428  -5.954 -0.10 +0.04    +0.066 A 
DOCKED: ATOM      9  C   UNL d   1     -14.102  16.300  -4.673 -0.08 +0.02    +0.051 C 
DOCKED: ATOM     10  C   UNL d   1     -11.600  12.511  -4.871 -0.20 +0.02    +0.066 A 
DOCKED: ATOM     11  C   UNL d   1     -11.376  11.731  -3.731 -0.27 -0.01    -0.021 A 
DOCKED: ATOM     12  C   UNL d   1     -10.620  10.647  -4.137 -0.35 +0.00    +0.000 A 
DOCKED: ATOM     13  C   UNL d   1     -10.410  10.838  -5.531 -0.24 +0.02    +0.070 A 
DOCKED: ATOM     14  C   UNL d   1     -11.886  11.994  -2.319 -0.11 +0.01    +0.052 C 
DOCKED: ATOM     15  C   UNL d   1      -9.467  10.194  -7.743 -0.17 +0.02    +0.066 A 
DOCKED: ATOM     16  C   UNL d   1      -8.614   9.385  -8.493 -0.22 -0.00    -0.021 A 
DOCKED: ATOM     17  C   UNL d   1      -8.670   9.861  -9.803 -0.18 +0.00    +0.000 A 
DOCKED: ATOM     18  C   UNL d   1      -9.568  10.937  -9.753 -0.05 +0.02    +0.070 A 
DOCKED: ATOM     19  C   UNL d   1      -7.787   8.279  -7.889 -0.25 +0.01    +0.052 C 
DOCKED: ATOM     20  C   UNL d   1     -10.815  12.816 -10.898 -0.04 +0.02    +0.066 A 
DOCKED: ATOM     21  C   UNL d   1     -11.191  13.533 -12.031 -0.08 -0.01    -0.025 A 
DOCKED: ATOM     22  C   UNL d   1     -12.086  14.489 -11.607 -0.06 -0.01    -0.021 A 
DOCKED: ATOM     23  C   UNL d   1     -12.210  14.332 -10.223 -0.09 +0.03    +0.066 A 
DOCKED: ATOM     24  C   UNL d   1     -10.717  13.318 -13.445 -0.06 +0.01    +0.051 C 
DOCKED: ATOM     25  N   UNL d   1     -12.437  14.160  -7.257 -0.09 -0.15    -0.248 N 
DOCKED: ATOM     26  N   UNL d   1     -11.005  11.977  -5.968 -0.12 -0.08    -0.248 N 
DOCKED: ATOM     27  N   UNL d   1      -9.983  11.171  -8.482 -0.11 -0.06    -0.248 N 
DOCKED: ATOM     28  N   UNL d   1     -11.401  13.343  -9.790 -0.09 -0.09    -0.248 N 
DOCKED: ATOM     29 FE   UNL d   1     -11.202  12.663  -7.894 -0.03 +0.00    +0.000 Fe
DOCKED: ATOM     30  O   UNL d   1     -10.471  13.786  -7.104 -0.38 +0.00    +0.000 OA
DOCKED: ATOM     31  O   UNL d   1      -9.785  13.150  -8.371 -0.40 +0.00    +0.000 OA
DOCKED: ENDROOT
DOCKED: BRANCH   6  32
DOCKED: ATOM     32  C   UNL d   1     -14.548  17.201  -7.606 -0.05 +0.02    +0.052 C 
DOCKED: BRANCH  32  33
DOCKED: ATOM     33  C   UNL d   1     -14.012  18.460  -6.933 -0.06 +0.06    +0.115 C 
DOCKED: BRANCH  33  34
DOCKED: ATOM     34  C   UNL d   1     -13.040  19.212  -7.809 -0.05 +0.11    +0.139 C 
DOCKED: ATOM     35  O   UNL d   1     -11.897  19.396  -7.423 -0.40 -0.97    -0.650 OA
DOCKED: BRANCH  34  36
DOCKED: ATOM     36  O   UNL d   1     -13.414  19.713  -9.004 -0.00 -0.33    -0.776 OA
DOCKED: ATOM     37  H   UNL d   1     -13.268  19.234  -9.828 +0.01 +0.07    +0.167 HD
DOCKED: ENDBRANCH  34  36
DOCKED: ENDBRANCH  33  34
DOCKED: ENDBRANCH  32  33
DOCKED: ENDBRANCH   6  32
DOCKED: BRANCH  22  38
DOCKED: ATOM     38  C   UNL d   1     -12.732  15.535 -12.479 -0.02 +0.01    +0.052 C 
DOCKED: BRANCH  38  39
DOCKED: ATOM     39  C   UNL d   1     -12.031  16.888 -12.383 -0.04 +0.03    +0.115 C 
DOCKED: BRANCH  39  40
DOCKED: ATOM     40  C   UNL d   1     -12.450  17.669 -11.163 -0.04 +0.05    +0.139 C 
DOCKED: ATOM     41  O   UNL d   1     -13.601  18.063 -11.062 +0.02 -0.17    -0.650 OA
DOCKED: BRANCH  40  42
DOCKED: ATOM     42  O   UNL d   1     -11.588  17.898 -10.153 -0.03 -0.66    -0.776 OA
DOCKED: ATOM     43  H   UNL d   1     -11.768  18.562  -9.477 +0.02 +0.19    +0.167 HD
DOCKED: ENDBRANCH  40  42
DOCKED: ENDBRANCH  39  40
DOCKED: ENDBRANCH  38  39
DOCKED: ENDBRANCH  22  38
DOCKED: BRANCH  12  44
DOCKED: ATOM     44  C   UNL d   1     -10.182   9.565  -3.172 -0.39 +0.00    +0.004 C 
DOCKED: ATOM     45  C   UNL d   1     -10.561   8.288  -3.147 -0.47 +0.00    +0.012 C 
DOCKED: ENDBRANCH  12  44
DOCKED: BRANCH  17  46
DOCKED: ATOM     46  C   UNL d   1      -7.929   9.435 -11.042 -0.19 +0.00    +0.004 C 
DOCKED: ATOM     47  C   UNL d   1      -6.762   9.898 -11.510 -0.29 -0.00    +0.012 C 
DOCKED: ENDBRANCH  17  46
DOCKED: TORSDOF 10
DOCKED: TER
DOCKED: ENDMDL
________________________________________________________________________________


	BEGINNING GENETIC ALGORITHM DOCKING 8 of 100
Run: 8 Seed: 606062910 725840286 [ Run 8 of 100 GA/GALS ]
Beginning LAMARCKIAN GENETIC ALGORITHM (LGA), with a maximum of 25000000 energy evaluations.

Final-Value: -8.867


	FINAL GENETIC ALGORITHM DOCKED STATE
	_______________________________________________


Detailed state:  trans 9.469 -5.721 20.678 quatxyzw -0.521069 0.163433 0.731948 0.407465 center 8.287 34.468 -0.670 ntor 10 23.5143 -140.3798 -102.7746 -114.5450 58.2396 144.6981 175.2228 117.0560 -167.6357 176.5301
State:	  9.469  -5.721  20.678  -0.571  0.179  0.802 131.909     23.51 -140.38 -102.77 -114.54   58.24  144.70  175.22  117.06 -167.64  176.53

DOCKED: MODEL        8
DOCKED: USER    Run = 8
DOCKED: USER    DPF = D:/Protein_go_brrr/autodock/final/mut_K82N/heme_O2/dock.dpf
DOCKED: USER  
DOCKED: USER    Estimated Free Energy of Binding    =   -3.45 kcal/mol  [=(1)+(2)+(3)-(4)]
DOCKED: USER    Estimated Inhibition Constant, Ki   =    2.97 mM (millimolar)  [Temperature = 298.15 K]
DOCKED: USER    
DOCKED: USER    (1) Final Intermolecular Energy     =   -6.43 kcal/mol
DOCKED: USER        vdW + Hbond + desolv Energy     =   -6.35 kcal/mol
DOCKED: USER        Electrostatic Energy            =   -0.08 kcal/mol
DOCKED: USER    (2) Final Total Internal Energy     =   -2.44 kcal/mol
DOCKED: USER    (3) Torsional Free Energy           =   +2.98 kcal/mol
DOCKED: USER    (4) Unbound System's Energy  [=(2)] =   -2.44 kcal/mol
DOCKED: USER    
DOCKED: USER    
DOCKED: USER    NEWDPF move heme_O2_opt.pdbqt
DOCKED: USER    NEWDPF about 8.287000 34.468000 -0.670000
DOCKED: USER    NEWDPF tran0 9.469026 -5.720737 20.678342
DOCKED: USER    NEWDPF quaternion0 -0.521069 0.163433 0.731948 0.407465
DOCKED: USER    NEWDPF axisangle0 -0.570584 0.178964 0.801502 131.908588
DOCKED: USER    NEWDPF quat0 -0.570584 0.178964 0.801502 131.908588
DOCKED: USER    NEWDPF dihe0 23.51 -140.38 -102.77 -114.54 58.24 144.70 175.22 117.06 -167.64 176.53 
DOCKED: USER  keepresnum = 1 
DOCKED: USER  
DOCKED: REMARK  10 active torsions:
DOCKED: REMARK  status: ('A' for Active; 'I' for Inactive)
DOCKED: REMARK    1  A    between atoms: C_6  and  C_10 
DOCKED: REMARK    2  A    between atoms: C_10  and  C_11 
DOCKED: REMARK    3  A    between atoms: C_11  and  C_12 
DOCKED: REMARK    4  A    between atoms: C_12  and  O_14 
DOCKED: REMARK    5  A    between atoms: C_17  and  C_20 
DOCKED: REMARK    6  A    between atoms: C_24  and  C_27 
DOCKED: REMARK    7  A    between atoms: C_31  and  C_34 
DOCKED: REMARK    8  A    between atoms: C_34  and  C_35 
DOCKED: REMARK    9  A    between atoms: C_35  and  C_36 
DOCKED: REMARK   10  A    between atoms: C_36  and  O_38 
DOCKED: USER                              x       y       z     vdW  Elec       q    Type
DOCKED: USER                           _______ _______ _______ _____ _____    ______ ____
DOCKED: ROOT
DOCKED: ATOM      1  C   UNL d   1      10.676  -4.508  21.933 -0.12 +0.00    +0.064 A 
DOCKED: ATOM      2  C   UNL d   1       6.046  -4.421  20.878 -0.20 -0.01    +0.064 A 
DOCKED: ATOM      3  C   UNL d   1       6.553  -8.175  17.922 -0.13 -0.00    +0.064 C 
DOCKED: ATOM      4  C   UNL d   1      11.225  -8.576  19.365 -0.17 +0.01    +0.064 A 
DOCKED: ATOM      5  C   UNL d   1       9.375  -4.179  21.888 -0.16 -0.00    +0.066 A 
DOCKED: ATOM      6  C   UNL d   1       8.813  -3.112  22.595 -0.20 +0.00    -0.021 A 
DOCKED: ATOM      7  C   UNL d   1       7.464  -3.113  22.325 -0.23 +0.00    -0.025 A 
DOCKED: ATOM      8  C   UNL d   1       7.248  -4.150  21.422 -0.24 -0.01    +0.066 A 
DOCKED: ATOM      9  C   UNL d   1       6.457  -2.168  22.943 -0.24 -0.00    +0.051 C 
DOCKED: ATOM     10  C   UNL d   1       5.762  -5.481  19.910 -0.23 -0.01    +0.066 A 
DOCKED: ATOM     11  C   UNL d   1       4.533  -5.614  19.254 -0.25 +0.00    -0.021 A 
DOCKED: ATOM     12  C   UNL d   1       4.665  -6.681  18.383 -0.23 -0.00    +0.000 A 
DOCKED: ATOM     13  C   UNL d   1       5.993  -7.155  18.571 -0.19 -0.00    +0.070 A 
DOCKED: ATOM     14  C   UNL d   1       3.294  -4.744  19.429 -0.33 -0.01    +0.052 C 
DOCKED: ATOM     15  C   UNL d   1       7.881  -8.709  18.108 -0.21 +0.01    +0.066 A 
DOCKED: ATOM     16  C   UNL d   1       8.353  -9.880  17.516 -0.23 -0.00    -0.021 A 
DOCKED: ATOM     17  C   UNL d   1       9.683 -10.015  17.914 -0.20 +0.00    +0.000 A 
DOCKED: ATOM     18  C   UNL d   1       9.927  -8.900  18.728 -0.19 +0.01    +0.070 A 
DOCKED: ATOM     19  C   UNL d   1       7.485 -10.785  16.678 -0.25 -0.00    +0.052 C 
DOCKED: ATOM     20  C   UNL d   1      11.482  -7.539  20.186 -0.12 +0.01    +0.066 A 
DOCKED: ATOM     21  C   UNL d   1      12.730  -7.275  20.742 -0.08 -0.00    -0.025 A 
DOCKED: ATOM     22  C   UNL d   1      12.599  -6.104  21.455 -0.07 -0.00    -0.021 A 
DOCKED: ATOM     23  C   UNL d   1      11.266  -5.705  21.321 -0.06 +0.00    +0.066 A 
DOCKED: ATOM     24  C   UNL d   1      13.983  -8.099  20.604 -0.05 +0.00    +0.051 C 
DOCKED: ATOM     25  N   UNL d   1       8.414  -4.848  21.205 -0.11 +0.01    -0.248 N 
DOCKED: ATOM     26  N   UNL d   1       6.651  -6.422  19.505 -0.14 +0.02    -0.248 N 
DOCKED: ATOM     27  N   UNL d   1       8.802  -8.159  18.895 -0.11 -0.04    -0.248 N 
DOCKED: ATOM     28  N   UNL d   1      10.579  -6.604  20.586 -0.01 -0.02    -0.248 N 
DOCKED: ATOM     29 FE   UNL d   1       8.630  -6.517  20.048 -0.05 +0.00    +0.000 Fe
DOCKED: ATOM     30  O   UNL d   1       7.809  -6.755  21.348 -0.10 -0.00    +0.000 OA
DOCKED: ATOM     31  O   UNL d   1       8.835  -7.847  20.862 -0.10 +0.00    +0.000 OA
DOCKED: ENDROOT
DOCKED: BRANCH   6  32
DOCKED: ATOM     32  C   UNL d   1       9.488  -2.210  23.595 -0.19 +0.01    +0.052 C 
DOCKED: BRANCH  32  33
DOCKED: ATOM     33  C   UNL d   1       9.529  -2.806  24.999 -0.06 +0.01    +0.115 C 
DOCKED: BRANCH  33  34
DOCKED: ATOM     34  C   UNL d   1       8.737  -4.086  25.103 -0.03 +0.01    +0.139 C 
DOCKED: ATOM     35  O   UNL d   1       7.569  -4.046  25.454 +0.02 -0.02    -0.650 OA
DOCKED: BRANCH  34  36
DOCKED: ATOM     36  O   UNL d   1       9.300  -5.284  24.843 +0.02 -0.02    -0.776 OA
DOCKED: ATOM     37  H   UNL d   1      10.250  -5.428  24.913 +0.01 +0.01    +0.167 HD
DOCKED: ENDBRANCH  34  36
DOCKED: ENDBRANCH  33  34
DOCKED: ENDBRANCH  32  33
DOCKED: ENDBRANCH   6  32
DOCKED: BRANCH  22  38
DOCKED: ATOM     38  C   UNL d   1      13.682  -5.446  22.270 -0.03 +0.00    +0.052 C 
DOCKED: BRANCH  38  39
DOCKED: ATOM     39  C   UNL d   1      13.834  -6.075  23.653 -0.01 +0.00    +0.115 C 
DOCKED: BRANCH  39  40
DOCKED: ATOM     40  C   UNL d   1      12.604  -5.893  24.507 -0.00 +0.00    +0.139 C 
DOCKED: ATOM     41  O   UNL d   1      12.325  -4.786  24.939 +0.01 -0.04    -0.650 OA
DOCKED: BRANCH  40  42
DOCKED: ATOM     42  O   UNL d   1      11.775  -6.924  24.761 +0.00 -0.01    -0.776 OA
DOCKED: ATOM     43  H   UNL d   1      10.816  -6.818  24.736 +0.00 +0.00    +0.167 HD
DOCKED: ENDBRANCH  40  42
DOCKED: ENDBRANCH  39  40
DOCKED: ENDBRANCH  38  39
DOCKED: ENDBRANCH  22  38
DOCKED: BRANCH  12  44
DOCKED: ATOM     44  C   UNL d   1       3.533  -7.129  17.484 -0.38 -0.00    +0.004 C 
DOCKED: ATOM     45  C   UNL d   1       3.062  -6.522  16.395 -0.52 -0.00    +0.012 C 
DOCKED: ENDBRANCH  12  44
DOCKED: BRANCH  17  46
DOCKED: ATOM     46  C   UNL d   1      10.689 -11.103  17.646 -0.11 +0.00    +0.004 C 
DOCKED: ATOM     47  C   UNL d   1      11.348 -11.859  18.533 -0.08 +0.00    +0.012 C 
DOCKED: ENDBRANCH  17  46
DOCKED: TORSDOF 10
DOCKED: TER
DOCKED: ENDMDL
________________________________________________________________________________


	BEGINNING GENETIC ALGORITHM DOCKING 9 of 100
Run: 9 Seed: 327514154 601001127 [ Run 9 of 100 GA/GALS ]
Beginning LAMARCKIAN GENETIC ALGORITHM (LGA), with a maximum of 25000000 energy evaluations.

Final-Value: -8.684


	FINAL GENETIC ALGORITHM DOCKED STATE
	_______________________________________________


Detailed state:  trans 12.800 12.538 -0.628 quatxyzw -0.358186 -0.796852 -0.226719 0.430498 center 8.287 34.468 -0.670 ntor 10 44.2219 -27.3341 -30.8998 94.4581 63.1943 24.3182 92.2914 78.8032 34.8819 15.7392
State:	 12.800  12.538  -0.628  -0.397 -0.883 -0.251 129.002     44.22  -27.33  -30.90   94.46   63.19   24.32   92.29   78.80   34.88   15.74

DOCKED: MODEL        9
DOCKED: USER    Run = 9
DOCKED: USER    DPF = D:/Protein_go_brrr/autodock/final/mut_K82N/heme_O2/dock.dpf
DOCKED: USER  
DOCKED: USER    Estimated Free Energy of Binding    =   -5.16 kcal/mol  [=(1)+(2)+(3)-(4)]
DOCKED: USER    Estimated Inhibition Constant, Ki   =  164.24 uM (micromolar)  [Temperature = 298.15 K]
DOCKED: USER    
DOCKED: USER    (1) Final Intermolecular Energy     =   -8.15 kcal/mol
DOCKED: USER        vdW + Hbond + desolv Energy     =   -7.53 kcal/mol
DOCKED: USER        Electrostatic Energy            =   -0.62 kcal/mol
DOCKED: USER    (2) Final Total Internal Energy     =   -0.54 kcal/mol
DOCKED: USER    (3) Torsional Free Energy           =   +2.98 kcal/mol
DOCKED: USER    (4) Unbound System's Energy  [=(2)] =   -0.54 kcal/mol
DOCKED: USER    
DOCKED: USER    
DOCKED: USER    NEWDPF move heme_O2_opt.pdbqt
DOCKED: USER    NEWDPF about 8.287000 34.468000 -0.670000
DOCKED: USER    NEWDPF tran0 12.800093 12.538265 -0.628135
DOCKED: USER    NEWDPF quaternion0 -0.358186 -0.796852 -0.226719 0.430498
DOCKED: USER    NEWDPF axisangle0 -0.396841 -0.882849 -0.251187 129.001689
DOCKED: USER    NEWDPF quat0 -0.396841 -0.882849 -0.251187 129.001689
DOCKED: USER    NEWDPF dihe0 44.22 -27.33 -30.90 94.46 63.19 24.32 92.29 78.80 34.88 15.74 
DOCKED: USER  keepresnum = 1 
DOCKED: USER  
DOCKED: REMARK  10 active torsions:
DOCKED: REMARK  status: ('A' for Active; 'I' for Inactive)
DOCKED: REMARK    1  A    between atoms: C_6  and  C_10 
DOCKED: REMARK    2  A    between atoms: C_10  and  C_11 
DOCKED: REMARK    3  A    between atoms: C_11  and  C_12 
DOCKED: REMARK    4  A    between atoms: C_12  and  O_14 
DOCKED: REMARK    5  A    between atoms: C_17  and  C_20 
DOCKED: REMARK    6  A    between atoms: C_24  and  C_27 
DOCKED: REMARK    7  A    between atoms: C_31  and  C_34 
DOCKED: REMARK    8  A    between atoms: C_34  and  C_35 
DOCKED: REMARK    9  A    between atoms: C_35  and  C_36 
DOCKED: REMARK   10  A    between atoms: C_36  and  O_38 
DOCKED: USER                              x       y       z     vdW  Elec       q    Type
DOCKED: USER                           _______ _______ _______ _____ _____    ______ ____
DOCKED: ROOT
DOCKED: ATOM      1  C   UNL d   1      13.044  11.449   1.176 +0.03 -0.00    +0.064 A 
DOCKED: ATOM      2  C   UNL d   1      14.728  10.798  -3.218 -0.18 -0.01    +0.064 A 
DOCKED: ATOM      3  C   UNL d   1      12.387  14.690  -4.790 -0.21 -0.01    +0.064 C 
DOCKED: ATOM      4  C   UNL d   1      11.035  15.642  -0.172 -0.23 -0.01    +0.064 A 
DOCKED: ATOM      5  C   UNL d   1      13.695  10.956   0.109 +0.05 -0.00    +0.066 A 
DOCKED: ATOM      6  C   UNL d   1      14.481   9.800   0.138 -0.12 +0.00    -0.021 A 
DOCKED: ATOM      7  C   UNL d   1      15.004   9.635  -1.124 -0.13 +0.00    -0.025 A 
DOCKED: ATOM      8  C   UNL d   1      14.484  10.667  -1.900 -0.18 -0.01    +0.066 A 
DOCKED: ATOM      9  C   UNL d   1      15.976   8.546  -1.522 -0.08 -0.00    +0.051 C 
DOCKED: ATOM     10  C   UNL d   1      14.193  11.846  -4.089 -0.22 -0.01    +0.066 A 
DOCKED: ATOM     11  C   UNL d   1      14.344  11.842  -5.480 -0.22 +0.00    -0.021 A 
DOCKED: ATOM     12  C   UNL d   1      13.661  12.947  -5.953 -0.26 -0.00    +0.000 A 
DOCKED: ATOM     13  C   UNL d   1      13.129  13.583  -4.797 -0.24 -0.01    +0.070 A 
DOCKED: ATOM     14  C   UNL d   1      15.087  10.813  -6.324 -0.16 -0.00    +0.052 C 
DOCKED: ATOM     15  C   UNL d   1      11.860  15.384  -3.640 -0.26 -0.01    +0.066 A 
DOCKED: ATOM     16  C   UNL d   1      11.230  16.628  -3.687 -0.22 +0.00    -0.021 A 
DOCKED: ATOM     17  C   UNL d   1      10.836  16.920  -2.382 -0.21 -0.00    +0.000 A 
DOCKED: ATOM     18  C   UNL d   1      11.260  15.818  -1.626 -0.17 -0.02    +0.070 A 
DOCKED: ATOM     19  C   UNL d   1      11.110  17.442  -4.951 -0.15 -0.01    +0.052 C 
DOCKED: ATOM     20  C   UNL d   1      11.465  14.619   0.591 -0.25 -0.00    +0.066 A 
DOCKED: ATOM     21  C   UNL d   1      11.207  14.499   1.954 -0.19 +0.00    -0.025 A 
DOCKED: ATOM     22  C   UNL d   1      11.748  13.297   2.349 -0.12 -0.00    -0.021 A 
DOCKED: ATOM     23  C   UNL d   1      12.335  12.733   1.212 -0.11 -0.00    +0.066 A 
DOCKED: ATOM     24  C   UNL d   1      10.483  15.484   2.835 -0.15 -0.00    +0.051 C 
DOCKED: ATOM     25  N   UNL d   1      13.730  11.517  -1.124 -0.13 +0.03    -0.248 N 
DOCKED: ATOM     26  N   UNL d   1      13.462  12.909  -3.667 -0.07 +0.07    -0.248 N 
DOCKED: ATOM     27  N   UNL d   1      11.945  14.931  -2.393 -0.21 +0.06    -0.248 N 
DOCKED: ATOM     28  N   UNL d   1      12.200  13.561   0.156 -0.18 +0.01    -0.248 N 
DOCKED: ATOM     29 FE   UNL d   1      12.825  13.240  -1.742 -0.06 -0.00    +0.000 Fe
DOCKED: ATOM     30  O   UNL d   1      14.379  13.324  -1.708 -0.13 -0.00    +0.000 OA
DOCKED: ATOM     31  O   UNL d   1      13.520  14.556  -1.233 -0.14 -0.00    +0.000 OA
DOCKED: ENDROOT
DOCKED: BRANCH   6  32
DOCKED: ATOM     32  C   UNL d   1      14.841   8.958   1.334 -0.08 -0.00    +0.052 C 
DOCKED: BRANCH  32  33
DOCKED: ATOM     33  C   UNL d   1      14.337   7.522   1.221 -0.11 -0.00    +0.115 C 
DOCKED: BRANCH  33  34
DOCKED: ATOM     34  C   UNL d   1      12.953   7.352   1.797 -0.16 -0.00    +0.139 C 
DOCKED: ATOM     35  O   UNL d   1      12.820   7.101   2.984 +0.02 +0.01    -0.650 OA
DOCKED: BRANCH  34  36
DOCKED: ATOM     36  O   UNL d   1      11.853   7.442   1.021 +0.05 +0.08    -0.776 OA
DOCKED: ATOM     37  H   UNL d   1      11.799   7.014   0.159 -0.50 -0.06    +0.167 HD
DOCKED: ENDBRANCH  34  36
DOCKED: ENDBRANCH  33  34
DOCKED: ENDBRANCH  32  33
DOCKED: ENDBRANCH   6  32
DOCKED: BRANCH  22  38
DOCKED: ATOM     38  C   UNL d   1      11.755  12.756   3.756 -0.10 +0.00    +0.052 C 
DOCKED: BRANCH  38  39
DOCKED: ATOM     39  C   UNL d   1      10.980  11.446   3.879 -0.12 +0.02    +0.115 C 
DOCKED: BRANCH  39  40
DOCKED: ATOM     40  C   UNL d   1       9.615  11.638   4.490 -0.19 +0.06    +0.139 C 
DOCKED: ATOM     41  O   UNL d   1       8.806  10.725   4.466 -0.45 -0.50    -0.650 OA
DOCKED: BRANCH  40  42
DOCKED: ATOM     42  O   UNL d   1       9.286  12.788   5.109 +0.03 -0.34    -0.776 OA
DOCKED: ATOM     43  H   UNL d   1       9.957  13.366   5.492 +0.03 +0.05    +0.167 HD
DOCKED: ENDBRANCH  40  42
DOCKED: ENDBRANCH  39  40
DOCKED: ENDBRANCH  38  39
DOCKED: ENDBRANCH  22  38
DOCKED: BRANCH  12  44
DOCKED: ATOM     44  C   UNL d   1      13.590  13.277  -7.430 -0.25 -0.00    +0.004 C 
DOCKED: ATOM     45  C   UNL d   1      12.572  13.814  -8.101 -0.24 +0.00    +0.012 C 
DOCKED: ENDBRANCH  12  44
DOCKED: BRANCH  17  46
DOCKED: ATOM     46  C   UNL d   1      10.169  18.138  -1.800 -0.24 -0.00    +0.004 C 
DOCKED: ATOM     47  C   UNL d   1       8.859  18.399  -1.705 -0.32 -0.00    +0.012 C 
DOCKED: ENDBRANCH  17  46
DOCKED: TORSDOF 10
DOCKED: TER
DOCKED: ENDMDL
________________________________________________________________________________


	BEGINNING GENETIC ALGORITHM DOCKING 10 of 100
Run: 10 Seed: 762764968 721823783 [ Run 10 of 100 GA/GALS ]
Beginning LAMARCKIAN GENETIC ALGORITHM (LGA), with a maximum of 25000000 energy evaluations.

Final-Value: -9.889


	FINAL GENETIC ALGORITHM DOCKED STATE
	_______________________________________________


Detailed state:  trans -12.409 14.240 -7.885 quatxyzw 0.045956 -0.481898 0.276217 0.830281 center 8.287 34.468 -0.670 ntor 10 99.5461 -145.9946 37.8937 -103.1249 -142.5973 -14.7183 -56.3125 107.2131 166.5268 171.8517
State:	-12.409  14.240  -7.885   0.082 -0.865  0.496 67.745     99.55 -145.99   37.89 -103.12 -142.60  -14.72  -56.31  107.21  166.53  171.85

DOCKED: MODEL       10
DOCKED: USER    Run = 10
DOCKED: USER    DPF = D:/Protein_go_brrr/autodock/final/mut_K82N/heme_O2/dock.dpf
DOCKED: USER  
DOCKED: USER    Estimated Free Energy of Binding    =   -4.34 kcal/mol  [=(1)+(2)+(3)-(4)]
DOCKED: USER    Estimated Inhibition Constant, Ki   =  657.67 uM (micromolar)  [Temperature = 298.15 K]
DOCKED: USER    
DOCKED: USER    (1) Final Intermolecular Energy     =   -7.32 kcal/mol
DOCKED: USER        vdW + Hbond + desolv Energy     =   -5.70 kcal/mol
DOCKED: USER        Electrostatic Energy            =   -1.62 kcal/mol
DOCKED: USER    (2) Final Total Internal Energy     =   -2.56 kcal/mol
DOCKED: USER    (3) Torsional Free Energy           =   +2.98 kcal/mol
DOCKED: USER    (4) Unbound System's Energy  [=(2)] =   -2.56 kcal/mol
DOCKED: USER    
DOCKED: USER    
DOCKED: USER    NEWDPF move heme_O2_opt.pdbqt
DOCKED: USER    NEWDPF about 8.287000 34.468000 -0.670000
DOCKED: USER    NEWDPF tran0 -12.409174 14.239915 -7.884815
DOCKED: USER    NEWDPF quaternion0 0.045956 -0.481898 0.276217 0.830281
DOCKED: USER    NEWDPF axisangle0 0.082454 -0.864632 0.495594 67.744803
DOCKED: USER    NEWDPF quat0 0.082454 -0.864632 0.495594 67.744803
DOCKED: USER    NEWDPF dihe0 99.55 -145.99 37.89 -103.12 -142.60 -14.72 -56.31 107.21 166.53 171.85 
DOCKED: USER  keepresnum = 1 
DOCKED: USER  
DOCKED: REMARK  10 active torsions:
DOCKED: REMARK  status: ('A' for Active; 'I' for Inactive)
DOCKED: REMARK    1  A    between atoms: C_6  and  C_10 
DOCKED: REMARK    2  A    between atoms: C_10  and  C_11 
DOCKED: REMARK    3  A    between atoms: C_11  and  C_12 
DOCKED: REMARK    4  A    between atoms: C_12  and  O_14 
DOCKED: REMARK    5  A    between atoms: C_17  and  C_20 
DOCKED: REMARK    6  A    between atoms: C_24  and  C_27 
DOCKED: REMARK    7  A    between atoms: C_31  and  C_34 
DOCKED: REMARK    8  A    between atoms: C_34  and  C_35 
DOCKED: REMARK    9  A    between atoms: C_35  and  C_36 
DOCKED: REMARK   10  A    between atoms: C_36  and  O_38 
DOCKED: USER                              x       y       z     vdW  Elec       q    Type
DOCKED: USER                           _______ _______ _______ _____ _____    ______ ____
DOCKED: ROOT
DOCKED: ATOM      1  C   UNL d   1     -13.536  15.840  -7.067 -0.07 +0.04    +0.064 A 
DOCKED: ATOM      2  C   UNL d   1     -11.156  12.246  -5.074 -0.23 +0.02    +0.064 A 
DOCKED: ATOM      3  C   UNL d   1      -9.918  10.547  -9.396 -0.14 +0.02    +0.064 C 
DOCKED: ATOM      4  C   UNL d   1     -11.962  14.507 -11.447 -0.07 +0.02    +0.064 A 
DOCKED: ATOM      5  C   UNL d   1     -12.988  15.002  -6.172 -0.04 +0.04    +0.066 A 
DOCKED: ATOM      6  C   UNL d   1     -13.134  15.131  -4.788 -0.12 -0.01    -0.021 A 
DOCKED: ATOM      7  C   UNL d   1     -12.409  14.116  -4.208 -0.16 -0.01    -0.025 A 
DOCKED: ATOM      8  C   UNL d   1     -11.881  13.366  -5.256 -0.16 +0.03    +0.066 A 
DOCKED: ATOM      9  C   UNL d   1     -12.229  13.922  -2.719 -0.25 +0.01    +0.051 C 
DOCKED: ATOM     10  C   UNL d   1     -10.595  11.406  -6.133 -0.21 +0.02    +0.066 A 
DOCKED: ATOM     11  C   UNL d   1      -9.991  10.166  -5.893 -0.27 -0.01    -0.021 A 
DOCKED: ATOM     12  C   UNL d   1      -9.644   9.652  -7.129 -0.23 +0.00    +0.000 A 
DOCKED: ATOM     13  C   UNL d   1     -10.053  10.635  -8.073 -0.15 +0.02    +0.070 A 
DOCKED: ATOM     14  C   UNL d   1      -9.780   9.488  -4.545 -0.37 +0.02    +0.052 C 
DOCKED: ATOM     15  C   UNL d   1     -10.287  11.534 -10.382 +0.00 +0.02    +0.066 A 
DOCKED: ATOM     16  C   UNL d   1      -9.971  11.454 -11.737 -0.07 -0.01    -0.021 A 
DOCKED: ATOM     17  C   UNL d   1     -10.543  12.573 -12.342 -0.07 +0.00    +0.000 A 
DOCKED: ATOM     18  C   UNL d   1     -11.175  13.260 -11.297 -0.08 +0.02    +0.070 A 
DOCKED: ATOM     19  C   UNL d   1      -9.114  10.358 -12.319 -0.09 +0.01    +0.052 C 
DOCKED: ATOM     20  C   UNL d   1     -12.544  15.215 -10.460 -0.07 +0.03    +0.066 A 
DOCKED: ATOM     21  C   UNL d   1     -13.288  16.374 -10.665 -0.03 -0.01    -0.025 A 
DOCKED: ATOM     22  C   UNL d   1     -13.768  16.752  -9.431 -0.05 -0.01    -0.021 A 
DOCKED: ATOM     23  C   UNL d   1     -13.281  15.817  -8.512 -0.08 +0.04    +0.066 A 
DOCKED: ATOM     24  C   UNL d   1     -13.527  17.086 -11.971 -0.01 +0.01    +0.051 C 
DOCKED: ATOM     25  N   UNL d   1     -12.184  13.951  -6.464 -0.10 -0.14    -0.248 N 
DOCKED: ATOM     26  N   UNL d   1     -10.627  11.700  -7.458 -0.10 -0.07    -0.248 N 
DOCKED: ATOM     27  N   UNL d   1     -10.946  12.655 -10.103 -0.08 -0.09    -0.248 N 
DOCKED: ATOM     28  N   UNL d   1     -12.501  14.910  -9.136 -0.08 -0.15    -0.248 N 
DOCKED: ATOM     29 FE   UNL d   1     -11.570  13.316  -8.305 -0.03 +0.00    +0.000 Fe
DOCKED: ATOM     30  O   UNL d   1     -10.423  13.893  -7.425 -0.43 +0.00    +0.000 OA
DOCKED: ATOM     31  O   UNL d   1     -10.464  14.218  -8.966 -0.53 +0.00    +0.000 OA
DOCKED: ENDROOT
DOCKED: BRANCH   6  32
DOCKED: ATOM     32  C   UNL d   1     -13.812  16.243  -4.031 -0.11 +0.02    +0.052 C 
DOCKED: BRANCH  32  33
DOCKED: ATOM     33  C   UNL d   1     -12.829  17.128  -3.270 -0.13 +0.05    +0.115 C 
DOCKED: BRANCH  33  34
DOCKED: ATOM     34  C   UNL d   1     -12.914  18.574  -3.691 -0.10 +0.05    +0.139 C 
DOCKED: ATOM     35  O   UNL d   1     -13.926  19.214  -3.452 +0.02 -0.15    -0.650 OA
DOCKED: BRANCH  34  36
DOCKED: ATOM     36  O   UNL d   1     -11.903  19.174  -4.353 +0.05 -0.46    -0.776 OA
DOCKED: ATOM     37  H   UNL d   1     -11.921  19.297  -5.309 +0.02 +0.14    +0.167 HD
DOCKED: ENDBRANCH  34  36
DOCKED: ENDBRANCH  33  34
DOCKED: ENDBRANCH  32  33
DOCKED: ENDBRANCH   6  32
DOCKED: BRANCH  22  38
DOCKED: ATOM     38  C   UNL d   1     -14.592  17.981  -9.148 -0.02 +0.02    +0.052 C 
DOCKED: BRANCH  38  39
DOCKED: ATOM     39  C   UNL d   1     -13.729  19.217  -8.902 -0.03 +0.05    +0.115 C 
DOCKED: BRANCH  39  40
DOCKED: ATOM     40  C   UNL d   1     -13.056  19.191  -7.553 -0.05 +0.11    +0.139 C 
DOCKED: ATOM     41  O   UNL d   1     -11.856  19.398  -7.470 -0.40 -0.99    -0.650 OA
DOCKED: BRANCH  40  42
DOCKED: ATOM     42  O   UNL d   1     -13.766  18.992  -6.425 -0.02 -0.41    -0.776 OA
DOCKED: ATOM     43  H   UNL d   1     -13.546  19.448  -5.604 +0.01 +0.07    +0.167 HD
DOCKED: ENDBRANCH  40  42
DOCKED: ENDBRANCH  39  40
DOCKED: ENDBRANCH  38  39
DOCKED: ENDBRANCH  22  38
DOCKED: BRANCH  12  44
DOCKED: ATOM     44  C   UNL d   1      -8.967   8.306  -7.278 -0.22 +0.00    +0.004 C 
DOCKED: ATOM     45  C   UNL d   1      -8.067   7.938  -8.190 -0.23 +0.00    +0.012 C 
DOCKED: ENDBRANCH  12  44
DOCKED: BRANCH  17  46
DOCKED: ATOM     46  C   UNL d   1     -10.493  13.060 -13.766 -0.06 +0.00    +0.004 C 
DOCKED: ATOM     47  C   UNL d   1      -9.858  14.134 -14.253 -0.07 +0.00    +0.012 C 
DOCKED: ENDBRANCH  17  46
DOCKED: TORSDOF 10
DOCKED: TER
DOCKED: ENDMDL
________________________________________________________________________________


	BEGINNING GENETIC ALGORITHM DOCKING 11 of 100
Run: 11 Seed: 2142497019 2083938158 [ Run 11 of 100 GA/GALS ]
Beginning LAMARCKIAN GENETIC ALGORITHM (LGA), with a maximum of 25000000 energy evaluations.

Final-Value: -9.608


	FINAL GENETIC ALGORITHM DOCKED STATE
	_______________________________________________


Detailed state:  trans 11.712 -12.892 3.546 quatxyzw -0.665296 -0.727776 0.155627 0.059185 center 8.287 34.468 -0.670 ntor 10 120.5084 -115.5751 129.0491 139.3690 -103.3729 150.2005 93.3075 51.2082 -3.6256 157.8236
State:	 11.712 -12.892   3.546  -0.666 -0.729  0.156 173.214    120.51 -115.58  129.05  139.37 -103.37  150.20   93.31   51.21   -3.63  157.82

DOCKED: MODEL       11
DOCKED: USER    Run = 11
DOCKED: USER    DPF = D:/Protein_go_brrr/autodock/final/mut_K82N/heme_O2/dock.dpf
DOCKED: USER  
DOCKED: USER    Estimated Free Energy of Binding    =   -4.47 kcal/mol  [=(1)+(2)+(3)-(4)]
DOCKED: USER    Estimated Inhibition Constant, Ki   =  531.81 uM (micromolar)  [Temperature = 298.15 K]
DOCKED: USER    
DOCKED: USER    (1) Final Intermolecular Energy     =   -7.45 kcal/mol
DOCKED: USER        vdW + Hbond + desolv Energy     =   -6.84 kcal/mol
DOCKED: USER        Electrostatic Energy            =   -0.61 kcal/mol
DOCKED: USER    (2) Final Total Internal Energy     =   -2.16 kcal/mol
DOCKED: USER    (3) Torsional Free Energy           =   +2.98 kcal/mol
DOCKED: USER    (4) Unbound System's Energy  [=(2)] =   -2.16 kcal/mol
DOCKED: USER    
DOCKED: USER    
DOCKED: USER    NEWDPF move heme_O2_opt.pdbqt
DOCKED: USER    NEWDPF about 8.287000 34.468000 -0.670000
DOCKED: USER    NEWDPF tran0 11.712176 -12.892154 3.545857
DOCKED: USER    NEWDPF quaternion0 -0.665296 -0.727776 0.155627 0.059185
DOCKED: USER    NEWDPF axisangle0 -0.666465 -0.729054 0.155901 173.213890
DOCKED: USER    NEWDPF quat0 -0.666465 -0.729054 0.155901 173.213890
DOCKED: USER    NEWDPF dihe0 120.51 -115.58 129.05 139.37 -103.37 150.20 93.31 51.21 -3.63 157.82 
DOCKED: USER  keepresnum = 1 
DOCKED: USER  
DOCKED: REMARK  10 active torsions:
DOCKED: REMARK  status: ('A' for Active; 'I' for Inactive)
DOCKED: REMARK    1  A    between atoms: C_6  and  C_10 
DOCKED: REMARK    2  A    between atoms: C_10  and  C_11 
DOCKED: REMARK    3  A    between atoms: C_11  and  C_12 
DOCKED: REMARK    4  A    between atoms: C_12  and  O_14 
DOCKED: REMARK    5  A    between atoms: C_17  and  C_20 
DOCKED: REMARK    6  A    between atoms: C_24  and  C_27 
DOCKED: REMARK    7  A    between atoms: C_31  and  C_34 
DOCKED: REMARK    8  A    between atoms: C_34  and  C_35 
DOCKED: REMARK    9  A    between atoms: C_35  and  C_36 
DOCKED: REMARK   10  A    between atoms: C_36  and  O_38 
DOCKED: USER                              x       y       z     vdW  Elec       q    Type
DOCKED: USER                           _______ _______ _______ _____ _____    ______ ____
DOCKED: ROOT
DOCKED: ATOM      1  C   UNL d   1      12.604 -14.384   4.761 +0.03 +0.04    +0.064 A 
DOCKED: ATOM      2  C   UNL d   1       9.339 -14.581   1.318 -0.24 +0.02    +0.064 A 
DOCKED: ATOM      3  C   UNL d   1       9.503  -9.810   0.763 -0.24 +0.01    +0.064 C 
DOCKED: ATOM      4  C   UNL d   1      13.211  -9.646   3.971 -0.13 +0.01    +0.064 A 
DOCKED: ATOM      5  C   UNL d   1      11.704 -14.827   3.868 -0.03 +0.04    +0.066 A 
DOCKED: ATOM      6  C   UNL d   1      11.341 -16.169   3.723 -0.12 -0.01    -0.021 A 
DOCKED: ATOM      7  C   UNL d   1      10.427 -16.233   2.697 -0.18 -0.01    -0.025 A 
DOCKED: ATOM      8  C   UNL d   1      10.221 -14.922   2.276 -0.19 +0.02    +0.066 A 
DOCKED: ATOM      9  C   UNL d   1       9.825 -17.509   2.152 -0.15 +0.01    +0.051 C 
DOCKED: ATOM     10  C   UNL d   1       9.063 -13.222   0.850 -0.22 +0.01    +0.066 A 
DOCKED: ATOM     11  C   UNL d   1       8.021 -12.907  -0.029 -0.30 -0.00    -0.021 A 
DOCKED: ATOM     12  C   UNL d   1       8.041 -11.534  -0.188 -0.34 +0.00    +0.000 A 
DOCKED: ATOM     13  C   UNL d   1       9.125 -11.079   0.613 -0.24 +0.01    +0.070 A 
DOCKED: ATOM     14  C   UNL d   1       7.031 -13.873  -0.670 -0.38 +0.01    +0.052 C 
DOCKED: ATOM     15  C   UNL d   1      10.616  -9.313   1.535 -0.27 +0.00    +0.066 A 
DOCKED: ATOM     16  C   UNL d   1      11.060  -7.991   1.521 -0.30 -0.00    -0.021 A 
DOCKED: ATOM     17  C   UNL d   1      12.118  -7.920   2.428 -0.23 +0.00    +0.000 A 
DOCKED: ATOM     18  C   UNL d   1      12.240  -9.222   2.936 -0.19 +0.01    +0.070 A 
DOCKED: ATOM     19  C   UNL d   1      10.478  -6.937   0.613 -0.31 -0.00    +0.052 C 
DOCKED: ATOM     20  C   UNL d   1      13.383 -10.894   4.449 -0.11 +0.01    +0.066 A 
DOCKED: ATOM     21  C   UNL d   1      14.303 -11.231   5.438 -0.07 -0.00    -0.025 A 
DOCKED: ATOM     22  C   UNL d   1      14.125 -12.572   5.695 -0.06 -0.00    -0.021 A 
DOCKED: ATOM     23  C   UNL d   1      13.112 -13.010   4.837 -0.05 +0.02    +0.066 A 
DOCKED: ATOM     24  C   UNL d   1      15.303 -10.320   6.102 -0.05 +0.00    +0.051 C 
DOCKED: ATOM     25  N   UNL d   1      11.057 -14.064   2.954 -0.04 -0.12    -0.248 N 
DOCKED: ATOM     26  N   UNL d   1       9.744 -12.113   1.237 -0.12 -0.05    -0.248 N 
DOCKED: ATOM     27  N   UNL d   1      11.370 -10.069   2.328 -0.14 -0.03    -0.248 N 
DOCKED: ATOM     28  N   UNL d   1      12.695 -11.997   4.050 -0.06 -0.08    -0.248 N 
DOCKED: ATOM     29 FE   UNL d   1      11.231 -12.052   2.653 -0.05 +0.00    +0.000 Fe
DOCKED: ATOM     30  O   UNL d   1      11.782 -12.913   1.479 -0.11 +0.00    +0.000 OA
DOCKED: ATOM     31  O   UNL d   1      12.558 -11.617   1.929 -0.10 +0.00    +0.000 OA
DOCKED: ENDROOT
DOCKED: BRANCH   6  32
DOCKED: ATOM     32  C   UNL d   1      11.929 -17.366   4.425 -0.06 +0.01    +0.052 C 
DOCKED: BRANCH  32  33
DOCKED: ATOM     33  C   UNL d   1      11.377 -17.555   5.835 -0.09 +0.03    +0.115 C 
DOCKED: BRANCH  33  34
DOCKED: ATOM     34  C   UNL d   1      12.177 -16.805   6.871 -0.07 +0.05    +0.139 C 
DOCKED: ATOM     35  O   UNL d   1      11.720 -15.787   7.365 -0.44 -0.51    -0.650 OA
DOCKED: BRANCH  34  36
DOCKED: ATOM     36  O   UNL d   1      13.405 -17.219   7.247 +0.03 -0.09    -0.776 OA
DOCKED: ATOM     37  H   UNL d   1      14.185 -16.661   7.149 +0.01 +0.02    +0.167 HD
DOCKED: ENDBRANCH  34  36
DOCKED: ENDBRANCH  33  34
DOCKED: ENDBRANCH  32  33
DOCKED: ENDBRANCH   6  32
DOCKED: BRANCH  22  38
DOCKED: ATOM     38  C   UNL d   1      14.932 -13.394   6.667 -0.03 +0.01    +0.052 C 
DOCKED: BRANCH  38  39
DOCKED: ATOM     39  C   UNL d   1      16.010 -14.224   5.972 -0.00 +0.01    +0.115 C 
DOCKED: BRANCH  39  40
DOCKED: ATOM     40  C   UNL d   1      15.982 -15.672   6.393 +0.00 +0.01    +0.139 C 
DOCKED: ATOM     41  O   UNL d   1      16.241 -15.973   7.547 +0.01 -0.01    -0.650 OA
DOCKED: BRANCH  40  42
DOCKED: ATOM     42  O   UNL d   1      15.626 -16.641   5.528 +0.01 -0.04    -0.776 OA
DOCKED: ATOM     43  H   UNL d   1      14.814 -17.148   5.644 +0.00 +0.01    +0.167 HD
DOCKED: ENDBRANCH  40  42
DOCKED: ENDBRANCH  39  40
DOCKED: ENDBRANCH  38  39
DOCKED: ENDBRANCH  22  38
DOCKED: BRANCH  12  44
DOCKED: ATOM     44  C   UNL d   1       7.045 -10.812  -1.072 -0.44 +0.00    +0.004 C 
DOCKED: ATOM     45  C   UNL d   1       6.786 -11.030  -2.361 -0.41 +0.00    +0.012 C 
DOCKED: ENDBRANCH  12  44
DOCKED: BRANCH  17  46
DOCKED: ATOM     46  C   UNL d   1      13.028  -6.780   2.798 -0.20 +0.00    +0.004 C 
DOCKED: ATOM     47  C   UNL d   1      13.379  -6.363   4.022 -0.18 +0.00    +0.012 C 
DOCKED: ENDBRANCH  17  46
DOCKED: TORSDOF 10
DOCKED: TER
DOCKED: ENDMDL
________________________________________________________________________________


	BEGINNING GENETIC ALGORITHM DOCKING 12 of 100
Run: 12 Seed: 1855258073 1867066244 [ Run 12 of 100 GA/GALS ]
Beginning LAMARCKIAN GENETIC ALGORITHM (LGA), with a maximum of 25000000 energy evaluations.

Final-Value: -10.904


	FINAL GENETIC ALGORITHM DOCKED STATE
	_______________________________________________


Detailed state:  trans 2.359 4.857 18.682 quatxyzw 0.056709 -0.472006 -0.701905 0.530400 center 8.287 34.468 -0.670 ntor 10 -100.9569 -13.1491 42.9678 142.6101 57.5968 152.7066 -102.8130 -6.6728 -173.8851 148.1150
State:	  2.359   4.857  18.682   0.067 -0.557 -0.828 115.935   -100.96  -13.15   42.97  142.61   57.60  152.71 -102.81   -6.67 -173.89  148.11

DOCKED: MODEL       12
DOCKED: USER    Run = 12
DOCKED: USER    DPF = D:/Protein_go_brrr/autodock/final/mut_K82N/heme_O2/dock.dpf
DOCKED: USER  
DOCKED: USER    Estimated Free Energy of Binding    =   -6.15 kcal/mol  [=(1)+(2)+(3)-(4)]
DOCKED: USER    Estimated Inhibition Constant, Ki   =   31.14 uM (micromolar)  [Temperature = 298.15 K]
DOCKED: USER    
DOCKED: USER    (1) Final Intermolecular Energy     =   -9.13 kcal/mol
DOCKED: USER        vdW + Hbond + desolv Energy     =   -9.19 kcal/mol
DOCKED: USER        Electrostatic Energy            =   +0.06 kcal/mol
DOCKED: USER    (2) Final Total Internal Energy     =   -1.77 kcal/mol
DOCKED: USER    (3) Torsional Free Energy           =   +2.98 kcal/mol
DOCKED: USER    (4) Unbound System's Energy  [=(2)] =   -1.77 kcal/mol
DOCKED: USER    
DOCKED: USER    
DOCKED: USER    NEWDPF move heme_O2_opt.pdbqt
DOCKED: USER    NEWDPF about 8.287000 34.468000 -0.670000
DOCKED: USER    NEWDPF tran0 2.358649 4.857392 18.681695
DOCKED: USER    NEWDPF quaternion0 0.056709 -0.472006 -0.701905 0.530400
DOCKED: USER    NEWDPF axisangle0 0.066894 -0.556777 -0.827964 115.935019
DOCKED: USER    NEWDPF quat0 0.066894 -0.556777 -0.827964 115.935019
DOCKED: USER    NEWDPF dihe0 -100.96 -13.15 42.97 142.61 57.60 152.71 -102.81 -6.67 -173.89 148.11 
DOCKED: USER  keepresnum = 1 
DOCKED: USER  
DOCKED: REMARK  10 active torsions:
DOCKED: REMARK  status: ('A' for Active; 'I' for Inactive)
DOCKED: REMARK    1  A    between atoms: C_6  and  C_10 
DOCKED: REMARK    2  A    between atoms: C_10  and  C_11 
DOCKED: REMARK    3  A    between atoms: C_11  and  C_12 
DOCKED: REMARK    4  A    between atoms: C_12  and  O_14 
DOCKED: REMARK    5  A    between atoms: C_17  and  C_20 
DOCKED: REMARK    6  A    between atoms: C_24  and  C_27 
DOCKED: REMARK    7  A    between atoms: C_31  and  C_34 
DOCKED: REMARK    8  A    between atoms: C_34  and  C_35 
DOCKED: REMARK    9  A    between atoms: C_35  and  C_36 
DOCKED: REMARK   10  A    between atoms: C_36  and  O_38 
DOCKED: USER                              x       y       z     vdW  Elec       q    Type
DOCKED: USER                           _______ _______ _______ _____ _____    ______ ____
DOCKED: ROOT
DOCKED: ATOM      1  C   UNL d   1       2.347   2.992  19.691 -0.27 -0.05    +0.064 A 
DOCKED: ATOM      2  C   UNL d   1       5.578   6.461  19.398 -0.20 -0.01    +0.064 A 
DOCKED: ATOM      3  C   UNL d   1       2.714   9.009  16.500 -0.28 -0.03    +0.064 C 
DOCKED: ATOM      4  C   UNL d   1      -0.811   5.666  17.179 -0.21 -0.02    +0.064 A 
DOCKED: ATOM      5  C   UNL d   1       3.459   3.728  19.849 -0.28 -0.03    +0.066 A 
DOCKED: ATOM      6  C   UNL d   1       4.562   3.327  20.609 -0.33 +0.01    -0.021 A 
DOCKED: ATOM      7  C   UNL d   1       5.480   4.350  20.560 -0.29 +0.00    -0.025 A 
DOCKED: ATOM      8  C   UNL d   1       4.933   5.327  19.732 -0.25 -0.02    +0.066 A 
DOCKED: ATOM      9  C   UNL d   1       6.796   4.368  21.308 -0.29 +0.01    +0.051 C 
DOCKED: ATOM     10  C   UNL d   1       5.065   7.511  18.517 -0.19 -0.02    +0.066 A 
DOCKED: ATOM     11  C   UNL d   1       5.840   8.588  18.072 -0.16 +0.01    -0.021 A 
DOCKED: ATOM     12  C   UNL d   1       5.037   9.325  17.221 -0.21 -0.00    +0.000 A 
DOCKED: ATOM     13  C   UNL d   1       3.787   8.647  17.204 -0.22 -0.03    +0.070 A 
DOCKED: ATOM     14  C   UNL d   1       7.293   8.887  18.422 -0.10 -0.01    +0.052 C 
DOCKED: ATOM     15  C   UNL d   1       1.420   8.370  16.483 -0.23 -0.03    +0.066 A 
DOCKED: ATOM     16  C   UNL d   1       0.290   8.891  15.854 -0.19 +0.01    -0.021 A 
DOCKED: ATOM     17  C   UNL d   1      -0.728   7.955  16.035 -0.08 -0.00    +0.000 A 
DOCKED: ATOM     18  C   UNL d   1      -0.134   6.919  16.769 -0.21 -0.03    +0.070 A 
DOCKED: ATOM     19  C   UNL d   1       0.268  10.246  15.192 -0.19 -0.05    +0.052 C 
DOCKED: ATOM     20  C   UNL d   1      -0.284   4.672  17.919 -0.23 -0.02    +0.066 A 
DOCKED: ATOM     21  C   UNL d   1      -0.965   3.506  18.259 -0.23 +0.01    -0.025 A 
DOCKED: ATOM     22  C   UNL d   1      -0.072   2.721  18.952 -0.26 +0.01    -0.021 A 
DOCKED: ATOM     23  C   UNL d   1       1.121   3.446  19.025 -0.28 -0.03    +0.066 A 
DOCKED: ATOM     24  C   UNL d   1      -2.397   3.162  17.942 -0.27 -0.01    +0.051 C 
DOCKED: ATOM     25  N   UNL d   1       3.661   4.972  19.348 -0.16 +0.11    -0.248 N 
DOCKED: ATOM     26  N   UNL d   1       3.811   7.547  17.998 -0.11 +0.11    -0.248 N 
DOCKED: ATOM     27  N   UNL d   1       1.148   7.222  17.096 -0.15 +0.11    -0.248 N 
DOCKED: ATOM     28  N   UNL d   1       0.974   4.650  18.435 -0.08 +0.12    -0.248 N 
DOCKED: ATOM     29 FE   UNL d   1       2.380   6.090  18.217 -0.06 -0.00    +0.000 Fe
DOCKED: ATOM     30  O   UNL d   1       2.633   6.670  19.639 -0.14 -0.00    +0.000 OA
DOCKED: ATOM     31  O   UNL d   1       1.184   6.717  19.022 -0.14 -0.00    +0.000 OA
DOCKED: ENDROOT
DOCKED: BRANCH   6  32
DOCKED: ATOM     32  C   UNL d   1       4.695   2.092  21.462 -0.32 -0.03    +0.052 C 
DOCKED: BRANCH  32  33
DOCKED: ATOM     33  C   UNL d   1       4.240   2.314  22.901 -0.14 -0.04    +0.115 C 
DOCKED: BRANCH  33  34
DOCKED: ATOM     34  C   UNL d   1       2.738   2.372  23.026 -0.07 -0.08    +0.139 C 
DOCKED: ATOM     35  O   UNL d   1       2.170   3.452  22.985 +0.02 +0.22    -0.650 OA
DOCKED: BRANCH  34  36
DOCKED: ATOM     36  O   UNL d   1       2.004   1.256  23.212 +0.07 +0.65    -0.776 OA
DOCKED: ATOM     37  H   UNL d   1       1.530   0.830  22.489 -0.34 -0.28    +0.167 HD
DOCKED: ENDBRANCH  34  36
DOCKED: ENDBRANCH  33  34
DOCKED: ENDBRANCH  32  33
DOCKED: ENDBRANCH   6  32
DOCKED: BRANCH  22  38
DOCKED: ATOM     38  C   UNL d   1      -0.374   1.376  19.562 -0.31 -0.03    +0.052 C 
DOCKED: BRANCH  38  39
DOCKED: ATOM     39  C   UNL d   1      -0.396   1.423  21.089 -0.10 -0.07    +0.115 C 
DOCKED: BRANCH  39  40
DOCKED: ATOM     40  C   UNL d   1      -0.882   0.131  21.697 -0.12 -0.00    +0.139 C 
DOCKED: ATOM     41  O   UNL d   1      -2.018  -0.255  21.475 -0.10 -0.22    -0.650 OA
DOCKED: BRANCH  40  42
DOCKED: ATOM     42  O   UNL d   1      -0.064  -0.637  22.444 -0.50 -0.01    -0.776 OA
DOCKED: ATOM     43  H   UNL d   1       0.884  -0.466  22.492 -0.23 -0.16    +0.167 HD
DOCKED: ENDBRANCH  40  42
DOCKED: ENDBRANCH  39  40
DOCKED: ENDBRANCH  38  39
DOCKED: ENDBRANCH  22  38
DOCKED: BRANCH  12  44
DOCKED: ATOM     44  C   UNL d   1       5.535  10.576  16.529 -0.10 -0.00    +0.004 C 
DOCKED: ATOM     45  C   UNL d   1       4.866  11.706  16.300 -0.13 -0.00    +0.012 C 
DOCKED: ENDBRANCH  12  44
DOCKED: BRANCH  17  46
DOCKED: ATOM     46  C   UNL d   1      -2.180   7.985  15.637 -0.23 -0.00    +0.004 C 
DOCKED: ATOM     47  C   UNL d   1      -2.907   7.007  15.081 -0.31 -0.01    +0.012 C 
DOCKED: ENDBRANCH  17  46
DOCKED: TORSDOF 10
DOCKED: TER
DOCKED: ENDMDL
________________________________________________________________________________


	BEGINNING GENETIC ALGORITHM DOCKING 13 of 100
Run: 13 Seed: 503299447 271165514 [ Run 13 of 100 GA/GALS ]
Beginning LAMARCKIAN GENETIC ALGORITHM (LGA), with a maximum of 25000000 energy evaluations.

Final-Value: -9.088


	FINAL GENETIC ALGORITHM DOCKED STATE
	_______________________________________________


Detailed state:  trans 14.103 7.935 -8.369 quatxyzw 0.523720 0.751659 -0.326523 -0.232613 center 8.287 34.468 -0.670 ntor 10 -104.3808 -133.5891 -122.5944 118.8218 80.2410 136.2579 72.0573 -101.9527 22.3980 -11.3027
State:	 14.103   7.935  -8.369   0.538  0.773 -0.336 -153.098   -104.38 -133.59 -122.59  118.82   80.24  136.26   72.06 -101.95   22.40  -11.30

DOCKED: MODEL       13
DOCKED: USER    Run = 13
DOCKED: USER    DPF = D:/Protein_go_brrr/autodock/final/mut_K82N/heme_O2/dock.dpf
DOCKED: USER  
DOCKED: USER    Estimated Free Energy of Binding    =   -3.54 kcal/mol  [=(1)+(2)+(3)-(4)]
DOCKED: USER    Estimated Inhibition Constant, Ki   =    2.55 mM (millimolar)  [Temperature = 298.15 K]
DOCKED: USER    
DOCKED: USER    (1) Final Intermolecular Energy     =   -6.52 kcal/mol
DOCKED: USER        vdW + Hbond + desolv Energy     =   -6.36 kcal/mol
DOCKED: USER        Electrostatic Energy            =   -0.16 kcal/mol
DOCKED: USER    (2) Final Total Internal Energy     =   -2.57 kcal/mol
DOCKED: USER    (3) Torsional Free Energy           =   +2.98 kcal/mol
DOCKED: USER    (4) Unbound System's Energy  [=(2)] =   -2.57 kcal/mol
DOCKED: USER    
DOCKED: USER    
DOCKED: USER    NEWDPF move heme_O2_opt.pdbqt
DOCKED: USER    NEWDPF about 8.287000 34.468000 -0.670000
DOCKED: USER    NEWDPF tran0 14.103466 7.935148 -8.368858
DOCKED: USER    NEWDPF quaternion0 0.523720 0.751659 -0.326523 -0.232613
DOCKED: USER    NEWDPF axisangle0 0.538491 0.772859 -0.335732 -153.098071
DOCKED: USER    NEWDPF quat0 0.538491 0.772859 -0.335732 -153.098071
DOCKED: USER    NEWDPF dihe0 -104.38 -133.59 -122.59 118.82 80.24 136.26 72.06 -101.95 22.40 -11.30 
DOCKED: USER  keepresnum = 1 
DOCKED: USER  
DOCKED: REMARK  10 active torsions:
DOCKED: REMARK  status: ('A' for Active; 'I' for Inactive)
DOCKED: REMARK    1  A    between atoms: C_6  and  C_10 
DOCKED: REMARK    2  A    between atoms: C_10  and  C_11 
DOCKED: REMARK    3  A    between atoms: C_11  and  C_12 
DOCKED: REMARK    4  A    between atoms: C_12  and  O_14 
DOCKED: REMARK    5  A    between atoms: C_17  and  C_20 
DOCKED: REMARK    6  A    between atoms: C_24  and  C_27 
DOCKED: REMARK    7  A    between atoms: C_31  and  C_34 
DOCKED: REMARK    8  A    between atoms: C_34  and  C_35 
DOCKED: REMARK    9  A    between atoms: C_35  and  C_36 
DOCKED: REMARK   10  A    between atoms: C_36  and  O_38 
DOCKED: USER                              x       y       z     vdW  Elec       q    Type
DOCKED: USER                           _______ _______ _______ _____ _____    ______ ____
DOCKED: ROOT
DOCKED: ATOM      1  C   UNL d   1      15.305   7.478  -6.681 -0.13 -0.00    +0.064 A 
DOCKED: ATOM      2  C   UNL d   1      12.368   4.852  -9.335 -0.24 -0.02    +0.064 A 
DOCKED: ATOM      3  C   UNL d   1      11.283   8.657 -12.063 -0.19 -0.00    +0.064 C 
DOCKED: ATOM      4  C   UNL d   1      14.663  11.257  -9.639 -0.12 -0.00    +0.064 A 
DOCKED: ATOM      5  C   UNL d   1      14.596   6.453  -7.182 -0.15 -0.00    +0.066 A 
DOCKED: ATOM      6  C   UNL d   1      14.610   5.159  -6.652 -0.14 +0.00    -0.021 A 
DOCKED: ATOM      7  C   UNL d   1      13.794   4.388  -7.446 -0.20 +0.01    -0.025 A 
DOCKED: ATOM      8  C   UNL d   1      13.266   5.243  -8.410 -0.20 -0.01    +0.066 A 
DOCKED: ATOM      9  C   UNL d   1      13.578   2.900  -7.278 -0.10 -0.02    +0.051 C 
DOCKED: ATOM     10  C   UNL d   1      11.762   5.708 -10.357 -0.24 -0.02    +0.066 A 
DOCKED: ATOM     11  C   UNL d   1      10.716   5.291 -11.187 -0.27 +0.01    -0.021 A 
DOCKED: ATOM     12  C   UNL d   1      10.376   6.380 -11.968 -0.26 -0.00    +0.000 A 
DOCKED: ATOM     13  C   UNL d   1      11.263   7.419 -11.570 -0.19 -0.01    +0.070 A 
DOCKED: ATOM     14  C   UNL d   1      10.049   3.921 -11.214 -0.24 -0.03    +0.052 C 
DOCKED: ATOM     15  C   UNL d   1      12.187   9.725 -11.712 -0.21 +0.00    +0.066 A 
DOCKED: ATOM     16  C   UNL d   1      12.264  10.947 -12.380 -0.19 -0.00    -0.021 A 
DOCKED: ATOM     17  C   UNL d   1      13.222  11.705 -11.707 -0.16 -0.00    +0.000 A 
DOCKED: ATOM     18  C   UNL d   1      13.662  10.878 -10.664 -0.15 -0.00    +0.070 A 
DOCKED: ATOM     19  C   UNL d   1      11.464  11.259 -13.620 -0.14 +0.00    +0.052 C 
DOCKED: ATOM     20  C   UNL d   1      15.140  10.474  -8.652 -0.11 -0.00    +0.066 A 
DOCKED: ATOM     21  C   UNL d   1      16.070  10.892  -7.704 -0.08 +0.00    -0.025 A 
DOCKED: ATOM     22  C   UNL d   1      16.244   9.837  -6.837 -0.09 +0.00    -0.021 A 
DOCKED: ATOM     23  C   UNL d   1      15.424   8.803  -7.300 -0.13 -0.00    +0.066 A 
DOCKED: ATOM     24  C   UNL d   1      16.760  12.229  -7.632 -0.04 -0.00    +0.051 C 
DOCKED: ATOM     25  N   UNL d   1      13.811   6.500  -8.286 -0.11 +0.03    -0.248 N 
DOCKED: ATOM     26  N   UNL d   1      12.106   6.999 -10.593 -0.16 +0.04    -0.248 N 
DOCKED: ATOM     27  N   UNL d   1      13.078   9.654 -10.728 -0.15 +0.01    -0.248 N 
DOCKED: ATOM     28  N   UNL d   1      14.789   9.180  -8.429 -0.09 +0.01    -0.248 N 
DOCKED: ATOM     29 FE   UNL d   1      13.457   8.100  -9.505 -0.06 -0.00    +0.000 Fe
DOCKED: ATOM     30  O   UNL d   1      14.270   6.960 -10.185 -0.14 -0.00    +0.000 OA
DOCKED: ATOM     31  O   UNL d   1      14.652   8.463 -10.461 -0.14 -0.00    +0.000 OA
DOCKED: ENDROOT
DOCKED: BRANCH   6  32
DOCKED: ATOM     32  C   UNL d   1      15.462   4.631  -5.527 -0.08 -0.00    +0.052 C 
DOCKED: BRANCH  32  33
DOCKED: ATOM     33  C   UNL d   1      14.676   4.418  -4.238 -0.15 +0.01    +0.115 C 
DOCKED: BRANCH  33  34
DOCKED: ATOM     34  C   UNL d   1      15.051   5.410  -3.164 -0.12 +0.01    +0.139 C 
DOCKED: ATOM     35  O   UNL d   1      16.143   5.329  -2.623 +0.02 -0.03    -0.650 OA
DOCKED: BRANCH  34  36
DOCKED: ATOM     36  O   UNL d   1      14.195   6.373  -2.766 -0.26 -0.17    -0.776 OA
DOCKED: ATOM     37  H   UNL d   1      14.297   7.292  -3.037 +0.04 +0.01    +0.167 HD
DOCKED: ENDBRANCH  34  36
DOCKED: ENDBRANCH  33  34
DOCKED: ENDBRANCH  32  33
DOCKED: ENDBRANCH   6  32
DOCKED: BRANCH  22  38
DOCKED: ATOM     38  C   UNL d   1      17.196   9.808  -5.669 -0.03 -0.00    +0.052 C 
DOCKED: BRANCH  38  39
DOCKED: ATOM     39  C   UNL d   1      16.546  10.299  -4.377 -0.05 -0.01    +0.115 C 
DOCKED: BRANCH  39  40
DOCKED: ATOM     40  C   UNL d   1      15.640   9.264  -3.758 -0.11 -0.01    +0.139 C 
DOCKED: ATOM     41  O   UNL d   1      14.516   9.098  -4.204 -0.03 +0.04    -0.650 OA
DOCKED: BRANCH  40  42
DOCKED: ATOM     42  O   UNL d   1      16.067   8.479  -2.750 +0.04 +0.02    -0.776 OA
DOCKED: ATOM     43  H   UNL d   1      15.947   7.522  -2.769 +0.03 +0.00    +0.167 HD
DOCKED: ENDBRANCH  40  42
DOCKED: ENDBRANCH  39  40
DOCKED: ENDBRANCH  38  39
DOCKED: ENDBRANCH  22  38
DOCKED: BRANCH  12  44
DOCKED: ATOM     44  C   UNL d   1       9.266   6.317 -12.996 -0.35 -0.00    +0.004 C 
DOCKED: ATOM     45  C   UNL d   1       8.005   5.925 -12.816 -0.36 -0.00    +0.012 C 
DOCKED: ENDBRANCH  12  44
DOCKED: BRANCH  17  46
DOCKED: ATOM     46  C   UNL d   1      13.778  13.075 -11.992 -0.08 -0.00    +0.004 C 
DOCKED: ATOM     47  C   UNL d   1      13.618  14.199 -11.282 -0.08 -0.00    +0.012 C 
DOCKED: ENDBRANCH  17  46
DOCKED: TORSDOF 10
DOCKED: TER
DOCKED: ENDMDL
________________________________________________________________________________


	BEGINNING GENETIC ALGORITHM DOCKING 14 of 100
Run: 14 Seed: 1070439565 41973047 [ Run 14 of 100 GA/GALS ]
Beginning LAMARCKIAN GENETIC ALGORITHM (LGA), with a maximum of 25000000 energy evaluations.

Final-Value: -10.326


	FINAL GENETIC ALGORITHM DOCKED STATE
	_______________________________________________


Detailed state:  trans -8.816 11.152 -11.107 quatxyzw 0.937931 0.043729 -0.333011 0.086466 center 8.287 34.468 -0.670 ntor 10 -147.3528 50.2673 -40.8754 -122.6601 78.8201 76.8832 -84.5777 34.1431 -173.0724 -168.9359
State:	 -8.816  11.152 -11.107   0.941  0.044 -0.334 170.079   -147.35   50.27  -40.88 -122.66   78.82   76.88  -84.58   34.14 -173.07 -168.94

DOCKED: MODEL       14
DOCKED: USER    Run = 14
DOCKED: USER    DPF = D:/Protein_go_brrr/autodock/final/mut_K82N/heme_O2/dock.dpf
DOCKED: USER  
DOCKED: USER    Estimated Free Energy of Binding    =   -5.14 kcal/mol  [=(1)+(2)+(3)-(4)]
DOCKED: USER    Estimated Inhibition Constant, Ki   =  169.77 uM (micromolar)  [Temperature = 298.15 K]
DOCKED: USER    
DOCKED: USER    (1) Final Intermolecular Energy     =   -8.13 kcal/mol
DOCKED: USER        vdW + Hbond + desolv Energy     =   -5.99 kcal/mol
DOCKED: USER        Electrostatic Energy            =   -2.14 kcal/mol
DOCKED: USER    (2) Final Total Internal Energy     =   -2.20 kcal/mol
DOCKED: USER    (3) Torsional Free Energy           =   +2.98 kcal/mol
DOCKED: USER    (4) Unbound System's Energy  [=(2)] =   -2.20 kcal/mol
DOCKED: USER    
DOCKED: USER    
DOCKED: USER    NEWDPF move heme_O2_opt.pdbqt
DOCKED: USER    NEWDPF about 8.287000 34.468000 -0.670000
DOCKED: USER    NEWDPF tran0 -8.815909 11.152209 -11.107407
DOCKED: USER    NEWDPF quaternion0 0.937931 0.043729 -0.333011 0.086466
DOCKED: USER    NEWDPF axisangle0 0.941457 0.043893 -0.334263 170.079313
DOCKED: USER    NEWDPF quat0 0.941457 0.043893 -0.334263 170.079313
DOCKED: USER    NEWDPF dihe0 -147.35 50.27 -40.88 -122.66 78.82 76.88 -84.58 34.14 -173.07 -168.94 
DOCKED: USER  keepresnum = 1 
DOCKED: USER  
DOCKED: REMARK  10 active torsions:
DOCKED: REMARK  status: ('A' for Active; 'I' for Inactive)
DOCKED: REMARK    1  A    between atoms: C_6  and  C_10 
DOCKED: REMARK    2  A    between atoms: C_10  and  C_11 
DOCKED: REMARK    3  A    between atoms: C_11  and  C_12 
DOCKED: REMARK    4  A    between atoms: C_12  and  O_14 
DOCKED: REMARK    5  A    between atoms: C_17  and  C_20 
DOCKED: REMARK    6  A    between atoms: C_24  and  C_27 
DOCKED: REMARK    7  A    between atoms: C_31  and  C_34 
DOCKED: REMARK    8  A    between atoms: C_34  and  C_35 
DOCKED: REMARK    9  A    between atoms: C_35  and  C_36 
DOCKED: REMARK   10  A    between atoms: C_36  and  O_38 
DOCKED: USER                              x       y       z     vdW  Elec       q    Type
DOCKED: USER                           _______ _______ _______ _____ _____    ______ ____
DOCKED: ROOT
DOCKED: ATOM      1  C   UNL d   1      -9.743  10.194  -9.458 -0.11 +0.01    +0.064 A 
DOCKED: ATOM      2  C   UNL d   1     -11.244  13.527 -12.491 -0.06 +0.01    +0.064 A 
DOCKED: ATOM      3  C   UNL d   1      -7.007  13.503 -14.758 -0.17 -0.01    +0.064 C 
DOCKED: ATOM      4  C   UNL d   1      -5.615   9.733 -11.944 -0.11 -0.02    +0.064 A 
DOCKED: ATOM      5  C   UNL d   1     -10.498  11.101 -10.099 -0.09 +0.02    +0.066 A 
DOCKED: ATOM      6  C   UNL d   1     -11.806  11.431  -9.732 -0.04 -0.00    -0.021 A 
DOCKED: ATOM      7  C   UNL d   1     -12.257  12.365 -10.636 -0.04 -0.01    -0.025 A 
DOCKED: ATOM      8  C   UNL d   1     -11.195  12.615 -11.501 -0.07 +0.02    +0.066 A 
DOCKED: ATOM      9  C   UNL d   1     -13.654  12.945 -10.657 -0.01 +0.01    +0.051 C 
DOCKED: ATOM     10  C   UNL d   1     -10.156  13.850 -13.415 -0.01 +0.01    +0.066 A 
DOCKED: ATOM     11  C   UNL d   1     -10.203  14.918 -14.317 -0.05 -0.00    -0.021 A 
DOCKED: ATOM     12  C   UNL d   1      -8.983  14.939 -14.967 -0.07 +0.00    +0.000 A 
DOCKED: ATOM     13  C   UNL d   1      -8.249  13.850 -14.422 -0.05 +0.00    +0.070 A 
DOCKED: ATOM     14  C   UNL d   1     -11.354  15.895 -14.530 -0.02 +0.00    +0.052 C 
DOCKED: ATOM     15  C   UNL d   1      -6.242  12.387 -14.255 -0.19 -0.01    +0.066 A 
DOCKED: ATOM     16  C   UNL d   1      -5.010  11.979 -14.765 -0.23 +0.01    -0.021 A 
DOCKED: ATOM     17  C   UNL d   1      -4.594  10.905 -13.979 -0.30 -0.00    +0.000 A 
DOCKED: ATOM     18  C   UNL d   1      -5.616  10.737 -13.034 -0.25 -0.01    +0.070 A 
DOCKED: ATOM     19  C   UNL d   1      -4.373  12.609 -15.978 -0.18 -0.04    +0.052 C 
DOCKED: ATOM     20  C   UNL d   1      -6.598   9.516 -11.049 -0.24 -0.00    +0.066 A 
DOCKED: ATOM     21  C   UNL d   1      -6.533   8.567 -10.033 -0.29 +0.00    -0.025 A 
DOCKED: ATOM     22  C   UNL d   1      -7.689   8.703  -9.298 -0.23 -0.00    -0.021 A 
DOCKED: ATOM     23  C   UNL d   1      -8.428   9.722  -9.905 -0.16 +0.01    +0.066 A 
DOCKED: ATOM     24  C   UNL d   1      -5.425   7.578  -9.779 -0.41 -0.00    +0.051 C 
DOCKED: ATOM     25  N   UNL d   1     -10.134  11.788 -11.209 -0.03 -0.09    -0.248 N 
DOCKED: ATOM     26  N   UNL d   1      -8.971  13.190 -13.481 +0.02 -0.04    -0.248 N 
DOCKED: ATOM     27  N   UNL d   1      -6.642  11.596 -13.263 -0.13 +0.01    -0.248 N 
DOCKED: ATOM     28  N   UNL d   1      -7.781  10.183 -10.996 -0.11 -0.02    -0.248 N 
DOCKED: ATOM     29 FE   UNL d   1      -8.370  11.675 -12.231 -0.04 +0.00    +0.000 Fe
DOCKED: ATOM     30  O   UNL d   1      -9.591  11.127 -13.024 -0.09 +0.00    +0.000 OA
DOCKED: ATOM     31  O   UNL d   1      -8.208  10.376 -13.103 -0.11 +0.00    +0.000 OA
DOCKED: ENDROOT
DOCKED: BRANCH   6  32
DOCKED: ATOM     32  C   UNL d   1     -12.652  10.796  -8.659 -0.02 +0.01    +0.052 C 
DOCKED: BRANCH  32  33
DOCKED: ATOM     33  C   UNL d   1     -13.461   9.608  -9.168 +0.01 +0.02    +0.115 C 
DOCKED: BRANCH  33  34
DOCKED: ATOM     34  C   UNL d   1     -12.746   8.295  -8.966 +0.00 +0.04    +0.139 C 
DOCKED: ATOM     35  O   UNL d   1     -11.778   8.023  -9.658 +0.03 -0.19    -0.650 OA
DOCKED: BRANCH  34  36
DOCKED: ATOM     36  O   UNL d   1     -13.169   7.397  -8.053 +0.02 -0.37    -0.776 OA
DOCKED: ATOM     37  H   UNL d   1     -12.556   6.825  -7.577 +0.02 +0.13    +0.167 HD
DOCKED: ENDBRANCH  34  36
DOCKED: ENDBRANCH  33  34
DOCKED: ENDBRANCH  32  33
DOCKED: ENDBRANCH   6  32
DOCKED: BRANCH  22  38
DOCKED: ATOM     38  C   UNL d   1      -8.084   7.853  -8.117 -0.19 +0.01    +0.052 C 
DOCKED: BRANCH  38  39
DOCKED: ATOM     39  C   UNL d   1      -8.371   6.406  -8.512 -0.18 +0.04    +0.115 C 
DOCKED: BRANCH  39  40
DOCKED: ATOM     40  C   UNL d   1      -9.449   5.780  -7.663 -0.13 +0.14    +0.139 C 
DOCKED: ATOM     41  O   UNL d   1      -9.323   4.630  -7.273 -0.46 -1.07    -0.650 OA
DOCKED: BRANCH  40  42
DOCKED: ATOM     42  O   UNL d   1     -10.531   6.486  -7.281 -0.20 -0.89    -0.776 OA
DOCKED: ATOM     43  H   UNL d   1     -11.080   6.954  -7.921 +0.03 +0.12    +0.167 HD
DOCKED: ENDBRANCH  40  42
DOCKED: ENDBRANCH  39  40
DOCKED: ENDBRANCH  38  39
DOCKED: ENDBRANCH  22  38
DOCKED: BRANCH  12  44
DOCKED: ATOM     44  C   UNL d   1      -8.653  15.972 -16.024 -0.05 -0.00    +0.004 C 
DOCKED: ATOM     45  C   UNL d   1      -7.531  16.680 -16.155 -0.07 -0.00    +0.012 C 
DOCKED: ENDBRANCH  12  44
DOCKED: BRANCH  17  46
DOCKED: ATOM     46  C   UNL d   1      -3.381  10.018 -14.079 -0.40 -0.00    +0.004 C 
DOCKED: ATOM     47  C   UNL d   1      -3.331   8.680 -14.078 -0.48 -0.00    +0.012 C 
DOCKED: ENDBRANCH  17  46
DOCKED: TORSDOF 10
DOCKED: TER
DOCKED: ENDMDL
________________________________________________________________________________


	BEGINNING GENETIC ALGORITHM DOCKING 15 of 100
Run: 15 Seed: 963956352 166877881 [ Run 15 of 100 GA/GALS ]
Beginning LAMARCKIAN GENETIC ALGORITHM (LGA), with a maximum of 25000000 energy evaluations.

Final-Value: -10.637


	FINAL GENETIC ALGORITHM DOCKED STATE
	_______________________________________________


Detailed state:  trans -12.156 13.598 -9.209 quatxyzw -0.312370 0.133477 -0.413464 -0.844782 center 8.287 34.468 -0.670 ntor 10 18.4387 -137.3488 -77.7352 -79.7192 85.2443 125.8754 153.4638 121.0910 -150.2571 -180.0000
State:	-12.156  13.598  -9.209  -0.584  0.249 -0.773 -64.703     18.44 -137.35  -77.74  -79.72   85.24  125.88  153.46  121.09 -150.26 -180.00

DOCKED: MODEL       15
DOCKED: USER    Run = 15
DOCKED: USER    DPF = D:/Protein_go_brrr/autodock/final/mut_K82N/heme_O2/dock.dpf
DOCKED: USER  
DOCKED: USER    Estimated Free Energy of Binding    =   -5.22 kcal/mol  [=(1)+(2)+(3)-(4)]
DOCKED: USER    Estimated Inhibition Constant, Ki   =  149.77 uM (micromolar)  [Temperature = 298.15 K]
DOCKED: USER    
DOCKED: USER    (1) Final Intermolecular Energy     =   -8.20 kcal/mol
DOCKED: USER        vdW + Hbond + desolv Energy     =   -6.36 kcal/mol
DOCKED: USER        Electrostatic Energy            =   -1.84 kcal/mol
DOCKED: USER    (2) Final Total Internal Energy     =   -2.44 kcal/mol
DOCKED: USER    (3) Torsional Free Energy           =   +2.98 kcal/mol
DOCKED: USER    (4) Unbound System's Energy  [=(2)] =   -2.44 kcal/mol
DOCKED: USER    
DOCKED: USER    
DOCKED: USER    NEWDPF move heme_O2_opt.pdbqt
DOCKED: USER    NEWDPF about 8.287000 34.468000 -0.670000
DOCKED: USER    NEWDPF tran0 -12.156246 13.598441 -9.208991
DOCKED: USER    NEWDPF quaternion0 -0.312370 0.133477 -0.413464 -0.844782
DOCKED: USER    NEWDPF axisangle0 -0.583748 0.249438 -0.772670 -64.702876
DOCKED: USER    NEWDPF quat0 -0.583748 0.249438 -0.772670 -64.702876
DOCKED: USER    NEWDPF dihe0 18.44 -137.35 -77.74 -79.72 85.24 125.88 153.46 121.09 -150.26 -180.00 
DOCKED: USER  keepresnum = 1 
DOCKED: USER  
DOCKED: REMARK  10 active torsions:
DOCKED: REMARK  status: ('A' for Active; 'I' for Inactive)
DOCKED: REMARK    1  A    between atoms: C_6  and  C_10 
DOCKED: REMARK    2  A    between atoms: C_10  and  C_11 
DOCKED: REMARK    3  A    between atoms: C_11  and  C_12 
DOCKED: REMARK    4  A    between atoms: C_12  and  O_14 
DOCKED: REMARK    5  A    between atoms: C_17  and  C_20 
DOCKED: REMARK    6  A    between atoms: C_24  and  C_27 
DOCKED: REMARK    7  A    between atoms: C_31  and  C_34 
DOCKED: REMARK    8  A    between atoms: C_34  and  C_35 
DOCKED: REMARK    9  A    between atoms: C_35  and  C_36 
DOCKED: REMARK   10  A    between atoms: C_36  and  O_38 
DOCKED: USER                              x       y       z     vdW  Elec       q    Type
DOCKED: USER                           _______ _______ _______ _____ _____    ______ ____
DOCKED: ROOT
DOCKED: ATOM      1  C   UNL d   1     -13.337  15.005 -10.270 -0.03 +0.02    +0.064 A 
DOCKED: ATOM      2  C   UNL d   1     -12.490  14.372  -5.640 -0.10 +0.04    +0.064 A 
DOCKED: ATOM      3  C   UNL d   1      -9.694  10.577  -6.577 -0.20 +0.02    +0.064 C 
DOCKED: ATOM      4  C   UNL d   1     -10.173  11.509 -11.369 -0.03 +0.02    +0.064 A 
DOCKED: ATOM      5  C   UNL d   1     -13.333  15.144  -8.934 -0.07 +0.03    +0.066 A 
DOCKED: ATOM      6  C   UNL d   1     -14.052  16.126  -8.247 -0.06 -0.01    -0.021 A 
DOCKED: ATOM      7  C   UNL d   1     -13.773  15.971  -6.909 -0.08 -0.01    -0.025 A 
DOCKED: ATOM      8  C   UNL d   1     -12.930  14.867  -6.812 -0.07 +0.04    +0.066 A 
DOCKED: ATOM      9  C   UNL d   1     -14.284  16.874  -5.808 -0.07 +0.02    +0.051 C 
DOCKED: ATOM     10  C   UNL d   1     -11.623  13.204  -5.474 -0.18 +0.03    +0.066 A 
DOCKED: ATOM     11  C   UNL d   1     -11.329  12.634  -4.230 -0.26 -0.01    -0.021 A 
DOCKED: ATOM     12  C   UNL d   1     -10.539  11.528  -4.480 -0.36 +0.00    +0.000 A 
DOCKED: ATOM     13  C   UNL d   1     -10.381  11.492  -5.893 -0.24 +0.02    +0.070 A 
DOCKED: ATOM     14  C   UNL d   1     -11.805  13.109  -2.862 -0.30 +0.01    +0.052 C 
DOCKED: ATOM     15  C   UNL d   1      -9.481  10.525  -8.003 -0.16 +0.01    +0.066 A 
DOCKED: ATOM     16  C   UNL d   1      -8.617   9.636  -8.642 -0.21 -0.00    -0.021 A 
DOCKED: ATOM     17  C   UNL d   1      -8.736   9.884 -10.009 -0.16 +0.00    +0.000 A 
DOCKED: ATOM     18  C   UNL d   1      -9.679  10.918 -10.103 -0.01 +0.02    +0.070 A 
DOCKED: ATOM     19  C   UNL d   1      -7.723   8.678  -7.895 -0.31 +0.01    +0.052 C 
DOCKED: ATOM     20  C   UNL d   1     -11.044  12.530 -11.494 -0.07 +0.02    +0.066 A 
DOCKED: ATOM     21  C   UNL d   1     -11.487  13.033 -12.714 -0.05 -0.00    -0.025 A 
DOCKED: ATOM     22  C   UNL d   1     -12.409  14.012 -12.420 -0.03 -0.00    -0.021 A 
DOCKED: ATOM     23  C   UNL d   1     -12.482  14.083 -11.026 -0.04 +0.02    +0.066 A 
DOCKED: ATOM     24  C   UNL d   1     -11.049  12.604 -14.090 -0.03 +0.00    +0.051 C 
DOCKED: ATOM     25  N   UNL d   1     -12.607  14.399  -8.065 -0.08 -0.14    -0.248 N 
DOCKED: ATOM     26  N   UNL d   1     -11.040  12.518  -6.489 -0.14 -0.09    -0.248 N 
DOCKED: ATOM     27  N   UNL d   1     -10.063  11.345  -8.873 -0.11 -0.07    -0.248 N 
DOCKED: ATOM     28  N   UNL d   1     -11.617  13.211 -10.467 -0.06 -0.08    -0.248 N 
DOCKED: ATOM     29 FE   UNL d   1     -11.329  12.865  -8.493 -0.03 +0.00    +0.000 Fe
DOCKED: ATOM     30  O   UNL d   1     -10.623  14.132  -7.928 -0.52 +0.00    +0.000 OA
DOCKED: ATOM     31  O   UNL d   1      -9.950  13.321  -9.099 -0.32 +0.00    +0.000 OA
DOCKED: ENDROOT
DOCKED: BRANCH   6  32
DOCKED: ATOM     32  C   UNL d   1     -14.861  17.255  -8.830 -0.02 +0.02    +0.052 C 
DOCKED: BRANCH  32  33
DOCKED: ATOM     33  C   UNL d   1     -14.004  18.278  -9.570 -0.03 +0.04    +0.115 C 
DOCKED: BRANCH  33  34
DOCKED: ATOM     34  C   UNL d   1     -12.603  18.362  -9.017 +0.06 +0.14    +0.139 C 
DOCKED: ATOM     35  O   UNL d   1     -12.427  18.777  -7.883 -0.56 -0.97    -0.650 OA
DOCKED: BRANCH  34  36
DOCKED: ATOM     36  O   UNL d   1     -11.532  18.016  -9.760 -0.10 -0.85    -0.776 OA
DOCKED: ATOM     37  H   UNL d   1     -11.574  17.959 -10.722 +0.03 +0.10    +0.167 HD
DOCKED: ENDBRANCH  34  36
DOCKED: ENDBRANCH  33  34
DOCKED: ENDBRANCH  32  33
DOCKED: ENDBRANCH   6  32
DOCKED: BRANCH  22  38
DOCKED: ATOM     38  C   UNL d   1     -13.129  14.871 -13.427 -0.01 +0.01    +0.052 C 
DOCKED: BRANCH  38  39
DOCKED: ATOM     39  C   UNL d   1     -12.250  15.999 -13.963 -0.01 +0.01    +0.115 C 
DOCKED: BRANCH  39  40
DOCKED: ATOM     40  C   UNL d   1     -11.777  16.929 -12.874 -0.03 +0.02    +0.139 C 
DOCKED: ATOM     41  O   UNL d   1     -12.451  17.901 -12.571 +0.02 -0.11    -0.650 OA
DOCKED: BRANCH  40  42
DOCKED: ATOM     42  O   UNL d   1     -10.645  16.679 -12.188 +0.01 -0.24    -0.776 OA
DOCKED: ATOM     43  H   UNL d   1     -10.608  16.759 -11.228 +0.01 +0.09    +0.167 HD
DOCKED: ENDBRANCH  40  42
DOCKED: ENDBRANCH  39  40
DOCKED: ENDBRANCH  38  39
DOCKED: ENDBRANCH  22  38
DOCKED: BRANCH  12  44
DOCKED: ATOM     44  C   UNL d   1     -10.023  10.640  -3.367 -0.52 +0.00    +0.004 C 
DOCKED: ATOM     45  C   UNL d   1     -10.530   9.484  -2.940 -0.42 +0.00    +0.012 C 
DOCKED: ENDBRANCH  12  44
DOCKED: BRANCH  17  46
DOCKED: ATOM     46  C   UNL d   1      -8.016   9.287 -11.188 -0.17 +0.00    +0.004 C 
DOCKED: ATOM     47  C   UNL d   1      -6.848   9.665 -11.725 -0.26 -0.00    +0.012 C 
DOCKED: ENDBRANCH  17  46
DOCKED: TORSDOF 10
DOCKED: TER
DOCKED: ENDMDL
________________________________________________________________________________


	BEGINNING GENETIC ALGORITHM DOCKING 16 of 100
Run: 16 Seed: 2014821622 1375828309 [ Run 16 of 100 GA/GALS ]
Beginning LAMARCKIAN GENETIC ALGORITHM (LGA), with a maximum of 25000000 energy evaluations.

Final-Value: -9.594


	FINAL GENETIC ALGORITHM DOCKED STATE
	_______________________________________________


Detailed state:  trans 10.791 -3.737 21.398 quatxyzw 0.479861 0.064942 -0.466343 -0.740297 center 8.287 34.468 -0.670 ntor 10 106.5134 151.5670 -52.8984 82.1428 -177.3499 -63.8390 -52.7954 94.4090 -176.9841 175.8861
State:	 10.791  -3.737  21.398   0.714  0.097 -0.694 -84.487    106.51  151.57  -52.90   82.14 -177.35  -63.84  -52.80   94.41 -176.98  175.89

DOCKED: MODEL       16
DOCKED: USER    Run = 16
DOCKED: USER    DPF = D:/Protein_go_brrr/autodock/final/mut_K82N/heme_O2/dock.dpf
DOCKED: USER  
DOCKED: USER    Estimated Free Energy of Binding    =   -4.06 kcal/mol  [=(1)+(2)+(3)-(4)]
DOCKED: USER    Estimated Inhibition Constant, Ki   =    1.05 mM (millimolar)  [Temperature = 298.15 K]
DOCKED: USER    
DOCKED: USER    (1) Final Intermolecular Energy     =   -7.05 kcal/mol
DOCKED: USER        vdW + Hbond + desolv Energy     =   -5.31 kcal/mol
DOCKED: USER        Electrostatic Energy            =   -1.74 kcal/mol
DOCKED: USER    (2) Final Total Internal Energy     =   -2.55 kcal/mol
DOCKED: USER    (3) Torsional Free Energy           =   +2.98 kcal/mol
DOCKED: USER    (4) Unbound System's Energy  [=(2)] =   -2.55 kcal/mol
DOCKED: USER    
DOCKED: USER    
DOCKED: USER    NEWDPF move heme_O2_opt.pdbqt
DOCKED: USER    NEWDPF about 8.287000 34.468000 -0.670000
DOCKED: USER    NEWDPF tran0 10.791123 -3.737065 21.398277
DOCKED: USER    NEWDPF quaternion0 0.479861 0.064942 -0.466343 -0.740297
DOCKED: USER    NEWDPF axisangle0 0.713782 0.096599 -0.693674 -84.486525
DOCKED: USER    NEWDPF quat0 0.713782 0.096599 -0.693674 -84.486525
DOCKED: USER    NEWDPF dihe0 106.51 151.57 -52.90 82.14 -177.35 -63.84 -52.80 94.41 -176.98 175.89 
DOCKED: USER  keepresnum = 1 
DOCKED: USER  
DOCKED: REMARK  10 active torsions:
DOCKED: REMARK  status: ('A' for Active; 'I' for Inactive)
DOCKED: REMARK    1  A    between atoms: C_6  and  C_10 
DOCKED: REMARK    2  A    between atoms: C_10  and  C_11 
DOCKED: REMARK    3  A    between atoms: C_11  and  C_12 
DOCKED: REMARK    4  A    between atoms: C_12  and  O_14 
DOCKED: REMARK    5  A    between atoms: C_17  and  C_20 
DOCKED: REMARK    6  A    between atoms: C_24  and  C_27 
DOCKED: REMARK    7  A    between atoms: C_31  and  C_34 
DOCKED: REMARK    8  A    between atoms: C_34  and  C_35 
DOCKED: REMARK    9  A    between atoms: C_35  and  C_36 
DOCKED: REMARK   10  A    between atoms: C_36  and  O_38 
DOCKED: USER                              x       y       z     vdW  Elec       q    Type
DOCKED: USER                           _______ _______ _______ _____ _____    ______ ____
DOCKED: ROOT
DOCKED: ATOM      1  C   UNL d   1      10.485  -1.883  22.381 -0.10 +0.01    +0.064 A 
DOCKED: ATOM      2  C   UNL d   1       7.783  -5.764  21.939 -0.09 -0.00    +0.064 A 
DOCKED: ATOM      3  C   UNL d   1      11.143  -7.909  19.255 -0.21 +0.01    +0.064 C 
DOCKED: ATOM      4  C   UNL d   1      14.129  -4.110  20.102 -0.11 +0.01    +0.064 A 
DOCKED: ATOM      5  C   UNL d   1       9.476  -2.764  22.482 -0.18 -0.00    +0.066 A 
DOCKED: ATOM      6  C   UNL d   1       8.284  -2.515  23.167 -0.21 -0.00    -0.021 A 
DOCKED: ATOM      7  C   UNL d   1       7.519  -3.654  23.076 -0.15 +0.00    -0.025 A 
DOCKED: ATOM      8  C   UNL d   1       8.245  -4.550  22.297 -0.14 -0.00    +0.066 A 
DOCKED: ATOM      9  C   UNL d   1       6.175  -3.849  23.743 -0.09 -0.00    +0.051 C 
DOCKED: ATOM     10  C   UNL d   1       8.488  -6.738  21.104 -0.09 +0.00    +0.066 A 
DOCKED: ATOM     11  C   UNL d   1       7.898  -7.914  20.628 -0.09 -0.00    -0.021 A 
DOCKED: ATOM     12  C   UNL d   1       8.845  -8.537  19.837 -0.13 +0.00    +0.000 A 
DOCKED: ATOM     13  C   UNL d   1       9.990  -7.694  19.887 -0.05 +0.01    +0.070 A 
DOCKED: ATOM     14  C   UNL d   1       6.481  -8.408  20.894 -0.04 -0.00    +0.052 C 
DOCKED: ATOM     15  C   UNL d   1      12.336  -7.099  19.308 -0.19 +0.01    +0.066 A 
DOCKED: ATOM     16  C   UNL d   1      13.564  -7.462  18.756 -0.22 -0.00    -0.021 A 
DOCKED: ATOM     17  C   UNL d   1      14.431  -6.395  18.986 -0.18 +0.00    +0.000 A 
DOCKED: ATOM     18  C   UNL d   1      13.656  -5.446  19.668 -0.16 +0.01    +0.070 A 
DOCKED: ATOM     19  C   UNL d   1      13.813  -8.805  18.115 -0.16 +0.01    +0.052 C 
DOCKED: ATOM     20  C   UNL d   1      13.426  -3.194  20.795 -0.10 +0.00    +0.066 A 
DOCKED: ATOM     21  C   UNL d   1      13.919  -1.944  21.160 -0.08 -0.00    -0.025 A 
DOCKED: ATOM     22  C   UNL d   1      12.885  -1.285  21.787 -0.15 -0.00    -0.021 A 
DOCKED: ATOM     23  C   UNL d   1      11.800  -2.168  21.797 -0.19 +0.01    +0.066 A 
DOCKED: ATOM     24  C   UNL d   1      15.307  -1.407  20.926 -0.04 +0.00    +0.051 C 
DOCKED: ATOM     25  N   UNL d   1       9.478  -4.026  21.986 -0.12 +0.01    -0.248 N 
DOCKED: ATOM     26  N   UNL d   1       9.765  -6.604  20.664 +0.02 -0.02    -0.248 N 
DOCKED: ATOM     27  N   UNL d   1      12.410  -5.921  19.921 -0.09 -0.03    -0.248 N 
DOCKED: ATOM     28  N   UNL d   1      12.147  -3.343  21.233 -0.09 -0.01    -0.248 N 
DOCKED: ATOM     29 FE   UNL d   1      10.967  -4.963  20.950 -0.04 +0.00    +0.000 Fe
DOCKED: ATOM     30  O   UNL d   1      10.709  -5.565  22.361 -0.09 +0.00    +0.000 OA
DOCKED: ATOM     31  O   UNL d   1      12.186  -5.416  21.834 -0.09 +0.00    +0.000 OA
DOCKED: ENDROOT
DOCKED: BRANCH   6  32
DOCKED: ATOM     32  C   UNL d   1       7.930  -1.306  23.994 -0.19 +0.01    +0.052 C 
DOCKED: BRANCH  32  33
DOCKED: ATOM     33  C   UNL d   1       8.252  -1.485  25.474 -0.08 +0.02    +0.115 C 
DOCKED: BRANCH  33  34
DOCKED: ATOM     34  C   UNL d   1       9.144  -0.390  26.005 -0.10 +0.06    +0.139 C 
DOCKED: ATOM     35  O   UNL d   1       9.065   0.734  25.536 +0.06 -0.56    -0.650 OA
DOCKED: BRANCH  34  36
DOCKED: ATOM     36  O   UNL d   1      10.052  -0.631  26.973 +0.00 -0.34    -0.776 OA
DOCKED: ATOM     37  H   UNL d   1      10.998  -0.667  26.789 +0.01 +0.08    +0.167 HD
DOCKED: ENDBRANCH  34  36
DOCKED: ENDBRANCH  33  34
DOCKED: ENDBRANCH  32  33
DOCKED: ENDBRANCH   6  32
DOCKED: BRANCH  22  38
DOCKED: ATOM     38  C   UNL d   1      12.962   0.091  22.397 -0.15 +0.02    +0.052 C 
DOCKED: BRANCH  38  39
DOCKED: ATOM     39  C   UNL d   1      13.562   0.072  23.801 -0.11 +0.05    +0.115 C 
DOCKED: BRANCH  39  40
DOCKED: ATOM     40  C   UNL d   1      12.526  -0.182  24.867 -0.10 +0.09    +0.139 C 
DOCKED: ATOM     41  O   UNL d   1      12.155  -1.323  25.092 -0.01 -0.24    -0.650 OA
DOCKED: BRANCH  40  42
DOCKED: ATOM     42  O   UNL d   1      12.037   0.825  25.616 -0.38 -1.22    -0.776 OA
DOCKED: ATOM     43  H   UNL d   1      11.163   0.774  26.021 -0.00 +0.27    +0.167 HD
DOCKED: ENDBRANCH  40  42
DOCKED: ENDBRANCH  39  40
DOCKED: ENDBRANCH  38  39
DOCKED: ENDBRANCH  22  38
DOCKED: BRANCH  12  44
DOCKED: ATOM     44  C   UNL d   1       8.567  -9.849  19.133 -0.12 +0.00    +0.004 C 
DOCKED: ATOM     45  C   UNL d   1       8.644 -10.110  17.829 -0.22 +0.00    +0.012 C 
DOCKED: ENDBRANCH  12  44
DOCKED: BRANCH  17  46
DOCKED: ATOM     46  C   UNL d   1      15.895  -6.226  18.678 -0.14 +0.00    +0.004 C 
DOCKED: ATOM     47  C   UNL d   1      16.470  -5.987  17.492 -0.16 +0.00    +0.012 C 
DOCKED: ENDBRANCH  17  46
DOCKED: TORSDOF 10
DOCKED: TER
DOCKED: ENDMDL
________________________________________________________________________________


	BEGINNING GENETIC ALGORITHM DOCKING 17 of 100
Run: 17 Seed: 1691119824 1954494015 [ Run 17 of 100 GA/GALS ]
Beginning LAMARCKIAN GENETIC ALGORITHM (LGA), with a maximum of 25000000 energy evaluations.

Final-Value: -8.730


	FINAL GENETIC ALGORITHM DOCKED STATE
	_______________________________________________


Detailed state:  trans 14.187 -3.686 4.414 quatxyzw 0.002490 0.348364 -0.459535 0.816985 center 8.287 34.468 -0.670 ntor 10 -105.0027 63.0536 21.2383 -104.5403 23.7345 -84.1968 48.3920 -21.7742 159.4639 118.1159
State:	 14.187  -3.686   4.414   0.004  0.604 -0.797 70.432   -105.00   63.05   21.24 -104.54   23.73  -84.20   48.39  -21.77  159.46  118.12

DOCKED: MODEL       17
DOCKED: USER    Run = 17
DOCKED: USER    DPF = D:/Protein_go_brrr/autodock/final/mut_K82N/heme_O2/dock.dpf
DOCKED: USER  
DOCKED: USER    Estimated Free Energy of Binding    =   -5.30 kcal/mol  [=(1)+(2)+(3)-(4)]
DOCKED: USER    Estimated Inhibition Constant, Ki   =  130.18 uM (micromolar)  [Temperature = 298.15 K]
DOCKED: USER    
DOCKED: USER    (1) Final Intermolecular Energy     =   -8.28 kcal/mol
DOCKED: USER        vdW + Hbond + desolv Energy     =   -7.70 kcal/mol
DOCKED: USER        Electrostatic Energy            =   -0.59 kcal/mol
DOCKED: USER    (2) Final Total Internal Energy     =   -0.45 kcal/mol
DOCKED: USER    (3) Torsional Free Energy           =   +2.98 kcal/mol
DOCKED: USER    (4) Unbound System's Energy  [=(2)] =   -0.45 kcal/mol
DOCKED: USER    
DOCKED: USER    
DOCKED: USER    NEWDPF move heme_O2_opt.pdbqt
DOCKED: USER    NEWDPF about 8.287000 34.468000 -0.670000
DOCKED: USER    NEWDPF tran0 14.186994 -3.686307 4.414164
DOCKED: USER    NEWDPF quaternion0 0.002490 0.348364 -0.459535 0.816985
DOCKED: USER    NEWDPF axisangle0 0.004317 0.604107 -0.796892 70.431757
DOCKED: USER    NEWDPF quat0 0.004317 0.604107 -0.796892 70.431757
DOCKED: USER    NEWDPF dihe0 -105.00 63.05 21.24 -104.54 23.73 -84.20 48.39 -21.77 159.46 118.12 
DOCKED: USER  keepresnum = 1 
DOCKED: USER  
DOCKED: REMARK  10 active torsions:
DOCKED: REMARK  status: ('A' for Active; 'I' for Inactive)
DOCKED: REMARK    1  A    between atoms: C_6  and  C_10 
DOCKED: REMARK    2  A    between atoms: C_10  and  C_11 
DOCKED: REMARK    3  A    between atoms: C_11  and  C_12 
DOCKED: REMARK    4  A    between atoms: C_12  and  O_14 
DOCKED: REMARK    5  A    between atoms: C_17  and  C_20 
DOCKED: REMARK    6  A    between atoms: C_24  and  C_27 
DOCKED: REMARK    7  A    between atoms: C_31  and  C_34 
DOCKED: REMARK    8  A    between atoms: C_34  and  C_35 
DOCKED: REMARK    9  A    between atoms: C_35  and  C_36 
DOCKED: REMARK   10  A    between atoms: C_36  and  O_38 
DOCKED: USER                              x       y       z     vdW  Elec       q    Type
DOCKED: USER                           _______ _______ _______ _____ _____    ______ ____
DOCKED: ROOT
DOCKED: ATOM      1  C   UNL d   1      13.567  -4.493   2.553 -0.14 +0.00    +0.064 A 
DOCKED: ATOM      2  C   UNL d   1      13.885  -6.356   6.911 -0.22 +0.01    +0.064 A 
DOCKED: ATOM      3  C   UNL d   1      15.575  -2.211   8.659 -0.12 -0.00    +0.064 C 
DOCKED: ATOM      4  C   UNL d   1      14.802  -0.142   4.279 -0.06 +0.00    +0.064 A 
DOCKED: ATOM      5  C   UNL d   1      13.514  -5.337   3.596 -0.13 +0.00    +0.066 A 
DOCKED: ATOM      6  C   UNL d   1      13.095  -6.668   3.505 -0.17 -0.00    -0.021 A 
DOCKED: ATOM      7  C   UNL d   1      13.146  -7.196   4.774 -0.22 -0.00    -0.025 A 
DOCKED: ATOM      8  C   UNL d   1      13.640  -6.187   5.597 -0.21 +0.01    +0.066 A 
DOCKED: ATOM      9  C   UNL d   1      12.705  -8.594   5.148 -0.29 +0.00    +0.051 C 
DOCKED: ATOM     10  C   UNL d   1      14.423  -5.343   7.819 -0.24 +0.00    +0.066 A 
DOCKED: ATOM     11  C   UNL d   1      14.812  -5.618   9.135 -0.28 +0.00    -0.021 A 
DOCKED: ATOM     12  C   UNL d   1      15.319  -4.439   9.650 -0.25 -0.00    +0.000 A 
DOCKED: ATOM     13  C   UNL d   1      15.197  -3.488   8.600 -0.15 -0.00    +0.070 A 
DOCKED: ATOM     14  C   UNL d   1      14.730  -6.956   9.861 -0.29 -0.00    +0.052 C 
DOCKED: ATOM     15  C   UNL d   1      15.436  -1.207   7.632 -0.02 +0.00    +0.066 A 
DOCKED: ATOM     16  C   UNL d   1      15.700   0.150   7.811 -0.06 -0.00    -0.021 A 
DOCKED: ATOM     17  C   UNL d   1      15.486   0.760   6.576 -0.06 +0.00    +0.000 A 
DOCKED: ATOM     18  C   UNL d   1      15.104  -0.285   5.723 -0.08 +0.00    +0.070 A 
DOCKED: ATOM     19  C   UNL d   1      16.076   0.745   9.145 -0.07 -0.00    +0.052 C 
DOCKED: ATOM     20  C   UNL d   1      14.391  -1.115   3.443 -0.10 +0.00    +0.066 A 
DOCKED: ATOM     21  C   UNL d   1      14.138  -0.923   2.087 -0.12 -0.00    -0.025 A 
DOCKED: ATOM     22  C   UNL d   1      13.812  -2.158   1.573 -0.15 -0.00    -0.021 A 
DOCKED: ATOM     23  C   UNL d   1      13.859  -3.058   2.643 -0.12 +0.00    +0.066 A 
DOCKED: ATOM     24  C   UNL d   1      14.203   0.373   1.322 -0.11 +0.00    +0.051 C 
DOCKED: ATOM     25  N   UNL d   1      13.804  -5.023   4.882 -0.12 -0.03    -0.248 N 
DOCKED: ATOM     26  N   UNL d   1      14.647  -4.045   7.492 -0.13 -0.01    -0.248 N 
DOCKED: ATOM     27  N   UNL d   1      15.006  -1.458   6.398 -0.07 -0.02    -0.248 N 
DOCKED: ATOM     28  N   UNL d   1      14.168  -2.411   3.786 -0.09 -0.01    -0.248 N 
DOCKED: ATOM     29 FE   UNL d   1      14.406  -3.219   5.626 -0.03 +0.00    +0.000 Fe
DOCKED: ATOM     30  O   UNL d   1      12.987  -3.651   6.098 -0.49 +0.00    +0.000 OA
DOCKED: ATOM     31  O   UNL d   1      13.261  -2.145   5.727 -0.59 +0.00    +0.000 OA
DOCKED: ENDROOT
DOCKED: BRANCH   6  32
DOCKED: ATOM     32  C   UNL d   1      12.538  -7.380   2.300 -0.20 +0.00    +0.052 C 
DOCKED: BRANCH  32  33
DOCKED: ATOM     33  C   UNL d   1      11.098  -7.842   2.499 -0.19 +0.01    +0.115 C 
DOCKED: BRANCH  33  34
DOCKED: ATOM     34  C   UNL d   1      10.883  -9.266   2.047 -0.26 +0.01    +0.139 C 
DOCKED: ATOM     35  O   UNL d   1       9.984  -9.520   1.261 -0.06 -0.05    -0.650 OA
DOCKED: BRANCH  34  36
DOCKED: ATOM     36  O   UNL d   1      11.647 -10.275   2.515 +0.04 -0.11    -0.776 OA
DOCKED: ATOM     37  H   UNL d   1      12.340 -10.681   1.981 +0.04 +0.02    +0.167 HD
DOCKED: ENDBRANCH  34  36
DOCKED: ENDBRANCH  33  34
DOCKED: ENDBRANCH  32  33
DOCKED: ENDBRANCH   6  32
DOCKED: BRANCH  22  38
DOCKED: ATOM     38  C   UNL d   1      13.414  -2.439   0.147 -0.19 +0.01    +0.052 C 
DOCKED: BRANCH  38  39
DOCKED: ATOM     39  C   UNL d   1      12.275  -3.451   0.049 -0.22 +0.00    +0.115 C 
DOCKED: BRANCH  39  40
DOCKED: ATOM     40  C   UNL d   1      11.512  -3.337  -1.247 -0.22 +0.04    +0.139 C 
DOCKED: ATOM     41  O   UNL d   1      12.091  -3.505  -2.308 -0.45 -0.38    -0.650 OA
DOCKED: BRANCH  40  42
DOCKED: ATOM     42  O   UNL d   1      10.186  -3.102  -1.255 -0.03 -0.06    -0.776 OA
DOCKED: ATOM     43  H   UNL d   1       9.819  -2.270  -0.933 -0.38 -0.04    +0.167 HD
DOCKED: ENDBRANCH  40  42
DOCKED: ENDBRANCH  39  40
DOCKED: ENDBRANCH  38  39
DOCKED: ENDBRANCH  22  38
DOCKED: BRANCH  12  44
DOCKED: ATOM     44  C   UNL d   1      15.854  -4.344  11.064 -0.13 +0.00    +0.004 C 
DOCKED: ATOM     45  C   UNL d   1      16.078  -3.245  11.782 -0.17 -0.00    +0.012 C 
DOCKED: ENDBRANCH  12  44
DOCKED: BRANCH  17  46
DOCKED: ATOM     46  C   UNL d   1      15.553   2.207   6.163 -0.03 +0.00    +0.004 C 
DOCKED: ATOM     47  C   UNL d   1      14.547   3.012   5.798 -0.06 -0.00    +0.012 C 
DOCKED: ENDBRANCH  17  46
DOCKED: TORSDOF 10
DOCKED: TER
DOCKED: ENDMDL
________________________________________________________________________________


	BEGINNING GENETIC ALGORITHM DOCKING 18 of 100
Run: 18 Seed: 404519019 1533086477 [ Run 18 of 100 GA/GALS ]
Beginning LAMARCKIAN GENETIC ALGORITHM (LGA), with a maximum of 25000000 energy evaluations.

Final-Value: -9.671


	FINAL GENETIC ALGORITHM DOCKED STATE
	_______________________________________________


Detailed state:  trans 12.133 3.849 18.960 quatxyzw 0.303088 0.824579 -0.089103 -0.469327 center 8.287 34.468 -0.670 ntor 10 -149.5308 87.6792 57.1718 140.5850 -147.2060 -34.9990 -49.9196 -1.9021 -128.4084 -11.9187
State:	 12.133   3.849  18.960   0.343  0.934 -0.101 -124.019   -149.53   87.68   57.17  140.58 -147.21  -35.00  -49.92   -1.90 -128.41  -11.92

DOCKED: MODEL       18
DOCKED: USER    Run = 18
DOCKED: USER    DPF = D:/Protein_go_brrr/autodock/final/mut_K82N/heme_O2/dock.dpf
DOCKED: USER  
DOCKED: USER    Estimated Free Energy of Binding    =   -5.34 kcal/mol  [=(1)+(2)+(3)-(4)]
DOCKED: USER    Estimated Inhibition Constant, Ki   =  122.84 uM (micromolar)  [Temperature = 298.15 K]
DOCKED: USER    
DOCKED: USER    (1) Final Intermolecular Energy     =   -8.32 kcal/mol
DOCKED: USER        vdW + Hbond + desolv Energy     =   -5.97 kcal/mol
DOCKED: USER        Electrostatic Energy            =   -2.34 kcal/mol
DOCKED: USER    (2) Final Total Internal Energy     =   -1.35 kcal/mol
DOCKED: USER    (3) Torsional Free Energy           =   +2.98 kcal/mol
DOCKED: USER    (4) Unbound System's Energy  [=(2)] =   -1.35 kcal/mol
DOCKED: USER    
DOCKED: USER    
DOCKED: USER    NEWDPF move heme_O2_opt.pdbqt
DOCKED: USER    NEWDPF about 8.287000 34.468000 -0.670000
DOCKED: USER    NEWDPF tran0 12.133294 3.849288 18.959577
DOCKED: USER    NEWDPF quaternion0 0.303088 0.824579 -0.089103 -0.469327
DOCKED: USER    NEWDPF axisangle0 0.343238 0.933812 -0.100906 -124.018821
DOCKED: USER    NEWDPF quat0 0.343238 0.933812 -0.100906 -124.018821
DOCKED: USER    NEWDPF dihe0 -149.53 87.68 57.17 140.58 -147.21 -35.00 -49.92 -1.90 -128.41 -11.92 
DOCKED: USER  keepresnum = 1 
DOCKED: USER  
DOCKED: REMARK  10 active torsions:
DOCKED: REMARK  status: ('A' for Active; 'I' for Inactive)
DOCKED: REMARK    1  A    between atoms: C_6  and  C_10 
DOCKED: REMARK    2  A    between atoms: C_10  and  C_11 
DOCKED: REMARK    3  A    between atoms: C_11  and  C_12 
DOCKED: REMARK    4  A    between atoms: C_12  and  O_14 
DOCKED: REMARK    5  A    between atoms: C_17  and  C_20 
DOCKED: REMARK    6  A    between atoms: C_24  and  C_27 
DOCKED: REMARK    7  A    between atoms: C_31  and  C_34 
DOCKED: REMARK    8  A    between atoms: C_34  and  C_35 
DOCKED: REMARK    9  A    between atoms: C_35  and  C_36 
DOCKED: REMARK   10  A    between atoms: C_36  and  O_38 
DOCKED: USER                              x       y       z     vdW  Elec       q    Type
DOCKED: USER                           _______ _______ _______ _____ _____    ______ ____
DOCKED: ROOT
DOCKED: ATOM      1  C   UNL d   1      12.611   3.898  21.026 +0.04 +0.03    +0.064 A 
DOCKED: ATOM      2  C   UNL d   1      13.248   0.605  17.663 -0.16 -0.00    +0.064 A 
DOCKED: ATOM      3  C   UNL d   1      11.132   3.411  14.385 -0.29 -0.01    +0.064 C 
DOCKED: ATOM      4  C   UNL d   1      10.901   6.998  17.724 -0.06 +0.00    +0.064 A 
DOCKED: ATOM      5  C   UNL d   1      12.959   2.774  20.378 -0.12 +0.02    +0.066 A 
DOCKED: ATOM      6  C   UNL d   1      13.584   1.682  20.986 -0.14 -0.01    -0.021 A 
DOCKED: ATOM      7  C   UNL d   1      13.808   0.745  20.004 -0.13 -0.00    -0.025 A 
DOCKED: ATOM      8  C   UNL d   1      13.269   1.271  18.833 -0.15 +0.00    +0.066 A 
DOCKED: ATOM      9  C   UNL d   1      14.533  -0.567  20.209 -0.08 +0.01    +0.051 C 
DOCKED: ATOM     10  C   UNL d   1      12.677   1.095  16.407 -0.20 -0.01    +0.066 A 
DOCKED: ATOM     11  C   UNL d   1      12.534   0.301  15.265 -0.28 +0.00    -0.021 A 
DOCKED: ATOM     12  C   UNL d   1      11.909   1.087  14.314 -0.32 -0.00    +0.000 A 
DOCKED: ATOM     13  C   UNL d   1      11.713   2.349  14.940 -0.24 -0.01    +0.070 A 
DOCKED: ATOM     14  C   UNL d   1      12.950  -1.156  15.096 -0.31 -0.01    +0.052 C 
DOCKED: ATOM     15  C   UNL d   1      10.947   4.716  14.972 -0.21 -0.01    +0.066 A 
DOCKED: ATOM     16  C   UNL d   1      10.480   5.835  14.283 -0.26 +0.00    -0.021 A 
DOCKED: ATOM     17  C   UNL d   1      10.406   6.870  15.215 -0.21 -0.00    +0.000 A 
DOCKED: ATOM     18  C   UNL d   1      10.838   6.297  16.419 -0.12 -0.00    +0.070 A 
DOCKED: ATOM     19  C   UNL d   1      10.201   5.830  12.801 -0.16 -0.00    +0.052 C 
DOCKED: ATOM     20  C   UNL d   1      11.350   6.491  18.888 -0.06 +0.01    +0.066 A 
DOCKED: ATOM     21  C   UNL d   1      11.369   7.195  20.090 -0.04 -0.00    -0.025 A 
DOCKED: ATOM     22  C   UNL d   1      11.828   6.318  21.047 -0.08 -0.01    -0.021 A 
DOCKED: ATOM     23  C   UNL d   1      12.090   5.113  20.389 -0.12 +0.02    +0.066 A 
DOCKED: ATOM     24  C   UNL d   1      10.972   8.631  20.312 -0.01 +0.00    +0.051 C 
DOCKED: ATOM     25  N   UNL d   1      12.805   2.548  19.050 -0.12 -0.03    -0.248 N 
DOCKED: ATOM     26  N   UNL d   1      12.188   2.347  16.212 -0.11 +0.03    -0.248 N 
DOCKED: ATOM     27  N   UNL d   1      11.233   5.011  16.237 -0.10 +0.01    -0.248 N 
DOCKED: ATOM     28  N   UNL d   1      11.841   5.237  19.068 -0.07 -0.04    -0.248 N 
DOCKED: ATOM     29 FE   UNL d   1      12.012   3.804  17.649 -0.03 +0.00    +0.000 Fe
DOCKED: ATOM     30  O   UNL d   1      13.537   3.548  17.471 -0.07 +0.00    +0.000 OA
DOCKED: ATOM     31  O   UNL d   1      12.956   4.993  17.236 -0.06 +0.00    +0.000 OA
DOCKED: ENDROOT
DOCKED: BRANCH   6  32
DOCKED: ATOM     32  C   UNL d   1      14.078   1.573  22.405 -0.11 +0.02    +0.052 C 
DOCKED: BRANCH  32  33
DOCKED: ATOM     33  C   UNL d   1      14.835   2.815  22.865 -0.08 +0.05    +0.115 C 
DOCKED: BRANCH  33  34
DOCKED: ATOM     34  C   UNL d   1      14.304   3.364  24.167 +0.01 +0.12    +0.139 C 
DOCKED: ATOM     35  O   UNL d   1      14.350   2.677  25.174 -0.03 -0.59    -0.650 OA
DOCKED: BRANCH  34  36
DOCKED: ATOM     36  O   UNL d   1      13.750   4.592  24.239 -0.04 -0.87    -0.776 OA
DOCKED: ATOM     37  H   UNL d   1      13.802   5.130  25.037 -0.00 +0.18    +0.167 HD
DOCKED: ENDBRANCH  34  36
DOCKED: ENDBRANCH  33  34
DOCKED: ENDBRANCH  32  33
DOCKED: ENDBRANCH   6  32
DOCKED: BRANCH  22  38
DOCKED: ATOM     38  C   UNL d   1      12.060   6.647  22.499 -0.08 +0.02    +0.052 C 
DOCKED: BRANCH  38  39
DOCKED: ATOM     39  C   UNL d   1      10.821   6.397  23.357 -0.06 +0.08    +0.115 C 
DOCKED: BRANCH  39  40
DOCKED: ATOM     40  C   UNL d   1      11.074   6.655  24.822 -0.04 +0.12    +0.139 C 
DOCKED: ATOM     41  O   UNL d   1      10.564   7.622  25.364 -0.00 -0.29    -0.650 OA
DOCKED: BRANCH  40  42
DOCKED: ATOM     42  O   UNL d   1      11.814   5.805  25.561 -0.13 -1.39    -0.776 OA
DOCKED: ATOM     43  H   UNL d   1      12.768   5.915  25.651 -0.00 +0.21    +0.167 HD
DOCKED: ENDBRANCH  40  42
DOCKED: ENDBRANCH  39  40
DOCKED: ENDBRANCH  38  39
DOCKED: ENDBRANCH  22  38
DOCKED: BRANCH  12  44
DOCKED: ATOM     44  C   UNL d   1      11.574   0.564  12.933 -0.44 -0.00    +0.004 C 
DOCKED: ATOM     45  C   UNL d   1      11.889   1.102  11.755 -0.33 -0.00    +0.012 C 
DOCKED: ENDBRANCH  12  44
DOCKED: BRANCH  17  46
DOCKED: ATOM     46  C   UNL d   1      10.031   8.319  15.054 -0.21 +0.00    +0.004 C 
DOCKED: ATOM     47  C   UNL d   1       9.207   9.051  15.815 -0.18 -0.00    +0.012 C 
DOCKED: ENDBRANCH  17  46
DOCKED: TORSDOF 10
DOCKED: TER
DOCKED: ENDMDL
________________________________________________________________________________


	BEGINNING GENETIC ALGORITHM DOCKING 19 of 100
Run: 19 Seed: 646909483 1227101674 [ Run 19 of 100 GA/GALS ]
Beginning LAMARCKIAN GENETIC ALGORITHM (LGA), with a maximum of 25000000 energy evaluations.

Final-Value: -11.346


	FINAL GENETIC ALGORITHM DOCKED STATE
	_______________________________________________


Detailed state:  trans -8.333 6.824 -12.755 quatxyzw -0.513811 0.529956 0.434334 -0.516235 center 8.287 34.468 -0.670 ntor 10 91.5063 58.9184 -108.8673 55.6766 -131.4822 121.9974 -22.6876 41.6588 179.4894 134.4181
State:	 -8.333   6.824 -12.755  -0.600  0.619  0.507 -117.840     91.51   58.92 -108.87   55.68 -131.48  122.00  -22.69   41.66  179.49  134.42

DOCKED: MODEL       19
DOCKED: USER    Run = 19
DOCKED: USER    DPF = D:/Protein_go_brrr/autodock/final/mut_K82N/heme_O2/dock.dpf
DOCKED: USER  
DOCKED: USER    Estimated Free Energy of Binding    =   -6.72 kcal/mol  [=(1)+(2)+(3)-(4)]
DOCKED: USER    Estimated Inhibition Constant, Ki   =   11.95 uM (micromolar)  [Temperature = 298.15 K]
DOCKED: USER    
DOCKED: USER    (1) Final Intermolecular Energy     =   -9.70 kcal/mol
DOCKED: USER        vdW + Hbond + desolv Energy     =   -7.14 kcal/mol
DOCKED: USER        Electrostatic Energy            =   -2.55 kcal/mol
DOCKED: USER    (2) Final Total Internal Energy     =   -1.65 kcal/mol
DOCKED: USER    (3) Torsional Free Energy           =   +2.98 kcal/mol
DOCKED: USER    (4) Unbound System's Energy  [=(2)] =   -1.65 kcal/mol
DOCKED: USER    
DOCKED: USER    
DOCKED: USER    NEWDPF move heme_O2_opt.pdbqt
DOCKED: USER    NEWDPF about 8.287000 34.468000 -0.670000
DOCKED: USER    NEWDPF tran0 -8.332964 6.824479 -12.754533
DOCKED: USER    NEWDPF quaternion0 -0.513811 0.529956 0.434334 -0.516235
DOCKED: USER    NEWDPF axisangle0 -0.599934 0.618784 0.507135 -117.839956
DOCKED: USER    NEWDPF quat0 -0.599934 0.618784 0.507135 -117.839956
DOCKED: USER    NEWDPF dihe0 91.51 58.92 -108.87 55.68 -131.48 122.00 -22.69 41.66 179.49 134.42 
DOCKED: USER  keepresnum = 1 
DOCKED: USER  
DOCKED: REMARK  10 active torsions:
DOCKED: REMARK  status: ('A' for Active; 'I' for Inactive)
DOCKED: REMARK    1  A    between atoms: C_6  and  C_10 
DOCKED: REMARK    2  A    between atoms: C_10  and  C_11 
DOCKED: REMARK    3  A    between atoms: C_11  and  C_12 
DOCKED: REMARK    4  A    between atoms: C_12  and  O_14 
DOCKED: REMARK    5  A    between atoms: C_17  and  C_20 
DOCKED: REMARK    6  A    between atoms: C_24  and  C_27 
DOCKED: REMARK    7  A    between atoms: C_31  and  C_34 
DOCKED: REMARK    8  A    between atoms: C_34  and  C_35 
DOCKED: REMARK    9  A    between atoms: C_35  and  C_36 
DOCKED: REMARK   10  A    between atoms: C_36  and  O_38 
DOCKED: USER                              x       y       z     vdW  Elec       q    Type
DOCKED: USER                           _______ _______ _______ _____ _____    ______ ____
DOCKED: ROOT
DOCKED: ATOM      1  C   UNL d   1      -9.126   6.269 -10.867 -0.13 +0.01    +0.064 A 
DOCKED: ATOM      2  C   UNL d   1      -5.972   9.570 -12.176 -0.20 -0.01    +0.064 A 
DOCKED: ATOM      3  C   UNL d   1      -6.340   8.231 -16.776 -0.17 -0.01    +0.064 C 
DOCKED: ATOM      4  C   UNL d   1      -9.941   5.150 -15.507 -0.24 +0.02    +0.064 A 
DOCKED: ATOM      5  C   UNL d   1      -8.239   7.277 -10.848 -0.12 +0.01    +0.066 A 
DOCKED: ATOM      6  C   UNL d   1      -7.829   7.937  -9.686 -0.18 -0.00    -0.021 A 
DOCKED: ATOM      7  C   UNL d   1      -6.949   8.922 -10.068 -0.26 -0.00    -0.025 A 
DOCKED: ATOM      8  C   UNL d   1      -6.808   8.805 -11.448 -0.19 -0.00    +0.066 A 
DOCKED: ATOM      9  C   UNL d   1      -6.316   9.928  -9.132 -0.42 -0.00    +0.051 C 
DOCKED: ATOM     10  C   UNL d   1      -5.765   9.479 -13.622 -0.17 -0.01    +0.066 A 
DOCKED: ATOM     11  C   UNL d   1      -4.766  10.185 -14.302 -0.22 +0.01    -0.021 A 
DOCKED: ATOM     12  C   UNL d   1      -4.845   9.798 -15.627 -0.13 -0.00    +0.000 A 
DOCKED: ATOM     13  C   UNL d   1      -5.918   8.867 -15.684 -0.12 -0.01    +0.070 A 
DOCKED: ATOM     14  C   UNL d   1      -3.762  11.166 -13.708 -0.36 -0.02    +0.052 C 
DOCKED: ATOM     15  C   UNL d   1      -7.445   7.308 -16.882 -0.18 -0.01    +0.066 A 
DOCKED: ATOM     16  C   UNL d   1      -7.940   6.802 -18.083 -0.15 +0.00    -0.021 A 
DOCKED: ATOM     17  C   UNL d   1      -8.968   5.921 -17.746 -0.22 +0.00    +0.000 A 
DOCKED: ATOM     18  C   UNL d   1      -9.022   5.956 -16.345 -0.23 +0.00    +0.070 A 
DOCKED: ATOM     19  C   UNL d   1      -7.430   7.240 -19.433 -0.12 -0.01    +0.052 C 
DOCKED: ATOM     20  C   UNL d   1     -10.049   5.191 -14.164 -0.23 +0.01    +0.066 A 
DOCKED: ATOM     21  C   UNL d   1     -10.921   4.395 -13.427 -0.14 -0.01    -0.025 A 
DOCKED: ATOM     22  C   UNL d   1     -10.683   4.680 -12.101 -0.17 -0.01    -0.021 A 
DOCKED: ATOM     23  C   UNL d   1      -9.683   5.658 -12.079 -0.15 +0.01    +0.066 A 
DOCKED: ATOM     24  C   UNL d   1     -11.932   3.414 -13.961 -0.19 +0.03    +0.051 C 
DOCKED: ATOM     25  N   UNL d   1      -7.653   7.835 -11.936 -0.00 -0.01    -0.248 N 
DOCKED: ATOM     26  N   UNL d   1      -6.475   8.682 -14.460 -0.06 +0.03    -0.248 N 
DOCKED: ATOM     27  N   UNL d   1      -8.142   6.859 -15.842 -0.13 +0.01    -0.248 N 
DOCKED: ATOM     28  N   UNL d   1      -9.332   5.997 -13.337 -0.09 -0.03    -0.248 N 
DOCKED: ATOM     29 FE   UNL d   1      -7.915   7.329 -13.897 -0.04 +0.00    +0.000 Fe
DOCKED: ATOM     30  O   UNL d   1      -8.471   8.736 -13.531 -0.10 +0.00    +0.000 OA
DOCKED: ATOM     31  O   UNL d   1      -9.281   7.807 -14.512 -0.11 +0.00    +0.000 OA
DOCKED: ENDROOT
DOCKED: BRANCH   6  32
DOCKED: ATOM     32  C   UNL d   1      -8.347   7.744  -8.284 -0.20 +0.01    +0.052 C 
DOCKED: BRANCH  32  33
DOCKED: ATOM     33  C   UNL d   1      -9.414   8.765  -7.901 -0.18 +0.03    +0.115 C 
DOCKED: BRANCH  33  34
DOCKED: ATOM     34  C   UNL d   1     -10.332   8.257  -6.816 -0.16 +0.07    +0.139 C 
DOCKED: ATOM     35  O   UNL d   1      -9.950   8.250  -5.657 -0.59 -0.41    -0.650 OA
DOCKED: BRANCH  34  36
DOCKED: ATOM     36  O   UNL d   1     -11.562   7.782  -7.101 +0.04 -0.48    -0.776 OA
DOCKED: ATOM     37  H   UNL d   1     -11.721   6.847  -7.273 +0.02 +0.17    +0.167 HD
DOCKED: ENDBRANCH  34  36
DOCKED: ENDBRANCH  33  34
DOCKED: ENDBRANCH  32  33
DOCKED: ENDBRANCH   6  32
DOCKED: BRANCH  22  38
DOCKED: ATOM     38  C   UNL d   1     -11.424   4.091 -10.929 -0.14 +0.02    +0.052 C 
DOCKED: BRANCH  38  39
DOCKED: ATOM     39  C   UNL d   1     -12.050   5.162 -10.038 -0.06 +0.06    +0.115 C 
DOCKED: BRANCH  39  40
DOCKED: ATOM     40  C   UNL d   1     -11.914   4.842  -8.571 -0.02 +0.16    +0.139 C 
DOCKED: ATOM     41  O   UNL d   1     -12.811   4.251  -7.993 +0.11 -1.03    -0.650 OA
DOCKED: BRANCH  40  42
DOCKED: ATOM     42  O   UNL d   1     -10.792   5.154  -7.892 -0.04 -1.35    -0.776 OA
DOCKED: ATOM     43  H   UNL d   1     -10.498   6.067  -7.796 +0.03 +0.19    +0.167 HD
DOCKED: ENDBRANCH  40  42
DOCKED: ENDBRANCH  39  40
DOCKED: ENDBRANCH  38  39
DOCKED: ENDBRANCH  22  38
DOCKED: BRANCH  12  44
DOCKED: ATOM     44  C   UNL d   1      -3.908  10.349 -16.682 -0.13 -0.00    +0.004 C 
DOCKED: ATOM     45  C   UNL d   1      -2.594  10.158 -16.790 -0.18 -0.00    +0.012 C 
DOCKED: ENDBRANCH  12  44
DOCKED: BRANCH  17  46
DOCKED: ATOM     46  C   UNL d   1      -9.908   5.124 -18.609 -0.21 +0.00    +0.004 C 
DOCKED: ATOM     47  C   UNL d   1      -9.611   4.339 -19.653 -0.21 +0.00    +0.012 C 
DOCKED: ENDBRANCH  17  46
DOCKED: TORSDOF 10
DOCKED: TER
DOCKED: ENDMDL
________________________________________________________________________________


	BEGINNING GENETIC ALGORITHM DOCKING 20 of 100
Run: 20 Seed: 1202862323 60224936 [ Run 20 of 100 GA/GALS ]
Beginning LAMARCKIAN GENETIC ALGORITHM (LGA), with a maximum of 25000000 energy evaluations.

Final-Value: -9.194


	FINAL GENETIC ALGORITHM DOCKED STATE
	_______________________________________________


Detailed state:  trans 13.875 -5.466 4.689 quatxyzw -0.382017 0.571503 -0.044407 0.724897 center 8.287 34.468 -0.670 ntor 10 21.4847 -84.6832 71.1174 -147.8255 -53.6829 -77.4265 12.0537 36.9164 47.3536 -168.2055
State:	 13.875  -5.466   4.689  -0.555  0.830 -0.064 87.080     21.48  -84.68   71.12 -147.83  -53.68  -77.43   12.05   36.92   47.35 -168.21

DOCKED: MODEL       20
DOCKED: USER    Run = 20
DOCKED: USER    DPF = D:/Protein_go_brrr/autodock/final/mut_K82N/heme_O2/dock.dpf
DOCKED: USER  
DOCKED: USER    Estimated Free Energy of Binding    =   -5.89 kcal/mol  [=(1)+(2)+(3)-(4)]
DOCKED: USER    Estimated Inhibition Constant, Ki   =   47.83 uM (micromolar)  [Temperature = 298.15 K]
DOCKED: USER    
DOCKED: USER    (1) Final Intermolecular Energy     =   -8.88 kcal/mol
DOCKED: USER        vdW + Hbond + desolv Energy     =   -7.96 kcal/mol
DOCKED: USER        Electrostatic Energy            =   -0.91 kcal/mol
DOCKED: USER    (2) Final Total Internal Energy     =   -0.32 kcal/mol
DOCKED: USER    (3) Torsional Free Energy           =   +2.98 kcal/mol
DOCKED: USER    (4) Unbound System's Energy  [=(2)] =   -0.32 kcal/mol
DOCKED: USER    
DOCKED: USER    
DOCKED: USER    NEWDPF move heme_O2_opt.pdbqt
DOCKED: USER    NEWDPF about 8.287000 34.468000 -0.670000
DOCKED: USER    NEWDPF tran0 13.874843 -5.466410 4.688762
DOCKED: USER    NEWDPF quaternion0 -0.382017 0.571503 -0.044407 0.724897
DOCKED: USER    NEWDPF axisangle0 -0.554565 0.829639 -0.064465 87.079511
DOCKED: USER    NEWDPF quat0 -0.554565 0.829639 -0.064465 87.079511
DOCKED: USER    NEWDPF dihe0 21.48 -84.68 71.12 -147.83 -53.68 -77.43 12.05 36.92 47.35 -168.21 
DOCKED: USER  keepresnum = 1 
DOCKED: USER  
DOCKED: REMARK  10 active torsions:
DOCKED: REMARK  status: ('A' for Active; 'I' for Inactive)
DOCKED: REMARK    1  A    between atoms: C_6  and  C_10 
DOCKED: REMARK    2  A    between atoms: C_10  and  C_11 
DOCKED: REMARK    3  A    between atoms: C_11  and  C_12 
DOCKED: REMARK    4  A    between atoms: C_12  and  O_14 
DOCKED: REMARK    5  A    between atoms: C_17  and  C_20 
DOCKED: REMARK    6  A    between atoms: C_24  and  C_27 
DOCKED: REMARK    7  A    between atoms: C_31  and  C_34 
DOCKED: REMARK    8  A    between atoms: C_34  and  C_35 
DOCKED: REMARK    9  A    between atoms: C_35  and  C_36 
DOCKED: REMARK   10  A    between atoms: C_36  and  O_38 
DOCKED: USER                              x       y       z     vdW  Elec       q    Type
DOCKED: USER                           _______ _______ _______ _____ _____    ______ ____
DOCKED: ROOT
DOCKED: ATOM      1  C   UNL d   1      13.568  -3.863   3.335 -0.09 +0.00    +0.064 A 
DOCKED: ATOM      2  C   UNL d   1      12.391  -8.462   3.180 -0.21 +0.00    +0.064 A 
DOCKED: ATOM      3  C   UNL d   1      14.470  -9.232   7.444 -0.02 +0.00    +0.064 C 
DOCKED: ATOM      4  C   UNL d   1      15.267  -4.407   7.835 -0.14 +0.00    +0.064 A 
DOCKED: ATOM      5  C   UNL d   1      13.077  -5.050   2.946 -0.08 +0.00    +0.066 A 
DOCKED: ATOM      6  C   UNL d   1      12.411  -5.263   1.735 -0.19 +0.00    -0.021 A 
DOCKED: ATOM      7  C   UNL d   1      12.032  -6.585   1.708 -0.21 -0.00    -0.025 A 
DOCKED: ATOM      8  C   UNL d   1      12.519  -7.154   2.882 -0.15 +0.00    +0.066 A 
DOCKED: ATOM      9  C   UNL d   1      11.217  -7.230   0.608 -0.26 -0.00    +0.051 C 
DOCKED: ATOM     10  C   UNL d   1      12.900  -9.120   4.384 -0.19 +0.01    +0.066 A 
DOCKED: ATOM     11  C   UNL d   1      12.885 -10.507   4.567 -0.17 -0.00    -0.021 A 
DOCKED: ATOM     12  C   UNL d   1      13.496 -10.751   5.783 -0.15 +0.00    +0.000 A 
DOCKED: ATOM     13  C   UNL d   1      13.847  -9.469   6.290 -0.12 +0.01    +0.070 A 
DOCKED: ATOM     14  C   UNL d   1      12.334 -11.558   3.610 -0.14 +0.01    +0.052 C 
DOCKED: ATOM     15  C   UNL d   1      14.811  -7.949   8.008 -0.11 +0.00    +0.066 A 
DOCKED: ATOM     16  C   UNL d   1      15.315  -7.760   9.295 -0.17 -0.00    -0.021 A 
DOCKED: ATOM     17  C   UNL d   1      15.549  -6.391   9.429 -0.20 +0.00    +0.000 A 
DOCKED: ATOM     18  C   UNL d   1      15.167  -5.841   8.198 -0.15 +0.00    +0.070 A 
DOCKED: ATOM     19  C   UNL d   1      15.474  -8.882  10.289 -0.18 +0.00    +0.052 C 
DOCKED: ATOM     20  C   UNL d   1      14.870  -3.840   6.680 -0.15 +0.00    +0.066 A 
DOCKED: ATOM     21  C   UNL d   1      15.006  -2.486   6.388 -0.12 -0.00    -0.025 A 
DOCKED: ATOM     22  C   UNL d   1      14.552  -2.317   5.099 -0.15 -0.00    -0.021 A 
DOCKED: ATOM     23  C   UNL d   1      14.138  -3.577   4.657 -0.15 +0.01    +0.066 A 
DOCKED: ATOM     24  C   UNL d   1      15.539  -1.407   7.295 -0.07 +0.00    +0.051 C 
DOCKED: ATOM     25  N   UNL d   1      13.105  -6.194   3.673 -0.11 -0.02    -0.248 N 
DOCKED: ATOM     26  N   UNL d   1      13.476  -8.482   5.434 -0.11 -0.02    -0.248 N 
DOCKED: ATOM     27  N   UNL d   1      14.652  -6.790   7.375 -0.09 -0.01    -0.248 N 
DOCKED: ATOM     28  N   UNL d   1      14.291  -4.491   5.636 -0.12 -0.02    -0.248 N 
DOCKED: ATOM     29 FE   UNL d   1      13.887  -6.472   5.539 -0.04 +0.00    +0.000 Fe
DOCKED: ATOM     30  O   UNL d   1      12.337  -6.598   5.483 -0.32 +0.00    +0.000 OA
DOCKED: ATOM     31  O   UNL d   1      13.018  -5.871   6.703 -0.45 +0.00    +0.000 OA
DOCKED: ENDROOT
DOCKED: BRANCH   6  32
DOCKED: ATOM     32  C   UNL d   1      12.024  -4.237   0.702 -0.24 -0.01    +0.052 C 
DOCKED: BRANCH  32  33
DOCKED: ATOM     33  C   UNL d   1      12.423  -4.642  -0.714 -0.13 +0.01    +0.115 C 
DOCKED: BRANCH  33  34
DOCKED: ATOM     34  C   UNL d   1      12.249  -3.518  -1.705 -0.19 +0.06    +0.139 C 
DOCKED: ATOM     35  O   UNL d   1      12.912  -3.508  -2.729 -0.18 -0.37    -0.650 OA
DOCKED: BRANCH  34  36
DOCKED: ATOM     36  O   UNL d   1      11.392  -2.502  -1.472 -0.42 -0.47    -0.776 OA
DOCKED: ATOM     37  H   UNL d   1      11.098  -2.275  -0.582 -0.47 -0.01    +0.167 HD
DOCKED: ENDBRANCH  34  36
DOCKED: ENDBRANCH  33  34
DOCKED: ENDBRANCH  32  33
DOCKED: ENDBRANCH   6  32
DOCKED: BRANCH  22  38
DOCKED: ATOM     38  C   UNL d   1      14.465  -1.005   4.364 -0.13 +0.00    +0.052 C 
DOCKED: BRANCH  38  39
DOCKED: ATOM     39  C   UNL d   1      13.439  -0.058   4.983 -0.16 +0.02    +0.115 C 
DOCKED: BRANCH  39  40
DOCKED: ATOM     40  C   UNL d   1      12.716   0.766   3.948 -0.21 +0.01    +0.139 C 
DOCKED: ATOM     41  O   UNL d   1      11.958   0.222   3.161 -0.38 -0.12    -0.650 OA
DOCKED: BRANCH  40  42
DOCKED: ATOM     42  O   UNL d   1      12.851   2.106   3.906 +0.07 -0.01    -0.776 OA
DOCKED: ATOM     43  H   UNL d   1      12.340   2.683   4.487 -0.03 -0.01    +0.167 HD
DOCKED: ENDBRANCH  40  42
DOCKED: ENDBRANCH  39  40
DOCKED: ENDBRANCH  38  39
DOCKED: ENDBRANCH  22  38
DOCKED: BRANCH  12  44
DOCKED: ATOM     44  C   UNL d   1      13.676 -12.153   6.326 -0.12 +0.00    +0.004 C 
DOCKED: ATOM     45  C   UNL d   1      13.102 -12.695   7.400 -0.16 +0.00    +0.012 C 
DOCKED: ENDBRANCH  12  44
DOCKED: BRANCH  17  46
DOCKED: ATOM     46  C   UNL d   1      16.031  -5.582  10.604 -0.22 +0.00    +0.004 C 
DOCKED: ATOM     47  C   UNL d   1      15.814  -4.286  10.862 -0.20 +0.00    +0.012 C 
DOCKED: ENDBRANCH  17  46
DOCKED: TORSDOF 10
DOCKED: TER
DOCKED: ENDMDL
________________________________________________________________________________


	BEGINNING GENETIC ALGORITHM DOCKING 21 of 100
Run: 21 Seed: 493123017 314117096 [ Run 21 of 100 GA/GALS ]
Beginning LAMARCKIAN GENETIC ALGORITHM (LGA), with a maximum of 25000000 energy evaluations.

Final-Value: -10.435


	FINAL GENETIC ALGORITHM DOCKED STATE
	_______________________________________________


Detailed state:  trans -9.218 6.581 -11.803 quatxyzw -0.530579 0.395662 0.508561 -0.550730 center 8.287 34.468 -0.670 ntor 10 -99.5454 34.0198 -119.1994 85.9727 -149.5464 -93.7788 27.5657 43.4046 179.7516 121.8639
State:	 -9.218   6.581 -11.803  -0.636  0.474  0.609 -113.166    -99.55   34.02 -119.20   85.97 -149.55  -93.78   27.57   43.40  179.75  121.86

DOCKED: MODEL       21
DOCKED: USER    Run = 21
DOCKED: USER    DPF = D:/Protein_go_brrr/autodock/final/mut_K82N/heme_O2/dock.dpf
DOCKED: USER  
DOCKED: USER    Estimated Free Energy of Binding    =   -7.05 kcal/mol  [=(1)+(2)+(3)-(4)]
DOCKED: USER    Estimated Inhibition Constant, Ki   =    6.79 uM (micromolar)  [Temperature = 298.15 K]
DOCKED: USER    
DOCKED: USER    (1) Final Intermolecular Energy     =  -10.03 kcal/mol
DOCKED: USER        vdW + Hbond + desolv Energy     =   -7.16 kcal/mol
DOCKED: USER        Electrostatic Energy            =   -2.87 kcal/mol
DOCKED: USER    (2) Final Total Internal Energy     =   -0.40 kcal/mol
DOCKED: USER    (3) Torsional Free Energy           =   +2.98 kcal/mol
DOCKED: USER    (4) Unbound System's Energy  [=(2)] =   -0.40 kcal/mol
DOCKED: USER    
DOCKED: USER    
DOCKED: USER    NEWDPF move heme_O2_opt.pdbqt
DOCKED: USER    NEWDPF about 8.287000 34.468000 -0.670000
DOCKED: USER    NEWDPF tran0 -9.218128 6.581312 -11.803095
DOCKED: USER    NEWDPF quaternion0 -0.530579 0.395662 0.508561 -0.550730
DOCKED: USER    NEWDPF axisangle0 -0.635665 0.474026 0.609286 -113.165735
DOCKED: USER    NEWDPF quat0 -0.635665 0.474026 0.609286 -113.165735
DOCKED: USER    NEWDPF dihe0 -99.55 34.02 -119.20 85.97 -149.55 -93.78 27.57 43.40 179.75 121.86 
DOCKED: USER  keepresnum = 1 
DOCKED: USER  
DOCKED: REMARK  10 active torsions:
DOCKED: REMARK  status: ('A' for Active; 'I' for Inactive)
DOCKED: REMARK    1  A    between atoms: C_6  and  C_10 
DOCKED: REMARK    2  A    between atoms: C_10  and  C_11 
DOCKED: REMARK    3  A    between atoms: C_11  and  C_12 
DOCKED: REMARK    4  A    between atoms: C_12  and  O_14 
DOCKED: REMARK    5  A    between atoms: C_17  and  C_20 
DOCKED: REMARK    6  A    between atoms: C_24  and  C_27 
DOCKED: REMARK    7  A    between atoms: C_31  and  C_34 
DOCKED: REMARK    8  A    between atoms: C_34  and  C_35 
DOCKED: REMARK    9  A    between atoms: C_35  and  C_36 
DOCKED: REMARK   10  A    between atoms: C_36  and  O_38 
DOCKED: USER                              x       y       z     vdW  Elec       q    Type
DOCKED: USER                           _______ _______ _______ _____ _____    ______ ____
DOCKED: ROOT
DOCKED: ATOM      1  C   UNL d   1     -10.042   5.481 -10.188 -0.13 +0.02    +0.064 A 
DOCKED: ATOM      2  C   UNL d   1      -7.555   9.523 -10.378 -0.20 +0.00    +0.064 A 
DOCKED: ATOM      3  C   UNL d   1      -7.213   9.195 -15.161 -0.09 -0.01    +0.064 C 
DOCKED: ATOM      4  C   UNL d   1     -10.179   5.289 -15.023 -0.22 +0.02    +0.064 A 
DOCKED: ATOM      5  C   UNL d   1      -9.395   6.608  -9.849 -0.10 +0.02    +0.066 A 
DOCKED: ATOM      6  C   UNL d   1      -9.242   7.058  -8.535 -0.15 -0.01    -0.021 A 
DOCKED: ATOM      7  C   UNL d   1      -8.559   8.251  -8.592 -0.18 -0.01    -0.025 A 
DOCKED: ATOM      8  C   UNL d   1      -8.273   8.472  -9.937 -0.13 +0.01    +0.066 A 
DOCKED: ATOM      9  C   UNL d   1      -8.241   9.125  -7.399 -0.23 +0.01    +0.051 C 
DOCKED: ATOM     10  C   UNL d   1      -7.204   9.796 -11.773 -0.18 -0.00    +0.066 A 
DOCKED: ATOM     11  C   UNL d   1      -6.320  10.810 -12.159 -0.30 +0.00    -0.021 A 
DOCKED: ATOM     12  C   UNL d   1      -6.194  10.720 -13.533 -0.19 -0.00    +0.000 A 
DOCKED: ATOM     13  C   UNL d   1      -7.037   9.640 -13.917 -0.09 -0.00    +0.070 A 
DOCKED: ATOM     14  C   UNL d   1      -5.605  11.805 -11.253 -0.38 -0.01    +0.052 C 
DOCKED: ATOM     15  C   UNL d   1      -8.083   8.128 -15.594 -0.10 -0.00    +0.066 A 
DOCKED: ATOM     16  C   UNL d   1      -8.348   7.818 -16.928 -0.11 +0.00    -0.021 A 
DOCKED: ATOM     17  C   UNL d   1      -9.193   6.708 -16.913 -0.17 +0.00    +0.000 A 
DOCKED: ATOM     18  C   UNL d   1      -9.380   6.419 -15.554 -0.17 +0.01    +0.070 A 
DOCKED: ATOM     19  C   UNL d   1      -7.823   8.633 -18.083 -0.06 -0.01    +0.052 C 
DOCKED: ATOM     20  C   UNL d   1     -10.414   5.010 -13.727 -0.20 +0.02    +0.066 A 
DOCKED: ATOM     21  C   UNL d   1     -11.160   3.920 -13.286 -0.10 -0.01    -0.025 A 
DOCKED: ATOM     22  C   UNL d   1     -11.110   3.944 -11.911 -0.11 -0.01    -0.021 A 
DOCKED: ATOM     23  C   UNL d   1     -10.346   5.061 -11.561 -0.16 +0.02    +0.066 A 
DOCKED: ATOM     24  C   UNL d   1     -11.888   2.911 -14.135 -0.08 +0.04    +0.051 C 
DOCKED: ATOM     25  N   UNL d   1      -8.845   7.493 -10.716 -0.05 -0.04    -0.248 N 
DOCKED: ATOM     26  N   UNL d   1      -7.650   9.087 -12.840 -0.06 +0.00    -0.248 N 
DOCKED: ATOM     27  N   UNL d   1      -8.760   7.336 -14.768 -0.07 -0.01    -0.248 N 
DOCKED: ATOM     28  N   UNL d   1      -9.963   5.732 -12.667 -0.11 -0.05    -0.248 N 
DOCKED: ATOM     29 FE   UNL d   1      -8.815   7.397 -12.756 -0.03 +0.00    +0.000 Fe
DOCKED: ATOM     30  O   UNL d   1      -9.688   8.557 -12.194 -0.06 +0.00    +0.000 OA
DOCKED: ATOM     31  O   UNL d   1     -10.190   7.734 -13.440 -0.07 +0.00    +0.000 OA
DOCKED: ENDROOT
DOCKED: BRANCH   6  32
DOCKED: ATOM     32  C   UNL d   1      -9.831   6.465  -7.281 -0.20 +0.05    +0.052 C 
DOCKED: BRANCH  32  33
DOCKED: ATOM     33  C   UNL d   1     -11.124   7.151  -6.852 -0.15 +0.11    +0.115 C 
DOCKED: BRANCH  33  34
DOCKED: ATOM     34  C   UNL d   1     -11.382   7.018  -5.372 -0.16 +0.15    +0.139 C 
DOCKED: ATOM     35  O   UNL d   1     -10.568   7.459  -4.576 -0.33 -0.50    -0.650 OA
DOCKED: BRANCH  34  36
DOCKED: ATOM     36  O   UNL d   1     -12.483   6.396  -4.903 -0.37 -1.09    -0.776 OA
DOCKED: ATOM     37  H   UNL d   1     -13.260   6.886  -4.609 +0.03 +0.13    +0.167 HD
DOCKED: ENDBRANCH  34  36
DOCKED: ENDBRANCH  33  34
DOCKED: ENDBRANCH  32  33
DOCKED: ENDBRANCH   6  32
DOCKED: BRANCH  22  38
DOCKED: ATOM     38  C   UNL d   1     -11.812   2.980 -10.989 -0.12 +0.02    +0.052 C 
DOCKED: BRANCH  38  39
DOCKED: ATOM     39  C   UNL d   1     -12.481   3.684  -9.811 -0.10 +0.07    +0.115 C 
DOCKED: BRANCH  39  40
DOCKED: ATOM     40  C   UNL d   1     -12.281   2.947  -8.510 +0.02 +0.17    +0.139 C 
DOCKED: ATOM     41  O   UNL d   1     -11.158   2.607  -8.172 -0.12 -1.04    -0.650 OA
DOCKED: BRANCH  40  42
DOCKED: ATOM     42  O   UNL d   1     -13.316   2.699  -7.685 -0.27 -1.08    -0.776 OA
DOCKED: ATOM     43  H   UNL d   1     -14.192   2.481  -8.026 +0.01 +0.12    +0.167 HD
DOCKED: ENDBRANCH  40  42
DOCKED: ENDBRANCH  39  40
DOCKED: ENDBRANCH  38  39
DOCKED: ENDBRANCH  22  38
DOCKED: BRANCH  12  44
DOCKED: ATOM     44  C   UNL d   1      -5.304  11.658 -14.322 -0.28 -0.00    +0.004 C 
DOCKED: ATOM     45  C   UNL d   1      -4.001  11.880 -14.158 -0.46 -0.01    +0.012 C 
DOCKED: ENDBRANCH  12  44
DOCKED: BRANCH  17  46
DOCKED: ATOM     46  C   UNL d   1      -9.861   5.960 -18.036 -0.17 +0.00    +0.004 C 
DOCKED: ATOM     47  C   UNL d   1      -9.327   5.044 -18.855 -0.23 +0.00    +0.012 C 
DOCKED: ENDBRANCH  17  46
DOCKED: TORSDOF 10
DOCKED: TER
DOCKED: ENDMDL
________________________________________________________________________________


	BEGINNING GENETIC ALGORITHM DOCKING 22 of 100
Run: 22 Seed: 379962275 696806947 [ Run 22 of 100 GA/GALS ]
Beginning LAMARCKIAN GENETIC ALGORITHM (LGA), with a maximum of 25000000 energy evaluations.

Final-Value: -11.806


	FINAL GENETIC ALGORITHM DOCKED STATE
	_______________________________________________


Detailed state:  trans -12.312 10.321 -1.221 quatxyzw -0.237272 -0.365361 0.609791 -0.662094 center 8.287 34.468 -0.670 ntor 10 -171.3290 -26.6463 -45.2374 65.1440 65.3616 -2.4231 -81.0542 -32.5369 -171.1811 33.6280
State:	-12.312  10.321  -1.221  -0.317 -0.488  0.814 -97.080   -171.33  -26.65  -45.24   65.14   65.36   -2.42  -81.05  -32.54 -171.18   33.63

DOCKED: MODEL       22
DOCKED: USER    Run = 22
DOCKED: USER    DPF = D:/Protein_go_brrr/autodock/final/mut_K82N/heme_O2/dock.dpf
DOCKED: USER  
DOCKED: USER    Estimated Free Energy of Binding    =   -6.81 kcal/mol  [=(1)+(2)+(3)-(4)]
DOCKED: USER    Estimated Inhibition Constant, Ki   =   10.19 uM (micromolar)  [Temperature = 298.15 K]
DOCKED: USER    
DOCKED: USER    (1) Final Intermolecular Energy     =   -9.79 kcal/mol
DOCKED: USER        vdW + Hbond + desolv Energy     =   -7.17 kcal/mol
DOCKED: USER        Electrostatic Energy            =   -2.63 kcal/mol
DOCKED: USER    (2) Final Total Internal Energy     =   -2.01 kcal/mol
DOCKED: USER    (3) Torsional Free Energy           =   +2.98 kcal/mol
DOCKED: USER    (4) Unbound System's Energy  [=(2)] =   -2.01 kcal/mol
DOCKED: USER    
DOCKED: USER    
DOCKED: USER    NEWDPF move heme_O2_opt.pdbqt
DOCKED: USER    NEWDPF about 8.287000 34.468000 -0.670000
DOCKED: USER    NEWDPF tran0 -12.312108 10.320691 -1.220565
DOCKED: USER    NEWDPF quaternion0 -0.237272 -0.365361 0.609791 -0.662094
DOCKED: USER    NEWDPF axisangle0 -0.316608 -0.487524 0.813683 -97.080424
DOCKED: USER    NEWDPF quat0 -0.316608 -0.487524 0.813683 -97.080424
DOCKED: USER    NEWDPF dihe0 -171.33 -26.65 -45.24 65.14 65.36 -2.42 -81.05 -32.54 -171.18 33.63 
DOCKED: USER  keepresnum = 1 
DOCKED: USER  
DOCKED: REMARK  10 active torsions:
DOCKED: REMARK  status: ('A' for Active; 'I' for Inactive)
DOCKED: REMARK    1  A    between atoms: C_6  and  C_10 
DOCKED: REMARK    2  A    between atoms: C_10  and  C_11 
DOCKED: REMARK    3  A    between atoms: C_11  and  C_12 
DOCKED: REMARK    4  A    between atoms: C_12  and  O_14 
DOCKED: REMARK    5  A    between atoms: C_17  and  C_20 
DOCKED: REMARK    6  A    between atoms: C_24  and  C_27 
DOCKED: REMARK    7  A    between atoms: C_31  and  C_34 
DOCKED: REMARK    8  A    between atoms: C_34  and  C_35 
DOCKED: REMARK    9  A    between atoms: C_35  and  C_36 
DOCKED: REMARK   10  A    between atoms: C_36  and  O_38 
DOCKED: USER                              x       y       z     vdW  Elec       q    Type
DOCKED: USER                           _______ _______ _______ _____ _____    ______ ____
DOCKED: ROOT
DOCKED: ATOM      1  C   UNL d   1     -12.055   8.678  -2.538 -0.22 +0.02    +0.064 A 
DOCKED: ATOM      2  C   UNL d   1     -13.205   8.952   2.062 -0.18 +0.02    +0.064 A 
DOCKED: ATOM      3  C   UNL d   1     -12.874  13.745   1.955 -0.16 +0.01    +0.064 C 
DOCKED: ATOM      4  C   UNL d   1     -12.159  13.505  -2.892 -0.22 +0.02    +0.064 A 
DOCKED: ATOM      5  C   UNL d   1     -12.397   8.362  -1.278 -0.21 +0.01    +0.066 A 
DOCKED: ATOM      6  C   UNL d   1     -12.571   7.052  -0.820 -0.26 -0.00    -0.021 A 
DOCKED: ATOM      7  C   UNL d   1     -12.946   7.132   0.501 -0.24 -0.00    -0.025 A 
DOCKED: ATOM      8  C   UNL d   1     -12.944   8.486   0.826 -0.19 +0.01    +0.066 A 
DOCKED: ATOM      9  C   UNL d   1     -13.311   5.949   1.370 -0.23 +0.01    +0.051 C 
DOCKED: ATOM     10  C   UNL d   1     -13.195  10.358   2.469 -0.13 +0.01    +0.066 A 
DOCKED: ATOM     11  C   UNL d   1     -13.312  10.775   3.800 -0.11 -0.00    -0.021 A 
DOCKED: ATOM     12  C   UNL d   1     -13.201  12.153   3.791 -0.08 +0.00    +0.000 A 
DOCKED: ATOM     13  C   UNL d   1     -13.031  12.507   2.424 -0.10 +0.01    +0.070 A 
DOCKED: ATOM     14  C   UNL d   1     -13.494   9.894   5.030 -0.13 +0.03    +0.052 C 
DOCKED: ATOM     15  C   UNL d   1     -12.735  14.148   0.576 -0.18 +0.01    +0.066 A 
DOCKED: ATOM     16  C   UNL d   1     -12.740  15.471   0.135 -0.20 -0.00    -0.021 A 
DOCKED: ATOM     17  C   UNL d   1     -12.538  15.428  -1.244 -0.25 +0.00    +0.000 A 
DOCKED: ATOM     18  C   UNL d   1     -12.422  14.063  -1.545 -0.23 +0.01    +0.070 A 
DOCKED: ATOM     19  C   UNL d   1     -12.988  16.643   1.052 -0.12 +0.01    +0.052 C 
DOCKED: ATOM     20  C   UNL d   1     -12.085  12.201  -3.223 -0.19 +0.02    +0.066 A 
DOCKED: ATOM     21  C   UNL d   1     -11.817  11.736  -4.508 -0.17 -0.01    -0.025 A 
DOCKED: ATOM     22  C   UNL d   1     -11.757  10.364  -4.420 -0.15 -0.01    -0.021 A 
DOCKED: ATOM     23  C   UNL d   1     -12.009  10.040  -3.083 -0.17 +0.02    +0.066 A 
DOCKED: ATOM     24  C   UNL d   1     -11.632  12.560  -5.756 -0.21 +0.02    +0.051 C 
DOCKED: ATOM     25  N   UNL d   1     -12.669   9.246  -0.288 +0.01 -0.05    -0.248 N 
DOCKED: ATOM     26  N   UNL d   1     -13.034  11.409   1.626 -0.02 -0.04    -0.248 N 
DOCKED: ATOM     27  N   UNL d   1     -12.619  13.299  -0.441 -0.09 -0.04    -0.248 N 
DOCKED: ATOM     28  N   UNL d   1     -12.253  11.158  -2.369 -0.07 -0.05    -0.248 N 
DOCKED: ATOM     29 FE   UNL d   1     -12.641  11.285  -0.386 -0.04 +0.00    +0.000 Fe
DOCKED: ATOM     30  O   UNL d   1     -14.063  10.686  -0.182 -0.10 +0.00    +0.000 OA
DOCKED: ATOM     31  O   UNL d   1     -13.864  11.914  -1.148 -0.10 +0.00    +0.000 OA
DOCKED: ENDROOT
DOCKED: BRANCH   6  32
DOCKED: ATOM     32  C   UNL d   1     -12.522   5.779  -1.624 -0.07 +0.02    +0.052 C 
DOCKED: BRANCH  32  33
DOCKED: ATOM     33  C   UNL d   1     -13.870   5.415  -2.239 -0.13 +0.05    +0.115 C 
DOCKED: BRANCH  33  34
DOCKED: ATOM     34  C   UNL d   1     -13.990   5.873  -3.672 -0.11 +0.09    +0.139 C 
DOCKED: ATOM     35  O   UNL d   1     -14.362   7.010  -3.913 +0.01 -0.28    -0.650 OA
DOCKED: BRANCH  34  36
DOCKED: ATOM     36  O   UNL d   1     -13.722   5.041  -4.700 -0.32 -1.13    -0.776 OA
DOCKED: ATOM     37  H   UNL d   1     -13.673   5.355  -5.611 +0.00 +0.28    +0.167 HD
DOCKED: ENDBRANCH  34  36
DOCKED: ENDBRANCH  33  34
DOCKED: ENDBRANCH  32  33
DOCKED: ENDBRANCH   6  32
DOCKED: BRANCH  22  38
DOCKED: ATOM     38  C   UNL d   1     -11.533   9.419  -5.573 -0.13 +0.02    +0.052 C 
DOCKED: BRANCH  38  39
DOCKED: ATOM     39  C   UNL d   1     -10.527   8.320  -5.238 -0.22 +0.07    +0.115 C 
DOCKED: BRANCH  39  40
DOCKED: ATOM     40  C   UNL d   1     -10.851   7.014  -5.919 -0.18 +0.15    +0.139 C 
DOCKED: ATOM     41  O   UNL d   1      -9.948   6.314  -6.348 -0.47 -0.91    -0.650 OA
DOCKED: BRANCH  40  42
DOCKED: ATOM     42  O   UNL d   1     -12.122   6.579  -6.020 -0.19 -1.18    -0.776 OA
DOCKED: ATOM     43  H   UNL d   1     -12.805   6.869  -5.404 +0.02 +0.17    +0.167 HD
DOCKED: ENDBRANCH  40  42
DOCKED: ENDBRANCH  39  40
DOCKED: ENDBRANCH  38  39
DOCKED: ENDBRANCH  22  38
DOCKED: BRANCH  12  44
DOCKED: ATOM     44  C   UNL d   1     -13.271  12.973   5.063 -0.05 +0.00    +0.004 C 
DOCKED: ATOM     45  C   UNL d   1     -12.430  13.923   5.471 -0.05 +0.00    +0.012 C 
DOCKED: ENDBRANCH  12  44
DOCKED: BRANCH  17  46
DOCKED: ATOM     46  C   UNL d   1     -12.505  16.526  -2.273 -0.25 +0.00    +0.004 C 
DOCKED: ATOM     47  C   UNL d   1     -11.699  17.594  -2.320 -0.28 +0.00    +0.012 C 
DOCKED: ENDBRANCH  17  46
DOCKED: TORSDOF 10
DOCKED: TER
DOCKED: ENDMDL
________________________________________________________________________________


	BEGINNING GENETIC ALGORITHM DOCKING 23 of 100
Run: 23 Seed: 431278249 1552644838 [ Run 23 of 100 GA/GALS ]
Beginning LAMARCKIAN GENETIC ALGORITHM (LGA), with a maximum of 25000000 energy evaluations.

Final-Value: -9.251


	FINAL GENETIC ALGORITHM DOCKED STATE
	_______________________________________________


Detailed state:  trans 11.978 4.683 15.336 quatxyzw 0.739400 -0.557291 -0.293936 -0.237312 center 8.287 34.468 -0.670 ntor 10 -90.5479 100.6078 112.7944 -131.1522 67.9599 68.7097 -119.5760 31.1760 -172.3088 180.0000
State:	 11.978   4.683  15.336   0.761 -0.574 -0.303 -152.544    -90.55  100.61  112.79 -131.15   67.96   68.71 -119.58   31.18 -172.31  180.00

DOCKED: MODEL       23
DOCKED: USER    Run = 23
DOCKED: USER    DPF = D:/Protein_go_brrr/autodock/final/mut_K82N/heme_O2/dock.dpf
DOCKED: USER  
DOCKED: USER    Estimated Free Energy of Binding    =   -4.54 kcal/mol  [=(1)+(2)+(3)-(4)]
DOCKED: USER    Estimated Inhibition Constant, Ki   =  466.26 uM (micromolar)  [Temperature = 298.15 K]
DOCKED: USER    
DOCKED: USER    (1) Final Intermolecular Energy     =   -7.53 kcal/mol
DOCKED: USER        vdW + Hbond + desolv Energy     =   -7.55 kcal/mol
DOCKED: USER        Electrostatic Energy            =   +0.02 kcal/mol
DOCKED: USER    (2) Final Total Internal Energy     =   -1.72 kcal/mol
DOCKED: USER    (3) Torsional Free Energy           =   +2.98 kcal/mol
DOCKED: USER    (4) Unbound System's Energy  [=(2)] =   -1.72 kcal/mol
DOCKED: USER    
DOCKED: USER    
DOCKED: USER    NEWDPF move heme_O2_opt.pdbqt
DOCKED: USER    NEWDPF about 8.287000 34.468000 -0.670000
DOCKED: USER    NEWDPF tran0 11.978440 4.683389 15.335678
DOCKED: USER    NEWDPF quaternion0 0.739400 -0.557291 -0.293936 -0.237312
DOCKED: USER    NEWDPF axisangle0 0.761143 -0.573679 -0.302580 -152.544156
DOCKED: USER    NEWDPF quat0 0.761143 -0.573679 -0.302580 -152.544156
DOCKED: USER    NEWDPF dihe0 -90.55 100.61 112.79 -131.15 67.96 68.71 -119.58 31.18 -172.31 180.00 
DOCKED: USER  keepresnum = 1 
DOCKED: USER  
DOCKED: REMARK  10 active torsions:
DOCKED: REMARK  status: ('A' for Active; 'I' for Inactive)
DOCKED: REMARK    1  A    between atoms: C_6  and  C_10 
DOCKED: REMARK    2  A    between atoms: C_10  and  C_11 
DOCKED: REMARK    3  A    between atoms: C_11  and  C_12 
DOCKED: REMARK    4  A    between atoms: C_12  and  O_14 
DOCKED: REMARK    5  A    between atoms: C_17  and  C_20 
DOCKED: REMARK    6  A    between atoms: C_24  and  C_27 
DOCKED: REMARK    7  A    between atoms: C_31  and  C_34 
DOCKED: REMARK    8  A    between atoms: C_34  and  C_35 
DOCKED: REMARK    9  A    between atoms: C_35  and  C_36 
DOCKED: REMARK   10  A    between atoms: C_36  and  O_38 
DOCKED: USER                              x       y       z     vdW  Elec       q    Type
DOCKED: USER                           _______ _______ _______ _____ _____    ______ ____
DOCKED: ROOT
DOCKED: ATOM      1  C   UNL d   1      11.740   6.344  16.634 -0.06 -0.00    +0.064 A 
DOCKED: ATOM      2  C   UNL d   1      11.258   5.851  11.935 -0.19 -0.00    +0.064 A 
DOCKED: ATOM      3  C   UNL d   1      12.503   1.217  12.200 -0.26 -0.01    +0.064 C 
DOCKED: ATOM      4  C   UNL d   1      12.539   1.591  17.091 -0.20 -0.00    +0.064 A 
DOCKED: ATOM      5  C   UNL d   1      11.506   6.587  15.335 -0.08 -0.00    +0.066 A 
DOCKED: ATOM      6  C   UNL d   1      11.138   7.837  14.826 -0.11 +0.00    -0.021 A 
DOCKED: ATOM      7  C   UNL d   1      10.956   7.685  13.472 -0.16 -0.00    -0.025 A 
DOCKED: ATOM      8  C   UNL d   1      11.264   6.359  13.182 -0.17 -0.00    +0.066 A 
DOCKED: ATOM      9  C   UNL d   1      10.479   8.774  12.535 -0.18 +0.00    +0.051 C 
DOCKED: ATOM     10  C   UNL d   1      11.593   4.475  11.567 -0.09 -0.00    +0.066 A 
DOCKED: ATOM     11  C   UNL d   1      11.730   4.043  10.243 -0.19 +0.00    -0.021 A 
DOCKED: ATOM     12  C   UNL d   1      12.106   2.714  10.299 -0.18 -0.00    +0.000 A 
DOCKED: ATOM     13  C   UNL d   1      12.168   2.400  11.685 -0.11 -0.01    +0.070 A 
DOCKED: ATOM     14  C   UNL d   1      11.536   4.872   8.978 -0.24 +0.00    +0.052 C 
DOCKED: ATOM     15  C   UNL d   1      12.543   0.849  13.594 -0.23 -0.01    +0.066 A 
DOCKED: ATOM     16  C   UNL d   1      12.742  -0.450  14.064 -0.31 +0.01    -0.021 A 
DOCKED: ATOM     17  C   UNL d   1      12.755  -0.368  15.456 -0.30 -0.00    +0.000 A 
DOCKED: ATOM     18  C   UNL d   1      12.563   0.992  15.735 -0.21 -0.01    +0.070 A 
DOCKED: ATOM     19  C   UNL d   1      12.845  -1.647  13.153 -0.45 -0.02    +0.052 C 
DOCKED: ATOM     20  C   UNL d   1      12.314   2.883  17.396 -0.17 -0.00    +0.066 A 
DOCKED: ATOM     21  C   UNL d   1      12.321   3.392  18.692 -0.19 -0.00    -0.025 A 
DOCKED: ATOM     22  C   UNL d   1      12.122   4.749  18.579 -0.12 -0.00    -0.021 A 
DOCKED: ATOM     23  C   UNL d   1      11.982   5.018  17.214 -0.09 +0.00    +0.066 A 
DOCKED: ATOM     24  C   UNL d   1      12.505   2.621  19.974 -0.09 +0.01    +0.051 C 
DOCKED: ATOM     25  N   UNL d   1      11.539   5.667  14.340 -0.07 +0.02    -0.248 N 
DOCKED: ATOM     26  N   UNL d   1      11.850   3.475  12.449 -0.08 +0.02    -0.248 N 
DOCKED: ATOM     27  N   UNL d   1      12.361   1.704  14.597 -0.10 +0.04    -0.248 N 
DOCKED: ATOM     28  N   UNL d   1      12.055   3.874  16.502 -0.08 +0.01    -0.248 N 
DOCKED: ATOM     29 FE   UNL d   1      11.953   3.673  14.491 -0.04 -0.00    +0.000 Fe
DOCKED: ATOM     30  O   UNL d   1      10.479   3.981  14.097 -0.38 -0.00    +0.000 OA
DOCKED: ATOM     31  O   UNL d   1      10.790   2.815  15.110 -0.42 -0.00    +0.000 OA
DOCKED: ENDROOT
DOCKED: BRANCH   6  32
DOCKED: ATOM     32  C   UNL d   1      10.835   9.094  15.598 -0.09 -0.00    +0.052 C 
DOCKED: BRANCH  32  33
DOCKED: ATOM     33  C   UNL d   1       9.369   9.198  16.009 -0.14 -0.01    +0.115 C 
DOCKED: BRANCH  33  34
DOCKED: ATOM     34  C   UNL d   1       8.924   8.029  16.853 -0.18 -0.02    +0.139 C 
DOCKED: ATOM     35  O   UNL d   1       8.584   6.990  16.311 -0.07 +0.14    -0.650 OA
DOCKED: BRANCH  34  36
DOCKED: ATOM     36  O   UNL d   1       8.866   8.114  18.198 +0.07 +0.05    -0.776 OA
DOCKED: ATOM     37  H   UNL d   1       9.616   7.884  18.757 +0.04 +0.00    +0.167 HD
DOCKED: ENDBRANCH  34  36
DOCKED: ENDBRANCH  33  34
DOCKED: ENDBRANCH  32  33
DOCKED: ENDBRANCH   6  32
DOCKED: BRANCH  22  38
DOCKED: ATOM     38  C   UNL d   1      12.009   5.719  19.727 -0.10 +0.01    +0.052 C 
DOCKED: BRANCH  38  39
DOCKED: ATOM     39  C   UNL d   1      10.637   5.674  20.395 -0.15 +0.03    +0.115 C 
DOCKED: BRANCH  39  40
DOCKED: ATOM     40  C   UNL d   1      10.239   7.003  20.986 -0.06 +0.03    +0.139 C 
DOCKED: ATOM     41  O   UNL d   1       9.564   7.037  22.002 +0.01 -0.17    -0.650 OA
DOCKED: BRANCH  40  42
DOCKED: ATOM     42  O   UNL d   1      10.658   8.161  20.440 +0.04 -0.07    -0.776 OA
DOCKED: ATOM     43  H   UNL d   1      10.073   8.706  19.900 +0.02 +0.01    +0.167 HD
DOCKED: ENDBRANCH  40  42
DOCKED: ENDBRANCH  39  40
DOCKED: ENDBRANCH  38  39
DOCKED: ENDBRANCH  22  38
DOCKED: BRANCH  12  44
DOCKED: ATOM     44  C   UNL d   1      12.359   1.897   9.049 -0.27 -0.00    +0.004 C 
DOCKED: ATOM     45  C   UNL d   1      11.465   1.448   8.169 -0.39 -0.00    +0.012 C 
DOCKED: ENDBRANCH  12  44
DOCKED: BRANCH  17  46
DOCKED: ATOM     46  C   UNL d   1      12.871  -1.439  16.508 -0.28 -0.00    +0.004 C 
DOCKED: ATOM     47  C   UNL d   1      12.189  -1.552  17.655 -0.44 -0.00    +0.012 C 
DOCKED: ENDBRANCH  17  46
DOCKED: TORSDOF 10
DOCKED: TER
DOCKED: ENDMDL
________________________________________________________________________________


	BEGINNING GENETIC ALGORITHM DOCKING 24 of 100
Run: 24 Seed: 2088857840 935048889 [ Run 24 of 100 GA/GALS ]
Beginning LAMARCKIAN GENETIC ALGORITHM (LGA), with a maximum of 25000000 energy evaluations.

Final-Value: -17.002


	FINAL GENETIC ALGORITHM DOCKED STATE
	_______________________________________________


Detailed state:  trans -4.571 3.435 -6.956 quatxyzw 0.062032 0.013484 0.075988 -0.995086 center 8.287 34.468 -0.670 ntor 10 -97.1413 14.3097 20.7011 -26.8858 -179.8396 -175.5791 -43.1726 79.5947 -5.8735 140.1219
State:	 -4.571   3.435  -6.956   0.626  0.136  0.767 -11.365    -97.14   14.31   20.70  -26.89 -179.84 -175.58  -43.17   79.59   -5.87  140.12

DOCKED: MODEL       24
DOCKED: USER    Run = 24
DOCKED: USER    DPF = D:/Protein_go_brrr/autodock/final/mut_K82N/heme_O2/dock.dpf
DOCKED: USER  
DOCKED: USER    Estimated Free Energy of Binding    =  -13.40 kcal/mol  [=(1)+(2)+(3)-(4)]
DOCKED: USER    Estimated Inhibition Constant, Ki   =  149.82 pM (picomolar)  [Temperature = 298.15 K]
DOCKED: USER    
DOCKED: USER    (1) Final Intermolecular Energy     =  -16.39 kcal/mol
DOCKED: USER        vdW + Hbond + desolv Energy     =  -14.18 kcal/mol
DOCKED: USER        Electrostatic Energy            =   -2.21 kcal/mol
DOCKED: USER    (2) Final Total Internal Energy     =   -0.62 kcal/mol
DOCKED: USER    (3) Torsional Free Energy           =   +2.98 kcal/mol
DOCKED: USER    (4) Unbound System's Energy  [=(2)] =   -0.62 kcal/mol
DOCKED: USER    
DOCKED: USER    
DOCKED: USER    NEWDPF move heme_O2_opt.pdbqt
DOCKED: USER    NEWDPF about 8.287000 34.468000 -0.670000
DOCKED: USER    NEWDPF tran0 -4.571171 3.435008 -6.955842
DOCKED: USER    NEWDPF quaternion0 0.062032 0.013484 0.075988 -0.995086
DOCKED: USER    NEWDPF axisangle0 0.626490 0.136186 0.767439 -11.364911
DOCKED: USER    NEWDPF quat0 0.626490 0.136186 0.767439 -11.364911
DOCKED: USER    NEWDPF dihe0 -97.14 14.31 20.70 -26.89 -179.84 -175.58 -43.17 79.59 -5.87 140.12 
DOCKED: USER  keepresnum = 1 
DOCKED: USER  
DOCKED: REMARK  10 active torsions:
DOCKED: REMARK  status: ('A' for Active; 'I' for Inactive)
DOCKED: REMARK    1  A    between atoms: C_6  and  C_10 
DOCKED: REMARK    2  A    between atoms: C_10  and  C_11 
DOCKED: REMARK    3  A    between atoms: C_11  and  C_12 
DOCKED: REMARK    4  A    between atoms: C_12  and  O_14 
DOCKED: REMARK    5  A    between atoms: C_17  and  C_20 
DOCKED: REMARK    6  A    between atoms: C_24  and  C_27 
DOCKED: REMARK    7  A    between atoms: C_31  and  C_34 
DOCKED: REMARK    8  A    between atoms: C_34  and  C_35 
DOCKED: REMARK    9  A    between atoms: C_35  and  C_36 
DOCKED: REMARK   10  A    between atoms: C_36  and  O_38 
DOCKED: USER                              x       y       z     vdW  Elec       q    Type
DOCKED: USER                           _______ _______ _______ _____ _____    ______ ____
DOCKED: ROOT
DOCKED: ATOM      1  C   UNL d   1      -6.538   3.837  -7.641 -0.23 +0.02    +0.064 A 
DOCKED: ATOM      2  C   UNL d   1      -4.835   0.892  -4.327 -0.40 +0.00    +0.064 A 
DOCKED: ATOM      3  C   UNL d   1      -0.332   2.273  -5.282 -0.20 +0.00    +0.064 C 
DOCKED: ATOM      4  C   UNL d   1      -2.108   5.653  -8.361 -0.38 +0.00    +0.064 A 
DOCKED: ATOM      5  C   UNL d   1      -6.442   2.924  -6.661 -0.23 +0.02    +0.066 A 
DOCKED: ATOM      6  C   UNL d   1      -7.536   2.252  -6.107 -0.37 -0.01    -0.021 A 
DOCKED: ATOM      7  C   UNL d   1      -7.048   1.431  -5.117 -0.39 -0.01    -0.025 A 
DOCKED: ATOM      8  C   UNL d   1      -5.665   1.588  -5.127 -0.37 +0.01    +0.066 A 
DOCKED: ATOM      9  C   UNL d   1      -7.900   0.574  -4.206 -0.38 +0.01    +0.051 C 
DOCKED: ATOM     10  C   UNL d   1      -3.375   0.997  -4.307 -0.37 +0.00    +0.066 A 
DOCKED: ATOM     11  C   UNL d   1      -2.552   0.134  -3.575 -0.41 +0.00    -0.021 A 
DOCKED: ATOM     12  C   UNL d   1      -1.249   0.505  -3.851 -0.40 -0.00    +0.000 A 
DOCKED: ATOM     13  C   UNL d   1      -1.354   1.605  -4.747 -0.36 +0.00    +0.070 A 
DOCKED: ATOM     14  C   UNL d   1      -2.989  -1.013  -2.671 -0.56 -0.00    +0.052 C 
DOCKED: ATOM     15  C   UNL d   1      -0.396   3.413  -6.165 -0.41 +0.00    +0.066 A 
DOCKED: ATOM     16  C   UNL d   1       0.706   4.170  -6.560 -0.52 -0.00    -0.021 A 
DOCKED: ATOM     17  C   UNL d   1       0.224   5.140  -7.438 -0.51 +0.00    +0.000 A 
DOCKED: ATOM     18  C   UNL d   1      -1.155   4.898  -7.515 -0.41 +0.00    +0.070 A 
DOCKED: ATOM     19  C   UNL d   1       2.098   3.937  -6.027 -0.15 -0.00    +0.052 C 
DOCKED: ATOM     20  C   UNL d   1      -3.442   5.476  -8.426 -0.43 +0.01    +0.066 A 
DOCKED: ATOM     21  C   UNL d   1      -4.288   6.206  -9.256 -0.44 -0.00    -0.025 A 
DOCKED: ATOM     22  C   UNL d   1      -5.550   5.684  -9.084 -0.25 -0.00    -0.021 A 
DOCKED: ATOM     23  C   UNL d   1      -5.431   4.661  -8.138 -0.20 +0.01    +0.066 A 
DOCKED: ATOM     24  C   UNL d   1      -3.910   7.348 -10.165 -0.42 -0.01    +0.051 C 
DOCKED: ATOM     25  N   UNL d   1      -5.298   2.556  -6.033 -0.17 -0.06    -0.248 N 
DOCKED: ATOM     26  N   UNL d   1      -2.651   1.900  -5.015 -0.26 -0.01    -0.248 N 
DOCKED: ATOM     27  N   UNL d   1      -1.524   3.895  -6.678 -0.25 -0.02    -0.248 N 
DOCKED: ATOM     28  N   UNL d   1      -4.156   4.568  -7.707 -0.15 -0.07    -0.248 N 
DOCKED: ATOM     29 FE   UNL d   1      -3.406   3.245  -6.371 -0.09 +0.00    +0.000 Fe
DOCKED: ATOM     30  O   UNL d   1      -3.984   3.653  -4.985 -0.46 +0.00    +0.000 OA
DOCKED: ATOM     31  O   UNL d   1      -3.132   4.689  -5.811 -1.02 +0.00    +0.000 OA
DOCKED: ENDROOT
DOCKED: BRANCH   6  32
DOCKED: ATOM     32  C   UNL d   1      -8.998   2.472  -6.399 +0.63 +0.06    +0.052 C 
DOCKED: BRANCH  32  33
DOCKED: ATOM     33  C   UNL d   1      -9.442   1.832  -7.711 -0.00 +0.09    +0.115 C 
DOCKED: BRANCH  33  34
DOCKED: ATOM     34  C   UNL d   1     -10.743   1.081  -7.573 -0.13 +0.12    +0.139 C 
DOCKED: ATOM     35  O   UNL d   1     -11.562   1.440  -6.742 -0.19 -1.06    -0.650 OA
DOCKED: BRANCH  34  36
DOCKED: ATOM     36  O   UNL d   1     -11.013  -0.003  -8.330 +0.05 -0.31    -0.776 OA
DOCKED: ATOM     37  H   UNL d   1     -11.539   0.056  -9.136 +0.05 +0.06    +0.167 HD
DOCKED: ENDBRANCH  34  36
DOCKED: ENDBRANCH  33  34
DOCKED: ENDBRANCH  32  33
DOCKED: ENDBRANCH   6  32
DOCKED: BRANCH  22  38
DOCKED: ATOM     38  C   UNL d   1      -6.806   6.187  -9.747 -0.16 +0.01    +0.052 C 
DOCKED: BRANCH  38  39
DOCKED: ATOM     39  C   UNL d   1      -7.833   6.696  -8.738 -0.18 +0.03    +0.115 C 
DOCKED: BRANCH  39  40
DOCKED: ATOM     40  C   UNL d   1      -8.937   5.701  -8.486 -0.19 +0.08    +0.139 C 
DOCKED: ATOM     41  O   UNL d   1      -9.286   4.944  -9.378 -0.01 -0.33    -0.650 OA
DOCKED: BRANCH  40  42
DOCKED: ATOM     42  O   UNL d   1      -9.515   5.594  -7.274 -0.47 -1.05    -0.776 OA
DOCKED: ATOM     43  H   UNL d   1      -9.426   6.288  -6.610 +0.04 +0.19    +0.167 HD
DOCKED: ENDBRANCH  40  42
DOCKED: ENDBRANCH  39  40
DOCKED: ENDBRANCH  38  39
DOCKED: ENDBRANCH  22  38
DOCKED: BRANCH  12  44
DOCKED: ATOM     44  C   UNL d   1      -0.062  -0.212  -3.241 -0.52 -0.00    +0.004 C 
DOCKED: ATOM     45  C   UNL d   1       1.201   0.206  -3.175 -0.57 -0.00    +0.012 C 
DOCKED: ENDBRANCH  12  44
DOCKED: BRANCH  17  46
DOCKED: ATOM     46  C   UNL d   1       0.924   6.274  -8.139 -0.63 +0.00    +0.004 C 
DOCKED: ATOM     47  C   UNL d   1       1.951   7.012  -7.699 -0.70 +0.00    +0.012 C 
DOCKED: ENDBRANCH  17  46
DOCKED: TORSDOF 10
DOCKED: TER
DOCKED: ENDMDL
________________________________________________________________________________


	BEGINNING GENETIC ALGORITHM DOCKING 25 of 100
Run: 25 Seed: 1695846693 1238772321 [ Run 25 of 100 GA/GALS ]
Beginning LAMARCKIAN GENETIC ALGORITHM (LGA), with a maximum of 25000000 energy evaluations.

Final-Value: -9.591


	FINAL GENETIC ALGORITHM DOCKED STATE
	_______________________________________________


Detailed state:  trans 8.645 -4.935 21.683 quatxyzw -0.608815 0.135751 0.655022 0.426452 center 8.287 34.468 -0.670 ntor 10 -44.3416 150.3454 -102.6193 152.8997 105.3239 -46.8982 20.8376 -69.8334 -14.5604 -10.7145
State:	  8.645  -4.935  21.683  -0.673  0.150  0.724 129.515    -44.34  150.35 -102.62  152.90  105.32  -46.90   20.84  -69.83  -14.56  -10.71

DOCKED: MODEL       25
DOCKED: USER    Run = 25
DOCKED: USER    DPF = D:/Protein_go_brrr/autodock/final/mut_K82N/heme_O2/dock.dpf
DOCKED: USER  
DOCKED: USER    Estimated Free Energy of Binding    =   -4.53 kcal/mol  [=(1)+(2)+(3)-(4)]
DOCKED: USER    Estimated Inhibition Constant, Ki   =  481.19 uM (micromolar)  [Temperature = 298.15 K]
DOCKED: USER    
DOCKED: USER    (1) Final Intermolecular Energy     =   -7.51 kcal/mol
DOCKED: USER        vdW + Hbond + desolv Energy     =   -6.25 kcal/mol
DOCKED: USER        Electrostatic Energy            =   -1.25 kcal/mol
DOCKED: USER    (2) Final Total Internal Energy     =   -2.08 kcal/mol
DOCKED: USER    (3) Torsional Free Energy           =   +2.98 kcal/mol
DOCKED: USER    (4) Unbound System's Energy  [=(2)] =   -2.08 kcal/mol
DOCKED: USER    
DOCKED: USER    
DOCKED: USER    NEWDPF move heme_O2_opt.pdbqt
DOCKED: USER    NEWDPF about 8.287000 34.468000 -0.670000
DOCKED: USER    NEWDPF tran0 8.644669 -4.935116 21.683302
DOCKED: USER    NEWDPF quaternion0 -0.608815 0.135751 0.655022 0.426452
DOCKED: USER    NEWDPF axisangle0 -0.673088 0.150082 0.724174 129.514789
DOCKED: USER    NEWDPF quat0 -0.673088 0.150082 0.724174 129.514789
DOCKED: USER    NEWDPF dihe0 -44.34 150.35 -102.62 152.90 105.32 -46.90 20.84 -69.83 -14.56 -10.71 
DOCKED: USER  keepresnum = 1 
DOCKED: USER  
DOCKED: REMARK  10 active torsions:
DOCKED: REMARK  status: ('A' for Active; 'I' for Inactive)
DOCKED: REMARK    1  A    between atoms: C_6  and  C_10 
DOCKED: REMARK    2  A    between atoms: C_10  and  C_11 
DOCKED: REMARK    3  A    between atoms: C_11  and  C_12 
DOCKED: REMARK    4  A    between atoms: C_12  and  O_14 
DOCKED: REMARK    5  A    between atoms: C_17  and  C_20 
DOCKED: REMARK    6  A    between atoms: C_24  and  C_27 
DOCKED: REMARK    7  A    between atoms: C_31  and  C_34 
DOCKED: REMARK    8  A    between atoms: C_34  and  C_35 
DOCKED: REMARK    9  A    between atoms: C_35  and  C_36 
DOCKED: REMARK   10  A    between atoms: C_36  and  O_38 
DOCKED: USER                              x       y       z     vdW  Elec       q    Type
DOCKED: USER                           _______ _______ _______ _____ _____    ______ ____
DOCKED: ROOT
DOCKED: ATOM      1  C   UNL d   1       9.416  -3.669  23.200 -0.12 +0.00    +0.064 A 
DOCKED: ATOM      2  C   UNL d   1       5.081  -4.151  21.321 -0.18 -0.01    +0.064 A 
DOCKED: ATOM      3  C   UNL d   1       6.662  -7.548  18.312 -0.23 -0.00    +0.064 C 
DOCKED: ATOM      4  C   UNL d   1      11.018  -7.400  20.564 -0.10 +0.01    +0.064 A 
DOCKED: ATOM      5  C   UNL d   1       8.107  -3.524  22.936 -0.16 -0.00    +0.066 A 
DOCKED: ATOM      6  C   UNL d   1       7.275  -2.607  23.583 -0.16 -0.00    -0.021 A 
DOCKED: ATOM      7  C   UNL d   1       6.010  -2.776  23.070 -0.18 +0.00    -0.025 A 
DOCKED: ATOM      8  C   UNL d   1       6.115  -3.758  22.089 -0.19 -0.01    +0.066 A 
DOCKED: ATOM      9  C   UNL d   1       4.778  -2.035  23.543 -0.09 -0.01    +0.051 C 
DOCKED: ATOM     10  C   UNL d   1       5.135  -5.159  20.261 -0.21 -0.01    +0.066 A 
DOCKED: ATOM     11  C   UNL d   1       4.073  -5.412  19.385 -0.26 +0.00    -0.021 A 
DOCKED: ATOM     12  C   UNL d   1       4.516  -6.376  18.498 -0.25 -0.00    +0.000 A 
DOCKED: ATOM     13  C   UNL d   1       5.848  -6.672  18.900 -0.21 -0.01    +0.070 A 
DOCKED: ATOM     14  C   UNL d   1       2.704  -4.742  19.376 -0.32 -0.00    +0.052 C 
DOCKED: ATOM     15  C   UNL d   1       8.003  -7.902  18.709 -0.19 +0.01    +0.066 A 
DOCKED: ATOM     16  C   UNL d   1       8.744  -8.944  18.153 -0.20 -0.00    -0.021 A 
DOCKED: ATOM     17  C   UNL d   1       9.989  -8.922  18.780 -0.21 +0.00    +0.000 A 
DOCKED: ATOM     18  C   UNL d   1       9.915  -7.852  19.683 -0.12 +0.01    +0.070 A 
DOCKED: ATOM     19  C   UNL d   1       8.184  -9.893  17.123 -0.28 +0.00    +0.052 C 
DOCKED: ATOM     20  C   UNL d   1      10.966  -6.406  21.472 -0.07 +0.00    +0.066 A 
DOCKED: ATOM     21  C   UNL d   1      12.044  -6.014  22.261 -0.05 -0.00    -0.025 A 
DOCKED: ATOM     22  C   UNL d   1      11.614  -4.934  22.999 -0.05 -0.00    -0.021 A 
DOCKED: ATOM     23  C   UNL d   1      10.278  -4.718  22.645 -0.08 +0.00    +0.066 A 
DOCKED: ATOM     24  C   UNL d   1      13.413  -6.640  22.312 -0.02 +0.00    +0.051 C 
DOCKED: ATOM     25  N   UNL d   1       7.393  -4.264  22.053 -0.13 +0.02    -0.248 N 
DOCKED: ATOM     26  N   UNL d   1       6.214  -5.931  19.977 -0.13 +0.02    -0.248 N 
DOCKED: ATOM     27  N   UNL d   1       8.678  -7.293  19.680 -0.07 -0.03    -0.248 N 
DOCKED: ATOM     28  N   UNL d   1       9.876  -5.643  21.749 -0.05 -0.00    -0.248 N 
DOCKED: ATOM     29 FE   UNL d   1       8.059  -5.788  20.868 -0.04 -0.00    +0.000 Fe
DOCKED: ATOM     30  O   UNL d   1       7.071  -6.244  21.981 -0.08 -0.00    +0.000 OA
DOCKED: ATOM     31  O   UNL d   1       8.321  -7.137  21.634 -0.08 +0.00    +0.000 OA
DOCKED: ENDROOT
DOCKED: BRANCH   6  32
DOCKED: ATOM     32  C   UNL d   1       7.620  -1.701  24.737 -0.12 +0.01    +0.052 C 
DOCKED: BRANCH  32  33
DOCKED: ATOM     33  C   UNL d   1       8.587  -0.587  24.347 -0.09 +0.04    +0.115 C 
DOCKED: BRANCH  33  34
DOCKED: ATOM     34  C   UNL d   1       9.272   0.025  25.543 -0.03 +0.09    +0.139 C 
DOCKED: ATOM     35  O   UNL d   1       8.616   0.317  26.530 -0.02 -0.33    -0.650 OA
DOCKED: BRANCH  34  36
DOCKED: ATOM     36  O   UNL d   1      10.595   0.287  25.538 -0.09 -0.84    -0.776 OA
DOCKED: ATOM     37  H   UNL d   1      11.240  -0.343  25.196 +0.01 +0.12    +0.167 HD
DOCKED: ENDBRANCH  34  36
DOCKED: ENDBRANCH  33  34
DOCKED: ENDBRANCH  32  33
DOCKED: ENDBRANCH   6  32
DOCKED: BRANCH  22  38
DOCKED: ATOM     38  C   UNL d   1      12.426  -4.197  24.033 -0.03 +0.00    +0.052 C 
DOCKED: BRANCH  38  39
DOCKED: ATOM     39  C   UNL d   1      13.191  -3.017  23.438 -0.04 +0.01    +0.115 C 
DOCKED: BRANCH  39  40
DOCKED: ATOM     40  C   UNL d   1      12.625  -1.687  23.867 -0.08 +0.03    +0.139 C 
DOCKED: ATOM     41  O   UNL d   1      13.135  -1.082  24.796 -0.00 -0.22    -0.650 OA
DOCKED: BRANCH  40  42
DOCKED: ATOM     42  O   UNL d   1      11.591  -1.127  23.209 -0.02 -0.26    -0.776 OA
DOCKED: ATOM     43  H   UNL d   1      10.983  -0.520  23.648 +0.02 +0.09    +0.167 HD
DOCKED: ENDBRANCH  40  42
DOCKED: ENDBRANCH  39  40
DOCKED: ENDBRANCH  38  39
DOCKED: ENDBRANCH  22  38
DOCKED: BRANCH  12  44
DOCKED: ATOM     44  C   UNL d   1       3.639  -6.906  17.383 -0.40 -0.00    +0.004 C 
DOCKED: ATOM     45  C   UNL d   1       3.280  -6.288  16.259 -0.53 -0.00    +0.012 C 
DOCKED: ENDBRANCH  12  44
DOCKED: BRANCH  17  46
DOCKED: ATOM     46  C   UNL d   1      11.181  -9.832  18.644 -0.18 +0.00    +0.004 C 
DOCKED: ATOM     47  C   UNL d   1      12.479  -9.516  18.732 -0.17 +0.00    +0.012 C 
DOCKED: ENDBRANCH  17  46
DOCKED: TORSDOF 10
DOCKED: TER
DOCKED: ENDMDL
________________________________________________________________________________


	BEGINNING GENETIC ALGORITHM DOCKING 26 of 100
Run: 26 Seed: 1451450209 1184233443 [ Run 26 of 100 GA/GALS ]
Beginning LAMARCKIAN GENETIC ALGORITHM (LGA), with a maximum of 25000000 energy evaluations.

Final-Value: -9.306


	FINAL GENETIC ALGORITHM DOCKED STATE
	_______________________________________________


Detailed state:  trans 9.307 15.818 -10.518 quatxyzw 0.581003 0.410543 0.161995 0.683847 center 8.287 34.468 -0.670 ntor 10 154.8515 -36.4954 -99.0736 122.8292 -138.0325 -17.8290 80.3488 -14.8060 -1.6249 -6.8847
State:	  9.307  15.818 -10.518   0.796  0.563  0.222 93.710    154.85  -36.50  -99.07  122.83 -138.03  -17.83   80.35  -14.81   -1.62   -6.88

DOCKED: MODEL       26
DOCKED: USER    Run = 26
DOCKED: USER    DPF = D:/Protein_go_brrr/autodock/final/mut_K82N/heme_O2/dock.dpf
DOCKED: USER  
DOCKED: USER    Estimated Free Energy of Binding    =   -4.31 kcal/mol  [=(1)+(2)+(3)-(4)]
DOCKED: USER    Estimated Inhibition Constant, Ki   =  691.97 uM (micromolar)  [Temperature = 298.15 K]
DOCKED: USER    
DOCKED: USER    (1) Final Intermolecular Energy     =   -7.29 kcal/mol
DOCKED: USER        vdW + Hbond + desolv Energy     =   -6.49 kcal/mol
DOCKED: USER        Electrostatic Energy            =   -0.80 kcal/mol
DOCKED: USER    (2) Final Total Internal Energy     =   -2.01 kcal/mol
DOCKED: USER    (3) Torsional Free Energy           =   +2.98 kcal/mol
DOCKED: USER    (4) Unbound System's Energy  [=(2)] =   -2.01 kcal/mol
DOCKED: USER    
DOCKED: USER    
DOCKED: USER    NEWDPF move heme_O2_opt.pdbqt
DOCKED: USER    NEWDPF about 8.287000 34.468000 -0.670000
DOCKED: USER    NEWDPF tran0 9.306641 15.818084 -10.517801
DOCKED: USER    NEWDPF quaternion0 0.581003 0.410543 0.161995 0.683847
DOCKED: USER    NEWDPF axisangle0 0.796304 0.562677 0.222025 93.709995
DOCKED: USER    NEWDPF quat0 0.796304 0.562677 0.222025 93.709995
DOCKED: USER    NEWDPF dihe0 154.85 -36.50 -99.07 122.83 -138.03 -17.83 80.35 -14.81 -1.62 -6.88 
DOCKED: USER  keepresnum = 1 
DOCKED: USER  
DOCKED: REMARK  10 active torsions:
DOCKED: REMARK  status: ('A' for Active; 'I' for Inactive)
DOCKED: REMARK    1  A    between atoms: C_6  and  C_10 
DOCKED: REMARK    2  A    between atoms: C_10  and  C_11 
DOCKED: REMARK    3  A    between atoms: C_11  and  C_12 
DOCKED: REMARK    4  A    between atoms: C_12  and  O_14 
DOCKED: REMARK    5  A    between atoms: C_17  and  C_20 
DOCKED: REMARK    6  A    between atoms: C_24  and  C_27 
DOCKED: REMARK    7  A    between atoms: C_31  and  C_34 
DOCKED: REMARK    8  A    between atoms: C_34  and  C_35 
DOCKED: REMARK    9  A    between atoms: C_35  and  C_36 
DOCKED: REMARK   10  A    between atoms: C_36  and  O_38 
DOCKED: USER                              x       y       z     vdW  Elec       q    Type
DOCKED: USER                           _______ _______ _______ _____ _____    ______ ____
DOCKED: ROOT
DOCKED: ATOM      1  C   UNL d   1       8.884  14.762 -12.308 -0.18 +0.00    +0.064 A 
DOCKED: ATOM      2  C   UNL d   1       6.313  17.758  -9.668 -0.22 -0.01    +0.064 A 
DOCKED: ATOM      3  C   UNL d   1       9.915  18.223  -6.521 -0.12 -0.01    +0.064 C 
DOCKED: ATOM      4  C   UNL d   1      12.741  15.517  -9.481 -0.11 -0.00    +0.064 A 
DOCKED: ATOM      5  C   UNL d   1       7.892  15.541 -11.848 -0.21 -0.00    +0.066 A 
DOCKED: ATOM      6  C   UNL d   1       6.645  15.668 -12.468 -0.20 +0.00    -0.021 A 
DOCKED: ATOM      7  C   UNL d   1       5.915  16.569 -11.728 -0.19 +0.00    -0.025 A 
DOCKED: ATOM      8  C   UNL d   1       6.718  16.930 -10.650 -0.21 -0.01    +0.066 A 
DOCKED: ATOM      9  C   UNL d   1       4.529  17.059 -12.085 -0.18 -0.01    +0.051 C 
DOCKED: ATOM     10  C   UNL d   1       7.101  18.156  -8.501 -0.22 -0.01    +0.066 A 
DOCKED: ATOM     11  C   UNL d   1       6.576  18.887  -7.430 -0.27 +0.01    -0.021 A 
DOCKED: ATOM     12  C   UNL d   1       7.594  19.015  -6.504 -0.24 -0.00    +0.000 A 
DOCKED: ATOM     13  C   UNL d   1       8.712  18.352  -7.081 -0.06 -0.01    +0.070 A 
DOCKED: ATOM     14  C   UNL d   1       5.154  19.416  -7.284 -0.24 -0.02    +0.052 C 
DOCKED: ATOM     15  C   UNL d   1      11.082  17.590  -7.087 -0.04 -0.00    +0.066 A 
DOCKED: ATOM     16  C   UNL d   1      12.356  17.631  -6.523 -0.08 +0.00    -0.021 A 
DOCKED: ATOM     17  C   UNL d   1      13.179  16.867  -7.350 -0.08 -0.00    +0.000 A 
DOCKED: ATOM     18  C   UNL d   1      12.333  16.409  -8.370 -0.10 -0.00    +0.070 A 
DOCKED: ATOM     19  C   UNL d   1      12.683  18.433  -5.288 -0.05 -0.00    +0.052 C 
DOCKED: ATOM     20  C   UNL d   1      11.966  15.094 -10.498 -0.14 -0.00    +0.066 A 
DOCKED: ATOM     21  C   UNL d   1      12.402  14.239 -11.507 -0.11 +0.00    -0.025 A 
DOCKED: ATOM     22  C   UNL d   1      11.309  13.991 -12.307 -0.14 -0.00    -0.021 A 
DOCKED: ATOM     23  C   UNL d   1      10.247  14.721 -11.765 -0.18 +0.00    +0.066 A 
DOCKED: ATOM     24  C   UNL d   1      13.791  13.690 -11.701 -0.07 -0.00    +0.051 C 
DOCKED: ATOM     25  N   UNL d   1       7.959  16.346 -10.760 -0.16 +0.02    -0.248 N 
DOCKED: ATOM     26  N   UNL d   1       8.405  17.836  -8.298 +0.01 +0.02    -0.248 N 
DOCKED: ATOM     27  N   UNL d   1      11.082  16.918  -8.235 -0.00 +0.00    -0.248 N 
DOCKED: ATOM     28  N   UNL d   1      10.662  15.426 -10.691 -0.13 -0.00    -0.248 N 
DOCKED: ATOM     29 FE   UNL d   1       9.544  16.622  -9.502 -0.05 -0.00    +0.000 Fe
DOCKED: ATOM     30  O   UNL d   1       9.193  17.877 -10.354 -0.10 -0.00    +0.000 OA
DOCKED: ATOM     31  O   UNL d   1      10.702  17.502 -10.102 -0.10 -0.00    +0.000 OA
DOCKED: ENDROOT
DOCKED: BRANCH   6  32
DOCKED: ATOM     32  C   UNL d   1       6.202  15.075 -13.780 -0.18 -0.00    +0.052 C 
DOCKED: BRANCH  32  33
DOCKED: ATOM     33  C   UNL d   1       5.746  13.624 -13.651 -0.24 +0.01    +0.115 C 
DOCKED: BRANCH  33  34
DOCKED: ATOM     34  C   UNL d   1       6.794  12.648 -14.123 -0.28 +0.05    +0.139 C 
DOCKED: ATOM     35  O   UNL d   1       7.807  12.482 -13.461 -0.02 -0.21    -0.650 OA
DOCKED: BRANCH  34  36
DOCKED: ATOM     36  O   UNL d   1       6.653  11.969 -15.280 -0.53 -0.52    -0.776 OA
DOCKED: ATOM     37  H   UNL d   1       7.411  11.630 -15.770 +0.03 +0.12    +0.167 HD
DOCKED: ENDBRANCH  34  36
DOCKED: ENDBRANCH  33  34
DOCKED: ENDBRANCH  32  33
DOCKED: ENDBRANCH   6  32
DOCKED: BRANCH  22  38
DOCKED: ATOM     38  C   UNL d   1      11.308  13.151 -13.558 -0.10 +0.00    +0.052 C 
DOCKED: BRANCH  38  39
DOCKED: ATOM     39  C   UNL d   1      10.880  11.710 -13.290 -0.13 +0.01    +0.115 C 
DOCKED: BRANCH  39  40
DOCKED: ATOM     40  C   UNL d   1      10.507  10.975 -14.554 -0.11 +0.02    +0.139 C 
DOCKED: ATOM     41  O   UNL d   1      11.034   9.905 -14.810 +0.03 -0.09    -0.650 OA
DOCKED: BRANCH  40  42
DOCKED: ATOM     42  O   UNL d   1       9.561  11.455 -15.384 +0.04 -0.20    -0.776 OA
DOCKED: ATOM     43  H   UNL d   1       8.795  11.938 -15.051 +0.04 +0.05    +0.167 HD
DOCKED: ENDBRANCH  40  42
DOCKED: ENDBRANCH  39  40
DOCKED: ENDBRANCH  38  39
DOCKED: ENDBRANCH  22  38
DOCKED: BRANCH  12  44
DOCKED: ATOM     44  C   UNL d   1       7.400  19.747  -5.192 -0.32 -0.00    +0.004 C 
DOCKED: ATOM     45  C   UNL d   1       6.771  19.316  -4.100 -0.50 -0.00    +0.012 C 
DOCKED: ENDBRANCH  12  44
DOCKED: BRANCH  17  46
DOCKED: ATOM     46  C   UNL d   1      14.658  16.592  -7.290 -0.04 -0.00    +0.004 C 
DOCKED: ATOM     47  C   UNL d   1      15.276  15.419  -7.100 -0.04 -0.00    +0.012 C 
DOCKED: ENDBRANCH  17  46
DOCKED: TORSDOF 10
DOCKED: TER
DOCKED: ENDMDL
________________________________________________________________________________


	BEGINNING GENETIC ALGORITHM DOCKING 27 of 100
Run: 27 Seed: 425775731 1646553211 [ Run 27 of 100 GA/GALS ]
Beginning LAMARCKIAN GENETIC ALGORITHM (LGA), with a maximum of 25000000 energy evaluations.

Final-Value: -10.765


	FINAL GENETIC ALGORITHM DOCKED STATE
	_______________________________________________


Detailed state:  trans -9.957 10.960 -8.076 quatxyzw 0.619153 0.107318 -0.736383 0.250743 center 8.287 34.468 -0.670 ntor 10 95.6379 -138.1156 -50.1611 121.0420 -37.5612 123.2419 -107.9223 111.4599 161.1264 179.8080
State:	 -9.957  10.960  -8.076   0.640  0.111 -0.761 150.957     95.64 -138.12  -50.16  121.04  -37.56  123.24 -107.92  111.46  161.13  179.81

DOCKED: MODEL       27
DOCKED: USER    Run = 27
DOCKED: USER    DPF = D:/Protein_go_brrr/autodock/final/mut_K82N/heme_O2/dock.dpf
DOCKED: USER  
DOCKED: USER    Estimated Free Energy of Binding    =   -5.71 kcal/mol  [=(1)+(2)+(3)-(4)]
DOCKED: USER    Estimated Inhibition Constant, Ki   =   64.88 uM (micromolar)  [Temperature = 298.15 K]
DOCKED: USER    
DOCKED: USER    (1) Final Intermolecular Energy     =   -8.70 kcal/mol
DOCKED: USER        vdW + Hbond + desolv Energy     =   -6.28 kcal/mol
DOCKED: USER        Electrostatic Energy            =   -2.41 kcal/mol
DOCKED: USER    (2) Final Total Internal Energy     =   -2.07 kcal/mol
DOCKED: USER    (3) Torsional Free Energy           =   +2.98 kcal/mol
DOCKED: USER    (4) Unbound System's Energy  [=(2)] =   -2.07 kcal/mol
DOCKED: USER    
DOCKED: USER    
DOCKED: USER    NEWDPF move heme_O2_opt.pdbqt
DOCKED: USER    NEWDPF about 8.287000 34.468000 -0.670000
DOCKED: USER    NEWDPF tran0 -9.957361 10.960196 -8.075926
DOCKED: USER    NEWDPF quaternion0 0.619153 0.107318 -0.736383 0.250743
DOCKED: USER    NEWDPF axisangle0 0.639586 0.110859 -0.760684 150.957047
DOCKED: USER    NEWDPF quat0 0.639586 0.110859 -0.760684 150.957047
DOCKED: USER    NEWDPF dihe0 95.64 -138.12 -50.16 121.04 -37.56 123.24 -107.92 111.46 161.13 179.81 
DOCKED: USER  keepresnum = 1 
DOCKED: USER  
DOCKED: REMARK  10 active torsions:
DOCKED: REMARK  status: ('A' for Active; 'I' for Inactive)
DOCKED: REMARK    1  A    between atoms: C_6  and  C_10 
DOCKED: REMARK    2  A    between atoms: C_10  and  C_11 
DOCKED: REMARK    3  A    between atoms: C_11  and  C_12 
DOCKED: REMARK    4  A    between atoms: C_12  and  O_14 
DOCKED: REMARK    5  A    between atoms: C_17  and  C_20 
DOCKED: REMARK    6  A    between atoms: C_24  and  C_27 
DOCKED: REMARK    7  A    between atoms: C_31  and  C_34 
DOCKED: REMARK    8  A    between atoms: C_34  and  C_35 
DOCKED: REMARK    9  A    between atoms: C_35  and  C_36 
DOCKED: REMARK   10  A    between atoms: C_36  and  O_38 
DOCKED: USER                              x       y       z     vdW  Elec       q    Type
DOCKED: USER                           _______ _______ _______ _____ _____    ______ ____
DOCKED: ROOT
DOCKED: ATOM      1  C   UNL d   1      -9.126   9.387  -6.922 -0.22 +0.02    +0.064 A 
DOCKED: ATOM      2  C   UNL d   1     -12.188  12.863  -5.873 -0.13 +0.02    +0.064 A 
DOCKED: ATOM      3  C   UNL d   1     -11.904  14.589 -10.349 -0.13 +0.03    +0.064 C 
DOCKED: ATOM      4  C   UNL d   1      -9.124  10.737 -11.571 -0.08 +0.01    +0.064 A 
DOCKED: ATOM      5  C   UNL d   1      -9.983  10.190  -6.272 -0.22 +0.02    +0.066 A 
DOCKED: ATOM      6  C   UNL d   1     -10.325  10.044  -4.924 -0.31 -0.01    -0.021 A 
DOCKED: ATOM      7  C   UNL d   1     -11.244  11.024  -4.631 -0.21 -0.01    -0.025 A 
DOCKED: ATOM      8  C   UNL d   1     -11.403  11.771  -5.794 -0.15 +0.02    +0.066 A 
DOCKED: ATOM      9  C   UNL d   1     -11.940  11.186  -3.297 -0.21 +0.01    +0.051 C 
DOCKED: ATOM     10  C   UNL d   1     -12.376  13.701  -7.058 -0.13 +0.03    +0.066 A 
DOCKED: ATOM     11  C   UNL d   1     -13.072  14.914  -7.040 -0.11 -0.01    -0.021 A 
DOCKED: ATOM     12  C   UNL d   1     -12.986  15.436  -8.318 -0.10 +0.00    +0.000 A 
DOCKED: ATOM     13  C   UNL d   1     -12.236  14.484  -9.062 -0.13 +0.04    +0.070 A 
DOCKED: ATOM     14  C   UNL d   1     -13.766  15.562  -5.848 -0.10 +0.03    +0.052 C 
DOCKED: ATOM     15  C   UNL d   1     -11.177  13.632 -11.147 -0.09 +0.02    +0.066 A 
DOCKED: ATOM     16  C   UNL d   1     -11.003  13.723 -12.528 -0.05 -0.00    -0.021 A 
DOCKED: ATOM     17  C   UNL d   1     -10.214  12.635 -12.899 -0.06 +0.00    +0.000 A 
DOCKED: ATOM     18  C   UNL d   1      -9.960  11.953 -11.701 +0.01 +0.02    +0.070 A 
DOCKED: ATOM     19  C   UNL d   1     -11.645  14.799 -13.368 -0.04 +0.01    +0.052 C 
DOCKED: ATOM     20  C   UNL d   1      -8.895  10.033 -10.445 -0.12 +0.01    +0.066 A 
DOCKED: ATOM     21  C   UNL d   1      -8.083   8.904 -10.381 -0.14 -0.00    -0.025 A 
DOCKED: ATOM     22  C   UNL d   1      -8.050   8.522  -9.059 -0.21 -0.00    -0.021 A 
DOCKED: ATOM     23  C   UNL d   1      -8.861   9.425  -8.365 -0.19 +0.01    +0.066 A 
DOCKED: ATOM     24  C   UNL d   1      -7.377   8.223 -11.525 -0.17 +0.00    +0.051 C 
DOCKED: ATOM     25  N   UNL d   1     -10.675  11.218  -6.822 -0.09 -0.07    -0.248 N 
DOCKED: ATOM     26  N   UNL d   1     -11.873  13.429  -8.289 -0.08 -0.11    -0.248 N 
DOCKED: ATOM     27  N   UNL d   1     -10.614  12.530 -10.660 -0.08 -0.09    -0.248 N 
DOCKED: ATOM     28  N   UNL d   1      -9.409  10.315  -9.218 -0.09 -0.05    -0.248 N 
DOCKED: ATOM     29 FE   UNL d   1     -10.632  11.861  -8.760 -0.03 +0.00    +0.000 Fe
DOCKED: ATOM     30  O   UNL d   1     -11.991  11.231  -8.337 -0.06 +0.00    +0.000 OA
DOCKED: ATOM     31  O   UNL d   1     -11.403  10.933  -9.768 -0.06 +0.00    +0.000 OA
DOCKED: ENDROOT
DOCKED: BRANCH   6  32
DOCKED: ATOM     32  C   UNL d   1      -9.911   8.944  -3.981 -0.34 +0.02    +0.052 C 
DOCKED: BRANCH  32  33
DOCKED: ATOM     33  C   UNL d   1     -11.087   8.092  -3.512 -0.33 +0.05    +0.115 C 
DOCKED: BRANCH  33  34
DOCKED: ATOM     34  C   UNL d   1     -11.652   7.234  -4.616 -0.14 +0.12    +0.139 C 
DOCKED: ATOM     35  O   UNL d   1     -12.492   6.388  -4.353 -0.24 -0.76    -0.650 OA
DOCKED: BRANCH  34  36
DOCKED: ATOM     36  O   UNL d   1     -11.230   7.360  -5.891 -0.02 -0.72    -0.776 OA
DOCKED: ATOM     37  H   UNL d   1     -10.545   6.790  -6.261 +0.03 +0.21    +0.167 HD
DOCKED: ENDBRANCH  34  36
DOCKED: ENDBRANCH  33  34
DOCKED: ENDBRANCH  32  33
DOCKED: ENDBRANCH   6  32
DOCKED: BRANCH  22  38
DOCKED: ATOM     38  C   UNL d   1      -7.330   7.318  -8.510 -0.23 +0.01    +0.052 C 
DOCKED: BRANCH  38  39
DOCKED: ATOM     39  C   UNL d   1      -8.094   6.019  -8.760 -0.20 +0.04    +0.115 C 
DOCKED: BRANCH  39  40
DOCKED: ATOM     40  C   UNL d   1      -9.354   5.924  -7.938 -0.19 +0.11    +0.139 C 
DOCKED: ATOM     41  O   UNL d   1      -9.326   5.381  -6.845 -0.56 -1.01    -0.650 OA
DOCKED: BRANCH  40  42
DOCKED: ATOM     42  O   UNL d   1     -10.507   6.476  -8.365 +0.01 -0.57    -0.776 OA
DOCKED: ATOM     43  H   UNL d   1     -11.071   6.988  -7.774 +0.03 +0.13    +0.167 HD
DOCKED: ENDBRANCH  40  42
DOCKED: ENDBRANCH  39  40
DOCKED: ENDBRANCH  38  39
DOCKED: ENDBRANCH  22  38
DOCKED: BRANCH  12  44
DOCKED: ATOM     44  C   UNL d   1     -13.619  16.761  -8.689 -0.08 +0.00    +0.004 C 
DOCKED: ATOM     45  C   UNL d   1     -13.033  17.820  -9.247 -0.08 +0.01    +0.012 C 
DOCKED: ENDBRANCH  12  44
DOCKED: BRANCH  17  46
DOCKED: ATOM     46  C   UNL d   1      -9.745  12.170 -14.252 -0.06 +0.00    +0.004 C 
DOCKED: ATOM     47  C   UNL d   1      -8.493  12.121 -14.723 -0.07 -0.00    +0.012 C 
DOCKED: ENDBRANCH  17  46
DOCKED: TORSDOF 10
DOCKED: TER
DOCKED: ENDMDL
________________________________________________________________________________


	BEGINNING GENETIC ALGORITHM DOCKING 28 of 100
Run: 28 Seed: 2045108642 2047040732 [ Run 28 of 100 GA/GALS ]
Beginning LAMARCKIAN GENETIC ALGORITHM (LGA), with a maximum of 25000000 energy evaluations.

Final-Value: -10.558


	FINAL GENETIC ALGORITHM DOCKED STATE
	_______________________________________________


Detailed state:  trans -7.579 10.276 -11.983 quatxyzw -0.057123 0.323437 -0.126875 -0.935964 center 8.287 34.468 -0.670 ntor 10 -83.8133 4.6575 141.8774 -85.5819 169.7605 -42.1015 91.0225 156.5502 -121.3718 7.2683
State:	 -7.579  10.276 -11.983  -0.162  0.919 -0.360 -41.231    -83.81    4.66  141.88  -85.58  169.76  -42.10   91.02  156.55 -121.37    7.27

DOCKED: MODEL       28
DOCKED: USER    Run = 28
DOCKED: USER    DPF = D:/Protein_go_brrr/autodock/final/mut_K82N/heme_O2/dock.dpf
DOCKED: USER  
DOCKED: USER    Estimated Free Energy of Binding    =   -6.90 kcal/mol  [=(1)+(2)+(3)-(4)]
DOCKED: USER    Estimated Inhibition Constant, Ki   =    8.76 uM (micromolar)  [Temperature = 298.15 K]
DOCKED: USER    
DOCKED: USER    (1) Final Intermolecular Energy     =   -9.88 kcal/mol
DOCKED: USER        vdW + Hbond + desolv Energy     =   -8.81 kcal/mol
DOCKED: USER        Electrostatic Energy            =   -1.07 kcal/mol
DOCKED: USER    (2) Final Total Internal Energy     =   -0.68 kcal/mol
DOCKED: USER    (3) Torsional Free Energy           =   +2.98 kcal/mol
DOCKED: USER    (4) Unbound System's Energy  [=(2)] =   -0.68 kcal/mol
DOCKED: USER    
DOCKED: USER    
DOCKED: USER    NEWDPF move heme_O2_opt.pdbqt
DOCKED: USER    NEWDPF about 8.287000 34.468000 -0.670000
DOCKED: USER    NEWDPF tran0 -7.578733 10.275736 -11.982987
DOCKED: USER    NEWDPF quaternion0 -0.057123 0.323437 -0.126875 -0.935964
DOCKED: USER    NEWDPF axisangle0 -0.162237 0.918603 -0.360343 -41.231163
DOCKED: USER    NEWDPF quat0 -0.162237 0.918603 -0.360343 -41.231163
DOCKED: USER    NEWDPF dihe0 -83.81 4.66 141.88 -85.58 169.76 -42.10 91.02 156.55 -121.37 7.27 
DOCKED: USER  keepresnum = 1 
DOCKED: USER  
DOCKED: REMARK  10 active torsions:
DOCKED: REMARK  status: ('A' for Active; 'I' for Inactive)
DOCKED: REMARK    1  A    between atoms: C_6  and  C_10 
DOCKED: REMARK    2  A    between atoms: C_10  and  C_11 
DOCKED: REMARK    3  A    between atoms: C_11  and  C_12 
DOCKED: REMARK    4  A    between atoms: C_12  and  O_14 
DOCKED: REMARK    5  A    between atoms: C_17  and  C_20 
DOCKED: REMARK    6  A    between atoms: C_24  and  C_27 
DOCKED: REMARK    7  A    between atoms: C_31  and  C_34 
DOCKED: REMARK    8  A    between atoms: C_34  and  C_35 
DOCKED: REMARK    9  A    between atoms: C_35  and  C_36 
DOCKED: REMARK   10  A    between atoms: C_36  and  O_38 
DOCKED: USER                              x       y       z     vdW  Elec       q    Type
DOCKED: USER                           _______ _______ _______ _____ _____    ______ ____
DOCKED: ROOT
DOCKED: ATOM      1  C   UNL d   1      -9.373  11.348 -11.619 +0.04 +0.02    +0.064 A 
DOCKED: ATOM      2  C   UNL d   1      -6.730   8.496  -8.891 -0.32 +0.00    +0.064 A 
DOCKED: ATOM      3  C   UNL d   1      -3.660   7.728 -12.507 -0.34 -0.01    +0.064 C 
DOCKED: ATOM      4  C   UNL d   1      -6.106  11.037 -15.179 -0.07 -0.01    +0.064 A 
DOCKED: ATOM      5  C   UNL d   1      -8.903  10.636 -10.581 -0.06 +0.02    +0.066 A 
DOCKED: ATOM      6  C   UNL d   1      -9.527  10.569  -9.332 -0.16 -0.00    -0.021 A 
DOCKED: ATOM      7  C   UNL d   1      -8.740   9.778  -8.528 -0.21 -0.00    -0.025 A 
DOCKED: ATOM      8  C   UNL d   1      -7.682   9.345  -9.323 -0.23 +0.01    +0.066 A 
DOCKED: ATOM      9  C   UNL d   1      -9.004   9.498  -7.065 -0.27 +0.01    +0.051 C 
DOCKED: ATOM     10  C   UNL d   1      -5.609   7.989  -9.684 -0.35 -0.00    +0.066 A 
DOCKED: ATOM     11  C   UNL d   1      -4.744   6.983  -9.238 -0.44 +0.00    -0.021 A 
DOCKED: ATOM     12  C   UNL d   1      -3.862   6.735 -10.274 -0.50 -0.00    +0.000 A 
DOCKED: ATOM     13  C   UNL d   1      -4.241   7.632 -11.312 -0.25 -0.01    +0.070 A 
DOCKED: ATOM     14  C   UNL d   1      -4.774   6.270  -7.891 -0.03 +0.00    +0.052 C 
DOCKED: ATOM     15  C   UNL d   1      -3.990   8.646 -13.571 -0.34 -0.02    +0.066 A 
DOCKED: ATOM     16  C   UNL d   1      -3.240   8.810 -14.735 -0.38 +0.01    -0.021 A 
DOCKED: ATOM     17  C   UNL d   1      -3.918   9.749 -15.512 -0.20 -0.00    +0.000 A 
DOCKED: ATOM     18  C   UNL d   1      -5.047  10.091 -14.754 -0.14 -0.02    +0.070 A 
DOCKED: ATOM     19  C   UNL d   1      -1.929   8.104 -14.975 -0.22 -0.02    +0.052 C 
DOCKED: ATOM     20  C   UNL d   1      -7.178  11.420 -14.459 -0.08 -0.01    +0.066 A 
DOCKED: ATOM     21  C   UNL d   1      -8.152  12.301 -14.919 -0.06 +0.00    -0.025 A 
DOCKED: ATOM     22  C   UNL d   1      -9.105  12.381 -13.929 -0.07 -0.00    -0.021 A 
DOCKED: ATOM     23  C   UNL d   1      -8.667  11.555 -12.889 -0.08 +0.01    +0.066 A 
DOCKED: ATOM     24  C   UNL d   1      -8.171  13.034 -16.236 -0.03 -0.01    +0.051 C 
DOCKED: ATOM     25  N   UNL d   1      -7.748   9.927 -10.568 -0.12 -0.02    -0.248 N 
DOCKED: ATOM     26  N   UNL d   1      -5.302   8.394 -10.942 -0.07 +0.06    -0.248 N 
DOCKED: ATOM     27  N   UNL d   1      -5.035   9.469 -13.548 -0.15 +0.05    -0.248 N 
DOCKED: ATOM     28  N   UNL d   1      -7.472  11.008 -13.197 -0.08 -0.00    -0.248 N 
DOCKED: ATOM     29 FE   UNL d   1      -6.393   9.711 -12.080 -0.05 -0.00    +0.000 Fe
DOCKED: ATOM     30  O   UNL d   1      -5.856  10.524 -10.866 -0.44 -0.00    +0.000 OA
DOCKED: ATOM     31  O   UNL d   1      -5.495  10.977 -12.331 -0.41 -0.00    +0.000 OA
DOCKED: ENDROOT
DOCKED: BRANCH   6  32
DOCKED: ATOM     32  C   UNL d   1     -10.743  11.327  -8.866 -0.14 +0.01    +0.052 C 
DOCKED: BRANCH  32  33
DOCKED: ATOM     33  C   UNL d   1     -10.788  12.758  -9.395 -0.16 +0.04    +0.115 C 
DOCKED: BRANCH  33  34
DOCKED: ATOM     34  C   UNL d   1     -10.127  13.738  -8.458 -0.30 +0.08    +0.139 C 
DOCKED: ATOM     35  O   UNL d   1      -9.350  13.331  -7.608 -0.12 -0.31    -0.650 OA
DOCKED: BRANCH  34  36
DOCKED: ATOM     36  O   UNL d   1     -10.396  15.059  -8.517 -0.36 -1.19    -0.776 OA
DOCKED: ATOM     37  H   UNL d   1      -9.950  15.643  -9.141 -0.42 +0.27    +0.167 HD
DOCKED: ENDBRANCH  34  36
DOCKED: ENDBRANCH  33  34
DOCKED: ENDBRANCH  32  33
DOCKED: ENDBRANCH   6  32
DOCKED: BRANCH  22  38
DOCKED: ATOM     38  C   UNL d   1     -10.334  13.253 -13.959 -0.06 +0.01    +0.052 C 
DOCKED: BRANCH  38  39
DOCKED: ATOM     39  C   UNL d   1     -11.618  12.444 -14.129 -0.01 +0.01    +0.115 C 
DOCKED: BRANCH  39  40
DOCKED: ATOM     40  C   UNL d   1     -11.377  11.115 -14.800 -0.00 +0.01    +0.139 C 
DOCKED: ATOM     41  O   UNL d   1     -11.350  10.094 -14.131 +0.01 -0.04    -0.650 OA
DOCKED: BRANCH  40  42
DOCKED: ATOM     42  O   UNL d   1     -11.241  11.025 -16.137 +0.01 -0.01    -0.776 OA
DOCKED: ATOM     43  H   UNL d   1     -11.188  11.811 -16.693 +0.00 -0.00    +0.167 HD
DOCKED: ENDBRANCH  40  42
DOCKED: ENDBRANCH  39  40
DOCKED: ENDBRANCH  38  39
DOCKED: ENDBRANCH  22  38
DOCKED: BRANCH  12  44
DOCKED: ATOM     44  C   UNL d   1      -2.770   5.692 -10.168 -0.31 +0.00    +0.004 C 
DOCKED: ATOM     45  C   UNL d   1      -1.969   5.448  -9.131 -0.54 +0.00    +0.012 C 
DOCKED: ENDBRANCH  12  44
DOCKED: BRANCH  17  46
DOCKED: ATOM     46  C   UNL d   1      -3.569  10.372 -16.837 -0.13 -0.00    +0.004 C 
DOCKED: ATOM     47  C   UNL d   1      -2.906  11.512 -17.068 -0.16 -0.01    +0.012 C 
DOCKED: ENDBRANCH  17  46
DOCKED: TORSDOF 10
DOCKED: TER
DOCKED: ENDMDL
________________________________________________________________________________


	BEGINNING GENETIC ALGORITHM DOCKING 29 of 100
Run: 29 Seed: 778505067 1308035465 [ Run 29 of 100 GA/GALS ]
Beginning LAMARCKIAN GENETIC ALGORITHM (LGA), with a maximum of 25000000 energy evaluations.

Final-Value: -11.624


	FINAL GENETIC ALGORITHM DOCKED STATE
	_______________________________________________


Detailed state:  trans -7.795 10.457 -12.253 quatxyzw 0.140569 0.561299 0.167498 -0.798203 center 8.287 34.468 -0.670 ntor 10 33.5201 -72.5463 78.3655 -101.9831 -133.2595 -178.7148 -35.0140 99.0589 10.2029 -145.2956
State:	 -7.795  10.457 -12.253   0.233  0.932  0.278 -74.082     33.52  -72.55   78.37 -101.98 -133.26 -178.71  -35.01   99.06   10.20 -145.30

DOCKED: MODEL       29
DOCKED: USER    Run = 29
DOCKED: USER    DPF = D:/Protein_go_brrr/autodock/final/mut_K82N/heme_O2/dock.dpf
DOCKED: USER  
DOCKED: USER    Estimated Free Energy of Binding    =   -8.11 kcal/mol  [=(1)+(2)+(3)-(4)]
DOCKED: USER    Estimated Inhibition Constant, Ki   =    1.14 uM (micromolar)  [Temperature = 298.15 K]
DOCKED: USER    
DOCKED: USER    (1) Final Intermolecular Energy     =  -11.09 kcal/mol
DOCKED: USER        vdW + Hbond + desolv Energy     =   -8.27 kcal/mol
DOCKED: USER        Electrostatic Energy            =   -2.82 kcal/mol
DOCKED: USER    (2) Final Total Internal Energy     =   -0.53 kcal/mol
DOCKED: USER    (3) Torsional Free Energy           =   +2.98 kcal/mol
DOCKED: USER    (4) Unbound System's Energy  [=(2)] =   -0.53 kcal/mol
DOCKED: USER    
DOCKED: USER    
DOCKED: USER    NEWDPF move heme_O2_opt.pdbqt
DOCKED: USER    NEWDPF about 8.287000 34.468000 -0.670000
DOCKED: USER    NEWDPF tran0 -7.794614 10.457493 -12.253364
DOCKED: USER    NEWDPF quaternion0 0.140569 0.561299 0.167498 -0.798203
DOCKED: USER    NEWDPF axisangle0 0.233352 0.931789 0.278056 -74.082332
DOCKED: USER    NEWDPF quat0 0.233352 0.931789 0.278056 -74.082332
DOCKED: USER    NEWDPF dihe0 33.52 -72.55 78.37 -101.98 -133.26 -178.71 -35.01 99.06 10.20 -145.30 
DOCKED: USER  keepresnum = 1 
DOCKED: USER  
DOCKED: REMARK  10 active torsions:
DOCKED: REMARK  status: ('A' for Active; 'I' for Inactive)
DOCKED: REMARK    1  A    between atoms: C_6  and  C_10 
DOCKED: REMARK    2  A    between atoms: C_10  and  C_11 
DOCKED: REMARK    3  A    between atoms: C_11  and  C_12 
DOCKED: REMARK    4  A    between atoms: C_12  and  O_14 
DOCKED: REMARK    5  A    between atoms: C_17  and  C_20 
DOCKED: REMARK    6  A    between atoms: C_24  and  C_27 
DOCKED: REMARK    7  A    between atoms: C_31  and  C_34 
DOCKED: REMARK    8  A    between atoms: C_34  and  C_35 
DOCKED: REMARK    9  A    between atoms: C_35  and  C_36 
DOCKED: REMARK   10  A    between atoms: C_36  and  O_38 
DOCKED: USER                              x       y       z     vdW  Elec       q    Type
DOCKED: USER                           _______ _______ _______ _____ _____    ______ ____
DOCKED: ROOT
DOCKED: ATOM      1  C   UNL d   1      -9.202  10.236 -10.682 -0.10 +0.01    +0.064 A 
DOCKED: ATOM      2  C   UNL d   1      -5.038   8.134 -11.579 -0.17 -0.01    +0.064 A 
DOCKED: ATOM      3  C   UNL d   1      -4.530  10.665 -15.633 -0.14 -0.02    +0.064 C 
DOCKED: ATOM      4  C   UNL d   1      -8.580  13.179 -14.475 -0.07 +0.00    +0.064 A 
DOCKED: ATOM      5  C   UNL d   1      -8.110   9.459 -10.594 -0.14 +0.01    +0.066 A 
DOCKED: ATOM      6  C   UNL d   1      -7.880   8.545  -9.562 -0.19 -0.00    -0.021 A 
DOCKED: ATOM      7  C   UNL d   1      -6.655   7.967  -9.798 -0.28 -0.00    -0.025 A 
DOCKED: ATOM      8  C   UNL d   1      -6.192   8.509 -10.993 -0.24 -0.01    +0.066 A 
DOCKED: ATOM      9  C   UNL d   1      -5.978   6.970  -8.883 -0.34 +0.00    +0.051 C 
DOCKED: ATOM     10  C   UNL d   1      -4.512   8.650 -12.844 -0.17 -0.02    +0.066 A 
DOCKED: ATOM     11  C   UNL d   1      -3.394   8.110 -13.489 -0.46 +0.00    -0.021 A 
DOCKED: ATOM     12  C   UNL d   1      -3.241   8.815 -14.669 -0.40 -0.00    +0.000 A 
DOCKED: ATOM     13  C   UNL d   1      -4.292   9.774 -14.671 -0.22 -0.02    +0.070 A 
DOCKED: ATOM     14  C   UNL d   1      -2.523   6.953 -13.013 -0.29 -0.01    +0.052 C 
DOCKED: ATOM     15  C   UNL d   1      -5.560  11.675 -15.656 -0.08 -0.02    +0.066 A 
DOCKED: ATOM     16  C   UNL d   1      -5.656  12.684 -16.614 -0.08 +0.01    -0.021 A 
DOCKED: ATOM     17  C   UNL d   1      -6.804  13.414 -16.304 -0.06 -0.00    +0.000 A 
DOCKED: ATOM     18  C   UNL d   1      -7.329  12.786 -15.166 -0.08 -0.01    +0.070 A 
DOCKED: ATOM     19  C   UNL d   1      -4.626  12.893 -17.695 -0.08 -0.03    +0.052 C 
DOCKED: ATOM     20  C   UNL d   1      -9.090  12.626 -13.357 +0.03 +0.01    +0.066 A 
DOCKED: ATOM     21  C   UNL d   1     -10.283  13.027 -12.762 +0.01 -0.01    -0.025 A 
DOCKED: ATOM     22  C   UNL d   1     -10.489  12.182 -11.695 -0.05 -0.01    -0.021 A 
DOCKED: ATOM     23  C   UNL d   1      -9.401  11.304 -11.668 +0.02 +0.02    +0.066 A 
DOCKED: ATOM     24  C   UNL d   1     -11.178  14.162 -13.188 -0.06 +0.01    +0.051 C 
DOCKED: ATOM     25  N   UNL d   1      -7.058   9.476 -11.449 -0.11 +0.01    -0.248 N 
DOCKED: ATOM     26  N   UNL d   1      -5.057   9.670 -13.555 -0.14 +0.06    -0.248 N 
DOCKED: ATOM     27  N   UNL d   1      -6.521  11.781 -14.743 -0.05 +0.04    -0.248 N 
DOCKED: ATOM     28  N   UNL d   1      -8.531  11.607 -12.653 -0.04 -0.04    -0.248 N 
DOCKED: ATOM     29 FE   UNL d   1      -6.806  10.647 -13.103 -0.04 -0.00    +0.000 Fe
DOCKED: ATOM     30  O   UNL d   1      -5.815  10.970 -11.947 -0.43 -0.00    +0.000 OA
DOCKED: ATOM     31  O   UNL d   1      -6.444  12.145 -12.787 -0.41 -0.00    +0.000 OA
DOCKED: ENDROOT
DOCKED: BRANCH   6  32
DOCKED: ATOM     32  C   UNL d   1      -8.713   8.320  -8.326 -0.21 +0.01    +0.052 C 
DOCKED: BRANCH  32  33
DOCKED: ATOM     33  C   UNL d   1      -9.728   7.194  -8.494 -0.12 +0.05    +0.115 C 
DOCKED: BRANCH  33  34
DOCKED: ATOM     34  C   UNL d   1      -9.897   6.379  -7.235 -0.15 +0.15    +0.139 C 
DOCKED: ATOM     35  O   UNL d   1     -10.539   6.835  -6.303 -0.21 -0.77    -0.650 OA
DOCKED: BRANCH  34  36
DOCKED: ATOM     36  O   UNL d   1      -9.327   5.163  -7.103 -0.53 -1.20    -0.776 OA
DOCKED: ATOM     37  H   UNL d   1      -8.475   4.952  -7.502 +0.06 +0.13    +0.167 HD
DOCKED: ENDBRANCH  34  36
DOCKED: ENDBRANCH  33  34
DOCKED: ENDBRANCH  32  33
DOCKED: ENDBRANCH   6  32
DOCKED: BRANCH  22  38
DOCKED: ATOM     38  C   UNL d   1     -11.637  12.260 -10.722 -0.07 +0.01    +0.052 C 
DOCKED: BRANCH  38  39
DOCKED: ATOM     39  C   UNL d   1     -11.933  13.693 -10.286 -0.09 +0.04    +0.115 C 
DOCKED: BRANCH  39  40
DOCKED: ATOM     40  C   UNL d   1     -11.020  14.159  -9.180 -0.23 +0.09    +0.139 C 
DOCKED: ATOM     41  O   UNL d   1     -10.635  13.365  -8.337 -0.08 -0.34    -0.650 OA
DOCKED: BRANCH  40  42
DOCKED: ATOM     42  O   UNL d   1     -10.576  15.431  -9.133 -0.37 -1.13    -0.776 OA
DOCKED: ATOM     43  H   UNL d   1      -9.941  15.768  -9.776 -0.47 +0.17    +0.167 HD
DOCKED: ENDBRANCH  40  42
DOCKED: ENDBRANCH  39  40
DOCKED: ENDBRANCH  38  39
DOCKED: ENDBRANCH  22  38
DOCKED: BRANCH  12  44
DOCKED: ATOM     44  C   UNL d   1      -2.130   8.508 -15.651 -0.41 -0.00    +0.004 C 
DOCKED: ATOM     45  C   UNL d   1      -1.025   9.215 -15.883 -0.40 -0.00    +0.012 C 
DOCKED: ENDBRANCH  12  44
DOCKED: BRANCH  17  46
DOCKED: ATOM     46  C   UNL d   1      -7.391  14.648 -16.936 -0.05 -0.00    +0.004 C 
DOCKED: ATOM     47  C   UNL d   1      -7.435  15.892 -16.442 -0.06 -0.00    +0.012 C 
DOCKED: ENDBRANCH  17  46
DOCKED: TORSDOF 10
DOCKED: TER
DOCKED: ENDMDL
________________________________________________________________________________


	BEGINNING GENETIC ALGORITHM DOCKING 30 of 100
Run: 30 Seed: 1846368784 880680996 [ Run 30 of 100 GA/GALS ]
Beginning LAMARCKIAN GENETIC ALGORITHM (LGA), with a maximum of 25000000 energy evaluations.

Final-Value: -10.862


	FINAL GENETIC ALGORITHM DOCKED STATE
	_______________________________________________


Detailed state:  trans -12.212 10.489 -1.274 quatxyzw 0.229839 0.407536 -0.566196 0.678609 center 8.287 34.468 -0.670 ntor 10 -136.2670 -27.9621 -48.4891 -120.3315 40.5903 -97.0736 -80.9275 63.4029 -180.0000 104.5886
State:	-12.212  10.489  -1.274   0.313  0.555 -0.771 94.530   -136.27  -27.96  -48.49 -120.33   40.59  -97.07  -80.93   63.40 -180.00  104.59

DOCKED: MODEL       30
DOCKED: USER    Run = 30
DOCKED: USER    DPF = D:/Protein_go_brrr/autodock/final/mut_K82N/heme_O2/dock.dpf
DOCKED: USER  
DOCKED: USER    Estimated Free Energy of Binding    =   -6.34 kcal/mol  [=(1)+(2)+(3)-(4)]
DOCKED: USER    Estimated Inhibition Constant, Ki   =   22.43 uM (micromolar)  [Temperature = 298.15 K]
DOCKED: USER    
DOCKED: USER    (1) Final Intermolecular Energy     =   -9.33 kcal/mol
DOCKED: USER        vdW + Hbond + desolv Energy     =   -7.11 kcal/mol
DOCKED: USER        Electrostatic Energy            =   -2.21 kcal/mol
DOCKED: USER    (2) Final Total Internal Energy     =   -1.54 kcal/mol
DOCKED: USER    (3) Torsional Free Energy           =   +2.98 kcal/mol
DOCKED: USER    (4) Unbound System's Energy  [=(2)] =   -1.54 kcal/mol
DOCKED: USER    
DOCKED: USER    
DOCKED: USER    NEWDPF move heme_O2_opt.pdbqt
DOCKED: USER    NEWDPF about 8.287000 34.468000 -0.670000
DOCKED: USER    NEWDPF tran0 -12.211685 10.489163 -1.273782
DOCKED: USER    NEWDPF quaternion0 0.229839 0.407536 -0.566196 0.678609
DOCKED: USER    NEWDPF axisangle0 0.312920 0.554848 -0.770860 94.529867
DOCKED: USER    NEWDPF quat0 0.312920 0.554848 -0.770860 94.529867
DOCKED: USER    NEWDPF dihe0 -136.27 -27.96 -48.49 -120.33 40.59 -97.07 -80.93 63.40 -180.00 104.59 
DOCKED: USER  keepresnum = 1 
DOCKED: USER  
DOCKED: REMARK  10 active torsions:
DOCKED: REMARK  status: ('A' for Active; 'I' for Inactive)
DOCKED: REMARK    1  A    between atoms: C_6  and  C_10 
DOCKED: REMARK    2  A    between atoms: C_10  and  C_11 
DOCKED: REMARK    3  A    between atoms: C_11  and  C_12 
DOCKED: REMARK    4  A    between atoms: C_12  and  O_14 
DOCKED: REMARK    5  A    between atoms: C_17  and  C_20 
DOCKED: REMARK    6  A    between atoms: C_24  and  C_27 
DOCKED: REMARK    7  A    between atoms: C_31  and  C_34 
DOCKED: REMARK    8  A    between atoms: C_34  and  C_35 
DOCKED: REMARK    9  A    between atoms: C_35  and  C_36 
DOCKED: REMARK   10  A    between atoms: C_36  and  O_38 
DOCKED: USER                              x       y       z     vdW  Elec       q    Type
DOCKED: USER                           _______ _______ _______ _____ _____    ______ ____
DOCKED: ROOT
DOCKED: ATOM      1  C   UNL d   1     -11.961   8.974  -2.737 -0.21 +0.02    +0.064 A 
DOCKED: ATOM      2  C   UNL d   1     -13.360   8.852   1.800 -0.17 +0.01    +0.064 A 
DOCKED: ATOM      3  C   UNL d   1     -12.787  13.607   2.201 -0.16 +0.01    +0.064 C 
DOCKED: ATOM      4  C   UNL d   1     -11.805  13.811  -2.601 -0.25 +0.02    +0.064 A 
DOCKED: ATOM      5  C   UNL d   1     -12.390   8.553  -1.536 -0.20 +0.01    +0.066 A 
DOCKED: ATOM      6  C   UNL d   1     -12.655   7.217  -1.224 -0.24 -0.01    -0.021 A 
DOCKED: ATOM      7  C   UNL d   1     -13.101   7.185   0.077 -0.21 -0.00    -0.025 A 
DOCKED: ATOM      8  C   UNL d   1     -13.051   8.498   0.538 -0.18 +0.01    +0.066 A 
DOCKED: ATOM      9  C   UNL d   1     -13.574   5.943   0.800 -0.19 +0.01    +0.051 C 
DOCKED: ATOM     10  C   UNL d   1     -13.304  10.208   2.349 -0.12 +0.01    +0.066 A 
DOCKED: ATOM     11  C   UNL d   1     -13.477  10.497   3.707 -0.11 -0.00    -0.021 A 
DOCKED: ATOM     12  C   UNL d   1     -13.298  11.861   3.845 -0.08 +0.00    +0.000 A 
DOCKED: ATOM     13  C   UNL d   1     -13.032  12.339   2.532 -0.10 +0.01    +0.070 A 
DOCKED: ATOM     14  C   UNL d   1     -13.773   9.509   4.829 -0.12 +0.03    +0.052 C 
DOCKED: ATOM     15  C   UNL d   1     -12.548  14.137   0.880 -0.20 +0.01    +0.066 A 
DOCKED: ATOM     16  C   UNL d   1     -12.461  15.495   0.577 -0.20 -0.00    -0.021 A 
DOCKED: ATOM     17  C   UNL d   1     -12.183  15.578  -0.787 -0.27 +0.00    +0.000 A 
DOCKED: ATOM     18  C   UNL d   1     -12.117  14.246  -1.219 -0.27 +0.01    +0.070 A 
DOCKED: ATOM     19  C   UNL d   1     -12.705  16.582   1.594 -0.05 +0.01    +0.052 C 
DOCKED: ATOM     20  C   UNL d   1     -11.776  12.544  -3.059 -0.24 +0.02    +0.066 A 
DOCKED: ATOM     21  C   UNL d   1     -11.458  12.195  -4.368 -0.24 -0.01    -0.025 A 
DOCKED: ATOM     22  C   UNL d   1     -11.471  10.819  -4.418 -0.19 -0.01    -0.021 A 
DOCKED: ATOM     23  C   UNL d   1     -11.816  10.378  -3.137 -0.19 +0.02    +0.066 A 
DOCKED: ATOM     24  C   UNL d   1     -11.160  13.126  -5.514 -0.24 +0.02    +0.051 C 
DOCKED: ATOM     25  N   UNL d   1     -12.675   9.348  -0.476 +0.02 -0.05    -0.248 N 
DOCKED: ATOM     26  N   UNL d   1     -13.042  11.328   1.627 -0.02 -0.04    -0.248 N 
DOCKED: ATOM     27  N   UNL d   1     -12.415  13.387  -0.211 -0.09 -0.03    -0.248 N 
DOCKED: ATOM     28  N   UNL d   1     -12.045  11.431  -2.326 -0.05 -0.05    -0.248 N 
DOCKED: ATOM     29 FE   UNL d   1     -12.540  11.383  -0.364 -0.04 +0.00    +0.000 Fe
DOCKED: ATOM     30  O   UNL d   1     -13.999  10.845  -0.296 -0.11 +0.00    +0.000 OA
DOCKED: ATOM     31  O   UNL d   1     -13.685  12.151  -1.120 -0.11 +0.00    +0.000 OA
DOCKED: ENDROOT
DOCKED: BRANCH   6  32
DOCKED: ATOM     32  C   UNL d   1     -12.623   6.028  -2.150 +0.06 +0.03    +0.052 C 
DOCKED: BRANCH  32  33
DOCKED: ATOM     33  C   UNL d   1     -13.999   5.672  -2.704 -0.12 +0.06    +0.115 C 
DOCKED: BRANCH  33  34
DOCKED: ATOM     34  C   UNL d   1     -14.236   6.257  -4.075 -0.09 +0.08    +0.139 C 
DOCKED: ATOM     35  O   UNL d   1     -15.046   7.158  -4.214 +0.01 -0.22    -0.650 OA
DOCKED: BRANCH  34  36
DOCKED: ATOM     36  O   UNL d   1     -13.590   5.785  -5.161 -0.53 -1.06    -0.776 OA
DOCKED: ATOM     37  H   UNL d   1     -13.207   6.373  -5.823 +0.01 +0.21    +0.167 HD
DOCKED: ENDBRANCH  34  36
DOCKED: ENDBRANCH  33  34
DOCKED: ENDBRANCH  32  33
DOCKED: ENDBRANCH   6  32
DOCKED: BRANCH  22  38
DOCKED: ATOM     38  C   UNL d   1     -11.227   9.983  -5.648 -0.16 +0.02    +0.052 C 
DOCKED: BRANCH  38  39
DOCKED: ATOM     39  C   UNL d   1     -11.915   8.621  -5.571 -0.10 +0.05    +0.115 C 
DOCKED: BRANCH  39  40
DOCKED: ATOM     40  C   UNL d   1     -10.933   7.477  -5.603 -0.20 +0.12    +0.139 C 
DOCKED: ATOM     41  O   UNL d   1      -9.949   7.502  -4.882 -0.53 -0.55    -0.650 OA
DOCKED: BRANCH  40  42
DOCKED: ATOM     42  O   UNL d   1     -11.148   6.397  -6.379 -0.05 -1.30    -0.776 OA
DOCKED: ATOM     43  H   UNL d   1     -12.037   6.137  -6.647 +0.02 +0.32    +0.167 HD
DOCKED: ENDBRANCH  40  42
DOCKED: ENDBRANCH  39  40
DOCKED: ENDBRANCH  38  39
DOCKED: ENDBRANCH  22  38
DOCKED: BRANCH  12  44
DOCKED: ATOM     44  C   UNL d   1     -13.400  12.553   5.188 -0.05 +0.00    +0.004 C 
DOCKED: ATOM     45  C   UNL d   1     -12.512  13.363   5.762 -0.05 +0.00    +0.012 C 
DOCKED: ENDBRANCH  12  44
DOCKED: BRANCH  17  46
DOCKED: ATOM     46  C   UNL d   1     -12.036  16.770  -1.695 -0.30 +0.00    +0.004 C 
DOCKED: ATOM     47  C   UNL d   1     -12.664  17.011  -2.853 -0.20 +0.00    +0.012 C 
DOCKED: ENDBRANCH  17  46
DOCKED: TORSDOF 10
DOCKED: TER
DOCKED: ENDMDL
________________________________________________________________________________


	BEGINNING GENETIC ALGORITHM DOCKING 31 of 100
Run: 31 Seed: 1594650637 1913086109 [ Run 31 of 100 GA/GALS ]
Beginning LAMARCKIAN GENETIC ALGORITHM (LGA), with a maximum of 25000000 energy evaluations.

Final-Value: -10.112


	FINAL GENETIC ALGORITHM DOCKED STATE
	_______________________________________________


Detailed state:  trans -13.339 4.333 -2.287 quatxyzw 0.485918 -0.583367 0.019760 -0.650520 center 8.287 34.468 -0.670 ntor 10 139.0271 138.9132 -73.6903 53.4769 -133.5441 -46.8295 115.0280 -87.8206 17.1135 -17.7194
State:	-13.339   4.333  -2.287   0.640 -0.768  0.026 -98.838    139.03  138.91  -73.69   53.48 -133.54  -46.83  115.03  -87.82   17.11  -17.72

DOCKED: MODEL       31
DOCKED: USER    Run = 31
DOCKED: USER    DPF = D:/Protein_go_brrr/autodock/final/mut_K82N/heme_O2/dock.dpf
DOCKED: USER  
DOCKED: USER    Estimated Free Energy of Binding    =   -4.59 kcal/mol  [=(1)+(2)+(3)-(4)]
DOCKED: USER    Estimated Inhibition Constant, Ki   =  435.01 uM (micromolar)  [Temperature = 298.15 K]
DOCKED: USER    
DOCKED: USER    (1) Final Intermolecular Energy     =   -7.57 kcal/mol
DOCKED: USER        vdW + Hbond + desolv Energy     =   -5.84 kcal/mol
DOCKED: USER        Electrostatic Energy            =   -1.73 kcal/mol
DOCKED: USER    (2) Final Total Internal Energy     =   -2.54 kcal/mol
DOCKED: USER    (3) Torsional Free Energy           =   +2.98 kcal/mol
DOCKED: USER    (4) Unbound System's Energy  [=(2)] =   -2.54 kcal/mol
DOCKED: USER    
DOCKED: USER    
DOCKED: USER    NEWDPF move heme_O2_opt.pdbqt
DOCKED: USER    NEWDPF about 8.287000 34.468000 -0.670000
DOCKED: USER    NEWDPF tran0 -13.338707 4.332775 -2.286699
DOCKED: USER    NEWDPF quaternion0 0.485918 -0.583367 0.019760 -0.650520
DOCKED: USER    NEWDPF axisangle0 0.639796 -0.768105 0.026017 -98.838295
DOCKED: USER    NEWDPF quat0 0.639796 -0.768105 0.026017 -98.838295
DOCKED: USER    NEWDPF dihe0 139.03 138.91 -73.69 53.48 -133.54 -46.83 115.03 -87.82 17.11 -17.72 
DOCKED: USER  keepresnum = 1 
DOCKED: USER  
DOCKED: REMARK  10 active torsions:
DOCKED: REMARK  status: ('A' for Active; 'I' for Inactive)
DOCKED: REMARK    1  A    between atoms: C_6  and  C_10 
DOCKED: REMARK    2  A    between atoms: C_10  and  C_11 
DOCKED: REMARK    3  A    between atoms: C_11  and  C_12 
DOCKED: REMARK    4  A    between atoms: C_12  and  O_14 
DOCKED: REMARK    5  A    between atoms: C_17  and  C_20 
DOCKED: REMARK    6  A    between atoms: C_24  and  C_27 
DOCKED: REMARK    7  A    between atoms: C_31  and  C_34 
DOCKED: REMARK    8  A    between atoms: C_34  and  C_35 
DOCKED: REMARK    9  A    between atoms: C_35  and  C_36 
DOCKED: REMARK   10  A    between atoms: C_36  and  O_38 
DOCKED: USER                              x       y       z     vdW  Elec       q    Type
DOCKED: USER                           _______ _______ _______ _____ _____    ______ ____
DOCKED: ROOT
DOCKED: ATOM      1  C   UNL d   1     -13.699   6.186  -3.253 -0.12 +0.04    +0.064 A 
DOCKED: ATOM      2  C   UNL d   1     -14.451   1.684  -4.566 -0.08 +0.03    +0.064 A 
DOCKED: ATOM      3  C   UNL d   1     -12.589   0.072  -0.440 -0.16 -0.01    +0.064 C 
DOCKED: ATOM      4  C   UNL d   1     -12.250   4.710   1.124 -0.27 +0.01    +0.064 A 
DOCKED: ATOM      5  C   UNL d   1     -14.057   5.093  -3.946 -0.05 +0.06    +0.066 A 
DOCKED: ATOM      6  C   UNL d   1     -14.622   5.127  -5.224 -0.06 -0.02    -0.021 A 
DOCKED: ATOM      7  C   UNL d   1     -14.880   3.826  -5.588 -0.07 -0.02    -0.025 A 
DOCKED: ATOM      8  C   UNL d   1     -14.422   3.031  -4.542 -0.05 +0.05    +0.066 A 
DOCKED: ATOM      9  C   UNL d   1     -15.563   3.405  -6.871 -0.04 +0.02    +0.051 C 
DOCKED: ATOM     10  C   UNL d   1     -13.964   0.796  -3.510 -0.08 +0.02    +0.066 A 
DOCKED: ATOM     11  C   UNL d   1     -13.868  -0.592  -3.655 -0.05 -0.00    -0.021 A 
DOCKED: ATOM     12  C   UNL d   1     -13.317  -1.073  -2.482 -0.06 -0.00    +0.000 A 
DOCKED: ATOM     13  C   UNL d   1     -13.114   0.073  -1.665 -0.09 +0.00    +0.070 A 
DOCKED: ATOM     14  C   UNL d   1     -14.261  -1.422  -4.872 -0.03 +0.00    +0.052 C 
DOCKED: ATOM     15  C   UNL d   1     -12.400   1.206   0.433 -0.20 -0.00    +0.066 A 
DOCKED: ATOM     16  C   UNL d   1     -11.999   1.119   1.766 -0.24 +0.00    -0.021 A 
DOCKED: ATOM     17  C   UNL d   1     -11.896   2.429   2.233 -0.33 +0.00    +0.000 A 
DOCKED: ATOM     18  C   UNL d   1     -12.245   3.228   1.135 -0.24 +0.01    +0.070 A 
DOCKED: ATOM     19  C   UNL d   1     -11.805  -0.193   2.483 -0.18 -0.01    +0.052 C 
DOCKED: ATOM     20  C   UNL d   1     -12.621   5.506   0.102 -0.24 +0.01    +0.066 A 
DOCKED: ATOM     21  C   UNL d   1     -12.587   6.897   0.145 -0.29 -0.00    -0.025 A 
DOCKED: ATOM     22  C   UNL d   1     -12.971   7.334  -1.103 -0.21 -0.00    -0.021 A 
DOCKED: ATOM     23  C   UNL d   1     -13.243   6.190  -1.858 -0.15 +0.02    +0.066 A 
DOCKED: ATOM     24  C   UNL d   1     -12.211   7.765   1.318 -0.31 +0.01    +0.051 C 
DOCKED: ATOM     25  N   UNL d   1     -13.975   3.815  -3.503 -0.03 -0.20    -0.248 N 
DOCKED: ATOM     26  N   UNL d   1     -13.515   1.206  -2.296 -0.07 -0.06    -0.248 N 
DOCKED: ATOM     27  N   UNL d   1     -12.621   2.468   0.075 -0.14 -0.03    -0.248 N 
DOCKED: ATOM     28  N   UNL d   1     -13.072   5.082  -1.108 -0.13 -0.09    -0.248 N 
DOCKED: ATOM     29 FE   UNL d   1     -13.292   3.157  -1.695 -0.04 +0.00    +0.000 Fe
DOCKED: ATOM     30  O   UNL d   1     -14.818   2.938  -1.907 -0.08 +0.00    +0.000 OA
DOCKED: ATOM     31  O   UNL d   1     -14.284   3.401  -0.499 -0.11 +0.00    +0.000 OA
DOCKED: ENDROOT
DOCKED: BRANCH   6  32
DOCKED: ATOM     32  C   UNL d   1     -15.033   6.339  -6.020 -0.04 +0.03    +0.052 C 
DOCKED: BRANCH  32  33
DOCKED: ATOM     33  C   UNL d   1     -14.015   6.716  -7.093 -0.04 +0.07    +0.115 C 
DOCKED: BRANCH  33  34
DOCKED: ATOM     34  C   UNL d   1     -12.713   7.201  -6.505 -0.08 +0.11    +0.139 C 
DOCKED: ATOM     35  O   UNL d   1     -11.931   6.396  -6.024 -0.17 -1.15    -0.650 OA
DOCKED: BRANCH  34  36
DOCKED: ATOM     36  O   UNL d   1     -12.401   8.513  -6.472 +0.06 -0.35    -0.776 OA
DOCKED: ATOM     37  H   UNL d   1     -11.976   8.918  -5.708 +0.05 +0.07    +0.167 HD
DOCKED: ENDBRANCH  34  36
DOCKED: ENDBRANCH  33  34
DOCKED: ENDBRANCH  32  33
DOCKED: ENDBRANCH   6  32
DOCKED: BRANCH  22  38
DOCKED: ATOM     38  C   UNL d   1     -13.127   8.774  -1.519 -0.17 +0.01    +0.052 C 
DOCKED: BRANCH  38  39
DOCKED: ATOM     39  C   UNL d   1     -11.805   9.400  -1.957 -0.06 +0.03    +0.115 C 
DOCKED: BRANCH  39  40
DOCKED: ATOM     40  C   UNL d   1     -11.560   9.253  -3.438 -0.23 +0.04    +0.139 C 
DOCKED: ATOM     41  O   UNL d   1     -11.826  10.176  -4.191 +0.06 -0.17    -0.650 OA
DOCKED: BRANCH  40  42
DOCKED: ATOM     42  O   UNL d   1     -11.002   8.136  -3.942 -0.02 -0.38    -0.776 OA
DOCKED: ATOM     43  H   UNL d   1     -11.294   7.760  -4.781 +0.05 +0.11    +0.167 HD
DOCKED: ENDBRANCH  40  42
DOCKED: ENDBRANCH  39  40
DOCKED: ENDBRANCH  38  39
DOCKED: ENDBRANCH  22  38
DOCKED: BRANCH  12  44
DOCKED: ATOM     44  C   UNL d   1     -13.049  -2.548  -2.265 -0.09 -0.00    +0.004 C 
DOCKED: ATOM     45  C   UNL d   1     -11.884  -3.189  -2.347 -0.17 -0.01    +0.012 C 
DOCKED: ENDBRANCH  12  44
DOCKED: BRANCH  17  46
DOCKED: ATOM     46  C   UNL d   1     -11.563   2.968   3.599 -0.34 +0.00    +0.004 C 
DOCKED: ATOM     47  C   UNL d   1     -10.567   2.600   4.415 -0.45 -0.00    +0.012 C 
DOCKED: ENDBRANCH  17  46
DOCKED: TORSDOF 10
DOCKED: TER
DOCKED: ENDMDL
________________________________________________________________________________


	BEGINNING GENETIC ALGORITHM DOCKING 32 of 100
Run: 32 Seed: 1061105798 556756085 [ Run 32 of 100 GA/GALS ]
Beginning LAMARCKIAN GENETIC ALGORITHM (LGA), with a maximum of 25000000 energy evaluations.

Final-Value: -8.640


	FINAL GENETIC ALGORITHM DOCKED STATE
	_______________________________________________


Detailed state:  trans 13.169 4.779 19.538 quatxyzw 0.598702 -0.603598 -0.423609 -0.312699 center 8.287 34.468 -0.670 ntor 10 -101.2741 -57.1603 -42.3702 -91.2727 58.7155 -109.0585 180.0000 -102.3380 4.1757 155.4153
State:	 13.169   4.779  19.538   0.630 -0.635 -0.446 -143.556   -101.27  -57.16  -42.37  -91.27   58.72 -109.06  180.00 -102.34    4.18  155.42

DOCKED: MODEL       32
DOCKED: USER    Run = 32
DOCKED: USER    DPF = D:/Protein_go_brrr/autodock/final/mut_K82N/heme_O2/dock.dpf
DOCKED: USER  
DOCKED: USER    Estimated Free Energy of Binding    =   -4.78 kcal/mol  [=(1)+(2)+(3)-(4)]
DOCKED: USER    Estimated Inhibition Constant, Ki   =  313.21 uM (micromolar)  [Temperature = 298.15 K]
DOCKED: USER    
DOCKED: USER    (1) Final Intermolecular Energy     =   -7.76 kcal/mol
DOCKED: USER        vdW + Hbond + desolv Energy     =   -6.01 kcal/mol
DOCKED: USER        Electrostatic Energy            =   -1.75 kcal/mol
DOCKED: USER    (2) Final Total Internal Energy     =   -0.88 kcal/mol
DOCKED: USER    (3) Torsional Free Energy           =   +2.98 kcal/mol
DOCKED: USER    (4) Unbound System's Energy  [=(2)] =   -0.88 kcal/mol
DOCKED: USER    
DOCKED: USER    
DOCKED: USER    NEWDPF move heme_O2_opt.pdbqt
DOCKED: USER    NEWDPF about 8.287000 34.468000 -0.670000
DOCKED: USER    NEWDPF tran0 13.169256 4.779426 19.537579
DOCKED: USER    NEWDPF quaternion0 0.598702 -0.603598 -0.423609 -0.312699
DOCKED: USER    NEWDPF axisangle0 0.630310 -0.635466 -0.445973 -143.556133
DOCKED: USER    NEWDPF quat0 0.630310 -0.635466 -0.445973 -143.556133
DOCKED: USER    NEWDPF dihe0 -101.27 -57.16 -42.37 -91.27 58.72 -109.06 180.00 -102.34 4.18 155.42 
DOCKED: USER  keepresnum = 1 
DOCKED: USER  
DOCKED: REMARK  10 active torsions:
DOCKED: REMARK  status: ('A' for Active; 'I' for Inactive)
DOCKED: REMARK    1  A    between atoms: C_6  and  C_10 
DOCKED: REMARK    2  A    between atoms: C_10  and  C_11 
DOCKED: REMARK    3  A    between atoms: C_11  and  C_12 
DOCKED: REMARK    4  A    between atoms: C_12  and  O_14 
DOCKED: REMARK    5  A    between atoms: C_17  and  C_20 
DOCKED: REMARK    6  A    between atoms: C_24  and  C_27 
DOCKED: REMARK    7  A    between atoms: C_31  and  C_34 
DOCKED: REMARK    8  A    between atoms: C_34  and  C_35 
DOCKED: REMARK    9  A    between atoms: C_35  and  C_36 
DOCKED: REMARK   10  A    between atoms: C_36  and  O_38 
DOCKED: USER                              x       y       z     vdW  Elec       q    Type
DOCKED: USER                           _______ _______ _______ _____ _____    ______ ____
DOCKED: ROOT
DOCKED: ATOM      1  C   UNL d   1      13.765   6.471  20.670 -0.02 +0.01    +0.064 A 
DOCKED: ATOM      2  C   UNL d   1      11.631   6.025  16.450 -0.07 -0.00    +0.064 A 
DOCKED: ATOM      3  C   UNL d   1      11.807   1.233  16.764 -0.30 -0.01    +0.064 C 
DOCKED: ATOM      4  C   UNL d   1      13.570   1.678  21.321 -0.12 +0.02    +0.064 A 
DOCKED: ATOM      5  C   UNL d   1      13.169   6.741  19.497 -0.02 +0.01    +0.066 A 
DOCKED: ATOM      6  C   UNL d   1      12.945   8.032  19.011 -0.01 -0.00    -0.021 A 
DOCKED: ATOM      7  C   UNL d   1      12.289   7.905  17.810 -0.01 -0.00    -0.025 A 
DOCKED: ATOM      8  C   UNL d   1      12.172   6.538  17.572 -0.03 +0.00    +0.066 A 
DOCKED: ATOM      9  C   UNL d   1      11.785   9.060  16.972 -0.02 -0.00    +0.051 C 
DOCKED: ATOM     10  C   UNL d   1      11.502   4.602  16.134 -0.15 -0.00    +0.066 A 
DOCKED: ATOM     11  C   UNL d   1      11.083   4.125  14.887 -0.25 +0.00    -0.021 A 
DOCKED: ATOM     12  C   UNL d   1      11.144   2.746  14.952 -0.32 -0.00    +0.000 A 
DOCKED: ATOM     13  C   UNL d   1      11.596   2.452  16.268 -0.18 -0.01    +0.070 A 
DOCKED: ATOM     14  C   UNL d   1      10.669   4.952  13.675 -0.21 -0.01    +0.052 C 
DOCKED: ATOM     15  C   UNL d   1      12.229   0.892  18.102 -0.26 -0.00    +0.066 A 
DOCKED: ATOM     16  C   UNL d   1      12.274  -0.406  18.610 -0.34 +0.00    -0.021 A 
DOCKED: ATOM     17  C   UNL d   1      12.773  -0.304  19.908 -0.23 +0.00    +0.000 A 
DOCKED: ATOM     18  C   UNL d   1      13.000   1.067  20.097 -0.17 +0.01    +0.070 A 
DOCKED: ATOM     19  C   UNL d   1      11.790  -1.608  17.839 -0.41 -0.00    +0.052 C 
DOCKED: ATOM     20  C   UNL d   1      13.761   2.991  21.551 -0.08 +0.03    +0.066 A 
DOCKED: ATOM     21  C   UNL d   1      14.319   3.507  22.717 -0.06 -0.01    -0.025 A 
DOCKED: ATOM     22  C   UNL d   1      14.407   4.869  22.539 -0.07 -0.01    -0.021 A 
DOCKED: ATOM     23  C   UNL d   1      13.881   5.138  21.271 -0.06 +0.02    +0.066 A 
DOCKED: ATOM     24  C   UNL d   1      14.743   2.738  23.942 -0.08 +0.03    +0.051 C 
DOCKED: ATOM     25  N   UNL d   1      12.656   5.822  18.642 -0.02 -0.02    -0.248 N 
DOCKED: ATOM     26  N   UNL d   1      11.806   3.587  16.982 -0.12 +0.00    -0.248 N 
DOCKED: ATOM     27  N   UNL d   1      12.594   1.784  19.018 -0.15 -0.03    -0.248 N 
DOCKED: ATOM     28  N   UNL d   1      13.448   3.999  20.693 -0.07 -0.08    -0.248 N 
DOCKED: ATOM     29 FE   UNL d   1      12.633   3.791  18.852 -0.03 +0.00    +0.000 Fe
DOCKED: ATOM     30  O   UNL d   1      11.223   4.446  18.924 -0.25 +0.00    +0.000 OA
DOCKED: ATOM     31  O   UNL d   1      11.583   3.259  19.895 -0.13 +0.00    +0.000 OA
DOCKED: ENDROOT
DOCKED: BRANCH   6  32
DOCKED: ATOM     32  C   UNL d   1      13.213   9.340  19.710 -0.00 +0.00    +0.052 C 
DOCKED: BRANCH  32  33
DOCKED: ATOM     33  C   UNL d   1      14.631   9.855  19.480 -0.00 +0.00    +0.115 C 
DOCKED: BRANCH  33  34
DOCKED: ATOM     34  C   UNL d   1      15.459   8.908  18.648 +0.00 +0.00    +0.139 C 
DOCKED: ATOM     35  O   UNL d   1      16.144   8.062  19.199 +0.00 -0.02    -0.650 OA
DOCKED: BRANCH  34  36
DOCKED: ATOM     36  O   UNL d   1      15.483   8.992  17.302 +0.00 -0.00    -0.776 OA
DOCKED: ATOM     37  H   UNL d   1      14.969   8.396  16.744 +0.00 +0.00    +0.167 HD
DOCKED: ENDBRANCH  34  36
DOCKED: ENDBRANCH  33  34
DOCKED: ENDBRANCH  32  33
DOCKED: ENDBRANCH   6  32
DOCKED: BRANCH  22  38
DOCKED: ATOM     38  C   UNL d   1      14.910   5.858  23.558 -0.04 +0.02    +0.052 C 
DOCKED: BRANCH  38  39
DOCKED: ATOM     39  C   UNL d   1      13.775   6.615  24.244 -0.05 +0.06    +0.115 C 
DOCKED: BRANCH  39  40
DOCKED: ATOM     40  C   UNL d   1      13.070   5.779  25.283 +0.14 +0.16    +0.139 C 
DOCKED: ATOM     41  O   UNL d   1      13.707   4.984  25.956 -0.44 -0.78    -0.650 OA
DOCKED: BRANCH  40  42
DOCKED: ATOM     42  O   UNL d   1      11.752   5.929  25.520 -0.12 -1.29    -0.776 OA
DOCKED: ATOM     43  H   UNL d   1      11.374   6.789  25.739 +0.00 +0.14    +0.167 HD
DOCKED: ENDBRANCH  40  42
DOCKED: ENDBRANCH  39  40
DOCKED: ENDBRANCH  38  39
DOCKED: ENDBRANCH  22  38
DOCKED: BRANCH  12  44
DOCKED: ATOM     44  C   UNL d   1      10.770   1.868  13.776 -0.39 -0.00    +0.004 C 
DOCKED: ATOM     45  C   UNL d   1      11.442   0.828  13.284 -0.44 -0.00    +0.012 C 
DOCKED: ENDBRANCH  12  44
DOCKED: BRANCH  17  46
DOCKED: ATOM     46  C   UNL d   1      12.991  -1.350  20.969 -0.20 +0.00    +0.004 C 
DOCKED: ATOM     47  C   UNL d   1      12.195  -1.662  22.000 -0.21 +0.00    +0.012 C 
DOCKED: ENDBRANCH  17  46
DOCKED: TORSDOF 10
DOCKED: TER
DOCKED: ENDMDL
________________________________________________________________________________


	BEGINNING GENETIC ALGORITHM DOCKING 33 of 100
Run: 33 Seed: 395746851 2098521766 [ Run 33 of 100 GA/GALS ]
Beginning LAMARCKIAN GENETIC ALGORITHM (LGA), with a maximum of 25000000 energy evaluations.

Final-Value: -9.943


	FINAL GENETIC ALGORITHM DOCKED STATE
	_______________________________________________


Detailed state:  trans 11.593 4.218 14.572 quatxyzw 0.741454 -0.541419 0.100931 -0.383306 center 8.287 34.468 -0.670 ntor 10 -137.8101 2.0691 53.1435 -32.6418 87.9016 119.2006 114.2364 -164.3838 4.6222 -16.6131
State:	 11.593   4.218  14.572   0.803 -0.586  0.109 -134.923   -137.81    2.07   53.14  -32.64   87.90  119.20  114.24 -164.38    4.62  -16.61

DOCKED: MODEL       33
DOCKED: USER    Run = 33
DOCKED: USER    DPF = D:/Protein_go_brrr/autodock/final/mut_K82N/heme_O2/dock.dpf
DOCKED: USER  
DOCKED: USER    Estimated Free Energy of Binding    =   -4.62 kcal/mol  [=(1)+(2)+(3)-(4)]
DOCKED: USER    Estimated Inhibition Constant, Ki   =  410.81 uM (micromolar)  [Temperature = 298.15 K]
DOCKED: USER    
DOCKED: USER    (1) Final Intermolecular Energy     =   -7.60 kcal/mol
DOCKED: USER        vdW + Hbond + desolv Energy     =   -7.56 kcal/mol
DOCKED: USER        Electrostatic Energy            =   -0.04 kcal/mol
DOCKED: USER    (2) Final Total Internal Energy     =   -2.34 kcal/mol
DOCKED: USER    (3) Torsional Free Energy           =   +2.98 kcal/mol
DOCKED: USER    (4) Unbound System's Energy  [=(2)] =   -2.34 kcal/mol
DOCKED: USER    
DOCKED: USER    
DOCKED: USER    NEWDPF move heme_O2_opt.pdbqt
DOCKED: USER    NEWDPF about 8.287000 34.468000 -0.670000
DOCKED: USER    NEWDPF tran0 11.592717 4.218158 14.571920
DOCKED: USER    NEWDPF quaternion0 0.741454 -0.541419 0.100931 -0.383306
DOCKED: USER    NEWDPF axisangle0 0.802769 -0.586192 0.109277 -134.922801
DOCKED: USER    NEWDPF quat0 0.802769 -0.586192 0.109277 -134.922801
DOCKED: USER    NEWDPF dihe0 -137.81 2.07 53.14 -32.64 87.90 119.20 114.24 -164.38 4.62 -16.61 
DOCKED: USER  keepresnum = 1 
DOCKED: USER  
DOCKED: REMARK  10 active torsions:
DOCKED: REMARK  status: ('A' for Active; 'I' for Inactive)
DOCKED: REMARK    1  A    between atoms: C_6  and  C_10 
DOCKED: REMARK    2  A    between atoms: C_10  and  C_11 
DOCKED: REMARK    3  A    between atoms: C_11  and  C_12 
DOCKED: REMARK    4  A    between atoms: C_12  and  O_14 
DOCKED: REMARK    5  A    between atoms: C_17  and  C_20 
DOCKED: REMARK    6  A    between atoms: C_24  and  C_27 
DOCKED: REMARK    7  A    between atoms: C_31  and  C_34 
DOCKED: REMARK    8  A    between atoms: C_34  and  C_35 
DOCKED: REMARK    9  A    between atoms: C_35  and  C_36 
DOCKED: REMARK   10  A    between atoms: C_36  and  O_38 
DOCKED: USER                              x       y       z     vdW  Elec       q    Type
DOCKED: USER                           _______ _______ _______ _____ _____    ______ ____
DOCKED: ROOT
DOCKED: ATOM      1  C   UNL d   1      10.540   6.045  14.341 -0.23 -0.01    +0.064 A 
DOCKED: ATOM      2  C   UNL d   1      12.418   3.007  11.210 -0.14 -0.00    +0.064 A 
DOCKED: ATOM      3  C   UNL d   1      14.017   0.192  14.762 -0.17 -0.01    +0.064 C 
DOCKED: ATOM      4  C   UNL d   1      11.675   3.060  17.980 -0.16 +0.00    +0.064 A 
DOCKED: ATOM      5  C   UNL d   1      10.919   5.447  13.200 -0.21 -0.01    +0.066 A 
DOCKED: ATOM      6  C   UNL d   1      10.667   5.963  11.925 -0.27 +0.00    -0.021 A 
DOCKED: ATOM      7  C   UNL d   1      11.173   5.063  11.017 -0.20 +0.00    -0.025 A 
DOCKED: ATOM      8  C   UNL d   1      11.762   4.046  11.762 -0.10 -0.00    +0.066 A 
DOCKED: ATOM      9  C   UNL d   1      11.052   5.190   9.514 -0.29 -0.00    +0.051 C 
DOCKED: ATOM     10  C   UNL d   1      13.075   1.922  11.941 -0.14 -0.01    +0.066 A 
DOCKED: ATOM     11  C   UNL d   1      13.882   0.958  11.325 -0.13 +0.00    -0.021 A 
DOCKED: ATOM     12  C   UNL d   1      14.367   0.148  12.335 -0.15 -0.00    +0.000 A 
DOCKED: ATOM     13  C   UNL d   1      13.806   0.668  13.535 -0.13 -0.01    +0.070 A 
DOCKED: ATOM     14  C   UNL d   1      14.199   0.833   9.840 -0.05 -0.00    +0.052 C 
DOCKED: ATOM     15  C   UNL d   1      13.441   0.667  15.997 -0.14 -0.01    +0.066 A 
DOCKED: ATOM     16  C   UNL d   1      13.571   0.025  17.228 -0.17 +0.00    -0.021 A 
DOCKED: ATOM     17  C   UNL d   1      12.910   0.825  18.161 -0.22 +0.00    +0.000 A 
DOCKED: ATOM     18  C   UNL d   1      12.422   1.909  17.419 -0.20 -0.00    +0.070 A 
DOCKED: ATOM     19  C   UNL d   1      14.258  -1.307  17.393 -0.19 +0.00    +0.052 C 
DOCKED: ATOM     20  C   UNL d   1      11.155   4.095  17.291 -0.15 +0.00    +0.066 A 
DOCKED: ATOM     21  C   UNL d   1      10.476   5.160  17.877 -0.13 -0.00    -0.025 A 
DOCKED: ATOM     22  C   UNL d   1      10.169   6.033  16.858 -0.17 +0.00    -0.021 A 
DOCKED: ATOM     23  C   UNL d   1      10.658   5.458  15.681 -0.20 -0.01    +0.066 A 
DOCKED: ATOM     24  C   UNL d   1      10.135   5.333  19.334 -0.20 +0.01    +0.051 C 
DOCKED: ATOM     25  N   UNL d   1      11.547   4.250  13.106 -0.11 +0.02    -0.248 N 
DOCKED: ATOM     26  N   UNL d   1      13.018   1.744  13.285 -0.07 +0.03    -0.248 N 
DOCKED: ATOM     27  N   UNL d   1      12.689   1.759  16.096 -0.09 +0.03    -0.248 N 
DOCKED: ATOM     28  N   UNL d   1      11.217   4.259  15.943 -0.13 +0.02    -0.248 N 
DOCKED: ATOM     29 FE   UNL d   1      12.112   3.009  14.626 -0.04 -0.00    +0.000 Fe
DOCKED: ATOM     30  O   UNL d   1      10.975   2.432  13.733 -0.39 -0.00    +0.000 OA
DOCKED: ATOM     31  O   UNL d   1      10.925   2.221  15.293 -0.42 -0.00    +0.000 OA
DOCKED: ENDROOT
DOCKED: BRANCH   6  32
DOCKED: ATOM     32  C   UNL d   1       9.863   7.186  11.566 -0.30 +0.00    +0.052 C 
DOCKED: BRANCH  32  33
DOCKED: ATOM     33  C   UNL d   1      10.700   8.461  11.548 -0.16 +0.01    +0.115 C 
DOCKED: BRANCH  33  34
DOCKED: ATOM     34  C   UNL d   1      11.174   8.859  12.924 -0.11 +0.01    +0.139 C 
DOCKED: ATOM     35  O   UNL d   1      10.357   9.151  13.782 -0.52 -0.09    -0.650 OA
DOCKED: BRANCH  34  36
DOCKED: ATOM     36  O   UNL d   1      12.488   8.926  13.222 +0.04 -0.00    -0.776 OA
DOCKED: ATOM     37  H   UNL d   1      12.841   8.590  14.054 +0.02 -0.00    +0.167 HD
DOCKED: ENDBRANCH  34  36
DOCKED: ENDBRANCH  33  34
DOCKED: ENDBRANCH  32  33
DOCKED: ENDBRANCH   6  32
DOCKED: BRANCH  22  38
DOCKED: ATOM     38  C   UNL d   1       9.392   7.316  17.005 -0.19 -0.00    +0.052 C 
DOCKED: BRANCH  38  39
DOCKED: ATOM     39  C   UNL d   1      10.280   8.491  17.409 -0.05 -0.00    +0.115 C 
DOCKED: BRANCH  39  40
DOCKED: ATOM     40  C   UNL d   1      11.747   8.193  17.230 -0.02 -0.00    +0.139 C 
DOCKED: ATOM     41  O   UNL d   1      12.408   7.807  18.180 +0.02 -0.02    -0.650 OA
DOCKED: BRANCH  40  42
DOCKED: ATOM     42  O   UNL d   1      12.336   8.297  16.022 +0.04 +0.01    -0.776 OA
DOCKED: ATOM     43  H   UNL d   1      11.857   8.629  15.254 +0.02 -0.00    +0.167 HD
DOCKED: ENDBRANCH  40  42
DOCKED: ENDBRANCH  39  40
DOCKED: ENDBRANCH  38  39
DOCKED: ENDBRANCH  22  38
DOCKED: BRANCH  12  44
DOCKED: ATOM     44  C   UNL d   1      15.293  -1.017  12.056 -0.19 -0.00    +0.004 C 
DOCKED: ATOM     45  C   UNL d   1      15.191  -2.269  12.500 -0.24 -0.00    +0.012 C 
DOCKED: ENDBRANCH  12  44
DOCKED: BRANCH  17  46
DOCKED: ATOM     46  C   UNL d   1      12.660   0.626  19.632 -0.25 +0.00    +0.004 C 
DOCKED: ATOM     47  C   UNL d   1      12.345  -0.507  20.273 -0.28 +0.00    +0.012 C 
DOCKED: ENDBRANCH  17  46
DOCKED: TORSDOF 10
DOCKED: TER
DOCKED: ENDMDL
________________________________________________________________________________


	BEGINNING GENETIC ALGORITHM DOCKING 34 of 100
Run: 34 Seed: 1668217975 169795960 [ Run 34 of 100 GA/GALS ]
Beginning LAMARCKIAN GENETIC ALGORITHM (LGA), with a maximum of 25000000 energy evaluations.

Final-Value: -11.660


	FINAL GENETIC ALGORITHM DOCKED STATE
	_______________________________________________


Detailed state:  trans -7.840 10.493 -12.383 quatxyzw -0.156492 -0.529482 -0.186407 0.812657 center 8.287 34.468 -0.670 ntor 10 27.3579 -74.6621 71.9657 -102.7769 -169.6650 -177.1743 -45.2053 107.6401 15.4336 -151.8343
State:	 -7.840  10.493 -12.383  -0.269 -0.909 -0.320 71.287     27.36  -74.66   71.97 -102.78 -169.67 -177.17  -45.21  107.64   15.43 -151.83

DOCKED: MODEL       34
DOCKED: USER    Run = 34
DOCKED: USER    DPF = D:/Protein_go_brrr/autodock/final/mut_K82N/heme_O2/dock.dpf
DOCKED: USER  
DOCKED: USER    Estimated Free Energy of Binding    =   -8.05 kcal/mol  [=(1)+(2)+(3)-(4)]
DOCKED: USER    Estimated Inhibition Constant, Ki   =    1.26 uM (micromolar)  [Temperature = 298.15 K]
DOCKED: USER    
DOCKED: USER    (1) Final Intermolecular Energy     =  -11.03 kcal/mol
DOCKED: USER        vdW + Hbond + desolv Energy     =   -8.36 kcal/mol
DOCKED: USER        Electrostatic Energy            =   -2.67 kcal/mol
DOCKED: USER    (2) Final Total Internal Energy     =   -0.63 kcal/mol
DOCKED: USER    (3) Torsional Free Energy           =   +2.98 kcal/mol
DOCKED: USER    (4) Unbound System's Energy  [=(2)] =   -0.63 kcal/mol
DOCKED: USER    
DOCKED: USER    
DOCKED: USER    NEWDPF move heme_O2_opt.pdbqt
DOCKED: USER    NEWDPF about 8.287000 34.468000 -0.670000
DOCKED: USER    NEWDPF tran0 -7.839683 10.493085 -12.382941
DOCKED: USER    NEWDPF quaternion0 -0.156492 -0.529482 -0.186407 0.812657
DOCKED: USER    NEWDPF axisangle0 -0.268544 -0.908605 -0.319878 71.287327
DOCKED: USER    NEWDPF quat0 -0.268544 -0.908605 -0.319878 71.287327
DOCKED: USER    NEWDPF dihe0 27.36 -74.66 71.97 -102.78 -169.67 -177.17 -45.21 107.64 15.43 -151.83 
DOCKED: USER  keepresnum = 1 
DOCKED: USER  
DOCKED: REMARK  10 active torsions:
DOCKED: REMARK  status: ('A' for Active; 'I' for Inactive)
DOCKED: REMARK    1  A    between atoms: C_6  and  C_10 
DOCKED: REMARK    2  A    between atoms: C_10  and  C_11 
DOCKED: REMARK    3  A    between atoms: C_11  and  C_12 
DOCKED: REMARK    4  A    between atoms: C_12  and  O_14 
DOCKED: REMARK    5  A    between atoms: C_17  and  C_20 
DOCKED: REMARK    6  A    between atoms: C_24  and  C_27 
DOCKED: REMARK    7  A    between atoms: C_31  and  C_34 
DOCKED: REMARK    8  A    between atoms: C_34  and  C_35 
DOCKED: REMARK    9  A    between atoms: C_35  and  C_36 
DOCKED: REMARK   10  A    between atoms: C_36  and  O_38 
DOCKED: USER                              x       y       z     vdW  Elec       q    Type
DOCKED: USER                           _______ _______ _______ _____ _____    ______ ____
DOCKED: ROOT
DOCKED: ATOM      1  C   UNL d   1      -9.349  10.193 -10.923 -0.09 +0.01    +0.064 A 
DOCKED: ATOM      2  C   UNL d   1      -5.134   8.129 -11.651 -0.18 -0.01    +0.064 A 
DOCKED: ATOM      3  C   UNL d   1      -4.356  10.869 -15.521 -0.17 -0.02    +0.064 C 
DOCKED: ATOM      4  C   UNL d   1      -8.476  13.331 -14.504 -0.07 +0.00    +0.064 A 
DOCKED: ATOM      5  C   UNL d   1      -8.265   9.409 -10.804 -0.12 +0.01    +0.066 A 
DOCKED: ATOM      6  C   UNL d   1      -8.105   8.441  -9.809 -0.16 -0.00    -0.021 A 
DOCKED: ATOM      7  C   UNL d   1      -6.866   7.872  -9.992 -0.25 -0.00    -0.025 A 
DOCKED: ATOM      8  C   UNL d   1      -6.324   8.475 -11.124 -0.23 -0.00    +0.066 A 
DOCKED: ATOM      9  C   UNL d   1      -6.251   6.826  -9.089 -0.34 +0.00    +0.051 C 
DOCKED: ATOM     10  C   UNL d   1      -4.524   8.709 -12.848 -0.15 -0.02    +0.066 A 
DOCKED: ATOM     11  C   UNL d   1      -3.365   8.200 -13.445 -0.45 +0.00    -0.021 A 
DOCKED: ATOM     12  C   UNL d   1      -3.134   8.966 -14.573 -0.40 -0.00    +0.000 A 
DOCKED: ATOM     13  C   UNL d   1      -4.182   9.928 -14.594 -0.23 -0.02    +0.070 A 
DOCKED: ATOM     14  C   UNL d   1      -2.528   7.016 -12.974 -0.34 -0.01    +0.052 C 
DOCKED: ATOM     15  C   UNL d   1      -5.383  11.883 -15.559 -0.10 -0.02    +0.066 A 
DOCKED: ATOM     16  C   UNL d   1      -5.415  12.942 -16.466 -0.10 +0.01    -0.021 A 
DOCKED: ATOM     17  C   UNL d   1      -6.580  13.658 -16.195 -0.09 -0.00    +0.000 A 
DOCKED: ATOM     18  C   UNL d   1      -7.181  12.972 -15.130 -0.09 -0.01    +0.070 A 
DOCKED: ATOM     19  C   UNL d   1      -4.314  13.204 -17.463 -0.09 -0.04    +0.052 C 
DOCKED: ATOM     20  C   UNL d   1      -9.059  12.722 -13.454 -0.00 +0.01    +0.066 A 
DOCKED: ATOM     21  C   UNL d   1     -10.289  13.095 -12.919 -0.02 -0.01    -0.025 A 
DOCKED: ATOM     22  C   UNL d   1     -10.566  12.194 -11.916 -0.07 -0.01    -0.021 A 
DOCKED: ATOM     23  C   UNL d   1      -9.482  11.313 -11.862 -0.02 +0.02    +0.066 A 
DOCKED: ATOM     24  C   UNL d   1     -11.154  14.253 -13.343 -0.05 +0.01    +0.051 C 
DOCKED: ATOM     25  N   UNL d   1      -7.158   9.468 -11.585 -0.10 +0.00    -0.248 N 
DOCKED: ATOM     26  N   UNL d   1      -5.021   9.767 -13.538 -0.15 +0.06    -0.248 N 
DOCKED: ATOM     27  N   UNL d   1      -6.403  11.942 -14.708 -0.06 +0.04    -0.248 N 
DOCKED: ATOM     28  N   UNL d   1      -8.548  11.664 -12.769 -0.05 -0.04    -0.248 N 
DOCKED: ATOM     29 FE   UNL d   1      -6.796  10.725 -13.153 -0.04 -0.00    +0.000 Fe
DOCKED: ATOM     30  O   UNL d   1      -5.885  10.982 -11.918 -0.43 -0.00    +0.000 OA
DOCKED: ATOM     31  O   UNL d   1      -6.457  12.202 -12.734 -0.42 -0.00    +0.000 OA
DOCKED: ENDROOT
DOCKED: BRANCH   6  32
DOCKED: ATOM     32  C   UNL d   1      -9.018   8.153  -8.646 -0.16 +0.01    +0.052 C 
DOCKED: BRANCH  32  33
DOCKED: ATOM     33  C   UNL d   1      -9.934   6.958  -8.893 -0.10 +0.05    +0.115 C 
DOCKED: BRANCH  33  34
DOCKED: ATOM     34  C   UNL d   1      -9.953   5.997  -7.730 -0.07 +0.15    +0.139 C 
DOCKED: ATOM     35  O   UNL d   1      -9.947   6.431  -6.589 -0.47 -0.81    -0.650 OA
DOCKED: BRANCH  34  36
DOCKED: ATOM     36  O   UNL d   1      -9.948   4.661  -7.921 -0.25 -1.21    -0.776 OA
DOCKED: ATOM     37  H   UNL d   1      -9.554   4.259  -8.704 +0.05 +0.14    +0.167 HD
DOCKED: ENDBRANCH  34  36
DOCKED: ENDBRANCH  33  34
DOCKED: ENDBRANCH  32  33
DOCKED: ENDBRANCH   6  32
DOCKED: BRANCH  22  38
DOCKED: ATOM     38  C   UNL d   1     -11.777  12.224 -11.019 -0.06 +0.01    +0.052 C 
DOCKED: BRANCH  38  39
DOCKED: ATOM     39  C   UNL d   1     -12.008  13.601 -10.400 -0.08 +0.04    +0.115 C 
DOCKED: BRANCH  39  40
DOCKED: ATOM     40  C   UNL d   1     -11.013  13.919  -9.312 -0.21 +0.08    +0.139 C 
DOCKED: ATOM     41  O   UNL d   1     -10.571  13.022  -8.613 -0.04 -0.28    -0.650 OA
DOCKED: BRANCH  40  42
DOCKED: ATOM     42  O   UNL d   1     -10.560  15.175  -9.129 -0.48 -0.96    -0.776 OA
DOCKED: ATOM     43  H   UNL d   1      -9.948  15.586  -9.751 -0.42 +0.16    +0.167 HD
DOCKED: ENDBRANCH  40  42
DOCKED: ENDBRANCH  39  40
DOCKED: ENDBRANCH  38  39
DOCKED: ENDBRANCH  22  38
DOCKED: BRANCH  12  44
DOCKED: ATOM     44  C   UNL d   1      -1.960   8.709 -15.493 -0.43 -0.00    +0.004 C 
DOCKED: ATOM     45  C   UNL d   1      -0.895   9.484 -15.698 -0.41 -0.00    +0.012 C 
DOCKED: ENDBRANCH  12  44
DOCKED: BRANCH  17  46
DOCKED: ATOM     46  C   UNL d   1      -7.125  14.925 -16.799 -0.06 -0.00    +0.004 C 
DOCKED: ATOM     47  C   UNL d   1      -7.215  16.138 -16.238 -0.08 -0.00    +0.012 C 
DOCKED: ENDBRANCH  17  46
DOCKED: TORSDOF 10
DOCKED: TER
DOCKED: ENDMDL
________________________________________________________________________________


	BEGINNING GENETIC ALGORITHM DOCKING 35 of 100
Run: 35 Seed: 1902512257 1926666433 [ Run 35 of 100 GA/GALS ]
Beginning LAMARCKIAN GENETIC ALGORITHM (LGA), with a maximum of 25000000 energy evaluations.

Final-Value: -9.083


	FINAL GENETIC ALGORITHM DOCKED STATE
	_______________________________________________


Detailed state:  trans 11.820 5.047 13.773 quatxyzw -0.270888 0.610048 -0.450962 0.592532 center 8.287 34.468 -0.670 ntor 10 -74.8164 39.1477 138.6812 -105.2682 -112.6459 -68.1782 83.6641 -48.2496 -175.1760 176.8892
State:	 11.820   5.047  13.773  -0.336  0.757 -0.560 107.326    -74.82   39.15  138.68 -105.27 -112.65  -68.18   83.66  -48.25 -175.18  176.89

DOCKED: MODEL       35
DOCKED: USER    Run = 35
DOCKED: USER    DPF = D:/Protein_go_brrr/autodock/final/mut_K82N/heme_O2/dock.dpf
DOCKED: USER  
DOCKED: USER    Estimated Free Energy of Binding    =   -5.43 kcal/mol  [=(1)+(2)+(3)-(4)]
DOCKED: USER    Estimated Inhibition Constant, Ki   =  103.80 uM (micromolar)  [Temperature = 298.15 K]
DOCKED: USER    
DOCKED: USER    (1) Final Intermolecular Energy     =   -8.42 kcal/mol
DOCKED: USER        vdW + Hbond + desolv Energy     =   -7.85 kcal/mol
DOCKED: USER        Electrostatic Energy            =   -0.57 kcal/mol
DOCKED: USER    (2) Final Total Internal Energy     =   -0.67 kcal/mol
DOCKED: USER    (3) Torsional Free Energy           =   +2.98 kcal/mol
DOCKED: USER    (4) Unbound System's Energy  [=(2)] =   -0.67 kcal/mol
DOCKED: USER    
DOCKED: USER    
DOCKED: USER    NEWDPF move heme_O2_opt.pdbqt
DOCKED: USER    NEWDPF about 8.287000 34.468000 -0.670000
DOCKED: USER    NEWDPF tran0 11.819565 5.047480 13.773389
DOCKED: USER    NEWDPF quaternion0 -0.270888 0.610048 -0.450962 0.592532
DOCKED: USER    NEWDPF axisangle0 -0.336278 0.757309 -0.559821 107.326225
DOCKED: USER    NEWDPF quat0 -0.336278 0.757309 -0.559821 107.326225
DOCKED: USER    NEWDPF dihe0 -74.82 39.15 138.68 -105.27 -112.65 -68.18 83.66 -48.25 -175.18 176.89 
DOCKED: USER  keepresnum = 1 
DOCKED: USER  
DOCKED: REMARK  10 active torsions:
DOCKED: REMARK  status: ('A' for Active; 'I' for Inactive)
DOCKED: REMARK    1  A    between atoms: C_6  and  C_10 
DOCKED: REMARK    2  A    between atoms: C_10  and  C_11 
DOCKED: REMARK    3  A    between atoms: C_11  and  C_12 
DOCKED: REMARK    4  A    between atoms: C_12  and  O_14 
DOCKED: REMARK    5  A    between atoms: C_17  and  C_20 
DOCKED: REMARK    6  A    between atoms: C_24  and  C_27 
DOCKED: REMARK    7  A    between atoms: C_31  and  C_34 
DOCKED: REMARK    8  A    between atoms: C_34  and  C_35 
DOCKED: REMARK    9  A    between atoms: C_35  and  C_36 
DOCKED: REMARK   10  A    between atoms: C_36  and  O_38 
DOCKED: USER                              x       y       z     vdW  Elec       q    Type
DOCKED: USER                           _______ _______ _______ _____ _____    ______ ____
DOCKED: ROOT
DOCKED: ATOM      1  C   UNL d   1      11.964   5.632  11.739 -0.12 -0.00    +0.064 A 
DOCKED: ATOM      2  C   UNL d   1      12.371   1.424  13.905 -0.20 -0.01    +0.064 A 
DOCKED: ATOM      3  C   UNL d   1      11.635   3.458  18.196 -0.20 +0.01    +0.064 C 
DOCKED: ATOM      4  C   UNL d   1      10.740   7.717  15.934 -0.09 -0.00    +0.064 A 
DOCKED: ATOM      5  C   UNL d   1      12.133   4.321  11.978 -0.11 -0.00    +0.066 A 
DOCKED: ATOM      6  C   UNL d   1      12.399   3.373  10.986 -0.14 +0.00    -0.021 A 
DOCKED: ATOM      7  C   UNL d   1      12.474   2.148  11.607 -0.19 +0.00    -0.025 A 
DOCKED: ATOM      8  C   UNL d   1      12.300   2.388  12.967 -0.16 -0.01    +0.066 A 
DOCKED: ATOM      9  C   UNL d   1      12.674   0.828  10.895 +0.06 -0.01    +0.051 C 
DOCKED: ATOM     10  C   UNL d   1      12.220   1.619  15.348 -0.21 -0.01    +0.066 A 
DOCKED: ATOM     11  C   UNL d   1      12.465   0.614  16.289 -0.28 +0.00    -0.021 A 
DOCKED: ATOM     12  C   UNL d   1      12.276   1.185  17.534 -0.27 -0.00    +0.000 A 
DOCKED: ATOM     13  C   UNL d   1      11.905   2.534  17.274 -0.19 -0.00    +0.070 A 
DOCKED: ATOM     14  C   UNL d   1      12.889  -0.825  16.015 -0.35 -0.01    +0.052 C 
DOCKED: ATOM     15  C   UNL d   1      11.223   4.823  17.975 -0.15 +0.01    +0.066 A 
DOCKED: ATOM     16  C   UNL d   1      10.795   5.693  18.978 -0.14 -0.00    -0.021 A 
DOCKED: ATOM     17  C   UNL d   1      10.534   6.913  18.356 -0.08 +0.00    +0.000 A 
DOCKED: ATOM     18  C   UNL d   1      10.827   6.694  17.002 -0.09 -0.00    +0.070 A 
DOCKED: ATOM     19  C   UNL d   1      10.624   5.270  20.415 -0.20 +0.02    +0.052 C 
DOCKED: ATOM     20  C   UNL d   1      10.972   7.530  14.620 -0.13 -0.00    +0.066 A 
DOCKED: ATOM     21  C   UNL d   1      10.891   8.537  13.662 -0.13 -0.00    -0.025 A 
DOCKED: ATOM     22  C   UNL d   1      11.263   7.967  12.465 -0.13 -0.00    -0.021 A 
DOCKED: ATOM     23  C   UNL d   1      11.541   6.624  12.735 -0.13 -0.00    +0.066 A 
DOCKED: ATOM     24  C   UNL d   1      10.476   9.970  13.877 -0.10 +0.00    +0.051 C 
DOCKED: ATOM     25  N   UNL d   1      12.025   3.718  13.187 -0.09 +0.02    -0.248 N 
DOCKED: ATOM     26  N   UNL d   1      11.869   2.788  15.942 -0.12 +0.03    -0.248 N 
DOCKED: ATOM     27  N   UNL d   1      11.171   5.401  16.778 -0.08 +0.00    -0.248 N 
DOCKED: ATOM     28  N   UNL d   1      11.319   6.352  14.037 -0.08 +0.01    -0.248 N 
DOCKED: ATOM     29 FE   UNL d   1      11.591   4.584  14.985 -0.04 -0.00    +0.000 Fe
DOCKED: ATOM     30  O   UNL d   1      10.476   3.633  14.460 -0.41 -0.00    +0.000 OA
DOCKED: ATOM     31  O   UNL d   1      10.081   4.987  15.163 -0.33 -0.00    +0.000 OA
DOCKED: ENDROOT
DOCKED: BRANCH   6  32
DOCKED: ATOM     32  C   UNL d   1      12.445   3.585   9.495 -0.19 -0.00    +0.052 C 
DOCKED: BRANCH  32  33
DOCKED: ATOM     33  C   UNL d   1      11.097   3.346   8.821 -0.32 -0.00    +0.115 C 
DOCKED: BRANCH  33  34
DOCKED: ATOM     34  C   UNL d   1      10.998   1.973   8.204 -0.42 -0.01    +0.139 C 
DOCKED: ATOM     35  O   UNL d   1      10.463   1.069   8.826 -0.14 +0.05    -0.650 OA
DOCKED: BRANCH  34  36
DOCKED: ATOM     36  O   UNL d   1      11.514   1.711   6.985 +0.02 +0.00    -0.776 OA
DOCKED: ATOM     37  H   UNL d   1      11.091   2.017   6.175 -0.03 -0.01    +0.167 HD
DOCKED: ENDBRANCH  34  36
DOCKED: ENDBRANCH  33  34
DOCKED: ENDBRANCH  32  33
DOCKED: ENDBRANCH   6  32
DOCKED: BRANCH  22  38
DOCKED: ATOM     38  C   UNL d   1      11.286   8.665  11.130 -0.11 +0.00    +0.052 C 
DOCKED: BRANCH  38  39
DOCKED: ATOM     39  C   UNL d   1       9.903   8.731  10.484 -0.24 +0.02    +0.115 C 
DOCKED: BRANCH  39  40
DOCKED: ATOM     40  C   UNL d   1       9.555  10.120  10.010 -0.21 +0.05    +0.139 C 
DOCKED: ATOM     41  O   UNL d   1      10.053  10.552   8.983 -0.28 -0.40    -0.650 OA
DOCKED: BRANCH  40  42
DOCKED: ATOM     42  O   UNL d   1       8.660  10.878  10.673 -0.31 -0.32    -0.776 OA
DOCKED: ATOM     43  H   UNL d   1       8.649  10.918  11.637 +0.03 +0.01    +0.167 HD
DOCKED: ENDBRANCH  40  42
DOCKED: ENDBRANCH  39  40
DOCKED: ENDBRANCH  38  39
DOCKED: ENDBRANCH  22  38
DOCKED: BRANCH  12  44
DOCKED: ATOM     44  C   UNL d   1      12.461   0.401  18.816 -0.32 +0.00    +0.004 C 
DOCKED: ATOM     45  C   UNL d   1      12.010  -0.821  19.100 -0.34 +0.00    +0.012 C 
DOCKED: ENDBRANCH  12  44
DOCKED: BRANCH  17  46
DOCKED: ATOM     46  C   UNL d   1       9.993   8.206  18.905 -0.05 +0.00    +0.004 C 
DOCKED: ATOM     47  C   UNL d   1       8.811   8.784  18.653 -0.06 -0.00    +0.012 C 
DOCKED: ENDBRANCH  17  46
DOCKED: TORSDOF 10
DOCKED: TER
DOCKED: ENDMDL
________________________________________________________________________________


	BEGINNING GENETIC ALGORITHM DOCKING 36 of 100
Run: 36 Seed: 1830560562 536794371 [ Run 36 of 100 GA/GALS ]
Beginning LAMARCKIAN GENETIC ALGORITHM (LGA), with a maximum of 25000000 energy evaluations.

Final-Value: -9.295


	FINAL GENETIC ALGORITHM DOCKED STATE
	_______________________________________________


Detailed state:  trans 11.551 4.318 16.265 quatxyzw -0.789438 0.331539 0.516528 0.008304 center 8.287 34.468 -0.670 ntor 10 42.7247 -81.2833 128.4416 -104.0347 34.2353 -75.0408 -70.0498 11.6157 -179.8786 -27.4504
State:	 11.551   4.318  16.265  -0.789  0.332  0.517 179.048     42.72  -81.28  128.44 -104.03   34.24  -75.04  -70.05   11.62 -179.88  -27.45

DOCKED: MODEL       36
DOCKED: USER    Run = 36
DOCKED: USER    DPF = D:/Protein_go_brrr/autodock/final/mut_K82N/heme_O2/dock.dpf
DOCKED: USER  
DOCKED: USER    Estimated Free Energy of Binding    =   -5.82 kcal/mol  [=(1)+(2)+(3)-(4)]
DOCKED: USER    Estimated Inhibition Constant, Ki   =   54.36 uM (micromolar)  [Temperature = 298.15 K]
DOCKED: USER    
DOCKED: USER    (1) Final Intermolecular Energy     =   -8.80 kcal/mol
DOCKED: USER        vdW + Hbond + desolv Energy     =   -7.73 kcal/mol
DOCKED: USER        Electrostatic Energy            =   -1.07 kcal/mol
DOCKED: USER    (2) Final Total Internal Energy     =   -0.49 kcal/mol
DOCKED: USER    (3) Torsional Free Energy           =   +2.98 kcal/mol
DOCKED: USER    (4) Unbound System's Energy  [=(2)] =   -0.49 kcal/mol
DOCKED: USER    
DOCKED: USER    
DOCKED: USER    NEWDPF move heme_O2_opt.pdbqt
DOCKED: USER    NEWDPF about 8.287000 34.468000 -0.670000
DOCKED: USER    NEWDPF tran0 11.550675 4.318112 16.264918
DOCKED: USER    NEWDPF quaternion0 -0.789438 0.331539 0.516528 0.008304
DOCKED: USER    NEWDPF axisangle0 -0.789465 0.331550 0.516546 179.048477
DOCKED: USER    NEWDPF quat0 -0.789465 0.331550 0.516546 179.048477
DOCKED: USER    NEWDPF dihe0 42.72 -81.28 128.44 -104.03 34.24 -75.04 -70.05 11.62 -179.88 -27.45 
DOCKED: USER  keepresnum = 1 
DOCKED: USER  
DOCKED: REMARK  10 active torsions:
DOCKED: REMARK  status: ('A' for Active; 'I' for Inactive)
DOCKED: REMARK    1  A    between atoms: C_6  and  C_10 
DOCKED: REMARK    2  A    between atoms: C_10  and  C_11 
DOCKED: REMARK    3  A    between atoms: C_11  and  C_12 
DOCKED: REMARK    4  A    between atoms: C_12  and  O_14 
DOCKED: REMARK    5  A    between atoms: C_17  and  C_20 
DOCKED: REMARK    6  A    between atoms: C_24  and  C_27 
DOCKED: REMARK    7  A    between atoms: C_31  and  C_34 
DOCKED: REMARK    8  A    between atoms: C_34  and  C_35 
DOCKED: REMARK    9  A    between atoms: C_35  and  C_36 
DOCKED: REMARK   10  A    between atoms: C_36  and  O_38 
DOCKED: USER                              x       y       z     vdW  Elec       q    Type
DOCKED: USER                           _______ _______ _______ _____ _____    ______ ____
DOCKED: ROOT
DOCKED: ATOM      1  C   UNL d   1      11.436   4.580  18.367 -0.16 +0.01    +0.064 A 
DOCKED: ATOM      2  C   UNL d   1      10.087   7.303  14.717 -0.23 -0.00    +0.064 A 
DOCKED: ATOM      3  C   UNL d   1      11.733   4.063  11.572 -0.14 -0.00    +0.064 C 
DOCKED: ATOM      4  C   UNL d   1      12.693   1.039  15.313 -0.19 -0.01    +0.064 A 
DOCKED: ATOM      5  C   UNL d   1      10.933   5.584  17.631 -0.12 +0.00    +0.066 A 
DOCKED: ATOM      6  C   UNL d   1      10.373   6.746  18.170 -0.10 -0.00    -0.021 A 
DOCKED: ATOM      7  C   UNL d   1       9.943   7.516  17.115 -0.11 +0.00    -0.025 A 
DOCKED: ATOM      8  C   UNL d   1      10.296   6.825  15.959 -0.17 -0.00    +0.066 A 
DOCKED: ATOM      9  C   UNL d   1       9.206   8.830  17.247 -0.11 -0.00    +0.051 C 
DOCKED: ATOM     10  C   UNL d   1      10.455   6.635  13.468 -0.24 -0.00    +0.066 A 
DOCKED: ATOM     11  C   UNL d   1      10.365   7.247  12.212 -0.24 -0.00    -0.021 A 
DOCKED: ATOM     12  C   UNL d   1      10.852   6.335  11.294 -0.25 -0.00    +0.000 A 
DOCKED: ATOM     13  C   UNL d   1      11.208   5.189  12.057 -0.20 -0.00    +0.070 A 
DOCKED: ATOM     14  C   UNL d   1       9.861   8.652  11.905 -0.13 +0.01    +0.052 C 
DOCKED: ATOM     15  C   UNL d   1      12.074   2.868  12.305 -0.09 -0.00    +0.066 A 
DOCKED: ATOM     16  C   UNL d   1      12.466   1.666  11.718 -0.23 +0.00    -0.021 A 
DOCKED: ATOM     17  C   UNL d   1      12.744   0.788  12.766 -0.26 -0.00    +0.000 A 
DOCKED: ATOM     18  C   UNL d   1      12.500   1.532  13.929 -0.18 -0.01    +0.070 A 
DOCKED: ATOM     19  C   UNL d   1      12.486   1.446  10.226 -0.26 -0.01    +0.052 C 
DOCKED: ATOM     20  C   UNL d   1      12.427   1.711  16.450 -0.19 -0.01    +0.066 A 
DOCKED: ATOM     21  C   UNL d   1      12.646   1.201  17.727 -0.23 +0.00    -0.025 A 
DOCKED: ATOM     22  C   UNL d   1      12.320   2.206  18.609 -0.23 -0.00    -0.021 A 
DOCKED: ATOM     23  C   UNL d   1      11.894   3.291  17.836 -0.19 +0.00    +0.066 A 
DOCKED: ATOM     24  C   UNL d   1      13.139  -0.176  18.087 -0.24 +0.00    +0.051 C 
DOCKED: ATOM     25  N   UNL d   1      10.847   5.605  16.278 -0.10 +0.01    -0.248 N 
DOCKED: ATOM     26  N   UNL d   1      10.959   5.378  13.378 -0.15 +0.02    -0.248 N 
DOCKED: ATOM     27  N   UNL d   1      12.023   2.767  13.630 -0.10 +0.03    -0.248 N 
DOCKED: ATOM     28  N   UNL d   1      11.919   2.970  16.526 -0.12 +0.02    -0.248 N 
DOCKED: ATOM     29 FE   UNL d   1      11.443   4.163  14.961 -0.04 -0.00    +0.000 Fe
DOCKED: ATOM     30  O   UNL d   1       9.900   4.361  15.019 -0.22 -0.00    +0.000 OA
DOCKED: ATOM     31  O   UNL d   1      10.497   2.908  14.902 -0.47 -0.00    +0.000 OA
DOCKED: ENDROOT
DOCKED: BRANCH   6  32
DOCKED: ATOM     32  C   UNL d   1      10.125   7.063  19.622 -0.08 +0.00    +0.052 C 
DOCKED: BRANCH  32  33
DOCKED: ATOM     33  C   UNL d   1       8.700   6.743  20.063 -0.10 +0.01    +0.115 C 
DOCKED: BRANCH  33  34
DOCKED: ATOM     34  C   UNL d   1       8.633   5.528  20.955 -0.19 +0.04    +0.139 C 
DOCKED: ATOM     35  O   UNL d   1       8.022   4.539  20.583 -0.57 -0.26    -0.650 OA
DOCKED: BRANCH  34  36
DOCKED: ATOM     36  O   UNL d   1       9.213   5.516  22.173 -0.01 -0.39    -0.776 OA
DOCKED: ATOM     37  H   UNL d   1       9.148   6.266  22.776 +0.02 +0.07    +0.167 HD
DOCKED: ENDBRANCH  34  36
DOCKED: ENDBRANCH  33  34
DOCKED: ENDBRANCH  32  33
DOCKED: ENDBRANCH   6  32
DOCKED: BRANCH  22  38
DOCKED: ATOM     38  C   UNL d   1      12.355   2.102  20.112 +0.27 +0.01    +0.052 C 
DOCKED: BRANCH  38  39
DOCKED: ATOM     39  C   UNL d   1      13.778   2.129  20.664 -0.12 +0.03    +0.115 C 
DOCKED: BRANCH  39  40
DOCKED: ATOM     40  C   UNL d   1      13.835   1.774  22.129 -0.09 +0.06    +0.139 C 
DOCKED: ATOM     41  O   UNL d   1      13.600   0.630  22.485 -0.04 -0.27    -0.650 OA
DOCKED: BRANCH  40  42
DOCKED: ATOM     42  O   UNL d   1      14.192   2.687  23.053 -0.02 -0.49    -0.776 OA
DOCKED: ATOM     43  H   UNL d   1      15.116   2.923  23.199 +0.01 +0.07    +0.167 HD
DOCKED: ENDBRANCH  40  42
DOCKED: ENDBRANCH  39  40
DOCKED: ENDBRANCH  38  39
DOCKED: ENDBRANCH  22  38
DOCKED: BRANCH  12  44
DOCKED: ATOM     44  C   UNL d   1      10.921   6.645   9.813 -0.27 +0.00    +0.004 C 
DOCKED: ATOM     45  C   UNL d   1       9.929   7.023   9.008 -0.32 +0.00    +0.012 C 
DOCKED: ENDBRANCH  12  44
DOCKED: BRANCH  17  46
DOCKED: ATOM     46  C   UNL d   1      13.150  -0.662  12.759 -0.06 -0.00    +0.004 C 
DOCKED: ATOM     47  C   UNL d   1      12.438  -1.724  13.155 -0.46 -0.00    +0.012 C 
DOCKED: ENDBRANCH  17  46
DOCKED: TORSDOF 10
DOCKED: TER
DOCKED: ENDMDL
________________________________________________________________________________


	BEGINNING GENETIC ALGORITHM DOCKING 37 of 100
Run: 37 Seed: 199647848 1239742254 [ Run 37 of 100 GA/GALS ]
Beginning LAMARCKIAN GENETIC ALGORITHM (LGA), with a maximum of 25000000 energy evaluations.

Final-Value: -8.927


	FINAL GENETIC ALGORITHM DOCKED STATE
	_______________________________________________


Detailed state:  trans 13.196 12.139 -1.040 quatxyzw 0.393824 0.797616 0.286493 -0.355857 center 8.287 34.468 -0.670 ntor 10 118.2186 -21.0026 -86.2504 52.6074 -124.5221 7.5428 -78.8238 74.6564 0.0482 -4.0674
State:	 13.196  12.139  -1.040   0.421  0.853  0.307 -138.308    118.22  -21.00  -86.25   52.61 -124.52    7.54  -78.82   74.66    0.05   -4.07

DOCKED: MODEL       37
DOCKED: USER    Run = 37
DOCKED: USER    DPF = D:/Protein_go_brrr/autodock/final/mut_K82N/heme_O2/dock.dpf
DOCKED: USER  
DOCKED: USER    Estimated Free Energy of Binding    =   -5.25 kcal/mol  [=(1)+(2)+(3)-(4)]
DOCKED: USER    Estimated Inhibition Constant, Ki   =  142.43 uM (micromolar)  [Temperature = 298.15 K]
DOCKED: USER    
DOCKED: USER    (1) Final Intermolecular Energy     =   -8.23 kcal/mol
DOCKED: USER        vdW + Hbond + desolv Energy     =   -7.43 kcal/mol
DOCKED: USER        Electrostatic Energy            =   -0.80 kcal/mol
DOCKED: USER    (2) Final Total Internal Energy     =   -0.70 kcal/mol
DOCKED: USER    (3) Torsional Free Energy           =   +2.98 kcal/mol
DOCKED: USER    (4) Unbound System's Energy  [=(2)] =   -0.70 kcal/mol
DOCKED: USER    
DOCKED: USER    
DOCKED: USER    NEWDPF move heme_O2_opt.pdbqt
DOCKED: USER    NEWDPF about 8.287000 34.468000 -0.670000
DOCKED: USER    NEWDPF tran0 13.195581 12.139465 -1.039842
DOCKED: USER    NEWDPF quaternion0 0.393824 0.797616 0.286493 -0.355857
DOCKED: USER    NEWDPF axisangle0 0.421409 0.853484 0.306560 -138.308101
DOCKED: USER    NEWDPF quat0 0.421409 0.853484 0.306560 -138.308101
DOCKED: USER    NEWDPF dihe0 118.22 -21.00 -86.25 52.61 -124.52 7.54 -78.82 74.66 0.05 -4.07 
DOCKED: USER  keepresnum = 1 
DOCKED: USER  
DOCKED: REMARK  10 active torsions:
DOCKED: REMARK  status: ('A' for Active; 'I' for Inactive)
DOCKED: REMARK    1  A    between atoms: C_6  and  C_10 
DOCKED: REMARK    2  A    between atoms: C_10  and  C_11 
DOCKED: REMARK    3  A    between atoms: C_11  and  C_12 
DOCKED: REMARK    4  A    between atoms: C_12  and  O_14 
DOCKED: REMARK    5  A    between atoms: C_17  and  C_20 
DOCKED: REMARK    6  A    between atoms: C_24  and  C_27 
DOCKED: REMARK    7  A    between atoms: C_31  and  C_34 
DOCKED: REMARK    8  A    between atoms: C_34  and  C_35 
DOCKED: REMARK    9  A    between atoms: C_35  and  C_36 
DOCKED: REMARK   10  A    between atoms: C_36  and  O_38 
DOCKED: USER                              x       y       z     vdW  Elec       q    Type
DOCKED: USER                           _______ _______ _______ _____ _____    ______ ____
DOCKED: ROOT
DOCKED: ATOM      1  C   UNL d   1      13.633  10.758   0.510 +0.02 -0.00    +0.064 A 
DOCKED: ATOM      2  C   UNL d   1      14.903  10.958  -4.062 -0.17 -0.01    +0.064 A 
DOCKED: ATOM      3  C   UNL d   1      12.345  14.976  -4.694 -0.23 -0.01    +0.064 C 
DOCKED: ATOM      4  C   UNL d   1      11.418  15.046   0.123 -0.26 -0.01    +0.064 A 
DOCKED: ATOM      5  C   UNL d   1      14.189  10.486  -0.682 -0.15 -0.00    +0.066 A 
DOCKED: ATOM      6  C   UNL d   1      14.997   9.374  -0.932 -0.13 +0.00    -0.021 A 
DOCKED: ATOM      7  C   UNL d   1      15.401   9.454  -2.244 -0.12 +0.00    -0.025 A 
DOCKED: ATOM      8  C   UNL d   1      14.789  10.587  -2.773 -0.17 -0.01    +0.066 A 
DOCKED: ATOM      9  C   UNL d   1      16.354   8.489  -2.917 -0.07 -0.00    +0.051 C 
DOCKED: ATOM     10  C   UNL d   1      14.267  12.122  -4.679 -0.20 -0.01    +0.066 A 
DOCKED: ATOM     11  C   UNL d   1      14.286  12.370  -6.056 -0.20 +0.00    -0.021 A 
DOCKED: ATOM     12  C   UNL d   1      13.538  13.515  -6.261 -0.24 -0.00    +0.000 A 
DOCKED: ATOM     13  C   UNL d   1      13.106  13.917  -4.966 -0.23 -0.01    +0.070 A 
DOCKED: ATOM     14  C   UNL d   1      14.965  11.535  -7.135 -0.14 -0.00    +0.052 C 
DOCKED: ATOM     15  C   UNL d   1      11.915  15.436  -3.395 -0.26 -0.01    +0.066 A 
DOCKED: ATOM     16  C   UNL d   1      11.258  16.644  -3.162 -0.21 +0.00    -0.021 A 
DOCKED: ATOM     17  C   UNL d   1      10.984  16.686  -1.795 -0.19 -0.00    +0.000 A 
DOCKED: ATOM     18  C   UNL d   1      11.500  15.484  -1.290 -0.21 -0.02    +0.070 A 
DOCKED: ATOM     19  C   UNL d   1      11.002  17.663  -4.243 -0.17 -0.01    +0.052 C 
DOCKED: ATOM     20  C   UNL d   1      11.940  13.921   0.648 -0.22 -0.00    +0.066 A 
DOCKED: ATOM     21  C   UNL d   1      11.815  13.552   1.985 -0.14 +0.00    -0.025 A 
DOCKED: ATOM     22  C   UNL d   1      12.416  12.320   2.108 -0.11 -0.00    -0.021 A 
DOCKED: ATOM     23  C   UNL d   1      12.904  11.989   0.840 -0.03 -0.00    +0.066 A 
DOCKED: ATOM     24  C   UNL d   1      11.158  14.338   3.090 -0.14 +0.00    +0.051 C 
DOCKED: ATOM     25  N   UNL d   1      14.095  11.258  -1.793 -0.14 +0.03    -0.248 N 
DOCKED: ATOM     26  N   UNL d   1      13.557  13.066  -4.010 -0.15 +0.06    -0.248 N 
DOCKED: ATOM     27  N   UNL d   1      12.127  14.773  -2.262 -0.20 +0.06    -0.248 N 
DOCKED: ATOM     28  N   UNL d   1      12.652  12.985  -0.034 -0.15 +0.02    -0.248 N 
DOCKED: ATOM     29 FE   UNL d   1      13.100  13.028  -2.008 -0.06 -0.00    +0.000 Fe
DOCKED: ATOM     30  O   UNL d   1      14.648  13.162  -2.099 -0.12 -0.00    +0.000 OA
DOCKED: ATOM     31  O   UNL d   1      13.813  14.258  -1.335 -0.13 -0.00    +0.000 OA
DOCKED: ENDROOT
DOCKED: BRANCH   6  32
DOCKED: ATOM     32  C   UNL d   1      15.487   8.347   0.056 -0.08 -0.00    +0.052 C 
DOCKED: BRANCH  32  33
DOCKED: ATOM     33  C   UNL d   1      14.471   7.238   0.310 -0.13 +0.00    +0.115 C 
DOCKED: BRANCH  33  34
DOCKED: ATOM     34  C   UNL d   1      14.769   5.991  -0.486 -0.09 +0.02    +0.139 C 
DOCKED: ATOM     35  O   UNL d   1      15.565   5.174  -0.052 +0.01 -0.03    -0.650 OA
DOCKED: BRANCH  34  36
DOCKED: ATOM     36  O   UNL d   1      14.194   5.770  -1.686 -0.55 -0.31    -0.776 OA
DOCKED: ATOM     37  H   UNL d   1      14.715   5.685  -2.493 +0.04 +0.03    +0.167 HD
DOCKED: ENDBRANCH  34  36
DOCKED: ENDBRANCH  33  34
DOCKED: ENDBRANCH  32  33
DOCKED: ENDBRANCH   6  32
DOCKED: BRANCH  22  38
DOCKED: ATOM     38  C   UNL d   1      12.567  11.540   3.388 -0.10 +0.00    +0.052 C 
DOCKED: BRANCH  38  39
DOCKED: ATOM     39  C   UNL d   1      11.489  10.471   3.549 -0.10 +0.01    +0.115 C 
DOCKED: BRANCH  39  40
DOCKED: ATOM     40  C   UNL d   1      10.459  10.843   4.586 -0.16 +0.04    +0.139 C 
DOCKED: ATOM     41  O   UNL d   1       9.322  10.409   4.494 -0.42 -0.38    -0.650 OA
DOCKED: BRANCH  40  42
DOCKED: ATOM     42  O   UNL d   1      10.784  11.607   5.647 +0.03 -0.28    -0.776 OA
DOCKED: ATOM     43  H   UNL d   1      11.701  11.725   5.922 +0.02 +0.03    +0.167 HD
DOCKED: ENDBRANCH  40  42
DOCKED: ENDBRANCH  39  40
DOCKED: ENDBRANCH  38  39
DOCKED: ENDBRANCH  22  38
DOCKED: BRANCH  12  44
DOCKED: ATOM     44  C   UNL d   1      13.320  14.098  -7.641 -0.23 -0.00    +0.004 C 
DOCKED: ATOM     45  C   UNL d   1      12.343  13.819  -8.503 -0.29 +0.00    +0.012 C 
DOCKED: ENDBRANCH  12  44
DOCKED: BRANCH  17  46
DOCKED: ATOM     46  C   UNL d   1      10.350  17.756  -0.946 -0.24 -0.00    +0.004 C 
DOCKED: ATOM     47  C   UNL d   1       9.242  18.465  -1.198 -0.23 -0.00    +0.012 C 
DOCKED: ENDBRANCH  17  46
DOCKED: TORSDOF 10
DOCKED: TER
DOCKED: ENDMDL
________________________________________________________________________________


	BEGINNING GENETIC ALGORITHM DOCKING 38 of 100
Run: 38 Seed: 130706193 1725261144 [ Run 38 of 100 GA/GALS ]
Beginning LAMARCKIAN GENETIC ALGORITHM (LGA), with a maximum of 25000000 energy evaluations.

Final-Value: -8.582


	FINAL GENETIC ALGORITHM DOCKED STATE
	_______________________________________________


Detailed state:  trans 10.035 -6.363 -9.301 quatxyzw 0.317437 -0.576261 -0.738653 0.146796 center 8.287 34.468 -0.670 ntor 10 -61.8199 -57.9573 -25.3677 -119.0105 -12.2884 151.6531 64.4748 122.9169 -170.5022 -180.0000
State:	 10.035  -6.363  -9.301   0.321 -0.583 -0.747 163.117    -61.82  -57.96  -25.37 -119.01  -12.29  151.65   64.47  122.92 -170.50 -180.00

DOCKED: MODEL       38
DOCKED: USER    Run = 38
DOCKED: USER    DPF = D:/Protein_go_brrr/autodock/final/mut_K82N/heme_O2/dock.dpf
DOCKED: USER  
DOCKED: USER    Estimated Free Energy of Binding    =   -4.81 kcal/mol  [=(1)+(2)+(3)-(4)]
DOCKED: USER    Estimated Inhibition Constant, Ki   =  296.22 uM (micromolar)  [Temperature = 298.15 K]
DOCKED: USER    
DOCKED: USER    (1) Final Intermolecular Energy     =   -7.80 kcal/mol
DOCKED: USER        vdW + Hbond + desolv Energy     =   -7.24 kcal/mol
DOCKED: USER        Electrostatic Energy            =   -0.56 kcal/mol
DOCKED: USER    (2) Final Total Internal Energy     =   -0.79 kcal/mol
DOCKED: USER    (3) Torsional Free Energy           =   +2.98 kcal/mol
DOCKED: USER    (4) Unbound System's Energy  [=(2)] =   -0.79 kcal/mol
DOCKED: USER    
DOCKED: USER    
DOCKED: USER    NEWDPF move heme_O2_opt.pdbqt
DOCKED: USER    NEWDPF about 8.287000 34.468000 -0.670000
DOCKED: USER    NEWDPF tran0 10.035165 -6.362576 -9.300500
DOCKED: USER    NEWDPF quaternion0 0.317437 -0.576261 -0.738653 0.146796
DOCKED: USER    NEWDPF axisangle0 0.320913 -0.582572 -0.746742 163.117452
DOCKED: USER    NEWDPF quat0 0.320913 -0.582572 -0.746742 163.117452
DOCKED: USER    NEWDPF dihe0 -61.82 -57.96 -25.37 -119.01 -12.29 151.65 64.47 122.92 -170.50 -180.00 
DOCKED: USER  keepresnum = 1 
DOCKED: USER  
DOCKED: REMARK  10 active torsions:
DOCKED: REMARK  status: ('A' for Active; 'I' for Inactive)
DOCKED: REMARK    1  A    between atoms: C_6  and  C_10 
DOCKED: REMARK    2  A    between atoms: C_10  and  C_11 
DOCKED: REMARK    3  A    between atoms: C_11  and  C_12 
DOCKED: REMARK    4  A    between atoms: C_12  and  O_14 
DOCKED: REMARK    5  A    between atoms: C_17  and  C_20 
DOCKED: REMARK    6  A    between atoms: C_24  and  C_27 
DOCKED: REMARK    7  A    between atoms: C_31  and  C_34 
DOCKED: REMARK    8  A    between atoms: C_34  and  C_35 
DOCKED: REMARK    9  A    between atoms: C_35  and  C_36 
DOCKED: REMARK   10  A    between atoms: C_36  and  O_38 
DOCKED: USER                              x       y       z     vdW  Elec       q    Type
DOCKED: USER                           _______ _______ _______ _____ _____    ______ ____
DOCKED: ROOT
DOCKED: ATOM      1  C   UNL d   1      11.337  -7.016  -7.758 -0.03 -0.01    +0.064 A 
DOCKED: ATOM      2  C   UNL d   1      10.927  -2.891 -10.078 -0.10 -0.05    +0.064 A 
DOCKED: ATOM      3  C   UNL d   1       7.353  -4.651 -12.765 -0.19 -0.02    +0.064 C 
DOCKED: ATOM      4  C   UNL d   1       7.444  -8.743 -10.060 -0.13 -0.01    +0.064 A 
DOCKED: ATOM      5  C   UNL d   1      11.516  -5.750  -8.169 -0.04 -0.01    +0.066 A 
DOCKED: ATOM      6  C   UNL d   1      12.488  -4.889  -7.651 -0.08 +0.00    -0.021 A 
DOCKED: ATOM      7  C   UNL d   1      12.342  -3.681  -8.291 -0.14 +0.01    -0.025 A 
DOCKED: ATOM      8  C   UNL d   1      11.316  -3.852  -9.217 -0.12 -0.03    +0.066 A 
DOCKED: ATOM      9  C   UNL d   1      13.144  -2.436  -7.984 -0.19 -0.02    +0.051 C 
DOCKED: ATOM     10  C   UNL d   1       9.874  -3.019 -11.086 -0.19 -0.04    +0.066 A 
DOCKED: ATOM     11  C   UNL d   1       9.621  -2.048 -12.062 -0.26 +0.01    -0.021 A 
DOCKED: ATOM     12  C   UNL d   1       8.606  -2.546 -12.857 -0.29 -0.00    +0.000 A 
DOCKED: ATOM     13  C   UNL d   1       8.280  -3.814 -12.302 -0.18 -0.02    +0.070 A 
DOCKED: ATOM     14  C   UNL d   1      10.337  -0.715 -12.244 -0.18 -0.04    +0.052 C 
DOCKED: ATOM     15  C   UNL d   1       6.969  -5.928 -12.211 -0.19 -0.01    +0.066 A 
DOCKED: ATOM     16  C   UNL d   1       5.879  -6.682 -12.643 -0.30 +0.00    -0.021 A 
DOCKED: ATOM     17  C   UNL d   1       5.885  -7.853 -11.886 -0.29 -0.00    +0.000 A 
DOCKED: ATOM     18  C   UNL d   1       6.994  -7.725 -11.038 -0.15 -0.01    +0.070 A 
DOCKED: ATOM     19  C   UNL d   1       4.908  -6.199 -13.691 -0.48 -0.01    +0.052 C 
DOCKED: ATOM     20  C   UNL d   1       8.476  -8.634  -9.202 -0.10 -0.01    +0.066 A 
DOCKED: ATOM     21  C   UNL d   1       8.864  -9.635  -8.316 -0.08 +0.00    -0.025 A 
DOCKED: ATOM     22  C   UNL d   1       9.988  -9.171  -7.671 -0.09 +0.00    -0.021 A 
DOCKED: ATOM     23  C   UNL d   1      10.236  -7.891  -8.176 -0.06 -0.01    +0.066 A 
DOCKED: ATOM     24  C   UNL d   1       8.193 -10.966  -8.094 -0.09 -0.00    +0.051 C 
DOCKED: ATOM     25  N   UNL d   1      10.764  -5.106  -9.095 -0.03 +0.07    -0.248 N 
DOCKED: ATOM     26  N   UNL d   1       9.054  -4.092 -11.221 -0.08 +0.09    -0.248 N 
DOCKED: ATOM     27  N   UNL d   1       7.595  -6.518 -11.196 -0.06 +0.05    -0.248 N 
DOCKED: ATOM     28  N   UNL d   1       9.288  -7.551  -9.074 -0.05 +0.05    -0.248 N 
DOCKED: ATOM     29 FE   UNL d   1       9.169  -5.835 -10.141 -0.03 -0.00    +0.000 Fe
DOCKED: ATOM     30  O   UNL d   1       8.796  -4.716  -9.125 -0.22 -0.00    +0.000 OA
DOCKED: ATOM     31  O   UNL d   1       7.846  -5.961  -9.301 -0.23 -0.00    +0.000 OA
DOCKED: ENDROOT
DOCKED: BRANCH   6  32
DOCKED: ATOM     32  C   UNL d   1      13.429  -5.144  -6.502 -0.06 +0.00    +0.052 C 
DOCKED: BRANCH  32  33
DOCKED: ATOM     33  C   UNL d   1      12.820  -4.794  -5.148 -0.08 +0.02    +0.115 C 
DOCKED: BRANCH  33  34
DOCKED: ATOM     34  C   UNL d   1      13.576  -3.694  -4.445 -0.08 +0.05    +0.139 C 
DOCKED: ATOM     35  O   UNL d   1      13.408  -3.516  -3.249 -0.06 -0.33    -0.650 OA
DOCKED: BRANCH  34  36
DOCKED: ATOM     36  O   UNL d   1      14.416  -2.879  -5.115 -0.01 -0.27    -0.776 OA
DOCKED: ATOM     37  H   UNL d   1      15.197  -3.213  -5.571 +0.02 +0.02    +0.167 HD
DOCKED: ENDBRANCH  34  36
DOCKED: ENDBRANCH  33  34
DOCKED: ENDBRANCH  32  33
DOCKED: ENDBRANCH   6  32
DOCKED: BRANCH  22  38
DOCKED: ATOM     38  C   UNL d   1      10.740  -9.896  -6.584 -0.07 -0.00    +0.052 C 
DOCKED: BRANCH  38  39
DOCKED: ATOM     39  C   UNL d   1      10.042  -9.798  -5.229 -0.07 +0.01    +0.115 C 
DOCKED: BRANCH  39  40
DOCKED: ATOM     40  C   UNL d   1       9.852  -8.370  -4.781 -0.15 +0.00    +0.139 C 
DOCKED: ATOM     41  O   UNL d   1      10.826  -7.670  -4.557 +0.02 -0.00    -0.650 OA
DOCKED: BRANCH  40  42
DOCKED: ATOM     42  O   UNL d   1       8.621  -7.834  -4.672 -0.21 +0.05    -0.776 OA
DOCKED: ATOM     43  H   UNL d   1       8.003  -7.833  -5.413 -0.44 -0.07    +0.167 HD
DOCKED: ENDBRANCH  40  42
DOCKED: ENDBRANCH  39  40
DOCKED: ENDBRANCH  38  39
DOCKED: ENDBRANCH  22  38
DOCKED: BRANCH  12  44
DOCKED: ATOM     44  C   UNL d   1       8.059  -1.773 -14.040 -0.32 -0.00    +0.004 C 
DOCKED: ATOM     45  C   UNL d   1       7.532  -2.259 -15.163 -0.24 -0.01    +0.012 C 
DOCKED: ENDBRANCH  12  44
DOCKED: BRANCH  17  46
DOCKED: ATOM     46  C   UNL d   1       4.929  -9.016 -11.857 -0.39 -0.00    +0.004 C 
DOCKED: ATOM     47  C   UNL d   1       4.287  -9.535 -10.803 -0.47 -0.00    +0.012 C 
DOCKED: ENDBRANCH  17  46
DOCKED: TORSDOF 10
DOCKED: TER
DOCKED: ENDMDL
________________________________________________________________________________


	BEGINNING GENETIC ALGORITHM DOCKING 39 of 100
Run: 39 Seed: 1510377488 706184369 [ Run 39 of 100 GA/GALS ]
Beginning LAMARCKIAN GENETIC ALGORITHM (LGA), with a maximum of 25000000 energy evaluations.

Final-Value: -9.304


	FINAL GENETIC ALGORITHM DOCKED STATE
	_______________________________________________


Detailed state:  trans 12.159 7.645 10.576 quatxyzw 0.447623 -0.750208 0.229592 -0.429078 center 8.287 34.468 -0.670 ntor 10 -134.0691 43.9264 18.8253 -104.9237 26.3974 -10.7008 -125.1827 109.9952 177.6493 -148.8589
State:	 12.159   7.645  10.576   0.496 -0.831  0.254 -129.182   -134.07   43.93   18.83 -104.92   26.40  -10.70 -125.18  110.00  177.65 -148.86

DOCKED: MODEL       39
DOCKED: USER    Run = 39
DOCKED: USER    DPF = D:/Protein_go_brrr/autodock/final/mut_K82N/heme_O2/dock.dpf
DOCKED: USER  
DOCKED: USER    Estimated Free Energy of Binding    =   -4.78 kcal/mol  [=(1)+(2)+(3)-(4)]
DOCKED: USER    Estimated Inhibition Constant, Ki   =  314.99 uM (micromolar)  [Temperature = 298.15 K]
DOCKED: USER    
DOCKED: USER    (1) Final Intermolecular Energy     =   -7.76 kcal/mol
DOCKED: USER        vdW + Hbond + desolv Energy     =   -6.26 kcal/mol
DOCKED: USER        Electrostatic Energy            =   -1.50 kcal/mol
DOCKED: USER    (2) Final Total Internal Energy     =   -1.54 kcal/mol
DOCKED: USER    (3) Torsional Free Energy           =   +2.98 kcal/mol
DOCKED: USER    (4) Unbound System's Energy  [=(2)] =   -1.54 kcal/mol
DOCKED: USER    
DOCKED: USER    
DOCKED: USER    NEWDPF move heme_O2_opt.pdbqt
DOCKED: USER    NEWDPF about 8.287000 34.468000 -0.670000
DOCKED: USER    NEWDPF tran0 12.158949 7.645050 10.575695
DOCKED: USER    NEWDPF quaternion0 0.447623 -0.750208 0.229592 -0.429078
DOCKED: USER    NEWDPF axisangle0 0.495560 -0.830550 0.254180 -129.181854
DOCKED: USER    NEWDPF quat0 0.495560 -0.830550 0.254180 -129.181854
DOCKED: USER    NEWDPF dihe0 -134.07 43.93 18.83 -104.92 26.40 -10.70 -125.18 110.00 177.65 -148.86 
DOCKED: USER  keepresnum = 1 
DOCKED: USER  
DOCKED: REMARK  10 active torsions:
DOCKED: REMARK  status: ('A' for Active; 'I' for Inactive)
DOCKED: REMARK    1  A    between atoms: C_6  and  C_10 
DOCKED: REMARK    2  A    between atoms: C_10  and  C_11 
DOCKED: REMARK    3  A    between atoms: C_11  and  C_12 
DOCKED: REMARK    4  A    between atoms: C_12  and  O_14 
DOCKED: REMARK    5  A    between atoms: C_17  and  C_20 
DOCKED: REMARK    6  A    between atoms: C_24  and  C_27 
DOCKED: REMARK    7  A    between atoms: C_31  and  C_34 
DOCKED: REMARK    8  A    between atoms: C_34  and  C_35 
DOCKED: REMARK    9  A    between atoms: C_35  and  C_36 
DOCKED: REMARK   10  A    between atoms: C_36  and  O_38 
DOCKED: USER                              x       y       z     vdW  Elec       q    Type
DOCKED: USER                           _______ _______ _______ _____ _____    ______ ____
DOCKED: ROOT
DOCKED: ATOM      1  C   UNL d   1      12.419   9.413   9.432 -0.02 +0.01    +0.064 A 
DOCKED: ATOM      2  C   UNL d   1      12.891   4.807   8.371 -0.10 -0.00    +0.064 A 
DOCKED: ATOM      3  C   UNL d   1      11.741   3.558  12.867 -0.18 -0.00    +0.064 C 
DOCKED: ATOM      4  C   UNL d   1      10.786   8.270  13.844 -0.14 +0.00    +0.064 A 
DOCKED: ATOM      5  C   UNL d   1      12.639   8.262   8.776 -0.03 +0.00    +0.066 A 
DOCKED: ATOM      6  C   UNL d   1      13.026   8.187   7.435 -0.04 -0.00    -0.021 A 
DOCKED: ATOM      7  C   UNL d   1      13.121   6.853   7.115 -0.06 -0.00    -0.025 A 
DOCKED: ATOM      8  C   UNL d   1      12.837   6.150   8.282 -0.08 +0.00    +0.066 A 
DOCKED: ATOM      9  C   UNL d   1      13.441   6.314   5.738 -0.06 -0.00    +0.051 C 
DOCKED: ATOM     10  C   UNL d   1      12.626   4.016   9.573 -0.13 -0.00    +0.066 A 
DOCKED: ATOM     11  C   UNL d   1      12.856   2.638   9.654 -0.18 +0.00    -0.021 A 
DOCKED: ATOM     12  C   UNL d   1      12.547   2.262  10.948 -0.20 -0.00    +0.000 A 
DOCKED: ATOM     13  C   UNL d   1      12.126   3.457  11.595 -0.07 -0.00    +0.070 A 
DOCKED: ATOM     14  C   UNL d   1      13.375   1.723   8.550 -0.09 +0.00    +0.052 C 
DOCKED: ATOM     15  C   UNL d   1      11.273   4.741  13.549 -0.19 -0.01    +0.066 A 
DOCKED: ATOM     16  C   UNL d   1      10.729   4.750  14.833 -0.23 +0.00    -0.021 A 
DOCKED: ATOM     17  C   UNL d   1      10.449   6.083  15.133 -0.24 -0.00    +0.000 A 
DOCKED: ATOM     18  C   UNL d   1      10.850   6.797  13.995 -0.18 -0.00    +0.070 A 
DOCKED: ATOM     19  C   UNL d   1      10.477   3.494  15.628 -0.27 -0.01    +0.052 C 
DOCKED: ATOM     20  C   UNL d   1      11.121   8.982  12.752 -0.11 +0.00    +0.066 A 
DOCKED: ATOM     21  C   UNL d   1      11.057  10.371  12.675 -0.09 -0.00    -0.025 A 
DOCKED: ATOM     22  C   UNL d   1      11.544  10.716  11.434 -0.04 -0.00    -0.021 A 
DOCKED: ATOM     23  C   UNL d   1      11.872   9.519  10.790 -0.03 +0.00    +0.066 A 
DOCKED: ATOM     24  C   UNL d   1      10.552  11.320  13.731 -0.09 +0.00    +0.051 C 
DOCKED: ATOM     25  N   UNL d   1      12.477   7.017   9.288 -0.03 -0.01    -0.248 N 
DOCKED: ATOM     26  N   UNL d   1      12.172   4.518  10.750 -0.07 +0.01    -0.248 N 
DOCKED: ATOM     27  N   UNL d   1      11.278   5.960  13.016 -0.12 +0.01    -0.248 N 
DOCKED: ATOM     28  N   UNL d   1      11.572   8.466  11.577 -0.04 -0.01    -0.248 N 
DOCKED: ATOM     29 FE   UNL d   1      11.869   6.506  11.169 -0.03 -0.00    +0.000 Fe
DOCKED: ATOM     30  O   UNL d   1      10.847   6.134  10.056 -0.30 -0.00    +0.000 OA
DOCKED: ATOM     31  O   UNL d   1      10.331   6.706  11.430 -0.35 -0.00    +0.000 OA
DOCKED: ENDROOT
DOCKED: BRANCH   6  32
DOCKED: ATOM     32  C   UNL d   1      13.168   9.319   6.451 -0.03 +0.00    +0.052 C 
DOCKED: BRANCH  32  33
DOCKED: ATOM     33  C   UNL d   1      11.949   9.474   5.546 -0.07 +0.02    +0.115 C 
DOCKED: BRANCH  33  34
DOCKED: ATOM     34  C   UNL d   1      10.662   9.572   6.327 -0.12 +0.06    +0.139 C 
DOCKED: ATOM     35  O   UNL d   1       9.753   8.792   6.092 -0.04 -0.32    -0.650 OA
DOCKED: BRANCH  34  36
DOCKED: ATOM     36  O   UNL d   1      10.479  10.524   7.265 -0.09 -0.49    -0.776 OA
DOCKED: ATOM     37  H   UNL d   1      10.112  10.322   8.133 +0.03 +0.13    +0.167 HD
DOCKED: ENDBRANCH  34  36
DOCKED: ENDBRANCH  33  34
DOCKED: ENDBRANCH  32  33
DOCKED: ENDBRANCH   6  32
DOCKED: BRANCH  22  38
DOCKED: ATOM     38  C   UNL d   1      11.626  12.115  10.881 -0.02 +0.00    +0.052 C 
DOCKED: BRANCH  38  39
DOCKED: ATOM     39  C   UNL d   1      10.331  12.899  11.087 -0.05 +0.01    +0.115 C 
DOCKED: BRANCH  39  40
DOCKED: ATOM     40  C   UNL d   1       9.212  12.404  10.205 -0.10 +0.06    +0.139 C 
DOCKED: ATOM     41  O   UNL d   1       8.102  12.221  10.680 -0.56 -0.37    -0.650 OA
DOCKED: BRANCH  40  42
DOCKED: ATOM     42  O   UNL d   1       9.400  12.208   8.886 -0.34 -0.73    -0.776 OA
DOCKED: ATOM     43  H   UNL d   1      10.172  11.736   8.551 +0.02 +0.12    +0.167 HD
DOCKED: ENDBRANCH  40  42
DOCKED: ENDBRANCH  39  40
DOCKED: ENDBRANCH  38  39
DOCKED: ENDBRANCH  22  38
DOCKED: BRANCH  12  44
DOCKED: ATOM     44  C   UNL d   1      12.681   0.830  11.423 -0.17 -0.00    +0.004 C 
DOCKED: ATOM     45  C   UNL d   1      12.181   0.285  12.531 -0.38 -0.00    +0.012 C 
DOCKED: ENDBRANCH  12  44
DOCKED: BRANCH  17  46
DOCKED: ATOM     46  C   UNL d   1       9.802   6.709  16.339 -0.26 -0.00    +0.004 C 
DOCKED: ATOM     47  C   UNL d   1       8.610   7.314  16.420 -0.31 -0.00    +0.012 C 
DOCKED: ENDBRANCH  17  46
DOCKED: TORSDOF 10
DOCKED: TER
DOCKED: ENDMDL
________________________________________________________________________________


	BEGINNING GENETIC ALGORITHM DOCKING 40 of 100
Run: 40 Seed: 1913283680 303692193 [ Run 40 of 100 GA/GALS ]
Beginning LAMARCKIAN GENETIC ALGORITHM (LGA), with a maximum of 25000000 energy evaluations.

Final-Value: -9.285


	FINAL GENETIC ALGORITHM DOCKED STATE
	_______________________________________________


Detailed state:  trans 15.162 5.580 -5.522 quatxyzw 0.545155 -0.101051 -0.708553 0.436518 center 8.287 34.468 -0.670 ntor 10 -27.5142 -123.1318 85.7929 -106.0914 16.0066 104.2600 -99.0277 -72.2090 -179.2891 20.6639
State:	 15.162   5.580  -5.522   0.606 -0.112 -0.788 128.236    -27.51 -123.13   85.79 -106.09   16.01  104.26  -99.03  -72.21 -179.29   20.66

DOCKED: MODEL       40
DOCKED: USER    Run = 40
DOCKED: USER    DPF = D:/Protein_go_brrr/autodock/final/mut_K82N/heme_O2/dock.dpf
DOCKED: USER  
DOCKED: USER    Estimated Free Energy of Binding    =   -3.95 kcal/mol  [=(1)+(2)+(3)-(4)]
DOCKED: USER    Estimated Inhibition Constant, Ki   =    1.27 mM (millimolar)  [Temperature = 298.15 K]
DOCKED: USER    
DOCKED: USER    (1) Final Intermolecular Energy     =   -6.93 kcal/mol
DOCKED: USER        vdW + Hbond + desolv Energy     =   -5.78 kcal/mol
DOCKED: USER        Electrostatic Energy            =   -1.15 kcal/mol
DOCKED: USER    (2) Final Total Internal Energy     =   -2.35 kcal/mol
DOCKED: USER    (3) Torsional Free Energy           =   +2.98 kcal/mol
DOCKED: USER    (4) Unbound System's Energy  [=(2)] =   -2.35 kcal/mol
DOCKED: USER    
DOCKED: USER    
DOCKED: USER    NEWDPF move heme_O2_opt.pdbqt
DOCKED: USER    NEWDPF about 8.287000 34.468000 -0.670000
DOCKED: USER    NEWDPF tran0 15.162268 5.580481 -5.522273
DOCKED: USER    NEWDPF quaternion0 0.545155 -0.101051 -0.708553 0.436518
DOCKED: USER    NEWDPF axisangle0 0.605933 -0.112317 -0.787547 128.236190
DOCKED: USER    NEWDPF quat0 0.605933 -0.112317 -0.787547 128.236190
DOCKED: USER    NEWDPF dihe0 -27.51 -123.13 85.79 -106.09 16.01 104.26 -99.03 -72.21 -179.29 20.66 
DOCKED: USER  keepresnum = 1 
DOCKED: USER  
DOCKED: REMARK  10 active torsions:
DOCKED: REMARK  status: ('A' for Active; 'I' for Inactive)
DOCKED: REMARK    1  A    between atoms: C_6  and  C_10 
DOCKED: REMARK    2  A    between atoms: C_10  and  C_11 
DOCKED: REMARK    3  A    between atoms: C_11  and  C_12 
DOCKED: REMARK    4  A    between atoms: C_12  and  O_14 
DOCKED: REMARK    5  A    between atoms: C_17  and  C_20 
DOCKED: REMARK    6  A    between atoms: C_24  and  C_27 
DOCKED: REMARK    7  A    between atoms: C_31  and  C_34 
DOCKED: REMARK    8  A    between atoms: C_34  and  C_35 
DOCKED: REMARK    9  A    between atoms: C_35  and  C_36 
DOCKED: REMARK   10  A    between atoms: C_36  and  O_38 
DOCKED: USER                              x       y       z     vdW  Elec       q    Type
DOCKED: USER                           _______ _______ _______ _____ _____    ______ ____
DOCKED: ROOT
DOCKED: ATOM      1  C   UNL d   1      15.317   3.774  -4.421 -0.08 +0.01    +0.064 A 
DOCKED: ATOM      2  C   UNL d   1      14.739   8.299  -3.097 -0.14 -0.00    +0.064 A 
DOCKED: ATOM      3  C   UNL d   1      14.867   9.751  -7.676 -0.05 -0.00    +0.064 C 
DOCKED: ATOM      4  C   UNL d   1      14.982   5.052  -9.079 -0.05 -0.01    +0.064 A 
DOCKED: ATOM      5  C   UNL d   1      15.147   4.886  -3.688 -0.10 +0.01    +0.066 A 
DOCKED: ATOM      6  C   UNL d   1      15.083   4.900  -2.291 -0.11 -0.00    -0.021 A 
DOCKED: ATOM      7  C   UNL d   1      14.872   6.204  -1.909 -0.12 -0.00    -0.025 A 
DOCKED: ATOM      8  C   UNL d   1      14.862   6.958  -3.080 -0.15 +0.00    +0.066 A 
DOCKED: ATOM      9  C   UNL d   1      14.664   6.665  -0.483 -0.11 +0.00    +0.051 C 
DOCKED: ATOM     10  C   UNL d   1      14.744   9.145  -4.292 -0.20 -0.00    +0.066 A 
DOCKED: ATOM     11  C   UNL d   1      14.778  10.543  -4.244 -0.21 +0.00    -0.021 A 
DOCKED: ATOM     12  C   UNL d   1      14.833  10.980  -5.554 -0.19 -0.00    +0.000 A 
DOCKED: ATOM     13  C   UNL d   1      14.818   9.798  -6.345 -0.12 -0.00    +0.070 A 
DOCKED: ATOM     14  C   UNL d   1      14.784  11.424  -3.000 -0.18 -0.01    +0.052 C 
DOCKED: ATOM     15  C   UNL d   1      14.818   8.578  -8.515 -0.13 -0.00    +0.066 A 
DOCKED: ATOM     16  C   UNL d   1      14.707   8.603  -9.905 -0.15 +0.00    -0.021 A 
DOCKED: ATOM     17  C   UNL d   1      14.737   7.274 -10.327 -0.11 -0.00    +0.000 A 
DOCKED: ATOM     18  C   UNL d   1      14.867   6.528  -9.147 -0.10 -0.01    +0.070 A 
DOCKED: ATOM     19  C   UNL d   1      14.529   9.877 -10.692 -0.15 -0.00    +0.052 C 
DOCKED: ATOM     20  C   UNL d   1      15.065   4.302  -7.963 -0.06 -0.01    +0.066 A 
DOCKED: ATOM     21  C   UNL d   1      15.189   2.915  -7.962 -0.08 +0.00    -0.025 A 
DOCKED: ATOM     22  C   UNL d   1      15.313   2.536  -6.644 -0.09 +0.00    -0.021 A 
DOCKED: ATOM     23  C   UNL d   1      15.242   3.709  -5.885 -0.08 +0.00    +0.066 A 
DOCKED: ATOM     24  C   UNL d   1      15.186   1.998  -9.157 -0.07 -0.01    +0.051 C 
DOCKED: ATOM     25  N   UNL d   1      14.966   6.137  -4.179 -0.10 -0.01    -0.248 N 
DOCKED: ATOM     26  N   UNL d   1      14.759   8.686  -5.569 -0.14 +0.01    -0.248 N 
DOCKED: ATOM     27  N   UNL d   1      14.839   7.331  -8.053 -0.10 +0.02    -0.248 N 
DOCKED: ATOM     28  N   UNL d   1      15.046   4.775  -6.688 -0.04 +0.02    -0.248 N 
DOCKED: ATOM     29 FE   UNL d   1      14.903   6.717  -6.135 -0.03 -0.00    +0.000 Fe
DOCKED: ATOM     30  O   UNL d   1      13.542   6.859  -5.394 -0.32 -0.00    +0.000 OA
DOCKED: ATOM     31  O   UNL d   1      13.570   6.339  -6.881 -0.31 -0.00    +0.000 OA
DOCKED: ENDROOT
DOCKED: BRANCH   6  32
DOCKED: ATOM     32  C   UNL d   1      15.080   3.719  -1.355 -0.08 +0.01    +0.052 C 
DOCKED: BRANCH  32  33
DOCKED: ATOM     33  C   UNL d   1      13.674   3.286  -0.952 -0.18 +0.02    +0.115 C 
DOCKED: BRANCH  33  34
DOCKED: ATOM     34  C   UNL d   1      12.993   2.473  -2.024 -0.19 +0.07    +0.139 C 
DOCKED: ATOM     35  O   UNL d   1      11.833   2.713  -2.318 -0.53 -0.34    -0.650 OA
DOCKED: BRANCH  34  36
DOCKED: ATOM     36  O   UNL d   1      13.629   1.461  -2.650 -0.28 -0.76    -0.776 OA
DOCKED: ATOM     37  H   UNL d   1      14.588   1.443  -2.748 +0.03 +0.11    +0.167 HD
DOCKED: ENDBRANCH  34  36
DOCKED: ENDBRANCH  33  34
DOCKED: ENDBRANCH  32  33
DOCKED: ENDBRANCH   6  32
DOCKED: BRANCH  22  38
DOCKED: ATOM     38  C   UNL d   1      15.428   1.119  -6.145 -0.05 +0.01    +0.052 C 
DOCKED: BRANCH  38  39
DOCKED: ATOM     39  C   UNL d   1      16.698   0.892  -5.326 -0.04 +0.01    +0.115 C 
DOCKED: BRANCH  39  40
DOCKED: ATOM     40  C   UNL d   1      16.416   0.763  -3.850 -0.05 +0.03    +0.139 C 
DOCKED: ATOM     41  O   UNL d   1      16.783   1.640  -3.084 +0.03 -0.10    -0.650 OA
DOCKED: BRANCH  40  42
DOCKED: ATOM     42  O   UNL d   1      15.719  -0.282  -3.363 -0.05 -0.35    -0.776 OA
DOCKED: ATOM     43  H   UNL d   1      14.894  -0.156  -2.880 +0.01 +0.14    +0.167 HD
DOCKED: ENDBRANCH  40  42
DOCKED: ENDBRANCH  39  40
DOCKED: ENDBRANCH  38  39
DOCKED: ENDBRANCH  22  38
DOCKED: BRANCH  12  44
DOCKED: ATOM     44  C   UNL d   1      14.890  12.451  -5.909 -0.17 -0.00    +0.004 C 
DOCKED: ATOM     45  C   UNL d   1      13.886  13.242  -6.287 -0.25 -0.00    +0.012 C 
DOCKED: ENDBRANCH  12  44
DOCKED: BRANCH  17  46
DOCKED: ATOM     46  C   UNL d   1      14.599   6.670 -11.699 -0.06 -0.00    +0.004 C 
DOCKED: ATOM     47  C   UNL d   1      13.606   5.905 -12.171 -0.06 -0.00    +0.012 C 
DOCKED: ENDBRANCH  17  46
DOCKED: TORSDOF 10
DOCKED: TER
DOCKED: ENDMDL
________________________________________________________________________________


	BEGINNING GENETIC ALGORITHM DOCKING 41 of 100
Run: 41 Seed: 1304097890 1963477732 [ Run 41 of 100 GA/GALS ]
Beginning LAMARCKIAN GENETIC ALGORITHM (LGA), with a maximum of 25000000 energy evaluations.

Final-Value: -10.001


	FINAL GENETIC ALGORITHM DOCKED STATE
	_______________________________________________


Detailed state:  trans 6.736 15.987 -13.494 quatxyzw -0.199911 0.140087 -0.943821 0.222740 center 8.287 34.468 -0.670 ntor 10 25.4492 147.5337 17.9124 19.0790 88.4947 -64.2767 111.6523 117.0996 -127.7273 -179.9691
State:	  6.736  15.987 -13.494  -0.205  0.144 -0.968 154.260     25.45  147.53   17.91   19.08   88.49  -64.28  111.65  117.10 -127.73 -179.97

DOCKED: MODEL       41
DOCKED: USER    Run = 41
DOCKED: USER    DPF = D:/Protein_go_brrr/autodock/final/mut_K82N/heme_O2/dock.dpf
DOCKED: USER  
DOCKED: USER    Estimated Free Energy of Binding    =   -4.74 kcal/mol  [=(1)+(2)+(3)-(4)]
DOCKED: USER    Estimated Inhibition Constant, Ki   =  336.75 uM (micromolar)  [Temperature = 298.15 K]
DOCKED: USER    
DOCKED: USER    (1) Final Intermolecular Energy     =   -7.72 kcal/mol
DOCKED: USER        vdW + Hbond + desolv Energy     =   -6.73 kcal/mol
DOCKED: USER        Electrostatic Energy            =   -0.99 kcal/mol
DOCKED: USER    (2) Final Total Internal Energy     =   -2.28 kcal/mol
DOCKED: USER    (3) Torsional Free Energy           =   +2.98 kcal/mol
DOCKED: USER    (4) Unbound System's Energy  [=(2)] =   -2.28 kcal/mol
DOCKED: USER    
DOCKED: USER    
DOCKED: USER    NEWDPF move heme_O2_opt.pdbqt
DOCKED: USER    NEWDPF about 8.287000 34.468000 -0.670000
DOCKED: USER    NEWDPF tran0 6.735543 15.987025 -13.493902
DOCKED: USER    NEWDPF quaternion0 -0.199911 0.140087 -0.943821 0.222740
DOCKED: USER    NEWDPF axisangle0 -0.205063 0.143697 -0.968143 154.260005
DOCKED: USER    NEWDPF quat0 -0.205063 0.143697 -0.968143 154.260005
DOCKED: USER    NEWDPF dihe0 25.45 147.53 17.91 19.08 88.49 -64.28 111.65 117.10 -127.73 -179.97 
DOCKED: USER  keepresnum = 1 
DOCKED: USER  
DOCKED: REMARK  10 active torsions:
DOCKED: REMARK  status: ('A' for Active; 'I' for Inactive)
DOCKED: REMARK    1  A    between atoms: C_6  and  C_10 
DOCKED: REMARK    2  A    between atoms: C_10  and  C_11 
DOCKED: REMARK    3  A    between atoms: C_11  and  C_12 
DOCKED: REMARK    4  A    between atoms: C_12  and  O_14 
DOCKED: REMARK    5  A    between atoms: C_17  and  C_20 
DOCKED: REMARK    6  A    between atoms: C_24  and  C_27 
DOCKED: REMARK    7  A    between atoms: C_31  and  C_34 
DOCKED: REMARK    8  A    between atoms: C_34  and  C_35 
DOCKED: REMARK    9  A    between atoms: C_35  and  C_36 
DOCKED: REMARK   10  A    between atoms: C_36  and  O_38 
DOCKED: USER                              x       y       z     vdW  Elec       q    Type
DOCKED: USER                           _______ _______ _______ _____ _____    ______ ____
DOCKED: ROOT
DOCKED: ATOM      1  C   UNL d   1       7.732  15.070 -15.127 -0.04 +0.00    +0.064 A 
DOCKED: ATOM      2  C   UNL d   1       9.234  16.537 -10.866 -0.16 -0.00    +0.064 A 
DOCKED: ATOM      3  C   UNL d   1       4.828  18.095  -9.746 -0.14 -0.02    +0.064 C 
DOCKED: ATOM      4  C   UNL d   1       3.167  16.158 -13.936 -0.18 -0.02    +0.064 A 
DOCKED: ATOM      5  C   UNL d   1       8.499  15.340 -14.058 -0.05 +0.00    +0.066 A 
DOCKED: ATOM      6  C   UNL d   1       9.868  15.063 -13.988 -0.05 -0.00    -0.021 A 
DOCKED: ATOM      7  C   UNL d   1      10.295  15.448 -12.738 -0.08 +0.00    -0.025 A 
DOCKED: ATOM      8  C   UNL d   1       9.186  15.994 -12.098 -0.11 -0.00    +0.066 A 
DOCKED: ATOM      9  C   UNL d   1      11.699  15.259 -12.207 -0.07 -0.00    +0.051 C 
DOCKED: ATOM     10  C   UNL d   1       8.110  17.144 -10.152 -0.18 -0.01    +0.066 A 
DOCKED: ATOM     11  C   UNL d   1       8.250  17.839  -8.946 -0.12 +0.00    -0.021 A 
DOCKED: ATOM     12  C   UNL d   1       6.993  18.312  -8.616 -0.23 -0.00    +0.000 A 
DOCKED: ATOM     13  C   UNL d   1       6.136  17.858  -9.657 -0.22 -0.02    +0.070 A 
DOCKED: ATOM     14  C   UNL d   1       9.533  18.067  -8.156 -0.08 -0.00    +0.052 C 
DOCKED: ATOM     15  C   UNL d   1       3.920  17.623 -10.764 -0.19 -0.02    +0.066 A 
DOCKED: ATOM     16  C   UNL d   1       2.534  17.767 -10.715 -0.25 +0.01    -0.021 A 
DOCKED: ATOM     17  C   UNL d   1       2.038  17.221 -11.899 -0.27 -0.00    +0.000 A 
DOCKED: ATOM     18  C   UNL d   1       3.175  16.781 -12.592 -0.19 -0.02    +0.070 A 
DOCKED: ATOM     19  C   UNL d   1       1.809  18.356  -9.531 -0.33 -0.02    +0.052 C 
DOCKED: ATOM     20  C   UNL d   1       4.233  15.685 -14.611 -0.12 -0.01    +0.066 A 
DOCKED: ATOM     21  C   UNL d   1       4.166  15.124 -15.883 -0.11 +0.01    -0.025 A 
DOCKED: ATOM     22  C   UNL d   1       5.461  14.833 -16.249 -0.07 +0.00    -0.021 A 
DOCKED: ATOM     23  C   UNL d   1       6.272  15.213 -15.175 -0.06 -0.00    +0.066 A 
DOCKED: ATOM     24  C   UNL d   1       2.929  14.874 -16.705 -0.14 -0.03    +0.051 C 
DOCKED: ATOM     25  N   UNL d   1       8.066  15.867 -12.887 -0.05 +0.01    -0.248 N 
DOCKED: ATOM     26  N   UNL d   1       6.823  17.144 -10.585 -0.13 +0.04    -0.248 N 
DOCKED: ATOM     27  N   UNL d   1       4.300  16.966 -11.856 -0.10 +0.05    -0.248 N 
DOCKED: ATOM     28  N   UNL d   1       5.517  15.689 -14.163 -0.05 +0.02    -0.248 N 
DOCKED: ATOM     29 FE   UNL d   1       6.163  16.412 -12.386 -0.03 -0.00    +0.000 Fe
DOCKED: ATOM     30  O   UNL d   1       6.697  15.187 -11.587 -0.39 -0.00    +0.000 OA
DOCKED: ATOM     31  O   UNL d   1       5.202  15.204 -12.083 -0.41 -0.00    +0.000 OA
DOCKED: ENDROOT
DOCKED: BRANCH   6  32
DOCKED: ATOM     32  C   UNL d   1      10.717  14.339 -15.001 -0.03 +0.00    +0.052 C 
DOCKED: BRANCH  32  33
DOCKED: ATOM     33  C   UNL d   1      10.041  13.088 -15.553 -0.04 +0.01    +0.115 C 
DOCKED: BRANCH  33  34
DOCKED: ATOM     34  C   UNL d   1       9.955  11.982 -14.531 -0.11 +0.02    +0.139 C 
DOCKED: ATOM     35  O   UNL d   1      10.980  11.500 -14.076 +0.02 -0.07    -0.650 OA
DOCKED: BRANCH  34  36
DOCKED: ATOM     36  O   UNL d   1       8.766  11.489 -14.126 -0.01 -0.32    -0.776 OA
DOCKED: ATOM     37  H   UNL d   1       7.980  11.531 -14.683 +0.04 +0.10    +0.167 HD
DOCKED: ENDBRANCH  34  36
DOCKED: ENDBRANCH  33  34
DOCKED: ENDBRANCH  32  33
DOCKED: ENDBRANCH   6  32
DOCKED: BRANCH  22  38
DOCKED: ATOM     38  C   UNL d   1       5.882  14.167 -17.534 -0.04 -0.00    +0.052 C 
DOCKED: BRANCH  38  39
DOCKED: ATOM     39  C   UNL d   1       5.654  12.658 -17.509 -0.09 +0.01    +0.115 C 
DOCKED: BRANCH  39  40
DOCKED: ATOM     40  C   UNL d   1       6.498  11.964 -16.470 -0.10 +0.06    +0.139 C 
DOCKED: ATOM     41  O   UNL d   1       6.146  11.968 -15.301 -0.43 -0.45    -0.650 OA
DOCKED: BRANCH  40  42
DOCKED: ATOM     42  O   UNL d   1       7.613  11.292 -16.815 -0.12 -0.39    -0.776 OA
DOCKED: ATOM     43  H   UNL d   1       8.361  11.211 -16.211 +0.02 +0.08    +0.167 HD
DOCKED: ENDBRANCH  40  42
DOCKED: ENDBRANCH  39  40
DOCKED: ENDBRANCH  38  39
DOCKED: ENDBRANCH  22  38
DOCKED: BRANCH  12  44
DOCKED: ATOM     44  C   UNL d   1       6.744  19.128  -7.365 -0.30 -0.00    +0.004 C 
DOCKED: ATOM     45  C   UNL d   1       5.574  19.430  -6.803 -0.39 -0.00    +0.012 C 
DOCKED: ENDBRANCH  12  44
DOCKED: BRANCH  17  46
DOCKED: ATOM     46  C   UNL d   1       0.626  17.035 -12.386 -0.31 -0.00    +0.004 C 
DOCKED: ATOM     47  C   UNL d   1      -0.500  17.559 -11.885 -0.26 -0.00    +0.012 C 
DOCKED: ENDBRANCH  17  46
DOCKED: TORSDOF 10
DOCKED: TER
DOCKED: ENDMDL
________________________________________________________________________________


	BEGINNING GENETIC ALGORITHM DOCKING 42 of 100
Run: 42 Seed: 1888000064 713971234 [ Run 42 of 100 GA/GALS ]
Beginning LAMARCKIAN GENETIC ALGORITHM (LGA), with a maximum of 25000000 energy evaluations.

Final-Value: -9.037


	FINAL GENETIC ALGORITHM DOCKED STATE
	_______________________________________________


Detailed state:  trans -5.216 22.529 4.663 quatxyzw 0.438966 -0.536446 -0.347911 0.631262 center 8.287 34.468 -0.670 ntor 10 -49.2293 37.9685 20.9765 90.7616 74.4326 73.4484 83.0861 -134.8461 2.6472 -38.1873
State:	 -5.216  22.529   4.663   0.566 -0.692 -0.449 101.713    -49.23   37.97   20.98   90.76   74.43   73.45   83.09 -134.85    2.65  -38.19

DOCKED: MODEL       42
DOCKED: USER    Run = 42
DOCKED: USER    DPF = D:/Protein_go_brrr/autodock/final/mut_K82N/heme_O2/dock.dpf
DOCKED: USER  
DOCKED: USER    Estimated Free Energy of Binding    =   -4.35 kcal/mol  [=(1)+(2)+(3)-(4)]
DOCKED: USER    Estimated Inhibition Constant, Ki   =  651.54 uM (micromolar)  [Temperature = 298.15 K]
DOCKED: USER    
DOCKED: USER    (1) Final Intermolecular Energy     =   -7.33 kcal/mol
DOCKED: USER        vdW + Hbond + desolv Energy     =   -5.55 kcal/mol
DOCKED: USER        Electrostatic Energy            =   -1.78 kcal/mol
DOCKED: USER    (2) Final Total Internal Energy     =   -1.71 kcal/mol
DOCKED: USER    (3) Torsional Free Energy           =   +2.98 kcal/mol
DOCKED: USER    (4) Unbound System's Energy  [=(2)] =   -1.71 kcal/mol
DOCKED: USER    
DOCKED: USER    
DOCKED: USER    NEWDPF move heme_O2_opt.pdbqt
DOCKED: USER    NEWDPF about 8.287000 34.468000 -0.670000
DOCKED: USER    NEWDPF tran0 -5.215805 22.528879 4.662530
DOCKED: USER    NEWDPF quaternion0 0.438966 -0.536446 -0.347911 0.631262
DOCKED: USER    NEWDPF axisangle0 0.565992 -0.691681 -0.448588 101.713414
DOCKED: USER    NEWDPF quat0 0.565992 -0.691681 -0.448588 101.713414
DOCKED: USER    NEWDPF dihe0 -49.23 37.97 20.98 90.76 74.43 73.45 83.09 -134.85 2.65 -38.19 
DOCKED: USER  keepresnum = 1 
DOCKED: USER  
DOCKED: REMARK  10 active torsions:
DOCKED: REMARK  status: ('A' for Active; 'I' for Inactive)
DOCKED: REMARK    1  A    between atoms: C_6  and  C_10 
DOCKED: REMARK    2  A    between atoms: C_10  and  C_11 
DOCKED: REMARK    3  A    between atoms: C_11  and  C_12 
DOCKED: REMARK    4  A    between atoms: C_12  and  O_14 
DOCKED: REMARK    5  A    between atoms: C_17  and  C_20 
DOCKED: REMARK    6  A    between atoms: C_24  and  C_27 
DOCKED: REMARK    7  A    between atoms: C_31  and  C_34 
DOCKED: REMARK    8  A    between atoms: C_34  and  C_35 
DOCKED: REMARK    9  A    between atoms: C_35  and  C_36 
DOCKED: REMARK   10  A    between atoms: C_36  and  O_38 
DOCKED: USER                              x       y       z     vdW  Elec       q    Type
DOCKED: USER                           _______ _______ _______ _____ _____    ______ ____
DOCKED: ROOT
DOCKED: ATOM      1  C   UNL d   1      -6.402  22.070   6.360 -0.04 +0.01    +0.064 A 
DOCKED: ATOM      2  C   UNL d   1      -2.327  24.455   5.844 -0.03 -0.01    +0.064 A 
DOCKED: ATOM      3  C   UNL d   1      -2.339  23.633   1.109 -0.15 -0.02    +0.064 C 
DOCKED: ATOM      4  C   UNL d   1      -6.776  21.588   1.557 -0.18 -0.00    +0.064 A 
DOCKED: ATOM      5  C   UNL d   1      -5.294  22.788   6.606 -0.02 +0.00    +0.066 A 
DOCKED: ATOM      6  C   UNL d   1      -4.904  23.215   7.878 -0.00 -0.00    -0.021 A 
DOCKED: ATOM      7  C   UNL d   1      -3.747  23.943   7.724 -0.00 +0.00    -0.025 A 
DOCKED: ATOM      8  C   UNL d   1      -3.436  23.899   6.368 -0.01 -0.00    +0.066 A 
DOCKED: ATOM      9  C   UNL d   1      -3.019  24.657   8.842 -0.00 -0.00    +0.051 C 
DOCKED: ATOM     10  C   UNL d   1      -1.936  24.423   4.434 -0.09 -0.01    +0.066 A 
DOCKED: ATOM     11  C   UNL d   1      -0.696  24.873   3.968 -0.14 +0.01    -0.021 A 
DOCKED: ATOM     12  C   UNL d   1      -0.673  24.628   2.608 -0.21 -0.00    +0.000 A 
DOCKED: ATOM     13  C   UNL d   1      -1.934  24.040   2.311 -0.19 -0.02    +0.070 A 
DOCKED: ATOM     14  C   UNL d   1       0.431  25.487   4.792 -0.11 -0.03    +0.052 C 
DOCKED: ATOM     15  C   UNL d   1      -3.620  23.066   0.761 -0.22 -0.02    +0.066 A 
DOCKED: ATOM     16  C   UNL d   1      -4.044  22.812  -0.543 -0.26 +0.01    -0.021 A 
DOCKED: ATOM     17  C   UNL d   1      -5.307  22.230  -0.440 -0.26 -0.00    +0.000 A 
DOCKED: ATOM     18  C   UNL d   1      -5.561  22.169   0.938 -0.21 -0.01    +0.070 A 
DOCKED: ATOM     19  C   UNL d   1      -3.239  23.195  -1.759 -0.29 -0.03    +0.052 C 
DOCKED: ATOM     20  C   UNL d   1      -7.070  21.552   2.871 -0.14 -0.00    +0.066 A 
DOCKED: ATOM     21  C   UNL d   1      -8.223  20.976   3.398 -0.18 -0.00    -0.025 A 
DOCKED: ATOM     22  C   UNL d   1      -8.120  21.080   4.767 -0.11 -0.00    -0.021 A 
DOCKED: ATOM     23  C   UNL d   1      -6.913  21.735   5.026 -0.09 +0.01    +0.066 A 
DOCKED: ATOM     24  C   UNL d   1      -9.365  20.360   2.633 -0.09 +0.01    +0.051 C 
DOCKED: ATOM     25  N   UNL d   1      -4.424  23.243   5.671 -0.02 +0.00    -0.248 N 
DOCKED: ATOM     26  N   UNL d   1      -2.698  23.923   3.427 -0.07 +0.04    -0.248 N 
DOCKED: ATOM     27  N   UNL d   1      -4.559  22.749   1.647 -0.12 +0.03    -0.248 N 
DOCKED: ATOM     28  N   UNL d   1      -6.299  22.061   3.869 -0.08 -0.00    -0.248 N 
DOCKED: ATOM     29 FE   UNL d   1      -4.512  22.985   3.647 -0.03 -0.00    +0.000 Fe
DOCKED: ATOM     30  O   UNL d   1      -4.725  24.458   4.102 -0.04 -0.00    +0.000 OA
DOCKED: ATOM     31  O   UNL d   1      -5.594  23.871   2.927 -0.07 -0.00    +0.000 OA
DOCKED: ENDROOT
DOCKED: BRANCH   6  32
DOCKED: ATOM     32  C   UNL d   1      -5.659  23.065   9.174 +0.00 +0.00    +0.052 C 
DOCKED: BRANCH  32  33
DOCKED: ATOM     33  C   UNL d   1      -5.388  21.733   9.867 +0.00 +0.01    +0.115 C 
DOCKED: BRANCH  33  34
DOCKED: ATOM     34  C   UNL d   1      -6.477  20.721   9.612 -0.00 +0.02    +0.139 C 
DOCKED: ATOM     35  O   UNL d   1      -7.538  20.813  10.208 +0.01 -0.07    -0.650 OA
DOCKED: BRANCH  34  36
DOCKED: ATOM     36  O   UNL d   1      -6.295  19.692   8.758 +0.02 -0.36    -0.776 OA
DOCKED: ATOM     37  H   UNL d   1      -5.942  19.822   7.870 +0.02 +0.11    +0.167 HD
DOCKED: ENDBRANCH  34  36
DOCKED: ENDBRANCH  33  34
DOCKED: ENDBRANCH  32  33
DOCKED: ENDBRANCH   6  32
DOCKED: BRANCH  22  38
DOCKED: ATOM     38  C   UNL d   1      -9.159  20.630   5.762 -0.05 +0.01    +0.052 C 
DOCKED: BRANCH  38  39
DOCKED: ATOM     39  C   UNL d   1      -9.383  19.120   5.727 -0.09 +0.03    +0.115 C 
DOCKED: BRANCH  39  40
DOCKED: ATOM     40  C   UNL d   1      -8.090  18.347   5.657 -0.19 +0.11    +0.139 C 
DOCKED: ATOM     41  O   UNL d   1      -8.023  17.339   4.972 -0.28 -0.62    -0.650 OA
DOCKED: BRANCH  40  42
DOCKED: ATOM     42  O   UNL d   1      -6.986  18.778   6.297 -0.26 -1.14    -0.776 OA
DOCKED: ATOM     43  H   UNL d   1      -7.032  19.153   7.185 +0.02 +0.16    +0.167 HD
DOCKED: ENDBRANCH  40  42
DOCKED: ENDBRANCH  39  40
DOCKED: ENDBRANCH  38  39
DOCKED: ENDBRANCH  22  38
DOCKED: BRANCH  12  44
DOCKED: ATOM     44  C   UNL d   1       0.524  24.977   1.748 -0.26 -0.00    +0.004 C 
DOCKED: ATOM     45  C   UNL d   1       0.576  25.082   0.421 -0.31 -0.01    +0.012 C 
DOCKED: ENDBRANCH  12  44
DOCKED: BRANCH  17  46
DOCKED: ATOM     46  C   UNL d   1      -6.284  21.795  -1.500 -0.30 -0.00    +0.004 C 
DOCKED: ATOM     47  C   UNL d   1      -6.316  20.637  -2.172 -0.41 -0.00    +0.012 C 
DOCKED: ENDBRANCH  17  46
DOCKED: TORSDOF 10
DOCKED: TER
DOCKED: ENDMDL
________________________________________________________________________________


	BEGINNING GENETIC ALGORITHM DOCKING 43 of 100
Run: 43 Seed: 1261154926 342559912 [ Run 43 of 100 GA/GALS ]
Beginning LAMARCKIAN GENETIC ALGORITHM (LGA), with a maximum of 25000000 energy evaluations.

Final-Value: -9.381


	FINAL GENETIC ALGORITHM DOCKED STATE
	_______________________________________________


Detailed state:  trans 9.274 -5.478 21.333 quatxyzw -0.576181 0.164573 0.705510 0.378401 center 8.287 34.468 -0.670 ntor 10 78.1447 112.5035 -99.5852 -107.1126 39.2107 -13.4759 41.0347 -87.2476 -4.1148 -17.8992
State:	  9.274  -5.478  21.333  -0.622  0.178  0.762 135.531     78.14  112.50  -99.59 -107.11   39.21  -13.48   41.03  -87.25   -4.11  -17.90

DOCKED: MODEL       43
DOCKED: USER    Run = 43
DOCKED: USER    DPF = D:/Protein_go_brrr/autodock/final/mut_K82N/heme_O2/dock.dpf
DOCKED: USER  
DOCKED: USER    Estimated Free Energy of Binding    =   -4.29 kcal/mol  [=(1)+(2)+(3)-(4)]
DOCKED: USER    Estimated Inhibition Constant, Ki   =  718.17 uM (micromolar)  [Temperature = 298.15 K]
DOCKED: USER    
DOCKED: USER    (1) Final Intermolecular Energy     =   -7.27 kcal/mol
DOCKED: USER        vdW + Hbond + desolv Energy     =   -6.38 kcal/mol
DOCKED: USER        Electrostatic Energy            =   -0.89 kcal/mol
DOCKED: USER    (2) Final Total Internal Energy     =   -2.11 kcal/mol
DOCKED: USER    (3) Torsional Free Energy           =   +2.98 kcal/mol
DOCKED: USER    (4) Unbound System's Energy  [=(2)] =   -2.11 kcal/mol
DOCKED: USER    
DOCKED: USER    
DOCKED: USER    NEWDPF move heme_O2_opt.pdbqt
DOCKED: USER    NEWDPF about 8.287000 34.468000 -0.670000
DOCKED: USER    NEWDPF tran0 9.273757 -5.477675 21.333203
DOCKED: USER    NEWDPF quaternion0 -0.576181 0.164573 0.705510 0.378401
DOCKED: USER    NEWDPF axisangle0 -0.622466 0.177793 0.762185 135.530665
DOCKED: USER    NEWDPF quat0 -0.622466 0.177793 0.762185 135.530665
DOCKED: USER    NEWDPF dihe0 78.14 112.50 -99.59 -107.11 39.21 -13.48 41.03 -87.25 -4.11 -17.90 
DOCKED: USER  keepresnum = 1 
DOCKED: USER  
DOCKED: REMARK  10 active torsions:
DOCKED: REMARK  status: ('A' for Active; 'I' for Inactive)
DOCKED: REMARK    1  A    between atoms: C_6  and  C_10 
DOCKED: REMARK    2  A    between atoms: C_10  and  C_11 
DOCKED: REMARK    3  A    between atoms: C_11  and  C_12 
DOCKED: REMARK    4  A    between atoms: C_12  and  O_14 
DOCKED: REMARK    5  A    between atoms: C_17  and  C_20 
DOCKED: REMARK    6  A    between atoms: C_24  and  C_27 
DOCKED: REMARK    7  A    between atoms: C_31  and  C_34 
DOCKED: REMARK    8  A    between atoms: C_34  and  C_35 
DOCKED: REMARK    9  A    between atoms: C_35  and  C_36 
DOCKED: REMARK   10  A    between atoms: C_36  and  O_38 
DOCKED: USER                              x       y       z     vdW  Elec       q    Type
DOCKED: USER                           _______ _______ _______ _____ _____    ______ ____
DOCKED: ROOT
DOCKED: ATOM      1  C   UNL d   1      10.324  -4.359  22.797 -0.09 +0.00    +0.064 A 
DOCKED: ATOM      2  C   UNL d   1       5.851  -4.166  21.211 -0.23 -0.01    +0.064 A 
DOCKED: ATOM      3  C   UNL d   1       6.705  -7.726  18.098 -0.22 -0.00    +0.064 C 
DOCKED: ATOM      4  C   UNL d   1      11.172  -8.256  20.054 -0.13 +0.01    +0.064 A 
DOCKED: ATOM      5  C   UNL d   1       9.037  -4.017  22.621 -0.14 -0.00    +0.066 A 
DOCKED: ATOM      6  C   UNL d   1       8.396  -2.993  23.324 -0.17 -0.00    -0.021 A 
DOCKED: ATOM      7  C   UNL d   1       7.089  -2.965  22.897 -0.21 +0.00    -0.025 A 
DOCKED: ATOM      8  C   UNL d   1       6.981  -3.941  21.909 -0.22 -0.00    +0.066 A 
DOCKED: ATOM      9  C   UNL d   1       6.016  -2.055  23.452 -0.19 -0.00    +0.051 C 
DOCKED: ATOM     10  C   UNL d   1       5.684  -5.159  20.149 -0.23 -0.01    +0.066 A 
DOCKED: ATOM     11  C   UNL d   1       4.541  -5.240  19.345 -0.27 +0.00    -0.021 A 
DOCKED: ATOM     12  C   UNL d   1       4.775  -6.249  18.429 -0.27 -0.00    +0.000 A 
DOCKED: ATOM     13  C   UNL d   1       6.071  -6.745  18.741 -0.23 -0.01    +0.070 A 
DOCKED: ATOM     14  C   UNL d   1       3.290  -4.373  19.429 -0.13 -0.01    +0.052 C 
DOCKED: ATOM     15  C   UNL d   1       8.001  -8.281  18.404 -0.18 +0.01    +0.066 A 
DOCKED: ATOM     16  C   UNL d   1       8.539  -9.415  17.797 -0.24 -0.00    -0.021 A 
DOCKED: ATOM     17  C   UNL d   1       9.812  -9.587  18.340 -0.21 +0.00    +0.000 A 
DOCKED: ATOM     18  C   UNL d   1       9.959  -8.528  19.248 -0.17 +0.01    +0.070 A 
DOCKED: ATOM     19  C   UNL d   1       7.776 -10.258  16.806 -0.28 +0.00    +0.052 C 
DOCKED: ATOM     20  C   UNL d   1      11.330  -7.276  20.965 -0.08 +0.00    +0.066 A 
DOCKED: ATOM     21  C   UNL d   1      12.504  -7.059  21.681 -0.05 -0.00    -0.025 A 
DOCKED: ATOM     22  C   UNL d   1      12.290  -5.935  22.448 -0.04 -0.00    -0.021 A 
DOCKED: ATOM     23  C   UNL d   1      10.981  -5.518  22.184 -0.07 +0.00    +0.066 A 
DOCKED: ATOM     24  C   UNL d   1      13.764  -7.883  21.638 -0.03 +0.00    +0.051 C 
DOCKED: ATOM     25  N   UNL d   1       8.164  -4.632  21.787 -0.12 +0.01    -0.248 N 
DOCKED: ATOM     26  N   UNL d   1       6.615  -6.079  19.791 -0.15 +0.02    -0.248 N 
DOCKED: ATOM     27  N   UNL d   1       8.822  -7.790  19.329 -0.11 -0.03    -0.248 N 
DOCKED: ATOM     28  N   UNL d   1      10.387  -6.363  21.316 -0.05 -0.01    -0.248 N 
DOCKED: ATOM     29 FE   UNL d   1       8.515  -6.225  20.558 -0.04 +0.00    +0.000 Fe
DOCKED: ATOM     30  O   UNL d   1       7.545  -6.540  21.733 -0.09 -0.00    +0.000 OA
DOCKED: ATOM     31  O   UNL d   1       8.622  -7.606  21.302 -0.08 +0.00    +0.000 OA
DOCKED: ENDROOT
DOCKED: BRANCH   6  32
DOCKED: ATOM     32  C   UNL d   1       8.948  -2.162  24.454 -0.13 +0.01    +0.052 C 
DOCKED: BRANCH  32  33
DOCKED: ATOM     33  C   UNL d   1       9.853  -1.033  23.971 -0.07 +0.04    +0.115 C 
DOCKED: BRANCH  33  34
DOCKED: ATOM     34  C   UNL d   1      11.047  -0.827  24.870 -0.09 +0.07    +0.139 C 
DOCKED: ATOM     35  O   UNL d   1      11.132   0.191  25.537 -0.30 -0.68    -0.650 OA
DOCKED: BRANCH  34  36
DOCKED: ATOM     36  O   UNL d   1      12.043  -1.735  24.934 +0.02 -0.22    -0.776 OA
DOCKED: ATOM     37  H   UNL d   1      12.724  -1.794  24.254 +0.02 +0.04    +0.167 HD
DOCKED: ENDBRANCH  34  36
DOCKED: ENDBRANCH  33  34
DOCKED: ENDBRANCH  32  33
DOCKED: ENDBRANCH   6  32
DOCKED: BRANCH  22  38
DOCKED: ATOM     38  C   UNL d   1      13.269  -5.340  23.426 -0.02 +0.00    +0.052 C 
DOCKED: BRANCH  38  39
DOCKED: ATOM     39  C   UNL d   1      14.276  -4.412  22.749 -0.02 +0.01    +0.115 C 
DOCKED: BRANCH  39  40
DOCKED: ATOM     40  C   UNL d   1      13.814  -2.976  22.731 -0.03 +0.01    +0.139 C 
DOCKED: ATOM     41  O   UNL d   1      14.571  -2.091  23.096 +0.02 -0.08    -0.650 OA
DOCKED: BRANCH  40  42
DOCKED: ATOM     42  O   UNL d   1      12.593  -2.644  22.269 +0.05 -0.08    -0.776 OA
DOCKED: ATOM     43  H   UNL d   1      11.921  -2.263  22.847 +0.04 +0.02    +0.167 HD
DOCKED: ENDBRANCH  40  42
DOCKED: ENDBRANCH  39  40
DOCKED: ENDBRANCH  38  39
DOCKED: ENDBRANCH  22  38
DOCKED: BRANCH  12  44
DOCKED: ATOM     44  C   UNL d   1       3.757  -6.630  17.374 -0.41 -0.00    +0.004 C 
DOCKED: ATOM     45  C   UNL d   1       3.460  -5.979  16.250 -0.56 -0.00    +0.012 C 
DOCKED: ENDBRANCH  12  44
DOCKED: BRANCH  17  46
DOCKED: ATOM     46  C   UNL d   1      10.843 -10.663  18.123 -0.15 +0.00    +0.004 C 
DOCKED: ATOM     47  C   UNL d   1      11.293 -11.569  19.001 -0.07 +0.00    +0.012 C 
DOCKED: ENDBRANCH  17  46
DOCKED: TORSDOF 10
DOCKED: TER
DOCKED: ENDMDL
________________________________________________________________________________


	BEGINNING GENETIC ALGORITHM DOCKING 44 of 100
Run: 44 Seed: 545910346 2102415510 [ Run 44 of 100 GA/GALS ]
Beginning LAMARCKIAN GENETIC ALGORITHM (LGA), with a maximum of 25000000 energy evaluations.

Final-Value: -9.594


	FINAL GENETIC ALGORITHM DOCKED STATE
	_______________________________________________


Detailed state:  trans 11.977 -3.203 21.144 quatxyzw 0.425486 0.160338 -0.460018 -0.762651 center 8.287 34.468 -0.670 ntor 10 166.2542 -8.9920 -65.1713 -108.8898 71.0574 136.6462 -83.9030 25.0127 -174.0374 179.9649
State:	 11.977  -3.203  21.144   0.658  0.248 -0.711 -80.603    166.25   -8.99  -65.17 -108.89   71.06  136.65  -83.90   25.01 -174.04  179.96

DOCKED: MODEL       44
DOCKED: USER    Run = 44
DOCKED: USER    DPF = D:/Protein_go_brrr/autodock/final/mut_K82N/heme_O2/dock.dpf
DOCKED: USER  
DOCKED: USER    Estimated Free Energy of Binding    =   -4.45 kcal/mol  [=(1)+(2)+(3)-(4)]
DOCKED: USER    Estimated Inhibition Constant, Ki   =  545.65 uM (micromolar)  [Temperature = 298.15 K]
DOCKED: USER    
DOCKED: USER    (1) Final Intermolecular Energy     =   -7.43 kcal/mol
DOCKED: USER        vdW + Hbond + desolv Energy     =   -5.32 kcal/mol
DOCKED: USER        Electrostatic Energy            =   -2.11 kcal/mol
DOCKED: USER    (2) Final Total Internal Energy     =   -2.16 kcal/mol
DOCKED: USER    (3) Torsional Free Energy           =   +2.98 kcal/mol
DOCKED: USER    (4) Unbound System's Energy  [=(2)] =   -2.16 kcal/mol
DOCKED: USER    
DOCKED: USER    
DOCKED: USER    NEWDPF move heme_O2_opt.pdbqt
DOCKED: USER    NEWDPF about 8.287000 34.468000 -0.670000
DOCKED: USER    NEWDPF tran0 11.977183 -3.203351 21.143770
DOCKED: USER    NEWDPF quaternion0 0.425486 0.160338 -0.460018 -0.762651
DOCKED: USER    NEWDPF axisangle0 0.657822 0.247890 -0.711211 -80.603042
DOCKED: USER    NEWDPF quat0 0.657822 0.247890 -0.711211 -80.603042
DOCKED: USER    NEWDPF dihe0 166.25 -8.99 -65.17 -108.89 71.06 136.65 -83.90 25.01 -174.04 179.96 
DOCKED: USER  keepresnum = 1 
DOCKED: USER  
DOCKED: REMARK  10 active torsions:
DOCKED: REMARK  status: ('A' for Active; 'I' for Inactive)
DOCKED: REMARK    1  A    between atoms: C_6  and  C_10 
DOCKED: REMARK    2  A    between atoms: C_10  and  C_11 
DOCKED: REMARK    3  A    between atoms: C_11  and  C_12 
DOCKED: REMARK    4  A    between atoms: C_12  and  O_14 
DOCKED: REMARK    5  A    between atoms: C_17  and  C_20 
DOCKED: REMARK    6  A    between atoms: C_24  and  C_27 
DOCKED: REMARK    7  A    between atoms: C_31  and  C_34 
DOCKED: REMARK    8  A    between atoms: C_34  and  C_35 
DOCKED: REMARK    9  A    between atoms: C_35  and  C_36 
DOCKED: REMARK   10  A    between atoms: C_36  and  O_38 
DOCKED: USER                              x       y       z     vdW  Elec       q    Type
DOCKED: USER                           _______ _______ _______ _____ _____    ______ ____
DOCKED: ROOT
DOCKED: ATOM      1  C   UNL d   1      11.617  -1.380  22.166 -0.15 +0.01    +0.064 A 
DOCKED: ATOM      2  C   UNL d   1       9.404  -5.582  22.225 -0.08 +0.00    +0.064 A 
DOCKED: ATOM      3  C   UNL d   1      12.471  -7.347  18.973 -0.25 +0.01    +0.064 C 
DOCKED: ATOM      4  C   UNL d   1      15.045  -3.180  19.260 -0.10 +0.00    +0.064 A 
DOCKED: ATOM      5  C   UNL d   1      10.766  -2.379  22.449 -0.19 +0.01    +0.066 A 
DOCKED: ATOM      6  C   UNL d   1       9.695  -2.267  23.340 -0.19 -0.00    -0.021 A 
DOCKED: ATOM      7  C   UNL d   1       9.080  -3.496  23.391 -0.12 -0.00    -0.025 A 
DOCKED: ATOM      8  C   UNL d   1       9.762  -4.312  22.492 -0.12 -0.00    +0.066 A 
DOCKED: ATOM      9  C   UNL d   1       7.915  -3.845  24.292 -0.06 +0.00    +0.051 C 
DOCKED: ATOM     10  C   UNL d   1      10.066  -6.478  21.276 -0.06 +0.00    +0.066 A 
DOCKED: ATOM     11  C   UNL d   1       9.556  -7.731  20.916 -0.09 -0.00    -0.021 A 
DOCKED: ATOM     12  C   UNL d   1      10.417  -8.248  19.966 -0.15 +0.00    +0.000 A 
DOCKED: ATOM     13  C   UNL d   1      11.433  -7.265  19.806 -0.10 +0.01    +0.070 A 
DOCKED: ATOM     14  C   UNL d   1       8.286  -8.394  21.436 -0.04 +0.00    +0.052 C 
DOCKED: ATOM     15  C   UNL d   1      13.539  -6.391  18.807 -0.23 +0.01    +0.066 A 
DOCKED: ATOM     16  C   UNL d   1      14.683  -6.609  18.041 -0.22 -0.00    -0.021 A 
DOCKED: ATOM     17  C   UNL d   1      15.433  -5.434  18.108 -0.16 +0.00    +0.000 A 
DOCKED: ATOM     18  C   UNL d   1      14.678  -4.576  18.920 -0.14 +0.01    +0.070 A 
DOCKED: ATOM     19  C   UNL d   1      14.983  -7.923  17.365 -0.22 +0.01    +0.052 C 
DOCKED: ATOM     20  C   UNL d   1      14.366  -2.345  20.070 -0.08 +0.00    +0.066 A 
DOCKED: ATOM     21  C   UNL d   1      14.752  -1.034  20.338 -0.06 -0.00    -0.025 A 
DOCKED: ATOM     22  C   UNL d   1      13.772  -0.497  21.143 -0.12 -0.00    -0.021 A 
DOCKED: ATOM     23  C   UNL d   1      12.831  -1.509  21.351 -0.15 +0.01    +0.066 A 
DOCKED: ATOM     24  C   UNL d   1      15.994  -0.331  19.854 -0.03 +0.00    +0.051 C 
DOCKED: ATOM     25  N   UNL d   1      10.840  -3.642  21.961 -0.10 -0.00    -0.248 N 
DOCKED: ATOM     26  N   UNL d   1      11.214  -6.194  20.610 +0.03 -0.02    -0.248 N 
DOCKED: ATOM     27  N   UNL d   1      13.570  -5.198  19.396 -0.13 -0.03    -0.248 N 
DOCKED: ATOM     28  N   UNL d   1      13.219  -2.644  20.734 -0.07 -0.02    -0.248 N 
DOCKED: ATOM     29 FE   UNL d   1      12.226  -4.407  20.671 -0.04 +0.00    +0.000 Fe
DOCKED: ATOM     30  O   UNL d   1      12.308  -5.004  22.106 -0.08 +0.00    +0.000 OA
DOCKED: ATOM     31  O   UNL d   1      13.633  -4.681  21.318 -0.08 +0.00    +0.000 OA
DOCKED: ENDROOT
DOCKED: BRANCH   6  32
DOCKED: ATOM     32  C   UNL d   1       9.344  -1.093  24.217 -0.15 +0.02    +0.052 C 
DOCKED: BRANCH  32  33
DOCKED: ATOM     33  C   UNL d   1      10.007  -1.159  25.590 -0.10 +0.04    +0.115 C 
DOCKED: BRANCH  33  34
DOCKED: ATOM     34  C   UNL d   1      11.312  -0.404  25.635 -0.11 +0.09    +0.139 C 
DOCKED: ATOM     35  O   UNL d   1      12.323  -0.919  25.185 -0.02 -0.29    -0.650 OA
DOCKED: BRANCH  34  36
DOCKED: ATOM     36  O   UNL d   1      11.395   0.824  26.188 -0.50 -1.26    -0.776 OA
DOCKED: ATOM     37  H   UNL d   1      12.242   1.235  26.395 +0.01 +0.31    +0.167 HD
DOCKED: ENDBRANCH  34  36
DOCKED: ENDBRANCH  33  34
DOCKED: ENDBRANCH  32  33
DOCKED: ENDBRANCH   6  32
DOCKED: BRANCH  22  38
DOCKED: ATOM     38  C   UNL d   1      13.780   0.892  21.728 -0.14 +0.02    +0.052 C 
DOCKED: BRANCH  38  39
DOCKED: ATOM     39  C   UNL d   1      14.700   1.007  22.941 -0.08 +0.04    +0.115 C 
DOCKED: BRANCH  39  40
DOCKED: ATOM     40  C   UNL d   1      14.310   2.141  23.855 -0.06 +0.10    +0.139 C 
DOCKED: ATOM     41  O   UNL d   1      14.616   3.286  23.565 -0.02 -0.40    -0.650 OA
DOCKED: BRANCH  40  42
DOCKED: ATOM     42  O   UNL d   1      13.581   1.920  24.966 +0.01 -0.96    -0.776 OA
DOCKED: ATOM     43  H   UNL d   1      13.213   1.050  25.163 +0.00 +0.18    +0.167 HD
DOCKED: ENDBRANCH  40  42
DOCKED: ENDBRANCH  39  40
DOCKED: ENDBRANCH  38  39
DOCKED: ENDBRANCH  22  38
DOCKED: BRANCH  12  44
DOCKED: ATOM     44  C   UNL d   1      10.188  -9.600  19.324 -0.15 +0.00    +0.004 C 
DOCKED: ATOM     45  C   UNL d   1       9.840  -9.861  18.065 -0.23 +0.00    +0.012 C 
DOCKED: ENDBRANCH  12  44
DOCKED: BRANCH  17  46
DOCKED: ATOM     46  C   UNL d   1      16.782  -5.089  17.537 -0.13 +0.00    +0.004 C 
DOCKED: ATOM     47  C   UNL d   1      17.910  -4.795  18.197 -0.07 +0.00    +0.012 C 
DOCKED: ENDBRANCH  17  46
DOCKED: TORSDOF 10
DOCKED: TER
DOCKED: ENDMDL
________________________________________________________________________________


	BEGINNING GENETIC ALGORITHM DOCKING 45 of 100
Run: 45 Seed: 34949789 1562908975 [ Run 45 of 100 GA/GALS ]
Beginning LAMARCKIAN GENETIC ALGORITHM (LGA), with a maximum of 25000000 energy evaluations.

Final-Value: -9.345


	FINAL GENETIC ALGORITHM DOCKED STATE
	_______________________________________________


Detailed state:  trans 13.007 4.712 20.048 quatxyzw 0.632268 -0.398404 -0.658321 -0.090138 center 8.287 34.468 -0.670 ntor 10 6.5796 63.8209 -50.7140 -119.6526 -133.9211 81.4103 -105.9097 -60.3009 -180.0000 147.0472
State:	 13.007   4.712  20.048   0.635 -0.400 -0.661 -169.657      6.58   63.82  -50.71 -119.65 -133.92   81.41 -105.91  -60.30 -180.00  147.05

DOCKED: MODEL       45
DOCKED: USER    Run = 45
DOCKED: USER    DPF = D:/Protein_go_brrr/autodock/final/mut_K82N/heme_O2/dock.dpf
DOCKED: USER  
DOCKED: USER    Estimated Free Energy of Binding    =   -5.70 kcal/mol  [=(1)+(2)+(3)-(4)]
DOCKED: USER    Estimated Inhibition Constant, Ki   =   66.89 uM (micromolar)  [Temperature = 298.15 K]
DOCKED: USER    
DOCKED: USER    (1) Final Intermolecular Energy     =   -8.68 kcal/mol
DOCKED: USER        vdW + Hbond + desolv Energy     =   -6.03 kcal/mol
DOCKED: USER        Electrostatic Energy            =   -2.65 kcal/mol
DOCKED: USER    (2) Final Total Internal Energy     =   -0.67 kcal/mol
DOCKED: USER    (3) Torsional Free Energy           =   +2.98 kcal/mol
DOCKED: USER    (4) Unbound System's Energy  [=(2)] =   -0.67 kcal/mol
DOCKED: USER    
DOCKED: USER    
DOCKED: USER    NEWDPF move heme_O2_opt.pdbqt
DOCKED: USER    NEWDPF about 8.287000 34.468000 -0.670000
DOCKED: USER    NEWDPF tran0 13.006820 4.711629 20.047973
DOCKED: USER    NEWDPF quaternion0 0.632268 -0.398404 -0.658321 -0.090138
DOCKED: USER    NEWDPF axisangle0 0.634852 -0.400032 -0.661012 -169.656865
DOCKED: USER    NEWDPF quat0 0.634852 -0.400032 -0.661012 -169.656865
DOCKED: USER    NEWDPF dihe0 6.58 63.82 -50.71 -119.65 -133.92 81.41 -105.91 -60.30 -180.00 147.05 
DOCKED: USER  keepresnum = 1 
DOCKED: USER  
DOCKED: REMARK  10 active torsions:
DOCKED: REMARK  status: ('A' for Active; 'I' for Inactive)
DOCKED: REMARK    1  A    between atoms: C_6  and  C_10 
DOCKED: REMARK    2  A    between atoms: C_10  and  C_11 
DOCKED: REMARK    3  A    between atoms: C_11  and  C_12 
DOCKED: REMARK    4  A    between atoms: C_12  and  O_14 
DOCKED: REMARK    5  A    between atoms: C_17  and  C_20 
DOCKED: REMARK    6  A    between atoms: C_24  and  C_27 
DOCKED: REMARK    7  A    between atoms: C_31  and  C_34 
DOCKED: REMARK    8  A    between atoms: C_34  and  C_35 
DOCKED: REMARK    9  A    between atoms: C_35  and  C_36 
DOCKED: REMARK   10  A    between atoms: C_36  and  O_38 
DOCKED: USER                              x       y       z     vdW  Elec       q    Type
DOCKED: USER                           _______ _______ _______ _____ _____    ______ ____
DOCKED: ROOT
DOCKED: ATOM      1  C   UNL d   1      13.843   5.146  21.948 -0.07 +0.03    +0.064 A 
DOCKED: ATOM      2  C   UNL d   1      11.324   7.754  18.880 -0.02 +0.00    +0.064 A 
DOCKED: ATOM      3  C   UNL d   1      11.108   4.078  15.792 -0.25 -0.01    +0.064 C 
DOCKED: ATOM      4  C   UNL d   1      13.287   1.238  19.146 -0.15 +0.01    +0.064 A 
DOCKED: ATOM      5  C   UNL d   1      13.174   6.155  21.366 -0.05 +0.02    +0.066 A 
DOCKED: ATOM      6  C   UNL d   1      13.023   7.424  21.933 -0.03 -0.00    -0.021 A 
DOCKED: ATOM      7  C   UNL d   1      12.258   8.166  21.065 -0.01 -0.00    -0.025 A 
DOCKED: ATOM      8  C   UNL d   1      12.002   7.346  19.970 -0.02 +0.01    +0.066 A 
DOCKED: ATOM      9  C   UNL d   1      11.787   9.582  21.320 -0.00 +0.00    +0.051 C 
DOCKED: ATOM     10  C   UNL d   1      11.045   6.946  17.691 -0.06 +0.00    +0.066 A 
DOCKED: ATOM     11  C   UNL d   1      10.481   7.467  16.522 -0.11 +0.00    -0.021 A 
DOCKED: ATOM     12  C   UNL d   1      10.427   6.427  15.613 -0.21 -0.00    +0.000 A 
DOCKED: ATOM     13  C   UNL d   1      10.962   5.301  16.299 -0.16 -0.00    +0.070 A 
DOCKED: ATOM     14  C   UNL d   1      10.038   8.904  16.272 -0.12 -0.00    +0.052 C 
DOCKED: ATOM     15  C   UNL d   1      11.612   2.904  16.464 -0.18 -0.01    +0.066 A 
DOCKED: ATOM     16  C   UNL d   1      11.586   1.616  15.931 -0.23 +0.00    -0.021 A 
DOCKED: ATOM     17  C   UNL d   1      12.202   0.789  16.871 -0.30 -0.00    +0.000 A 
DOCKED: ATOM     18  C   UNL d   1      12.563   1.646  17.919 -0.20 -0.00    +0.070 A 
DOCKED: ATOM     19  C   UNL d   1      10.935   1.284  14.612 -0.38 -0.02    +0.052 C 
DOCKED: ATOM     20  C   UNL d   1      13.610   2.026  20.190 -0.12 +0.01    +0.066 A 
DOCKED: ATOM     21  C   UNL d   1      14.309   1.587  21.311 -0.10 -0.01    -0.025 A 
DOCKED: ATOM     22  C   UNL d   1      14.500   2.694  22.108 -0.09 -0.01    -0.021 A 
DOCKED: ATOM     23  C   UNL d   1      13.893   3.767  21.449 -0.08 +0.03    +0.066 A 
DOCKED: ATOM     24  C   UNL d   1      14.767   0.183  21.609 -0.07 +0.01    +0.051 C 
DOCKED: ATOM     25  N   UNL d   1      12.512   6.086  20.186 -0.03 -0.05    -0.248 N 
DOCKED: ATOM     26  N   UNL d   1      11.331   5.625  17.565 -0.06 -0.01    -0.248 N 
DOCKED: ATOM     27  N   UNL d   1      12.130   2.912  17.689 -0.13 -0.00    -0.248 N 
DOCKED: ATOM     28  N   UNL d   1      13.314   3.347  20.305 -0.09 -0.07    -0.248 N 
DOCKED: ATOM     29 FE   UNL d   1      12.329   4.475  18.943 -0.02 +0.00    +0.000 Fe
DOCKED: ATOM     30  O   UNL d   1      10.993   4.903  19.618 -0.23 +0.00    +0.000 OA
DOCKED: ATOM     31  O   UNL d   1      11.330   3.373  19.454 -0.26 +0.00    +0.000 OA
DOCKED: ENDROOT
DOCKED: BRANCH   6  32
DOCKED: ATOM     32  C   UNL d   1      13.463   7.883  23.299 -0.02 +0.01    +0.052 C 
DOCKED: BRANCH  32  33
DOCKED: ATOM     33  C   UNL d   1      12.346   7.814  24.335 -0.03 +0.04    +0.115 C 
DOCKED: BRANCH  33  34
DOCKED: ATOM     34  C   UNL d   1      12.010   6.396  24.725 -0.03 +0.13    +0.139 C 
DOCKED: ATOM     35  O   UNL d   1      12.762   5.779  25.463 -0.50 -0.90    -0.650 OA
DOCKED: BRANCH  34  36
DOCKED: ATOM     36  O   UNL d   1      10.907   5.779  24.254 +0.30 -1.05    -0.776 OA
DOCKED: ATOM     37  H   UNL d   1      10.346   6.180  23.580 +0.01 +0.13    +0.167 HD
DOCKED: ENDBRANCH  34  36
DOCKED: ENDBRANCH  33  34
DOCKED: ENDBRANCH  32  33
DOCKED: ENDBRANCH   6  32
DOCKED: BRANCH  22  38
DOCKED: ATOM     38  C   UNL d   1      15.173   2.699  23.456 -0.07 +0.02    +0.052 C 
DOCKED: BRANCH  38  39
DOCKED: ATOM     39  C   UNL d   1      14.194   2.979  24.594 +0.00 +0.11    +0.115 C 
DOCKED: BRANCH  39  40
DOCKED: ATOM     40  C   UNL d   1      14.109   1.836  25.575 -0.05 +0.12    +0.139 C 
DOCKED: ATOM     41  O   UNL d   1      13.017   1.445  25.956 -0.29 -0.96    -0.650 OA
DOCKED: BRANCH  40  42
DOCKED: ATOM     42  O   UNL d   1      15.218   1.203  26.003 +0.01 -0.30    -0.776 OA
DOCKED: ATOM     43  H   UNL d   1      15.875   1.649  26.551 +0.01 +0.05    +0.167 HD
DOCKED: ENDBRANCH  40  42
DOCKED: ENDBRANCH  39  40
DOCKED: ENDBRANCH  38  39
DOCKED: ENDBRANCH  22  38
DOCKED: BRANCH  12  44
DOCKED: ATOM     44  C   UNL d   1       9.878   6.609  14.214 -0.32 -0.00    +0.004 C 
DOCKED: ATOM     45  C   UNL d   1      10.478   6.334  13.056 -0.32 -0.00    +0.012 C 
DOCKED: ENDBRANCH  12  44
DOCKED: BRANCH  17  46
DOCKED: ATOM     46  C   UNL d   1      12.417  -0.701  16.885 -0.44 -0.00    +0.004 C 
DOCKED: ATOM     47  C   UNL d   1      12.079  -1.578  17.839 -0.44 -0.00    +0.012 C 
DOCKED: ENDBRANCH  17  46
DOCKED: TORSDOF 10
DOCKED: TER
DOCKED: ENDMDL
________________________________________________________________________________


	BEGINNING GENETIC ALGORITHM DOCKING 46 of 100
Run: 46 Seed: 1799421438 1305818231 [ Run 46 of 100 GA/GALS ]
Beginning LAMARCKIAN GENETIC ALGORITHM (LGA), with a maximum of 25000000 energy evaluations.

Final-Value: -9.808


	FINAL GENETIC ALGORITHM DOCKED STATE
	_______________________________________________


Detailed state:  trans -11.612 13.641 -6.402 quatxyzw -0.172568 -0.288470 0.794544 -0.505672 center 8.287 34.468 -0.670 ntor 10 69.5516 169.8884 -25.5322 125.1286 -103.1612 167.5151 -30.9269 94.1906 152.7211 160.8523
State:	-11.612  13.641  -6.402  -0.200 -0.334  0.921 -119.248     69.55  169.89  -25.53  125.13 -103.16  167.52  -30.93   94.19  152.72  160.85

DOCKED: MODEL       46
DOCKED: USER    Run = 46
DOCKED: USER    DPF = D:/Protein_go_brrr/autodock/final/mut_K82N/heme_O2/dock.dpf
DOCKED: USER  
DOCKED: USER    Estimated Free Energy of Binding    =   -4.69 kcal/mol  [=(1)+(2)+(3)-(4)]
DOCKED: USER    Estimated Inhibition Constant, Ki   =  366.91 uM (micromolar)  [Temperature = 298.15 K]
DOCKED: USER    
DOCKED: USER    (1) Final Intermolecular Energy     =   -7.67 kcal/mol
DOCKED: USER        vdW + Hbond + desolv Energy     =   -5.97 kcal/mol
DOCKED: USER        Electrostatic Energy            =   -1.70 kcal/mol
DOCKED: USER    (2) Final Total Internal Energy     =   -2.14 kcal/mol
DOCKED: USER    (3) Torsional Free Energy           =   +2.98 kcal/mol
DOCKED: USER    (4) Unbound System's Energy  [=(2)] =   -2.14 kcal/mol
DOCKED: USER    
DOCKED: USER    
DOCKED: USER    NEWDPF move heme_O2_opt.pdbqt
DOCKED: USER    NEWDPF about 8.287000 34.468000 -0.670000
DOCKED: USER    NEWDPF tran0 -11.612247 13.640589 -6.402067
DOCKED: USER    NEWDPF quaternion0 -0.172568 -0.288470 0.794544 -0.505672
DOCKED: USER    NEWDPF axisangle0 -0.200027 -0.334370 0.920970 -119.248003
DOCKED: USER    NEWDPF quat0 -0.200027 -0.334370 0.920970 -119.248003
DOCKED: USER    NEWDPF dihe0 69.55 169.89 -25.53 125.13 -103.16 167.52 -30.93 94.19 152.72 160.85 
DOCKED: USER  keepresnum = 1 
DOCKED: USER  
DOCKED: REMARK  10 active torsions:
DOCKED: REMARK  status: ('A' for Active; 'I' for Inactive)
DOCKED: REMARK    1  A    between atoms: C_6  and  C_10 
DOCKED: REMARK    2  A    between atoms: C_10  and  C_11 
DOCKED: REMARK    3  A    between atoms: C_11  and  C_12 
DOCKED: REMARK    4  A    between atoms: C_12  and  O_14 
DOCKED: REMARK    5  A    between atoms: C_17  and  C_20 
DOCKED: REMARK    6  A    between atoms: C_24  and  C_27 
DOCKED: REMARK    7  A    between atoms: C_31  and  C_34 
DOCKED: REMARK    8  A    between atoms: C_34  and  C_35 
DOCKED: REMARK    9  A    between atoms: C_35  and  C_36 
DOCKED: REMARK   10  A    between atoms: C_36  and  O_38 
DOCKED: USER                              x       y       z     vdW  Elec       q    Type
DOCKED: USER                           _______ _______ _______ _____ _____    ______ ____
DOCKED: ROOT
DOCKED: ATOM      1  C   UNL d   1     -10.781  11.985  -7.435 -0.18 +0.02    +0.064 A 
DOCKED: ATOM      2  C   UNL d   1     -11.463  12.872  -2.819 -0.26 +0.02    +0.064 A 
DOCKED: ATOM      3  C   UNL d   1     -13.326  17.186  -3.829 -0.11 +0.03    +0.064 C 
DOCKED: ATOM      4  C   UNL d   1     -13.070  16.088  -8.604 -0.09 +0.05    +0.064 A 
DOCKED: ATOM      5  C   UNL d   1     -10.816  11.874  -6.097 -0.21 +0.02    +0.066 A 
DOCKED: ATOM      6  C   UNL d   1     -10.339  10.766  -5.391 -0.28 -0.01    -0.021 A 
DOCKED: ATOM      7  C   UNL d   1     -10.576  11.003  -4.057 -0.36 -0.01    -0.025 A 
DOCKED: ATOM      8  C   UNL d   1     -11.147  12.270  -3.982 -0.27 +0.02    +0.066 A 
DOCKED: ATOM      9  C   UNL d   1     -10.283  10.026  -2.939 -0.38 +0.01    +0.051 C 
DOCKED: ATOM     10  C   UNL d   1     -12.043  14.208  -2.676 -0.18 +0.02    +0.066 A 
DOCKED: ATOM     11  C   UNL d   1     -12.200  14.851  -1.442 -0.29 -0.00    -0.021 A 
DOCKED: ATOM     12  C   UNL d   1     -12.719  16.103  -1.714 -0.22 +0.00    +0.000 A 
DOCKED: ATOM     13  C   UNL d   1     -12.864  16.150  -3.128 -0.14 +0.03    +0.070 A 
DOCKED: ATOM     14  C   UNL d   1     -11.844  14.303  -0.065 -0.29 +0.01    +0.052 C 
DOCKED: ATOM     15  C   UNL d   1     -13.521  17.260  -5.257 +0.01 +0.04    +0.066 A 
DOCKED: ATOM     16  C   UNL d   1     -14.161  18.311  -5.914 -0.06 -0.01    -0.021 A 
DOCKED: ATOM     17  C   UNL d   1     -14.101  18.019  -7.276 -0.06 +0.00    +0.000 A 
DOCKED: ATOM     18  C   UNL d   1     -13.418  16.797  -7.350 -0.01 +0.06    +0.070 A 
DOCKED: ATOM     19  C   UNL d   1     -14.815  19.459  -5.186 -0.02 +0.01    +0.052 C 
DOCKED: ATOM     20  C   UNL d   1     -12.453  14.895  -8.708 -0.12 +0.04    +0.066 A 
DOCKED: ATOM     21  C   UNL d   1     -12.136  14.284  -9.918 -0.11 -0.01    -0.025 A 
DOCKED: ATOM     22  C   UNL d   1     -11.459  13.127  -9.605 -0.13 -0.01    -0.021 A 
DOCKED: ATOM     23  C   UNL d   1     -11.404  13.065  -8.209 -0.17 +0.03    +0.066 A 
DOCKED: ATOM     24  C   UNL d   1     -12.465  14.778 -11.303 -0.06 +0.01    +0.051 C 
DOCKED: ATOM     25  N   UNL d   1     -11.355  12.778  -5.243 -0.14 -0.09    -0.248 N 
DOCKED: ATOM     26  N   UNL d   1     -12.455  14.992  -3.705 -0.11 -0.11    -0.248 N 
DOCKED: ATOM     27  N   UNL d   1     -13.140  16.315  -6.112 +0.08 -0.21    -0.248 N 
DOCKED: ATOM     28  N   UNL d   1     -12.049  14.118  -7.668 -0.11 -0.16    -0.248 N 
DOCKED: ATOM     29 FE   UNL d   1     -12.252  14.554  -5.702 -0.05 +0.00    +0.000 Fe
DOCKED: ATOM     30  O   UNL d   1     -13.227  13.490  -5.119 -0.11 +0.00    +0.000 OA
DOCKED: ATOM     31  O   UNL d   1     -13.698  14.413  -6.305 -0.09 +0.00    +0.000 OA
DOCKED: ENDROOT
DOCKED: BRANCH   6  32
DOCKED: ATOM     32  C   UNL d   1      -9.806   9.473  -5.953 -0.29 +0.02    +0.052 C 
DOCKED: BRANCH  32  33
DOCKED: ATOM     33  C   UNL d   1     -10.560   8.249  -5.440 -0.23 +0.07    +0.115 C 
DOCKED: BRANCH  33  34
DOCKED: ATOM     34  C   UNL d   1     -10.639   7.149  -6.469 -0.18 +0.13    +0.139 C 
DOCKED: ATOM     35  O   UNL d   1      -9.945   6.153  -6.343 -0.42 -1.03    -0.650 OA
DOCKED: BRANCH  34  36
DOCKED: ATOM     36  O   UNL d   1     -11.442   7.252  -7.548 +0.03 -0.57    -0.776 OA
DOCKED: ATOM     37  H   UNL d   1     -11.260   7.873  -8.263 +0.03 +0.07    +0.167 HD
DOCKED: ENDBRANCH  34  36
DOCKED: ENDBRANCH  33  34
DOCKED: ENDBRANCH  32  33
DOCKED: ENDBRANCH   6  32
DOCKED: BRANCH  22  38
DOCKED: ATOM     38  C   UNL d   1     -10.953  12.110 -10.595 -0.10 +0.02    +0.052 C 
DOCKED: BRANCH  38  39
DOCKED: ATOM     39  C   UNL d   1     -11.912  10.933 -10.762 -0.02 +0.02    +0.115 C 
DOCKED: BRANCH  39  40
DOCKED: ATOM     40  C   UNL d   1     -11.669   9.843  -9.748 -0.01 +0.03    +0.139 C 
DOCKED: ATOM     41  O   UNL d   1     -10.533   9.441  -9.551 +0.04 -0.14    -0.650 OA
DOCKED: BRANCH  40  42
DOCKED: ATOM     42  O   UNL d   1     -12.679   9.337  -9.015 +0.03 -0.18    -0.776 OA
DOCKED: ATOM     43  H   UNL d   1     -12.552   8.571  -8.442 +0.01 +0.05    +0.167 HD
DOCKED: ENDBRANCH  40  42
DOCKED: ENDBRANCH  39  40
DOCKED: ENDBRANCH  38  39
DOCKED: ENDBRANCH  22  38
DOCKED: BRANCH  12  44
DOCKED: ATOM     44  C   UNL d   1     -13.021  17.104  -0.618 -0.17 +0.00    +0.004 C 
DOCKED: ATOM     45  C   UNL d   1     -12.988  18.434  -0.692 -0.13 +0.00    +0.012 C 
DOCKED: ENDBRANCH  12  44
DOCKED: BRANCH  17  46
DOCKED: ATOM     46  C   UNL d   1     -14.667  18.745  -8.468 -0.02 +0.00    +0.004 C 
DOCKED: ATOM     47  C   UNL d   1     -14.006  19.286  -9.499 -0.02 +0.00    +0.012 C 
DOCKED: ENDBRANCH  17  46
DOCKED: TORSDOF 10
DOCKED: TER
DOCKED: ENDMDL
________________________________________________________________________________


	BEGINNING GENETIC ALGORITHM DOCKING 47 of 100
Run: 47 Seed: 2140113173 1528113640 [ Run 47 of 100 GA/GALS ]
Beginning LAMARCKIAN GENETIC ALGORITHM (LGA), with a maximum of 25000000 energy evaluations.

Final-Value: -11.568


	FINAL GENETIC ALGORITHM DOCKED STATE
	_______________________________________________


Detailed state:  trans -8.369 10.443 -11.518 quatxyzw 0.016122 -0.365744 0.074468 0.927591 center 8.287 34.468 -0.670 ntor 10 -100.3895 -114.2484 136.9579 -85.5057 97.4053 179.0487 -121.2882 83.1138 -180.0000 179.3608
State:	 -8.369  10.443 -11.518   0.043 -0.979  0.199 43.875   -100.39 -114.25  136.96  -85.51   97.41  179.05 -121.29   83.11 -180.00  179.36

DOCKED: MODEL       47
DOCKED: USER    Run = 47
DOCKED: USER    DPF = D:/Protein_go_brrr/autodock/final/mut_K82N/heme_O2/dock.dpf
DOCKED: USER  
DOCKED: USER    Estimated Free Energy of Binding    =   -6.63 kcal/mol  [=(1)+(2)+(3)-(4)]
DOCKED: USER    Estimated Inhibition Constant, Ki   =   13.81 uM (micromolar)  [Temperature = 298.15 K]
DOCKED: USER    
DOCKED: USER    (1) Final Intermolecular Energy     =   -9.61 kcal/mol
DOCKED: USER        vdW + Hbond + desolv Energy     =   -8.25 kcal/mol
DOCKED: USER        Electrostatic Energy            =   -1.36 kcal/mol
DOCKED: USER    (2) Final Total Internal Energy     =   -1.96 kcal/mol
DOCKED: USER    (3) Torsional Free Energy           =   +2.98 kcal/mol
DOCKED: USER    (4) Unbound System's Energy  [=(2)] =   -1.96 kcal/mol
DOCKED: USER    
DOCKED: USER    
DOCKED: USER    NEWDPF move heme_O2_opt.pdbqt
DOCKED: USER    NEWDPF about 8.287000 34.468000 -0.670000
DOCKED: USER    NEWDPF tran0 -8.368683 10.443020 -11.518440
DOCKED: USER    NEWDPF quaternion0 0.016122 -0.365744 0.074468 0.927591
DOCKED: USER    NEWDPF axisangle0 0.043153 -0.978982 0.199327 43.875146
DOCKED: USER    NEWDPF quat0 0.043153 -0.978982 0.199327 43.875146
DOCKED: USER    NEWDPF dihe0 -100.39 -114.25 136.96 -85.51 97.41 179.05 -121.29 83.11 -180.00 179.36 
DOCKED: USER  keepresnum = 1 
DOCKED: USER  
DOCKED: REMARK  10 active torsions:
DOCKED: REMARK  status: ('A' for Active; 'I' for Inactive)
DOCKED: REMARK    1  A    between atoms: C_6  and  C_10 
DOCKED: REMARK    2  A    between atoms: C_10  and  C_11 
DOCKED: REMARK    3  A    between atoms: C_11  and  C_12 
DOCKED: REMARK    4  A    between atoms: C_12  and  O_14 
DOCKED: REMARK    5  A    between atoms: C_17  and  C_20 
DOCKED: REMARK    6  A    between atoms: C_24  and  C_27 
DOCKED: REMARK    7  A    between atoms: C_31  and  C_34 
DOCKED: REMARK    8  A    between atoms: C_34  and  C_35 
DOCKED: REMARK    9  A    between atoms: C_35  and  C_36 
DOCKED: REMARK   10  A    between atoms: C_36  and  O_38 
DOCKED: USER                              x       y       z     vdW  Elec       q    Type
DOCKED: USER                           _______ _______ _______ _____ _____    ______ ____
DOCKED: ROOT
DOCKED: ATOM      1  C   UNL d   1     -10.186  11.338 -10.890 -0.06 +0.02    +0.064 A 
DOCKED: ATOM      2  C   UNL d   1      -7.159   8.375  -8.741 -0.28 +0.01    +0.064 A 
DOCKED: ATOM      3  C   UNL d   1      -4.363   8.252 -12.648 -0.28 -0.02    +0.064 C 
DOCKED: ATOM      4  C   UNL d   1      -7.217  11.674 -14.699 -0.07 -0.01    +0.064 A 
DOCKED: ATOM      5  C   UNL d   1      -9.590  10.544  -9.987 -0.11 +0.02    +0.066 A 
DOCKED: ATOM      6  C   UNL d   1     -10.102  10.287  -8.711 -0.13 -0.00    -0.021 A 
DOCKED: ATOM      7  C   UNL d   1      -9.205   9.464  -8.073 -0.20 -0.01    -0.025 A 
DOCKED: ATOM      8  C   UNL d   1      -8.193   9.202  -8.992 -0.20 +0.01    +0.066 A 
DOCKED: ATOM      9  C   UNL d   1      -9.328   8.996  -6.639 -0.25 +0.02    +0.051 C 
DOCKED: ATOM     10  C   UNL d   1      -6.081   8.044  -9.674 -0.31 -0.00    +0.066 A 
DOCKED: ATOM     11  C   UNL d   1      -5.123   7.055  -9.422 -0.41 +0.00    -0.021 A 
DOCKED: ATOM     12  C   UNL d   1      -4.318   6.992 -10.544 -0.45 -0.00    +0.000 A 
DOCKED: ATOM     13  C   UNL d   1      -4.835   7.976 -11.432 +0.02 -0.02    +0.070 A 
DOCKED: ATOM     14  C   UNL d   1      -4.997   6.189  -8.174 -0.14 +0.00    +0.052 C 
DOCKED: ATOM     15  C   UNL d   1      -4.835   9.263 -13.562 -0.24 -0.01    +0.066 A 
DOCKED: ATOM     16  C   UNL d   1      -4.196   9.614 -14.751 -0.25 +0.01    -0.021 A 
DOCKED: ATOM     17  C   UNL d   1      -4.992  10.589 -15.353 -0.13 -0.00    +0.000 A 
DOCKED: ATOM     18  C   UNL d   1      -6.071  10.761 -14.476 -0.10 -0.01    +0.070 A 
DOCKED: ATOM     19  C   UNL d   1      -2.870   9.034 -15.175 -0.37 -0.02    +0.052 C 
DOCKED: ATOM     20  C   UNL d   1      -8.246  11.895 -13.859 -0.09 +0.00    +0.066 A 
DOCKED: ATOM     21  C   UNL d   1      -9.306  12.755 -14.132 -0.07 -0.00    -0.025 A 
DOCKED: ATOM     22  C   UNL d   1     -10.176  12.651 -13.069 -0.06 -0.00    -0.021 A 
DOCKED: ATOM     23  C   UNL d   1      -9.603  11.742 -12.175 +0.03 +0.02    +0.066 A 
DOCKED: ATOM     24  C   UNL d   1      -9.479  13.634 -15.344 -0.04 -0.00    +0.051 C 
DOCKED: ATOM     25  N   UNL d   1      -8.398   9.919 -10.148 -0.10 -0.04    -0.248 N 
DOCKED: ATOM     26  N   UNL d   1      -5.904   8.614 -10.893 -0.17 +0.03    -0.248 N 
DOCKED: ATOM     27  N   UNL d   1      -5.921  10.003 -13.359 -0.10 +0.04    -0.248 N 
DOCKED: ATOM     28  N   UNL d   1      -8.408  11.319 -12.638 -0.07 -0.03    -0.248 N 
DOCKED: ATOM     29 FE   UNL d   1      -7.164   9.977 -11.774 -0.04 -0.00    +0.000 Fe
DOCKED: ATOM     30  O   UNL d   1      -6.576  10.677 -10.514 -0.44 -0.00    +0.000 OA
DOCKED: ATOM     31  O   UNL d   1      -6.367  11.323 -11.936 -0.39 -0.00    +0.000 OA
DOCKED: ENDROOT
DOCKED: BRANCH   6  32
DOCKED: ATOM     32  C   UNL d   1     -11.318  10.899  -8.064 -0.09 +0.01    +0.052 C 
DOCKED: BRANCH  32  33
DOCKED: ATOM     33  C   UNL d   1     -10.977  12.084  -7.166 -0.18 +0.04    +0.115 C 
DOCKED: BRANCH  33  34
DOCKED: ATOM     34  C   UNL d   1     -10.221  13.164  -7.899 -0.33 +0.07    +0.139 C 
DOCKED: ATOM     35  O   UNL d   1      -9.202  12.879  -8.509 +0.12 -0.19    -0.650 OA
DOCKED: BRANCH  34  36
DOCKED: ATOM     36  O   UNL d   1     -10.629  14.449  -7.874 -0.27 -0.84    -0.776 OA
DOCKED: ATOM     37  H   UNL d   1     -11.122  14.843  -8.604 +0.03 +0.19    +0.167 HD
DOCKED: ENDBRANCH  34  36
DOCKED: ENDBRANCH  33  34
DOCKED: ENDBRANCH  32  33
DOCKED: ENDBRANCH   6  32
DOCKED: BRANCH  22  38
DOCKED: ATOM     38  C   UNL d   1     -11.452  13.434 -12.900 -0.05 +0.01    +0.052 C 
DOCKED: BRANCH  38  39
DOCKED: ATOM     39  C   UNL d   1     -11.200  14.859 -12.411 -0.08 +0.03    +0.115 C 
DOCKED: BRANCH  39  40
DOCKED: ATOM     40  C   UNL d   1     -11.389  14.998 -10.921 -0.12 +0.06    +0.139 C 
DOCKED: ATOM     41  O   UNL d   1     -12.267  14.364 -10.358 +0.01 -0.24    -0.650 OA
DOCKED: BRANCH  40  42
DOCKED: ATOM     42  O   UNL d   1     -10.569  15.775 -10.186 -0.19 -0.66    -0.776 OA
DOCKED: ATOM     43  H   UNL d   1      -9.953  15.396  -9.548 -0.33 +0.18    +0.167 HD
DOCKED: ENDBRANCH  40  42
DOCKED: ENDBRANCH  39  40
DOCKED: ENDBRANCH  38  39
DOCKED: ENDBRANCH  22  38
DOCKED: BRANCH  12  44
DOCKED: ATOM     44  C   UNL d   1      -3.160   6.022 -10.650 -0.53 -0.00    +0.004 C 
DOCKED: ATOM     45  C   UNL d   1      -2.210   5.780  -9.748 -0.48 +0.00    +0.012 C 
DOCKED: ENDBRANCH  12  44
DOCKED: BRANCH  17  46
DOCKED: ATOM     46  C   UNL d   1      -4.793  11.386 -16.615 -0.10 -0.00    +0.004 C 
DOCKED: ATOM     47  C   UNL d   1      -4.219  12.588 -16.754 -0.15 -0.01    +0.012 C 
DOCKED: ENDBRANCH  17  46
DOCKED: TORSDOF 10
DOCKED: TER
DOCKED: ENDMDL
________________________________________________________________________________


	BEGINNING GENETIC ALGORITHM DOCKING 48 of 100
Run: 48 Seed: 783350108 249007487 [ Run 48 of 100 GA/GALS ]
Beginning LAMARCKIAN GENETIC ALGORITHM (LGA), with a maximum of 25000000 energy evaluations.

Final-Value: -9.861


	FINAL GENETIC ALGORITHM DOCKED STATE
	_______________________________________________


Detailed state:  trans 3.848 6.330 18.445 quatxyzw -0.159476 0.647860 0.702745 0.246970 center 8.287 34.468 -0.670 ntor 10 -30.7723 17.1902 -36.6854 45.9078 51.3038 180.0000 -124.7007 24.9299 174.4078 145.8778
State:	  3.848   6.330  18.445  -0.165  0.669  0.725 151.403    -30.77   17.19  -36.69   45.91   51.30  180.00 -124.70   24.93  174.41  145.88

DOCKED: MODEL       48
DOCKED: USER    Run = 48
DOCKED: USER    DPF = D:/Protein_go_brrr/autodock/final/mut_K82N/heme_O2/dock.dpf
DOCKED: USER  
DOCKED: USER    Estimated Free Energy of Binding    =   -5.01 kcal/mol  [=(1)+(2)+(3)-(4)]
DOCKED: USER    Estimated Inhibition Constant, Ki   =  212.51 uM (micromolar)  [Temperature = 298.15 K]
DOCKED: USER    
DOCKED: USER    (1) Final Intermolecular Energy     =   -7.99 kcal/mol
DOCKED: USER        vdW + Hbond + desolv Energy     =   -7.73 kcal/mol
DOCKED: USER        Electrostatic Energy            =   -0.27 kcal/mol
DOCKED: USER    (2) Final Total Internal Energy     =   -1.87 kcal/mol
DOCKED: USER    (3) Torsional Free Energy           =   +2.98 kcal/mol
DOCKED: USER    (4) Unbound System's Energy  [=(2)] =   -1.87 kcal/mol
DOCKED: USER    
DOCKED: USER    
DOCKED: USER    NEWDPF move heme_O2_opt.pdbqt
DOCKED: USER    NEWDPF about 8.287000 34.468000 -0.670000
DOCKED: USER    NEWDPF tran0 3.848222 6.330392 18.445323
DOCKED: USER    NEWDPF quaternion0 -0.159476 0.647860 0.702745 0.246970
DOCKED: USER    NEWDPF axisangle0 -0.164574 0.668570 0.725210 151.403412
DOCKED: USER    NEWDPF quat0 -0.164574 0.668570 0.725210 151.403412
DOCKED: USER    NEWDPF dihe0 -30.77 17.19 -36.69 45.91 51.30 180.00 -124.70 24.93 174.41 145.88 
DOCKED: USER  keepresnum = 1 
DOCKED: USER  
DOCKED: REMARK  10 active torsions:
DOCKED: REMARK  status: ('A' for Active; 'I' for Inactive)
DOCKED: REMARK    1  A    between atoms: C_6  and  C_10 
DOCKED: REMARK    2  A    between atoms: C_10  and  C_11 
DOCKED: REMARK    3  A    between atoms: C_11  and  C_12 
DOCKED: REMARK    4  A    between atoms: C_12  and  O_14 
DOCKED: REMARK    5  A    between atoms: C_17  and  C_20 
DOCKED: REMARK    6  A    between atoms: C_24  and  C_27 
DOCKED: REMARK    7  A    between atoms: C_31  and  C_34 
DOCKED: REMARK    8  A    between atoms: C_34  and  C_35 
DOCKED: REMARK    9  A    between atoms: C_35  and  C_36 
DOCKED: REMARK   10  A    between atoms: C_36  and  O_38 
DOCKED: USER                              x       y       z     vdW  Elec       q    Type
DOCKED: USER                           _______ _______ _______ _____ _____    ______ ____
DOCKED: ROOT
DOCKED: ATOM      1  C   UNL d   1       5.915   6.677  18.774 -0.24 -0.01    +0.064 A 
DOCKED: ATOM      2  C   UNL d   1       2.543   9.215  16.595 -0.21 -0.03    +0.064 A 
DOCKED: ATOM      3  C   UNL d   1      -0.729   5.812  17.494 -0.20 -0.02    +0.064 C 
DOCKED: ATOM      4  C   UNL d   1       2.620   3.409  20.154 -0.27 -0.04    +0.064 A 
DOCKED: ATOM      5  C   UNL d   1       5.264   7.646  18.110 -0.21 -0.02    +0.066 A 
DOCKED: ATOM      6  C   UNL d   1       5.870   8.815  17.639 -0.18 +0.01    -0.021 A 
DOCKED: ATOM      7  C   UNL d   1       4.885   9.570  17.046 -0.21 +0.01    -0.025 A 
DOCKED: ATOM      8  C   UNL d   1       3.715   8.820  17.128 -0.22 -0.02    +0.066 A 
DOCKED: ATOM      9  C   UNL d   1       5.087  10.953  16.466 -0.12 -0.01    +0.051 C 
DOCKED: ATOM     10  C   UNL d   1       1.288   8.462  16.630 -0.21 -0.03    +0.066 A 
DOCKED: ATOM     11  C   UNL d   1       0.143   8.842  15.921 -0.18 +0.01    -0.021 A 
DOCKED: ATOM     12  C   UNL d   1      -0.806   7.863  16.153 -0.15 -0.00    +0.000 A 
DOCKED: ATOM     13  C   UNL d   1      -0.176   6.928  17.019 -0.19 -0.03    +0.070 A 
DOCKED: ATOM     14  C   UNL d   1      -0.029  10.072  15.037 -0.17 -0.06    +0.052 C 
DOCKED: ATOM     15  C   UNL d   1      -0.137   4.858  18.401 -0.18 -0.02    +0.066 A 
DOCKED: ATOM     16  C   UNL d   1      -0.824   3.797  18.991 -0.18 +0.01    -0.021 A 
DOCKED: ATOM     17  C   UNL d   1       0.110   3.098  19.755 -0.21 -0.00    +0.000 A 
DOCKED: ATOM     18  C   UNL d   1       1.314   3.793  19.569 -0.23 -0.04    +0.070 A 
DOCKED: ATOM     19  C   UNL d   1      -2.307   3.580  18.819 -0.18 -0.01    +0.052 C 
DOCKED: ATOM     20  C   UNL d   1       3.784   4.077  20.032 -0.28 -0.03    +0.066 A 
DOCKED: ATOM     21  C   UNL d   1       4.987   3.657  20.592 -0.32 +0.01    -0.025 A 
DOCKED: ATOM     22  C   UNL d   1       5.943   4.562  20.186 -0.29 +0.00    -0.021 A 
DOCKED: ATOM     23  C   UNL d   1       5.281   5.514  19.406 -0.27 -0.02    +0.066 A 
DOCKED: ATOM     24  C   UNL d   1       5.213   2.455  21.472 -0.38 -0.01    +0.051 C 
DOCKED: ATOM     25  N   UNL d   1       3.936   7.665  17.841 -0.15 +0.11    -0.248 N 
DOCKED: ATOM     26  N   UNL d   1       1.096   7.302  17.308 -0.14 +0.11    -0.248 N 
DOCKED: ATOM     27  N   UNL d   1       1.129   4.900  18.806 -0.12 +0.12    -0.248 N 
DOCKED: ATOM     28  N   UNL d   1       3.961   5.241  19.352 -0.17 +0.10    -0.248 N 
DOCKED: ATOM     29 FE   UNL d   1       2.537   6.262  18.339 -0.06 -0.00    +0.000 Fe
DOCKED: ATOM     30  O   UNL d   1       2.361   7.617  19.084 -0.13 -0.00    +0.000 OA
DOCKED: ATOM     31  O   UNL d   1       2.129   6.265  19.857 -0.13 -0.00    +0.000 OA
DOCKED: ENDROOT
DOCKED: BRANCH   6  32
DOCKED: ATOM     32  C   UNL d   1       7.289   9.271  17.856 -0.13 -0.01    +0.052 C 
DOCKED: BRANCH  32  33
DOCKED: ATOM     33  C   UNL d   1       7.408  10.343  18.935 -0.03 -0.01    +0.115 C 
DOCKED: BRANCH  33  34
DOCKED: ATOM     34  C   UNL d   1       6.760   9.929  20.232 -0.01 -0.01    +0.139 C 
DOCKED: ATOM     35  O   UNL d   1       5.643  10.337  20.507 +0.01 +0.06    -0.650 OA
DOCKED: BRANCH  34  36
DOCKED: ATOM     36  O   UNL d   1       7.400   9.134  21.115 +0.03 +0.01    -0.776 OA
DOCKED: ATOM     37  H   UNL d   1       8.042   8.472  20.835 +0.02 +0.00    +0.167 HD
DOCKED: ENDBRANCH  34  36
DOCKED: ENDBRANCH  33  34
DOCKED: ENDBRANCH  32  33
DOCKED: ENDBRANCH   6  32
DOCKED: BRANCH  22  38
DOCKED: ATOM     38  C   UNL d   1       7.396   4.541  20.584 -0.22 +0.02    +0.052 C 
DOCKED: BRANCH  38  39
DOCKED: ATOM     39  C   UNL d   1       7.770   5.719  21.481 -0.16 +0.02    +0.115 C 
DOCKED: BRANCH  39  40
DOCKED: ATOM     40  C   UNL d   1       9.242   6.045  21.420 -0.14 +0.04    +0.139 C 
DOCKED: ATOM     41  O   UNL d   1      10.057   5.145  21.297 -0.05 -0.31    -0.650 OA
DOCKED: BRANCH  40  42
DOCKED: ATOM     42  O   UNL d   1       9.674   7.321  21.448 +0.04 -0.15    -0.776 OA
DOCKED: ATOM     43  H   UNL d   1       9.118   8.034  21.784 +0.02 +0.02    +0.167 HD
DOCKED: ENDBRANCH  40  42
DOCKED: ENDBRANCH  39  40
DOCKED: ENDBRANCH  38  39
DOCKED: ENDBRANCH  22  38
DOCKED: BRANCH  12  44
DOCKED: ATOM     44  C   UNL d   1      -2.189   7.923  15.539 -0.16 -0.00    +0.004 C 
DOCKED: ATOM     45  C   UNL d   1      -2.897   6.922  15.016 -0.32 -0.01    +0.012 C 
DOCKED: ENDBRANCH  12  44
DOCKED: BRANCH  17  46
DOCKED: ATOM     46  C   UNL d   1      -0.046   1.905  20.659 -0.17 -0.00    +0.004 C 
DOCKED: ATOM     47  C   UNL d   1      -0.812   0.822  20.477 -0.27 -0.00    +0.012 C 
DOCKED: ENDBRANCH  17  46
DOCKED: TORSDOF 10
DOCKED: TER
DOCKED: ENDMDL
________________________________________________________________________________


	BEGINNING GENETIC ALGORITHM DOCKING 49 of 100
Run: 49 Seed: 774524882 1020104271 [ Run 49 of 100 GA/GALS ]
Beginning LAMARCKIAN GENETIC ALGORITHM (LGA), with a maximum of 25000000 energy evaluations.

Final-Value: -9.935


	FINAL GENETIC ALGORITHM DOCKED STATE
	_______________________________________________


Detailed state:  trans 11.944 2.918 16.927 quatxyzw -0.811793 0.274168 0.514913 -0.026226 center 8.287 34.468 -0.670 ntor 10 85.0841 45.7270 99.1429 67.1570 64.0386 126.8712 -50.9752 -59.4041 139.9694 -13.6964
State:	 11.944   2.918  16.927  -0.812  0.274  0.515 -176.994     85.08   45.73   99.14   67.16   64.04  126.87  -50.98  -59.40  139.97  -13.70

DOCKED: MODEL       49
DOCKED: USER    Run = 49
DOCKED: USER    DPF = D:/Protein_go_brrr/autodock/final/mut_K82N/heme_O2/dock.dpf
DOCKED: USER  
DOCKED: USER    Estimated Free Energy of Binding    =   -6.69 kcal/mol  [=(1)+(2)+(3)-(4)]
DOCKED: USER    Estimated Inhibition Constant, Ki   =   12.46 uM (micromolar)  [Temperature = 298.15 K]
DOCKED: USER    
DOCKED: USER    (1) Final Intermolecular Energy     =   -9.67 kcal/mol
DOCKED: USER        vdW + Hbond + desolv Energy     =   -8.51 kcal/mol
DOCKED: USER        Electrostatic Energy            =   -1.17 kcal/mol
DOCKED: USER    (2) Final Total Internal Energy     =   -0.26 kcal/mol
DOCKED: USER    (3) Torsional Free Energy           =   +2.98 kcal/mol
DOCKED: USER    (4) Unbound System's Energy  [=(2)] =   -0.26 kcal/mol
DOCKED: USER    
DOCKED: USER    
DOCKED: USER    NEWDPF move heme_O2_opt.pdbqt
DOCKED: USER    NEWDPF about 8.287000 34.468000 -0.670000
DOCKED: USER    NEWDPF tran0 11.943545 2.917849 16.926579
DOCKED: USER    NEWDPF quaternion0 -0.811793 0.274168 0.514913 -0.026226
DOCKED: USER    NEWDPF axisangle0 -0.812073 0.274262 0.515091 -176.994381
DOCKED: USER    NEWDPF quat0 -0.812073 0.274262 0.515091 -176.994381
DOCKED: USER    NEWDPF dihe0 85.08 45.73 99.14 67.16 64.04 126.87 -50.98 -59.40 139.97 -13.70 
DOCKED: USER  keepresnum = 1 
DOCKED: USER  
DOCKED: REMARK  10 active torsions:
DOCKED: REMARK  status: ('A' for Active; 'I' for Inactive)
DOCKED: REMARK    1  A    between atoms: C_6  and  C_10 
DOCKED: REMARK    2  A    between atoms: C_10  and  C_11 
DOCKED: REMARK    3  A    between atoms: C_11  and  C_12 
DOCKED: REMARK    4  A    between atoms: C_12  and  O_14 
DOCKED: REMARK    5  A    between atoms: C_17  and  C_20 
DOCKED: REMARK    6  A    between atoms: C_24  and  C_27 
DOCKED: REMARK    7  A    between atoms: C_31  and  C_34 
DOCKED: REMARK    8  A    between atoms: C_34  and  C_35 
DOCKED: REMARK    9  A    between atoms: C_35  and  C_36 
DOCKED: REMARK   10  A    between atoms: C_36  and  O_38 
DOCKED: USER                              x       y       z     vdW  Elec       q    Type
DOCKED: USER                           _______ _______ _______ _____ _____    ______ ____
DOCKED: ROOT
DOCKED: ATOM      1  C   UNL d   1      11.719   2.929  19.036 -0.18 +0.01    +0.064 A 
DOCKED: ATOM      2  C   UNL d   1      10.336   5.956  15.647 -0.22 -0.01    +0.064 A 
DOCKED: ATOM      3  C   UNL d   1      12.348   3.215  12.250 -0.15 -0.00    +0.064 C 
DOCKED: ATOM      4  C   UNL d   1      13.360  -0.147  15.676 -0.22 -0.01    +0.064 A 
DOCKED: ATOM      5  C   UNL d   1      11.178   3.975  18.391 -0.16 +0.01    +0.066 A 
DOCKED: ATOM      6  C   UNL d   1      10.512   5.027  19.027 -0.18 -0.00    -0.021 A 
DOCKED: ATOM      7  C   UNL d   1      10.073   5.882  18.043 -0.12 -0.00    -0.025 A 
DOCKED: ATOM      8  C   UNL d   1      10.525   5.354  16.837 -0.15 +0.00    +0.066 A 
DOCKED: ATOM      9  C   UNL d   1       9.238   7.121  18.282 -0.13 -0.00    +0.051 C 
DOCKED: ATOM     10  C   UNL d   1      10.806   5.461  14.352 -0.21 -0.01    +0.066 A 
DOCKED: ATOM     11  C   UNL d   1      10.726   6.205  13.169 -0.25 +0.00    -0.021 A 
DOCKED: ATOM     12  C   UNL d   1      11.318   5.439  12.181 -0.21 -0.00    +0.000 A 
DOCKED: ATOM     13  C   UNL d   1      11.722   4.239  12.829 -0.15 -0.00    +0.070 A 
DOCKED: ATOM     14  C   UNL d   1      10.136   7.600  12.994 -0.23 +0.00    +0.052 C 
DOCKED: ATOM     15  C   UNL d   1      12.742   1.969  12.862 -0.15 -0.01    +0.066 A 
DOCKED: ATOM     16  C   UNL d   1      13.245   0.870  12.166 -0.19 +0.00    -0.021 A 
DOCKED: ATOM     17  C   UNL d   1      13.540  -0.101  13.123 -0.25 -0.00    +0.000 A 
DOCKED: ATOM     18  C   UNL d   1      13.193   0.487  14.347 -0.19 -0.01    +0.070 A 
DOCKED: ATOM     19  C   UNL d   1      13.346   0.825  10.662 +0.03 -0.01    +0.052 C 
DOCKED: ATOM     20  C   UNL d   1      12.998   0.371  16.866 -0.21 -0.01    +0.066 A 
DOCKED: ATOM     21  C   UNL d   1      13.197  -0.266  18.088 -0.22 -0.00    -0.025 A 
DOCKED: ATOM     22  C   UNL d   1      12.760   0.608  19.058 -0.23 -0.00    -0.021 A 
DOCKED: ATOM     23  C   UNL d   1      12.292   1.743  18.389 -0.22 +0.00    +0.066 A 
DOCKED: ATOM     24  C   UNL d   1      13.772  -1.639  18.317 -0.22 +0.00    +0.051 C 
DOCKED: ATOM     25  N   UNL d   1      11.148   4.145  17.046 -0.13 -0.00    -0.248 N 
DOCKED: ATOM     26  N   UNL d   1      11.403   4.259  14.148 -0.12 +0.03    -0.248 N 
DOCKED: ATOM     27  N   UNL d   1      12.641   1.713  14.163 -0.08 +0.03    -0.248 N 
DOCKED: ATOM     28  N   UNL d   1      12.396   1.576  17.054 -0.14 +0.02    -0.248 N 
DOCKED: ATOM     29 FE   UNL d   1      11.904   2.906  15.610 -0.04 -0.00    +0.000 Fe
DOCKED: ATOM     30  O   UNL d   1      10.350   2.993  15.610 -0.39 -0.00    +0.000 OA
DOCKED: ATOM     31  O   UNL d   1      11.055   1.606  15.363 -0.44 -0.00    +0.000 OA
DOCKED: ENDROOT
DOCKED: BRANCH   6  32
DOCKED: ATOM     32  C   UNL d   1      10.179   5.158  20.490 -0.22 +0.02    +0.052 C 
DOCKED: BRANCH  32  33
DOCKED: ATOM     33  C   UNL d   1       8.757   5.657  20.732 -0.19 +0.03    +0.115 C 
DOCKED: BRANCH  33  34
DOCKED: ATOM     34  C   UNL d   1       7.981   4.754  21.658 -0.20 +0.05    +0.139 C 
DOCKED: ATOM     35  O   UNL d   1       7.377   3.796  21.202 -0.67 -0.27    -0.650 OA
DOCKED: BRANCH  34  36
DOCKED: ATOM     36  O   UNL d   1       7.914   4.997  22.984 -0.01 -0.35    -0.776 OA
DOCKED: ATOM     37  H   UNL d   1       7.259   5.597  23.361 +0.03 +0.05    +0.167 HD
DOCKED: ENDBRANCH  34  36
DOCKED: ENDBRANCH  33  34
DOCKED: ENDBRANCH  32  33
DOCKED: ENDBRANCH   6  32
DOCKED: BRANCH  22  38
DOCKED: ATOM     38  C   UNL d   1      12.737   0.334  20.540 -0.17 +0.01    +0.052 C 
DOCKED: BRANCH  38  39
DOCKED: ATOM     39  C   UNL d   1      14.049   0.716  21.223 -0.11 +0.03    +0.115 C 
DOCKED: BRANCH  39  40
DOCKED: ATOM     40  C   UNL d   1      13.861   1.773  22.282 -0.08 +0.07    +0.139 C 
DOCKED: ATOM     41  O   UNL d   1      13.916   2.954  21.977 -0.02 -0.32    -0.650 OA
DOCKED: BRANCH  40  42
DOCKED: ATOM     42  O   UNL d   1      13.581   1.438  23.556 -0.01 -0.59    -0.776 OA
DOCKED: ATOM     43  H   UNL d   1      14.088   0.765  24.025 +0.01 +0.09    +0.167 HD
DOCKED: ENDBRANCH  40  42
DOCKED: ENDBRANCH  39  40
DOCKED: ENDBRANCH  38  39
DOCKED: ENDBRANCH  22  38
DOCKED: BRANCH  12  44
DOCKED: ATOM     44  C   UNL d   1      11.429   5.920  10.750 -0.22 -0.00    +0.004 C 
DOCKED: ATOM     45  C   UNL d   1      10.522   5.820   9.779 -0.35 -0.00    +0.012 C 
DOCKED: ENDBRANCH  12  44
DOCKED: BRANCH  17  46
DOCKED: ATOM     46  C   UNL d   1      14.050  -1.510  12.976 -0.30 -0.00    +0.004 C 
DOCKED: ATOM     47  C   UNL d   1      15.200  -1.922  12.426 -0.24 -0.00    +0.012 C 
DOCKED: ENDBRANCH  17  46
DOCKED: TORSDOF 10
DOCKED: TER
DOCKED: ENDMDL
________________________________________________________________________________


	BEGINNING GENETIC ALGORITHM DOCKING 50 of 100
Run: 50 Seed: 327048968 508132324 [ Run 50 of 100 GA/GALS ]
Beginning LAMARCKIAN GENETIC ALGORITHM (LGA), with a maximum of 25000000 energy evaluations.

Final-Value: -10.716


	FINAL GENETIC ALGORITHM DOCKED STATE
	_______________________________________________


Detailed state:  trans -8.291 11.011 -11.709 quatxyzw 0.961359 -0.145209 -0.232784 0.022702 center 8.287 34.468 -0.670 ntor 10 -170.3062 26.8587 3.1750 168.1667 51.8658 -62.7237 -168.8369 -41.7481 -0.6782 -179.5282
State:	 -8.291  11.011 -11.709   0.962 -0.145 -0.233 177.398   -170.31   26.86    3.17  168.17   51.87  -62.72 -168.84  -41.75   -0.68 -179.53

DOCKED: MODEL       50
DOCKED: USER    Run = 50
DOCKED: USER    DPF = D:/Protein_go_brrr/autodock/final/mut_K82N/heme_O2/dock.dpf
DOCKED: USER  
DOCKED: USER    Estimated Free Energy of Binding    =   -7.05 kcal/mol  [=(1)+(2)+(3)-(4)]
DOCKED: USER    Estimated Inhibition Constant, Ki   =    6.85 uM (micromolar)  [Temperature = 298.15 K]
DOCKED: USER    
DOCKED: USER    (1) Final Intermolecular Energy     =  -10.03 kcal/mol
DOCKED: USER        vdW + Hbond + desolv Energy     =   -7.41 kcal/mol
DOCKED: USER        Electrostatic Energy            =   -2.62 kcal/mol
DOCKED: USER    (2) Final Total Internal Energy     =   -0.69 kcal/mol
DOCKED: USER    (3) Torsional Free Energy           =   +2.98 kcal/mol
DOCKED: USER    (4) Unbound System's Energy  [=(2)] =   -0.69 kcal/mol
DOCKED: USER    
DOCKED: USER    
DOCKED: USER    NEWDPF move heme_O2_opt.pdbqt
DOCKED: USER    NEWDPF about 8.287000 34.468000 -0.670000
DOCKED: USER    NEWDPF tran0 -8.291430 11.010930 -11.708679
DOCKED: USER    NEWDPF quaternion0 0.961359 -0.145209 -0.232784 0.022702
DOCKED: USER    NEWDPF axisangle0 0.961607 -0.145247 -0.232844 177.398301
DOCKED: USER    NEWDPF quat0 0.961607 -0.145247 -0.232844 177.398301
DOCKED: USER    NEWDPF dihe0 -170.31 26.86 3.17 168.17 51.87 -62.72 -168.84 -41.75 -0.68 -179.53 
DOCKED: USER  keepresnum = 1 
DOCKED: USER  
DOCKED: REMARK  10 active torsions:
DOCKED: REMARK  status: ('A' for Active; 'I' for Inactive)
DOCKED: REMARK    1  A    between atoms: C_6  and  C_10 
DOCKED: REMARK    2  A    between atoms: C_10  and  C_11 
DOCKED: REMARK    3  A    between atoms: C_11  and  C_12 
DOCKED: REMARK    4  A    between atoms: C_12  and  O_14 
DOCKED: REMARK    5  A    between atoms: C_17  and  C_20 
DOCKED: REMARK    6  A    between atoms: C_24  and  C_27 
DOCKED: REMARK    7  A    between atoms: C_31  and  C_34 
DOCKED: REMARK    8  A    between atoms: C_34  and  C_35 
DOCKED: REMARK    9  A    between atoms: C_35  and  C_36 
DOCKED: REMARK   10  A    between atoms: C_36  and  O_38 
DOCKED: USER                              x       y       z     vdW  Elec       q    Type
DOCKED: USER                           _______ _______ _______ _____ _____    ______ ____
DOCKED: ROOT
DOCKED: ATOM      1  C   UNL d   1      -9.702  10.848 -10.132 -0.04 +0.02    +0.064 A 
DOCKED: ATOM      2  C   UNL d   1      -9.548  13.554 -14.033 -0.05 +0.01    +0.064 A 
DOCKED: ATOM      3  C   UNL d   1      -5.318  11.655 -15.296 -0.14 -0.02    +0.064 C 
DOCKED: ATOM      4  C   UNL d   1      -5.694   8.524 -11.538 -0.23 -0.01    +0.064 A 
DOCKED: ATOM      5  C   UNL d   1     -10.006  11.738 -11.091 +0.14 +0.02    +0.066 A 
DOCKED: ATOM      6  C   UNL d   1     -11.156  12.532 -11.086 -0.08 -0.01    -0.021 A 
DOCKED: ATOM      7  C   UNL d   1     -11.135  13.284 -12.237 -0.07 -0.01    -0.025 A 
DOCKED: ATOM      8  C   UNL d   1      -9.947  12.965 -12.889 +0.02 +0.01    +0.066 A 
DOCKED: ATOM      9  C   UNL d   1     -12.231  14.232 -12.672 -0.03 +0.01    +0.051 C 
DOCKED: ATOM     10  C   UNL d   1      -8.303  13.277 -14.751 -0.08 -0.00    +0.066 A 
DOCKED: ATOM     11  C   UNL d   1      -7.860  14.033 -15.843 -0.06 +0.00    -0.021 A 
DOCKED: ATOM     12  C   UNL d   1      -6.633  13.512 -16.210 -0.08 -0.00    +0.000 A 
DOCKED: ATOM     13  C   UNL d   1      -6.398  12.437 -15.309 -0.09 -0.02    +0.070 A 
DOCKED: ATOM     14  C   UNL d   1      -8.565  15.219 -16.491 -0.03 -0.01    +0.052 C 
DOCKED: ATOM     15  C   UNL d   1      -5.057  10.535 -14.424 -0.17 -0.02    +0.066 A 
DOCKED: ATOM     16  C   UNL d   1      -3.985   9.655 -14.566 -0.28 +0.01    -0.021 A 
DOCKED: ATOM     17  C   UNL d   1      -4.072   8.753 -13.506 -0.36 -0.00    +0.000 A 
DOCKED: ATOM     18  C   UNL d   1      -5.205   9.157 -12.786 -0.17 -0.02    +0.070 A 
DOCKED: ATOM     19  C   UNL d   1      -3.016   9.719 -15.720 -0.27 -0.02    +0.052 C 
DOCKED: ATOM     20  C   UNL d   1      -6.800   8.859 -10.846 -0.21 -0.00    +0.066 A 
DOCKED: ATOM     21  C   UNL d   1      -7.201   8.237  -9.667 -0.23 -0.00    -0.025 A 
DOCKED: ATOM     22  C   UNL d   1      -8.326   8.904  -9.237 -0.18 -0.00    -0.021 A 
DOCKED: ATOM     23  C   UNL d   1      -8.582   9.901 -10.184 -0.15 +0.01    +0.066 A 
DOCKED: ATOM     24  C   UNL d   1      -6.545   7.064  -8.986 -0.30 +0.00    +0.051 C 
DOCKED: ATOM     25  N   UNL d   1      -9.284  11.965 -12.216 -0.02 -0.08    -0.248 N 
DOCKED: ATOM     26  N   UNL d   1      -7.421  12.298 -14.428 -0.06 +0.01    -0.248 N 
DOCKED: ATOM     27  N   UNL d   1      -5.833  10.193 -13.399 -0.11 +0.04    -0.248 N 
DOCKED: ATOM     28  N   UNL d   1      -7.678   9.840 -11.184 -0.10 -0.01    -0.248 N 
DOCKED: ATOM     29 FE   UNL d   1      -7.548  11.059 -12.795 -0.04 +0.00    +0.000 Fe
DOCKED: ATOM     30  O   UNL d   1      -8.768  10.715 -13.699 -0.07 +0.00    +0.000 OA
DOCKED: ATOM     31  O   UNL d   1      -7.730   9.590 -13.328 -0.12 -0.00    +0.000 OA
DOCKED: ENDROOT
DOCKED: BRANCH   6  32
DOCKED: ATOM     32  C   UNL d   1     -12.303  12.489 -10.109 -0.05 +0.01    +0.052 C 
DOCKED: BRANCH  32  33
DOCKED: ATOM     33  C   UNL d   1     -12.030  13.289  -8.840 -0.11 +0.04    +0.115 C 
DOCKED: BRANCH  33  34
DOCKED: ATOM     34  C   UNL d   1     -10.772  14.115  -8.940 -0.25 +0.10    +0.139 C 
DOCKED: ATOM     35  O   UNL d   1      -9.738  13.703  -8.439 -0.15 -0.35    -0.650 OA
DOCKED: BRANCH  34  36
DOCKED: ATOM     36  O   UNL d   1     -10.767  15.319  -9.549 -0.32 -0.79    -0.776 OA
DOCKED: ATOM     37  H   UNL d   1      -9.949  15.790  -9.743 -0.48 +0.18    +0.167 HD
DOCKED: ENDBRANCH  34  36
DOCKED: ENDBRANCH  33  34
DOCKED: ENDBRANCH  32  33
DOCKED: ENDBRANCH   6  32
DOCKED: BRANCH  22  38
DOCKED: ATOM     38  C   UNL d   1      -9.142   8.557  -8.019 -0.21 +0.01    +0.052 C 
DOCKED: BRANCH  38  39
DOCKED: ATOM     39  C   UNL d   1     -10.054   7.354  -8.253 -0.12 +0.06    +0.115 C 
DOCKED: BRANCH  39  40
DOCKED: ATOM     40  C   UNL d   1     -10.054   6.397  -7.087 -0.14 +0.16    +0.139 C 
DOCKED: ATOM     41  O   UNL d   1     -10.759   6.624  -6.117 -0.17 -0.94    -0.650 OA
DOCKED: BRANCH  40  42
DOCKED: ATOM     42  O   UNL d   1      -9.328   5.263  -7.118 -0.53 -1.15    -0.776 OA
DOCKED: ATOM     43  H   UNL d   1      -8.507   5.203  -7.621 +0.06 +0.13    +0.167 HD
DOCKED: ENDBRANCH  40  42
DOCKED: ENDBRANCH  39  40
DOCKED: ENDBRANCH  38  39
DOCKED: ENDBRANCH  22  38
DOCKED: BRANCH  12  44
DOCKED: ATOM     44  C   UNL d   1      -5.831  14.080 -17.362 -0.08 -0.00    +0.004 C 
DOCKED: ATOM     45  C   UNL d   1      -4.635  13.687 -17.799 -0.08 -0.01    +0.012 C 
DOCKED: ENDBRANCH  12  44
DOCKED: BRANCH  17  46
DOCKED: ATOM     46  C   UNL d   1      -3.237   7.548 -13.163 -0.56 -0.00    +0.004 C 
DOCKED: ATOM     47  C   UNL d   1      -3.139   6.916 -11.986 -0.55 -0.00    +0.012 C 
DOCKED: ENDBRANCH  17  46
DOCKED: TORSDOF 10
DOCKED: TER
DOCKED: ENDMDL
________________________________________________________________________________


	BEGINNING GENETIC ALGORITHM DOCKING 51 of 100
Run: 51 Seed: 1016974361 953855838 [ Run 51 of 100 GA/GALS ]
Beginning LAMARCKIAN GENETIC ALGORITHM (LGA), with a maximum of 25000000 energy evaluations.

Final-Value: -8.250


	FINAL GENETIC ALGORITHM DOCKED STATE
	_______________________________________________


Detailed state:  trans 12.974 -6.425 4.683 quatxyzw 0.689579 0.665443 -0.027482 -0.284448 center 8.287 34.468 -0.670 ntor 10 -58.8841 -110.5532 -103.2058 122.8116 -91.7890 -70.6684 59.7157 -30.1949 163.9728 -179.8864
State:	 12.974  -6.425   4.683   0.719  0.694 -0.029 -146.948    -58.88 -110.55 -103.21  122.81  -91.79  -70.67   59.72  -30.19  163.97 -179.89

DOCKED: MODEL       51
DOCKED: USER    Run = 51
DOCKED: USER    DPF = D:/Protein_go_brrr/autodock/final/mut_K82N/heme_O2/dock.dpf
DOCKED: USER  
DOCKED: USER    Estimated Free Energy of Binding    =   -4.65 kcal/mol  [=(1)+(2)+(3)-(4)]
DOCKED: USER    Estimated Inhibition Constant, Ki   =  390.69 uM (micromolar)  [Temperature = 298.15 K]
DOCKED: USER    
DOCKED: USER    (1) Final Intermolecular Energy     =   -7.63 kcal/mol
DOCKED: USER        vdW + Hbond + desolv Energy     =   -6.80 kcal/mol
DOCKED: USER        Electrostatic Energy            =   -0.83 kcal/mol
DOCKED: USER    (2) Final Total Internal Energy     =   -0.62 kcal/mol
DOCKED: USER    (3) Torsional Free Energy           =   +2.98 kcal/mol
DOCKED: USER    (4) Unbound System's Energy  [=(2)] =   -0.62 kcal/mol
DOCKED: USER    
DOCKED: USER    
DOCKED: USER    NEWDPF move heme_O2_opt.pdbqt
DOCKED: USER    NEWDPF about 8.287000 34.468000 -0.670000
DOCKED: USER    NEWDPF tran0 12.974400 -6.424557 4.683431
DOCKED: USER    NEWDPF quaternion0 0.689579 0.665443 -0.027482 -0.284448
DOCKED: USER    NEWDPF axisangle0 0.719292 0.694116 -0.028667 -146.948299
DOCKED: USER    NEWDPF quat0 0.719292 0.694116 -0.028667 -146.948299
DOCKED: USER    NEWDPF dihe0 -58.88 -110.55 -103.21 122.81 -91.79 -70.67 59.72 -30.19 163.97 -179.89 
DOCKED: USER  keepresnum = 1 
DOCKED: USER  
DOCKED: REMARK  10 active torsions:
DOCKED: REMARK  status: ('A' for Active; 'I' for Inactive)
DOCKED: REMARK    1  A    between atoms: C_6  and  C_10 
DOCKED: REMARK    2  A    between atoms: C_10  and  C_11 
DOCKED: REMARK    3  A    between atoms: C_11  and  C_12 
DOCKED: REMARK    4  A    between atoms: C_12  and  O_14 
DOCKED: REMARK    5  A    between atoms: C_17  and  C_20 
DOCKED: REMARK    6  A    between atoms: C_24  and  C_27 
DOCKED: REMARK    7  A    between atoms: C_31  and  C_34 
DOCKED: REMARK    8  A    between atoms: C_34  and  C_35 
DOCKED: REMARK    9  A    between atoms: C_35  and  C_36 
DOCKED: REMARK   10  A    between atoms: C_36  and  O_38 
DOCKED: USER                              x       y       z     vdW  Elec       q    Type
DOCKED: USER                           _______ _______ _______ _____ _____    ______ ____
DOCKED: ROOT
DOCKED: ATOM      1  C   UNL d   1      13.053  -7.740   6.346 +0.02 +0.01    +0.064 A 
DOCKED: ATOM      2  C   UNL d   1      11.903  -8.399   1.785 -0.20 +0.00    +0.064 A 
DOCKED: ATOM      3  C   UNL d   1      12.630  -3.745   0.833 -0.21 -0.00    +0.064 C 
DOCKED: ATOM      4  C   UNL d   1      14.276  -3.149   5.416 -0.18 +0.01    +0.064 A 
DOCKED: ATOM      5  C   UNL d   1      12.682  -8.299   5.182 -0.25 +0.01    +0.066 A 
DOCKED: ATOM      6  C   UNL d   1      12.351  -9.649   5.033 -0.28 -0.00    -0.021 A 
DOCKED: ATOM      7  C   UNL d   1      12.060  -9.850   3.704 -0.24 -0.00    -0.025 A 
DOCKED: ATOM      8  C   UNL d   1      12.174  -8.608   3.087 -0.23 +0.00    +0.066 A 
DOCKED: ATOM      9  C   UNL d   1      11.723 -11.189   3.085 -0.14 +0.01    +0.051 C 
DOCKED: ATOM     10  C   UNL d   1      11.982  -7.115   1.087 -0.18 +0.00    +0.066 A 
DOCKED: ATOM     11  C   UNL d   1      11.533  -6.922  -0.224 -0.15 -0.00    -0.021 A 
DOCKED: ATOM     12  C   UNL d   1      11.717  -5.582  -0.510 -0.16 +0.00    +0.000 A 
DOCKED: ATOM     13  C   UNL d   1      12.293  -5.024   0.664 -0.17 -0.00    +0.070 A 
DOCKED: ATOM     14  C   UNL d   1      10.927  -7.967  -1.154 -0.06 +0.00    +0.052 C 
DOCKED: ATOM     15  C   UNL d   1      13.247  -3.147   1.992 -0.13 -0.00    +0.066 A 
DOCKED: ATOM     16  C   UNL d   1      13.726  -1.838   2.047 -0.16 -0.00    -0.021 A 
DOCKED: ATOM     17  C   UNL d   1      14.201  -1.646   3.344 -0.13 +0.00    +0.000 A 
DOCKED: ATOM     18  C   UNL d   1      13.972  -2.868   3.993 -0.02 +0.00    +0.070 A 
DOCKED: ATOM     19  C   UNL d   1      13.737  -0.917   0.854 -0.17 +0.01    +0.052 C 
DOCKED: ATOM     20  C   UNL d   1      14.109  -4.322   6.058 -0.21 +0.01    +0.066 A 
DOCKED: ATOM     21  C   UNL d   1      14.398  -4.522   7.405 -0.24 -0.00    -0.025 A 
DOCKED: ATOM     22  C   UNL d   1      14.030  -5.816   7.694 -0.29 -0.00    -0.021 A 
DOCKED: ATOM     23  C   UNL d   1      13.545  -6.366   6.503 -0.25 +0.01    +0.066 A 
DOCKED: ATOM     24  C   UNL d   1      14.998  -3.529   8.366 -0.19 -0.00    +0.051 C 
DOCKED: ATOM     25  N   UNL d   1      12.621  -7.666   3.985 -0.14 -0.02    -0.248 N 
DOCKED: ATOM     26  N   UNL d   1      12.455  -5.964   1.629 -0.13 +0.00    -0.248 N 
DOCKED: ATOM     27  N   UNL d   1      13.462  -3.790   3.137 -0.05 -0.01    -0.248 N 
DOCKED: ATOM     28  N   UNL d   1      13.637  -5.468   5.501 -0.14 -0.03    -0.248 N 
DOCKED: ATOM     29 FE   UNL d   1      13.052  -5.712   3.579 -0.05 +0.00    +0.000 Fe
DOCKED: ATOM     30  O   UNL d   1      14.052  -6.721   2.943 -0.11 +0.00    +0.000 OA
DOCKED: ATOM     31  O   UNL d   1      14.588  -5.376   3.565 -0.11 +0.00    +0.000 OA
DOCKED: ENDROOT
DOCKED: BRANCH   6  32
DOCKED: ATOM     32  C   UNL d   1      12.438 -10.740   6.069 -0.23 +0.01    +0.052 C 
DOCKED: BRANCH  32  33
DOCKED: ATOM     33  C   UNL d   1      13.513 -11.775   5.751 -0.11 +0.03    +0.115 C 
DOCKED: BRANCH  33  34
DOCKED: ATOM     34  C   UNL d   1      12.955 -13.173   5.654 -0.03 +0.07    +0.139 C 
DOCKED: ATOM     35  O   UNL d   1      13.025 -13.778   4.596 -0.01 -0.26    -0.650 OA
DOCKED: BRANCH  34  36
DOCKED: ATOM     36  O   UNL d   1      12.353 -13.765   6.706 -0.16 -0.71    -0.776 OA
DOCKED: ATOM     37  H   UNL d   1      12.807 -13.900   7.546 +0.02 +0.07    +0.167 HD
DOCKED: ENDBRANCH  34  36
DOCKED: ENDBRANCH  33  34
DOCKED: ENDBRANCH  32  33
DOCKED: ENDBRANCH   6  32
DOCKED: BRANCH  22  38
DOCKED: ATOM     38  C   UNL d   1      14.198  -6.500   9.026 -0.32 -0.00    +0.052 C 
DOCKED: BRANCH  38  39
DOCKED: ATOM     39  C   UNL d   1      15.635  -6.957   9.269 -0.16 +0.00    +0.115 C 
DOCKED: BRANCH  39  40
DOCKED: ATOM     40  C   UNL d   1      16.009  -6.929  10.730 -0.18 +0.00    +0.139 C 
DOCKED: ATOM     41  O   UNL d   1      15.569  -7.780  11.485 -0.05 -0.02    -0.650 OA
DOCKED: BRANCH  40  42
DOCKED: ATOM     42  O   UNL d   1      16.866  -6.007  11.210 +0.03 -0.03    -0.776 OA
DOCKED: ATOM     43  H   UNL d   1      17.763  -6.241  11.476 +0.03 +0.00    +0.167 HD
DOCKED: ENDBRANCH  40  42
DOCKED: ENDBRANCH  39  40
DOCKED: ENDBRANCH  38  39
DOCKED: ENDBRANCH  22  38
DOCKED: BRANCH  12  44
DOCKED: ATOM     44  C   UNL d   1      11.336  -4.987  -1.849 -0.22 +0.00    +0.004 C 
DOCKED: ATOM     45  C   UNL d   1      10.113  -4.748  -2.321 -0.30 +0.00    +0.012 C 
DOCKED: ENDBRANCH  12  44
DOCKED: BRANCH  17  46
DOCKED: ATOM     46  C   UNL d   1      14.882  -0.465   3.982 -0.08 +0.00    +0.004 C 
DOCKED: ATOM     47  C   UNL d   1      14.444   0.300   4.990 -0.12 +0.00    +0.012 C 
DOCKED: ENDBRANCH  17  46
DOCKED: TORSDOF 10
DOCKED: TER
DOCKED: ENDMDL
________________________________________________________________________________


	BEGINNING GENETIC ALGORITHM DOCKING 52 of 100
Run: 52 Seed: 930817122 359222447 [ Run 52 of 100 GA/GALS ]
Beginning LAMARCKIAN GENETIC ALGORITHM (LGA), with a maximum of 25000000 energy evaluations.

Final-Value: -8.910


	FINAL GENETIC ALGORITHM DOCKED STATE
	_______________________________________________


Detailed state:  trans 12.911 11.683 0.199 quatxyzw -0.378452 -0.769557 -0.223060 0.463467 center 8.287 34.468 -0.670 ntor 10 179.2353 63.0246 -14.1752 69.8009 -133.5547 33.5752 -134.0357 102.1580 -7.1917 19.8926
State:	 12.911  11.683   0.199  -0.427 -0.868 -0.252 124.778    179.24   63.02  -14.18   69.80 -133.55   33.58 -134.04  102.16   -7.19   19.89

DOCKED: MODEL       52
DOCKED: USER    Run = 52
DOCKED: USER    DPF = D:/Protein_go_brrr/autodock/final/mut_K82N/heme_O2/dock.dpf
DOCKED: USER  
DOCKED: USER    Estimated Free Energy of Binding    =   -5.23 kcal/mol  [=(1)+(2)+(3)-(4)]
DOCKED: USER    Estimated Inhibition Constant, Ki   =  147.62 uM (micromolar)  [Temperature = 298.15 K]
DOCKED: USER    
DOCKED: USER    (1) Final Intermolecular Energy     =   -8.21 kcal/mol
DOCKED: USER        vdW + Hbond + desolv Energy     =   -7.53 kcal/mol
DOCKED: USER        Electrostatic Energy            =   -0.68 kcal/mol
DOCKED: USER    (2) Final Total Internal Energy     =   -0.70 kcal/mol
DOCKED: USER    (3) Torsional Free Energy           =   +2.98 kcal/mol
DOCKED: USER    (4) Unbound System's Energy  [=(2)] =   -0.70 kcal/mol
DOCKED: USER    
DOCKED: USER    
DOCKED: USER    NEWDPF move heme_O2_opt.pdbqt
DOCKED: USER    NEWDPF about 8.287000 34.468000 -0.670000
DOCKED: USER    NEWDPF tran0 12.911030 11.683057 0.198624
DOCKED: USER    NEWDPF quaternion0 -0.378452 -0.769557 -0.223060 0.463467
DOCKED: USER    NEWDPF axisangle0 -0.427091 -0.868462 -0.251728 124.777953
DOCKED: USER    NEWDPF quat0 -0.427091 -0.868462 -0.251728 124.777953
DOCKED: USER    NEWDPF dihe0 179.24 63.02 -14.18 69.80 -133.55 33.58 -134.04 102.16 -7.19 19.89 
DOCKED: USER  keepresnum = 1 
DOCKED: USER  
DOCKED: REMARK  10 active torsions:
DOCKED: REMARK  status: ('A' for Active; 'I' for Inactive)
DOCKED: REMARK    1  A    between atoms: C_6  and  C_10 
DOCKED: REMARK    2  A    between atoms: C_10  and  C_11 
DOCKED: REMARK    3  A    between atoms: C_11  and  C_12 
DOCKED: REMARK    4  A    between atoms: C_12  and  O_14 
DOCKED: REMARK    5  A    between atoms: C_17  and  C_20 
DOCKED: REMARK    6  A    between atoms: C_24  and  C_27 
DOCKED: REMARK    7  A    between atoms: C_31  and  C_34 
DOCKED: REMARK    8  A    between atoms: C_34  and  C_35 
DOCKED: REMARK    9  A    between atoms: C_35  and  C_36 
DOCKED: REMARK   10  A    between atoms: C_36  and  O_38 
DOCKED: USER                              x       y       z     vdW  Elec       q    Type
DOCKED: USER                           _______ _______ _______ _____ _____    ______ ____
DOCKED: ROOT
DOCKED: ATOM      1  C   UNL d   1      12.962  10.583   2.011 -0.11 +0.00    +0.064 A 
DOCKED: ATOM      2  C   UNL d   1      14.874   9.808  -2.267 -0.17 -0.00    +0.064 A 
DOCKED: ATOM      3  C   UNL d   1      12.917  13.851  -3.976 -0.26 -0.01    +0.064 C 
DOCKED: ATOM      4  C   UNL d   1      11.341  14.904   0.549 -0.25 -0.01    +0.064 A 
DOCKED: ATOM      5  C   UNL d   1      13.644  10.043   0.988 -0.05 -0.00    +0.066 A 
DOCKED: ATOM      6  C   UNL d   1      14.344   8.836   1.063 -0.11 +0.00    -0.021 A 
DOCKED: ATOM      7  C   UNL d   1      14.934   8.632  -0.162 -0.12 +0.00    -0.025 A 
DOCKED: ATOM      8  C   UNL d   1      14.538   9.696  -0.967 -0.15 -0.00    +0.066 A 
DOCKED: ATOM      9  C   UNL d   1      15.851   7.477  -0.500 -0.07 +0.00    +0.051 C 
DOCKED: ATOM     10  C   UNL d   1      14.471  10.889  -3.167 -0.21 -0.01    +0.066 A 
DOCKED: ATOM     11  C   UNL d   1      14.711  10.872  -4.546 -0.21 +0.00    -0.021 A 
DOCKED: ATOM     12  C   UNL d   1      14.138  12.021  -5.059 -0.25 -0.00    +0.000 A 
DOCKED: ATOM     13  C   UNL d   1      13.579  12.695  -3.938 -0.19 -0.02    +0.070 A 
DOCKED: ATOM     14  C   UNL d   1      15.432   9.792  -5.344 -0.16 -0.00    +0.052 C 
DOCKED: ATOM     15  C   UNL d   1      12.367  14.582  -2.860 -0.27 -0.02    +0.066 A 
DOCKED: ATOM     16  C   UNL d   1      11.830  15.866  -2.944 -0.25 +0.00    -0.021 A 
DOCKED: ATOM     17  C   UNL d   1      11.375  16.188  -1.666 -0.22 -0.00    +0.000 A 
DOCKED: ATOM     18  C   UNL d   1      11.671  15.060  -0.887 -0.27 -0.01    +0.070 A 
DOCKED: ATOM     19  C   UNL d   1      11.849  16.684  -4.211 -0.18 -0.01    +0.052 C 
DOCKED: ATOM     20  C   UNL d   1      11.649  13.854   1.335 -0.18 -0.00    +0.066 A 
DOCKED: ATOM     21  C   UNL d   1      11.296  13.755   2.678 -0.14 -0.00    -0.025 A 
DOCKED: ATOM     22  C   UNL d   1      11.726  12.519   3.104 -0.09 -0.00    -0.021 A 
DOCKED: ATOM     23  C   UNL d   1      12.344  11.914   2.006 -0.06 +0.00    +0.066 A 
DOCKED: ATOM     24  C   UNL d   1      10.588  14.790   3.514 -0.13 +0.00    +0.051 C 
DOCKED: ATOM     25  N   UNL d   1      13.797  10.599  -0.239 -0.00 +0.01    -0.248 N 
DOCKED: ATOM     26  N   UNL d   1      13.790  12.001  -2.791 -0.13 +0.06    -0.248 N 
DOCKED: ATOM     27  N   UNL d   1      12.340  14.127  -1.611 -0.21 +0.05    -0.248 N 
DOCKED: ATOM     28  N   UNL d   1      12.335  12.747   0.945 -0.12 +0.00    -0.248 N 
DOCKED: ATOM     29 FE   UNL d   1      13.056  12.380  -0.910 -0.05 -0.00    +0.000 Fe
DOCKED: ATOM     30  O   UNL d   1      14.607  12.354  -0.776 -0.12 -0.00    +0.000 OA
DOCKED: ATOM     31  O   UNL d   1      13.807  13.644  -0.353 -0.13 -0.00    +0.000 OA
DOCKED: ENDROOT
DOCKED: BRANCH   6  32
DOCKED: ATOM     32  C   UNL d   1      14.567   7.972   2.278 -0.06 -0.00    +0.052 C 
DOCKED: BRANCH  32  33
DOCKED: ATOM     33  C   UNL d   1      13.336   7.155   2.658 -0.10 -0.00    +0.115 C 
DOCKED: BRANCH  33  34
DOCKED: ATOM     34  C   UNL d   1      12.671   6.526   1.458 -0.18 -0.01    +0.139 C 
DOCKED: ATOM     35  O   UNL d   1      13.177   5.548   0.931 +0.02 +0.01    -0.650 OA
DOCKED: BRANCH  34  36
DOCKED: ATOM     36  O   UNL d   1      11.538   7.037   0.934 +0.10 +0.13    -0.776 OA
DOCKED: ATOM     37  H   UNL d   1      11.110   6.646   0.163 -0.51 -0.09    +0.167 HD
DOCKED: ENDBRANCH  34  36
DOCKED: ENDBRANCH  33  34
DOCKED: ENDBRANCH  32  33
DOCKED: ENDBRANCH   6  32
DOCKED: BRANCH  22  38
DOCKED: ATOM     38  C   UNL d   1      11.604  11.982   4.507 -0.10 +0.01    +0.052 C 
DOCKED: BRANCH  38  39
DOCKED: ATOM     39  C   UNL d   1      10.819  10.673   4.563 -0.15 +0.03    +0.115 C 
DOCKED: BRANCH  39  40
DOCKED: ATOM     40  C   UNL d   1       9.328  10.892   4.489 -0.11 +0.08    +0.139 C 
DOCKED: ATOM     41  O   UNL d   1       8.574   9.933   4.489 -0.58 -0.51    -0.650 OA
DOCKED: BRANCH  40  42
DOCKED: ATOM     42  O   UNL d   1       8.807  12.134   4.474 -0.07 -0.40    -0.776 OA
DOCKED: ATOM     43  H   UNL d   1       8.961  12.737   3.737 +0.07 +0.04    +0.167 HD
DOCKED: ENDBRANCH  40  42
DOCKED: ENDBRANCH  39  40
DOCKED: ENDBRANCH  38  39
DOCKED: ENDBRANCH  22  38
DOCKED: BRANCH  12  44
DOCKED: ATOM     44  C   UNL d   1      14.186  12.352  -6.536 -0.21 -0.00    +0.004 C 
DOCKED: ATOM     45  C   UNL d   1      13.417  13.208  -7.209 -0.26 -0.00    +0.012 C 
DOCKED: ENDBRANCH  12  44
DOCKED: BRANCH  17  46
DOCKED: ATOM     46  C   UNL d   1      10.758  17.451  -1.125 -0.23 -0.00    +0.004 C 
DOCKED: ATOM     47  C   UNL d   1       9.602  18.025  -1.479 -0.29 -0.00    +0.012 C 
DOCKED: ENDBRANCH  17  46
DOCKED: TORSDOF 10
DOCKED: TER
DOCKED: ENDMDL
________________________________________________________________________________


	BEGINNING GENETIC ALGORITHM DOCKING 53 of 100
Run: 53 Seed: 189081582 1910052593 [ Run 53 of 100 GA/GALS ]
Beginning LAMARCKIAN GENETIC ALGORITHM (LGA), with a maximum of 25000000 energy evaluations.

Final-Value: -11.594


	FINAL GENETIC ALGORITHM DOCKED STATE
	_______________________________________________


Detailed state:  trans -7.809 10.402 -12.207 quatxyzw -0.138937 -0.568386 -0.169701 0.792991 center 8.287 34.468 -0.670 ntor 10 28.1038 55.3990 81.6709 -107.0586 -129.8713 -101.5060 -29.5066 -99.5915 9.0981 147.8579
State:	 -7.809  10.402 -12.207  -0.228 -0.933 -0.279 75.068     28.10   55.40   81.67 -107.06 -129.87 -101.51  -29.51  -99.59    9.10  147.86

DOCKED: MODEL       53
DOCKED: USER    Run = 53
DOCKED: USER    DPF = D:/Protein_go_brrr/autodock/final/mut_K82N/heme_O2/dock.dpf
DOCKED: USER  
DOCKED: USER    Estimated Free Energy of Binding    =   -7.90 kcal/mol  [=(1)+(2)+(3)-(4)]
DOCKED: USER    Estimated Inhibition Constant, Ki   =    1.63 uM (micromolar)  [Temperature = 298.15 K]
DOCKED: USER    
DOCKED: USER    (1) Final Intermolecular Energy     =  -10.88 kcal/mol
DOCKED: USER        vdW + Hbond + desolv Energy     =   -8.11 kcal/mol
DOCKED: USER        Electrostatic Energy            =   -2.77 kcal/mol
DOCKED: USER    (2) Final Total Internal Energy     =   -0.72 kcal/mol
DOCKED: USER    (3) Torsional Free Energy           =   +2.98 kcal/mol
DOCKED: USER    (4) Unbound System's Energy  [=(2)] =   -0.72 kcal/mol
DOCKED: USER    
DOCKED: USER    
DOCKED: USER    NEWDPF move heme_O2_opt.pdbqt
DOCKED: USER    NEWDPF about 8.287000 34.468000 -0.670000
DOCKED: USER    NEWDPF tran0 -7.809395 10.402044 -12.206799
DOCKED: USER    NEWDPF quaternion0 -0.138937 -0.568386 -0.169701 0.792991
DOCKED: USER    NEWDPF axisangle0 -0.228053 -0.932954 -0.278549 75.068095
DOCKED: USER    NEWDPF quat0 -0.228053 -0.932954 -0.278549 75.068095
DOCKED: USER    NEWDPF dihe0 28.10 55.40 81.67 -107.06 -129.87 -101.51 -29.51 -99.59 9.10 147.86 
DOCKED: USER  keepresnum = 1 
DOCKED: USER  
DOCKED: REMARK  10 active torsions:
DOCKED: REMARK  status: ('A' for Active; 'I' for Inactive)
DOCKED: REMARK    1  A    between atoms: C_6  and  C_10 
DOCKED: REMARK    2  A    between atoms: C_10  and  C_11 
DOCKED: REMARK    3  A    between atoms: C_11  and  C_12 
DOCKED: REMARK    4  A    between atoms: C_12  and  O_14 
DOCKED: REMARK    5  A    between atoms: C_17  and  C_20 
DOCKED: REMARK    6  A    between atoms: C_24  and  C_27 
DOCKED: REMARK    7  A    between atoms: C_31  and  C_34 
DOCKED: REMARK    8  A    between atoms: C_34  and  C_35 
DOCKED: REMARK    9  A    between atoms: C_35  and  C_36 
DOCKED: REMARK   10  A    between atoms: C_36  and  O_38 
DOCKED: USER                              x       y       z     vdW  Elec       q    Type
DOCKED: USER                           _______ _______ _______ _____ _____    ______ ____
DOCKED: ROOT
DOCKED: ATOM      1  C   UNL d   1      -9.189  10.169 -10.613 -0.10 +0.01    +0.064 A 
DOCKED: ATOM      2  C   UNL d   1      -5.021   8.105 -11.575 -0.17 -0.01    +0.064 A 
DOCKED: ATOM      3  C   UNL d   1      -4.601  10.636 -15.639 -0.14 -0.02    +0.064 C 
DOCKED: ATOM      4  C   UNL d   1      -8.655  13.114 -14.418 -0.07 +0.00    +0.064 A 
DOCKED: ATOM      5  C   UNL d   1      -8.089   9.403 -10.542 -0.14 +0.01    +0.066 A 
DOCKED: ATOM      6  C   UNL d   1      -7.835   8.492  -9.512 -0.20 -0.00    -0.021 A 
DOCKED: ATOM      7  C   UNL d   1      -6.608   7.925  -9.767 -0.28 -0.00    -0.025 A 
DOCKED: ATOM      8  C   UNL d   1      -6.169   8.470 -10.971 -0.24 -0.01    +0.066 A 
DOCKED: ATOM      9  C   UNL d   1      -5.907   6.935  -8.863 -0.34 +0.00    +0.051 C 
DOCKED: ATOM     10  C   UNL d   1      -4.520   8.624 -12.848 -0.18 -0.02    +0.066 A 
DOCKED: ATOM     11  C   UNL d   1      -3.407   8.093 -13.511 -0.46 +0.00    -0.021 A 
DOCKED: ATOM     12  C   UNL d   1      -3.281   8.798 -14.693 -0.39 -0.00    +0.000 A 
DOCKED: ATOM     13  C   UNL d   1      -4.339   9.748 -14.679 -0.21 -0.02    +0.070 A 
DOCKED: ATOM     14  C   UNL d   1      -2.519   6.944 -13.048 -0.27 -0.01    +0.052 C 
DOCKED: ATOM     15  C   UNL d   1      -5.641  11.636 -15.646 -0.08 -0.02    +0.066 A 
DOCKED: ATOM     16  C   UNL d   1      -5.762  12.643 -16.603 -0.07 +0.01    -0.021 A 
DOCKED: ATOM     17  C   UNL d   1      -6.910  13.363 -16.275 -0.06 -0.00    +0.000 A 
DOCKED: ATOM     18  C   UNL d   1      -7.412  12.732 -15.129 -0.07 -0.01    +0.070 A 
DOCKED: ATOM     19  C   UNL d   1      -4.751  12.860 -17.701 -0.07 -0.03    +0.052 C 
DOCKED: ATOM     20  C   UNL d   1      -9.142  12.558 -13.292 +0.01 +0.01    +0.066 A 
DOCKED: ATOM     21  C   UNL d   1     -10.328  12.949 -12.678 +0.01 -0.01    -0.025 A 
DOCKED: ATOM     22  C   UNL d   1     -10.510  12.103 -11.607 -0.06 -0.01    -0.021 A 
DOCKED: ATOM     23  C   UNL d   1      -9.414  11.235 -11.597 +0.02 +0.02    +0.066 A 
DOCKED: ATOM     24  C   UNL d   1     -11.240  14.075 -13.090 -0.06 +0.01    +0.051 C 
DOCKED: ATOM     25  N   UNL d   1      -7.051   9.428 -11.414 -0.11 +0.01    -0.248 N 
DOCKED: ATOM     26  N   UNL d   1      -5.086   9.638 -13.551 -0.14 +0.05    -0.248 N 
DOCKED: ATOM     27  N   UNL d   1      -6.588  11.734 -14.718 -0.05 +0.04    -0.248 N 
DOCKED: ATOM     28  N   UNL d   1      -8.562  11.544 -12.596 -0.04 -0.04    -0.248 N 
DOCKED: ATOM     29 FE   UNL d   1      -6.836  10.600 -13.072 -0.04 -0.00    +0.000 Fe
DOCKED: ATOM     30  O   UNL d   1      -5.830  10.933 -11.933 -0.43 -0.00    +0.000 OA
DOCKED: ATOM     31  O   UNL d   1      -6.483  12.101 -12.763 -0.39 -0.00    +0.000 OA
DOCKED: ENDROOT
DOCKED: BRANCH   6  32
DOCKED: ATOM     32  C   UNL d   1      -8.645   8.260  -8.264 -0.22 +0.01    +0.052 C 
DOCKED: BRANCH  32  33
DOCKED: ATOM     33  C   UNL d   1      -9.672   7.143  -8.422 -0.13 +0.05    +0.115 C 
DOCKED: BRANCH  33  34
DOCKED: ATOM     34  C   UNL d   1      -9.919   6.402  -7.132 -0.16 +0.15    +0.139 C 
DOCKED: ATOM     35  O   UNL d   1     -10.651   6.891  -6.286 -0.18 -0.75    -0.650 OA
DOCKED: BRANCH  34  36
DOCKED: ATOM     36  O   UNL d   1      -9.326   5.217  -6.876 -0.51 -1.28    -0.776 OA
DOCKED: ATOM     37  H   UNL d   1      -8.470   4.982  -7.253 +0.06 +0.15    +0.167 HD
DOCKED: ENDBRANCH  34  36
DOCKED: ENDBRANCH  33  34
DOCKED: ENDBRANCH  32  33
DOCKED: ENDBRANCH   6  32
DOCKED: BRANCH  22  38
DOCKED: ATOM     38  C   UNL d   1     -11.643  12.172 -10.616 -0.07 +0.01    +0.052 C 
DOCKED: BRANCH  38  39
DOCKED: ATOM     39  C   UNL d   1     -11.181  12.629  -9.235 -0.14 +0.04    +0.115 C 
DOCKED: BRANCH  39  40
DOCKED: ATOM     40  C   UNL d   1     -10.993  14.123  -9.155 -0.23 +0.09    +0.139 C 
DOCKED: ATOM     41  O   UNL d   1     -11.820  14.866  -9.658 -0.04 -0.40    -0.650 OA
DOCKED: BRANCH  40  42
DOCKED: ATOM     42  O   UNL d   1      -9.950  14.659  -8.492 -0.45 -0.89    -0.776 OA
DOCKED: ATOM     43  H   UNL d   1      -9.039  14.445  -8.727 -0.28 +0.09    +0.167 HD
DOCKED: ENDBRANCH  40  42
DOCKED: ENDBRANCH  39  40
DOCKED: ENDBRANCH  38  39
DOCKED: ENDBRANCH  22  38
DOCKED: BRANCH  12  44
DOCKED: ATOM     44  C   UNL d   1      -2.182   8.500 -15.693 -0.41 -0.00    +0.004 C 
DOCKED: ATOM     45  C   UNL d   1      -1.058   9.185 -15.902 -0.40 -0.00    +0.012 C 
DOCKED: ENDBRANCH  12  44
DOCKED: BRANCH  17  46
DOCKED: ATOM     46  C   UNL d   1      -7.519  14.591 -16.900 -0.04 -0.00    +0.004 C 
DOCKED: ATOM     47  C   UNL d   1      -7.649  15.813 -16.368 -0.06 -0.00    +0.012 C 
DOCKED: ENDBRANCH  17  46
DOCKED: TORSDOF 10
DOCKED: TER
DOCKED: ENDMDL
________________________________________________________________________________


	BEGINNING GENETIC ALGORITHM DOCKING 54 of 100
Run: 54 Seed: 125794235 1437116661 [ Run 54 of 100 GA/GALS ]
Beginning LAMARCKIAN GENETIC ALGORITHM (LGA), with a maximum of 25000000 energy evaluations.

Final-Value: -10.714


	FINAL GENETIC ALGORITHM DOCKED STATE
	_______________________________________________


Detailed state:  trans -9.448 6.638 -10.902 quatxyzw -0.560678 0.408745 0.458795 -0.555045 center 8.287 34.468 -0.670 ntor 10 -179.5853 127.9068 132.9532 42.0971 -119.9611 24.8209 -71.9547 57.2050 -172.0886 -172.9708
State:	 -9.448   6.638 -10.902  -0.674  0.491  0.552 -112.572   -179.59  127.91  132.95   42.10 -119.96   24.82  -71.95   57.20 -172.09 -172.97

DOCKED: MODEL       54
DOCKED: USER    Run = 54
DOCKED: USER    DPF = D:/Protein_go_brrr/autodock/final/mut_K82N/heme_O2/dock.dpf
DOCKED: USER  
DOCKED: USER    Estimated Free Energy of Binding    =   -5.43 kcal/mol  [=(1)+(2)+(3)-(4)]
DOCKED: USER    Estimated Inhibition Constant, Ki   =  105.36 uM (micromolar)  [Temperature = 298.15 K]
DOCKED: USER    
DOCKED: USER    (1) Final Intermolecular Energy     =   -8.41 kcal/mol
DOCKED: USER        vdW + Hbond + desolv Energy     =   -6.45 kcal/mol
DOCKED: USER        Electrostatic Energy            =   -1.96 kcal/mol
DOCKED: USER    (2) Final Total Internal Energy     =   -2.30 kcal/mol
DOCKED: USER    (3) Torsional Free Energy           =   +2.98 kcal/mol
DOCKED: USER    (4) Unbound System's Energy  [=(2)] =   -2.30 kcal/mol
DOCKED: USER    
DOCKED: USER    
DOCKED: USER    NEWDPF move heme_O2_opt.pdbqt
DOCKED: USER    NEWDPF about 8.287000 34.468000 -0.670000
DOCKED: USER    NEWDPF tran0 -9.448362 6.637643 -10.901785
DOCKED: USER    NEWDPF quaternion0 -0.560678 0.408745 0.458795 -0.555045
DOCKED: USER    NEWDPF axisangle0 -0.674037 0.491386 0.551555 -112.572402
DOCKED: USER    NEWDPF quat0 -0.674037 0.491386 0.551555 -112.572402
DOCKED: USER    NEWDPF dihe0 -179.59 127.91 132.95 42.10 -119.96 24.82 -71.95 57.20 -172.09 -172.97 
DOCKED: USER  keepresnum = 1 
DOCKED: USER  
DOCKED: REMARK  10 active torsions:
DOCKED: REMARK  status: ('A' for Active; 'I' for Inactive)
DOCKED: REMARK    1  A    between atoms: C_6  and  C_10 
DOCKED: REMARK    2  A    between atoms: C_10  and  C_11 
DOCKED: REMARK    3  A    between atoms: C_11  and  C_12 
DOCKED: REMARK    4  A    between atoms: C_12  and  O_14 
DOCKED: REMARK    5  A    between atoms: C_17  and  C_20 
DOCKED: REMARK    6  A    between atoms: C_24  and  C_27 
DOCKED: REMARK    7  A    between atoms: C_31  and  C_34 
DOCKED: REMARK    8  A    between atoms: C_34  and  C_35 
DOCKED: REMARK    9  A    between atoms: C_35  and  C_36 
DOCKED: REMARK   10  A    between atoms: C_36  and  O_38 
DOCKED: USER                              x       y       z     vdW  Elec       q    Type
DOCKED: USER                           _______ _______ _______ _____ _____    ______ ____
DOCKED: ROOT
DOCKED: ATOM      1  C   UNL d   1     -10.440   5.714  -9.270 -0.11 +0.04    +0.064 A 
DOCKED: ATOM      2  C   UNL d   1      -7.739   9.607  -9.595 -0.22 +0.01    +0.064 A 
DOCKED: ATOM      3  C   UNL d   1      -7.079   8.868 -14.298 -0.12 -0.00    +0.064 C 
DOCKED: ATOM      4  C   UNL d   1     -10.246   5.129 -14.072 -0.21 +0.02    +0.064 A 
DOCKED: ATOM      5  C   UNL d   1      -9.761   6.835  -8.975 -0.10 +0.03    +0.066 A 
DOCKED: ATOM      6  C   UNL d   1      -9.677   7.385  -7.693 -0.16 -0.01    -0.021 A 
DOCKED: ATOM      7  C   UNL d   1      -8.931   8.535  -7.794 -0.21 -0.01    -0.025 A 
DOCKED: ATOM      8  C   UNL d   1      -8.539   8.631  -9.126 -0.15 +0.01    +0.066 A 
DOCKED: ATOM      9  C   UNL d   1      -8.652   9.489  -6.653 -0.21 +0.01    +0.051 C 
DOCKED: ATOM     10  C   UNL d   1      -7.276   9.747 -10.977 -0.20 +0.00    +0.066 A 
DOCKED: ATOM     11  C   UNL d   1      -6.316  10.684 -11.376 -0.35 +0.00    -0.021 A 
DOCKED: ATOM     12  C   UNL d   1      -6.099  10.474 -12.725 -0.26 -0.00    +0.000 A 
DOCKED: ATOM     13  C   UNL d   1      -6.967   9.406 -13.083 -0.12 -0.00    +0.070 A 
DOCKED: ATOM     14  C   UNL d   1      -5.615  11.716 -10.501 -0.27 -0.01    +0.052 C 
DOCKED: ATOM     15  C   UNL d   1      -7.970   7.811 -14.709 +0.04 -0.00    +0.066 A 
DOCKED: ATOM     16  C   UNL d   1      -8.157   7.403 -16.030 -0.17 +0.00    -0.021 A 
DOCKED: ATOM     17  C   UNL d   1      -9.057   6.339 -15.990 -0.23 +0.00    +0.000 A 
DOCKED: ATOM     18  C   UNL d   1      -9.354   6.173 -14.630 -0.16 +0.01    +0.070 A 
DOCKED: ATOM     19  C   UNL d   1      -7.510   8.095 -17.203 -0.13 -0.01    +0.052 C 
DOCKED: ATOM     20  C   UNL d   1     -10.586   4.969 -12.778 -0.16 +0.02    +0.066 A 
DOCKED: ATOM     21  C   UNL d   1     -11.418   3.956 -12.309 -0.12 -0.01    -0.025 A 
DOCKED: ATOM     22  C   UNL d   1     -11.462   4.090 -10.940 -0.13 -0.01    -0.021 A 
DOCKED: ATOM     23  C   UNL d   1     -10.668   5.197 -10.624 -0.12 +0.02    +0.066 A 
DOCKED: ATOM     24  C   UNL d   1     -12.136   2.914 -13.127 -0.05 +0.03    +0.051 C 
DOCKED: ATOM     25  N   UNL d   1      -9.105   7.618  -9.866 -0.04 -0.05    -0.248 N 
DOCKED: ATOM     26  N   UNL d   1      -7.683   8.973 -12.015 -0.07 -0.00    -0.248 N 
DOCKED: ATOM     27  N   UNL d   1      -8.744   7.122 -13.875 +0.01 -0.01    -0.248 N 
DOCKED: ATOM     28  N   UNL d   1     -10.174   5.755 -11.748 -0.09 -0.06    -0.248 N 
DOCKED: ATOM     29 FE   UNL d   1      -8.938   7.352 -11.884 -0.03 +0.00    +0.000 Fe
DOCKED: ATOM     30  O   UNL d   1      -9.786   8.594 -11.482 -0.06 +0.00    +0.000 OA
DOCKED: ATOM     31  O   UNL d   1     -10.241   7.695 -12.693 -0.07 +0.00    +0.000 OA
DOCKED: ENDROOT
DOCKED: BRANCH   6  32
DOCKED: ATOM     32  C   UNL d   1     -10.383   6.925  -6.443 -0.17 +0.05    +0.052 C 
DOCKED: BRANCH  32  33
DOCKED: ATOM     33  C   UNL d   1     -11.759   7.561  -6.272 -0.12 +0.09    +0.115 C 
DOCKED: BRANCH  33  34
DOCKED: ATOM     34  C   UNL d   1     -12.880   6.596  -6.569 +0.01 +0.16    +0.139 C 
DOCKED: ATOM     35  O   UNL d   1     -13.328   5.899  -5.673 -0.37 -1.06    -0.650 OA
DOCKED: BRANCH  34  36
DOCKED: ATOM     36  O   UNL d   1     -13.383   6.463  -7.813 -0.01 -0.55    -0.776 OA
DOCKED: ATOM     37  H   UNL d   1     -14.105   5.856  -8.010 +0.01 +0.10    +0.167 HD
DOCKED: ENDBRANCH  34  36
DOCKED: ENDBRANCH  33  34
DOCKED: ENDBRANCH  32  33
DOCKED: ENDBRANCH   6  32
DOCKED: BRANCH  22  38
DOCKED: ATOM     38  C   UNL d   1     -12.277   3.240 -10.000 -0.12 +0.03    +0.052 C 
DOCKED: BRANCH  38  39
DOCKED: ATOM     39  C   UNL d   1     -13.774   3.517 -10.113 -0.04 +0.05    +0.115 C 
DOCKED: BRANCH  39  40
DOCKED: ATOM     40  C   UNL d   1     -14.391   3.904  -8.792 -0.04 +0.08    +0.139 C 
DOCKED: ATOM     41  O   UNL d   1     -15.530   4.341  -8.760 +0.01 -0.23    -0.650 OA
DOCKED: BRANCH  40  42
DOCKED: ATOM     42  O   UNL d   1     -13.724   3.727  -7.635 -0.05 -0.97    -0.776 OA
DOCKED: ATOM     43  H   UNL d   1     -13.646   4.435  -6.985 +0.00 +0.28    +0.167 HD
DOCKED: ENDBRANCH  40  42
DOCKED: ENDBRANCH  39  40
DOCKED: ENDBRANCH  38  39
DOCKED: ENDBRANCH  22  38
DOCKED: BRANCH  12  44
DOCKED: ATOM     44  C   UNL d   1      -5.108  11.301 -13.517 -0.38 -0.00    +0.004 C 
DOCKED: ATOM     45  C   UNL d   1      -5.018  12.629 -13.585 -0.46 -0.00    +0.012 C 
DOCKED: ENDBRANCH  12  44
DOCKED: BRANCH  17  46
DOCKED: ATOM     46  C   UNL d   1      -9.683   5.532 -17.096 -0.24 +0.00    +0.004 C 
DOCKED: ATOM     47  C   UNL d   1      -9.137   5.162 -18.262 -0.24 +0.00    +0.012 C 
DOCKED: ENDBRANCH  17  46
DOCKED: TORSDOF 10
DOCKED: TER
DOCKED: ENDMDL
________________________________________________________________________________


	BEGINNING GENETIC ALGORITHM DOCKING 55 of 100
Run: 55 Seed: 544262529 830018112 [ Run 55 of 100 GA/GALS ]
Beginning LAMARCKIAN GENETIC ALGORITHM (LGA), with a maximum of 25000000 energy evaluations.

Final-Value: -11.145


	FINAL GENETIC ALGORITHM DOCKED STATE
	_______________________________________________


Detailed state:  trans -8.288 10.603 -11.224 quatxyzw -0.952361 0.145787 0.267867 0.001213 center 8.287 34.468 -0.670 ntor 10 -6.0242 -2.1353 -41.2671 169.0868 -121.3844 -173.4612 -121.2077 -46.7043 -10.7303 140.8032
State:	 -8.288  10.603 -11.224  -0.952  0.146  0.268 179.861     -6.02   -2.14  -41.27  169.09 -121.38 -173.46 -121.21  -46.70  -10.73  140.80

DOCKED: MODEL       55
DOCKED: USER    Run = 55
DOCKED: USER    DPF = D:/Protein_go_brrr/autodock/final/mut_K82N/heme_O2/dock.dpf
DOCKED: USER  
DOCKED: USER    Estimated Free Energy of Binding    =   -7.45 kcal/mol  [=(1)+(2)+(3)-(4)]
DOCKED: USER    Estimated Inhibition Constant, Ki   =    3.45 uM (micromolar)  [Temperature = 298.15 K]
DOCKED: USER    
DOCKED: USER    (1) Final Intermolecular Energy     =  -10.43 kcal/mol
DOCKED: USER        vdW + Hbond + desolv Energy     =   -7.22 kcal/mol
DOCKED: USER        Electrostatic Energy            =   -3.22 kcal/mol
DOCKED: USER    (2) Final Total Internal Energy     =   -0.71 kcal/mol
DOCKED: USER    (3) Torsional Free Energy           =   +2.98 kcal/mol
DOCKED: USER    (4) Unbound System's Energy  [=(2)] =   -0.71 kcal/mol
DOCKED: USER    
DOCKED: USER    
DOCKED: USER    NEWDPF move heme_O2_opt.pdbqt
DOCKED: USER    NEWDPF about 8.287000 34.468000 -0.670000
DOCKED: USER    NEWDPF tran0 -8.287656 10.602752 -11.224299
DOCKED: USER    NEWDPF quaternion0 -0.952361 0.145787 0.267867 0.001213
DOCKED: USER    NEWDPF axisangle0 -0.952362 0.145787 0.267867 179.861034
DOCKED: USER    NEWDPF quat0 -0.952362 0.145787 0.267867 179.861034
DOCKED: USER    NEWDPF dihe0 -6.02 -2.14 -41.27 169.09 -121.38 -173.46 -121.21 -46.70 -10.73 140.80 
DOCKED: USER  keepresnum = 1 
DOCKED: USER  
DOCKED: REMARK  10 active torsions:
DOCKED: REMARK  status: ('A' for Active; 'I' for Inactive)
DOCKED: REMARK    1  A    between atoms: C_6  and  C_10 
DOCKED: REMARK    2  A    between atoms: C_10  and  C_11 
DOCKED: REMARK    3  A    between atoms: C_11  and  C_12 
DOCKED: REMARK    4  A    between atoms: C_12  and  O_14 
DOCKED: REMARK    5  A    between atoms: C_17  and  C_20 
DOCKED: REMARK    6  A    between atoms: C_24  and  C_27 
DOCKED: REMARK    7  A    between atoms: C_31  and  C_34 
DOCKED: REMARK    8  A    between atoms: C_34  and  C_35 
DOCKED: REMARK    9  A    between atoms: C_35  and  C_36 
DOCKED: REMARK   10  A    between atoms: C_36  and  O_38 
DOCKED: USER                              x       y       z     vdW  Elec       q    Type
DOCKED: USER                           _______ _______ _______ _____ _____    ______ ____
DOCKED: ROOT
DOCKED: ATOM      1  C   UNL d   1      -9.568  10.486  -9.537 -0.13 +0.02    +0.064 A 
DOCKED: ATOM      2  C   UNL d   1      -9.749  13.051 -13.531 -0.04 +0.01    +0.064 A 
DOCKED: ATOM      3  C   UNL d   1      -5.611  11.140 -15.055 -0.12 -0.02    +0.064 C 
DOCKED: ATOM      4  C   UNL d   1      -5.659   8.143 -11.171 -0.25 -0.01    +0.064 A 
DOCKED: ATOM      5  C   UNL d   1      -9.956  11.338 -10.500 -0.05 +0.02    +0.066 A 
DOCKED: ATOM      6  C   UNL d   1     -11.111  12.123 -10.432 -0.09 -0.01    -0.021 A 
DOCKED: ATOM      7  C   UNL d   1     -11.187  12.834 -11.607 -0.08 -0.01    -0.025 A 
DOCKED: ATOM      8  C   UNL d   1     -10.051  12.500 -12.339 +0.00 +0.02    +0.066 A 
DOCKED: ATOM      9  C   UNL d   1     -12.324  13.757 -11.988 -0.04 +0.01    +0.051 C 
DOCKED: ATOM     10  C   UNL d   1      -8.561  12.758 -14.334 -0.08 +0.00    +0.066 A 
DOCKED: ATOM     11  C   UNL d   1      -8.214  13.477 -15.484 -0.06 +0.00    -0.021 A 
DOCKED: ATOM     12  C   UNL d   1      -7.014  12.953 -15.928 -0.06 -0.00    +0.000 A 
DOCKED: ATOM     13  C   UNL d   1      -6.697  11.912 -15.011 -0.08 -0.01    +0.070 A 
DOCKED: ATOM     14  C   UNL d   1      -8.979  14.633 -16.116 -0.03 -0.00    +0.052 C 
DOCKED: ATOM     15  C   UNL d   1      -5.272  10.054 -14.167 -0.17 -0.01    +0.066 A 
DOCKED: ATOM     16  C   UNL d   1      -4.205   9.178 -14.362 -0.30 +0.01    -0.021 A 
DOCKED: ATOM     17  C   UNL d   1      -4.199   8.313 -13.268 -0.37 -0.00    +0.000 A 
DOCKED: ATOM     18  C   UNL d   1      -5.276   8.734 -12.475 -0.15 -0.01    +0.070 A 
DOCKED: ATOM     19  C   UNL d   1      -3.330   9.208 -15.590 -0.28 -0.02    +0.052 C 
DOCKED: ATOM     20  C   UNL d   1      -6.711   8.494 -10.407 -0.23 -0.00    +0.066 A 
DOCKED: ATOM     21  C   UNL d   1      -7.012   7.912  -9.178 -0.27 -0.00    -0.025 A 
DOCKED: ATOM     22  C   UNL d   1      -8.107   8.586  -8.685 -0.22 -0.00    -0.021 A 
DOCKED: ATOM     23  C   UNL d   1      -8.446   9.546  -9.644 -0.16 +0.01    +0.066 A 
DOCKED: ATOM     24  C   UNL d   1      -6.293   6.769  -8.510 -0.19 +0.00    +0.051 C 
DOCKED: ATOM     25  N   UNL d   1      -9.327  11.530 -11.686 +0.10 -0.09    -0.248 N 
DOCKED: ATOM     26  N   UNL d   1      -7.646  11.798 -14.047 -0.06 +0.01    -0.248 N 
DOCKED: ATOM     27  N   UNL d   1      -5.961   9.743 -13.073 -0.12 +0.04    -0.248 N 
DOCKED: ATOM     28  N   UNL d   1      -7.623   9.456 -10.708 -0.10 -0.01    -0.248 N 
DOCKED: ATOM     29 FE   UNL d   1      -7.632  10.617 -12.367 -0.04 +0.00    +0.000 Fe
DOCKED: ATOM     30  O   UNL d   1      -8.915  10.232 -13.160 -0.08 +0.00    +0.000 OA
DOCKED: ATOM     31  O   UNL d   1      -7.840   9.129 -12.831 -0.13 +0.00    +0.000 OA
DOCKED: ENDROOT
DOCKED: BRANCH   6  32
DOCKED: ATOM     32  C   UNL d   1     -12.177  12.106  -9.367 -0.06 +0.01    +0.052 C 
DOCKED: BRANCH  32  33
DOCKED: ATOM     33  C   UNL d   1     -11.719  12.746  -8.060 -0.13 +0.04    +0.115 C 
DOCKED: BRANCH  33  34
DOCKED: ATOM     34  C   UNL d   1     -11.246  14.166  -8.250 -0.22 +0.11    +0.139 C 
DOCKED: ATOM     35  O   UNL d   1     -12.050  15.083  -8.195 -0.05 -0.63    -0.650 OA
DOCKED: BRANCH  34  36
DOCKED: ATOM     36  O   UNL d   1      -9.952  14.448  -8.509 -0.54 -0.72    -0.776 OA
DOCKED: ATOM     37  H   UNL d   1      -9.269  13.767  -8.501 -0.23 +0.07    +0.167 HD
DOCKED: ENDBRANCH  34  36
DOCKED: ENDBRANCH  33  34
DOCKED: ENDBRANCH  32  33
DOCKED: ENDBRANCH   6  32
DOCKED: BRANCH  22  38
DOCKED: ATOM     38  C   UNL d   1      -8.821   8.277  -7.395 -0.19 +0.02    +0.052 C 
DOCKED: BRANCH  38  39
DOCKED: ATOM     39  C   UNL d   1     -10.269   7.848  -7.620 -0.13 +0.06    +0.115 C 
DOCKED: BRANCH  39  40
DOCKED: ATOM     40  C   UNL d   1     -10.627   6.600  -6.851 -0.03 +0.17    +0.139 C 
DOCKED: ATOM     41  O   UNL d   1      -9.763   5.777  -6.596 -0.46 -1.15    -0.650 OA
DOCKED: BRANCH  40  42
DOCKED: ATOM     42  O   UNL d   1     -11.878   6.400  -6.393 -0.11 -1.28    -0.776 OA
DOCKED: ATOM     43  H   UNL d   1     -12.582   7.041  -6.550 +0.02 +0.15    +0.167 HD
DOCKED: ENDBRANCH  40  42
DOCKED: ENDBRANCH  39  40
DOCKED: ENDBRANCH  38  39
DOCKED: ENDBRANCH  22  38
DOCKED: BRANCH  12  44
DOCKED: ATOM     44  C   UNL d   1      -6.310  13.485 -17.158 -0.06 -0.00    +0.004 C 
DOCKED: ATOM     45  C   UNL d   1      -5.017  13.775 -17.301 -0.10 -0.01    +0.012 C 
DOCKED: ENDBRANCH  12  44
DOCKED: BRANCH  17  46
DOCKED: ATOM     46  C   UNL d   1      -3.327   7.128 -12.949 -0.50 -0.00    +0.004 C 
DOCKED: ATOM     47  C   UNL d   1      -3.143   6.530 -11.765 -0.53 -0.00    +0.012 C 
DOCKED: ENDBRANCH  17  46
DOCKED: TORSDOF 10
DOCKED: TER
DOCKED: ENDMDL
________________________________________________________________________________


	BEGINNING GENETIC ALGORITHM DOCKING 56 of 100
Run: 56 Seed: 158031783 1379046031 [ Run 56 of 100 GA/GALS ]
Beginning LAMARCKIAN GENETIC ALGORITHM (LGA), with a maximum of 25000000 energy evaluations.

Final-Value: -10.908


	FINAL GENETIC ALGORITHM DOCKED STATE
	_______________________________________________


Detailed state:  trans -11.691 11.455 -5.733 quatxyzw 0.443930 0.701987 0.547299 -0.102974 center 8.287 34.468 -0.670 ntor 10 -89.7194 -130.5943 61.3410 -106.5488 72.4675 144.8414 80.0323 -121.4648 0.2949 -30.7703
State:	-11.691  11.455  -5.733   0.446  0.706  0.550 -168.179    -89.72 -130.59   61.34 -106.55   72.47  144.84   80.03 -121.46    0.29  -30.77

DOCKED: MODEL       56
DOCKED: USER    Run = 56
DOCKED: USER    DPF = D:/Protein_go_brrr/autodock/final/mut_K82N/heme_O2/dock.dpf
DOCKED: USER  
DOCKED: USER    Estimated Free Energy of Binding    =   -6.33 kcal/mol  [=(1)+(2)+(3)-(4)]
DOCKED: USER    Estimated Inhibition Constant, Ki   =   22.89 uM (micromolar)  [Temperature = 298.15 K]
DOCKED: USER    
DOCKED: USER    (1) Final Intermolecular Energy     =   -9.31 kcal/mol
DOCKED: USER        vdW + Hbond + desolv Energy     =   -6.45 kcal/mol
DOCKED: USER        Electrostatic Energy            =   -2.86 kcal/mol
DOCKED: USER    (2) Final Total Internal Energy     =   -1.59 kcal/mol
DOCKED: USER    (3) Torsional Free Energy           =   +2.98 kcal/mol
DOCKED: USER    (4) Unbound System's Energy  [=(2)] =   -1.59 kcal/mol
DOCKED: USER    
DOCKED: USER    
DOCKED: USER    NEWDPF move heme_O2_opt.pdbqt
DOCKED: USER    NEWDPF about 8.287000 34.468000 -0.670000
DOCKED: USER    NEWDPF tran0 -11.691424 11.454940 -5.733457
DOCKED: USER    NEWDPF quaternion0 0.443930 0.701987 0.547299 -0.102974
DOCKED: USER    NEWDPF axisangle0 0.446303 0.705739 0.550224 -168.179126
DOCKED: USER    NEWDPF quat0 0.446303 0.705739 0.550224 -168.179126
DOCKED: USER    NEWDPF dihe0 -89.72 -130.59 61.34 -106.55 72.47 144.84 80.03 -121.46 0.29 -30.77 
DOCKED: USER  keepresnum = 1 
DOCKED: USER  
DOCKED: REMARK  10 active torsions:
DOCKED: REMARK  status: ('A' for Active; 'I' for Inactive)
DOCKED: REMARK    1  A    between atoms: C_6  and  C_10 
DOCKED: REMARK    2  A    between atoms: C_10  and  C_11 
DOCKED: REMARK    3  A    between atoms: C_11  and  C_12 
DOCKED: REMARK    4  A    between atoms: C_12  and  O_14 
DOCKED: REMARK    5  A    between atoms: C_17  and  C_20 
DOCKED: REMARK    6  A    between atoms: C_24  and  C_27 
DOCKED: REMARK    7  A    between atoms: C_31  and  C_34 
DOCKED: REMARK    8  A    between atoms: C_34  and  C_35 
DOCKED: REMARK    9  A    between atoms: C_35  and  C_36 
DOCKED: REMARK   10  A    between atoms: C_36  and  O_38 
DOCKED: USER                              x       y       z     vdW  Elec       q    Type
DOCKED: USER                           _______ _______ _______ _____ _____    ______ ____
DOCKED: ROOT
DOCKED: ATOM      1  C   UNL d   1     -10.795   9.541  -5.550 -0.18 +0.02    +0.064 A 
DOCKED: ATOM      2  C   UNL d   1     -10.537  12.897  -8.902 -0.21 +0.03    +0.064 A 
DOCKED: ATOM      3  C   UNL d   1     -13.585  15.698  -6.461 -0.08 +0.04    +0.064 C 
DOCKED: ATOM      4  C   UNL d   1     -13.486  12.459  -2.779 -0.08 +0.01    +0.064 A 
DOCKED: ATOM      5  C   UNL d   1     -10.475  10.226  -6.660 -0.16 +0.02    +0.066 A 
DOCKED: ATOM      6  C   UNL d   1      -9.622   9.745  -7.658 -0.19 -0.01    -0.021 A 
DOCKED: ATOM      7  C   UNL d   1      -9.513  10.734  -8.608 -0.19 -0.01    -0.025 A 
DOCKED: ATOM      8  C   UNL d   1     -10.339  11.772  -8.188 -0.18 +0.02    +0.066 A 
DOCKED: ATOM      9  C   UNL d   1      -8.625  10.664  -9.831 -0.15 +0.01    +0.051 C 
DOCKED: ATOM     10  C   UNL d   1     -11.409  14.010  -8.524 -0.21 +0.04    +0.066 A 
DOCKED: ATOM     11  C   UNL d   1     -11.705  15.079  -9.377 -0.18 -0.02    -0.021 A 
DOCKED: ATOM     12  C   UNL d   1     -12.597  15.889  -8.698 -0.08 +0.00    +0.000 A 
DOCKED: ATOM     13  C   UNL d   1     -12.790  15.260  -7.436 -0.01 +0.06    +0.070 A 
DOCKED: ATOM     14  C   UNL d   1     -11.181  15.305 -10.790 -0.17 +0.03    +0.052 C 
DOCKED: ATOM     15  C   UNL d   1     -13.780  15.110  -5.158 -0.09 +0.03    +0.066 A 
DOCKED: ATOM     16  C   UNL d   1     -14.499  15.705  -4.122 -0.06 -0.01    -0.021 A 
DOCKED: ATOM     17  C   UNL d   1     -14.484  14.800  -3.061 -0.05 +0.00    +0.000 A 
DOCKED: ATOM     18  C   UNL d   1     -13.749  13.705  -3.536 -0.07 +0.02    +0.070 A 
DOCKED: ATOM     19  C   UNL d   1     -15.083  17.093  -4.216 -0.03 +0.01    +0.052 C 
DOCKED: ATOM     20  C   UNL d   1     -12.749  11.408  -3.188 -0.11 +0.01    +0.066 A 
DOCKED: ATOM     21  C   UNL d   1     -12.552  10.253  -2.437 -0.14 -0.01    -0.025 A 
DOCKED: ATOM     22  C   UNL d   1     -11.810   9.400  -3.222 -0.21 -0.01    -0.021 A 
DOCKED: ATOM     23  C   UNL d   1     -11.566  10.075  -4.421 -0.15 +0.02    +0.066 A 
DOCKED: ATOM     24  C   UNL d   1     -13.044   9.979  -1.039 -0.07 +0.01    +0.051 C 
DOCKED: ATOM     25  N   UNL d   1     -10.881  11.485  -6.956 -0.09 -0.07    -0.248 N 
DOCKED: ATOM     26  N   UNL d   1     -12.060  14.120  -7.337 -0.11 -0.16    -0.248 N 
DOCKED: ATOM     27  N   UNL d   1     -13.266  13.942  -4.783 -0.07 -0.08    -0.248 N 
DOCKED: ATOM     28  N   UNL d   1     -12.100  11.313  -4.379 -0.06 -0.06    -0.248 N 
DOCKED: ATOM     29 FE   UNL d   1     -12.081  12.708  -5.846 -0.03 +0.00    +0.000 Fe
DOCKED: ATOM     30  O   UNL d   1     -10.610  13.204  -5.956 -0.37 +0.00    +0.000 OA
DOCKED: ATOM     31  O   UNL d   1     -11.379  13.337  -4.587 -0.28 +0.00    +0.000 OA
DOCKED: ENDROOT
DOCKED: BRANCH   6  32
DOCKED: ATOM     32  C   UNL d   1      -8.830   8.463  -7.657 -0.23 +0.02    +0.052 C 
DOCKED: BRANCH  32  33
DOCKED: ATOM     33  C   UNL d   1      -9.645   7.263  -8.130 -0.15 +0.06    +0.115 C 
DOCKED: BRANCH  33  34
DOCKED: ATOM     34  C   UNL d   1     -10.109   6.396  -6.986 -0.12 +0.17    +0.139 C 
DOCKED: ATOM     35  O   UNL d   1      -9.328   5.617  -6.464 -0.51 -0.98    -0.650 OA
DOCKED: BRANCH  34  36
DOCKED: ATOM     36  O   UNL d   1     -11.382   6.441  -6.541 -0.07 -1.24    -0.776 OA
DOCKED: ATOM     37  H   UNL d   1     -11.660   7.052  -5.849 +0.03 +0.18    +0.167 HD
DOCKED: ENDBRANCH  34  36
DOCKED: ENDBRANCH  33  34
DOCKED: ENDBRANCH  32  33
DOCKED: ENDBRANCH   6  32
DOCKED: BRANCH  22  38
DOCKED: ATOM     38  C   UNL d   1     -11.312   8.038  -2.811 -0.37 +0.02    +0.052 C 
DOCKED: BRANCH  38  39
DOCKED: ATOM     39  C   UNL d   1     -12.439   7.012  -2.712 -0.20 +0.05    +0.115 C 
DOCKED: BRANCH  39  40
DOCKED: ATOM     40  C   UNL d   1     -13.204   6.868  -4.004 -0.12 +0.09    +0.139 C 
DOCKED: ATOM     41  O   UNL d   1     -13.932   7.772  -4.381 +0.02 -0.26    -0.650 OA
DOCKED: BRANCH  40  42
DOCKED: ATOM     42  O   UNL d   1     -13.058   5.778  -4.781 -0.45 -1.30    -0.776 OA
DOCKED: ATOM     43  H   UNL d   1     -12.851   5.851  -5.720 +0.03 +0.37    +0.167 HD
DOCKED: ENDBRANCH  40  42
DOCKED: ENDBRANCH  39  40
DOCKED: ENDBRANCH  38  39
DOCKED: ENDBRANCH  22  38
DOCKED: BRANCH  12  44
DOCKED: ATOM     44  C   UNL d   1     -13.159  17.155  -9.309 -0.09 +0.00    +0.004 C 
DOCKED: ATOM     45  C   UNL d   1     -13.093  18.396  -8.827 -0.07 +0.01    +0.012 C 
DOCKED: ENDBRANCH  12  44
DOCKED: BRANCH  17  46
DOCKED: ATOM     46  C   UNL d   1     -15.037  14.905  -1.664 -0.04 +0.00    +0.004 C 
DOCKED: ATOM     47  C   UNL d   1     -14.363  14.953  -0.508 -0.08 +0.00    +0.012 C 
DOCKED: ENDBRANCH  17  46
DOCKED: TORSDOF 10
DOCKED: TER
DOCKED: ENDMDL
________________________________________________________________________________


	BEGINNING GENETIC ALGORITHM DOCKING 57 of 100
Run: 57 Seed: 745734878 599824485 [ Run 57 of 100 GA/GALS ]
Beginning LAMARCKIAN GENETIC ALGORITHM (LGA), with a maximum of 25000000 energy evaluations.

Final-Value: -10.162


	FINAL GENETIC ALGORITHM DOCKED STATE
	_______________________________________________


Detailed state:  trans 9.095 -4.131 23.473 quatxyzw 0.160211 -0.892245 0.112766 0.406835 center 8.287 34.468 -0.670 ntor 10 -100.8321 66.9080 36.1159 -7.7852 77.4927 65.4595 -91.0849 51.8516 179.5548 -179.1796
State:	  9.095  -4.131  23.473   0.175 -0.977  0.123 131.988   -100.83   66.91   36.12   -7.79   77.49   65.46  -91.08   51.85  179.55 -179.18

DOCKED: MODEL       57
DOCKED: USER    Run = 57
DOCKED: USER    DPF = D:/Protein_go_brrr/autodock/final/mut_K82N/heme_O2/dock.dpf
DOCKED: USER  
DOCKED: USER    Estimated Free Energy of Binding    =   -5.17 kcal/mol  [=(1)+(2)+(3)-(4)]
DOCKED: USER    Estimated Inhibition Constant, Ki   =  161.73 uM (micromolar)  [Temperature = 298.15 K]
DOCKED: USER    
DOCKED: USER    (1) Final Intermolecular Energy     =   -8.16 kcal/mol
DOCKED: USER        vdW + Hbond + desolv Energy     =   -5.79 kcal/mol
DOCKED: USER        Electrostatic Energy            =   -2.37 kcal/mol
DOCKED: USER    (2) Final Total Internal Energy     =   -2.01 kcal/mol
DOCKED: USER    (3) Torsional Free Energy           =   +2.98 kcal/mol
DOCKED: USER    (4) Unbound System's Energy  [=(2)] =   -2.01 kcal/mol
DOCKED: USER    
DOCKED: USER    
DOCKED: USER    NEWDPF move heme_O2_opt.pdbqt
DOCKED: USER    NEWDPF about 8.287000 34.468000 -0.670000
DOCKED: USER    NEWDPF tran0 9.094763 -4.131012 23.473392
DOCKED: USER    NEWDPF quaternion0 0.160211 -0.892245 0.112766 0.406835
DOCKED: USER    NEWDPF axisangle0 0.175382 -0.976731 0.123444 131.987680
DOCKED: USER    NEWDPF quat0 0.175382 -0.976731 0.123444 131.987680
DOCKED: USER    NEWDPF dihe0 -100.83 66.91 36.12 -7.79 77.49 65.46 -91.08 51.85 179.55 -179.18 
DOCKED: USER  keepresnum = 1 
DOCKED: USER  
DOCKED: REMARK  10 active torsions:
DOCKED: REMARK  status: ('A' for Active; 'I' for Inactive)
DOCKED: REMARK    1  A    between atoms: C_6  and  C_10 
DOCKED: REMARK    2  A    between atoms: C_10  and  C_11 
DOCKED: REMARK    3  A    between atoms: C_11  and  C_12 
DOCKED: REMARK    4  A    between atoms: C_12  and  O_14 
DOCKED: REMARK    5  A    between atoms: C_17  and  C_20 
DOCKED: REMARK    6  A    between atoms: C_24  and  C_27 
DOCKED: REMARK    7  A    between atoms: C_31  and  C_34 
DOCKED: REMARK    8  A    between atoms: C_34  and  C_35 
DOCKED: REMARK    9  A    between atoms: C_35  and  C_36 
DOCKED: REMARK   10  A    between atoms: C_36  and  O_38 
DOCKED: USER                              x       y       z     vdW  Elec       q    Type
DOCKED: USER                           _______ _______ _______ _____ _____    ______ ____
DOCKED: ROOT
DOCKED: ATOM      1  C   UNL d   1       9.523  -2.812  25.079 -0.05 +0.01    +0.064 A 
DOCKED: ATOM      2  C   UNL d   1      12.152  -6.036  22.787 -0.03 +0.00    +0.064 A 
DOCKED: ATOM      3  C   UNL d   1       8.429  -7.217  19.987 -0.13 +0.00    +0.064 C 
DOCKED: ATOM      4  C   UNL d   1       5.851  -3.570  22.016 -0.18 -0.01    +0.064 A 
DOCKED: ATOM      5  C   UNL d   1      10.542  -3.592  24.683 -0.03 +0.01    +0.066 A 
DOCKED: ATOM      6  C   UNL d   1      11.812  -3.576  25.266 -0.02 -0.00    -0.021 A 
DOCKED: ATOM      7  C   UNL d   1      12.587  -4.478  24.575 -0.01 -0.00    -0.025 A 
DOCKED: ATOM      8  C   UNL d   1      11.755  -5.055  23.620 -0.02 +0.00    +0.066 A 
DOCKED: ATOM      9  C   UNL d   1      14.058  -4.727  24.827 -0.00 +0.00    +0.051 C 
DOCKED: ATOM     10  C   UNL d   1      11.319  -6.696  21.780 -0.06 +0.00    +0.066 A 
DOCKED: ATOM     11  C   UNL d   1      11.732  -7.819  21.055 -0.07 -0.00    -0.021 A 
DOCKED: ATOM     12  C   UNL d   1      10.666  -8.185  20.255 -0.13 +0.00    +0.000 A 
DOCKED: ATOM     13  C   UNL d   1       9.644  -7.236  20.534 -0.07 +0.01    +0.070 A 
DOCKED: ATOM     14  C   UNL d   1      13.078  -8.529  21.142 -0.04 +0.00    +0.052 C 
DOCKED: ATOM     15  C   UNL d   1       7.379  -6.254  20.217 -0.16 -0.00    +0.066 A 
DOCKED: ATOM     16  C   UNL d   1       6.190  -6.193  19.491 -0.24 +0.00    -0.021 A 
DOCKED: ATOM     17  C   UNL d   1       5.439  -5.159  20.051 -0.25 -0.00    +0.000 A 
DOCKED: ATOM     18  C   UNL d   1       6.237  -4.662  21.092 -0.21 -0.01    +0.070 A 
DOCKED: ATOM     19  C   UNL d   1       5.903  -7.080  18.306 -0.24 -0.00    +0.052 C 
DOCKED: ATOM     20  C   UNL d   1       6.608  -3.040  22.996 -0.17 -0.00    +0.066 A 
DOCKED: ATOM     21  C   UNL d   1       6.184  -2.023  23.847 -0.15 +0.00    -0.025 A 
DOCKED: ATOM     22  C   UNL d   1       7.208  -1.813  24.744 -0.10 -0.00    -0.021 A 
DOCKED: ATOM     23  C   UNL d   1       8.230  -2.701  24.394 -0.09 +0.01    +0.066 A 
DOCKED: ATOM     24  C   UNL d   1       4.870  -1.287  23.804 -0.14 -0.01    +0.051 C 
DOCKED: ATOM     25  N   UNL d   1      10.514  -4.462  23.643 -0.02 -0.01    -0.248 N 
DOCKED: ATOM     26  N   UNL d   1      10.052  -6.331  21.460 -0.05 -0.01    -0.248 N 
DOCKED: ATOM     27  N   UNL d   1       7.441  -5.288  21.129 -0.12 +0.01    -0.248 N 
DOCKED: ATOM     28  N   UNL d   1       7.879  -3.413  23.303 -0.08 +0.00    -0.248 N 
DOCKED: ATOM     29 FE   UNL d   1       8.955  -4.862  22.386 -0.03 -0.00    +0.000 Fe
DOCKED: ATOM     30  O   UNL d   1      10.151  -4.144  21.695 -0.20 -0.00    +0.000 OA
DOCKED: ATOM     31  O   UNL d   1       8.675  -3.737  21.323 -0.25 -0.00    +0.000 OA
DOCKED: ENDROOT
DOCKED: BRANCH   6  32
DOCKED: ATOM     32  C   UNL d   1      12.323  -2.653  26.342 -0.02 +0.01    +0.052 C 
DOCKED: BRANCH  32  33
DOCKED: ATOM     33  C   UNL d   1      13.100  -1.465  25.783 -0.04 +0.03    +0.115 C 
DOCKED: BRANCH  33  34
DOCKED: ATOM     34  C   UNL d   1      12.202  -0.307  25.424 -0.10 +0.09    +0.139 C 
DOCKED: ATOM     35  O   UNL d   1      11.497  -0.376  24.430 -0.01 -0.42    -0.650 OA
DOCKED: BRANCH  34  36
DOCKED: ATOM     36  O   UNL d   1      12.180   0.821  26.164 -0.55 -1.10    -0.776 OA
DOCKED: ATOM     37  H   UNL d   1      11.485   0.996  26.809 +0.00 +0.25    +0.167 HD
DOCKED: ENDBRANCH  34  36
DOCKED: ENDBRANCH  33  34
DOCKED: ENDBRANCH  32  33
DOCKED: ENDBRANCH   6  32
DOCKED: BRANCH  22  38
DOCKED: ATOM     38  C   UNL d   1       7.221  -0.772  25.832 -0.07 +0.01    +0.052 C 
DOCKED: BRANCH  38  39
DOCKED: ATOM     39  C   UNL d   1       7.515   0.628  25.296 -0.11 +0.04    +0.115 C 
DOCKED: BRANCH  39  40
DOCKED: ATOM     40  C   UNL d   1       8.621   1.316  26.056 -0.01 +0.12    +0.139 C 
DOCKED: ATOM     41  O   UNL d   1       8.621   2.533  26.157 -0.38 -0.90    -0.650 OA
DOCKED: BRANCH  40  42
DOCKED: ATOM     42  O   UNL d   1       9.586   0.608  26.674 -0.06 -0.65    -0.776 OA
DOCKED: ATOM     43  H   UNL d   1      10.254   0.123  26.175 +0.01 +0.14    +0.167 HD
DOCKED: ENDBRANCH  40  42
DOCKED: ENDBRANCH  39  40
DOCKED: ENDBRANCH  38  39
DOCKED: ENDBRANCH  22  38
DOCKED: BRANCH  12  44
DOCKED: ATOM     44  C   UNL d   1      10.732  -9.377  19.323 -0.17 +0.00    +0.004 C 
DOCKED: ATOM     45  C   UNL d   1      10.121  -9.534  18.149 -0.24 +0.00    +0.012 C 
DOCKED: ENDBRANCH  12  44
DOCKED: BRANCH  17  46
DOCKED: ATOM     46  C   UNL d   1       4.103  -4.585  19.662 -0.25 -0.00    +0.004 C 
DOCKED: ATOM     47  C   UNL d   1       3.428  -4.759  18.518 -0.45 -0.00    +0.012 C 
DOCKED: ENDBRANCH  17  46
DOCKED: TORSDOF 10
DOCKED: TER
DOCKED: ENDMDL
________________________________________________________________________________


	BEGINNING GENETIC ALGORITHM DOCKING 58 of 100
Run: 58 Seed: 51363692 1372061838 [ Run 58 of 100 GA/GALS ]
Beginning LAMARCKIAN GENETIC ALGORITHM (LGA), with a maximum of 25000000 energy evaluations.

Final-Value: -10.280


	FINAL GENETIC ALGORITHM DOCKED STATE
	_______________________________________________


Detailed state:  trans -12.803 6.842 -7.304 quatxyzw 0.683222 0.247679 0.505707 -0.464891 center 8.287 34.468 -0.670 ntor 10 -41.4836 -69.3656 126.0048 40.6380 48.1405 -44.3397 -144.0132 -176.1131 168.1605 167.5228
State:	-12.803   6.842  -7.304   0.772  0.280  0.571 -124.594    -41.48  -69.37  126.00   40.64   48.14  -44.34 -144.01 -176.11  168.16  167.52

DOCKED: MODEL       58
DOCKED: USER    Run = 58
DOCKED: USER    DPF = D:/Protein_go_brrr/autodock/final/mut_K82N/heme_O2/dock.dpf
DOCKED: USER  
DOCKED: USER    Estimated Free Energy of Binding    =   -5.62 kcal/mol  [=(1)+(2)+(3)-(4)]
DOCKED: USER    Estimated Inhibition Constant, Ki   =   75.45 uM (micromolar)  [Temperature = 298.15 K]
DOCKED: USER    
DOCKED: USER    (1) Final Intermolecular Energy     =   -8.61 kcal/mol
DOCKED: USER        vdW + Hbond + desolv Energy     =   -5.75 kcal/mol
DOCKED: USER        Electrostatic Energy            =   -2.86 kcal/mol
DOCKED: USER    (2) Final Total Internal Energy     =   -1.67 kcal/mol
DOCKED: USER    (3) Torsional Free Energy           =   +2.98 kcal/mol
DOCKED: USER    (4) Unbound System's Energy  [=(2)] =   -1.67 kcal/mol
DOCKED: USER    
DOCKED: USER    
DOCKED: USER    NEWDPF move heme_O2_opt.pdbqt
DOCKED: USER    NEWDPF about 8.287000 34.468000 -0.670000
DOCKED: USER    NEWDPF tran0 -12.803008 6.842349 -7.304068
DOCKED: USER    NEWDPF quaternion0 0.683222 0.247679 0.505707 -0.464891
DOCKED: USER    NEWDPF axisangle0 0.771681 0.279747 0.571183 -124.593693
DOCKED: USER    NEWDPF quat0 0.771681 0.279747 0.571183 -124.593693
DOCKED: USER    NEWDPF dihe0 -41.48 -69.37 126.00 40.64 48.14 -44.34 -144.01 -176.11 168.16 167.52 
DOCKED: USER  keepresnum = 1 
DOCKED: USER  
DOCKED: REMARK  10 active torsions:
DOCKED: REMARK  status: ('A' for Active; 'I' for Inactive)
DOCKED: REMARK    1  A    between atoms: C_6  and  C_10 
DOCKED: REMARK    2  A    between atoms: C_10  and  C_11 
DOCKED: REMARK    3  A    between atoms: C_11  and  C_12 
DOCKED: REMARK    4  A    between atoms: C_12  and  O_14 
DOCKED: REMARK    5  A    between atoms: C_17  and  C_20 
DOCKED: REMARK    6  A    between atoms: C_24  and  C_27 
DOCKED: REMARK    7  A    between atoms: C_31  and  C_34 
DOCKED: REMARK    8  A    between atoms: C_34  and  C_35 
DOCKED: REMARK    9  A    between atoms: C_35  and  C_36 
DOCKED: REMARK   10  A    between atoms: C_36  and  O_38 
DOCKED: USER                              x       y       z     vdW  Elec       q    Type
DOCKED: USER                           _______ _______ _______ _____ _____    ______ ____
DOCKED: ROOT
DOCKED: ATOM      1  C   UNL d   1     -14.303   5.370  -7.587 -0.05 +0.05    +0.064 A 
DOCKED: ATOM      2  C   UNL d   1     -10.099   6.108  -9.670 -0.09 +0.03    +0.064 A 
DOCKED: ATOM      3  C   UNL d   1      -9.339  10.006  -6.965 -0.25 +0.02    +0.064 C 
DOCKED: ATOM      4  C   UNL d   1     -13.445   8.984  -4.482 -0.04 +0.02    +0.064 A 
DOCKED: ATOM      5  C   UNL d   1     -13.221   5.252  -8.373 -0.05 +0.06    +0.066 A 
DOCKED: ATOM      6  C   UNL d   1     -13.057   4.249  -9.334 -0.07 -0.01    -0.021 A 
DOCKED: ATOM      7  C   UNL d   1     -11.821   4.436  -9.907 -0.11 -0.01    -0.025 A 
DOCKED: ATOM      8  C   UNL d   1     -11.285   5.576  -9.315 -0.08 +0.04    +0.066 A 
DOCKED: ATOM      9  C   UNL d   1     -11.203   3.528 -10.948 -0.08 +0.02    +0.051 C 
DOCKED: ATOM     10  C   UNL d   1      -9.495   7.314  -9.102 -0.09 +0.02    +0.066 A 
DOCKED: ATOM     11  C   UNL d   1      -8.342   7.914  -9.619 -0.15 -0.00    -0.021 A 
DOCKED: ATOM     12  C   UNL d   1      -8.117   9.050  -8.863 -0.24 +0.00    +0.000 A 
DOCKED: ATOM     13  C   UNL d   1      -9.162   9.072  -7.899 -0.19 +0.02    +0.070 A 
DOCKED: ATOM     14  C   UNL d   1      -7.505   7.439 -10.801 -0.17 +0.00    +0.052 C 
DOCKED: ATOM     15  C   UNL d   1     -10.363  10.046  -5.949 -0.20 +0.02    +0.066 A 
DOCKED: ATOM     16  C   UNL d   1     -10.398  10.962  -4.898 -0.32 -0.01    -0.021 A 
DOCKED: ATOM     17  C   UNL d   1     -11.560  10.689  -4.176 -0.20 +0.00    +0.000 A 
DOCKED: ATOM     18  C   UNL d   1     -12.155   9.615  -4.851 -0.08 +0.02    +0.070 A 
DOCKED: ATOM     19  C   UNL d   1      -9.304  11.969  -4.647 -0.37 +0.01    +0.052 C 
DOCKED: ATOM     20  C   UNL d   1     -14.023   7.924  -5.081 -0.03 +0.03    +0.066 A 
DOCKED: ATOM     21  C   UNL d   1     -15.248   7.385  -4.700 -0.02 -0.01    -0.025 A 
DOCKED: ATOM     22  C   UNL d   1     -15.522   6.372  -5.591 -0.02 -0.01    -0.021 A 
DOCKED: ATOM     23  C   UNL d   1     -14.440   6.318  -6.475 -0.05 +0.04    +0.066 A 
DOCKED: ATOM     24  C   UNL d   1     -16.112   7.813  -3.543 -0.01 +0.01    +0.051 C 
DOCKED: ATOM     25  N   UNL d   1     -12.119   6.040  -8.325 -0.05 -0.23    -0.248 N 
DOCKED: ATOM     26  N   UNL d   1      -9.994   8.010  -8.048 -0.07 -0.10    -0.248 N 
DOCKED: ATOM     27  N   UNL d   1     -11.378   9.189  -5.879 -0.05 -0.09    -0.248 N 
DOCKED: ATOM     28  N   UNL d   1     -13.510   7.234  -6.134 -0.04 -0.17    -0.248 N 
DOCKED: ATOM     29 FE   UNL d   1     -11.764   7.621  -7.082 -0.02 +0.00    +0.000 Fe
DOCKED: ATOM     30  O   UNL d   1     -10.844   6.394  -6.817 -0.38 +0.00    +0.000 OA
DOCKED: ATOM     31  O   UNL d   1     -11.418   7.217  -5.602 -0.27 +0.00    +0.000 OA
DOCKED: ENDROOT
DOCKED: BRANCH   6  32
DOCKED: ATOM     32  C   UNL d   1     -13.964   3.077  -9.609 -0.05 +0.02    +0.052 C 
DOCKED: BRANCH  32  33
DOCKED: ATOM     33  C   UNL d   1     -13.374   1.750  -9.144 -0.08 +0.06    +0.115 C 
DOCKED: BRANCH  33  34
DOCKED: ATOM     34  C   UNL d   1     -12.539   1.897  -7.896 +0.18 +0.17    +0.139 C 
DOCKED: ATOM     35  O   UNL d   1     -11.321   1.894  -7.981 -0.36 -0.85    -0.650 OA
DOCKED: BRANCH  34  36
DOCKED: ATOM     36  O   UNL d   1     -13.108   2.005  -6.677 -0.26 -1.30    -0.776 OA
DOCKED: ATOM     37  H   UNL d   1     -13.895   2.541  -6.527 +0.00 +0.21    +0.167 HD
DOCKED: ENDBRANCH  34  36
DOCKED: ENDBRANCH  33  34
DOCKED: ENDBRANCH  32  33
DOCKED: ENDBRANCH   6  32
DOCKED: BRANCH  22  38
DOCKED: ATOM     38  C   UNL d   1     -16.726   5.467  -5.550 -0.01 +0.01    +0.052 C 
DOCKED: BRANCH  38  39
DOCKED: ATOM     39  C   UNL d   1     -16.478   4.205  -4.726 -0.02 +0.03    +0.115 C 
DOCKED: BRANCH  39  40
DOCKED: ATOM     40  C   UNL d   1     -15.109   4.190  -4.092 -0.08 +0.08    +0.139 C 
DOCKED: ATOM     41  O   UNL d   1     -14.982   4.492  -2.917 -0.01 -0.26    -0.650 OA
DOCKED: BRANCH  40  42
DOCKED: ATOM     42  O   UNL d   1     -14.025   3.799  -4.789 +0.09 -1.02    -0.776 OA
DOCKED: ATOM     43  H   UNL d   1     -13.918   2.888  -5.087 +0.00 +0.21    +0.167 HD
DOCKED: ENDBRANCH  40  42
DOCKED: ENDBRANCH  39  40
DOCKED: ENDBRANCH  38  39
DOCKED: ENDBRANCH  22  38
DOCKED: BRANCH  12  44
DOCKED: ATOM     44  C   UNL d   1      -6.949   9.975  -9.132 -0.36 +0.00    +0.004 C 
DOCKED: ATOM     45  C   UNL d   1      -5.650   9.677  -9.130 -0.50 -0.00    +0.012 C 
DOCKED: ENDBRANCH  12  44
DOCKED: BRANCH  17  46
DOCKED: ATOM     46  C   UNL d   1     -12.105  11.300  -2.912 -0.21 +0.00    +0.004 C 
DOCKED: ATOM     47  C   UNL d   1     -12.008  12.570  -2.497 -0.26 +0.00    +0.012 C 
DOCKED: ENDBRANCH  17  46
DOCKED: TORSDOF 10
DOCKED: TER
DOCKED: ENDMDL
________________________________________________________________________________


	BEGINNING GENETIC ALGORITHM DOCKING 59 of 100
Run: 59 Seed: 2016073557 432323001 [ Run 59 of 100 GA/GALS ]
Beginning LAMARCKIAN GENETIC ALGORITHM (LGA), with a maximum of 25000000 energy evaluations.

Final-Value: -9.490


	FINAL GENETIC ALGORITHM DOCKED STATE
	_______________________________________________


Detailed state:  trans 7.965 12.201 -16.113 quatxyzw 0.313827 -0.146315 0.826648 -0.443573 center 8.287 34.468 -0.670 ntor 10 -42.3335 -49.5579 130.2535 -8.5110 64.2412 -69.5268 -152.3942 -96.4335 -178.4563 125.5748
State:	  7.965  12.201 -16.113   0.350 -0.163  0.922 -127.336    -42.33  -49.56  130.25   -8.51   64.24  -69.53 -152.39  -96.43 -178.46  125.57

DOCKED: MODEL       59
DOCKED: USER    Run = 59
DOCKED: USER    DPF = D:/Protein_go_brrr/autodock/final/mut_K82N/heme_O2/dock.dpf
DOCKED: USER  
DOCKED: USER    Estimated Free Energy of Binding    =   -4.84 kcal/mol  [=(1)+(2)+(3)-(4)]
DOCKED: USER    Estimated Inhibition Constant, Ki   =  281.82 uM (micromolar)  [Temperature = 298.15 K]
DOCKED: USER    
DOCKED: USER    (1) Final Intermolecular Energy     =   -7.83 kcal/mol
DOCKED: USER        vdW + Hbond + desolv Energy     =   -6.66 kcal/mol
DOCKED: USER        Electrostatic Energy            =   -1.17 kcal/mol
DOCKED: USER    (2) Final Total Internal Energy     =   -1.66 kcal/mol
DOCKED: USER    (3) Torsional Free Energy           =   +2.98 kcal/mol
DOCKED: USER    (4) Unbound System's Energy  [=(2)] =   -1.66 kcal/mol
DOCKED: USER    
DOCKED: USER    
DOCKED: USER    NEWDPF move heme_O2_opt.pdbqt
DOCKED: USER    NEWDPF about 8.287000 34.468000 -0.670000
DOCKED: USER    NEWDPF tran0 7.964767 12.200763 -16.112513
DOCKED: USER    NEWDPF quaternion0 0.313827 -0.146315 0.826648 -0.443573
DOCKED: USER    NEWDPF axisangle0 0.350161 -0.163255 0.922353 -127.335893
DOCKED: USER    NEWDPF quat0 0.350161 -0.163255 0.922353 -127.335893
DOCKED: USER    NEWDPF dihe0 -42.33 -49.56 130.25 -8.51 64.24 -69.53 -152.39 -96.43 -178.46 125.57 
DOCKED: USER  keepresnum = 1 
DOCKED: USER  
DOCKED: REMARK  10 active torsions:
DOCKED: REMARK  status: ('A' for Active; 'I' for Inactive)
DOCKED: REMARK    1  A    between atoms: C_6  and  C_10 
DOCKED: REMARK    2  A    between atoms: C_10  and  C_11 
DOCKED: REMARK    3  A    between atoms: C_11  and  C_12 
DOCKED: REMARK    4  A    between atoms: C_12  and  O_14 
DOCKED: REMARK    5  A    between atoms: C_17  and  C_20 
DOCKED: REMARK    6  A    between atoms: C_24  and  C_27 
DOCKED: REMARK    7  A    between atoms: C_31  and  C_34 
DOCKED: REMARK    8  A    between atoms: C_34  and  C_35 
DOCKED: REMARK    9  A    between atoms: C_35  and  C_36 
DOCKED: REMARK   10  A    between atoms: C_36  and  O_38 
DOCKED: USER                              x       y       z     vdW  Elec       q    Type
DOCKED: USER                           _______ _______ _______ _____ _____    ______ ____
DOCKED: ROOT
DOCKED: ATOM      1  C   UNL d   1       7.923  11.078 -17.912 -0.06 +0.02    +0.064 A 
DOCKED: ATOM      2  C   UNL d   1      11.134  11.440 -14.431 -0.08 +0.01    +0.064 A 
DOCKED: ATOM      3  C   UNL d   1       8.385  14.620 -12.100 -0.20 +0.00    +0.064 C 
DOCKED: ATOM      4  C   UNL d   1       4.861  13.895 -15.435 -0.09 +0.00    +0.064 A 
DOCKED: ATOM      5  C   UNL d   1       9.019  10.916 -17.154 -0.06 +0.02    +0.066 A 
DOCKED: ATOM      6  C   UNL d   1      10.089  10.083 -17.494 -0.03 -0.00    -0.021 A 
DOCKED: ATOM      7  C   UNL d   1      11.000  10.154 -16.467 -0.03 -0.00    -0.025 A 
DOCKED: ATOM      8  C   UNL d   1      10.484  11.065 -15.549 -0.06 +0.01    +0.066 A 
DOCKED: ATOM      9  C   UNL d   1      12.279   9.349 -16.387 -0.01 +0.00    +0.051 C 
DOCKED: ATOM     10  C   UNL d   1      10.653  12.408 -13.444 -0.13 +0.01    +0.066 A 
DOCKED: ATOM     11  C   UNL d   1      11.438  12.883 -12.387 -0.17 -0.00    -0.021 A 
DOCKED: ATOM     12  C   UNL d   1      10.669  13.815 -11.714 -0.23 +0.00    +0.000 A 
DOCKED: ATOM     13  C   UNL d   1       9.427  13.847 -12.406 -0.11 +0.01    +0.070 A 
DOCKED: ATOM     14  C   UNL d   1      12.871  12.486 -12.051 -0.14 +0.00    +0.052 C 
DOCKED: ATOM     15  C   UNL d   1       7.099  14.656 -12.754 -0.22 +0.00    +0.066 A 
DOCKED: ATOM     16  C   UNL d   1       5.994  15.367 -12.286 -0.28 +0.00    -0.021 A 
DOCKED: ATOM     17  C   UNL d   1       4.977  15.174 -13.221 -0.26 -0.00    +0.000 A 
DOCKED: ATOM     18  C   UNL d   1       5.546  14.351 -14.203 -0.19 +0.00    +0.070 A 
DOCKED: ATOM     19  C   UNL d   1       5.991  16.113 -10.975 -0.33 -0.01    +0.052 C 
DOCKED: ATOM     20  C   UNL d   1       5.362  13.070 -16.376 -0.12 +0.01    +0.066 A 
DOCKED: ATOM     21  C   UNL d   1       4.676  12.690 -17.525 -0.11 -0.00    -0.025 A 
DOCKED: ATOM     22  C   UNL d   1       5.543  11.909 -18.256 -0.07 -0.00    -0.021 A 
DOCKED: ATOM     23  C   UNL d   1       6.725  11.827 -17.514 -0.09 +0.02    +0.066 A 
DOCKED: ATOM     24  C   UNL d   1       3.263  13.050 -17.906 -0.11 -0.01    +0.051 C 
DOCKED: ATOM     25  N   UNL d   1       9.234  11.484 -15.942 -0.06 -0.07    -0.248 N 
DOCKED: ATOM     26  N   UNL d   1       9.424  12.984 -13.454 -0.09 -0.04    -0.248 N 
DOCKED: ATOM     27  N   UNL d   1       6.809  13.985 -13.865 -0.14 -0.03    -0.248 N 
DOCKED: ATOM     28  N   UNL d   1       6.595  12.497 -16.350 -0.09 -0.08    -0.248 N 
DOCKED: ATOM     29 FE   UNL d   1       7.997  12.740 -14.911 -0.03 +0.00    +0.000 Fe
DOCKED: ATOM     30  O   UNL d   1       8.179  11.347 -14.241 -0.44 +0.00    +0.000 OA
DOCKED: ATOM     31  O   UNL d   1       6.759  12.032 -14.249 -0.74 +0.00    +0.000 OA
DOCKED: ENDROOT
DOCKED: BRANCH   6  32
DOCKED: ATOM     32  C   UNL d   1      10.194   9.149 -18.672 -0.01 +0.00    +0.052 C 
DOCKED: BRANCH  32  33
DOCKED: ATOM     33  C   UNL d   1       9.775   7.722 -18.336 -0.02 +0.01    +0.115 C 
DOCKED: BRANCH  33  34
DOCKED: ATOM     34  C   UNL d   1       8.813   7.663 -17.175 -0.02 +0.06    +0.139 C 
DOCKED: ATOM     35  O   UNL d   1       9.245   7.620 -16.035 -0.58 -0.37    -0.650 OA
DOCKED: BRANCH  34  36
DOCKED: ATOM     36  O   UNL d   1       7.478   7.629 -17.369 +0.01 -0.53    -0.776 OA
DOCKED: ATOM     37  H   UNL d   1       7.043   8.182 -18.029 +0.01 +0.08    +0.167 HD
DOCKED: ENDBRANCH  34  36
DOCKED: ENDBRANCH  33  34
DOCKED: ENDBRANCH  32  33
DOCKED: ENDBRANCH   6  32
DOCKED: BRANCH  22  38
DOCKED: ATOM     38  C   UNL d   1       5.224  11.230 -19.563 -0.03 +0.00    +0.052 C 
DOCKED: BRANCH  38  39
DOCKED: ATOM     39  C   UNL d   1       5.657   9.765 -19.579 -0.03 +0.01    +0.115 C 
DOCKED: BRANCH  39  40
DOCKED: ATOM     40  C   UNL d   1       4.649   8.859 -18.919 -0.08 +0.02    +0.139 C 
DOCKED: ATOM     41  O   UNL d   1       3.612   8.580 -19.500 +0.04 -0.02    -0.650 OA
DOCKED: BRANCH  40  42
DOCKED: ATOM     42  O   UNL d   1       4.893   8.306 -17.715 +0.03 -0.40    -0.776 OA
DOCKED: ATOM     43  H   UNL d   1       5.736   7.881 -17.516 +0.02 +0.12    +0.167 HD
DOCKED: ENDBRANCH  40  42
DOCKED: ENDBRANCH  39  40
DOCKED: ENDBRANCH  38  39
DOCKED: ENDBRANCH  22  38
DOCKED: BRANCH  12  44
DOCKED: ATOM     44  C   UNL d   1      11.188  14.561 -10.502 -0.29 +0.00    +0.004 C 
DOCKED: ATOM     45  C   UNL d   1      11.704  14.049  -9.385 -0.31 +0.00    +0.012 C 
DOCKED: ENDBRANCH  12  44
DOCKED: BRANCH  17  46
DOCKED: ATOM     46  C   UNL d   1       3.545  15.639 -13.232 -0.28 -0.00    +0.004 C 
DOCKED: ATOM     47  C   UNL d   1       2.823  16.124 -12.214 -0.35 -0.00    +0.012 C 
DOCKED: ENDBRANCH  17  46
DOCKED: TORSDOF 10
DOCKED: TER
DOCKED: ENDMDL
________________________________________________________________________________


	BEGINNING GENETIC ALGORITHM DOCKING 60 of 100
Run: 60 Seed: 941209349 524029778 [ Run 60 of 100 GA/GALS ]
Beginning LAMARCKIAN GENETIC ALGORITHM (LGA), with a maximum of 25000000 energy evaluations.

Final-Value: -9.743


	FINAL GENETIC ALGORITHM DOCKED STATE
	_______________________________________________


Detailed state:  trans 12.282 3.093 15.284 quatxyzw 0.637714 -0.171964 -0.712476 0.236910 center 8.287 34.468 -0.670 ntor 10 50.6439 -105.6974 44.2387 -21.1244 -34.5468 -116.1699 30.9251 69.1442 30.1478 155.8028
State:	 12.282   3.093  15.284   0.656 -0.177 -0.733 152.592     50.64 -105.70   44.24  -21.12  -34.55 -116.17   30.93   69.14   30.15  155.80

DOCKED: MODEL       60
DOCKED: USER    Run = 60
DOCKED: USER    DPF = D:/Protein_go_brrr/autodock/final/mut_K82N/heme_O2/dock.dpf
DOCKED: USER  
DOCKED: USER    Estimated Free Energy of Binding    =   -5.78 kcal/mol  [=(1)+(2)+(3)-(4)]
DOCKED: USER    Estimated Inhibition Constant, Ki   =   58.39 uM (micromolar)  [Temperature = 298.15 K]
DOCKED: USER    
DOCKED: USER    (1) Final Intermolecular Energy     =   -8.76 kcal/mol
DOCKED: USER        vdW + Hbond + desolv Energy     =   -8.37 kcal/mol
DOCKED: USER        Electrostatic Energy            =   -0.39 kcal/mol
DOCKED: USER    (2) Final Total Internal Energy     =   -0.98 kcal/mol
DOCKED: USER    (3) Torsional Free Energy           =   +2.98 kcal/mol
DOCKED: USER    (4) Unbound System's Energy  [=(2)] =   -0.98 kcal/mol
DOCKED: USER    
DOCKED: USER    
DOCKED: USER    NEWDPF move heme_O2_opt.pdbqt
DOCKED: USER    NEWDPF about 8.287000 34.468000 -0.670000
DOCKED: USER    NEWDPF tran0 12.281641 3.093087 15.284496
DOCKED: USER    NEWDPF quaternion0 0.637714 -0.171964 -0.712476 0.236910
DOCKED: USER    NEWDPF axisangle0 0.656401 -0.177003 -0.733354 152.591576
DOCKED: USER    NEWDPF quat0 0.656401 -0.177003 -0.733354 152.591576
DOCKED: USER    NEWDPF dihe0 50.64 -105.70 44.24 -21.12 -34.55 -116.17 30.93 69.14 30.15 155.80 
DOCKED: USER  keepresnum = 1 
DOCKED: USER  
DOCKED: REMARK  10 active torsions:
DOCKED: REMARK  status: ('A' for Active; 'I' for Inactive)
DOCKED: REMARK    1  A    between atoms: C_6  and  C_10 
DOCKED: REMARK    2  A    between atoms: C_10  and  C_11 
DOCKED: REMARK    3  A    between atoms: C_11  and  C_12 
DOCKED: REMARK    4  A    between atoms: C_12  and  O_14 
DOCKED: REMARK    5  A    between atoms: C_17  and  C_20 
DOCKED: REMARK    6  A    between atoms: C_24  and  C_27 
DOCKED: REMARK    7  A    between atoms: C_31  and  C_34 
DOCKED: REMARK    8  A    between atoms: C_34  and  C_35 
DOCKED: REMARK    9  A    between atoms: C_35  and  C_36 
DOCKED: REMARK   10  A    between atoms: C_36  and  O_38 
DOCKED: USER                              x       y       z     vdW  Elec       q    Type
DOCKED: USER                           _______ _______ _______ _____ _____    ______ ____
DOCKED: ROOT
DOCKED: ATOM      1  C   UNL d   1      12.747   1.935  17.000 -0.16 -0.00    +0.064 A 
DOCKED: ATOM      2  C   UNL d   1      11.112   6.362  16.465 -0.09 -0.00    +0.064 A 
DOCKED: ATOM      3  C   UNL d   1      11.239   5.930  11.680 -0.22 -0.00    +0.064 C 
DOCKED: ATOM      4  C   UNL d   1      12.467   1.211  12.221 -0.23 -0.01    +0.064 A 
DOCKED: ATOM      5  C   UNL d   1      12.290   3.174  17.245 -0.16 -0.00    +0.066 A 
DOCKED: ATOM      6  C   UNL d   1      12.128   3.709  18.526 -0.18 -0.00    -0.021 A 
DOCKED: ATOM      7  C   UNL d   1      11.613   4.976  18.373 -0.14 -0.00    -0.025 A 
DOCKED: ATOM      8  C   UNL d   1      11.521   5.197  17.002 -0.11 +0.00    +0.066 A 
DOCKED: ATOM      9  C   UNL d   1      11.212   5.890  19.510 -0.12 +0.01    +0.051 C 
DOCKED: ATOM     10  C   UNL d   1      11.017   6.661  15.035 -0.13 -0.00    +0.066 A 
DOCKED: ATOM     11  C   UNL d   1      10.743   7.938  14.533 -0.15 -0.00    -0.021 A 
DOCKED: ATOM     12  C   UNL d   1      10.793   7.838  13.154 -0.19 +0.00    +0.000 A 
DOCKED: ATOM     13  C   UNL d   1      11.089   6.472  12.888 -0.19 -0.00    +0.070 A 
DOCKED: ATOM     14  C   UNL d   1      10.473   9.207  15.334 -0.12 +0.00    +0.052 C 
DOCKED: ATOM     15  C   UNL d   1      11.504   4.546  11.368 -0.09 -0.00    +0.066 A 
DOCKED: ATOM     16  C   UNL d   1      11.487   4.009  10.081 -0.12 +0.00    -0.021 A 
DOCKED: ATOM     17  C   UNL d   1      11.833   2.664  10.210 -0.17 -0.00    +0.000 A 
DOCKED: ATOM     18  C   UNL d   1      12.041   2.480  11.585 -0.04 -0.01    +0.070 A 
DOCKED: ATOM     19  C   UNL d   1      11.092   4.805   8.862 -0.25 +0.00    +0.052 C 
DOCKED: ATOM     20  C   UNL d   1      12.633   0.988  13.539 -0.21 -0.01    +0.066 A 
DOCKED: ATOM     21  C   UNL d   1      13.054  -0.224  14.079 -0.30 +0.01    -0.025 A 
DOCKED: ATOM     22  C   UNL d   1      13.166  -0.028  15.437 -0.25 +0.00    -0.021 A 
DOCKED: ATOM     23  C   UNL d   1      12.790   1.297  15.679 -0.17 -0.01    +0.066 A 
DOCKED: ATOM     24  C   UNL d   1      13.333  -1.505  13.336 -0.41 -0.01    +0.051 C 
DOCKED: ATOM     25  N   UNL d   1      11.877   4.063  16.308 -0.09 +0.01    -0.248 N 
DOCKED: ATOM     26  N   UNL d   1      11.219   5.763  14.038 -0.11 +0.02    -0.248 N 
DOCKED: ATOM     27  N   UNL d   1      11.763   3.613  12.279 -0.08 +0.01    -0.248 N 
DOCKED: ATOM     28  N   UNL d   1      12.423   1.897  14.528 -0.09 +0.03    -0.248 N 
DOCKED: ATOM     29 FE   UNL d   1      11.825   3.815  14.282 -0.04 -0.00    +0.000 Fe
DOCKED: ATOM     30  O   UNL d   1      10.418   3.920  14.938 -0.37 -0.00    +0.000 OA
DOCKED: ATOM     31  O   UNL d   1      10.661   2.889  13.772 -0.40 -0.00    +0.000 OA
DOCKED: ENDROOT
DOCKED: BRANCH   6  32
DOCKED: ATOM     32  C   UNL d   1      12.316   3.012  19.848 -0.12 +0.01    +0.052 C 
DOCKED: BRANCH  32  33
DOCKED: ATOM     33  C   UNL d   1      13.482   3.577  20.654 -0.11 +0.03    +0.115 C 
DOCKED: BRANCH  33  34
DOCKED: ATOM     34  C   UNL d   1      14.108   2.545  21.560 -0.10 +0.05    +0.139 C 
DOCKED: ATOM     35  O   UNL d   1      15.115   2.827  22.190 -0.00 -0.20    -0.650 OA
DOCKED: BRANCH  34  36
DOCKED: ATOM     36  O   UNL d   1      13.595   1.302  21.670 -0.02 -0.29    -0.776 OA
DOCKED: ATOM     37  H   UNL d   1      13.400   0.759  20.898 +0.03 +0.04    +0.167 HD
DOCKED: ENDBRANCH  34  36
DOCKED: ENDBRANCH  33  34
DOCKED: ENDBRANCH  32  33
DOCKED: ENDBRANCH   6  32
DOCKED: BRANCH  22  38
DOCKED: ATOM     38  C   UNL d   1      13.551  -1.078  16.447 -0.28 -0.00    +0.052 C 
DOCKED: BRANCH  38  39
DOCKED: ATOM     39  C   UNL d   1      12.345  -1.620  17.212 -0.33 -0.00    +0.115 C 
DOCKED: BRANCH  39  40
DOCKED: ATOM     40  C   UNL d   1      12.359  -1.223  18.667 -0.34 +0.00    +0.139 C 
DOCKED: ATOM     41  O   UNL d   1      12.906  -0.186  19.007 -0.00 -0.03    -0.650 OA
DOCKED: BRANCH  40  42
DOCKED: ATOM     42  O   UNL d   1      11.732  -1.968  19.597 -0.02 +0.03    -0.776 OA
DOCKED: ATOM     43  H   UNL d   1      10.882  -1.703  19.967 -0.49 -0.06    +0.167 HD
DOCKED: ENDBRANCH  40  42
DOCKED: ENDBRANCH  39  40
DOCKED: ENDBRANCH  38  39
DOCKED: ENDBRANCH  22  38
DOCKED: BRANCH  12  44
DOCKED: ATOM     44  C   UNL d   1      10.555   9.031  12.252 -0.18 +0.00    +0.004 C 
DOCKED: ATOM     45  C   UNL d   1       9.881   9.066  11.103 -0.25 +0.00    +0.012 C 
DOCKED: ENDBRANCH  12  44
DOCKED: BRANCH  17  46
DOCKED: ATOM     46  C   UNL d   1      11.925   1.564   9.186 -0.32 -0.00    +0.004 C 
DOCKED: ATOM     47  C   UNL d   1      11.248   1.444   8.037 -0.45 -0.00    +0.012 C 
DOCKED: ENDBRANCH  17  46
DOCKED: TORSDOF 10
DOCKED: TER
DOCKED: ENDMDL
________________________________________________________________________________


	BEGINNING GENETIC ALGORITHM DOCKING 61 of 100
Run: 61 Seed: 429107528 370858948 [ Run 61 of 100 GA/GALS ]
Beginning LAMARCKIAN GENETIC ALGORITHM (LGA), with a maximum of 25000000 energy evaluations.

Final-Value: -9.252


	FINAL GENETIC ALGORITHM DOCKED STATE
	_______________________________________________


Detailed state:  trans -13.308 0.409 -4.645 quatxyzw -0.556173 0.483971 -0.345086 0.580826 center 8.287 34.468 -0.670 ntor 10 37.0675 19.2079 -109.4131 101.5563 55.1199 -71.1539 -138.8643 97.0323 -32.4293 19.9437
State:	-13.308   0.409  -4.645  -0.683  0.595 -0.424 108.983     37.07   19.21 -109.41  101.56   55.12  -71.15 -138.86   97.03  -32.43   19.94

DOCKED: MODEL       61
DOCKED: USER    Run = 61
DOCKED: USER    DPF = D:/Protein_go_brrr/autodock/final/mut_K82N/heme_O2/dock.dpf
DOCKED: USER  
DOCKED: USER    Estimated Free Energy of Binding    =   -5.75 kcal/mol  [=(1)+(2)+(3)-(4)]
DOCKED: USER    Estimated Inhibition Constant, Ki   =   60.65 uM (micromolar)  [Temperature = 298.15 K]
DOCKED: USER    
DOCKED: USER    (1) Final Intermolecular Energy     =   -8.74 kcal/mol
DOCKED: USER        vdW + Hbond + desolv Energy     =   -6.04 kcal/mol
DOCKED: USER        Electrostatic Energy            =   -2.69 kcal/mol
DOCKED: USER    (2) Final Total Internal Energy     =   -0.52 kcal/mol
DOCKED: USER    (3) Torsional Free Energy           =   +2.98 kcal/mol
DOCKED: USER    (4) Unbound System's Energy  [=(2)] =   -0.52 kcal/mol
DOCKED: USER    
DOCKED: USER    
DOCKED: USER    NEWDPF move heme_O2_opt.pdbqt
DOCKED: USER    NEWDPF about 8.287000 34.468000 -0.670000
DOCKED: USER    NEWDPF tran0 -13.308280 0.409404 -4.645273
DOCKED: USER    NEWDPF quaternion0 -0.556173 0.483971 -0.345086 0.580826
DOCKED: USER    NEWDPF axisangle0 -0.683236 0.594539 -0.423924 108.982664
DOCKED: USER    NEWDPF quat0 -0.683236 0.594539 -0.423924 108.982664
DOCKED: USER    NEWDPF dihe0 37.07 19.21 -109.41 101.56 55.12 -71.15 -138.86 97.03 -32.43 19.94 
DOCKED: USER  keepresnum = 1 
DOCKED: USER  
DOCKED: REMARK  10 active torsions:
DOCKED: REMARK  status: ('A' for Active; 'I' for Inactive)
DOCKED: REMARK    1  A    between atoms: C_6  and  C_10 
DOCKED: REMARK    2  A    between atoms: C_10  and  C_11 
DOCKED: REMARK    3  A    between atoms: C_11  and  C_12 
DOCKED: REMARK    4  A    between atoms: C_12  and  O_14 
DOCKED: REMARK    5  A    between atoms: C_17  and  C_20 
DOCKED: REMARK    6  A    between atoms: C_24  and  C_27 
DOCKED: REMARK    7  A    between atoms: C_31  and  C_34 
DOCKED: REMARK    8  A    between atoms: C_34  and  C_35 
DOCKED: REMARK    9  A    between atoms: C_35  and  C_36 
DOCKED: REMARK   10  A    between atoms: C_36  and  O_38 
DOCKED: USER                              x       y       z     vdW  Elec       q    Type
DOCKED: USER                           _______ _______ _______ _____ _____    ______ ____
DOCKED: ROOT
DOCKED: ATOM      1  C   UNL d   1     -14.280   1.537  -6.157 -0.07 +0.04    +0.064 A 
DOCKED: ATOM      2  C   UNL d   1     -12.035  -2.648  -6.219 -0.15 +0.00    +0.064 A 
DOCKED: ATOM      3  C   UNL d   1     -11.020  -2.278  -1.536 -0.23 -0.05    +0.064 C 
DOCKED: ATOM      4  C   UNL d   1     -13.739   1.801  -1.353 -0.10 +0.01    +0.064 A 
DOCKED: ATOM      5  C   UNL d   1     -13.753   0.367  -6.555 -0.07 +0.03    +0.066 A 
DOCKED: ATOM      6  C   UNL d   1     -13.809  -0.109  -7.869 -0.06 -0.01    -0.021 A 
DOCKED: ATOM      7  C   UNL d   1     -13.197  -1.341  -7.879 -0.10 -0.01    -0.025 A 
DOCKED: ATOM      8  C   UNL d   1     -12.742  -1.561  -6.582 -0.10 +0.01    +0.066 A 
DOCKED: ATOM      9  C   UNL d   1     -13.099  -2.248  -9.086 -0.12 +0.01    +0.051 C 
DOCKED: ATOM     10  C   UNL d   1     -11.512  -2.924  -4.880 -0.14 -0.00    +0.066 A 
DOCKED: ATOM     11  C   UNL d   1     -10.645  -3.985  -4.596 -0.22 +0.00    -0.021 A 
DOCKED: ATOM     12  C   UNL d   1     -10.327  -3.885  -3.254 -0.28 -0.00    +0.000 A 
DOCKED: ATOM     13  C   UNL d   1     -11.043  -2.750  -2.783 -0.20 -0.03    +0.070 A 
DOCKED: ATOM     14  C   UNL d   1     -10.121  -5.035  -5.569 -0.36 -0.01    +0.052 C 
DOCKED: ATOM     15  C   UNL d   1     -11.757  -1.154  -1.011 -0.21 -0.03    +0.066 A 
DOCKED: ATOM     16  C   UNL d   1     -11.818  -0.810   0.339 -0.25 +0.01    -0.021 A 
DOCKED: ATOM     17  C   UNL d   1     -12.589   0.350   0.415 -0.17 -0.00    +0.000 A 
DOCKED: ATOM     18  C   UNL d   1     -12.943   0.631  -0.911 -0.12 +0.00    +0.070 A 
DOCKED: ATOM     19  C   UNL d   1     -11.189  -1.641   1.429 +0.11 -0.04    +0.052 C 
DOCKED: ATOM     20  C   UNL d   1     -14.133   2.077  -2.611 -0.09 +0.02    +0.066 A 
DOCKED: ATOM     21  C   UNL d   1     -14.867   3.205  -2.969 -0.09 -0.01    -0.025 A 
DOCKED: ATOM     22  C   UNL d   1     -15.007   3.160  -4.338 -0.08 -0.01    -0.021 A 
DOCKED: ATOM     23  C   UNL d   1     -14.366   1.993  -4.765 -0.08 +0.04    +0.066 A 
DOCKED: ATOM     24  C   UNL d   1     -15.410   4.269  -2.051 -0.05 +0.01    +0.051 C 
DOCKED: ATOM     25  N   UNL d   1     -13.143  -0.539  -5.753 -0.05 -0.08    -0.248 N 
DOCKED: ATOM     26  N   UNL d   1     -11.765  -2.174  -3.778 -0.07 +0.02    -0.248 N 
DOCKED: ATOM     27  N   UNL d   1     -12.493  -0.333  -1.755 -0.07 +0.01    -0.248 N 
DOCKED: ATOM     28  N   UNL d   1     -13.875   1.315  -3.707 -0.07 -0.12    -0.248 N 
DOCKED: ATOM     29 FE   UNL d   1     -12.828  -0.417  -3.739 -0.02 +0.00    +0.000 Fe
DOCKED: ATOM     30  O   UNL d   1     -13.837  -1.528  -4.151 -0.04 +0.00    +0.000 OA
DOCKED: ATOM     31  O   UNL d   1     -14.113  -0.659  -2.866 -0.05 +0.00    +0.000 OA
DOCKED: ENDROOT
DOCKED: BRANCH   6  32
DOCKED: ATOM     32  C   UNL d   1     -14.528   0.503  -9.043 -0.04 +0.01    +0.052 C 
DOCKED: BRANCH  32  33
DOCKED: ATOM     33  C   UNL d   1     -14.188   1.976  -9.244 -0.04 +0.05    +0.115 C 
DOCKED: BRANCH  33  34
DOCKED: ATOM     34  C   UNL d   1     -12.731   2.271  -8.987 -0.10 +0.10    +0.139 C 
DOCKED: ATOM     35  O   UNL d   1     -12.382   2.681  -7.891 -0.35 -1.23    -0.650 OA
DOCKED: BRANCH  34  36
DOCKED: ATOM     36  O   UNL d   1     -11.802   2.117  -9.952 +0.05 -0.40    -0.776 OA
DOCKED: ATOM     37  H   UNL d   1     -11.982   2.335 -10.874 +0.03 +0.07    +0.167 HD
DOCKED: ENDBRANCH  34  36
DOCKED: ENDBRANCH  33  34
DOCKED: ENDBRANCH  32  33
DOCKED: ENDBRANCH   6  32
DOCKED: BRANCH  22  38
DOCKED: ATOM     38  C   UNL d   1     -15.771   4.153  -5.176 -0.05 +0.02    +0.052 C 
DOCKED: BRANCH  38  39
DOCKED: ATOM     39  C   UNL d   1     -14.895   4.811  -6.240 -0.06 +0.09    +0.115 C 
DOCKED: BRANCH  39  40
DOCKED: ATOM     40  C   UNL d   1     -14.124   5.991  -5.704 -0.02 +0.13    +0.139 C 
DOCKED: ATOM     41  O   UNL d   1     -13.169   5.806  -4.966 -0.42 -1.08    -0.650 OA
DOCKED: BRANCH  40  42
DOCKED: ATOM     42  O   UNL d   1     -14.437   7.250  -6.066 +0.01 -0.37    -0.776 OA
DOCKED: ATOM     43  H   UNL d   1     -15.312   7.475  -6.404 +0.01 +0.05    +0.167 HD
DOCKED: ENDBRANCH  40  42
DOCKED: ENDBRANCH  39  40
DOCKED: ENDBRANCH  38  39
DOCKED: ENDBRANCH  22  38
DOCKED: BRANCH  12  44
DOCKED: ATOM     44  C   UNL d   1      -9.394  -4.865  -2.574 -0.49 -0.00    +0.004 C 
DOCKED: ATOM     45  C   UNL d   1      -8.092  -5.042  -2.792 -0.57 -0.00    +0.012 C 
DOCKED: ENDBRANCH  12  44
DOCKED: BRANCH  17  46
DOCKED: ATOM     46  C   UNL d   1     -13.051   1.153   1.602 -0.15 -0.00    +0.004 C 
DOCKED: ATOM     47  C   UNL d   1     -12.477   2.235   2.145 -0.26 +0.00    +0.012 C 
DOCKED: ENDBRANCH  17  46
DOCKED: TORSDOF 10
DOCKED: TER
DOCKED: ENDMDL
________________________________________________________________________________


	BEGINNING GENETIC ALGORITHM DOCKING 62 of 100
Run: 62 Seed: 1775687177 203685026 [ Run 62 of 100 GA/GALS ]
Beginning LAMARCKIAN GENETIC ALGORITHM (LGA), with a maximum of 25000000 energy evaluations.

Final-Value: -9.809


	FINAL GENETIC ALGORITHM DOCKED STATE
	_______________________________________________


Detailed state:  trans 7.599 -11.895 -8.025 quatxyzw 0.068592 -0.490216 -0.425333 0.757678 center 8.287 34.468 -0.670 ntor 10 64.8916 -77.2285 42.0506 -94.5921 -149.0836 81.4609 64.5686 76.8340 -3.6597 180.0000
State:	  7.599 -11.895  -8.025   0.105 -0.751 -0.652 81.480     64.89  -77.23   42.05  -94.59 -149.08   81.46   64.57   76.83   -3.66  180.00

DOCKED: MODEL       62
DOCKED: USER    Run = 62
DOCKED: USER    DPF = D:/Protein_go_brrr/autodock/final/mut_K82N/heme_O2/dock.dpf
DOCKED: USER  
DOCKED: USER    Estimated Free Energy of Binding    =   -5.69 kcal/mol  [=(1)+(2)+(3)-(4)]
DOCKED: USER    Estimated Inhibition Constant, Ki   =   67.25 uM (micromolar)  [Temperature = 298.15 K]
DOCKED: USER    
DOCKED: USER    (1) Final Intermolecular Energy     =   -8.68 kcal/mol
DOCKED: USER        vdW + Hbond + desolv Energy     =   -6.18 kcal/mol
DOCKED: USER        Electrostatic Energy            =   -2.50 kcal/mol
DOCKED: USER    (2) Final Total Internal Energy     =   -1.13 kcal/mol
DOCKED: USER    (3) Torsional Free Energy           =   +2.98 kcal/mol
DOCKED: USER    (4) Unbound System's Energy  [=(2)] =   -1.13 kcal/mol
DOCKED: USER    
DOCKED: USER    
DOCKED: USER    NEWDPF move heme_O2_opt.pdbqt
DOCKED: USER    NEWDPF about 8.287000 34.468000 -0.670000
DOCKED: USER    NEWDPF tran0 7.598766 -11.895299 -8.025379
DOCKED: USER    NEWDPF quaternion0 0.068592 -0.490216 -0.425333 0.757678
DOCKED: USER    NEWDPF axisangle0 0.105101 -0.751140 -0.651722 81.480233
DOCKED: USER    NEWDPF quat0 0.105101 -0.751140 -0.651722 81.480233
DOCKED: USER    NEWDPF dihe0 64.89 -77.23 42.05 -94.59 -149.08 81.46 64.57 76.83 -3.66 180.00 
DOCKED: USER  keepresnum = 1 
DOCKED: USER  
DOCKED: REMARK  10 active torsions:
DOCKED: REMARK  status: ('A' for Active; 'I' for Inactive)
DOCKED: REMARK    1  A    between atoms: C_6  and  C_10 
DOCKED: REMARK    2  A    between atoms: C_10  and  C_11 
DOCKED: REMARK    3  A    between atoms: C_11  and  C_12 
DOCKED: REMARK    4  A    between atoms: C_12  and  O_14 
DOCKED: REMARK    5  A    between atoms: C_17  and  C_20 
DOCKED: REMARK    6  A    between atoms: C_24  and  C_27 
DOCKED: REMARK    7  A    between atoms: C_31  and  C_34 
DOCKED: REMARK    8  A    between atoms: C_34  and  C_35 
DOCKED: REMARK    9  A    between atoms: C_35  and  C_36 
DOCKED: REMARK   10  A    between atoms: C_36  and  O_38 
DOCKED: USER                              x       y       z     vdW  Elec       q    Type
DOCKED: USER                           _______ _______ _______ _____ _____    ______ ____
DOCKED: ROOT
DOCKED: ATOM      1  C   UNL d   1       6.328 -13.013  -6.747 -0.09 +0.02    +0.064 A 
DOCKED: ATOM      2  C   UNL d   1      10.992 -12.118  -6.651 -0.01 +0.00    +0.064 A 
DOCKED: ATOM      3  C   UNL d   1      10.678  -9.562 -10.708 -0.01 -0.01    +0.064 C 
DOCKED: ATOM      4  C   UNL d   1       5.801 -10.075 -10.558 -0.20 -0.00    +0.064 A 
DOCKED: ATOM      5  C   UNL d   1       7.622 -12.977  -6.389 -0.07 +0.01    +0.066 A 
DOCKED: ATOM      6  C   UNL d   1       8.142 -13.625  -5.265 -0.05 -0.00    -0.021 A 
DOCKED: ATOM      7  C   UNL d   1       9.484 -13.331  -5.212 -0.02 -0.00    -0.025 A 
DOCKED: ATOM      8  C   UNL d   1       9.757 -12.551  -6.332 -0.03 +0.00    +0.066 A 
DOCKED: ATOM      9  C   UNL d   1      10.423 -13.769  -4.110 -0.00 +0.00    +0.051 C 
DOCKED: ATOM     10  C   UNL d   1      11.343 -11.316  -7.824 -0.01 -0.00    +0.066 A 
DOCKED: ATOM     11  C   UNL d   1      12.662 -11.033  -8.196 +0.00 +0.00    -0.021 A 
DOCKED: ATOM     12  C   UNL d   1      12.593 -10.312  -9.373 +0.00 -0.00    +0.000 A 
DOCKED: ATOM     13  C   UNL d   1      11.204 -10.183  -9.653 -0.00 -0.00    +0.070 A 
DOCKED: ATOM     14  C   UNL d   1      13.935 -11.456  -7.473 +0.00 -0.00    +0.052 C 
DOCKED: ATOM     15  C   UNL d   1       9.278  -9.379 -11.009 -0.02 -0.01    +0.066 A 
DOCKED: ATOM     16  C   UNL d   1       8.789  -8.578 -12.041 -0.05 +0.00    -0.021 A 
DOCKED: ATOM     17  C   UNL d   1       7.401  -8.708 -12.017 -0.13 -0.00    +0.000 A 
DOCKED: ATOM     18  C   UNL d   1       7.143  -9.592 -10.960 -0.10 -0.01    +0.070 A 
DOCKED: ATOM     19  C   UNL d   1       9.678  -7.727 -12.913 -0.03 -0.01    +0.052 C 
DOCKED: ATOM     20  C   UNL d   1       5.515 -10.888  -9.523 -0.18 +0.00    +0.066 A 
DOCKED: ATOM     21  C   UNL d   1       4.232 -11.324  -9.204 -0.26 -0.00    -0.025 A 
DOCKED: ATOM     22  C   UNL d   1       4.366 -12.183  -8.137 -0.21 -0.00    -0.021 A 
DOCKED: ATOM     23  C   UNL d   1       5.730 -12.226  -7.831 -0.12 +0.01    +0.066 A 
DOCKED: ATOM     24  C   UNL d   1       2.943 -10.936  -9.881 -0.34 -0.00    +0.051 C 
DOCKED: ATOM     25  N   UNL d   1       8.597 -12.279  -7.021 -0.05 -0.01    -0.248 N 
DOCKED: ATOM     26  N   UNL d   1      10.451 -10.793  -8.703 -0.01 +0.01    -0.248 N 
DOCKED: ATOM     27  N   UNL d   1       8.288  -9.929 -10.312 -0.03 +0.02    -0.248 N 
DOCKED: ATOM     28  N   UNL d   1       6.419 -11.402  -8.647 -0.10 -0.01    -0.248 N 
DOCKED: ATOM     29 FE   UNL d   1       8.420 -11.098  -8.677 -0.01 -0.00    +0.000 Fe
DOCKED: ATOM     30  O   UNL d   1       8.759 -10.311  -7.378 -0.16 -0.00    +0.000 OA
DOCKED: ATOM     31  O   UNL d   1       7.735  -9.707  -8.412 -0.05 -0.00    +0.000 OA
DOCKED: ENDROOT
DOCKED: BRANCH   6  32
DOCKED: ATOM     32  C   UNL d   1       7.385 -14.380  -4.202 -0.11 +0.01    +0.052 C 
DOCKED: BRANCH  32  33
DOCKED: ATOM     33  C   UNL d   1       7.018 -15.798  -4.630 -0.09 +0.04    +0.115 C 
DOCKED: BRANCH  33  34
DOCKED: ATOM     34  C   UNL d   1       5.526 -16.014  -4.684 -0.12 +0.12    +0.139 C 
DOCKED: ATOM     35  O   UNL d   1       4.844 -15.332  -5.431 -0.32 -0.84    -0.650 OA
DOCKED: BRANCH  34  36
DOCKED: ATOM     36  O   UNL d   1       4.920 -16.931  -3.901 -0.41 -0.87    -0.776 OA
DOCKED: ATOM     37  H   UNL d   1       4.900 -16.849  -2.940 -0.45 +0.13    +0.167 HD
DOCKED: ENDBRANCH  34  36
DOCKED: ENDBRANCH  33  34
DOCKED: ENDBRANCH  32  33
DOCKED: ENDBRANCH   6  32
DOCKED: BRANCH  22  38
DOCKED: ATOM     38  C   UNL d   1       3.236 -12.871  -7.416 -0.30 +0.02    +0.052 C 
DOCKED: BRANCH  38  39
DOCKED: ATOM     39  C   UNL d   1       2.511 -11.939  -6.447 -0.38 +0.05    +0.115 C 
DOCKED: BRANCH  39  40
DOCKED: ATOM     40  C   UNL d   1       2.875 -12.208  -5.008 -0.40 +0.13    +0.139 C 
DOCKED: ATOM     41  O   UNL d   1       1.997 -12.276  -4.163 -0.56 -0.75    -0.650 OA
DOCKED: BRANCH  40  42
DOCKED: ATOM     42  O   UNL d   1       4.153 -12.426  -4.643 -0.20 -0.71    -0.776 OA
DOCKED: ATOM     43  H   UNL d   1       4.598 -13.260  -4.835 +0.06 +0.18    +0.167 HD
DOCKED: ENDBRANCH  40  42
DOCKED: ENDBRANCH  39  40
DOCKED: ENDBRANCH  38  39
DOCKED: ENDBRANCH  22  38
DOCKED: BRANCH  12  44
DOCKED: ATOM     44  C   UNL d   1      13.834  -9.827 -10.093 +0.00 -0.00    +0.004 C 
DOCKED: ATOM     45  C   UNL d   1      14.010  -8.672 -10.734 +0.00 -0.00    +0.012 C 
DOCKED: ENDBRANCH  12  44
DOCKED: BRANCH  17  46
DOCKED: ATOM     46  C   UNL d   1       6.332  -8.045 -12.844 -0.17 -0.00    +0.004 C 
DOCKED: ATOM     47  C   UNL d   1       5.540  -7.019 -12.507 -0.36 -0.00    +0.012 C 
DOCKED: ENDBRANCH  17  46
DOCKED: TORSDOF 10
DOCKED: TER
DOCKED: ENDMDL
________________________________________________________________________________


	BEGINNING GENETIC ALGORITHM DOCKING 63 of 100
Run: 63 Seed: 76013654 2031862851 [ Run 63 of 100 GA/GALS ]
Beginning LAMARCKIAN GENETIC ALGORITHM (LGA), with a maximum of 25000000 energy evaluations.

Final-Value: -8.893


	FINAL GENETIC ALGORITHM DOCKED STATE
	_______________________________________________


Detailed state:  trans 12.437 13.443 -1.254 quatxyzw -0.048283 -0.550946 0.243973 0.796620 center 8.287 34.468 -0.670 ntor 10 6.9395 -153.2663 -54.3054 118.9027 57.7475 163.8568 174.8148 113.4572 -168.0516 173.2531
State:	 12.437  13.443  -1.254  -0.080 -0.911  0.404 74.383      6.94 -153.27  -54.31  118.90   57.75  163.86  174.81  113.46 -168.05  173.25

DOCKED: MODEL       63
DOCKED: USER    Run = 63
DOCKED: USER    DPF = D:/Protein_go_brrr/autodock/final/mut_K82N/heme_O2/dock.dpf
DOCKED: USER  
DOCKED: USER    Estimated Free Energy of Binding    =   -3.46 kcal/mol  [=(1)+(2)+(3)-(4)]
DOCKED: USER    Estimated Inhibition Constant, Ki   =    2.90 mM (millimolar)  [Temperature = 298.15 K]
DOCKED: USER    
DOCKED: USER    (1) Final Intermolecular Energy     =   -6.45 kcal/mol
DOCKED: USER        vdW + Hbond + desolv Energy     =   -6.63 kcal/mol
DOCKED: USER        Electrostatic Energy            =   +0.19 kcal/mol
DOCKED: USER    (2) Final Total Internal Energy     =   -2.45 kcal/mol
DOCKED: USER    (3) Torsional Free Energy           =   +2.98 kcal/mol
DOCKED: USER    (4) Unbound System's Energy  [=(2)] =   -2.45 kcal/mol
DOCKED: USER    
DOCKED: USER    
DOCKED: USER    NEWDPF move heme_O2_opt.pdbqt
DOCKED: USER    NEWDPF about 8.287000 34.468000 -0.670000
DOCKED: USER    NEWDPF tran0 12.437098 13.442985 -1.253937
DOCKED: USER    NEWDPF quaternion0 -0.048283 -0.550946 0.243973 0.796620
DOCKED: USER    NEWDPF axisangle0 -0.079875 -0.911439 0.403608 74.382856
DOCKED: USER    NEWDPF quat0 -0.079875 -0.911439 0.403608 74.382856
DOCKED: USER    NEWDPF dihe0 6.94 -153.27 -54.31 118.90 57.75 163.86 174.81 113.46 -168.05 173.25 
DOCKED: USER  keepresnum = 1 
DOCKED: USER  
DOCKED: REMARK  10 active torsions:
DOCKED: REMARK  status: ('A' for Active; 'I' for Inactive)
DOCKED: REMARK    1  A    between atoms: C_6  and  C_10 
DOCKED: REMARK    2  A    between atoms: C_10  and  C_11 
DOCKED: REMARK    3  A    between atoms: C_11  and  C_12 
DOCKED: REMARK    4  A    between atoms: C_12  and  O_14 
DOCKED: REMARK    5  A    between atoms: C_17  and  C_20 
DOCKED: REMARK    6  A    between atoms: C_24  and  C_27 
DOCKED: REMARK    7  A    between atoms: C_31  and  C_34 
DOCKED: REMARK    8  A    between atoms: C_34  and  C_35 
DOCKED: REMARK    9  A    between atoms: C_35  and  C_36 
DOCKED: REMARK   10  A    between atoms: C_36  and  O_38 
DOCKED: USER                              x       y       z     vdW  Elec       q    Type
DOCKED: USER                           _______ _______ _______ _____ _____    ______ ____
DOCKED: ROOT
DOCKED: ATOM      1  C   UNL d   1      11.508  14.875   0.005 -0.26 -0.01    +0.064 A 
DOCKED: ATOM      2  C   UNL d   1      13.791  10.809   0.909 -0.08 -0.00    +0.064 A 
DOCKED: ATOM      3  C   UNL d   1      14.507  10.061  -3.784 -0.26 -0.01    +0.064 C 
DOCKED: ATOM      4  C   UNL d   1      12.579  14.478  -4.699 -0.19 -0.01    +0.064 A 
DOCKED: ATOM      5  C   UNL d   1      12.072  13.831   0.634 -0.21 -0.00    +0.066 A 
DOCKED: ATOM      6  C   UNL d   1      12.062  13.653   2.021 -0.14 +0.00    -0.021 A 
DOCKED: ATOM      7  C   UNL d   1      12.760  12.499   2.287 -0.11 -0.00    -0.025 A 
DOCKED: ATOM      8  C   UNL d   1      13.136  11.977   1.052 -0.11 -0.00    +0.066 A 
DOCKED: ATOM      9  C   UNL d   1      13.059  11.968   3.671 -0.06 +0.00    +0.051 C 
DOCKED: ATOM     10  C   UNL d   1      14.192  10.200  -0.360 -0.13 -0.00    +0.066 A 
DOCKED: ATOM     11  C   UNL d   1      14.723   8.909  -0.461 -0.15 +0.00    -0.021 A 
DOCKED: ATOM     12  C   UNL d   1      14.919   8.668  -1.808 -0.18 -0.00    +0.000 A 
DOCKED: ATOM     13  C   UNL d   1      14.498   9.857  -2.467 -0.21 -0.01    +0.070 A 
DOCKED: ATOM     14  C   UNL d   1      15.005   7.937   0.678 -0.09 -0.00    +0.052 C 
DOCKED: ATOM     15  C   UNL d   1      14.123  11.261  -4.487 -0.25 -0.01    +0.066 A 
DOCKED: ATOM     16  C   UNL d   1      14.309  11.470  -5.853 -0.19 +0.00    -0.021 A 
DOCKED: ATOM     17  C   UNL d   1      13.767  12.724  -6.137 -0.24 -0.00    +0.000 A 
DOCKED: ATOM     18  C   UNL d   1      13.284  13.191  -4.907 -0.25 -0.01    +0.070 A 
DOCKED: ATOM     19  C   UNL d   1      15.028  10.490  -6.745 -0.14 -0.00    +0.052 C 
DOCKED: ATOM     20  C   UNL d   1      12.141  14.975  -3.526 -0.26 -0.01    +0.066 A 
DOCKED: ATOM     21  C   UNL d   1      11.468  16.187  -3.395 -0.23 +0.01    -0.025 A 
DOCKED: ATOM     22  C   UNL d   1      11.131  16.303  -2.065 -0.22 +0.01    -0.021 A 
DOCKED: ATOM     23  C   UNL d   1      11.629  15.163  -1.429 -0.23 -0.01    +0.066 A 
DOCKED: ATOM     24  C   UNL d   1      11.165  17.184  -4.483 -0.18 -0.01    +0.051 C 
DOCKED: ATOM     25  N   UNL d   1      12.768  12.832   0.038 -0.15 +0.01    -0.248 N 
DOCKED: ATOM     26  N   UNL d   1      14.062  10.785  -1.578 -0.13 +0.03    -0.248 N 
DOCKED: ATOM     27  N   UNL d   1      13.575  12.323  -3.904 -0.16 +0.07    -0.248 N 
DOCKED: ATOM     28  N   UNL d   1      12.281  14.380  -2.312 -0.21 +0.06    -0.248 N 
DOCKED: ATOM     29 FE   UNL d   1      13.166  12.595  -1.951 -0.06 -0.00    +0.000 Fe
DOCKED: ATOM     30  O   UNL d   1      14.426  12.901  -1.090 -0.13 -0.00    +0.000 OA
DOCKED: ATOM     31  O   UNL d   1      14.270  13.565  -2.511 -0.14 -0.00    +0.000 OA
DOCKED: ENDROOT
DOCKED: BRANCH   6  32
DOCKED: ATOM     32  C   UNL d   1      11.537  14.601   3.069 -0.11 +0.00    +0.052 C 
DOCKED: BRANCH  32  33
DOCKED: ATOM     33  C   UNL d   1      12.551  15.671   3.461 -0.03 -0.00    +0.115 C 
DOCKED: BRANCH  33  34
DOCKED: ATOM     34  C   UNL d   1      13.907  15.432   2.844 -0.02 -0.01    +0.139 C 
DOCKED: ATOM     35  O   UNL d   1      14.752  14.809   3.467 +0.01 +0.02    -0.650 OA
DOCKED: BRANCH  34  36
DOCKED: ATOM     36  O   UNL d   1      14.220  15.917   1.625 +0.02 +0.04    -0.776 OA
DOCKED: ATOM     37  H   UNL d   1      13.635  16.516   1.147 +0.02 -0.01    +0.167 HD
DOCKED: ENDBRANCH  34  36
DOCKED: ENDBRANCH  33  34
DOCKED: ENDBRANCH  32  33
DOCKED: ENDBRANCH   6  32
DOCKED: BRANCH  22  38
DOCKED: ATOM     38  C   UNL d   1      10.427  17.478  -1.438 -0.24 -0.01    +0.052 C 
DOCKED: BRANCH  38  39
DOCKED: ATOM     39  C   UNL d   1      11.392  18.597  -1.051 -0.10 -0.01    +0.115 C 
DOCKED: BRANCH  39  40
DOCKED: ATOM     40  C   UNL d   1      12.312  18.200   0.077 -0.05 -0.01    +0.139 C 
DOCKED: ATOM     41  O   UNL d   1      11.845  17.732   1.103 +0.02 +0.05    -0.650 OA
DOCKED: BRANCH  40  42
DOCKED: ATOM     42  O   UNL d   1      13.649  18.304  -0.046 +0.02 +0.06    -0.776 OA
DOCKED: ATOM     43  H   UNL d   1      14.247  17.712   0.426 +0.01 -0.01    +0.167 HD
DOCKED: ENDBRANCH  40  42
DOCKED: ENDBRANCH  39  40
DOCKED: ENDBRANCH  38  39
DOCKED: ENDBRANCH  22  38
DOCKED: BRANCH  12  44
DOCKED: ATOM     44  C   UNL d   1      15.480   7.357  -2.316 -0.14 +0.00    +0.004 C 
DOCKED: ATOM     45  C   UNL d   1      14.915   6.500  -3.167 -0.18 +0.00    +0.012 C 
DOCKED: ENDBRANCH  12  44
DOCKED: BRANCH  17  46
DOCKED: ATOM     46  C   UNL d   1      13.723  13.515  -7.418 -0.23 -0.00    +0.004 C 
DOCKED: ATOM     47  C   UNL d   1      12.655  13.824  -8.164 -0.25 +0.00    +0.012 C 
DOCKED: ENDBRANCH  17  46
DOCKED: TORSDOF 10
DOCKED: TER
DOCKED: ENDMDL
________________________________________________________________________________


	BEGINNING GENETIC ALGORITHM DOCKING 64 of 100
Run: 64 Seed: 603133328 474516235 [ Run 64 of 100 GA/GALS ]
Beginning LAMARCKIAN GENETIC ALGORITHM (LGA), with a maximum of 25000000 energy evaluations.

Final-Value: -10.735


	FINAL GENETIC ALGORITHM DOCKED STATE
	_______________________________________________


Detailed state:  trans -11.644 6.299 -9.428 quatxyzw -0.716638 -0.143088 -0.604048 0.317934 center 8.287 34.468 -0.670 ntor 10 -36.5292 -15.9020 -118.2657 -60.6727 -139.3407 -45.4914 7.0191 -179.8462 -140.8954 -179.0239
State:	-11.644   6.299  -9.428  -0.756 -0.151 -0.637 142.924    -36.53  -15.90 -118.27  -60.67 -139.34  -45.49    7.02 -179.85 -140.90 -179.02

DOCKED: MODEL       64
DOCKED: USER    Run = 64
DOCKED: USER    DPF = D:/Protein_go_brrr/autodock/final/mut_K82N/heme_O2/dock.dpf
DOCKED: USER  
DOCKED: USER    Estimated Free Energy of Binding    =   -7.18 kcal/mol  [=(1)+(2)+(3)-(4)]
DOCKED: USER    Estimated Inhibition Constant, Ki   =    5.42 uM (micromolar)  [Temperature = 298.15 K]
DOCKED: USER    
DOCKED: USER    (1) Final Intermolecular Energy     =  -10.17 kcal/mol
DOCKED: USER        vdW + Hbond + desolv Energy     =   -7.44 kcal/mol
DOCKED: USER        Electrostatic Energy            =   -2.73 kcal/mol
DOCKED: USER    (2) Final Total Internal Energy     =   -0.57 kcal/mol
DOCKED: USER    (3) Torsional Free Energy           =   +2.98 kcal/mol
DOCKED: USER    (4) Unbound System's Energy  [=(2)] =   -0.57 kcal/mol
DOCKED: USER    
DOCKED: USER    
DOCKED: USER    NEWDPF move heme_O2_opt.pdbqt
DOCKED: USER    NEWDPF about 8.287000 34.468000 -0.670000
DOCKED: USER    NEWDPF tran0 -11.644005 6.299296 -9.428233
DOCKED: USER    NEWDPF quaternion0 -0.716638 -0.143088 -0.604048 0.317934
DOCKED: USER    NEWDPF axisangle0 -0.755857 -0.150919 -0.637106 142.923923
DOCKED: USER    NEWDPF quat0 -0.755857 -0.150919 -0.637106 142.923923
DOCKED: USER    NEWDPF dihe0 -36.53 -15.90 -118.27 -60.67 -139.34 -45.49 7.02 -179.85 -140.90 -179.02 
DOCKED: USER  keepresnum = 1 
DOCKED: USER  
DOCKED: REMARK  10 active torsions:
DOCKED: REMARK  status: ('A' for Active; 'I' for Inactive)
DOCKED: REMARK    1  A    between atoms: C_6  and  C_10 
DOCKED: REMARK    2  A    between atoms: C_10  and  C_11 
DOCKED: REMARK    3  A    between atoms: C_11  and  C_12 
DOCKED: REMARK    4  A    between atoms: C_12  and  O_14 
DOCKED: REMARK    5  A    between atoms: C_17  and  C_20 
DOCKED: REMARK    6  A    between atoms: C_24  and  C_27 
DOCKED: REMARK    7  A    between atoms: C_31  and  C_34 
DOCKED: REMARK    8  A    between atoms: C_34  and  C_35 
DOCKED: REMARK    9  A    between atoms: C_35  and  C_36 
DOCKED: REMARK   10  A    between atoms: C_36  and  O_38 
DOCKED: USER                              x       y       z     vdW  Elec       q    Type
DOCKED: USER                           _______ _______ _______ _____ _____    ______ ____
DOCKED: ROOT
DOCKED: ATOM      1  C   UNL d   1     -12.946   4.968 -10.444 -0.03 +0.03    +0.064 A 
DOCKED: ATOM      2  C   UNL d   1      -8.642   6.676 -11.500 -0.05 +0.01    +0.064 A 
DOCKED: ATOM      3  C   UNL d   1      -8.580   9.276  -7.459 -0.25 +0.01    +0.064 C 
DOCKED: ATOM      4  C   UNL d   1     -12.801   7.158  -6.129 -0.08 +0.06    +0.064 A 
DOCKED: ATOM      5  C   UNL d   1     -11.779   5.219 -11.060 -0.07 +0.02    +0.066 A 
DOCKED: ATOM      6  C   UNL d   1     -11.411   4.671 -12.293 -0.13 -0.01    -0.021 A 
DOCKED: ATOM      7  C   UNL d   1     -10.147   5.131 -12.579 -0.20 -0.01    -0.025 A 
DOCKED: ATOM      8  C   UNL d   1      -9.797   5.985 -11.536 -0.13 +0.01    +0.066 A 
DOCKED: ATOM      9  C   UNL d   1      -9.332   4.726 -13.787 -0.21 +0.01    +0.051 C 
DOCKED: ATOM     10  C   UNL d   1      -8.230   7.604 -10.446 -0.12 +0.01    +0.066 A 
DOCKED: ATOM     11  C   UNL d   1      -7.096   8.418 -10.537 -0.21 -0.00    -0.021 A 
DOCKED: ATOM     12  C   UNL d   1      -7.070   9.188  -9.389 -0.31 +0.00    +0.000 A 
DOCKED: ATOM     13  C   UNL d   1      -8.210   8.782  -8.640 -0.20 +0.01    +0.070 A 
DOCKED: ATOM     14  C   UNL d   1      -6.093   8.479 -11.684 -0.25 -0.01    +0.052 C 
DOCKED: ATOM     15  C   UNL d   1      -9.706   8.868  -6.653 -0.19 +0.03    +0.066 A 
DOCKED: ATOM     16  C   UNL d   1      -9.947   9.308  -5.352 -0.28 -0.01    -0.021 A 
DOCKED: ATOM     17  C   UNL d   1     -11.145   8.716  -4.952 -0.21 +0.00    +0.000 A 
DOCKED: ATOM     18  C   UNL d   1     -11.551   7.951  -6.054 -0.13 +0.05    +0.070 A 
DOCKED: ATOM     19  C   UNL d   1      -8.995  10.200  -4.595 -0.22 +0.01    +0.052 C 
DOCKED: ATOM     20  C   UNL d   1     -13.199   6.379  -7.153 -0.05 +0.06    +0.066 A 
DOCKED: ATOM     21  C   UNL d   1     -14.396   5.669  -7.174 -0.05 -0.02    -0.025 A 
DOCKED: ATOM     22  C   UNL d   1     -14.467   5.060  -8.407 -0.03 -0.01    -0.021 A 
DOCKED: ATOM     23  C   UNL d   1     -13.297   5.409  -9.089 -0.04 +0.04    +0.066 A 
DOCKED: ATOM     24  C   UNL d   1     -15.418   5.572  -6.071 -0.04 +0.03    +0.051 C 
DOCKED: ATOM     25  N   UNL d   1     -10.776   5.988 -10.570 -0.04 -0.08    -0.248 N 
DOCKED: ATOM     26  N   UNL d   1      -8.907   7.815  -9.288 -0.06 -0.06    -0.248 N 
DOCKED: ATOM     27  N   UNL d   1     -10.628   7.996  -7.049 -0.09 -0.14    -0.248 N 
DOCKED: ATOM     28  N   UNL d   1     -12.509   6.174  -8.306 -0.04 -0.20    -0.248 N 
DOCKED: ATOM     29 FE   UNL d   1     -10.721   6.989  -8.791 -0.02 +0.00    +0.000 Fe
DOCKED: ATOM     30  O   UNL d   1      -9.712   5.807  -8.878 -0.19 +0.00    +0.000 OA
DOCKED: ATOM     31  O   UNL d   1     -10.495   6.069  -7.536 -0.41 +0.00    +0.000 OA
DOCKED: ENDROOT
DOCKED: BRANCH   6  32
DOCKED: ATOM     32  C   UNL d   1     -12.158   3.647 -13.107 -0.15 +0.02    +0.052 C 
DOCKED: BRANCH  32  33
DOCKED: ATOM     33  C   UNL d   1     -12.426   2.358 -12.336 -0.13 +0.06    +0.115 C 
DOCKED: BRANCH  33  34
DOCKED: ATOM     34  C   UNL d   1     -13.070   1.298 -13.195 -0.16 +0.11    +0.139 C 
DOCKED: ATOM     35  O   UNL d   1     -12.422   0.763 -14.081 -0.56 -1.11    -0.650 OA
DOCKED: BRANCH  34  36
DOCKED: ATOM     36  O   UNL d   1     -14.361   0.943 -13.025 +0.01 -0.43    -0.776 OA
DOCKED: ATOM     37  H   UNL d   1     -14.770   0.907 -12.152 +0.02 +0.06    +0.167 HD
DOCKED: ENDBRANCH  34  36
DOCKED: ENDBRANCH  33  34
DOCKED: ENDBRANCH  32  33
DOCKED: ENDBRANCH   6  32
DOCKED: BRANCH  22  38
DOCKED: ATOM     38  C   UNL d   1     -15.569   4.144  -8.872 -0.01 +0.02    +0.052 C 
DOCKED: BRANCH  38  39
DOCKED: ATOM     39  C   UNL d   1     -15.452   2.743  -8.277 -0.02 +0.04    +0.115 C 
DOCKED: BRANCH  39  40
DOCKED: ATOM     40  C   UNL d   1     -14.247   2.597  -7.381 -0.06 +0.12    +0.139 C 
DOCKED: ATOM     41  O   UNL d   1     -14.378   2.679  -6.171 -0.05 -0.63    -0.650 OA
DOCKED: BRANCH  40  42
DOCKED: ATOM     42  O   UNL d   1     -13.031   2.324  -7.891 -0.49 -0.96    -0.776 OA
DOCKED: ATOM     43  H   UNL d   1     -12.920   2.032  -8.804 +0.02 +0.12    +0.167 HD
DOCKED: ENDBRANCH  40  42
DOCKED: ENDBRANCH  39  40
DOCKED: ENDBRANCH  38  39
DOCKED: ENDBRANCH  22  38
DOCKED: BRANCH  12  44
DOCKED: ATOM     44  C   UNL d   1      -5.982  10.209  -9.130 -0.43 -0.00    +0.004 C 
DOCKED: ATOM     45  C   UNL d   1      -5.635  11.247  -9.889 -0.49 -0.00    +0.012 C 
DOCKED: ENDBRANCH  12  44
DOCKED: BRANCH  17  46
DOCKED: ATOM     46  C   UNL d   1     -11.881   8.766  -3.639 -0.23 +0.00    +0.004 C 
DOCKED: ATOM     47  C   UNL d   1     -11.509   8.251  -2.460 -0.37 +0.00    +0.012 C 
DOCKED: ENDBRANCH  17  46
DOCKED: TORSDOF 10
DOCKED: TER
DOCKED: ENDMDL
________________________________________________________________________________


	BEGINNING GENETIC ALGORITHM DOCKING 65 of 100
Run: 65 Seed: 1353714718 1292290418 [ Run 65 of 100 GA/GALS ]
Beginning LAMARCKIAN GENETIC ALGORITHM (LGA), with a maximum of 25000000 energy evaluations.

Final-Value: -9.097


	FINAL GENETIC ALGORITHM DOCKED STATE
	_______________________________________________


Detailed state:  trans 12.553 13.336 -1.295 quatxyzw -0.072828 -0.582096 0.216117 0.780483 center 8.287 34.468 -0.670 ntor 10 -104.0672 -161.0972 -55.9366 83.7119 60.3591 175.7641 -95.6542 99.0597 160.8203 164.6921
State:	 12.553  13.336  -1.295  -0.116 -0.931  0.346 77.390   -104.07 -161.10  -55.94   83.71   60.36  175.76  -95.65   99.06  160.82  164.69

DOCKED: MODEL       65
DOCKED: USER    Run = 65
DOCKED: USER    DPF = D:/Protein_go_brrr/autodock/final/mut_K82N/heme_O2/dock.dpf
DOCKED: USER  
DOCKED: USER    Estimated Free Energy of Binding    =   -3.47 kcal/mol  [=(1)+(2)+(3)-(4)]
DOCKED: USER    Estimated Inhibition Constant, Ki   =    2.85 mM (millimolar)  [Temperature = 298.15 K]
DOCKED: USER    
DOCKED: USER    (1) Final Intermolecular Energy     =   -6.46 kcal/mol
DOCKED: USER        vdW + Hbond + desolv Energy     =   -6.64 kcal/mol
DOCKED: USER        Electrostatic Energy            =   +0.18 kcal/mol
DOCKED: USER    (2) Final Total Internal Energy     =   -2.64 kcal/mol
DOCKED: USER    (3) Torsional Free Energy           =   +2.98 kcal/mol
DOCKED: USER    (4) Unbound System's Energy  [=(2)] =   -2.64 kcal/mol
DOCKED: USER    
DOCKED: USER    
DOCKED: USER    NEWDPF move heme_O2_opt.pdbqt
DOCKED: USER    NEWDPF about 8.287000 34.468000 -0.670000
DOCKED: USER    NEWDPF tran0 12.552805 13.335696 -1.295495
DOCKED: USER    NEWDPF quaternion0 -0.072828 -0.582096 0.216117 0.780483
DOCKED: USER    NEWDPF axisangle0 -0.116492 -0.931090 0.345689 77.390312
DOCKED: USER    NEWDPF quat0 -0.116492 -0.931090 0.345689 77.390312
DOCKED: USER    NEWDPF dihe0 -104.07 -161.10 -55.94 83.71 60.36 175.76 -95.65 99.06 160.82 164.69 
DOCKED: USER  keepresnum = 1 
DOCKED: USER  
DOCKED: REMARK  10 active torsions:
DOCKED: REMARK  status: ('A' for Active; 'I' for Inactive)
DOCKED: REMARK    1  A    between atoms: C_6  and  C_10 
DOCKED: REMARK    2  A    between atoms: C_10  and  C_11 
DOCKED: REMARK    3  A    between atoms: C_11  and  C_12 
DOCKED: REMARK    4  A    between atoms: C_12  and  O_14 
DOCKED: REMARK    5  A    between atoms: C_17  and  C_20 
DOCKED: REMARK    6  A    between atoms: C_24  and  C_27 
DOCKED: REMARK    7  A    between atoms: C_31  and  C_34 
DOCKED: REMARK    8  A    between atoms: C_34  and  C_35 
DOCKED: REMARK    9  A    between atoms: C_35  and  C_36 
DOCKED: REMARK   10  A    between atoms: C_36  and  O_38 
DOCKED: USER                              x       y       z     vdW  Elec       q    Type
DOCKED: USER                           _______ _______ _______ _____ _____    ______ ____
DOCKED: ROOT
DOCKED: ATOM      1  C   UNL d   1      11.677  14.640   0.130 -0.26 -0.01    +0.064 A 
DOCKED: ATOM      2  C   UNL d   1      14.047  10.545   0.557 -0.07 -0.00    +0.064 A 
DOCKED: ATOM      3  C   UNL d   1      14.519  10.215  -4.214 -0.26 -0.01    +0.064 C 
DOCKED: ATOM      4  C   UNL d   1      12.501  14.666  -4.641 -0.19 -0.01    +0.064 A 
DOCKED: ATOM      5  C   UNL d   1      12.285  13.554   0.636 -0.19 -0.00    +0.066 A 
DOCKED: ATOM      6  C   UNL d   1      12.350  13.258   2.000 -0.14 +0.00    -0.021 A 
DOCKED: ATOM      7  C   UNL d   1      13.073  12.095   2.128 -0.12 +0.00    -0.025 A 
DOCKED: ATOM      8  C   UNL d   1      13.388  11.687   0.835 -0.06 -0.00    +0.066 A 
DOCKED: ATOM      9  C   UNL d   1      13.451  11.451   3.444 -0.06 +0.00    +0.051 C 
DOCKED: ATOM     10  C   UNL d   1      14.385  10.054  -0.779 -0.15 -0.00    +0.066 A 
DOCKED: ATOM     11  C   UNL d   1      14.923   8.785  -1.019 -0.15 +0.00    -0.021 A 
DOCKED: ATOM     12  C   UNL d   1      15.050   8.663  -2.390 -0.17 -0.00    +0.000 A 
DOCKED: ATOM     13  C   UNL d   1      14.583   9.898  -2.921 -0.21 -0.01    +0.070 A 
DOCKED: ATOM     14  C   UNL d   1      15.276   7.722   0.015 -0.10 +0.00    +0.052 C 
DOCKED: ATOM     15  C   UNL d   1      14.086  11.465  -4.789 -0.25 -0.01    +0.066 A 
DOCKED: ATOM     16  C   UNL d   1      14.197  11.794  -6.140 -0.17 +0.00    -0.021 A 
DOCKED: ATOM     17  C   UNL d   1      13.629  13.060  -6.285 -0.25 -0.00    +0.000 A 
DOCKED: ATOM     18  C   UNL d   1      13.206  13.411  -4.996 -0.25 -0.01    +0.070 A 
DOCKED: ATOM     19  C   UNL d   1      14.878  10.905  -7.150 -0.12 -0.00    +0.052 C 
DOCKED: ATOM     20  C   UNL d   1      12.121  15.053  -3.408 -0.27 -0.01    +0.066 A 
DOCKED: ATOM     21  C   UNL d   1      11.443  16.239  -3.137 -0.23 +0.01    -0.025 A 
DOCKED: ATOM     22  C   UNL d   1      11.176  16.236  -1.787 -0.21 +0.01    -0.021 A 
DOCKED: ATOM     23  C   UNL d   1      11.719  15.052  -1.278 -0.28 -0.01    +0.066 A 
DOCKED: ATOM     24  C   UNL d   1      11.073  17.322  -4.117 -0.19 -0.01    +0.051 C 
DOCKED: ATOM     25  N   UNL d   1      12.959  12.621  -0.080 -0.16 +0.02    -0.248 N 
DOCKED: ATOM     26  N   UNL d   1      14.185  10.740  -1.933 -0.15 +0.03    -0.248 N 
DOCKED: ATOM     27  N   UNL d   1      13.559  12.465  -4.089 -0.15 +0.06    -0.248 N 
DOCKED: ATOM     28  N   UNL d   1      12.331  14.358  -2.259 -0.20 +0.06    -0.248 N 
DOCKED: ATOM     29 FE   UNL d   1      13.252  12.562  -2.100 -0.06 -0.00    +0.000 Fe
DOCKED: ATOM     30  O   UNL d   1      14.553  12.811  -1.283 -0.13 -0.00    +0.000 OA
DOCKED: ATOM     31  O   UNL d   1      14.315  13.592  -2.631 -0.14 -0.00    +0.000 OA
DOCKED: ENDROOT
DOCKED: BRANCH   6  32
DOCKED: ATOM     32  C   UNL d   1      11.872  14.103   3.152 -0.10 +0.00    +0.052 C 
DOCKED: BRANCH  32  33
DOCKED: ATOM     33  C   UNL d   1      13.009  14.573   4.054 -0.02 -0.00    +0.115 C 
DOCKED: BRANCH  33  34
DOCKED: ATOM     34  C   UNL d   1      13.709  15.794   3.510 -0.01 -0.00    +0.139 C 
DOCKED: ATOM     35  O   UNL d   1      14.672  15.659   2.772 +0.01 +0.03    -0.650 OA
DOCKED: BRANCH  34  36
DOCKED: ATOM     36  O   UNL d   1      13.311  17.039   3.843 +0.01 +0.03    -0.776 OA
DOCKED: ATOM     37  H   UNL d   1      12.805  17.593   3.237 +0.01 -0.01    +0.167 HD
DOCKED: ENDBRANCH  34  36
DOCKED: ENDBRANCH  33  34
DOCKED: ENDBRANCH  32  33
DOCKED: ENDBRANCH   6  32
DOCKED: BRANCH  22  38
DOCKED: ATOM     38  C   UNL d   1      10.494  17.342  -1.023 -0.24 -0.01    +0.052 C 
DOCKED: BRANCH  38  39
DOCKED: ATOM     39  C   UNL d   1      11.489  18.327  -0.413 -0.10 -0.01    +0.115 C 
DOCKED: BRANCH  39  40
DOCKED: ATOM     40  C   UNL d   1      12.060  17.835   0.893 -0.06 -0.01    +0.139 C 
DOCKED: ATOM     41  O   UNL d   1      11.338  17.260   1.692 +0.01 +0.04    -0.650 OA
DOCKED: BRANCH  40  42
DOCKED: ATOM     42  O   UNL d   1      13.370  17.972   1.176 +0.02 +0.05    -0.776 OA
DOCKED: ATOM     43  H   UNL d   1      13.806  17.415   1.832 +0.01 -0.01    +0.167 HD
DOCKED: ENDBRANCH  40  42
DOCKED: ENDBRANCH  39  40
DOCKED: ENDBRANCH  38  39
DOCKED: ENDBRANCH  22  38
DOCKED: BRANCH  12  44
DOCKED: ATOM     44  C   UNL d   1      15.596   7.409  -3.039 -0.14 +0.00    +0.004 C 
DOCKED: ATOM     45  C   UNL d   1      14.985   6.604  -3.908 -0.19 +0.00    +0.012 C 
DOCKED: ENDBRANCH  12  44
DOCKED: BRANCH  17  46
DOCKED: ATOM     46  C   UNL d   1      13.509  13.957  -7.488 -0.23 -0.00    +0.004 C 
DOCKED: ATOM     47  C   UNL d   1      12.652  13.858  -8.513 -0.27 +0.00    +0.012 C 
DOCKED: ENDBRANCH  17  46
DOCKED: TORSDOF 10
DOCKED: TER
DOCKED: ENDMDL
________________________________________________________________________________


	BEGINNING GENETIC ALGORITHM DOCKING 66 of 100
Run: 66 Seed: 1001614835 241707608 [ Run 66 of 100 GA/GALS ]
Beginning LAMARCKIAN GENETIC ALGORITHM (LGA), with a maximum of 25000000 energy evaluations.

Final-Value: -18.045


	FINAL GENETIC ALGORITHM DOCKED STATE
	_______________________________________________


Detailed state:  trans -4.419 3.375 -6.756 quatxyzw 0.067945 0.053606 0.110615 -0.990088 center 8.287 34.468 -0.670 ntor 10 12.6838 98.7667 146.1599 -21.1168 87.7775 157.8347 -25.7685 -64.6489 -32.9441 52.9609
State:	 -4.419   3.375  -6.756   0.484  0.382  0.788 -16.148     12.68   98.77  146.16  -21.12   87.78  157.83  -25.77  -64.65  -32.94   52.96

DOCKED: MODEL       66
DOCKED: USER    Run = 66
DOCKED: USER    DPF = D:/Protein_go_brrr/autodock/final/mut_K82N/heme_O2/dock.dpf
DOCKED: USER  
DOCKED: USER    Estimated Free Energy of Binding    =  -13.85 kcal/mol  [=(1)+(2)+(3)-(4)]
DOCKED: USER    Estimated Inhibition Constant, Ki   =   70.84 pM (picomolar)  [Temperature = 298.15 K]
DOCKED: USER    
DOCKED: USER    (1) Final Intermolecular Energy     =  -16.83 kcal/mol
DOCKED: USER        vdW + Hbond + desolv Energy     =  -14.57 kcal/mol
DOCKED: USER        Electrostatic Energy            =   -2.26 kcal/mol
DOCKED: USER    (2) Final Total Internal Energy     =   -1.21 kcal/mol
DOCKED: USER    (3) Torsional Free Energy           =   +2.98 kcal/mol
DOCKED: USER    (4) Unbound System's Energy  [=(2)] =   -1.21 kcal/mol
DOCKED: USER    
DOCKED: USER    
DOCKED: USER    NEWDPF move heme_O2_opt.pdbqt
DOCKED: USER    NEWDPF about 8.287000 34.468000 -0.670000
DOCKED: USER    NEWDPF tran0 -4.418545 3.374555 -6.755580
DOCKED: USER    NEWDPF quaternion0 0.067945 0.053606 0.110615 -0.990088
DOCKED: USER    NEWDPF axisangle0 0.483770 0.381678 0.787584 -16.147663
DOCKED: USER    NEWDPF quat0 0.483770 0.381678 0.787584 -16.147663
DOCKED: USER    NEWDPF dihe0 12.68 98.77 146.16 -21.12 87.78 157.83 -25.77 -64.65 -32.94 52.96 
DOCKED: USER  keepresnum = 1 
DOCKED: USER  
DOCKED: REMARK  10 active torsions:
DOCKED: REMARK  status: ('A' for Active; 'I' for Inactive)
DOCKED: REMARK    1  A    between atoms: C_6  and  C_10 
DOCKED: REMARK    2  A    between atoms: C_10  and  C_11 
DOCKED: REMARK    3  A    between atoms: C_11  and  C_12 
DOCKED: REMARK    4  A    between atoms: C_12  and  O_14 
DOCKED: REMARK    5  A    between atoms: C_17  and  C_20 
DOCKED: REMARK    6  A    between atoms: C_24  and  C_27 
DOCKED: REMARK    7  A    between atoms: C_31  and  C_34 
DOCKED: REMARK    8  A    between atoms: C_34  and  C_35 
DOCKED: REMARK    9  A    between atoms: C_35  and  C_36 
DOCKED: REMARK   10  A    between atoms: C_36  and  O_38 
DOCKED: USER                              x       y       z     vdW  Elec       q    Type
DOCKED: USER                           _______ _______ _______ _____ _____    ______ ____
DOCKED: ROOT
DOCKED: ATOM      1  C   UNL d   1      -6.456   3.631  -7.285 -0.19 +0.02    +0.064 A 
DOCKED: ATOM      2  C   UNL d   1      -4.290   0.807  -4.140 -0.39 +0.00    +0.064 A 
DOCKED: ATOM      3  C   UNL d   1       0.011   2.525  -5.422 -0.30 -0.00    +0.064 C 
DOCKED: ATOM      4  C   UNL d   1      -2.242   5.777  -8.322 -0.35 +0.00    +0.064 A 
DOCKED: ATOM      5  C   UNL d   1      -6.218   2.724  -6.324 -0.24 +0.02    +0.066 A 
DOCKED: ATOM      6  C   UNL d   1      -7.214   1.970  -5.695 -0.38 -0.01    -0.021 A 
DOCKED: ATOM      7  C   UNL d   1      -6.592   1.183  -4.754 -0.42 -0.00    -0.025 A 
DOCKED: ATOM      8  C   UNL d   1      -5.229   1.443  -4.867 -0.38 +0.01    +0.066 A 
DOCKED: ATOM      9  C   UNL d   1      -7.305   0.261  -3.789 -0.16 +0.01    +0.051 C 
DOCKED: ATOM     10  C   UNL d   1      -2.845   1.021  -4.230 -0.37 +0.00    +0.066 A 
DOCKED: ATOM     11  C   UNL d   1      -1.906   0.219  -3.571 -0.40 +0.00    -0.021 A 
DOCKED: ATOM     12  C   UNL d   1      -0.659   0.687  -3.943 -0.35 -0.00    +0.000 A 
DOCKED: ATOM     13  C   UNL d   1      -0.914   1.780  -4.817 -0.29 +0.00    +0.070 A 
DOCKED: ATOM     14  C   UNL d   1      -2.187  -0.961  -2.648 -0.47 -0.00    +0.052 C 
DOCKED: ATOM     15  C   UNL d   1      -0.205   3.661  -6.285 -0.42 +0.00    +0.066 A 
DOCKED: ATOM     16  C   UNL d   1       0.805   4.500  -6.756 -0.53 -0.00    -0.021 A 
DOCKED: ATOM     17  C   UNL d   1       0.186   5.435  -7.584 -0.51 +0.00    +0.000 A 
DOCKED: ATOM     18  C   UNL d   1      -1.173   5.091  -7.558 -0.40 +0.00    +0.070 A 
DOCKED: ATOM     19  C   UNL d   1       2.246   4.369  -6.333 -0.17 +0.00    +0.052 C 
DOCKED: ATOM     20  C   UNL d   1      -3.560   5.500  -8.287 -0.42 +0.01    +0.066 A 
DOCKED: ATOM     21  C   UNL d   1      -4.519   6.169  -9.043 -0.43 -0.00    -0.025 A 
DOCKED: ATOM     22  C   UNL d   1      -5.722   5.554  -8.781 -0.24 -0.00    -0.021 A 
DOCKED: ATOM     23  C   UNL d   1      -5.455   4.539  -7.857 -0.17 +0.01    +0.066 A 
DOCKED: ATOM     24  C   UNL d   1      -4.298   7.340  -9.966 -0.47 -0.01    +0.051 C 
DOCKED: ATOM     25  N   UNL d   1      -5.006   2.440  -5.789 -0.16 -0.05    -0.248 N 
DOCKED: ATOM     26  N   UNL d   1      -2.246   1.979  -4.982 -0.26 -0.01    -0.248 N 
DOCKED: ATOM     27  N   UNL d   1      -1.402   4.059  -6.706 -0.25 -0.01    -0.248 N 
DOCKED: ATOM     28  N   UNL d   1      -4.147   4.539  -7.525 -0.16 -0.08    -0.248 N 
DOCKED: ATOM     29 FE   UNL d   1      -3.201   3.270  -6.264 -0.09 +0.00    +0.000 Fe
DOCKED: ATOM     30  O   UNL d   1      -3.700   3.627  -4.833 -0.43 +0.00    +0.000 OA
DOCKED: ATOM     31  O   UNL d   1      -2.992   4.727  -5.711 -0.94 +0.00    +0.000 OA
DOCKED: ENDROOT
DOCKED: BRANCH   6  32
DOCKED: ATOM     32  C   UNL d   1      -8.706   2.081  -5.873 -0.11 +0.04    +0.052 C 
DOCKED: BRANCH  32  33
DOCKED: ATOM     33  C   UNL d   1      -9.133   2.044  -7.337 -0.22 +0.10    +0.115 C 
DOCKED: BRANCH  33  34
DOCKED: ATOM     34  C   UNL d   1     -10.524   1.489  -7.516 -0.05 +0.15    +0.139 C 
DOCKED: ATOM     35  O   UNL d   1     -10.759   0.335  -7.197 +0.00 -0.40    -0.650 OA
DOCKED: BRANCH  34  36
DOCKED: ATOM     36  O   UNL d   1     -11.515   2.234  -8.050 -0.26 -1.18    -0.776 OA
DOCKED: ATOM     37  H   UNL d   1     -11.340   3.068  -8.501 +0.02 +0.23    +0.167 HD
DOCKED: ENDBRANCH  34  36
DOCKED: ENDBRANCH  33  34
DOCKED: ENDBRANCH  32  33
DOCKED: ENDBRANCH   6  32
DOCKED: BRANCH  22  38
DOCKED: ATOM     38  C   UNL d   1      -7.059   5.964  -9.341 -0.23 +0.01    +0.052 C 
DOCKED: BRANCH  38  39
DOCKED: ATOM     39  C   UNL d   1      -8.054   4.806  -9.381 -0.22 +0.04    +0.115 C 
DOCKED: BRANCH  39  40
DOCKED: ATOM     40  C   UNL d   1      -9.221   5.017  -8.450 -0.20 +0.11    +0.139 C 
DOCKED: ATOM     41  O   UNL d   1      -9.023   5.191  -7.258 -0.48 -0.78    -0.650 OA
DOCKED: BRANCH  40  42
DOCKED: ATOM     42  O   UNL d   1     -10.484   5.067  -8.917 -0.02 -0.67    -0.776 OA
DOCKED: ATOM     43  H   UNL d   1     -11.080   4.312  -8.844 +0.03 +0.19    +0.167 HD
DOCKED: ENDBRANCH  40  42
DOCKED: ENDBRANCH  39  40
DOCKED: ENDBRANCH  38  39
DOCKED: ENDBRANCH  22  38
DOCKED: BRANCH  12  44
DOCKED: ATOM     44  C   UNL d   1       0.620   0.058  -3.432 -0.59 -0.00    +0.004 C 
DOCKED: ATOM     45  C   UNL d   1       0.868  -0.419  -2.213 -0.65 -0.00    +0.012 C 
DOCKED: ENDBRANCH  12  44
DOCKED: BRANCH  17  46
DOCKED: ATOM     46  C   UNL d   1       0.744   6.621  -8.325 -0.37 +0.00    +0.004 C 
DOCKED: ATOM     47  C   UNL d   1       1.810   7.368  -8.011 -0.47 +0.00    +0.012 C 
DOCKED: ENDBRANCH  17  46
DOCKED: TORSDOF 10
DOCKED: TER
DOCKED: ENDMDL
________________________________________________________________________________


	BEGINNING GENETIC ALGORITHM DOCKING 67 of 100
Run: 67 Seed: 939183504 1864778653 [ Run 67 of 100 GA/GALS ]
Beginning LAMARCKIAN GENETIC ALGORITHM (LGA), with a maximum of 25000000 energy evaluations.

Final-Value: -10.918


	FINAL GENETIC ALGORITHM DOCKED STATE
	_______________________________________________


Detailed state:  trans -9.170 9.641 -11.162 quatxyzw 0.904176 0.269272 -0.310349 0.116796 center 8.287 34.468 -0.670 ntor 10 -81.0657 -130.5573 -39.7764 -106.9637 31.6094 157.1137 53.3936 61.8673 16.1582 140.1449
State:	 -9.170   9.641 -11.162   0.910  0.271 -0.312 166.586    -81.07 -130.56  -39.78 -106.96   31.61  157.11   53.39   61.87   16.16  140.14

DOCKED: MODEL       67
DOCKED: USER    Run = 67
DOCKED: USER    DPF = D:/Protein_go_brrr/autodock/final/mut_K82N/heme_O2/dock.dpf
DOCKED: USER  
DOCKED: USER    Estimated Free Energy of Binding    =   -5.77 kcal/mol  [=(1)+(2)+(3)-(4)]
DOCKED: USER    Estimated Inhibition Constant, Ki   =   58.59 uM (micromolar)  [Temperature = 298.15 K]
DOCKED: USER    
DOCKED: USER    (1) Final Intermolecular Energy     =   -8.76 kcal/mol
DOCKED: USER        vdW + Hbond + desolv Energy     =   -5.90 kcal/mol
DOCKED: USER        Electrostatic Energy            =   -2.85 kcal/mol
DOCKED: USER    (2) Final Total Internal Energy     =   -2.16 kcal/mol
DOCKED: USER    (3) Torsional Free Energy           =   +2.98 kcal/mol
DOCKED: USER    (4) Unbound System's Energy  [=(2)] =   -2.16 kcal/mol
DOCKED: USER    
DOCKED: USER    
DOCKED: USER    NEWDPF move heme_O2_opt.pdbqt
DOCKED: USER    NEWDPF about 8.287000 34.468000 -0.670000
DOCKED: USER    NEWDPF tran0 -9.169874 9.640805 -11.161659
DOCKED: USER    NEWDPF quaternion0 0.904176 0.269272 -0.310349 0.116796
DOCKED: USER    NEWDPF axisangle0 0.910407 0.271128 -0.312488 166.585533
DOCKED: USER    NEWDPF quat0 0.910407 0.271128 -0.312488 166.585533
DOCKED: USER    NEWDPF dihe0 -81.07 -130.56 -39.78 -106.96 31.61 157.11 53.39 61.87 16.16 140.14 
DOCKED: USER  keepresnum = 1 
DOCKED: USER  
DOCKED: REMARK  10 active torsions:
DOCKED: REMARK  status: ('A' for Active; 'I' for Inactive)
DOCKED: REMARK    1  A    between atoms: C_6  and  C_10 
DOCKED: REMARK    2  A    between atoms: C_10  and  C_11 
DOCKED: REMARK    3  A    between atoms: C_11  and  C_12 
DOCKED: REMARK    4  A    between atoms: C_12  and  O_14 
DOCKED: REMARK    5  A    between atoms: C_17  and  C_20 
DOCKED: REMARK    6  A    between atoms: C_24  and  C_27 
DOCKED: REMARK    7  A    between atoms: C_31  and  C_34 
DOCKED: REMARK    8  A    between atoms: C_34  and  C_35 
DOCKED: REMARK    9  A    between atoms: C_35  and  C_36 
DOCKED: REMARK   10  A    between atoms: C_36  and  O_38 
DOCKED: USER                              x       y       z     vdW  Elec       q    Type
DOCKED: USER                           _______ _______ _______ _____ _____    ______ ____
DOCKED: ROOT
DOCKED: ATOM      1  C   UNL d   1      -9.660   8.061  -9.833 -0.06 +0.01    +0.064 A 
DOCKED: ATOM      2  C   UNL d   1     -12.325  11.139 -12.279 -0.01 +0.01    +0.064 A 
DOCKED: ATOM      3  C   UNL d   1      -8.401  13.249 -14.079 -0.09 +0.00    +0.064 C 
DOCKED: ATOM      4  C   UNL d   1      -5.659   9.786 -11.945 -0.12 -0.02    +0.064 A 
DOCKED: ATOM      5  C   UNL d   1     -10.705   8.725 -10.353 -0.02 +0.01    +0.066 A 
DOCKED: ATOM      6  C   UNL d   1     -12.041   8.436 -10.059 -0.00 -0.00    -0.021 A 
DOCKED: ATOM      7  C   UNL d   1     -12.814   9.298 -10.799 +0.00 -0.00    -0.025 A 
DOCKED: ATOM      8  C   UNL d   1     -11.929  10.122 -11.489 -0.01 +0.01    +0.066 A 
DOCKED: ATOM      9  C   UNL d   1     -14.327   9.284 -10.843 +0.01 +0.01    +0.051 C 
DOCKED: ATOM     10  C   UNL d   1     -11.444  12.051 -13.010 -0.03 +0.01    +0.066 A 
DOCKED: ATOM     11  C   UNL d   1     -11.902  13.189 -13.683 -0.02 -0.00    -0.021 A 
DOCKED: ATOM     12  C   UNL d   1     -10.783  13.821 -14.194 -0.04 +0.00    +0.000 A 
DOCKED: ATOM     13  C   UNL d   1      -9.682  13.007 -13.805 -0.05 +0.01    +0.070 A 
DOCKED: ATOM     14  C   UNL d   1     -13.343  13.668 -13.810 -0.00 +0.00    +0.052 C 
DOCKED: ATOM     15  C   UNL d   1      -7.262  12.433 -13.734 -0.13 -0.00    +0.066 A 
DOCKED: ATOM     16  C   UNL d   1      -5.963  12.655 -14.192 -0.26 +0.00    -0.021 A 
DOCKED: ATOM     17  C   UNL d   1      -5.164  11.679 -13.597 -0.36 -0.00    +0.000 A 
DOCKED: ATOM     18  C   UNL d   1      -6.046  10.926 -12.809 -0.25 -0.01    +0.070 A 
DOCKED: ATOM     19  C   UNL d   1      -5.614  13.732 -15.188 -0.24 -0.02    +0.052 C 
DOCKED: ATOM     20  C   UNL d   1      -6.485   9.016 -11.210 -0.22 -0.01    +0.066 A 
DOCKED: ATOM     21  C   UNL d   1      -6.060   7.966 -10.401 -0.29 +0.00    -0.025 A 
DOCKED: ATOM     22  C   UNL d   1      -7.184   7.481  -9.771 -0.23 -0.00    -0.021 A 
DOCKED: ATOM     23  C   UNL d   1      -8.260   8.243 -10.234 -0.12 +0.01    +0.066 A 
DOCKED: ATOM     24  C   UNL d   1      -4.654   7.451 -10.240 -0.43 -0.01    +0.051 C 
DOCKED: ATOM     25  N   UNL d   1     -10.631   9.726 -11.265 -0.01 -0.04    -0.248 N 
DOCKED: ATOM     26  N   UNL d   1     -10.094  11.930 -13.089 -0.05 -0.04    -0.248 N 
DOCKED: ATOM     27  N   UNL d   1      -7.326  11.351 -12.963 -0.10 -0.00    -0.248 N 
DOCKED: ATOM     28  N   UNL d   1      -7.837   9.146 -11.143 -0.07 -0.01    -0.248 N 
DOCKED: ATOM     29 FE   UNL d   1      -8.955  10.529 -12.110 -0.02 +0.00    +0.000 Fe
DOCKED: ATOM     30  O   UNL d   1      -9.849   9.742 -13.112 -0.04 +0.00    +0.000 OA
DOCKED: ATOM     31  O   UNL d   1      -8.281   9.620 -13.202 -0.09 +0.00    +0.000 OA
DOCKED: ENDROOT
DOCKED: BRANCH   6  32
DOCKED: ATOM     32  C   UNL d   1     -12.577   7.305  -9.220 -0.02 +0.02    +0.052 C 
DOCKED: BRANCH  32  33
DOCKED: ATOM     33  C   UNL d   1     -12.945   7.739  -7.805 -0.02 +0.05    +0.115 C 
DOCKED: BRANCH  33  34
DOCKED: ATOM     34  C   UNL d   1     -12.325   6.854  -6.752 -0.03 +0.15    +0.139 C 
DOCKED: ATOM     35  O   UNL d   1     -13.043   6.236  -5.983 -0.44 -0.98    -0.650 OA
DOCKED: BRANCH  34  36
DOCKED: ATOM     36  O   UNL d   1     -10.986   6.751  -6.620 -0.08 -0.98    -0.776 OA
DOCKED: ATOM     37  H   UNL d   1     -10.459   6.178  -7.190 +0.03 +0.24    +0.167 HD
DOCKED: ENDBRANCH  34  36
DOCKED: ENDBRANCH  33  34
DOCKED: ENDBRANCH  32  33
DOCKED: ENDBRANCH   6  32
DOCKED: BRANCH  22  38
DOCKED: ATOM     38  C   UNL d   1      -7.223   6.307  -8.826 -0.21 +0.01    +0.052 C 
DOCKED: BRANCH  38  39
DOCKED: ATOM     39  C   UNL d   1      -8.094   5.167  -9.350 -0.23 +0.04    +0.115 C 
DOCKED: BRANCH  39  40
DOCKED: ATOM     40  C   UNL d   1      -9.248   4.854  -8.430 -0.20 +0.11    +0.139 C 
DOCKED: ATOM     41  O   UNL d   1      -9.030   4.535  -7.273 -0.44 -0.90    -0.650 OA
DOCKED: BRANCH  40  42
DOCKED: ATOM     42  O   UNL d   1     -10.523   4.970  -8.849 -0.03 -0.72    -0.776 OA
DOCKED: ATOM     43  H   UNL d   1     -11.172   5.484  -8.354 +0.02 +0.20    +0.167 HD
DOCKED: ENDBRANCH  40  42
DOCKED: ENDBRANCH  39  40
DOCKED: ENDBRANCH  38  39
DOCKED: ENDBRANCH  22  38
DOCKED: BRANCH  12  44
DOCKED: ATOM     44  C   UNL d   1     -10.878  15.107 -14.987 -0.03 +0.00    +0.004 C 
DOCKED: ATOM     45  C   UNL d   1     -10.115  16.194 -14.878 -0.05 +0.00    +0.012 C 
DOCKED: ENDBRANCH  12  44
DOCKED: BRANCH  17  46
DOCKED: ATOM     46  C   UNL d   1      -3.698  11.373 -13.751 -0.42 -0.00    +0.004 C 
DOCKED: ATOM     47  C   UNL d   1      -3.130  10.283 -14.283 -0.40 -0.00    +0.012 C 
DOCKED: ENDBRANCH  17  46
DOCKED: TORSDOF 10
DOCKED: TER
DOCKED: ENDMDL
________________________________________________________________________________


	BEGINNING GENETIC ALGORITHM DOCKING 68 of 100
Run: 68 Seed: 1999587992 801926502 [ Run 68 of 100 GA/GALS ]
Beginning LAMARCKIAN GENETIC ALGORITHM (LGA), with a maximum of 25000000 energy evaluations.

Final-Value: -11.775


	FINAL GENETIC ALGORITHM DOCKED STATE
	_______________________________________________


Detailed state:  trans -7.652 10.318 -12.365 quatxyzw -0.168892 -0.515991 -0.166648 0.823078 center 8.287 34.468 -0.670 ntor 10 33.3031 -43.6057 45.1781 -102.8715 -164.3557 -173.5224 -50.1695 107.7936 19.7378 -154.0356
State:	 -7.652  10.318 -12.365  -0.297 -0.909 -0.293 69.212     33.30  -43.61   45.18 -102.87 -164.36 -173.52  -50.17  107.79   19.74 -154.04

DOCKED: MODEL       68
DOCKED: USER    Run = 68
DOCKED: USER    DPF = D:/Protein_go_brrr/autodock/final/mut_K82N/heme_O2/dock.dpf
DOCKED: USER  
DOCKED: USER    Estimated Free Energy of Binding    =   -8.13 kcal/mol  [=(1)+(2)+(3)-(4)]
DOCKED: USER    Estimated Inhibition Constant, Ki   =    1.09 uM (micromolar)  [Temperature = 298.15 K]
DOCKED: USER    
DOCKED: USER    (1) Final Intermolecular Energy     =  -11.11 kcal/mol
DOCKED: USER        vdW + Hbond + desolv Energy     =   -8.50 kcal/mol
DOCKED: USER        Electrostatic Energy            =   -2.62 kcal/mol
DOCKED: USER    (2) Final Total Internal Energy     =   -0.66 kcal/mol
DOCKED: USER    (3) Torsional Free Energy           =   +2.98 kcal/mol
DOCKED: USER    (4) Unbound System's Energy  [=(2)] =   -0.66 kcal/mol
DOCKED: USER    
DOCKED: USER    
DOCKED: USER    NEWDPF move heme_O2_opt.pdbqt
DOCKED: USER    NEWDPF about 8.287000 34.468000 -0.670000
DOCKED: USER    NEWDPF tran0 -7.652127 10.317664 -12.364724
DOCKED: USER    NEWDPF quaternion0 -0.168892 -0.515991 -0.166648 0.823078
DOCKED: USER    NEWDPF axisangle0 -0.297382 -0.908550 -0.293430 69.211836
DOCKED: USER    NEWDPF quat0 -0.297382 -0.908550 -0.293430 69.211836
DOCKED: USER    NEWDPF dihe0 33.30 -43.61 45.18 -102.87 -164.36 -173.52 -50.17 107.79 19.74 -154.04 
DOCKED: USER  keepresnum = 1 
DOCKED: USER  
DOCKED: REMARK  10 active torsions:
DOCKED: REMARK  status: ('A' for Active; 'I' for Inactive)
DOCKED: REMARK    1  A    between atoms: C_6  and  C_10 
DOCKED: REMARK    2  A    between atoms: C_10  and  C_11 
DOCKED: REMARK    3  A    between atoms: C_11  and  C_12 
DOCKED: REMARK    4  A    between atoms: C_12  and  O_14 
DOCKED: REMARK    5  A    between atoms: C_17  and  C_20 
DOCKED: REMARK    6  A    between atoms: C_24  and  C_27 
DOCKED: REMARK    7  A    between atoms: C_31  and  C_34 
DOCKED: REMARK    8  A    between atoms: C_34  and  C_35 
DOCKED: REMARK    9  A    between atoms: C_35  and  C_36 
DOCKED: REMARK   10  A    between atoms: C_36  and  O_38 
DOCKED: USER                              x       y       z     vdW  Elec       q    Type
DOCKED: USER                           _______ _______ _______ _____ _____    ______ ____
DOCKED: ROOT
DOCKED: ATOM      1  C   UNL d   1      -9.207  10.098 -10.939 -0.09 +0.01    +0.064 A 
DOCKED: ATOM      2  C   UNL d   1      -5.093   7.812 -11.577 -0.20 -0.01    +0.064 A 
DOCKED: ATOM      3  C   UNL d   1      -4.085  10.509 -15.424 -0.20 -0.02    +0.064 C 
DOCKED: ATOM      4  C   UNL d   1      -8.089  13.187 -14.495 -0.09 -0.00    +0.064 A 
DOCKED: ATOM      5  C   UNL d   1      -8.170   9.257 -10.797 -0.13 +0.01    +0.066 A 
DOCKED: ATOM      6  C   UNL d   1      -8.083   8.281  -9.800 -0.16 -0.00    -0.021 A 
DOCKED: ATOM      7  C   UNL d   1      -6.873   7.648  -9.957 -0.24 -0.00    -0.025 A 
DOCKED: ATOM      8  C   UNL d   1      -6.274   8.222 -11.076 -0.22 -0.00    +0.066 A 
DOCKED: ATOM      9  C   UNL d   1      -6.335   6.569  -9.042 -0.31 +0.00    +0.051 C 
DOCKED: ATOM     10  C   UNL d   1      -4.427   8.359 -12.759 -0.19 -0.02    +0.066 A 
DOCKED: ATOM     11  C   UNL d   1      -3.284   7.790 -13.331 -0.47 +0.00    -0.021 A 
DOCKED: ATOM     12  C   UNL d   1      -2.988   8.543 -14.452 -0.44 -0.00    +0.000 A 
DOCKED: ATOM     13  C   UNL d   1      -3.982   9.559 -14.495 -0.26 -0.02    +0.070 A 
DOCKED: ATOM     14  C   UNL d   1      -2.522   6.563 -12.844 -0.28 -0.01    +0.052 C 
DOCKED: ATOM     15  C   UNL d   1      -5.055  11.576 -15.484 -0.12 -0.02    +0.066 A 
DOCKED: ATOM     16  C   UNL d   1      -5.010  12.635 -16.389 -0.11 +0.01    -0.021 A 
DOCKED: ATOM     17  C   UNL d   1      -6.142  13.412 -16.143 -0.11 -0.00    +0.000 A 
DOCKED: ATOM     18  C   UNL d   1      -6.801  12.759 -15.092 -0.10 -0.01    +0.070 A 
DOCKED: ATOM     19  C   UNL d   1      -3.876  12.839 -17.362 -0.08 -0.05    +0.052 C 
DOCKED: ATOM     20  C   UNL d   1      -8.726  12.609 -13.459 -0.03 +0.01    +0.066 A 
DOCKED: ATOM     21  C   UNL d   1      -9.946  13.046 -12.951 +0.02 -0.01    -0.025 A 
DOCKED: ATOM     22  C   UNL d   1     -10.294  12.162 -11.955 -0.02 -0.01    -0.021 A 
DOCKED: ATOM     23  C   UNL d   1      -9.260  11.223 -11.879 +0.01 +0.02    +0.066 A 
DOCKED: ATOM     24  C   UNL d   1     -10.739  14.250 -13.392 -0.07 +0.01    +0.051 C 
DOCKED: ATOM     25  N   UNL d   1      -7.044   9.257 -11.553 -0.10 +0.01    -0.248 N 
DOCKED: ATOM     26  N   UNL d   1      -4.851   9.443 -13.459 -0.16 +0.06    -0.248 N 
DOCKED: ATOM     27  N   UNL d   1      -6.089  11.689 -14.655 -0.06 +0.05    -0.248 N 
DOCKED: ATOM     28  N   UNL d   1      -8.288  11.525 -12.765 -0.06 -0.03    -0.248 N 
DOCKED: ATOM     29 FE   UNL d   1      -6.581  10.493 -13.111 -0.04 -0.00    +0.000 Fe
DOCKED: ATOM     30  O   UNL d   1      -5.685  10.702 -11.856 -0.41 -0.00    +0.000 OA
DOCKED: ATOM     31  O   UNL d   1      -6.173  11.951 -12.683 -0.46 -0.00    +0.000 OA
DOCKED: ENDROOT
DOCKED: BRANCH   6  32
DOCKED: ATOM     32  C   UNL d   1      -9.036   8.042  -8.658 -0.16 +0.01    +0.052 C 
DOCKED: BRANCH  32  33
DOCKED: ATOM     33  C   UNL d   1      -9.939   6.833  -8.883 -0.10 +0.05    +0.115 C 
DOCKED: BRANCH  33  34
DOCKED: ATOM     34  C   UNL d   1      -9.903   5.865  -7.726 -0.05 +0.16    +0.139 C 
DOCKED: ATOM     35  O   UNL d   1      -9.965   6.288  -6.583 -0.46 -0.91    -0.650 OA
DOCKED: BRANCH  34  36
DOCKED: ATOM     36  O   UNL d   1      -9.774   4.537  -7.924 -0.26 -1.15    -0.776 OA
DOCKED: ATOM     37  H   UNL d   1      -9.255   4.177  -8.652 +0.05 +0.13    +0.167 HD
DOCKED: ENDBRANCH  34  36
DOCKED: ENDBRANCH  33  34
DOCKED: ENDBRANCH  32  33
DOCKED: ENDBRANCH   6  32
DOCKED: BRANCH  22  38
DOCKED: ATOM     38  C   UNL d   1     -11.521  12.256 -11.085 -0.07 +0.01    +0.052 C 
DOCKED: BRANCH  38  39
DOCKED: ATOM     39  C   UNL d   1     -11.663  13.627 -10.427 -0.11 +0.04    +0.115 C 
DOCKED: BRANCH  39  40
DOCKED: ATOM     40  C   UNL d   1     -10.671  13.835  -9.310 -0.21 +0.08    +0.139 C 
DOCKED: ATOM     41  O   UNL d   1     -10.263  12.876  -8.675 -0.05 -0.26    -0.650 OA
DOCKED: BRANCH  40  42
DOCKED: ATOM     42  O   UNL d   1     -10.186  15.060  -9.030 -0.42 -0.91    -0.776 OA
DOCKED: ATOM     43  H   UNL d   1      -9.941  15.678  -9.730 -0.47 +0.17    +0.167 HD
DOCKED: ENDBRANCH  40  42
DOCKED: ENDBRANCH  39  40
DOCKED: ENDBRANCH  38  39
DOCKED: ENDBRANCH  22  38
DOCKED: BRANCH  12  44
DOCKED: ATOM     44  C   UNL d   1      -1.808   8.223 -15.347 -0.40 -0.00    +0.004 C 
DOCKED: ATOM     45  C   UNL d   1      -0.958   9.077 -15.917 -0.41 -0.00    +0.012 C 
DOCKED: ENDBRANCH  12  44
DOCKED: BRANCH  17  46
DOCKED: ATOM     46  C   UNL d   1      -6.604  14.707 -16.756 -0.09 -0.00    +0.004 C 
DOCKED: ATOM     47  C   UNL d   1      -6.644  15.922 -16.195 -0.12 -0.00    +0.012 C 
DOCKED: ENDBRANCH  17  46
DOCKED: TORSDOF 10
DOCKED: TER
DOCKED: ENDMDL
________________________________________________________________________________


	BEGINNING GENETIC ALGORITHM DOCKING 69 of 100
Run: 69 Seed: 1897734026 812868621 [ Run 69 of 100 GA/GALS ]
Beginning LAMARCKIAN GENETIC ALGORITHM (LGA), with a maximum of 25000000 energy evaluations.

Final-Value: -11.008


	FINAL GENETIC ALGORITHM DOCKED STATE
	_______________________________________________


Detailed state:  trans -8.095 10.310 -11.957 quatxyzw -0.166392 -0.571597 -0.196178 0.779169 center 8.287 34.468 -0.670 ntor 10 -28.4100 165.3007 104.0719 -107.0332 107.5176 -18.3167 -16.0745 148.4312 -10.2647 -162.7383
State:	 -8.095  10.310 -11.957  -0.265 -0.912 -0.313 77.631    -28.41  165.30  104.07 -107.03  107.52  -18.32  -16.07  148.43  -10.26 -162.74

DOCKED: MODEL       69
DOCKED: USER    Run = 69
DOCKED: USER    DPF = D:/Protein_go_brrr/autodock/final/mut_K82N/heme_O2/dock.dpf
DOCKED: USER  
DOCKED: USER    Estimated Free Energy of Binding    =   -7.37 kcal/mol  [=(1)+(2)+(3)-(4)]
DOCKED: USER    Estimated Inhibition Constant, Ki   =    3.95 uM (micromolar)  [Temperature = 298.15 K]
DOCKED: USER    
DOCKED: USER    (1) Final Intermolecular Energy     =  -10.35 kcal/mol
DOCKED: USER        vdW + Hbond + desolv Energy     =   -7.62 kcal/mol
DOCKED: USER        Electrostatic Energy            =   -2.73 kcal/mol
DOCKED: USER    (2) Final Total Internal Energy     =   -0.65 kcal/mol
DOCKED: USER    (3) Torsional Free Energy           =   +2.98 kcal/mol
DOCKED: USER    (4) Unbound System's Energy  [=(2)] =   -0.65 kcal/mol
DOCKED: USER    
DOCKED: USER    
DOCKED: USER    NEWDPF move heme_O2_opt.pdbqt
DOCKED: USER    NEWDPF about 8.287000 34.468000 -0.670000
DOCKED: USER    NEWDPF tran0 -8.095080 10.310019 -11.957080
DOCKED: USER    NEWDPF quaternion0 -0.166392 -0.571597 -0.196178 0.779169
DOCKED: USER    NEWDPF axisangle0 -0.265457 -0.911909 -0.312977 77.630849
DOCKED: USER    NEWDPF quat0 -0.265457 -0.911909 -0.312977 77.630849
DOCKED: USER    NEWDPF dihe0 -28.41 165.30 104.07 -107.03 107.52 -18.32 -16.07 148.43 -10.26 -162.74 
DOCKED: USER  keepresnum = 1 
DOCKED: USER  
DOCKED: REMARK  10 active torsions:
DOCKED: REMARK  status: ('A' for Active; 'I' for Inactive)
DOCKED: REMARK    1  A    between atoms: C_6  and  C_10 
DOCKED: REMARK    2  A    between atoms: C_10  and  C_11 
DOCKED: REMARK    3  A    between atoms: C_11  and  C_12 
DOCKED: REMARK    4  A    between atoms: C_12  and  O_14 
DOCKED: REMARK    5  A    between atoms: C_17  and  C_20 
DOCKED: REMARK    6  A    between atoms: C_24  and  C_27 
DOCKED: REMARK    7  A    between atoms: C_31  and  C_34 
DOCKED: REMARK    8  A    between atoms: C_34  and  C_35 
DOCKED: REMARK    9  A    between atoms: C_35  and  C_36 
DOCKED: REMARK   10  A    between atoms: C_36  and  O_38 
DOCKED: USER                              x       y       z     vdW  Elec       q    Type
DOCKED: USER                           _______ _______ _______ _____ _____    ______ ____
DOCKED: ROOT
DOCKED: ATOM      1  C   UNL d   1      -9.434   9.933 -10.355 -0.09 +0.01    +0.064 A 
DOCKED: ATOM      2  C   UNL d   1      -5.258   8.020 -11.564 -0.18 -0.01    +0.064 A 
DOCKED: ATOM      3  C   UNL d   1      -4.972  10.859 -15.431 -0.13 -0.02    +0.064 C 
DOCKED: ATOM      4  C   UNL d   1      -9.034  13.167 -13.936 -0.02 +0.01    +0.064 A 
DOCKED: ATOM      5  C   UNL d   1      -8.320   9.182 -10.368 -0.13 +0.01    +0.066 A 
DOCKED: ATOM      6  C   UNL d   1      -8.028   8.200  -9.417 -0.18 -0.00    -0.021 A 
DOCKED: ATOM      7  C   UNL d   1      -6.799   7.676  -9.741 -0.26 -0.00    -0.025 A 
DOCKED: ATOM      8  C   UNL d   1      -6.396   8.318 -10.909 -0.23 -0.00    +0.066 A 
DOCKED: ATOM      9  C   UNL d   1      -6.062   6.632  -8.931 -0.32 +0.00    +0.051 C 
DOCKED: ATOM     10  C   UNL d   1      -4.794   8.643 -12.805 -0.17 -0.02    +0.066 A 
DOCKED: ATOM     11  C   UNL d   1      -3.690   8.183 -13.531 -0.44 +0.00    -0.021 A 
DOCKED: ATOM     12  C   UNL d   1      -3.601   8.978 -14.659 -0.36 -0.00    +0.000 A 
DOCKED: ATOM     13  C   UNL d   1      -4.674   9.906 -14.549 -0.19 -0.02    +0.070 A 
DOCKED: ATOM     14  C   UNL d   1      -2.773   7.018 -13.177 -0.39 -0.01    +0.052 C 
DOCKED: ATOM     15  C   UNL d   1      -6.027  11.840 -15.339 -0.08 -0.02    +0.066 A 
DOCKED: ATOM     16  C   UNL d   1      -6.185  12.915 -16.214 -0.08 +0.01    -0.021 A 
DOCKED: ATOM     17  C   UNL d   1      -7.337  13.588 -15.806 -0.07 -0.00    +0.000 A 
DOCKED: ATOM     18  C   UNL d   1      -7.802  12.862 -14.700 -0.09 -0.00    +0.070 A 
DOCKED: ATOM     19  C   UNL d   1      -5.204  13.232 -17.314 -0.08 -0.03    +0.052 C 
DOCKED: ATOM     20  C   UNL d   1      -9.485  12.519 -12.844 +0.04 +0.01    +0.066 A 
DOCKED: ATOM     21  C   UNL d   1     -10.664  12.841 -12.176 -0.06 -0.01    -0.025 A 
DOCKED: ATOM     22  C   UNL d   1     -10.807  11.913 -11.170 -0.08 -0.01    -0.021 A 
DOCKED: ATOM     23  C   UNL d   1      -9.698  11.066 -11.250 +0.03 +0.02    +0.066 A 
DOCKED: ATOM     24  C   UNL d   1     -11.602  13.980 -12.481 -0.06 +0.01    +0.051 C 
DOCKED: ATOM     25  N   UNL d   1      -7.304   9.291 -11.258 -0.10 -0.00    -0.248 N 
DOCKED: ATOM     26  N   UNL d   1      -5.392   9.698 -13.416 -0.13 +0.05    -0.248 N 
DOCKED: ATOM     27  N   UNL d   1      -6.954  11.850 -14.386 -0.06 +0.02    -0.248 N 
DOCKED: ATOM     28  N   UNL d   1      -8.874  11.465 -12.241 -0.04 -0.06    -0.248 N 
DOCKED: ATOM     29 FE   UNL d   1      -7.146  10.590 -12.826 -0.04 -0.00    +0.000 Fe
DOCKED: ATOM     30  O   UNL d   1      -6.118  10.852 -11.687 -0.40 -0.00    +0.000 OA
DOCKED: ATOM     31  O   UNL d   1      -6.809  12.069 -12.411 -0.23 +0.00    +0.000 OA
DOCKED: ENDROOT
DOCKED: BRANCH   6  32
DOCKED: ATOM     32  C   UNL d   1      -8.805   7.860  -8.172 -0.20 +0.02    +0.052 C 
DOCKED: BRANCH  32  33
DOCKED: ATOM     33  C   UNL d   1     -10.101   7.111  -8.468 -0.11 +0.06    +0.115 C 
DOCKED: BRANCH  33  34
DOCKED: ATOM     34  C   UNL d   1     -10.644   6.398  -7.255 -0.09 +0.17    +0.139 C 
DOCKED: ATOM     35  O   UNL d   1      -9.883   5.777  -6.530 -0.40 -1.23    -0.650 OA
DOCKED: BRANCH  34  36
DOCKED: ATOM     36  O   UNL d   1     -11.961   6.406  -6.966 -0.09 -1.08    -0.776 OA
DOCKED: ATOM     37  H   UNL d   1     -12.539   7.131  -7.231 +0.02 +0.13    +0.167 HD
DOCKED: ENDBRANCH  34  36
DOCKED: ENDBRANCH  33  34
DOCKED: ENDBRANCH  32  33
DOCKED: ENDBRANCH   6  32
DOCKED: BRANCH  22  38
DOCKED: ATOM     38  C   UNL d   1     -11.918  11.887 -10.151 -0.06 +0.01    +0.052 C 
DOCKED: BRANCH  38  39
DOCKED: ATOM     39  C   UNL d   1     -11.953  13.152  -9.296 -0.10 +0.04    +0.115 C 
DOCKED: BRANCH  39  40
DOCKED: ATOM     40  C   UNL d   1     -10.578  13.727  -9.062 -0.25 +0.08    +0.139 C 
DOCKED: ATOM     41  O   UNL d   1     -10.357  14.896  -9.334 -0.37 -0.61    -0.650 OA
DOCKED: BRANCH  40  42
DOCKED: ATOM     42  O   UNL d   1      -9.599  12.987  -8.508 +0.02 -0.29    -0.776 OA
DOCKED: ATOM     43  H   UNL d   1      -8.681  13.283  -8.509 -0.44 +0.03    +0.167 HD
DOCKED: ENDBRANCH  40  42
DOCKED: ENDBRANCH  39  40
DOCKED: ENDBRANCH  38  39
DOCKED: ENDBRANCH  22  38
DOCKED: BRANCH  12  44
DOCKED: ATOM     44  C   UNL d   1      -2.522   8.777 -15.702 -0.38 -0.00    +0.004 C 
DOCKED: ATOM     45  C   UNL d   1      -1.256   9.190 -15.661 -0.41 -0.00    +0.012 C 
DOCKED: ENDBRANCH  12  44
DOCKED: BRANCH  17  46
DOCKED: ATOM     46  C   UNL d   1      -7.979  14.848 -16.321 -0.05 -0.00    +0.004 C 
DOCKED: ATOM     47  C   UNL d   1      -8.115  16.024 -15.695 -0.08 -0.00    +0.012 C 
DOCKED: ENDBRANCH  17  46
DOCKED: TORSDOF 10
DOCKED: TER
DOCKED: ENDMDL
________________________________________________________________________________


	BEGINNING GENETIC ALGORITHM DOCKING 70 of 100
Run: 70 Seed: 1075756054 1696318220 [ Run 70 of 100 GA/GALS ]
Beginning LAMARCKIAN GENETIC ALGORITHM (LGA), with a maximum of 25000000 energy evaluations.

Final-Value: -9.914


	FINAL GENETIC ALGORITHM DOCKED STATE
	_______________________________________________


Detailed state:  trans 11.976 12.873 1.727 quatxyzw 0.273837 0.737039 0.132857 -0.603436 center 8.287 34.468 -0.670 ntor 10 -112.8854 -13.8774 -19.6393 120.3412 110.5643 128.1093 102.9706 -166.7760 3.1795 -10.1499
State:	 11.976  12.873   1.727   0.343  0.924  0.167 -105.767   -112.89  -13.88  -19.64  120.34  110.56  128.11  102.97 -166.78    3.18  -10.15

DOCKED: MODEL       70
DOCKED: USER    Run = 70
DOCKED: USER    DPF = D:/Protein_go_brrr/autodock/final/mut_K82N/heme_O2/dock.dpf
DOCKED: USER  
DOCKED: USER    Estimated Free Energy of Binding    =   -4.63 kcal/mol  [=(1)+(2)+(3)-(4)]
DOCKED: USER    Estimated Inhibition Constant, Ki   =  404.82 uM (micromolar)  [Temperature = 298.15 K]
DOCKED: USER    
DOCKED: USER    (1) Final Intermolecular Energy     =   -7.61 kcal/mol
DOCKED: USER        vdW + Hbond + desolv Energy     =   -6.61 kcal/mol
DOCKED: USER        Electrostatic Energy            =   -1.00 kcal/mol
DOCKED: USER    (2) Final Total Internal Energy     =   -2.30 kcal/mol
DOCKED: USER    (3) Torsional Free Energy           =   +2.98 kcal/mol
DOCKED: USER    (4) Unbound System's Energy  [=(2)] =   -2.30 kcal/mol
DOCKED: USER    
DOCKED: USER    
DOCKED: USER    NEWDPF move heme_O2_opt.pdbqt
DOCKED: USER    NEWDPF about 8.287000 34.468000 -0.670000
DOCKED: USER    NEWDPF tran0 11.975684 12.873072 1.727211
DOCKED: USER    NEWDPF quaternion0 0.273837 0.737039 0.132857 -0.603436
DOCKED: USER    NEWDPF axisangle0 0.343408 0.924290 0.166611 -105.767252
DOCKED: USER    NEWDPF quat0 0.343408 0.924290 0.166611 -105.767252
DOCKED: USER    NEWDPF dihe0 -112.89 -13.88 -19.64 120.34 110.56 128.11 102.97 -166.78 3.18 -10.15 
DOCKED: USER  keepresnum = 1 
DOCKED: USER  
DOCKED: REMARK  10 active torsions:
DOCKED: REMARK  status: ('A' for Active; 'I' for Inactive)
DOCKED: REMARK    1  A    between atoms: C_6  and  C_10 
DOCKED: REMARK    2  A    between atoms: C_10  and  C_11 
DOCKED: REMARK    3  A    between atoms: C_11  and  C_12 
DOCKED: REMARK    4  A    between atoms: C_12  and  O_14 
DOCKED: REMARK    5  A    between atoms: C_17  and  C_20 
DOCKED: REMARK    6  A    between atoms: C_24  and  C_27 
DOCKED: REMARK    7  A    between atoms: C_31  and  C_34 
DOCKED: REMARK    8  A    between atoms: C_34  and  C_35 
DOCKED: REMARK    9  A    between atoms: C_35  and  C_36 
DOCKED: REMARK   10  A    between atoms: C_36  and  O_38 
DOCKED: USER                              x       y       z     vdW  Elec       q    Type
DOCKED: USER                           _______ _______ _______ _____ _____    ______ ____
DOCKED: ROOT
DOCKED: ATOM      1  C   UNL d   1      11.580  12.417   3.761 -0.09 +0.01    +0.064 A 
DOCKED: ATOM      2  C   UNL d   1      14.341  10.358   0.489 -0.11 -0.00    +0.064 A 
DOCKED: ATOM      3  C   UNL d   1      12.992  13.581  -2.810 -0.14 -0.02    +0.064 C 
DOCKED: ATOM      4  C   UNL d   1      10.517  15.991   0.673 -0.08 -0.01    +0.064 A 
DOCKED: ATOM      5  C   UNL d   1      12.442  11.595   3.140 -0.10 +0.00    +0.066 A 
DOCKED: ATOM      6  C   UNL d   1      13.053  10.495   3.751 -0.07 -0.00    -0.021 A 
DOCKED: ATOM      7  C   UNL d   1      13.885   9.924   2.817 -0.07 -0.00    -0.025 A 
DOCKED: ATOM      8  C   UNL d   1      13.724  10.662   1.648 -0.10 -0.00    +0.066 A 
DOCKED: ATOM      9  C   UNL d   1      14.800   8.747   3.078 -0.03 -0.00    +0.051 C 
DOCKED: ATOM     10  C   UNL d   1      14.193  11.081  -0.775 -0.16 -0.00    +0.066 A 
DOCKED: ATOM     11  C   UNL d   1      14.727  10.627  -1.987 -0.17 +0.00    -0.021 A 
DOCKED: ATOM     12  C   UNL d   1      14.334  11.534  -2.954 -0.22 -0.00    +0.000 A 
DOCKED: ATOM     13  C   UNL d   1      13.576  12.517  -2.260 -0.19 -0.02    +0.070 A 
DOCKED: ATOM     14  C   UNL d   1      15.554   9.368  -2.217 -0.12 -0.00    +0.052 C 
DOCKED: ATOM     15  C   UNL d   1      12.246  14.618  -2.138 -0.27 -0.01    +0.066 A 
DOCKED: ATOM     16  C   UNL d   1      11.800  15.791  -2.745 -0.25 +0.00    -0.021 A 
DOCKED: ATOM     17  C   UNL d   1      11.092  16.495  -1.770 -0.22 -0.00    +0.000 A 
DOCKED: ATOM     18  C   UNL d   1      11.159  15.686  -0.627 -0.24 -0.01    +0.070 A 
DOCKED: ATOM     19  C   UNL d   1      12.132  16.158  -4.169 -0.20 -0.01    +0.052 C 
DOCKED: ATOM     20  C   UNL d   1      10.598  15.259   1.802 -0.17 -0.00    +0.066 A 
DOCKED: ATOM     21  C   UNL d   1       9.956  15.589   2.993 -0.14 -0.00    -0.025 A 
DOCKED: ATOM     22  C   UNL d   1      10.226  14.567   3.875 -0.12 -0.00    -0.021 A 
DOCKED: ATOM     23  C   UNL d   1      11.040  13.658   3.193 -0.11 +0.00    +0.066 A 
DOCKED: ATOM     24  C   UNL d   1       9.131  16.817   3.275 -0.17 -0.00    +0.051 C 
DOCKED: ATOM     25  N   UNL d   1      12.885  11.730   1.866 -0.09 -0.00    -0.248 N 
DOCKED: ATOM     26  N   UNL d   1      13.499  12.236  -0.934 -0.14 +0.03    -0.248 N 
DOCKED: ATOM     27  N   UNL d   1      11.926  14.588  -0.847 -0.21 +0.04    -0.248 N 
DOCKED: ATOM     28  N   UNL d   1      11.300  14.105   1.947 -0.12 +0.00    -0.248 N 
DOCKED: ATOM     29 FE   UNL d   1      12.391  13.180   0.515 -0.05 -0.00    +0.000 Fe
DOCKED: ATOM     30  O   UNL d   1      13.872  13.241   0.990 -0.10 -0.00    +0.000 OA
DOCKED: ATOM     31  O   UNL d   1      13.060  14.576   0.790 -0.11 -0.00    +0.000 OA
DOCKED: ENDROOT
DOCKED: BRANCH   6  32
DOCKED: ATOM     32  C   UNL d   1      12.965  10.076   5.195 -0.04 +0.00    +0.052 C 
DOCKED: BRANCH  32  33
DOCKED: ATOM     33  C   UNL d   1      11.767   9.174   5.479 -0.09 +0.02    +0.115 C 
DOCKED: BRANCH  33  34
DOCKED: ATOM     34  C   UNL d   1      10.481   9.952   5.610 -0.14 +0.06    +0.139 C 
DOCKED: ATOM     35  O   UNL d   1      10.478  11.018   6.204 -0.01 -0.36    -0.650 OA
DOCKED: BRANCH  34  36
DOCKED: ATOM     36  O   UNL d   1       9.321   9.481   5.108 -0.29 -0.52    -0.776 OA
DOCKED: ATOM     37  H   UNL d   1       8.875   9.907   4.366 +0.07 +0.11    +0.167 HD
DOCKED: ENDBRANCH  34  36
DOCKED: ENDBRANCH  33  34
DOCKED: ENDBRANCH  32  33
DOCKED: ENDBRANCH   6  32
DOCKED: BRANCH  22  38
DOCKED: ATOM     38  C   UNL d   1       9.776  14.507   5.312 -0.10 +0.01    +0.052 C 
DOCKED: BRANCH  38  39
DOCKED: ATOM     39  C   UNL d   1       8.441  13.785   5.475 -0.18 +0.04    +0.115 C 
DOCKED: BRANCH  39  40
DOCKED: ATOM     40  C   UNL d   1       8.025  13.053   4.223 -0.31 +0.05    +0.139 C 
DOCKED: ATOM     41  O   UNL d   1       7.392  13.638   3.360 -0.07 -0.12    -0.650 OA
DOCKED: BRANCH  40  42
DOCKED: ATOM     42  O   UNL d   1       8.386  11.772   4.015 -0.09 -0.40    -0.776 OA
DOCKED: ATOM     43  H   UNL d   1       9.043  11.335   4.570 +0.05 +0.11    +0.167 HD
DOCKED: ENDBRANCH  40  42
DOCKED: ENDBRANCH  39  40
DOCKED: ENDBRANCH  38  39
DOCKED: ENDBRANCH  22  38
DOCKED: BRANCH  12  44
DOCKED: ATOM     44  C   UNL d   1      14.717  11.373  -4.410 -0.22 -0.00    +0.004 C 
DOCKED: ATOM     45  C   UNL d   1      14.094  11.866  -5.480 -0.28 -0.00    +0.012 C 
DOCKED: ENDBRANCH  12  44
DOCKED: BRANCH  17  46
DOCKED: ATOM     46  C   UNL d   1      10.431  17.847  -1.812 -0.23 -0.00    +0.004 C 
DOCKED: ATOM     47  C   UNL d   1       9.126  18.134  -1.732 -0.34 -0.00    +0.012 C 
DOCKED: ENDBRANCH  17  46
DOCKED: TORSDOF 10
DOCKED: TER
DOCKED: ENDMDL
________________________________________________________________________________


	BEGINNING GENETIC ALGORITHM DOCKING 71 of 100
Run: 71 Seed: 1127129998 1883939176 [ Run 71 of 100 GA/GALS ]
Beginning LAMARCKIAN GENETIC ALGORITHM (LGA), with a maximum of 25000000 energy evaluations.

Final-Value: -9.898


	FINAL GENETIC ALGORITHM DOCKED STATE
	_______________________________________________


Detailed state:  trans 12.376 4.447 19.479 quatxyzw -0.315940 -0.836087 0.147557 0.423517 center 8.287 34.468 -0.670 ntor 10 -63.9390 -161.4619 108.8417 123.1661 64.5902 -7.9889 18.5602 -61.0118 21.4986 17.9497
State:	 12.376   4.447  19.479  -0.349 -0.923  0.163 129.886    -63.94 -161.46  108.84  123.17   64.59   -7.99   18.56  -61.01   21.50   17.95

DOCKED: MODEL       71
DOCKED: USER    Run = 71
DOCKED: USER    DPF = D:/Protein_go_brrr/autodock/final/mut_K82N/heme_O2/dock.dpf
DOCKED: USER  
DOCKED: USER    Estimated Free Energy of Binding    =   -4.92 kcal/mol  [=(1)+(2)+(3)-(4)]
DOCKED: USER    Estimated Inhibition Constant, Ki   =  247.70 uM (micromolar)  [Temperature = 298.15 K]
DOCKED: USER    
DOCKED: USER    (1) Final Intermolecular Energy     =   -7.90 kcal/mol
DOCKED: USER        vdW + Hbond + desolv Energy     =   -5.84 kcal/mol
DOCKED: USER        Electrostatic Energy            =   -2.06 kcal/mol
DOCKED: USER    (2) Final Total Internal Energy     =   -2.00 kcal/mol
DOCKED: USER    (3) Torsional Free Energy           =   +2.98 kcal/mol
DOCKED: USER    (4) Unbound System's Energy  [=(2)] =   -2.00 kcal/mol
DOCKED: USER    
DOCKED: USER    
DOCKED: USER    NEWDPF move heme_O2_opt.pdbqt
DOCKED: USER    NEWDPF about 8.287000 34.468000 -0.670000
DOCKED: USER    NEWDPF tran0 12.375884 4.447247 19.479085
DOCKED: USER    NEWDPF quaternion0 -0.315940 -0.836087 0.147557 0.423517
DOCKED: USER    NEWDPF axisangle0 -0.348763 -0.922948 0.162886 129.886281
DOCKED: USER    NEWDPF quat0 -0.348763 -0.922948 0.162886 129.886281
DOCKED: USER    NEWDPF dihe0 -63.94 -161.46 108.84 123.17 64.59 -7.99 18.56 -61.01 21.50 17.95 
DOCKED: USER  keepresnum = 1 
DOCKED: USER  
DOCKED: REMARK  10 active torsions:
DOCKED: REMARK  status: ('A' for Active; 'I' for Inactive)
DOCKED: REMARK    1  A    between atoms: C_6  and  C_10 
DOCKED: REMARK    2  A    between atoms: C_10  and  C_11 
DOCKED: REMARK    3  A    between atoms: C_11  and  C_12 
DOCKED: REMARK    4  A    between atoms: C_12  and  O_14 
DOCKED: REMARK    5  A    between atoms: C_17  and  C_20 
DOCKED: REMARK    6  A    between atoms: C_24  and  C_27 
DOCKED: REMARK    7  A    between atoms: C_31  and  C_34 
DOCKED: REMARK    8  A    between atoms: C_34  and  C_35 
DOCKED: REMARK    9  A    between atoms: C_35  and  C_36 
DOCKED: REMARK   10  A    between atoms: C_36  and  O_38 
DOCKED: USER                              x       y       z     vdW  Elec       q    Type
DOCKED: USER                           _______ _______ _______ _____ _____    ______ ____
DOCKED: ROOT
DOCKED: ATOM      1  C   UNL d   1      13.103   4.560  21.469 -0.05 +0.03    +0.064 A 
DOCKED: ATOM      2  C   UNL d   1      13.082   1.063  18.254 -0.17 +0.00    +0.064 A 
DOCKED: ATOM      3  C   UNL d   1      10.798   3.864  15.087 -0.28 -0.01    +0.064 C 
DOCKED: ATOM      4  C   UNL d   1      11.238   7.619  18.212 -0.03 +0.00    +0.064 A 
DOCKED: ATOM      5  C   UNL d   1      13.285   3.381  20.852 -0.10 +0.02    +0.066 A 
DOCKED: ATOM      6  C   UNL d   1      13.897   2.274  21.446 -0.11 -0.01    -0.021 A 
DOCKED: ATOM      7  C   UNL d   1      13.931   1.274  20.502 -0.12 -0.01    -0.025 A 
DOCKED: ATOM      8  C   UNL d   1      13.295   1.783  19.373 -0.15 +0.01    +0.066 A 
DOCKED: ATOM      9  C   UNL d   1      14.577  -0.080  20.697 -0.08 +0.01    +0.051 C 
DOCKED: ATOM     10  C   UNL d   1      12.401   1.535  17.047 -0.21 -0.01    +0.066 A 
DOCKED: ATOM     11  C   UNL d   1      12.063   0.698  15.978 -0.30 +0.00    -0.021 A 
DOCKED: ATOM     12  C   UNL d   1      11.387   1.484  15.063 -0.36 -0.00    +0.000 A 
DOCKED: ATOM     13  C   UNL d   1      11.362   2.787  15.632 -0.24 -0.01    +0.070 A 
DOCKED: ATOM     14  C   UNL d   1      12.347  -0.793  15.848 -0.26 -0.01    +0.052 C 
DOCKED: ATOM     15  C   UNL d   1      10.782   5.207  15.614 -0.20 -0.01    +0.066 A 
DOCKED: ATOM     16  C   UNL d   1      10.318   6.324  14.919 -0.25 +0.00    -0.021 A 
DOCKED: ATOM     17  C   UNL d   1      10.435   7.407  15.790 -0.16 -0.00    +0.000 A 
DOCKED: ATOM     18  C   UNL d   1      10.966   6.862  16.968 -0.07 -0.00    +0.070 A 
DOCKED: ATOM     19  C   UNL d   1       9.863   6.268  13.483 -0.18 -0.00    +0.052 C 
DOCKED: ATOM     20  C   UNL d   1      11.787   7.137  19.344 -0.02 +0.01    +0.066 A 
DOCKED: ATOM     21  C   UNL d   1      12.003   7.895  20.491 -0.02 -0.00    -0.025 A 
DOCKED: ATOM     22  C   UNL d   1      12.509   7.034  21.439 -0.04 -0.00    -0.021 A 
DOCKED: ATOM     23  C   UNL d   1      12.600   5.780  20.826 -0.07 +0.02    +0.066 A 
DOCKED: ATOM     24  C   UNL d   1      11.743   9.368  20.673 -0.00 +0.00    +0.051 C 
DOCKED: ATOM     25  N   UNL d   1      12.956   3.102  19.567 -0.10 -0.05    -0.248 N 
DOCKED: ATOM     26  N   UNL d   1      11.986   2.810  16.838 -0.13 +0.01    -0.248 N 
DOCKED: ATOM     27  N   UNL d   1      11.240   5.541  16.817 -0.07 -0.00    -0.248 N 
DOCKED: ATOM     28  N   UNL d   1      12.202   5.857  19.539 -0.03 -0.04    -0.248 N 
DOCKED: ATOM     29 FE   UNL d   1      12.094   4.347  18.196 -0.03 +0.00    +0.000 Fe
DOCKED: ATOM     30  O   UNL d   1      13.563   3.960  17.857 -0.06 +0.00    +0.000 OA
DOCKED: ATOM     31  O   UNL d   1      13.066   5.434  17.607 -0.05 +0.00    +0.000 OA
DOCKED: ENDROOT
DOCKED: BRANCH   6  32
DOCKED: ATOM     32  C   UNL d   1      14.551   2.197  22.802 -0.09 +0.02    +0.052 C 
DOCKED: BRANCH  32  33
DOCKED: ATOM     33  C   UNL d   1      13.706   1.444  23.825 +0.01 +0.09    +0.115 C 
DOCKED: BRANCH  33  34
DOCKED: ATOM     34  C   UNL d   1      14.155   1.700  25.242 -0.07 +0.11    +0.139 C 
DOCKED: ATOM     35  O   UNL d   1      15.044   1.019  25.726 +0.00 -0.27    -0.650 OA
DOCKED: BRANCH  34  36
DOCKED: ATOM     36  O   UNL d   1      13.574   2.652  26.002 +0.06 -1.17    -0.776 OA
DOCKED: ATOM     37  H   UNL d   1      13.619   3.587  25.773 -0.00 +0.28    +0.167 HD
DOCKED: ENDBRANCH  34  36
DOCKED: ENDBRANCH  33  34
DOCKED: ENDBRANCH  32  33
DOCKED: ENDBRANCH   6  32
DOCKED: BRANCH  22  38
DOCKED: ATOM     38  C   UNL d   1      12.939   7.414  22.832 -0.04 +0.02    +0.052 C 
DOCKED: BRANCH  38  39
DOCKED: ATOM     39  C   UNL d   1      12.148   6.673  23.908 -0.06 +0.08    +0.115 C 
DOCKED: BRANCH  39  40
DOCKED: ATOM     40  C   UNL d   1      13.025   5.795  24.765 +0.08 +0.16    +0.139 C 
DOCKED: ATOM     41  O   UNL d   1      12.867   5.777  25.975 -0.58 -0.81    -0.650 OA
DOCKED: BRANCH  40  42
DOCKED: ATOM     42  O   UNL d   1      13.951   4.986  24.214 -0.07 -0.68    -0.776 OA
DOCKED: ATOM     43  H   UNL d   1      14.298   4.221  24.687 +0.00 +0.15    +0.167 HD
DOCKED: ENDBRANCH  40  42
DOCKED: ENDBRANCH  39  40
DOCKED: ENDBRANCH  38  39
DOCKED: ENDBRANCH  22  38
DOCKED: BRANCH  12  44
DOCKED: ATOM     44  C   UNL d   1      10.849   0.922  13.763 -0.40 -0.00    +0.004 C 
DOCKED: ATOM     45  C   UNL d   1      11.532   0.601  12.665 -0.43 -0.00    +0.012 C 
DOCKED: ENDBRANCH  12  44
DOCKED: BRANCH  17  46
DOCKED: ATOM     46  C   UNL d   1      10.151   8.872  15.590 -0.16 -0.00    +0.004 C 
DOCKED: ATOM     47  C   UNL d   1       9.237   9.631  16.207 -0.15 -0.00    +0.012 C 
DOCKED: ENDBRANCH  17  46
DOCKED: TORSDOF 10
DOCKED: TER
DOCKED: ENDMDL
________________________________________________________________________________


	BEGINNING GENETIC ALGORITHM DOCKING 72 of 100
Run: 72 Seed: 748780260 1453901838 [ Run 72 of 100 GA/GALS ]
Beginning LAMARCKIAN GENETIC ALGORITHM (LGA), with a maximum of 25000000 energy evaluations.

Final-Value: -11.065


	FINAL GENETIC ALGORITHM DOCKED STATE
	_______________________________________________


Detailed state:  trans -12.474 10.225 -1.185 quatxyzw -0.248573 -0.353362 0.570414 -0.698553 center 8.287 34.468 -0.670 ntor 10 45.3936 -62.0069 -48.3360 17.8811 -179.1506 13.5216 -9.8688 -38.8216 -134.4696 11.6874
State:	-12.474  10.225  -1.185  -0.347 -0.494  0.797 -91.378     45.39  -62.01  -48.34   17.88 -179.15   13.52   -9.87  -38.82 -134.47   11.69

DOCKED: MODEL       72
DOCKED: USER    Run = 72
DOCKED: USER    DPF = D:/Protein_go_brrr/autodock/final/mut_K82N/heme_O2/dock.dpf
DOCKED: USER  
DOCKED: USER    Estimated Free Energy of Binding    =   -6.66 kcal/mol  [=(1)+(2)+(3)-(4)]
DOCKED: USER    Estimated Inhibition Constant, Ki   =   13.19 uM (micromolar)  [Temperature = 298.15 K]
DOCKED: USER    
DOCKED: USER    (1) Final Intermolecular Energy     =   -9.64 kcal/mol
DOCKED: USER        vdW + Hbond + desolv Energy     =   -6.78 kcal/mol
DOCKED: USER        Electrostatic Energy            =   -2.86 kcal/mol
DOCKED: USER    (2) Final Total Internal Energy     =   -1.42 kcal/mol
DOCKED: USER    (3) Torsional Free Energy           =   +2.98 kcal/mol
DOCKED: USER    (4) Unbound System's Energy  [=(2)] =   -1.42 kcal/mol
DOCKED: USER    
DOCKED: USER    
DOCKED: USER    NEWDPF move heme_O2_opt.pdbqt
DOCKED: USER    NEWDPF about 8.287000 34.468000 -0.670000
DOCKED: USER    NEWDPF tran0 -12.474215 10.225500 -1.184538
DOCKED: USER    NEWDPF quaternion0 -0.248573 -0.353362 0.570414 -0.698553
DOCKED: USER    NEWDPF axisangle0 -0.347382 -0.493826 0.797158 -91.378025
DOCKED: USER    NEWDPF quat0 -0.347382 -0.493826 0.797158 -91.378025
DOCKED: USER    NEWDPF dihe0 45.39 -62.01 -48.34 17.88 -179.15 13.52 -9.87 -38.82 -134.47 11.69 
DOCKED: USER  keepresnum = 1 
DOCKED: USER  
DOCKED: REMARK  10 active torsions:
DOCKED: REMARK  status: ('A' for Active; 'I' for Inactive)
DOCKED: REMARK    1  A    between atoms: C_6  and  C_10 
DOCKED: REMARK    2  A    between atoms: C_10  and  C_11 
DOCKED: REMARK    3  A    between atoms: C_11  and  C_12 
DOCKED: REMARK    4  A    between atoms: C_12  and  O_14 
DOCKED: REMARK    5  A    between atoms: C_17  and  C_20 
DOCKED: REMARK    6  A    between atoms: C_24  and  C_27 
DOCKED: REMARK    7  A    between atoms: C_31  and  C_34 
DOCKED: REMARK    8  A    between atoms: C_34  and  C_35 
DOCKED: REMARK    9  A    between atoms: C_35  and  C_36 
DOCKED: REMARK   10  A    between atoms: C_36  and  O_38 
DOCKED: USER                              x       y       z     vdW  Elec       q    Type
DOCKED: USER                           _______ _______ _______ _____ _____    ______ ____
DOCKED: ROOT
DOCKED: ATOM      1  C   UNL d   1     -12.413   8.587  -2.531 -0.18 +0.02    +0.064 A 
DOCKED: ATOM      2  C   UNL d   1     -13.483   8.908   2.086 -0.16 +0.02    +0.064 A 
DOCKED: ATOM      3  C   UNL d   1     -12.626  13.636   2.051 -0.18 +0.01    +0.064 C 
DOCKED: ATOM      4  C   UNL d   1     -11.986  13.402  -2.807 -0.24 +0.02    +0.064 A 
DOCKED: ATOM      5  C   UNL d   1     -12.775   8.289  -1.273 -0.18 +0.01    +0.066 A 
DOCKED: ATOM      6  C   UNL d   1     -13.089   6.999  -0.833 -0.20 -0.00    -0.021 A 
DOCKED: ATOM      7  C   UNL d   1     -13.441   7.098   0.493 -0.18 -0.00    -0.025 A 
DOCKED: ATOM      8  C   UNL d   1     -13.286   8.437   0.839 -0.17 +0.01    +0.066 A 
DOCKED: ATOM      9  C   UNL d   1     -13.926   5.947   1.347 -0.16 +0.01    +0.051 C 
DOCKED: ATOM     10  C   UNL d   1     -13.314  10.297   2.515 -0.12 +0.01    +0.066 A 
DOCKED: ATOM     11  C   UNL d   1     -13.372  10.702   3.853 -0.11 -0.00    -0.021 A 
DOCKED: ATOM     12  C   UNL d   1     -13.109  12.059   3.865 -0.08 +0.00    +0.000 A 
DOCKED: ATOM     13  C   UNL d   1     -12.914  12.416   2.502 -0.10 +0.01    +0.070 A 
DOCKED: ATOM     14  C   UNL d   1     -13.639   9.825   5.071 -0.12 +0.03    +0.052 C 
DOCKED: ATOM     15  C   UNL d   1     -12.455  14.045   0.678 -0.21 +0.01    +0.066 A 
DOCKED: ATOM     16  C   UNL d   1     -12.318  15.368   0.258 -0.19 -0.00    -0.021 A 
DOCKED: ATOM     17  C   UNL d   1     -12.135  15.326  -1.124 -0.30 +0.00    +0.000 A 
DOCKED: ATOM     18  C   UNL d   1     -12.173  13.962  -1.448 -0.26 +0.01    +0.070 A 
DOCKED: ATOM     19  C   UNL d   1     -12.427  16.544   1.195 +0.04 +0.01    +0.052 C 
DOCKED: ATOM     20  C   UNL d   1     -12.059  12.104  -3.159 -0.19 +0.02    +0.066 A 
DOCKED: ATOM     21  C   UNL d   1     -11.856  11.633  -4.454 -0.16 -0.01    -0.025 A 
DOCKED: ATOM     22  C   UNL d   1     -11.947  10.261  -4.389 -0.13 -0.01    -0.021 A 
DOCKED: ATOM     23  C   UNL d   1     -12.221   9.945  -3.055 -0.15 +0.02    +0.066 A 
DOCKED: ATOM     24  C   UNL d   1     -11.592  12.452  -5.691 -0.21 +0.02    +0.051 C 
DOCKED: ATOM     25  N   UNL d   1     -12.939   9.181  -0.265 -0.07 -0.04    -0.248 N 
DOCKED: ATOM     26  N   UNL d   1     -13.045  11.338   1.687 -0.03 -0.04    -0.248 N 
DOCKED: ATOM     27  N   UNL d   1     -12.443  13.206  -0.354 -0.08 -0.04    -0.248 N 
DOCKED: ATOM     28  N   UNL d   1     -12.333  11.070  -2.320 -0.07 -0.05    -0.248 N 
DOCKED: ATOM     29 FE   UNL d   1     -12.687  11.206  -0.331 -0.04 +0.00    +0.000 Fe
DOCKED: ATOM     30  O   UNL d   1     -14.164  10.764  -0.121 -0.10 +0.00    +0.000 OA
DOCKED: ATOM     31  O   UNL d   1     -13.840  11.979  -1.069 -0.10 +0.00    +0.000 OA
DOCKED: ENDROOT
DOCKED: BRANCH   6  32
DOCKED: ATOM     32  C   UNL d   1     -13.188   5.742  -1.658 -0.19 +0.02    +0.052 C 
DOCKED: BRANCH  32  33
DOCKED: ATOM     33  C   UNL d   1     -14.070   5.911  -2.891 -0.11 +0.05    +0.115 C 
DOCKED: BRANCH  33  34
DOCKED: ATOM     34  C   UNL d   1     -13.936   4.760  -3.856 +0.03 +0.13    +0.139 C 
DOCKED: ATOM     35  O   UNL d   1     -13.666   3.647  -3.434 +0.02 -0.59    -0.650 OA
DOCKED: BRANCH  34  36
DOCKED: ATOM     36  O   UNL d   1     -14.079   4.936  -5.186 -0.28 -1.04    -0.776 OA
DOCKED: ATOM     37  H   UNL d   1     -13.657   5.667  -5.653 +0.00 +0.24    +0.167 HD
DOCKED: ENDBRANCH  34  36
DOCKED: ENDBRANCH  33  34
DOCKED: ENDBRANCH  32  33
DOCKED: ENDBRANCH   6  32
DOCKED: BRANCH  22  38
DOCKED: ATOM     38  C   UNL d   1     -11.839   9.317  -5.559 -0.11 +0.02    +0.052 C 
DOCKED: BRANCH  38  39
DOCKED: ATOM     39  C   UNL d   1     -10.596   8.434  -5.481 -0.23 +0.06    +0.115 C 
DOCKED: BRANCH  39  40
DOCKED: ATOM     40  C   UNL d   1     -10.869   7.016  -5.917 -0.18 +0.15    +0.139 C 
DOCKED: ATOM     41  O   UNL d   1      -9.947   6.310  -6.293 -0.47 -0.92    -0.650 OA
DOCKED: BRANCH  40  42
DOCKED: ATOM     42  O   UNL d   1     -12.109   6.494  -5.852 -0.20 -1.25    -0.776 OA
DOCKED: ATOM     43  H   UNL d   1     -12.588   6.435  -5.017 +0.02 +0.23    +0.167 HD
DOCKED: ENDBRANCH  40  42
DOCKED: ENDBRANCH  39  40
DOCKED: ENDBRANCH  38  39
DOCKED: ENDBRANCH  22  38
DOCKED: BRANCH  12  44
DOCKED: ATOM     44  C   UNL d   1     -13.077  12.860   5.150 -0.05 +0.00    +0.004 C 
DOCKED: ATOM     45  C   UNL d   1     -12.107  13.661   5.591 -0.07 +0.00    +0.012 C 
DOCKED: ENDBRANCH  12  44
DOCKED: BRANCH  17  46
DOCKED: ATOM     46  C   UNL d   1     -11.990  16.431  -2.136 -0.27 +0.00    +0.004 C 
DOCKED: ATOM     47  C   UNL d   1     -11.801  17.738  -1.914 -0.24 +0.00    +0.012 C 
DOCKED: ENDBRANCH  17  46
DOCKED: TORSDOF 10
DOCKED: TER
DOCKED: ENDMDL
________________________________________________________________________________


	BEGINNING GENETIC ALGORITHM DOCKING 73 of 100
Run: 73 Seed: 609897749 433761933 [ Run 73 of 100 GA/GALS ]
Beginning LAMARCKIAN GENETIC ALGORITHM (LGA), with a maximum of 25000000 energy evaluations.

Final-Value: -11.286


	FINAL GENETIC ALGORITHM DOCKED STATE
	_______________________________________________


Detailed state:  trans -10.120 10.957 -7.919 quatxyzw -0.601456 -0.090464 0.746290 -0.270403 center 8.287 34.468 -0.670 ntor 10 179.5598 96.9344 -34.9310 122.4336 -18.3947 -23.6612 -107.7554 93.1931 174.3320 -168.2951
State:	-10.120  10.957  -7.919  -0.625 -0.094  0.775 -148.624    179.56   96.93  -34.93  122.43  -18.39  -23.66 -107.76   93.19  174.33 -168.30

DOCKED: MODEL       73
DOCKED: USER    Run = 73
DOCKED: USER    DPF = D:/Protein_go_brrr/autodock/final/mut_K82N/heme_O2/dock.dpf
DOCKED: USER  
DOCKED: USER    Estimated Free Energy of Binding    =   -6.41 kcal/mol  [=(1)+(2)+(3)-(4)]
DOCKED: USER    Estimated Inhibition Constant, Ki   =   20.05 uM (micromolar)  [Temperature = 298.15 K]
DOCKED: USER    
DOCKED: USER    (1) Final Intermolecular Energy     =   -9.39 kcal/mol
DOCKED: USER        vdW + Hbond + desolv Energy     =   -6.56 kcal/mol
DOCKED: USER        Electrostatic Energy            =   -2.83 kcal/mol
DOCKED: USER    (2) Final Total Internal Energy     =   -1.89 kcal/mol
DOCKED: USER    (3) Torsional Free Energy           =   +2.98 kcal/mol
DOCKED: USER    (4) Unbound System's Energy  [=(2)] =   -1.89 kcal/mol
DOCKED: USER    
DOCKED: USER    
DOCKED: USER    NEWDPF move heme_O2_opt.pdbqt
DOCKED: USER    NEWDPF about 8.287000 34.468000 -0.670000
DOCKED: USER    NEWDPF tran0 -10.120305 10.957130 -7.918626
DOCKED: USER    NEWDPF quaternion0 -0.601456 -0.090464 0.746290 -0.270403
DOCKED: USER    NEWDPF axisangle0 -0.624729 -0.093965 0.775167 -148.623512
DOCKED: USER    NEWDPF quat0 -0.624729 -0.093965 0.775167 -148.623512
DOCKED: USER    NEWDPF dihe0 179.56 96.93 -34.93 122.43 -18.39 -23.66 -107.76 93.19 174.33 -168.30 
DOCKED: USER  keepresnum = 1 
DOCKED: USER  
DOCKED: REMARK  10 active torsions:
DOCKED: REMARK  status: ('A' for Active; 'I' for Inactive)
DOCKED: REMARK    1  A    between atoms: C_6  and  C_10 
DOCKED: REMARK    2  A    between atoms: C_10  and  C_11 
DOCKED: REMARK    3  A    between atoms: C_11  and  C_12 
DOCKED: REMARK    4  A    between atoms: C_12  and  O_14 
DOCKED: REMARK    5  A    between atoms: C_17  and  C_20 
DOCKED: REMARK    6  A    between atoms: C_24  and  C_27 
DOCKED: REMARK    7  A    between atoms: C_31  and  C_34 
DOCKED: REMARK    8  A    between atoms: C_34  and  C_35 
DOCKED: REMARK    9  A    between atoms: C_35  and  C_36 
DOCKED: REMARK   10  A    between atoms: C_36  and  O_38 
DOCKED: USER                              x       y       z     vdW  Elec       q    Type
DOCKED: USER                           _______ _______ _______ _____ _____    ______ ____
DOCKED: ROOT
DOCKED: ATOM      1  C   UNL d   1      -9.297   9.343  -6.817 -0.23 +0.02    +0.064 A 
DOCKED: ATOM      2  C   UNL d   1     -12.155  12.934  -5.594 -0.14 +0.02    +0.064 A 
DOCKED: ATOM      3  C   UNL d   1     -12.029  14.679 -10.070 -0.13 +0.03    +0.064 C 
DOCKED: ATOM      4  C   UNL d   1      -9.475  10.725 -11.453 -0.08 +0.01    +0.064 A 
DOCKED: ATOM      5  C   UNL d   1     -10.086  10.176  -6.119 -0.22 +0.02    +0.066 A 
DOCKED: ATOM      6  C   UNL d   1     -10.365  10.034  -4.757 -0.31 -0.01    -0.021 A 
DOCKED: ATOM      7  C   UNL d   1     -11.227  11.048  -4.412 -0.23 -0.01    -0.025 A 
DOCKED: ATOM      8  C   UNL d   1     -11.413  11.810  -5.562 -0.16 +0.02    +0.066 A 
DOCKED: ATOM      9  C   UNL d   1     -11.846  11.229  -3.043 -0.23 +0.01    +0.051 C 
DOCKED: ATOM     10  C   UNL d   1     -12.369  13.787  -6.764 -0.13 +0.03    +0.066 A 
DOCKED: ATOM     11  C   UNL d   1     -13.012  15.028  -6.704 -0.09 -0.01    -0.021 A 
DOCKED: ATOM     12  C   UNL d   1     -12.970  15.555  -7.982 -0.10 +0.00    +0.000 A 
DOCKED: ATOM     13  C   UNL d   1     -12.299  14.578  -8.769 -0.13 +0.04    +0.070 A 
DOCKED: ATOM     14  C   UNL d   1     -13.618  15.695  -5.475 -0.10 +0.03    +0.052 C 
DOCKED: ATOM     15  C   UNL d   1     -11.383  13.699 -10.909 -0.09 +0.02    +0.066 A 
DOCKED: ATOM     16  C   UNL d   1     -11.276  13.793 -12.297 -0.07 -0.00    -0.021 A 
DOCKED: ATOM     17  C   UNL d   1     -10.553  12.676 -12.713 -0.07 +0.00    +0.000 A 
DOCKED: ATOM     18  C   UNL d   1     -10.267  11.976 -11.533 -0.00 +0.02    +0.070 A 
DOCKED: ATOM     19  C   UNL d   1     -11.915  14.900 -13.097 -0.04 +0.01    +0.052 C 
DOCKED: ATOM     20  C   UNL d   1      -9.219  10.005 -10.344 -0.11 +0.01    +0.066 A 
DOCKED: ATOM     21  C   UNL d   1      -8.452   8.843 -10.327 -0.12 -0.00    -0.025 A 
DOCKED: ATOM     22  C   UNL d   1      -8.368   8.450  -9.010 -0.18 -0.00    -0.021 A 
DOCKED: ATOM     23  C   UNL d   1      -9.105   9.381  -8.271 -0.18 +0.01    +0.066 A 
DOCKED: ATOM     24  C   UNL d   1      -7.834   8.142 -11.509 -0.14 +0.00    +0.051 C 
DOCKED: ATOM     25  N   UNL d   1     -10.762  11.235  -6.629 -0.09 -0.07    -0.248 N 
DOCKED: ATOM     26  N   UNL d   1     -11.941  13.504  -8.021 -0.09 -0.12    -0.248 N 
DOCKED: ATOM     27  N   UNL d   1     -10.842  12.571 -10.457 -0.08 -0.08    -0.248 N 
DOCKED: ATOM     28  N   UNL d   1      -9.658  10.298  -9.091 -0.08 -0.06    -0.248 N 
DOCKED: ATOM     29 FE   UNL d   1     -10.791  11.890  -8.563 -0.03 +0.00    +0.000 Fe
DOCKED: ATOM     30  O   UNL d   1     -12.152  11.312  -8.075 -0.06 +0.00    +0.000 OA
DOCKED: ATOM     31  O   UNL d   1     -11.650  11.001  -9.535 -0.06 +0.00    +0.000 OA
DOCKED: ENDROOT
DOCKED: BRANCH   6  32
DOCKED: ATOM     32  C   UNL d   1      -9.949   8.911  -3.842 -0.40 +0.02    +0.052 C 
DOCKED: BRANCH  32  33
DOCKED: ATOM     33  C   UNL d   1     -11.075   7.917  -3.575 -0.33 +0.05    +0.115 C 
DOCKED: BRANCH  33  34
DOCKED: ATOM     34  C   UNL d   1     -11.414   7.091  -4.791 -0.14 +0.13    +0.139 C 
DOCKED: ATOM     35  O   UNL d   1     -12.418   6.396  -4.787 -0.38 -0.90    -0.650 OA
DOCKED: BRANCH  34  36
DOCKED: ATOM     36  O   UNL d   1     -10.616   7.079  -5.878 -0.19 -0.81    -0.776 OA
DOCKED: ATOM     37  H   UNL d   1     -10.823   6.552  -6.659 +0.03 +0.23    +0.167 HD
DOCKED: ENDBRANCH  34  36
DOCKED: ENDBRANCH  33  34
DOCKED: ENDBRANCH  32  33
DOCKED: ENDBRANCH   6  32
DOCKED: BRANCH  22  38
DOCKED: ATOM     38  C   UNL d   1      -7.671   7.214  -8.506 -0.21 +0.01    +0.052 C 
DOCKED: BRANCH  38  39
DOCKED: ATOM     39  C   UNL d   1      -8.351   5.930  -8.975 -0.20 +0.04    +0.115 C 
DOCKED: BRANCH  39  40
DOCKED: ATOM     40  C   UNL d   1      -9.446   5.482  -8.039 -0.16 +0.13    +0.139 C 
DOCKED: ATOM     41  O   UNL d   1     -10.588   5.366  -8.454 -0.10 -0.70    -0.650 OA
DOCKED: BRANCH  40  42
DOCKED: ATOM     42  O   UNL d   1      -9.178   5.159  -6.759 -0.45 -1.25    -0.776 OA
DOCKED: ATOM     43  H   UNL d   1      -9.337   5.779  -6.038 +0.03 +0.24    +0.167 HD
DOCKED: ENDBRANCH  40  42
DOCKED: ENDBRANCH  39  40
DOCKED: ENDBRANCH  38  39
DOCKED: ENDBRANCH  22  38
DOCKED: BRANCH  12  44
DOCKED: ATOM     44  C   UNL d   1     -13.566  16.907  -8.314 -0.08 +0.00    +0.004 C 
DOCKED: ATOM     45  C   UNL d   1     -13.076  17.840  -9.129 -0.08 +0.01    +0.012 C 
DOCKED: ENDBRANCH  12  44
DOCKED: BRANCH  17  46
DOCKED: ATOM     46  C   UNL d   1     -10.173  12.202 -14.091 -0.05 +0.00    +0.004 C 
DOCKED: ATOM     47  C   UNL d   1      -8.947  12.082 -14.617 -0.06 +0.00    +0.012 C 
DOCKED: ENDBRANCH  17  46
DOCKED: TORSDOF 10
DOCKED: TER
DOCKED: ENDMDL
________________________________________________________________________________


	BEGINNING GENETIC ALGORITHM DOCKING 74 of 100
Run: 74 Seed: 642696057 705729830 [ Run 74 of 100 GA/GALS ]
Beginning LAMARCKIAN GENETIC ALGORITHM (LGA), with a maximum of 25000000 energy evaluations.

Final-Value: -10.256


	FINAL GENETIC ALGORITHM DOCKED STATE
	_______________________________________________


Detailed state:  trans 11.960 2.883 16.913 quatxyzw -0.813287 0.264987 0.517627 -0.020215 center 8.287 34.468 -0.670 ntor 10 32.7182 141.3738 88.8194 68.9224 -124.1489 -67.5939 151.4986 -93.1533 17.3693 -14.5273
State:	 11.960   2.883  16.913  -0.813  0.265  0.518 -177.683     32.72  141.37   88.82   68.92 -124.15  -67.59  151.50  -93.15   17.37  -14.53

DOCKED: MODEL       74
DOCKED: USER    Run = 74
DOCKED: USER    DPF = D:/Protein_go_brrr/autodock/final/mut_K82N/heme_O2/dock.dpf
DOCKED: USER  
DOCKED: USER    Estimated Free Energy of Binding    =   -5.10 kcal/mol  [=(1)+(2)+(3)-(4)]
DOCKED: USER    Estimated Inhibition Constant, Ki   =  183.97 uM (micromolar)  [Temperature = 298.15 K]
DOCKED: USER    
DOCKED: USER    (1) Final Intermolecular Energy     =   -8.08 kcal/mol
DOCKED: USER        vdW + Hbond + desolv Energy     =   -7.47 kcal/mol
DOCKED: USER        Electrostatic Energy            =   -0.61 kcal/mol
DOCKED: USER    (2) Final Total Internal Energy     =   -2.18 kcal/mol
DOCKED: USER    (3) Torsional Free Energy           =   +2.98 kcal/mol
DOCKED: USER    (4) Unbound System's Energy  [=(2)] =   -2.18 kcal/mol
DOCKED: USER    
DOCKED: USER    
DOCKED: USER    NEWDPF move heme_O2_opt.pdbqt
DOCKED: USER    NEWDPF about 8.287000 34.468000 -0.670000
DOCKED: USER    NEWDPF tran0 11.959652 2.882712 16.912825
DOCKED: USER    NEWDPF quaternion0 -0.813287 0.264987 0.517627 -0.020215
DOCKED: USER    NEWDPF axisangle0 -0.813453 0.265041 0.517732 -177.683408
DOCKED: USER    NEWDPF quat0 -0.813453 0.265041 0.517732 -177.683408
DOCKED: USER    NEWDPF dihe0 32.72 141.37 88.82 68.92 -124.15 -67.59 151.50 -93.15 17.37 -14.53 
DOCKED: USER  keepresnum = 1 
DOCKED: USER  
DOCKED: REMARK  10 active torsions:
DOCKED: REMARK  status: ('A' for Active; 'I' for Inactive)
DOCKED: REMARK    1  A    between atoms: C_6  and  C_10 
DOCKED: REMARK    2  A    between atoms: C_10  and  C_11 
DOCKED: REMARK    3  A    between atoms: C_11  and  C_12 
DOCKED: REMARK    4  A    between atoms: C_12  and  O_14 
DOCKED: REMARK    5  A    between atoms: C_17  and  C_20 
DOCKED: REMARK    6  A    between atoms: C_24  and  C_27 
DOCKED: REMARK    7  A    between atoms: C_31  and  C_34 
DOCKED: REMARK    8  A    between atoms: C_34  and  C_35 
DOCKED: REMARK    9  A    between atoms: C_35  and  C_36 
DOCKED: REMARK   10  A    between atoms: C_36  and  O_38 
DOCKED: USER                              x       y       z     vdW  Elec       q    Type
DOCKED: USER                           _______ _______ _______ _____ _____    ______ ____
DOCKED: ROOT
DOCKED: ATOM      1  C   UNL d   1      11.747   2.887  19.023 -0.18 +0.01    +0.064 A 
DOCKED: ATOM      2  C   UNL d   1      10.279   5.886  15.646 -0.22 -0.01    +0.064 A 
DOCKED: ATOM      3  C   UNL d   1      12.330   3.193  12.234 -0.16 -0.00    +0.064 C 
DOCKED: ATOM      4  C   UNL d   1      13.436  -0.148  15.651 -0.21 -0.01    +0.064 A 
DOCKED: ATOM      5  C   UNL d   1      11.179   3.921  18.383 -0.16 +0.01    +0.066 A 
DOCKED: ATOM      6  C   UNL d   1      10.494   4.958  19.023 -0.18 -0.00    -0.021 A 
DOCKED: ATOM      7  C   UNL d   1      10.031   5.804  18.043 -0.12 -0.00    -0.025 A 
DOCKED: ATOM      8  C   UNL d   1      10.487   5.287  16.834 -0.15 +0.00    +0.066 A 
DOCKED: ATOM      9  C   UNL d   1       9.170   7.024  18.288 -0.14 -0.00    +0.051 C 
DOCKED: ATOM     10  C   UNL d   1      10.752   5.403  14.347 -0.21 -0.01    +0.066 A 
DOCKED: ATOM     11  C   UNL d   1      10.649   6.146  13.166 -0.26 +0.00    -0.021 A 
DOCKED: ATOM     12  C   UNL d   1      11.251   5.395  12.174 -0.22 -0.00    +0.000 A 
DOCKED: ATOM     13  C   UNL d   1      11.686   4.203  12.819 -0.15 -0.00    +0.070 A 
DOCKED: ATOM     14  C   UNL d   1      10.027   7.528  12.996 -0.23 +0.00    +0.052 C 
DOCKED: ATOM     15  C   UNL d   1      12.756   1.956  12.843 -0.15 -0.01    +0.066 A 
DOCKED: ATOM     16  C   UNL d   1      13.279   0.869  12.143 -0.19 +0.00    -0.021 A 
DOCKED: ATOM     17  C   UNL d   1      13.601  -0.096  13.096 -0.24 -0.00    +0.000 A 
DOCKED: ATOM     18  C   UNL d   1      13.247   0.483  14.323 -0.18 -0.01    +0.070 A 
DOCKED: ATOM     19  C   UNL d   1      13.372   0.828  10.638 +0.03 -0.01    +0.052 C 
DOCKED: ATOM     20  C   UNL d   1      13.069   0.360  16.843 -0.20 -0.00    +0.066 A 
DOCKED: ATOM     21  C   UNL d   1      13.290  -0.273  18.063 -0.20 -0.00    -0.025 A 
DOCKED: ATOM     22  C   UNL d   1      12.839   0.589  19.037 -0.22 -0.00    -0.021 A 
DOCKED: ATOM     23  C   UNL d   1      12.342   1.714  18.372 -0.23 +0.00    +0.066 A 
DOCKED: ATOM     24  C   UNL d   1      13.896  -1.634  18.288 -0.21 +0.00    +0.051 C 
DOCKED: ATOM     25  N   UNL d   1      11.138   4.092  17.039 -0.13 -0.00    -0.248 N 
DOCKED: ATOM     26  N   UNL d   1      11.374   4.215  14.139 -0.13 +0.03    -0.248 N 
DOCKED: ATOM     27  N   UNL d   1      12.667   1.697  14.144 -0.08 +0.03    -0.248 N 
DOCKED: ATOM     28  N   UNL d   1      12.443   1.551  17.037 -0.13 +0.02    -0.248 N 
DOCKED: ATOM     29 FE   UNL d   1      11.913   2.871  15.597 -0.04 -0.00    +0.000 Fe
DOCKED: ATOM     30  O   UNL d   1      10.358   2.924  15.606 -0.39 -0.00    +0.000 OA
DOCKED: ATOM     31  O   UNL d   1      11.091   1.553  15.353 -0.45 -0.00    +0.000 OA
DOCKED: ENDROOT
DOCKED: BRANCH   6  32
DOCKED: ATOM     32  C   UNL d   1      10.166   5.080  20.489 -0.19 +0.02    +0.052 C 
DOCKED: BRANCH  32  33
DOCKED: ATOM     33  C   UNL d   1      11.104   6.029  21.229 -0.11 +0.04    +0.115 C 
DOCKED: BRANCH  33  34
DOCKED: ATOM     34  C   UNL d   1      12.489   6.052  20.630 -0.06 +0.03    +0.139 C 
DOCKED: ATOM     35  O   UNL d   1      12.725   6.786  19.683 +0.02 -0.07    -0.650 OA
DOCKED: BRANCH  34  36
DOCKED: ATOM     36  O   UNL d   1      13.471   5.256  21.100 +0.01 -0.23    -0.776 OA
DOCKED: ATOM     37  H   UNL d   1      13.291   4.378  21.455 +0.02 +0.08    +0.167 HD
DOCKED: ENDBRANCH  34  36
DOCKED: ENDBRANCH  33  34
DOCKED: ENDBRANCH  32  33
DOCKED: ENDBRANCH   6  32
DOCKED: BRANCH  22  38
DOCKED: ATOM     38  C   UNL d   1      12.831   0.314  20.519 -0.19 +0.01    +0.052 C 
DOCKED: BRANCH  38  39
DOCKED: ATOM     39  C   UNL d   1      14.145   0.705  21.191 -0.11 +0.03    +0.115 C 
DOCKED: BRANCH  39  40
DOCKED: ATOM     40  C   UNL d   1      14.179   2.160  21.586 -0.10 +0.05    +0.139 C 
DOCKED: ATOM     41  O   UNL d   1      13.574   2.533  22.578 +0.05 -0.46    -0.650 OA
DOCKED: BRANCH  40  42
DOCKED: ATOM     42  O   UNL d   1      14.910   3.053  20.892 +0.02 -0.16    -0.776 OA
DOCKED: ATOM     43  H   UNL d   1      14.606   3.958  20.756 +0.02 +0.04    +0.167 HD
DOCKED: ENDBRANCH  40  42
DOCKED: ENDBRANCH  39  40
DOCKED: ENDBRANCH  38  39
DOCKED: ENDBRANCH  22  38
DOCKED: BRANCH  12  44
DOCKED: ATOM     44  C   UNL d   1      11.344   5.879  10.743 -0.24 -0.00    +0.004 C 
DOCKED: ATOM     45  C   UNL d   1      10.524   5.602   9.729 -0.35 -0.00    +0.012 C 
DOCKED: ENDBRANCH  12  44
DOCKED: BRANCH  17  46
DOCKED: ATOM     46  C   UNL d   1      14.141  -1.493  12.945 -0.30 -0.00    +0.004 C 
DOCKED: ATOM     47  C   UNL d   1      15.311  -1.877  12.418 -0.24 -0.00    +0.012 C 
DOCKED: ENDBRANCH  17  46
DOCKED: TORSDOF 10
DOCKED: TER
DOCKED: ENDMDL
________________________________________________________________________________


	BEGINNING GENETIC ALGORITHM DOCKING 75 of 100
Run: 75 Seed: 941030390 1687214839 [ Run 75 of 100 GA/GALS ]
Beginning LAMARCKIAN GENETIC ALGORITHM (LGA), with a maximum of 25000000 energy evaluations.

Final-Value: -11.756


	FINAL GENETIC ALGORITHM DOCKED STATE
	_______________________________________________


Detailed state:  trans -7.686 10.214 -12.388 quatxyzw -0.179664 -0.500324 -0.180374 0.827564 center 8.287 34.468 -0.670 ntor 10 -46.1695 122.2019 35.7834 -106.4369 28.5467 -105.7998 -59.7803 -99.0995 27.9737 164.9759
State:	 -7.686  10.214 -12.388  -0.320 -0.891 -0.321 68.301    -46.17  122.20   35.78 -106.44   28.55 -105.80  -59.78  -99.10   27.97  164.98

DOCKED: MODEL       75
DOCKED: USER    Run = 75
DOCKED: USER    DPF = D:/Protein_go_brrr/autodock/final/mut_K82N/heme_O2/dock.dpf
DOCKED: USER  
DOCKED: USER    Estimated Free Energy of Binding    =   -8.01 kcal/mol  [=(1)+(2)+(3)-(4)]
DOCKED: USER    Estimated Inhibition Constant, Ki   =    1.34 uM (micromolar)  [Temperature = 298.15 K]
DOCKED: USER    
DOCKED: USER    (1) Final Intermolecular Energy     =  -11.00 kcal/mol
DOCKED: USER        vdW + Hbond + desolv Energy     =   -8.47 kcal/mol
DOCKED: USER        Electrostatic Energy            =   -2.52 kcal/mol
DOCKED: USER    (2) Final Total Internal Energy     =   -0.76 kcal/mol
DOCKED: USER    (3) Torsional Free Energy           =   +2.98 kcal/mol
DOCKED: USER    (4) Unbound System's Energy  [=(2)] =   -0.76 kcal/mol
DOCKED: USER    
DOCKED: USER    
DOCKED: USER    NEWDPF move heme_O2_opt.pdbqt
DOCKED: USER    NEWDPF about 8.287000 34.468000 -0.670000
DOCKED: USER    NEWDPF tran0 -7.685926 10.214111 -12.387947
DOCKED: USER    NEWDPF quaternion0 -0.179664 -0.500324 -0.180374 0.827564
DOCKED: USER    NEWDPF axisangle0 -0.320044 -0.891253 -0.321310 68.301378
DOCKED: USER    NEWDPF quat0 -0.320044 -0.891253 -0.321310 68.301378
DOCKED: USER    NEWDPF dihe0 -46.17 122.20 35.78 -106.44 28.55 -105.80 -59.78 -99.10 27.97 164.98 
DOCKED: USER  keepresnum = 1 
DOCKED: USER  
DOCKED: REMARK  10 active torsions:
DOCKED: REMARK  status: ('A' for Active; 'I' for Inactive)
DOCKED: REMARK    1  A    between atoms: C_6  and  C_10 
DOCKED: REMARK    2  A    between atoms: C_10  and  C_11 
DOCKED: REMARK    3  A    between atoms: C_11  and  C_12 
DOCKED: REMARK    4  A    between atoms: C_12  and  O_14 
DOCKED: REMARK    5  A    between atoms: C_17  and  C_20 
DOCKED: REMARK    6  A    between atoms: C_24  and  C_27 
DOCKED: REMARK    7  A    between atoms: C_31  and  C_34 
DOCKED: REMARK    8  A    between atoms: C_34  and  C_35 
DOCKED: REMARK    9  A    between atoms: C_35  and  C_36 
DOCKED: REMARK   10  A    between atoms: C_36  and  O_38 
DOCKED: USER                              x       y       z     vdW  Elec       q    Type
DOCKED: USER                           _______ _______ _______ _____ _____    ______ ____
DOCKED: ROOT
DOCKED: ATOM      1  C   UNL d   1      -9.284   9.937 -11.021 -0.08 +0.01    +0.064 A 
DOCKED: ATOM      2  C   UNL d   1      -5.140   7.692 -11.609 -0.19 -0.01    +0.064 A 
DOCKED: ATOM      3  C   UNL d   1      -4.025  10.529 -15.325 -0.21 -0.02    +0.064 C 
DOCKED: ATOM      4  C   UNL d   1      -8.070  13.156 -14.428 -0.09 +0.00    +0.064 A 
DOCKED: ATOM      5  C   UNL d   1      -8.247   9.096 -10.876 -0.12 +0.01    +0.066 A 
DOCKED: ATOM      6  C   UNL d   1      -8.187   8.086  -9.912 -0.15 -0.00    -0.021 A 
DOCKED: ATOM      7  C   UNL d   1      -6.969   7.463 -10.054 -0.23 -0.00    -0.025 A 
DOCKED: ATOM      8  C   UNL d   1      -6.338   8.079 -11.132 -0.19 -0.00    +0.066 A 
DOCKED: ATOM      9  C   UNL d   1      -6.454   6.355  -9.161 -0.32 +0.01    +0.051 C 
DOCKED: ATOM     10  C   UNL d   1      -4.440   8.284 -12.750 -0.25 -0.01    +0.066 A 
DOCKED: ATOM     11  C   UNL d   1      -3.276   7.740 -13.305 -0.48 +0.00    -0.021 A 
DOCKED: ATOM     12  C   UNL d   1      -2.949   8.534 -14.389 -0.44 -0.00    +0.000 A 
DOCKED: ATOM     13  C   UNL d   1      -3.947   9.547 -14.427 -0.27 -0.02    +0.070 A 
DOCKED: ATOM     14  C   UNL d   1      -2.523   6.500 -12.838 -0.27 -0.01    +0.052 C 
DOCKED: ATOM     15  C   UNL d   1      -4.998  11.593 -15.377 -0.13 -0.02    +0.066 A 
DOCKED: ATOM     16  C   UNL d   1      -4.931  12.684 -16.242 -0.13 +0.01    -0.021 A 
DOCKED: ATOM     17  C   UNL d   1      -6.074  13.448 -16.004 -0.12 -0.00    +0.000 A 
DOCKED: ATOM     18  C   UNL d   1      -6.763  12.755 -14.999 -0.11 -0.01    +0.070 A 
DOCKED: ATOM     19  C   UNL d   1      -3.768  12.928 -17.171 -0.05 -0.05    +0.052 C 
DOCKED: ATOM     20  C   UNL d   1      -8.737  12.538 -13.433 -0.02 +0.01    +0.066 A 
DOCKED: ATOM     21  C   UNL d   1      -9.975  12.952 -12.949 -0.00 -0.01    -0.025 A 
DOCKED: ATOM     22  C   UNL d   1     -10.349  12.031 -11.997 -0.05 -0.01    -0.021 A 
DOCKED: ATOM     23  C   UNL d   1      -9.313  11.095 -11.922 -0.04 +0.02    +0.066 A 
DOCKED: ATOM     24  C   UNL d   1     -10.759  14.168 -13.371 -0.06 +0.01    +0.051 C 
DOCKED: ATOM     25  N   UNL d   1      -7.098   9.128 -11.596 -0.10 +0.00    -0.248 N 
DOCKED: ATOM     26  N   UNL d   1      -4.847   9.390 -13.423 -0.16 +0.06    -0.248 N 
DOCKED: ATOM     27  N   UNL d   1      -6.059  11.673 -14.578 -0.07 +0.05    -0.248 N 
DOCKED: ATOM     28  N   UNL d   1      -8.315  11.432 -12.765 -0.07 -0.03    -0.248 N 
DOCKED: ATOM     29 FE   UNL d   1      -6.593  10.421 -13.093 -0.04 -0.00    +0.000 Fe
DOCKED: ATOM     30  O   UNL d   1      -5.738  10.588 -11.804 -0.39 -0.00    +0.000 OA
DOCKED: ATOM     31  O   UNL d   1      -6.206  11.863 -12.601 -0.46 -0.00    +0.000 OA
DOCKED: ENDROOT
DOCKED: BRANCH   6  32
DOCKED: ATOM     32  C   UNL d   1      -9.174   7.802  -8.810 -0.15 +0.02    +0.052 C 
DOCKED: BRANCH  32  33
DOCKED: ATOM     33  C   UNL d   1      -9.923   6.488  -9.009 -0.11 +0.06    +0.115 C 
DOCKED: BRANCH  33  34
DOCKED: ATOM     34  C   UNL d   1      -9.661   5.502  -7.898 -0.10 +0.15    +0.139 C 
DOCKED: ATOM     35  O   UNL d   1      -9.201   4.403  -8.163 -0.23 -0.63    -0.650 OA
DOCKED: BRANCH  34  36
DOCKED: ATOM     36  O   UNL d   1      -9.949   5.796  -6.614 -0.37 -1.49    -0.776 OA
DOCKED: ATOM     37  H   UNL d   1      -9.710   6.642  -6.217 +0.04 +0.19    +0.167 HD
DOCKED: ENDBRANCH  34  36
DOCKED: ENDBRANCH  33  34
DOCKED: ENDBRANCH  32  33
DOCKED: ENDBRANCH   6  32
DOCKED: BRANCH  22  38
DOCKED: ATOM     38  C   UNL d   1     -11.603  12.090 -11.163 -0.06 +0.01    +0.052 C 
DOCKED: BRANCH  38  39
DOCKED: ATOM     39  C   UNL d   1     -11.380  12.790  -9.824 -0.11 +0.04    +0.115 C 
DOCKED: BRANCH  39  40
DOCKED: ATOM     40  C   UNL d   1     -11.383  14.292  -9.952 -0.17 +0.07    +0.139 C 
DOCKED: ATOM     41  O   UNL d   1     -12.171  14.835 -10.710 +0.01 -0.24    -0.650 OA
DOCKED: BRANCH  40  42
DOCKED: ATOM     42  O   UNL d   1     -10.564  15.056  -9.203 -0.50 -0.85    -0.776 OA
DOCKED: ATOM     43  H   UNL d   1      -9.957  15.690  -9.605 -0.46 +0.20    +0.167 HD
DOCKED: ENDBRANCH  40  42
DOCKED: ENDBRANCH  39  40
DOCKED: ENDBRANCH  38  39
DOCKED: ENDBRANCH  22  38
DOCKED: BRANCH  12  44
DOCKED: ATOM     44  C   UNL d   1      -1.740   8.252 -15.257 -0.37 -0.00    +0.004 C 
DOCKED: ATOM     45  C   UNL d   1      -0.978   9.128 -15.909 -0.41 -0.00    +0.012 C 
DOCKED: ENDBRANCH  12  44
DOCKED: BRANCH  17  46
DOCKED: ATOM     46  C   UNL d   1      -6.524  14.762 -16.586 -0.10 -0.00    +0.004 C 
DOCKED: ATOM     47  C   UNL d   1      -6.649  15.942 -15.966 -0.14 -0.00    +0.012 C 
DOCKED: ENDBRANCH  17  46
DOCKED: TORSDOF 10
DOCKED: TER
DOCKED: ENDMDL
________________________________________________________________________________


	BEGINNING GENETIC ALGORITHM DOCKING 76 of 100
Run: 76 Seed: 1384890787 2099901880 [ Run 76 of 100 GA/GALS ]
Beginning LAMARCKIAN GENETIC ALGORITHM (LGA), with a maximum of 25000000 energy evaluations.

Final-Value: -9.101


	FINAL GENETIC ALGORITHM DOCKED STATE
	_______________________________________________


Detailed state:  trans -8.760 -11.929 7.678 quatxyzw -0.390807 -0.088998 -0.470717 0.785986 center 8.287 34.468 -0.670 ntor 10 -10.3190 -12.2916 -7.7553 128.1529 54.9627 165.0852 -138.2123 59.0909 169.4945 132.2667
State:	 -8.760 -11.929   7.678  -0.632 -0.144 -0.761 76.376    -10.32  -12.29   -7.76  128.15   54.96  165.09 -138.21   59.09  169.49  132.27

DOCKED: MODEL       76
DOCKED: USER    Run = 76
DOCKED: USER    DPF = D:/Protein_go_brrr/autodock/final/mut_K82N/heme_O2/dock.dpf
DOCKED: USER  
DOCKED: USER    Estimated Free Energy of Binding    =   -4.12 kcal/mol  [=(1)+(2)+(3)-(4)]
DOCKED: USER    Estimated Inhibition Constant, Ki   =  961.62 uM (micromolar)  [Temperature = 298.15 K]
DOCKED: USER    
DOCKED: USER    (1) Final Intermolecular Energy     =   -7.10 kcal/mol
DOCKED: USER        vdW + Hbond + desolv Energy     =   -7.27 kcal/mol
DOCKED: USER        Electrostatic Energy            =   +0.17 kcal/mol
DOCKED: USER    (2) Final Total Internal Energy     =   -2.00 kcal/mol
DOCKED: USER    (3) Torsional Free Energy           =   +2.98 kcal/mol
DOCKED: USER    (4) Unbound System's Energy  [=(2)] =   -2.00 kcal/mol
DOCKED: USER    
DOCKED: USER    
DOCKED: USER    NEWDPF move heme_O2_opt.pdbqt
DOCKED: USER    NEWDPF about 8.287000 34.468000 -0.670000
DOCKED: USER    NEWDPF tran0 -8.759558 -11.928654 7.678047
DOCKED: USER    NEWDPF quaternion0 -0.390807 -0.088998 -0.470717 0.785986
DOCKED: USER    NEWDPF axisangle0 -0.632124 -0.143954 -0.761378 76.376018
DOCKED: USER    NEWDPF quat0 -0.632124 -0.143954 -0.761378 76.376018
DOCKED: USER    NEWDPF dihe0 -10.32 -12.29 -7.76 128.15 54.96 165.09 -138.21 59.09 169.49 132.27 
DOCKED: USER  keepresnum = 1 
DOCKED: USER  
DOCKED: REMARK  10 active torsions:
DOCKED: REMARK  status: ('A' for Active; 'I' for Inactive)
DOCKED: REMARK    1  A    between atoms: C_6  and  C_10 
DOCKED: REMARK    2  A    between atoms: C_10  and  C_11 
DOCKED: REMARK    3  A    between atoms: C_11  and  C_12 
DOCKED: REMARK    4  A    between atoms: C_12  and  O_14 
DOCKED: REMARK    5  A    between atoms: C_17  and  C_20 
DOCKED: REMARK    6  A    between atoms: C_24  and  C_27 
DOCKED: REMARK    7  A    between atoms: C_31  and  C_34 
DOCKED: REMARK    8  A    between atoms: C_34  and  C_35 
DOCKED: REMARK    9  A    between atoms: C_35  and  C_36 
DOCKED: REMARK   10  A    between atoms: C_36  and  O_38 
DOCKED: USER                              x       y       z     vdW  Elec       q    Type
DOCKED: USER                           _______ _______ _______ _____ _____    ______ ____
DOCKED: ROOT
DOCKED: ATOM      1  C   UNL d   1     -10.581 -12.867   7.129 -0.12 -0.01    +0.064 A 
DOCKED: ATOM      2  C   UNL d   1      -6.235 -14.568   8.009 -0.12 -0.01    +0.064 A 
DOCKED: ATOM      3  C   UNL d   1      -4.564 -10.136   8.821 -0.43 -0.02    +0.064 C 
DOCKED: ATOM      4  C   UNL d   1      -9.139  -8.419   8.386 -0.13 -0.01    +0.064 A 
DOCKED: ATOM      5  C   UNL d   1      -9.536 -13.691   7.304 -0.11 -0.01    +0.066 A 
DOCKED: ATOM      6  C   UNL d   1      -9.595 -15.078   7.136 -0.07 +0.00    -0.021 A 
DOCKED: ATOM      7  C   UNL d   1      -8.348 -15.576   7.432 -0.06 +0.00    -0.025 A 
DOCKED: ATOM      8  C   UNL d   1      -7.549 -14.475   7.727 -0.11 -0.01    +0.066 A 
DOCKED: ATOM      9  C   UNL d   1      -7.985 -17.044   7.452 -0.02 -0.01    +0.051 C 
DOCKED: ATOM     10  C   UNL d   1      -5.340 -13.448   8.303 -0.21 -0.01    +0.066 A 
DOCKED: ATOM     11  C   UNL d   1      -3.953 -13.583   8.428 -0.29 +0.00    -0.021 A 
DOCKED: ATOM     12  C   UNL d   1      -3.451 -12.313   8.645 -0.36 -0.00    +0.000 A 
DOCKED: ATOM     13  C   UNL d   1      -4.587 -11.457   8.652 -0.23 -0.02    +0.070 A 
DOCKED: ATOM     14  C   UNL d   1      -3.137 -14.867   8.318 -0.28 +0.01    +0.052 C 
DOCKED: ATOM     15  C   UNL d   1      -5.694  -9.239   8.870 -0.38 -0.01    +0.066 A 
DOCKED: ATOM     16  C   UNL d   1      -5.617  -7.889   9.214 -0.45 +0.00    -0.021 A 
DOCKED: ATOM     17  C   UNL d   1      -6.910  -7.379   9.098 -0.34 -0.00    +0.000 A 
DOCKED: ATOM     18  C   UNL d   1      -7.688  -8.470   8.685 -0.23 -0.01    +0.070 A 
DOCKED: ATOM     19  C   UNL d   1      -4.341  -7.228   9.671 -0.51 -0.00    +0.052 C 
DOCKED: ATOM     20  C   UNL d   1      -9.924  -9.455   8.030 +0.01 -0.01    +0.066 A 
DOCKED: ATOM     21  C   UNL d   1     -11.282  -9.343   7.744 -0.07 +0.00    -0.025 A 
DOCKED: ATOM     22  C   UNL d   1     -11.703 -10.595   7.358 -0.07 +0.00    -0.021 A 
DOCKED: ATOM     23  C   UNL d   1     -10.587 -11.432   7.439 -0.06 -0.01    +0.066 A 
DOCKED: ATOM     24  C   UNL d   1     -12.134  -8.104   7.839 -0.04 -0.01    +0.051 C 
DOCKED: ATOM     25  N   UNL d   1      -8.297 -13.321   7.711 -0.11 +0.05    -0.248 N 
DOCKED: ATOM     26  N   UNL d   1      -5.732 -12.156   8.448 -0.19 +0.05    -0.248 N 
DOCKED: ATOM     27  N   UNL d   1      -6.948  -9.606   8.624 -0.19 +0.04    -0.248 N 
DOCKED: ATOM     28  N   UNL d   1      -9.518 -10.745   7.892 +0.07 +0.03    -0.248 N 
DOCKED: ATOM     29 FE   UNL d   1      -7.638 -11.443   8.169 -0.05 -0.00    +0.000 Fe
DOCKED: ATOM     30  O   UNL d   1      -7.706 -12.401   9.394 -0.12 -0.00    +0.000 OA
DOCKED: ATOM     31  O   UNL d   1      -8.147 -10.897   9.553 -0.14 -0.00    +0.000 OA
DOCKED: ENDROOT
DOCKED: BRANCH   6  32
DOCKED: ATOM     32  C   UNL d   1     -10.810 -15.920   6.842 -0.04 -0.01    +0.052 C 
DOCKED: BRANCH  32  33
DOCKED: ATOM     33  C   UNL d   1     -11.275 -16.729   8.048 -0.00 -0.01    +0.115 C 
DOCKED: BRANCH  33  34
DOCKED: ATOM     34  C   UNL d   1     -11.175 -15.951   9.336 -0.00 -0.01    +0.139 C 
DOCKED: ATOM     35  O   UNL d   1     -10.192 -16.084  10.047 +0.00 +0.05    -0.650 OA
DOCKED: BRANCH  34  36
DOCKED: ATOM     36  O   UNL d   1     -12.165 -15.127   9.739 +0.00 +0.06    -0.776 OA
DOCKED: ATOM     37  H   UNL d   1     -12.901 -14.893   9.162 +0.00 -0.01    +0.167 HD
DOCKED: ENDBRANCH  34  36
DOCKED: ENDBRANCH  33  34
DOCKED: ENDBRANCH  32  33
DOCKED: ENDBRANCH   6  32
DOCKED: BRANCH  22  38
DOCKED: ATOM     38  C   UNL d   1     -13.116 -10.973   6.994 -0.04 -0.01    +0.052 C 
DOCKED: BRANCH  38  39
DOCKED: ATOM     39  C   UNL d   1     -13.629 -12.158   7.807 -0.01 -0.01    +0.115 C 
DOCKED: BRANCH  39  40
DOCKED: ATOM     40  C   UNL d   1     -14.061 -13.312   6.936 -0.01 -0.01    +0.139 C 
DOCKED: ATOM     41  O   UNL d   1     -14.823 -13.115   6.004 +0.01 +0.06    -0.650 OA
DOCKED: BRANCH  40  42
DOCKED: ATOM     42  O   UNL d   1     -13.578 -14.553   7.137 +0.02 +0.07    -0.776 OA
DOCKED: ATOM     43  H   UNL d   1     -12.849 -14.719   7.746 +0.01 -0.02    +0.167 HD
DOCKED: ENDBRANCH  40  42
DOCKED: ENDBRANCH  39  40
DOCKED: ENDBRANCH  38  39
DOCKED: ENDBRANCH  22  38
DOCKED: BRANCH  12  44
DOCKED: ATOM     44  C   UNL d   1      -1.969 -12.054   8.822 -0.54 -0.00    +0.004 C 
DOCKED: ATOM     45  C   UNL d   1      -1.337 -10.881   8.814 -0.65 -0.00    +0.012 C 
DOCKED: ENDBRANCH  12  44
DOCKED: BRANCH  17  46
DOCKED: ATOM     46  C   UNL d   1      -7.462  -6.010   9.391 -0.30 -0.00    +0.004 C 
DOCKED: ATOM     47  C   UNL d   1      -8.092  -5.174   8.555 -0.33 -0.00    +0.012 C 
DOCKED: ENDBRANCH  17  46
DOCKED: TORSDOF 10
DOCKED: TER
DOCKED: ENDMDL
________________________________________________________________________________


	BEGINNING GENETIC ALGORITHM DOCKING 77 of 100
Run: 77 Seed: 111571626 305924270 [ Run 77 of 100 GA/GALS ]
Beginning LAMARCKIAN GENETIC ALGORITHM (LGA), with a maximum of 25000000 energy evaluations.

Final-Value: -11.693


	FINAL GENETIC ALGORITHM DOCKED STATE
	_______________________________________________


Detailed state:  trans -8.317 7.171 -12.886 quatxyzw -0.545079 0.564915 0.388557 -0.482476 center 8.287 34.468 -0.670 ntor 10 -33.8979 40.4219 -71.0864 30.6590 100.1116 -50.0657 47.8049 -29.5396 -24.8362 -38.0755
State:	 -8.317   7.171 -12.886  -0.622  0.645  0.444 -122.306    -33.90   40.42  -71.09   30.66  100.11  -50.07   47.80  -29.54  -24.84  -38.08

DOCKED: MODEL       77
DOCKED: USER    Run = 77
DOCKED: USER    DPF = D:/Protein_go_brrr/autodock/final/mut_K82N/heme_O2/dock.dpf
DOCKED: USER  
DOCKED: USER    Estimated Free Energy of Binding    =   -7.37 kcal/mol  [=(1)+(2)+(3)-(4)]
DOCKED: USER    Estimated Inhibition Constant, Ki   =    3.95 uM (micromolar)  [Temperature = 298.15 K]
DOCKED: USER    
DOCKED: USER    (1) Final Intermolecular Energy     =  -10.35 kcal/mol
DOCKED: USER        vdW + Hbond + desolv Energy     =   -7.48 kcal/mol
DOCKED: USER        Electrostatic Energy            =   -2.88 kcal/mol
DOCKED: USER    (2) Final Total Internal Energy     =   -1.34 kcal/mol
DOCKED: USER    (3) Torsional Free Energy           =   +2.98 kcal/mol
DOCKED: USER    (4) Unbound System's Energy  [=(2)] =   -1.34 kcal/mol
DOCKED: USER    
DOCKED: USER    
DOCKED: USER    NEWDPF move heme_O2_opt.pdbqt
DOCKED: USER    NEWDPF about 8.287000 34.468000 -0.670000
DOCKED: USER    NEWDPF tran0 -8.317043 7.170618 -12.886312
DOCKED: USER    NEWDPF quaternion0 -0.545079 0.564915 0.388557 -0.482476
DOCKED: USER    NEWDPF axisangle0 -0.622300 0.644947 0.443605 -122.305518
DOCKED: USER    NEWDPF quat0 -0.622300 0.644947 0.443605 -122.305518
DOCKED: USER    NEWDPF dihe0 -33.90 40.42 -71.09 30.66 100.11 -50.07 47.80 -29.54 -24.84 -38.08 
DOCKED: USER  keepresnum = 1 
DOCKED: USER  
DOCKED: REMARK  10 active torsions:
DOCKED: REMARK  status: ('A' for Active; 'I' for Inactive)
DOCKED: REMARK    1  A    between atoms: C_6  and  C_10 
DOCKED: REMARK    2  A    between atoms: C_10  and  C_11 
DOCKED: REMARK    3  A    between atoms: C_11  and  C_12 
DOCKED: REMARK    4  A    between atoms: C_12  and  O_14 
DOCKED: REMARK    5  A    between atoms: C_17  and  C_20 
DOCKED: REMARK    6  A    between atoms: C_24  and  C_27 
DOCKED: REMARK    7  A    between atoms: C_31  and  C_34 
DOCKED: REMARK    8  A    between atoms: C_34  and  C_35 
DOCKED: REMARK    9  A    between atoms: C_35  and  C_36 
DOCKED: REMARK   10  A    between atoms: C_36  and  O_38 
DOCKED: USER                              x       y       z     vdW  Elec       q    Type
DOCKED: USER                           _______ _______ _______ _____ _____    ______ ____
DOCKED: ROOT
DOCKED: ATOM      1  C   UNL d   1      -9.123   6.912 -10.941 -0.11 +0.01    +0.064 A 
DOCKED: ATOM      2  C   UNL d   1      -5.900   9.923 -12.704 -0.21 -0.01    +0.064 A 
DOCKED: ATOM      3  C   UNL d   1      -6.292   7.935 -17.062 -0.19 -0.01    +0.064 C 
DOCKED: ATOM      4  C   UNL d   1      -9.957   5.147 -15.372 -0.25 +0.02    +0.064 A 
DOCKED: ATOM      5  C   UNL d   1      -8.215   7.894 -11.065 -0.11 +0.01    +0.066 A 
DOCKED: ATOM      6  C   UNL d   1      -7.793   8.707 -10.010 -0.18 -0.00    -0.021 A 
DOCKED: ATOM      7  C   UNL d   1      -6.892   9.608 -10.528 -0.27 +0.00    -0.025 A 
DOCKED: ATOM      8  C   UNL d   1      -6.753   9.288 -11.876 -0.19 -0.00    +0.066 A 
DOCKED: ATOM      9  C   UNL d   1      -6.239  10.727  -9.746 -0.50 -0.00    +0.051 C 
DOCKED: ATOM     10  C   UNL d   1      -5.693   9.618 -14.121 -0.15 -0.01    +0.066 A 
DOCKED: ATOM     11  C   UNL d   1      -4.680  10.196 -14.893 -0.18 +0.01    -0.021 A 
DOCKED: ATOM     12  C   UNL d   1      -4.765   9.623 -16.148 -0.12 -0.00    +0.000 A 
DOCKED: ATOM     13  C   UNL d   1      -5.858   8.715 -16.072 -0.13 -0.01    +0.070 A 
DOCKED: ATOM     14  C   UNL d   1      -3.656  11.232 -14.444 -0.38 -0.02    +0.052 C 
DOCKED: ATOM     15  C   UNL d   1      -7.415   7.030 -17.036 -0.18 -0.01    +0.066 A 
DOCKED: ATOM     16  C   UNL d   1      -7.920   6.365 -18.153 -0.11 +0.00    -0.021 A 
DOCKED: ATOM     17  C   UNL d   1      -8.967   5.564 -17.696 -0.21 +0.00    +0.000 A 
DOCKED: ATOM     18  C   UNL d   1      -9.021   5.803 -16.315 -0.25 +0.01    +0.070 A 
DOCKED: ATOM     19  C   UNL d   1      -7.400   6.592 -19.551 -0.15 -0.01    +0.052 C 
DOCKED: ATOM     20  C   UNL d   1     -10.065   5.385 -14.050 -0.21 +0.01    +0.066 A 
DOCKED: ATOM     21  C   UNL d   1     -10.955   4.723 -13.208 -0.17 -0.01    -0.025 A 
DOCKED: ATOM     22  C   UNL d   1     -10.712   5.193 -11.937 -0.15 -0.01    -0.021 A 
DOCKED: ATOM     23  C   UNL d   1      -9.692   6.142 -12.054 -0.13 +0.01    +0.066 A 
DOCKED: ATOM     24  C   UNL d   1     -11.986   3.695 -13.598 -0.17 +0.03    +0.051 C 
DOCKED: ATOM     25  N   UNL d   1      -7.617   8.275 -12.221 -0.07 -0.00    -0.248 N 
DOCKED: ATOM     26  N   UNL d   1      -6.420   8.722 -14.837 -0.07 +0.03    -0.248 N 
DOCKED: ATOM     27  N   UNL d   1      -8.123   6.751 -15.945 -0.16 +0.01    -0.248 N 
DOCKED: ATOM     28  N   UNL d   1      -9.333   6.288 -13.346 -0.08 -0.03    -0.248 N 
DOCKED: ATOM     29 FE   UNL d   1      -7.888   7.495 -14.089 -0.04 -0.00    +0.000 Fe
DOCKED: ATOM     30  O   UNL d   1      -8.415   8.952 -13.933 -0.09 +0.00    +0.000 OA
DOCKED: ATOM     31  O   UNL d   1      -9.243   7.907 -14.772 -0.10 +0.00    +0.000 OA
DOCKED: ENDROOT
DOCKED: BRANCH   6  32
DOCKED: ATOM     32  C   UNL d   1      -8.315   8.731  -8.597 -0.24 +0.01    +0.052 C 
DOCKED: BRANCH  32  33
DOCKED: ATOM     33  C   UNL d   1      -8.173   7.387  -7.890 +0.01 +0.03    +0.115 C 
DOCKED: BRANCH  33  34
DOCKED: ATOM     34  C   UNL d   1      -9.426   6.991  -7.149 -0.08 +0.10    +0.139 C 
DOCKED: ATOM     35  O   UNL d   1      -9.947   7.782  -6.380 -0.37 -0.44    -0.650 OA
DOCKED: BRANCH  34  36
DOCKED: ATOM     36  O   UNL d   1      -9.972   5.766  -7.296 -0.45 -1.17    -0.776 OA
DOCKED: ATOM     37  H   UNL d   1      -9.936   5.287  -8.132 +0.04 +0.19    +0.167 HD
DOCKED: ENDBRANCH  34  36
DOCKED: ENDBRANCH  33  34
DOCKED: ENDBRANCH  32  33
DOCKED: ENDBRANCH   6  32
DOCKED: BRANCH  22  38
DOCKED: ATOM     38  C   UNL d   1     -11.466   4.796 -10.695 -0.11 +0.02    +0.052 C 
DOCKED: BRANCH  38  39
DOCKED: ATOM     39  C   UNL d   1     -11.293   3.316 -10.357 -0.05 +0.06    +0.115 C 
DOCKED: BRANCH  39  40
DOCKED: ATOM     40  C   UNL d   1     -11.363   3.052  -8.874 -0.04 +0.15    +0.139 C 
DOCKED: ATOM     41  O   UNL d   1     -12.423   2.725  -8.366 -0.40 -0.87    -0.650 OA
DOCKED: BRANCH  40  42
DOCKED: ATOM     42  O   UNL d   1     -10.261   3.120  -8.102 +0.13 -1.14    -0.776 OA
DOCKED: ATOM     43  H   UNL d   1      -9.618   3.833  -8.202 +0.05 +0.20    +0.167 HD
DOCKED: ENDBRANCH  40  42
DOCKED: ENDBRANCH  39  40
DOCKED: ENDBRANCH  38  39
DOCKED: ENDBRANCH  22  38
DOCKED: BRANCH  12  44
DOCKED: ATOM     44  C   UNL d   1      -3.816   9.995 -17.268 -0.10 -0.00    +0.004 C 
DOCKED: ATOM     45  C   UNL d   1      -2.790   9.289 -17.740 -0.14 -0.00    +0.012 C 
DOCKED: ENDBRANCH  12  44
DOCKED: BRANCH  17  46
DOCKED: ATOM     46  C   UNL d   1      -9.923   4.669 -18.437 -0.20 +0.00    +0.004 C 
DOCKED: ATOM     47  C   UNL d   1      -9.753   4.081 -19.629 -0.21 +0.00    +0.012 C 
DOCKED: ENDBRANCH  17  46
DOCKED: TORSDOF 10
DOCKED: TER
DOCKED: ENDMDL
________________________________________________________________________________


	BEGINNING GENETIC ALGORITHM DOCKING 78 of 100
Run: 78 Seed: 1871462102 757993142 [ Run 78 of 100 GA/GALS ]
Beginning LAMARCKIAN GENETIC ALGORITHM (LGA), with a maximum of 25000000 energy evaluations.

Final-Value: -10.654


	FINAL GENETIC ALGORITHM DOCKED STATE
	_______________________________________________


Detailed state:  trans -13.607 0.204 -4.736 quatxyzw -0.413993 0.139391 -0.454780 -0.776115 center 8.287 34.468 -0.670 ntor 10 -61.5035 -39.0153 -102.4204 112.5288 26.7406 -61.0594 -113.0545 -178.6996 148.6445 161.1805
State:	-13.607   0.204  -4.736  -0.657  0.221 -0.721 -78.188    -61.50  -39.02 -102.42  112.53   26.74  -61.06 -113.05 -178.70  148.64  161.18

DOCKED: MODEL       78
DOCKED: USER    Run = 78
DOCKED: USER    DPF = D:/Protein_go_brrr/autodock/final/mut_K82N/heme_O2/dock.dpf
DOCKED: USER  
DOCKED: USER    Estimated Free Energy of Binding    =   -6.08 kcal/mol  [=(1)+(2)+(3)-(4)]
DOCKED: USER    Estimated Inhibition Constant, Ki   =   34.95 uM (micromolar)  [Temperature = 298.15 K]
DOCKED: USER    
DOCKED: USER    (1) Final Intermolecular Energy     =   -9.06 kcal/mol
DOCKED: USER        vdW + Hbond + desolv Energy     =   -6.05 kcal/mol
DOCKED: USER        Electrostatic Energy            =   -3.01 kcal/mol
DOCKED: USER    (2) Final Total Internal Energy     =   -1.59 kcal/mol
DOCKED: USER    (3) Torsional Free Energy           =   +2.98 kcal/mol
DOCKED: USER    (4) Unbound System's Energy  [=(2)] =   -1.59 kcal/mol
DOCKED: USER    
DOCKED: USER    
DOCKED: USER    NEWDPF move heme_O2_opt.pdbqt
DOCKED: USER    NEWDPF about 8.287000 34.468000 -0.670000
DOCKED: USER    NEWDPF tran0 -13.606713 0.204342 -4.735721
DOCKED: USER    NEWDPF quaternion0 -0.413993 0.139391 -0.454780 -0.776115
DOCKED: USER    NEWDPF axisangle0 -0.656516 0.221048 -0.721197 -78.187507
DOCKED: USER    NEWDPF quat0 -0.656516 0.221048 -0.721197 -78.187507
DOCKED: USER    NEWDPF dihe0 -61.50 -39.02 -102.42 112.53 26.74 -61.06 -113.05 -178.70 148.64 161.18 
DOCKED: USER  keepresnum = 1 
DOCKED: USER  
DOCKED: REMARK  10 active torsions:
DOCKED: REMARK  status: ('A' for Active; 'I' for Inactive)
DOCKED: REMARK    1  A    between atoms: C_6  and  C_10 
DOCKED: REMARK    2  A    between atoms: C_10  and  C_11 
DOCKED: REMARK    3  A    between atoms: C_11  and  C_12 
DOCKED: REMARK    4  A    between atoms: C_12  and  O_14 
DOCKED: REMARK    5  A    between atoms: C_17  and  C_20 
DOCKED: REMARK    6  A    between atoms: C_24  and  C_27 
DOCKED: REMARK    7  A    between atoms: C_31  and  C_34 
DOCKED: REMARK    8  A    between atoms: C_34  and  C_35 
DOCKED: REMARK    9  A    between atoms: C_35  and  C_36 
DOCKED: REMARK   10  A    between atoms: C_36  and  O_38 
DOCKED: USER                              x       y       z     vdW  Elec       q    Type
DOCKED: USER                           _______ _______ _______ _____ _____    ______ ____
DOCKED: ROOT
DOCKED: ATOM      1  C   UNL d   1     -14.749   1.474  -5.993 -0.06 +0.03    +0.064 A 
DOCKED: ATOM      2  C   UNL d   1     -13.518   1.757  -1.415 -0.11 +0.01    +0.064 A 
DOCKED: ATOM      3  C   UNL d   1     -11.191  -2.439  -1.686 -0.21 -0.05    +0.064 C 
DOCKED: ATOM      4  C   UNL d   1     -12.046  -2.508  -6.516 -0.16 +0.01    +0.064 A 
DOCKED: ATOM      5  C   UNL d   1     -14.603   1.894  -4.726 -0.07 +0.04    +0.066 A 
DOCKED: ATOM      6  C   UNL d   1     -15.157   3.075  -4.224 -0.07 -0.01    -0.021 A 
DOCKED: ATOM      7  C   UNL d   1     -14.765   3.180  -2.910 -0.09 -0.01    -0.025 A 
DOCKED: ATOM      8  C   UNL d   1     -14.023   2.036  -2.632 -0.09 +0.02    +0.066 A 
DOCKED: ATOM      9  C   UNL d   1     -15.081   4.350  -2.003 -0.07 +0.01    +0.051 C 
DOCKED: ATOM     10  C   UNL d   1     -12.751   0.563  -1.057 -0.14 +0.00    +0.066 A 
DOCKED: ATOM     11  C   UNL d   1     -12.392   0.244   0.257 -0.18 +0.00    -0.021 A 
DOCKED: ATOM     12  C   UNL d   1     -11.736  -0.972   0.202 -0.26 -0.00    +0.000 A 
DOCKED: ATOM     13  C   UNL d   1     -11.721  -1.327  -1.175 -0.20 -0.03    +0.070 A 
DOCKED: ATOM     14  C   UNL d   1     -12.687   1.051   1.516 -0.18 -0.00    +0.052 C 
DOCKED: ATOM     15  C   UNL d   1     -11.124  -2.819  -3.076 -0.19 -0.02    +0.066 A 
DOCKED: ATOM     16  C   UNL d   1     -10.412  -3.914  -3.563 -0.25 +0.01    -0.021 A 
DOCKED: ATOM     17  C   UNL d   1     -10.640  -3.954  -4.938 -0.22 -0.00    +0.000 A 
DOCKED: ATOM     18  C   UNL d   1     -11.487  -2.865  -5.191 -0.15 -0.00    +0.070 A 
DOCKED: ATOM     19  C   UNL d   1      -9.542  -4.784  -2.690 -0.43 -0.03    +0.052 C 
DOCKED: ATOM     20  C   UNL d   1     -12.825  -1.447  -6.801 -0.10 +0.01    +0.066 A 
DOCKED: ATOM     21  C   UNL d   1     -13.336  -1.171  -8.066 -0.09 -0.01    -0.025 A 
DOCKED: ATOM     22  C   UNL d   1     -14.131  -0.055  -7.930 -0.05 -0.01    -0.021 A 
DOCKED: ATOM     23  C   UNL d   1     -14.061   0.321  -6.585 -0.06 +0.03    +0.066 A 
DOCKED: ATOM     24  C   UNL d   1     -13.076  -1.931  -9.340 -0.11 +0.01    +0.051 C 
DOCKED: ATOM     25  N   UNL d   1     -13.868   1.277  -3.769 -0.07 -0.12    -0.248 N 
DOCKED: ATOM     26  N   UNL d   1     -12.336  -0.386  -1.934 -0.07 +0.01    -0.248 N 
DOCKED: ATOM     27  N   UNL d   1     -11.709  -2.145  -4.062 -0.07 +0.01    -0.248 N 
DOCKED: ATOM     28  N   UNL d   1     -13.231  -0.501  -5.912 -0.04 -0.08    -0.248 N 
DOCKED: ATOM     29 FE   UNL d   1     -12.785  -0.446  -3.938 -0.02 +0.00    +0.000 Fe
DOCKED: ATOM     30  O   UNL d   1     -11.913   0.826  -3.724 -0.05 +0.00    +0.000 OA
DOCKED: ATOM     31  O   UNL d   1     -11.436  -0.288  -4.731 -0.21 +0.00    +0.000 OA
DOCKED: ENDROOT
DOCKED: BRANCH   6  32
DOCKED: ATOM     32  C   UNL d   1     -15.911   4.136  -4.983 -0.04 +0.02    +0.052 C 
DOCKED: BRANCH  32  33
DOCKED: ATOM     33  C   UNL d   1     -15.345   5.536  -4.765 -0.05 +0.06    +0.115 C 
DOCKED: BRANCH  33  34
DOCKED: ATOM     34  C   UNL d   1     -13.945   5.681  -5.308 +0.23 +0.16    +0.139 C 
DOCKED: ATOM     35  O   UNL d   1     -13.047   6.054  -4.570 -0.42 -0.86    -0.650 OA
DOCKED: BRANCH  34  36
DOCKED: ATOM     36  O   UNL d   1     -13.664   5.433  -6.604 -0.33 -1.11    -0.776 OA
DOCKED: ATOM     37  H   UNL d   1     -13.803   4.564  -7.000 +0.00 +0.25    +0.167 HD
DOCKED: ENDBRANCH  34  36
DOCKED: ENDBRANCH  33  34
DOCKED: ENDBRANCH  32  33
DOCKED: ENDBRANCH   6  32
DOCKED: BRANCH  22  38
DOCKED: ATOM     38  C   UNL d   1     -14.862   0.644  -9.047 -0.03 +0.01    +0.052 C 
DOCKED: BRANCH  38  39
DOCKED: ATOM     39  C   UNL d   1     -14.089   1.844  -9.588 -0.04 +0.04    +0.115 C 
DOCKED: BRANCH  39  40
DOCKED: ATOM     40  C   UNL d   1     -12.773   2.048  -8.880 -0.11 +0.10    +0.139 C 
DOCKED: ATOM     41  O   UNL d   1     -11.791   1.413  -9.230 -0.01 -0.37    -0.650 OA
DOCKED: BRANCH  40  42
DOCKED: ATOM     42  O   UNL d   1     -12.646   2.960  -7.896 -0.18 -1.40    -0.776 OA
DOCKED: ATOM     43  H   UNL d   1     -13.112   3.805  -7.928 +0.01 +0.25    +0.167 HD
DOCKED: ENDBRANCH  40  42
DOCKED: ENDBRANCH  39  40
DOCKED: ENDBRANCH  38  39
DOCKED: ENDBRANCH  22  38
DOCKED: BRANCH  12  44
DOCKED: ATOM     44  C   UNL d   1     -11.199  -1.652   1.444 +0.09 -0.00    +0.004 C 
DOCKED: ATOM     45  C   UNL d   1     -11.889  -2.270   2.402 -0.26 -0.01    +0.012 C 
DOCKED: ENDBRANCH  12  44
DOCKED: BRANCH  17  46
DOCKED: ATOM     46  C   UNL d   1     -10.096  -4.867  -6.004 -0.37 -0.00    +0.004 C 
DOCKED: ATOM     47  C   UNL d   1     -10.726  -5.861  -6.644 -0.45 -0.00    +0.012 C 
DOCKED: ENDBRANCH  17  46
DOCKED: TORSDOF 10
DOCKED: TER
DOCKED: ENDMDL
________________________________________________________________________________


	BEGINNING GENETIC ALGORITHM DOCKING 79 of 100
Run: 79 Seed: 1388750960 1999080254 [ Run 79 of 100 GA/GALS ]
Beginning LAMARCKIAN GENETIC ALGORITHM (LGA), with a maximum of 25000000 energy evaluations.

Final-Value: -11.705


	FINAL GENETIC ALGORITHM DOCKED STATE
	_______________________________________________


Detailed state:  trans -8.282 6.864 -12.844 quatxyzw -0.490564 0.576237 0.391050 -0.523811 center 8.287 34.468 -0.670 ntor 10 -69.6734 131.3805 -86.7251 53.7284 -52.6345 -96.8259 -17.6269 -64.4044 -164.9675 23.1842
State:	 -8.282   6.864 -12.844  -0.576  0.676  0.459 -116.824    -69.67  131.38  -86.73   53.73  -52.63  -96.83  -17.63  -64.40 -164.97   23.18

DOCKED: MODEL       79
DOCKED: USER    Run = 79
DOCKED: USER    DPF = D:/Protein_go_brrr/autodock/final/mut_K82N/heme_O2/dock.dpf
DOCKED: USER  
DOCKED: USER    Estimated Free Energy of Binding    =   -6.56 kcal/mol  [=(1)+(2)+(3)-(4)]
DOCKED: USER    Estimated Inhibition Constant, Ki   =   15.66 uM (micromolar)  [Temperature = 298.15 K]
DOCKED: USER    
DOCKED: USER    (1) Final Intermolecular Energy     =   -9.54 kcal/mol
DOCKED: USER        vdW + Hbond + desolv Energy     =   -7.36 kcal/mol
DOCKED: USER        Electrostatic Energy            =   -2.18 kcal/mol
DOCKED: USER    (2) Final Total Internal Energy     =   -2.17 kcal/mol
DOCKED: USER    (3) Torsional Free Energy           =   +2.98 kcal/mol
DOCKED: USER    (4) Unbound System's Energy  [=(2)] =   -2.17 kcal/mol
DOCKED: USER    
DOCKED: USER    
DOCKED: USER    NEWDPF move heme_O2_opt.pdbqt
DOCKED: USER    NEWDPF about 8.287000 34.468000 -0.670000
DOCKED: USER    NEWDPF tran0 -8.281750 6.863609 -12.843762
DOCKED: USER    NEWDPF quaternion0 -0.490564 0.576237 0.391050 -0.523811
DOCKED: USER    NEWDPF axisangle0 -0.575892 0.676466 0.459068 -116.823506
DOCKED: USER    NEWDPF quat0 -0.575892 0.676466 0.459068 -116.823506
DOCKED: USER    NEWDPF dihe0 -69.67 131.38 -86.73 53.73 -52.63 -96.83 -17.63 -64.40 -164.97 23.18 
DOCKED: USER  keepresnum = 1 
DOCKED: USER  
DOCKED: REMARK  10 active torsions:
DOCKED: REMARK  status: ('A' for Active; 'I' for Inactive)
DOCKED: REMARK    1  A    between atoms: C_6  and  C_10 
DOCKED: REMARK    2  A    between atoms: C_10  and  C_11 
DOCKED: REMARK    3  A    between atoms: C_11  and  C_12 
DOCKED: REMARK    4  A    between atoms: C_12  and  O_14 
DOCKED: REMARK    5  A    between atoms: C_17  and  C_20 
DOCKED: REMARK    6  A    between atoms: C_24  and  C_27 
DOCKED: REMARK    7  A    between atoms: C_31  and  C_34 
DOCKED: REMARK    8  A    between atoms: C_34  and  C_35 
DOCKED: REMARK    9  A    between atoms: C_35  and  C_36 
DOCKED: REMARK   10  A    between atoms: C_36  and  O_38 
DOCKED: USER                              x       y       z     vdW  Elec       q    Type
DOCKED: USER                           _______ _______ _______ _____ _____    ______ ____
DOCKED: ROOT
DOCKED: ATOM      1  C   UNL d   1      -9.101   6.511 -10.919 -0.12 +0.01    +0.064 A 
DOCKED: ATOM      2  C   UNL d   1      -5.591   9.324 -12.446 -0.19 -0.01    +0.064 A 
DOCKED: ATOM      3  C   UNL d   1      -6.207   7.797 -16.961 -0.20 -0.01    +0.064 C 
DOCKED: ATOM      4  C   UNL d   1     -10.134   5.257 -15.480 -0.22 +0.02    +0.064 A 
DOCKED: ATOM      5  C   UNL d   1      -8.097   7.402 -10.966 -0.12 +0.01    +0.066 A 
DOCKED: ATOM      6  C   UNL d   1      -7.588   8.067  -9.847 -0.19 -0.00    -0.021 A 
DOCKED: ATOM      7  C   UNL d   1      -6.601   8.914 -10.294 -0.28 +0.00    -0.025 A 
DOCKED: ATOM      8  C   UNL d   1      -6.501   8.707 -11.667 -0.19 -0.00    +0.066 A 
DOCKED: ATOM      9  C   UNL d   1      -5.831   9.883  -9.423 -0.43 -0.01    +0.051 C 
DOCKED: ATOM     10  C   UNL d   1      -5.424   9.130 -13.887 -0.19 -0.01    +0.066 A 
DOCKED: ATOM     11  C   UNL d   1      -4.359   9.670 -14.617 -0.24 +0.01    -0.021 A 
DOCKED: ATOM     12  C   UNL d   1      -4.509   9.226 -15.918 -0.17 -0.00    +0.000 A 
DOCKED: ATOM     13  C   UNL d   1      -5.690   8.433 -15.910 -0.17 -0.01    +0.070 A 
DOCKED: ATOM     14  C   UNL d   1      -3.231  10.550 -14.091 -0.39 -0.02    +0.052 C 
DOCKED: ATOM     15  C   UNL d   1      -7.418   7.013 -17.002 -0.18 -0.01    +0.066 A 
DOCKED: ATOM     16  C   UNL d   1      -7.994   6.509 -18.167 -0.16 +0.00    -0.021 A 
DOCKED: ATOM     17  C   UNL d   1      -9.116   5.782 -17.770 -0.22 +0.00    +0.000 A 
DOCKED: ATOM     18  C   UNL d   1      -9.140   5.897 -16.373 -0.23 +0.01    +0.070 A 
DOCKED: ATOM     19  C   UNL d   1      -7.460   6.808 -19.545 -0.14 -0.01    +0.052 C 
DOCKED: ATOM     20  C   UNL d   1     -10.211   5.382 -14.141 -0.20 +0.01    +0.066 A 
DOCKED: ATOM     21  C   UNL d   1     -11.161   4.740 -13.350 -0.17 -0.01    -0.025 A 
DOCKED: ATOM     22  C   UNL d   1     -10.865   5.064 -12.045 -0.15 -0.01    -0.021 A 
DOCKED: ATOM     23  C   UNL d   1      -9.752   5.910 -12.089 -0.14 +0.01    +0.066 A 
DOCKED: ATOM     24  C   UNL d   1     -12.295   3.865 -13.817 -0.17 +0.03    +0.051 C 
DOCKED: ATOM     25  N   UNL d   1      -7.468   7.824 -12.090 +0.07 -0.01    -0.248 N 
DOCKED: ATOM     26  N   UNL d   1      -6.243   8.384 -14.671 -0.07 +0.03    -0.248 N 
DOCKED: ATOM     27  N   UNL d   1      -8.146   6.709 -15.931 -0.16 +0.01    -0.248 N 
DOCKED: ATOM     28  N   UNL d   1      -9.386   6.137 -13.367 -0.09 -0.03    -0.248 N 
DOCKED: ATOM     29 FE   UNL d   1      -7.827   7.252 -14.017 -0.04 +0.00    +0.000 Fe
DOCKED: ATOM     30  O   UNL d   1      -8.199   8.734 -13.723 -0.11 +0.00    +0.000 OA
DOCKED: ATOM     31  O   UNL d   1      -9.135   7.861 -14.641 -0.11 +0.00    +0.000 OA
DOCKED: ENDROOT
DOCKED: BRANCH   6  32
DOCKED: ATOM     32  C   UNL d   1      -8.098   8.015  -8.431 -0.24 +0.01    +0.052 C 
DOCKED: BRANCH  32  33
DOCKED: ATOM     33  C   UNL d   1      -9.295   8.932  -8.198 -0.17 +0.03    +0.115 C 
DOCKED: BRANCH  33  34
DOCKED: ATOM     34  C   UNL d   1     -10.088   8.544  -6.975 -0.17 +0.06    +0.139 C 
DOCKED: ATOM     35  O   UNL d   1     -10.777   9.379  -6.412 +0.03 -0.23    -0.650 OA
DOCKED: BRANCH  34  36
DOCKED: ATOM     36  O   UNL d   1     -10.032   7.295  -6.467 -0.25 -0.64    -0.776 OA
DOCKED: ATOM     37  H   UNL d   1     -10.413   6.539  -6.929 +0.03 +0.20    +0.167 HD
DOCKED: ENDBRANCH  34  36
DOCKED: ENDBRANCH  33  34
DOCKED: ENDBRANCH  32  33
DOCKED: ENDBRANCH   6  32
DOCKED: BRANCH  22  38
DOCKED: ATOM     38  C   UNL d   1     -11.651   4.634 -10.834 -0.11 +0.02    +0.052 C 
DOCKED: BRANCH  38  39
DOCKED: ATOM     39  C   UNL d   1     -10.781   3.925  -9.797 -0.14 +0.07    +0.115 C 
DOCKED: BRANCH  39  40
DOCKED: ATOM     40  C   UNL d   1     -10.667   4.704  -8.511 -0.05 +0.17    +0.139 C 
DOCKED: ATOM     41  O   UNL d   1     -11.671   5.158  -7.986 +0.12 -1.08    -0.650 OA
DOCKED: BRANCH  40  42
DOCKED: ATOM     42  O   UNL d   1      -9.478   4.866  -7.899 -0.36 -0.93    -0.776 OA
DOCKED: ATOM     43  H   UNL d   1      -9.196   5.726  -7.564 +0.04 +0.16    +0.167 HD
DOCKED: ENDBRANCH  40  42
DOCKED: ENDBRANCH  39  40
DOCKED: ENDBRANCH  38  39
DOCKED: ENDBRANCH  22  38
DOCKED: BRANCH  12  44
DOCKED: ATOM     44  C   UNL d   1      -3.532   9.600 -17.013 -0.14 -0.00    +0.004 C 
DOCKED: ATOM     45  C   UNL d   1      -2.417   8.963 -17.368 -0.20 -0.00    +0.012 C 
DOCKED: ENDBRANCH  12  44
DOCKED: BRANCH  17  46
DOCKED: ATOM     46  C   UNL d   1     -10.164   5.061 -18.576 -0.19 +0.00    +0.004 C 
DOCKED: ATOM     47  C   UNL d   1      -9.985   4.219 -19.602 -0.19 +0.00    +0.012 C 
DOCKED: ENDBRANCH  17  46
DOCKED: TORSDOF 10
DOCKED: TER
DOCKED: ENDMDL
________________________________________________________________________________


	BEGINNING GENETIC ALGORITHM DOCKING 80 of 100
Run: 80 Seed: 459433513 1899539021 [ Run 80 of 100 GA/GALS ]
Beginning LAMARCKIAN GENETIC ALGORITHM (LGA), with a maximum of 25000000 energy evaluations.

Final-Value: -8.932


	FINAL GENETIC ALGORITHM DOCKED STATE
	_______________________________________________


Detailed state:  trans 3.477 -10.023 18.480 quatxyzw 0.175163 -0.892113 0.373762 -0.183722 center 8.287 34.468 -0.670 ntor 10 123.2625 -125.9147 64.0308 -109.6961 -36.3768 152.0524 100.5942 -117.8769 11.6097 -21.9222
State:	  3.477 -10.023  18.480   0.178 -0.908  0.380 -158.827    123.26 -125.91   64.03 -109.70  -36.38  152.05  100.59 -117.88   11.61  -21.92

DOCKED: MODEL       80
DOCKED: USER    Run = 80
DOCKED: USER    DPF = D:/Protein_go_brrr/autodock/final/mut_K82N/heme_O2/dock.dpf
DOCKED: USER  
DOCKED: USER    Estimated Free Energy of Binding    =   -3.79 kcal/mol  [=(1)+(2)+(3)-(4)]
DOCKED: USER    Estimated Inhibition Constant, Ki   =    1.67 mM (millimolar)  [Temperature = 298.15 K]
DOCKED: USER    
DOCKED: USER    (1) Final Intermolecular Energy     =   -6.77 kcal/mol
DOCKED: USER        vdW + Hbond + desolv Energy     =   -6.71 kcal/mol
DOCKED: USER        Electrostatic Energy            =   -0.06 kcal/mol
DOCKED: USER    (2) Final Total Internal Energy     =   -2.16 kcal/mol
DOCKED: USER    (3) Torsional Free Energy           =   +2.98 kcal/mol
DOCKED: USER    (4) Unbound System's Energy  [=(2)] =   -2.16 kcal/mol
DOCKED: USER    
DOCKED: USER    
DOCKED: USER    NEWDPF move heme_O2_opt.pdbqt
DOCKED: USER    NEWDPF about 8.287000 34.468000 -0.670000
DOCKED: USER    NEWDPF tran0 3.477053 -10.023199 18.480245
DOCKED: USER    NEWDPF quaternion0 0.175163 -0.892113 0.373762 -0.183722
DOCKED: USER    NEWDPF axisangle0 0.178196 -0.907561 0.380235 -158.826775
DOCKED: USER    NEWDPF quat0 0.178196 -0.907561 0.380235 -158.826775
DOCKED: USER    NEWDPF dihe0 123.26 -125.91 64.03 -109.70 -36.38 152.05 100.59 -117.88 11.61 -21.92 
DOCKED: USER  keepresnum = 1 
DOCKED: USER  
DOCKED: REMARK  10 active torsions:
DOCKED: REMARK  status: ('A' for Active; 'I' for Inactive)
DOCKED: REMARK    1  A    between atoms: C_6  and  C_10 
DOCKED: REMARK    2  A    between atoms: C_10  and  C_11 
DOCKED: REMARK    3  A    between atoms: C_11  and  C_12 
DOCKED: REMARK    4  A    between atoms: C_12  and  O_14 
DOCKED: REMARK    5  A    between atoms: C_17  and  C_20 
DOCKED: REMARK    6  A    between atoms: C_24  and  C_27 
DOCKED: REMARK    7  A    between atoms: C_31  and  C_34 
DOCKED: REMARK    8  A    between atoms: C_34  and  C_35 
DOCKED: REMARK    9  A    between atoms: C_35  and  C_36 
DOCKED: REMARK   10  A    between atoms: C_36  and  O_38 
DOCKED: USER                              x       y       z     vdW  Elec       q    Type
DOCKED: USER                           _______ _______ _______ _____ _____    ______ ____
DOCKED: ROOT
DOCKED: ATOM      1  C   UNL d   1       4.993  -8.714  17.782 -0.17 -0.00    +0.064 A 
DOCKED: ATOM      2  C   UNL d   1       4.466 -13.428  17.543 -0.25 -0.01    +0.064 A 
DOCKED: ATOM      3  C   UNL d   1       0.327 -13.181  19.972 -0.08 -0.00    +0.064 C 
DOCKED: ATOM      4  C   UNL d   1       0.617  -8.287  19.809 -0.05 +0.01    +0.064 A 
DOCKED: ATOM      5  C   UNL d   1       5.186 -10.016  17.517 -0.14 -0.00    +0.066 A 
DOCKED: ATOM      6  C   UNL d   1       6.301 -10.520  16.841 -0.18 +0.00    -0.021 A 
DOCKED: ATOM      7  C   UNL d   1       6.128 -11.880  16.733 -0.23 +0.00    -0.025 A 
DOCKED: ATOM      8  C   UNL d   1       4.937 -12.175  17.389 -0.23 -0.01    +0.066 A 
DOCKED: ATOM      9  C   UNL d   1       7.066 -12.816  16.002 -0.27 -0.01    +0.051 C 
DOCKED: ATOM     10  C   UNL d   1       3.235 -13.802  18.241 -0.21 -0.00    +0.066 A 
DOCKED: ATOM     11  C   UNL d   1       2.877 -15.127  18.514 -0.18 +0.00    -0.021 A 
DOCKED: ATOM     12  C   UNL d   1       1.695 -15.076  19.230 -0.10 +0.00    +0.000 A 
DOCKED: ATOM     13  C   UNL d   1       1.386 -13.692  19.345 -0.07 +0.00    +0.070 A 
DOCKED: ATOM     14  C   UNL d   1       3.645 -16.387  18.132 -0.19 -0.01    +0.052 C 
DOCKED: ATOM     15  C   UNL d   1      -0.040 -11.790  20.081 -0.08 -0.00    +0.066 A 
DOCKED: ATOM     16  C   UNL d   1      -1.246 -11.330  20.609 -0.04 +0.00    -0.021 A 
DOCKED: ATOM     17  C   UNL d   1      -1.187  -9.937  20.572 -0.06 +0.00    +0.000 A 
DOCKED: ATOM     18  C   UNL d   1       0.069  -9.648  20.018 -0.07 +0.00    +0.070 A 
DOCKED: ATOM     19  C   UNL d   1      -2.358 -12.251  21.046 -0.02 -0.00    +0.052 C 
DOCKED: ATOM     20  C   UNL d   1       1.798  -7.974  19.241 -0.13 +0.00    +0.066 A 
DOCKED: ATOM     21  C   UNL d   1       2.269  -6.673  19.087 -0.19 -0.00    -0.025 A 
DOCKED: ATOM     22  C   UNL d   1       3.526  -6.776  18.536 -0.21 +0.00    -0.021 A 
DOCKED: ATOM     23  C   UNL d   1       3.770  -8.142  18.357 -0.16 -0.00    +0.066 A 
DOCKED: ATOM     24  C   UNL d   1       1.553  -5.396  19.443 -0.28 +0.02    +0.051 C 
DOCKED: ATOM     25  N   UNL d   1       4.325 -11.019  17.815 -0.12 +0.01    -0.248 N 
DOCKED: ATOM     26  N   UNL d   1       2.325 -12.925  18.736 -0.11 +0.01    -0.248 N 
DOCKED: ATOM     27  N   UNL d   1       0.719 -10.784  19.658 -0.07 +0.01    -0.248 N 
DOCKED: ATOM     28  N   UNL d   1       2.698  -8.864  18.746 -0.09 +0.00    -0.248 N 
DOCKED: ATOM     29 FE   UNL d   1       2.510 -10.879  18.742 -0.03 -0.00    +0.000 Fe
DOCKED: ATOM     30  O   UNL d   1       2.421 -11.305  17.248 -0.35 -0.00    +0.000 OA
DOCKED: ATOM     31  O   UNL d   1       1.364 -10.297  17.837 -0.39 -0.00    +0.000 OA
DOCKED: ENDROOT
DOCKED: BRANCH   6  32
DOCKED: ATOM     32  C   UNL d   1       7.420  -9.742  16.198 -0.35 +0.00    +0.052 C 
DOCKED: BRANCH  32  33
DOCKED: ATOM     33  C   UNL d   1       8.635  -9.589  17.108 -0.28 +0.01    +0.115 C 
DOCKED: BRANCH  33  34
DOCKED: ATOM     34  C   UNL d   1       8.472  -8.465  18.100 -0.13 +0.03    +0.139 C 
DOCKED: ATOM     35  O   UNL d   1       9.305  -8.311  18.979 -0.38 -0.13    -0.650 OA
DOCKED: BRANCH  34  36
DOCKED: ATOM     36  O   UNL d   1       7.407  -7.637  18.057 +0.04 -0.03    -0.776 OA
DOCKED: ATOM     37  H   UNL d   1       6.823  -7.516  18.815 +0.06 -0.00    +0.167 HD
DOCKED: ENDBRANCH  34  36
DOCKED: ENDBRANCH  33  34
DOCKED: ENDBRANCH  32  33
DOCKED: ENDBRANCH   6  32
DOCKED: BRANCH  22  38
DOCKED: ATOM     38  C   UNL d   1       4.412  -5.622  18.145 -0.34 -0.01    +0.052 C 
DOCKED: BRANCH  38  39
DOCKED: ATOM     39  C   UNL d   1       5.143  -5.019  19.343 -0.24 -0.02    +0.115 C 
DOCKED: BRANCH  39  40
DOCKED: ATOM     40  C   UNL d   1       6.050  -6.013  20.025 -0.19 -0.01    +0.139 C 
DOCKED: ATOM     41  O   UNL d   1       5.573  -7.006  20.551 +0.05 +0.03    -0.650 OA
DOCKED: BRANCH  40  42
DOCKED: ATOM     42  O   UNL d   1       7.387  -5.852  20.020 +0.03 +0.04    -0.776 OA
DOCKED: ATOM     43  H   UNL d   1       7.976  -6.533  19.673 +0.06 +0.00    +0.167 HD
DOCKED: ENDBRANCH  40  42
DOCKED: ENDBRANCH  39  40
DOCKED: ENDBRANCH  38  39
DOCKED: ENDBRANCH  22  38
DOCKED: BRANCH  12  44
DOCKED: ATOM     44  C   UNL d   1       0.996 -16.328  19.717 -0.06 -0.00    +0.004 C 
DOCKED: ATOM     45  C   UNL d   1      -0.235 -16.745  19.423 -0.05 -0.00    +0.012 C 
DOCKED: ENDBRANCH  12  44
DOCKED: BRANCH  17  46
DOCKED: ATOM     46  C   UNL d   1      -2.205  -8.894  20.948 -0.06 +0.00    +0.004 C 
DOCKED: ATOM     47  C   UNL d   1      -2.800  -7.992  20.156 -0.12 +0.00    +0.012 C 
DOCKED: ENDBRANCH  17  46
DOCKED: TORSDOF 10
DOCKED: TER
DOCKED: ENDMDL
________________________________________________________________________________


	BEGINNING GENETIC ALGORITHM DOCKING 81 of 100
Run: 81 Seed: 1786117118 1209757893 [ Run 81 of 100 GA/GALS ]
Beginning LAMARCKIAN GENETIC ALGORITHM (LGA), with a maximum of 25000000 energy evaluations.

Final-Value: -10.182


	FINAL GENETIC ALGORITHM DOCKED STATE
	_______________________________________________


Detailed state:  trans -12.703 14.643 -7.574 quatxyzw -0.056696 0.514992 -0.232015 -0.823248 center 8.287 34.468 -0.670 ntor 10 130.9891 102.3430 74.3823 -100.3390 -147.5460 -91.6646 -89.0923 125.4208 -176.9146 -175.4917
State:	-12.703  14.643  -7.574  -0.100  0.907 -0.409 -69.177    130.99  102.34   74.38 -100.34 -147.55  -91.66  -89.09  125.42 -176.91 -175.49

DOCKED: MODEL       81
DOCKED: USER    Run = 81
DOCKED: USER    DPF = D:/Protein_go_brrr/autodock/final/mut_K82N/heme_O2/dock.dpf
DOCKED: USER  
DOCKED: USER    Estimated Free Energy of Binding    =   -4.64 kcal/mol  [=(1)+(2)+(3)-(4)]
DOCKED: USER    Estimated Inhibition Constant, Ki   =  399.25 uM (micromolar)  [Temperature = 298.15 K]
DOCKED: USER    
DOCKED: USER    (1) Final Intermolecular Energy     =   -7.62 kcal/mol
DOCKED: USER        vdW + Hbond + desolv Energy     =   -5.87 kcal/mol
DOCKED: USER        Electrostatic Energy            =   -1.75 kcal/mol
DOCKED: USER    (2) Final Total Internal Energy     =   -2.56 kcal/mol
DOCKED: USER    (3) Torsional Free Energy           =   +2.98 kcal/mol
DOCKED: USER    (4) Unbound System's Energy  [=(2)] =   -2.56 kcal/mol
DOCKED: USER    
DOCKED: USER    
DOCKED: USER    NEWDPF move heme_O2_opt.pdbqt
DOCKED: USER    NEWDPF about 8.287000 34.468000 -0.670000
DOCKED: USER    NEWDPF tran0 -12.703432 14.642556 -7.574353
DOCKED: USER    NEWDPF quaternion0 -0.056696 0.514992 -0.232015 -0.823248
DOCKED: USER    NEWDPF axisangle0 -0.099873 0.907185 -0.408707 -69.177381
DOCKED: USER    NEWDPF quat0 -0.099873 0.907185 -0.408707 -69.177381
DOCKED: USER    NEWDPF dihe0 130.99 102.34 74.38 -100.34 -147.55 -91.66 -89.09 125.42 -176.91 -175.49 
DOCKED: USER  keepresnum = 1 
DOCKED: USER  
DOCKED: REMARK  10 active torsions:
DOCKED: REMARK  status: ('A' for Active; 'I' for Inactive)
DOCKED: REMARK    1  A    between atoms: C_6  and  C_10 
DOCKED: REMARK    2  A    between atoms: C_10  and  C_11 
DOCKED: REMARK    3  A    between atoms: C_11  and  C_12 
DOCKED: REMARK    4  A    between atoms: C_12  and  O_14 
DOCKED: REMARK    5  A    between atoms: C_17  and  C_20 
DOCKED: REMARK    6  A    between atoms: C_24  and  C_27 
DOCKED: REMARK    7  A    between atoms: C_31  and  C_34 
DOCKED: REMARK    8  A    between atoms: C_34  and  C_35 
DOCKED: REMARK    9  A    between atoms: C_35  and  C_36 
DOCKED: REMARK   10  A    between atoms: C_36  and  O_38 
DOCKED: USER                              x       y       z     vdW  Elec       q    Type
DOCKED: USER                           _______ _______ _______ _____ _____    ______ ____
DOCKED: ROOT
DOCKED: ATOM      1  C   UNL d   1     -13.885  16.116  -6.608 -0.07 +0.04    +0.064 A 
DOCKED: ATOM      2  C   UNL d   1     -11.101  12.643  -4.951 -0.23 +0.02    +0.064 A 
DOCKED: ATOM      3  C   UNL d   1     -10.059  11.219  -9.421 -0.15 +0.02    +0.064 C 
DOCKED: ATOM      4  C   UNL d   1     -12.539  15.085 -11.143 -0.05 +0.02    +0.064 A 
DOCKED: ATOM      5  C   UNL d   1     -13.211  15.289  -5.793 -0.04 +0.04    +0.066 A 
DOCKED: ATOM      6  C   UNL d   1     -13.264  15.351  -4.397 -0.11 -0.01    -0.021 A 
DOCKED: ATOM      7  C   UNL d   1     -12.425  14.373  -3.916 -0.17 -0.01    -0.025 A 
DOCKED: ATOM      8  C   UNL d   1     -11.920  13.710  -5.031 -0.13 +0.03    +0.066 A 
DOCKED: ATOM      9  C   UNL d   1     -12.122  14.135  -2.453 -0.27 +0.01    +0.051 C 
DOCKED: ATOM     10  C   UNL d   1     -10.558  11.892  -6.083 -0.24 +0.02    +0.066 A 
DOCKED: ATOM     11  C   UNL d   1      -9.847  10.695  -5.943 -0.27 -0.01    -0.021 A 
DOCKED: ATOM     12  C   UNL d   1      -9.553  10.259  -7.222 -0.20 +0.00    +0.000 A 
DOCKED: ATOM     13  C   UNL d   1     -10.103  11.243  -8.089 -0.17 +0.02    +0.070 A 
DOCKED: ATOM     14  C   UNL d   1      -9.487   9.983  -4.644 -0.43 +0.02    +0.052 C 
DOCKED: ATOM     15  C   UNL d   1     -10.573  12.212 -10.333 -0.09 +0.02    +0.066 A 
DOCKED: ATOM     16  C   UNL d   1     -10.351  12.211 -11.710 +0.00 -0.01    -0.021 A 
DOCKED: ATOM     17  C   UNL d   1     -11.048  13.305 -12.222 -0.07 +0.00    +0.000 A 
DOCKED: ATOM     18  C   UNL d   1     -11.652  13.898 -11.105 -0.08 +0.02    +0.070 A 
DOCKED: ATOM     19  C   UNL d   1      -9.459  11.209 -12.398 -0.09 +0.01    +0.052 C 
DOCKED: ATOM     20  C   UNL d   1     -13.100  15.705 -10.087 -0.05 +0.03    +0.066 A 
DOCKED: ATOM     21  C   UNL d   1     -13.942  16.809 -10.187 -0.02 -0.01    -0.025 A 
DOCKED: ATOM     22  C   UNL d   1     -14.356  17.100  -8.907 -0.03 -0.01    -0.021 A 
DOCKED: ATOM     23  C   UNL d   1     -13.735  16.170  -8.067 -0.07 +0.04    +0.066 A 
DOCKED: ATOM     24  C   UNL d   1     -14.328  17.552 -11.440 -0.00 +0.01    +0.051 C 
DOCKED: ATOM     25  N   UNL d   1     -12.353  14.316  -6.187 -0.09 -0.15    -0.248 N 
DOCKED: ATOM     26  N   UNL d   1     -10.708  12.235  -7.388 -0.13 -0.09    -0.248 N 
DOCKED: ATOM     27  N   UNL d   1     -11.292  13.266  -9.959 -0.09 -0.09    -0.248 N 
DOCKED: ATOM     28  N   UNL d   1     -12.937  15.352  -8.784 -0.07 -0.15    -0.248 N 
DOCKED: ATOM     29 FE   UNL d   1     -11.830  13.805  -8.094 -0.03 +0.00    +0.000 Fe
DOCKED: ATOM     30  O   UNL d   1     -10.668  14.434  -7.271 -0.30 +0.00    +0.000 OA
DOCKED: ATOM     31  O   UNL d   1     -10.846  14.816  -8.789 -0.62 +0.00    +0.000 OA
DOCKED: ENDROOT
DOCKED: BRANCH   6  32
DOCKED: ATOM     32  C   UNL d   1     -13.967  16.375  -3.545 -0.09 +0.01    +0.052 C 
DOCKED: BRANCH  32  33
DOCKED: ATOM     33  C   UNL d   1     -13.060  17.534  -3.144 -0.13 +0.04    +0.115 C 
DOCKED: BRANCH  33  34
DOCKED: ATOM     34  C   UNL d   1     -13.074  18.653  -4.156 -0.09 +0.06    +0.139 C 
DOCKED: ATOM     35  O   UNL d   1     -14.118  19.239  -4.394 +0.01 -0.18    -0.650 OA
DOCKED: BRANCH  34  36
DOCKED: ATOM     36  O   UNL d   1     -11.959  19.005  -4.830 +0.14 -0.60    -0.776 OA
DOCKED: ATOM     37  H   UNL d   1     -11.956  19.118  -5.787 +0.02 +0.19    +0.167 HD
DOCKED: ENDBRANCH  34  36
DOCKED: ENDBRANCH  33  34
DOCKED: ENDBRANCH  32  33
DOCKED: ENDBRANCH   6  32
DOCKED: BRANCH  22  38
DOCKED: ATOM     38  C   UNL d   1     -15.248  18.249  -8.512 -0.01 +0.01    +0.052 C 
DOCKED: BRANCH  38  39
DOCKED: ATOM     39  C   UNL d   1     -14.526  19.593  -8.571 -0.01 +0.03    +0.115 C 
DOCKED: BRANCH  39  40
DOCKED: ATOM     40  C   UNL d   1     -13.274  19.613  -7.731 -0.05 +0.08    +0.139 C 
DOCKED: ATOM     41  O   UNL d   1     -12.429  18.745  -7.881 -0.54 -0.98    -0.650 OA
DOCKED: BRANCH  40  42
DOCKED: ATOM     42  O   UNL d   1     -13.044  20.603  -6.847 +0.01 -0.32    -0.776 OA
DOCKED: ATOM     43  H   UNL d   1     -13.145  20.466  -5.898 +0.01 +0.06    +0.167 HD
DOCKED: ENDBRANCH  40  42
DOCKED: ENDBRANCH  39  40
DOCKED: ENDBRANCH  38  39
DOCKED: ENDBRANCH  22  38
DOCKED: BRANCH  12  44
DOCKED: ATOM     44  C   UNL d   1      -8.790   8.976  -7.478 -0.29 +0.00    +0.004 C 
DOCKED: ATOM     45  C   UNL d   1      -7.550   8.841  -7.947 -0.37 +0.00    +0.012 C 
DOCKED: ENDBRANCH  12  44
DOCKED: BRANCH  17  46
DOCKED: ATOM     46  C   UNL d   1     -11.140  13.850 -13.622 -0.05 +0.00    +0.004 C 
DOCKED: ATOM     47  C   UNL d   1     -10.582  14.963 -14.116 -0.06 +0.00    +0.012 C 
DOCKED: ENDBRANCH  17  46
DOCKED: TORSDOF 10
DOCKED: TER
DOCKED: ENDMDL
________________________________________________________________________________


	BEGINNING GENETIC ALGORITHM DOCKING 82 of 100
Run: 82 Seed: 1680443309 300048809 [ Run 82 of 100 GA/GALS ]
Beginning LAMARCKIAN GENETIC ALGORITHM (LGA), with a maximum of 25000000 energy evaluations.

Final-Value: -10.436


	FINAL GENETIC ALGORITHM DOCKED STATE
	_______________________________________________


Detailed state:  trans -10.150 10.915 -7.871 quatxyzw -0.598138 -0.093631 0.747505 -0.273314 center 8.287 34.468 -0.670 ntor 10 -28.1309 -123.1574 -27.3904 120.5657 79.1617 157.8236 179.5703 106.8169 -165.7567 179.9704
State:	-10.150  10.915  -7.871  -0.622 -0.097  0.777 -148.277    -28.13 -123.16  -27.39  120.57   79.16  157.82  179.57  106.82 -165.76  179.97

DOCKED: MODEL       82
DOCKED: USER    Run = 82
DOCKED: USER    DPF = D:/Protein_go_brrr/autodock/final/mut_K82N/heme_O2/dock.dpf
DOCKED: USER  
DOCKED: USER    Estimated Free Energy of Binding    =   -5.16 kcal/mol  [=(1)+(2)+(3)-(4)]
DOCKED: USER    Estimated Inhibition Constant, Ki   =  165.63 uM (micromolar)  [Temperature = 298.15 K]
DOCKED: USER    
DOCKED: USER    (1) Final Intermolecular Energy     =   -8.14 kcal/mol
DOCKED: USER        vdW + Hbond + desolv Energy     =   -6.00 kcal/mol
DOCKED: USER        Electrostatic Energy            =   -2.14 kcal/mol
DOCKED: USER    (2) Final Total Internal Energy     =   -2.30 kcal/mol
DOCKED: USER    (3) Torsional Free Energy           =   +2.98 kcal/mol
DOCKED: USER    (4) Unbound System's Energy  [=(2)] =   -2.30 kcal/mol
DOCKED: USER    
DOCKED: USER    
DOCKED: USER    NEWDPF move heme_O2_opt.pdbqt
DOCKED: USER    NEWDPF about 8.287000 34.468000 -0.670000
DOCKED: USER    NEWDPF tran0 -10.149804 10.914784 -7.870739
DOCKED: USER    NEWDPF quaternion0 -0.598138 -0.093631 0.747505 -0.273314
DOCKED: USER    NEWDPF axisangle0 -0.621813 -0.097337 0.777093 -148.276918
DOCKED: USER    NEWDPF quat0 -0.621813 -0.097337 0.777093 -148.276918
DOCKED: USER    NEWDPF dihe0 -28.13 -123.16 -27.39 120.57 79.16 157.82 179.57 106.82 -165.76 179.97 
DOCKED: USER  keepresnum = 1 
DOCKED: USER  
DOCKED: REMARK  10 active torsions:
DOCKED: REMARK  status: ('A' for Active; 'I' for Inactive)
DOCKED: REMARK    1  A    between atoms: C_6  and  C_10 
DOCKED: REMARK    2  A    between atoms: C_10  and  C_11 
DOCKED: REMARK    3  A    between atoms: C_11  and  C_12 
DOCKED: REMARK    4  A    between atoms: C_12  and  O_14 
DOCKED: REMARK    5  A    between atoms: C_17  and  C_20 
DOCKED: REMARK    6  A    between atoms: C_24  and  C_27 
DOCKED: REMARK    7  A    between atoms: C_31  and  C_34 
DOCKED: REMARK    8  A    between atoms: C_34  and  C_35 
DOCKED: REMARK    9  A    between atoms: C_35  and  C_36 
DOCKED: REMARK   10  A    between atoms: C_36  and  O_38 
DOCKED: USER                              x       y       z     vdW  Elec       q    Type
DOCKED: USER                           _______ _______ _______ _____ _____    ______ ____
DOCKED: ROOT
DOCKED: ATOM      1  C   UNL d   1      -9.319   9.290  -6.789 -0.23 +0.02    +0.064 A 
DOCKED: ATOM      2  C   UNL d   1     -12.174  12.867  -5.517 -0.14 +0.02    +0.064 A 
DOCKED: ATOM      3  C   UNL d   1     -12.072  14.656  -9.976 -0.13 +0.03    +0.064 C 
DOCKED: ATOM      4  C   UNL d   1      -9.523  10.718 -11.410 -0.08 +0.01    +0.064 A 
DOCKED: ATOM      5  C   UNL d   1     -10.106  10.116  -6.079 -0.22 +0.02    +0.066 A 
DOCKED: ATOM      6  C   UNL d   1     -10.377   9.960  -4.717 -0.31 -0.01    -0.021 A 
DOCKED: ATOM      7  C   UNL d   1     -11.238  10.970  -4.357 -0.22 -0.01    -0.025 A 
DOCKED: ATOM      8  C   UNL d   1     -11.431  11.744  -5.499 -0.16 +0.02    +0.066 A 
DOCKED: ATOM      9  C   UNL d   1     -11.851  11.138  -2.984 -0.23 +0.01    +0.051 C 
DOCKED: ATOM     10  C   UNL d   1     -12.394  13.731  -6.677 -0.13 +0.03    +0.066 A 
DOCKED: ATOM     11  C   UNL d   1     -13.038  14.971  -6.602 -0.10 -0.01    -0.021 A 
DOCKED: ATOM     12  C   UNL d   1     -13.003  15.511  -7.874 -0.10 +0.00    +0.000 A 
DOCKED: ATOM     13  C   UNL d   1     -12.335  14.543  -8.674 -0.13 +0.04    +0.070 A 
DOCKED: ATOM     14  C   UNL d   1     -13.638  15.626  -5.362 -0.11 +0.02    +0.052 C 
DOCKED: ATOM     15  C   UNL d   1     -11.430  13.685 -10.828 -0.10 +0.02    +0.066 A 
DOCKED: ATOM     16  C   UNL d   1     -11.331  13.793 -12.215 -0.07 -0.00    -0.021 A 
DOCKED: ATOM     17  C   UNL d   1     -10.608  12.680 -12.646 -0.07 +0.00    +0.000 A 
DOCKED: ATOM     18  C   UNL d   1     -10.316  11.969 -11.474 -0.01 +0.02    +0.070 A 
DOCKED: ATOM     19  C   UNL d   1     -11.974  14.907 -13.001 -0.04 +0.01    +0.052 C 
DOCKED: ATOM     20  C   UNL d   1      -9.261   9.987 -10.310 -0.11 +0.01    +0.066 A 
DOCKED: ATOM     21  C   UNL d   1      -8.493   8.826 -10.309 -0.12 -0.00    -0.025 A 
DOCKED: ATOM     22  C   UNL d   1      -8.401   8.420  -8.996 -0.18 -0.00    -0.021 A 
DOCKED: ATOM     23  C   UNL d   1      -9.135   9.343  -8.244 -0.17 +0.01    +0.066 A 
DOCKED: ATOM     24  C   UNL d   1      -7.880   8.137 -11.500 -0.14 +0.00    +0.051 C 
DOCKED: ATOM     25  N   UNL d   1     -10.785  11.179  -6.575 -0.09 -0.07    -0.248 N 
DOCKED: ATOM     26  N   UNL d   1     -11.972  13.461  -7.939 -0.09 -0.12    -0.248 N 
DOCKED: ATOM     27  N   UNL d   1     -10.886  12.553 -10.390 -0.08 -0.08    -0.248 N 
DOCKED: ATOM     28  N   UNL d   1      -9.693  10.268  -9.052 -0.08 -0.06    -0.248 N 
DOCKED: ATOM     29 FE   UNL d   1     -10.825  11.853  -8.502 -0.03 +0.00    +0.000 Fe
DOCKED: ATOM     30  O   UNL d   1     -12.182  11.270  -8.013 -0.06 +0.00    +0.000 OA
DOCKED: ATOM     31  O   UNL d   1     -11.688  10.974  -9.479 -0.05 +0.00    +0.000 OA
DOCKED: ENDROOT
DOCKED: BRANCH   6  32
DOCKED: ATOM     32  C   UNL d   1      -9.956   8.828  -3.816 -0.40 +0.02    +0.052 C 
DOCKED: BRANCH  32  33
DOCKED: ATOM     33  C   UNL d   1     -10.867   7.610  -3.929 -0.31 +0.07    +0.115 C 
DOCKED: BRANCH  33  34
DOCKED: ATOM     34  C   UNL d   1     -12.021   7.841  -4.873 -0.15 +0.09    +0.139 C 
DOCKED: ATOM     35  O   UNL d   1     -12.930   8.586  -4.544 +0.04 -0.25    -0.650 OA
DOCKED: BRANCH  34  36
DOCKED: ATOM     36  O   UNL d   1     -12.088   7.219  -6.068 -0.08 -0.74    -0.776 OA
DOCKED: ATOM     37  H   UNL d   1     -11.297   6.939  -6.543 +0.03 +0.19    +0.167 HD
DOCKED: ENDBRANCH  34  36
DOCKED: ENDBRANCH  33  34
DOCKED: ENDBRANCH  32  33
DOCKED: ENDBRANCH   6  32
DOCKED: BRANCH  22  38
DOCKED: ATOM     38  C   UNL d   1      -7.701   7.179  -8.507 -0.21 +0.01    +0.052 C 
DOCKED: BRANCH  38  39
DOCKED: ATOM     39  C   UNL d   1      -8.527   5.916  -8.736 -0.20 +0.05    +0.115 C 
DOCKED: BRANCH  39  40
DOCKED: ATOM     40  C   UNL d   1      -9.682   5.800  -7.772 -0.11 +0.15    +0.139 C 
DOCKED: ATOM     41  O   UNL d   1      -9.469   5.797  -6.570 -0.52 -0.96    -0.650 OA
DOCKED: BRANCH  40  42
DOCKED: ATOM     42  O   UNL d   1     -10.954   5.750  -8.213 -0.07 -0.88    -0.776 OA
DOCKED: ATOM     43  H   UNL d   1     -11.606   6.410  -7.949 +0.02 +0.16    +0.167 HD
DOCKED: ENDBRANCH  40  42
DOCKED: ENDBRANCH  39  40
DOCKED: ENDBRANCH  38  39
DOCKED: ENDBRANCH  22  38
DOCKED: BRANCH  12  44
DOCKED: ATOM     44  C   UNL d   1     -13.602  16.866  -8.189 -0.08 +0.00    +0.004 C 
DOCKED: ATOM     45  C   UNL d   1     -13.192  17.750  -9.098 -0.08 +0.01    +0.012 C 
DOCKED: ENDBRANCH  12  44
DOCKED: BRANCH  17  46
DOCKED: ATOM     46  C   UNL d   1     -10.236  12.220 -14.030 -0.05 +0.00    +0.004 C 
DOCKED: ATOM     47  C   UNL d   1      -9.015  12.138 -14.575 -0.06 +0.00    +0.012 C 
DOCKED: ENDBRANCH  17  46
DOCKED: TORSDOF 10
DOCKED: TER
DOCKED: ENDMDL
________________________________________________________________________________


	BEGINNING GENETIC ALGORITHM DOCKING 83 of 100
Run: 83 Seed: 341708348 1952748670 [ Run 83 of 100 GA/GALS ]
Beginning LAMARCKIAN GENETIC ALGORITHM (LGA), with a maximum of 25000000 energy evaluations.

Final-Value: -10.357


	FINAL GENETIC ALGORITHM DOCKED STATE
	_______________________________________________


Detailed state:  trans 11.402 7.165 13.551 quatxyzw 0.386165 -0.689014 0.283455 -0.543865 center 8.287 34.468 -0.670 ntor 10 -135.0797 -105.2208 8.8958 -98.5680 28.1087 -168.3797 -75.8520 47.2034 -178.8110 170.5777
State:	 11.402   7.165  13.551   0.460 -0.821  0.338 -114.106   -135.08 -105.22    8.90  -98.57   28.11 -168.38  -75.85   47.20 -178.81  170.58

DOCKED: MODEL       83
DOCKED: USER    Run = 83
DOCKED: USER    DPF = D:/Protein_go_brrr/autodock/final/mut_K82N/heme_O2/dock.dpf
DOCKED: USER  
DOCKED: USER    Estimated Free Energy of Binding    =   -4.78 kcal/mol  [=(1)+(2)+(3)-(4)]
DOCKED: USER    Estimated Inhibition Constant, Ki   =  315.19 uM (micromolar)  [Temperature = 298.15 K]
DOCKED: USER    
DOCKED: USER    (1) Final Intermolecular Energy     =   -7.76 kcal/mol
DOCKED: USER        vdW + Hbond + desolv Energy     =   -6.58 kcal/mol
DOCKED: USER        Electrostatic Energy            =   -1.18 kcal/mol
DOCKED: USER    (2) Final Total Internal Energy     =   -2.60 kcal/mol
DOCKED: USER    (3) Torsional Free Energy           =   +2.98 kcal/mol
DOCKED: USER    (4) Unbound System's Energy  [=(2)] =   -2.60 kcal/mol
DOCKED: USER    
DOCKED: USER    
DOCKED: USER    NEWDPF move heme_O2_opt.pdbqt
DOCKED: USER    NEWDPF about 8.287000 34.468000 -0.670000
DOCKED: USER    NEWDPF tran0 11.401721 7.164969 13.550643
DOCKED: USER    NEWDPF quaternion0 0.386165 -0.689014 0.283455 -0.543865
DOCKED: USER    NEWDPF axisangle0 0.460174 -0.821063 0.337779 -114.105710
DOCKED: USER    NEWDPF quat0 0.460174 -0.821063 0.337779 -114.105710
DOCKED: USER    NEWDPF dihe0 -135.08 -105.22 8.90 -98.57 28.11 -168.38 -75.85 47.20 -178.81 170.58 
DOCKED: USER  keepresnum = 1 
DOCKED: USER  
DOCKED: REMARK  10 active torsions:
DOCKED: REMARK  status: ('A' for Active; 'I' for Inactive)
DOCKED: REMARK    1  A    between atoms: C_6  and  C_10 
DOCKED: REMARK    2  A    between atoms: C_10  and  C_11 
DOCKED: REMARK    3  A    between atoms: C_11  and  C_12 
DOCKED: REMARK    4  A    between atoms: C_12  and  O_14 
DOCKED: REMARK    5  A    between atoms: C_17  and  C_20 
DOCKED: REMARK    6  A    between atoms: C_24  and  C_27 
DOCKED: REMARK    7  A    between atoms: C_31  and  C_34 
DOCKED: REMARK    8  A    between atoms: C_34  and  C_35 
DOCKED: REMARK    9  A    between atoms: C_35  and  C_36 
DOCKED: REMARK   10  A    between atoms: C_36  and  O_38 
DOCKED: USER                              x       y       z     vdW  Elec       q    Type
DOCKED: USER                           _______ _______ _______ _____ _____    ______ ____
DOCKED: ROOT
DOCKED: ATOM      1  C   UNL d   1      11.526   8.558  11.956 -0.08 +0.00    +0.064 A 
DOCKED: ATOM      2  C   UNL d   1      11.722   3.814  12.095 -0.09 -0.00    +0.064 A 
DOCKED: ATOM      3  C   UNL d   1      11.240   3.843  16.876 -0.19 -0.00    +0.064 C 
DOCKED: ATOM      4  C   UNL d   1      10.558   8.697  16.697 -0.05 -0.00    +0.064 A 
DOCKED: ATOM      5  C   UNL d   1      11.617   7.265  11.603 -0.10 +0.00    +0.066 A 
DOCKED: ATOM      6  C   UNL d   1      11.793   6.823  10.289 -0.11 -0.00    -0.021 A 
DOCKED: ATOM      7  C   UNL d   1      11.806   5.448  10.323 -0.16 +0.00    -0.025 A 
DOCKED: ATOM      8  C   UNL d   1      11.687   5.089  11.663 -0.15 -0.00    +0.066 A 
DOCKED: ATOM      9  C   UNL d   1      11.900   4.553   9.106 -0.22 -0.00    +0.051 C 
DOCKED: ATOM     10  C   UNL d   1      11.625   3.378  13.489 -0.17 -0.01    +0.066 A 
DOCKED: ATOM     11  C   UNL d   1      11.831   2.056  13.897 -0.25 +0.00    -0.021 A 
DOCKED: ATOM     12  C   UNL d   1      11.714   2.047  15.275 -0.29 -0.00    +0.000 A 
DOCKED: ATOM     13  C   UNL d   1      11.424   3.392  15.636 -0.21 -0.01    +0.070 A 
DOCKED: ATOM     14  C   UNL d   1      12.154   0.857  13.014 -0.34 -0.01    +0.052 C 
DOCKED: ATOM     15  C   UNL d   1      10.911   5.188  17.280 -0.13 +0.00    +0.066 A 
DOCKED: ATOM     16  C   UNL d   1      10.569   5.563  18.579 -0.15 -0.00    -0.021 A 
DOCKED: ATOM     17  C   UNL d   1      10.369   6.943  18.552 -0.08 +0.00    +0.000 A 
DOCKED: ATOM     18  C   UNL d   1      10.609   7.312  17.221 -0.07 -0.00    +0.070 A 
DOCKED: ATOM     19  C   UNL d   1      10.411   4.573  19.706 -0.20 +0.01    +0.052 C 
DOCKED: ATOM     20  C   UNL d   1      10.740   9.081  15.419 -0.09 -0.00    +0.066 A 
DOCKED: ATOM     21  C   UNL d   1      10.697  10.404  14.987 -0.08 -0.00    -0.025 A 
DOCKED: ATOM     22  C   UNL d   1      10.998  10.386  13.644 -0.08 -0.00    -0.021 A 
DOCKED: ATOM     23  C   UNL d   1      11.196   9.045  13.300 -0.10 +0.00    +0.066 A 
DOCKED: ATOM     24  C   UNL d   1      10.382  11.623  15.815 -0.06 -0.00    +0.051 C 
DOCKED: ATOM     25  N   UNL d   1      11.504   6.207  12.444 -0.09 +0.01    -0.248 N 
DOCKED: ATOM     26  N   UNL d   1      11.367   4.194  14.542 -0.13 +0.03    -0.248 N 
DOCKED: ATOM     27  N   UNL d   1      10.863   6.225  16.449 -0.07 +0.01    -0.248 N 
DOCKED: ATOM     28  N   UNL d   1      10.994   8.252  14.372 -0.07 -0.00    -0.248 N 
DOCKED: ATOM     29 FE   UNL d   1      11.178   6.238  14.459 -0.03 -0.00    +0.000 Fe
DOCKED: ATOM     30  O   UNL d   1       9.990   5.656  13.639 -0.35 -0.00    +0.000 OA
DOCKED: ATOM     31  O   UNL d   1       9.703   6.595  14.872 -0.38 -0.00    +0.000 OA
DOCKED: ENDROOT
DOCKED: BRANCH   6  32
DOCKED: ATOM     32  C   UNL d   1      11.810   7.651   9.031 -0.10 +0.00    +0.052 C 
DOCKED: BRANCH  32  33
DOCKED: ATOM     33  C   UNL d   1      10.449   7.714   8.344 -0.22 +0.02    +0.115 C 
DOCKED: BRANCH  33  34
DOCKED: ATOM     34  C   UNL d   1       9.732   9.015   8.605 -0.14 +0.06    +0.139 C 
DOCKED: ATOM     35  O   UNL d   1       8.621   9.001   9.112 -0.02 -0.33    -0.650 OA
DOCKED: BRANCH  34  36
DOCKED: ATOM     36  O   UNL d   1      10.279  10.200   8.266 -0.10 -0.48    -0.776 OA
DOCKED: ATOM     37  H   UNL d   1      10.274  10.956   8.864 +0.03 +0.10    +0.167 HD
DOCKED: ENDBRANCH  34  36
DOCKED: ENDBRANCH  33  34
DOCKED: ENDBRANCH  32  33
DOCKED: ENDBRANCH   6  32
DOCKED: BRANCH  22  38
DOCKED: ATOM     38  C   UNL d   1      11.028  11.587  12.734 -0.07 +0.00    +0.052 C 
DOCKED: BRANCH  38  39
DOCKED: ATOM     39  C   UNL d   1       9.659  11.894  12.131 -0.07 +0.01    +0.115 C 
DOCKED: BRANCH  39  40
DOCKED: ATOM     40  C   UNL d   1       9.730  12.168  10.650 -0.12 +0.04    +0.139 C 
DOCKED: ATOM     41  O   UNL d   1      10.776  12.556  10.155 +0.02 -0.13    -0.650 OA
DOCKED: BRANCH  40  42
DOCKED: ATOM     42  O   UNL d   1       8.670  11.944   9.849 -0.40 -0.74    -0.776 OA
DOCKED: ATOM     43  H   UNL d   1       8.621  11.164   9.283 +0.07 +0.24    +0.167 HD
DOCKED: ENDBRANCH  40  42
DOCKED: ENDBRANCH  39  40
DOCKED: ENDBRANCH  38  39
DOCKED: ENDBRANCH  22  38
DOCKED: BRANCH  12  44
DOCKED: ATOM     44  C   UNL d   1      11.884   0.781  16.088 -0.38 -0.00    +0.004 C 
DOCKED: ATOM     45  C   UNL d   1      11.717   0.622  17.400 -0.39 -0.00    +0.012 C 
DOCKED: ENDBRANCH  12  44
DOCKED: BRANCH  17  46
DOCKED: ATOM     46  C   UNL d   1       9.929   7.899  19.629 -0.05 +0.00    +0.004 C 
DOCKED: ATOM     47  C   UNL d   1       8.735   8.489  19.776 -0.04 +0.00    +0.012 C 
DOCKED: ENDBRANCH  17  46
DOCKED: TORSDOF 10
DOCKED: TER
DOCKED: ENDMDL
________________________________________________________________________________


	BEGINNING GENETIC ALGORITHM DOCKING 84 of 100
Run: 84 Seed: 966669777 1780436478 [ Run 84 of 100 GA/GALS ]
Beginning LAMARCKIAN GENETIC ALGORITHM (LGA), with a maximum of 25000000 energy evaluations.

Final-Value: -8.961


	FINAL GENETIC ALGORITHM DOCKED STATE
	_______________________________________________


Detailed state:  trans 12.686 -5.626 3.093 quatxyzw -0.808632 -0.310259 -0.472147 -0.164105 center 8.287 34.468 -0.670 ntor 10 159.3337 -18.5440 -58.0360 88.4686 146.5693 135.8204 -66.9996 -4.5575 -149.3317 158.8642
State:	 12.686  -5.626   3.093  -0.820 -0.315 -0.479 -161.109    159.33  -18.54  -58.04   88.47  146.57  135.82  -67.00   -4.56 -149.33  158.86

DOCKED: MODEL       84
DOCKED: USER    Run = 84
DOCKED: USER    DPF = D:/Protein_go_brrr/autodock/final/mut_K82N/heme_O2/dock.dpf
DOCKED: USER  
DOCKED: USER    Estimated Free Energy of Binding    =   -3.69 kcal/mol  [=(1)+(2)+(3)-(4)]
DOCKED: USER    Estimated Inhibition Constant, Ki   =    1.96 mM (millimolar)  [Temperature = 298.15 K]
DOCKED: USER    
DOCKED: USER    (1) Final Intermolecular Energy     =   -6.68 kcal/mol
DOCKED: USER        vdW + Hbond + desolv Energy     =   -6.47 kcal/mol
DOCKED: USER        Electrostatic Energy            =   -0.21 kcal/mol
DOCKED: USER    (2) Final Total Internal Energy     =   -2.28 kcal/mol
DOCKED: USER    (3) Torsional Free Energy           =   +2.98 kcal/mol
DOCKED: USER    (4) Unbound System's Energy  [=(2)] =   -2.28 kcal/mol
DOCKED: USER    
DOCKED: USER    
DOCKED: USER    NEWDPF move heme_O2_opt.pdbqt
DOCKED: USER    NEWDPF about 8.287000 34.468000 -0.670000
DOCKED: USER    NEWDPF tran0 12.686063 -5.625759 3.093130
DOCKED: USER    NEWDPF quaternion0 -0.808632 -0.310259 -0.472147 -0.164105
DOCKED: USER    NEWDPF axisangle0 -0.819745 -0.314523 -0.478636 -161.109491
DOCKED: USER    NEWDPF quat0 -0.819745 -0.314523 -0.478636 -161.109491
DOCKED: USER    NEWDPF dihe0 159.33 -18.54 -58.04 88.47 146.57 135.82 -67.00 -4.56 -149.33 158.86 
DOCKED: USER  keepresnum = 1 
DOCKED: USER  
DOCKED: REMARK  10 active torsions:
DOCKED: REMARK  status: ('A' for Active; 'I' for Inactive)
DOCKED: REMARK    1  A    between atoms: C_6  and  C_10 
DOCKED: REMARK    2  A    between atoms: C_10  and  C_11 
DOCKED: REMARK    3  A    between atoms: C_11  and  C_12 
DOCKED: REMARK    4  A    between atoms: C_12  and  O_14 
DOCKED: REMARK    5  A    between atoms: C_17  and  C_20 
DOCKED: REMARK    6  A    between atoms: C_24  and  C_27 
DOCKED: REMARK    7  A    between atoms: C_31  and  C_34 
DOCKED: REMARK    8  A    between atoms: C_34  and  C_35 
DOCKED: REMARK    9  A    between atoms: C_35  and  C_36 
DOCKED: REMARK   10  A    between atoms: C_36  and  O_38 
DOCKED: USER                              x       y       z     vdW  Elec       q    Type
DOCKED: USER                           _______ _______ _______ _____ _____    ______ ____
DOCKED: ROOT
DOCKED: ATOM      1  C   UNL d   1      11.876  -7.175   1.892 -0.22 +0.00    +0.064 A 
DOCKED: ATOM      2  C   UNL d   1      12.963  -2.642   0.979 -0.19 -0.00    +0.064 A 
DOCKED: ATOM      3  C   UNL d   1      14.393  -1.974   5.518 -0.16 +0.01    +0.064 C 
DOCKED: ATOM      4  C   UNL d   1      13.727  -6.764   6.346 -0.22 +0.01    +0.064 A 
DOCKED: ATOM      5  C   UNL d   1      12.056  -5.997   1.272 -0.20 -0.00    +0.066 A 
DOCKED: ATOM      6  C   UNL d   1      11.736  -5.760  -0.067 -0.18 +0.00    -0.021 A 
DOCKED: ATOM      7  C   UNL d   1      12.091  -4.460  -0.345 -0.18 -0.00    -0.025 A 
DOCKED: ATOM      8  C   UNL d   1      12.573  -3.925   0.847 -0.18 -0.00    +0.066 A 
DOCKED: ATOM      9  C   UNL d   1      11.987  -3.806  -1.705 -0.23 +0.02    +0.051 C 
DOCKED: ATOM     10  C   UNL d   1      13.456  -2.018   2.207 -0.11 +0.00    +0.066 A 
DOCKED: ATOM     11  C   UNL d   1      13.691  -0.644   2.331 -0.15 -0.00    -0.021 A 
DOCKED: ATOM     12  C   UNL d   1      14.087  -0.429   3.639 -0.12 +0.00    +0.000 A 
DOCKED: ATOM     13  C   UNL d   1      14.082  -1.714   4.248 -0.06 +0.01    +0.070 A 
DOCKED: ATOM     14  C   UNL d   1      13.520   0.422   1.256 -0.16 +0.01    +0.052 C 
DOCKED: ATOM     15  C   UNL d   1      14.434  -3.265   6.163 -0.17 +0.01    +0.066 A 
DOCKED: ATOM     16  C   UNL d   1      14.925  -3.490   7.449 -0.17 -0.00    -0.021 A 
DOCKED: ATOM     17  C   UNL d   1      14.746  -4.849   7.707 -0.22 +0.00    +0.000 A 
DOCKED: ATOM     18  C   UNL d   1      14.150  -5.357   6.544 -0.21 +0.01    +0.070 A 
DOCKED: ATOM     19  C   UNL d   1      15.565  -2.411   8.286 -0.12 -0.00    +0.052 C 
DOCKED: ATOM     20  C   UNL d   1      13.192  -7.294   5.229 -0.22 +0.01    +0.066 A 
DOCKED: ATOM     21  C   UNL d   1      12.797  -8.623   5.108 -0.26 -0.00    -0.025 A 
DOCKED: ATOM     22  C   UNL d   1      12.242  -8.752   3.854 -0.28 -0.00    -0.021 A 
DOCKED: ATOM     23  C   UNL d   1      12.336  -7.495   3.248 -0.17 +0.01    +0.066 A 
DOCKED: ATOM     24  C   UNL d   1      12.945  -9.716   6.134 -0.17 +0.01    +0.051 C 
DOCKED: ATOM     25  N   UNL d   1      12.613  -4.891   1.825 -0.13 +0.01    -0.248 N 
DOCKED: ATOM     26  N   UNL d   1      13.701  -2.676   3.369 -0.07 -0.01    -0.248 N 
DOCKED: ATOM     27  N   UNL d   1      14.037  -4.397   5.591 -0.14 -0.03    -0.248 N 
DOCKED: ATOM     28  N   UNL d   1      12.955  -6.623   4.070 -0.13 -0.03    -0.248 N 
DOCKED: ATOM     29 FE   UNL d   1      13.327  -4.664   3.725 -0.05 +0.00    +0.000 Fe
DOCKED: ATOM     30  O   UNL d   1      14.431  -4.617   2.629 -0.11 +0.00    +0.000 OA
DOCKED: ATOM     31  O   UNL d   1      14.709  -5.367   3.986 -0.11 +0.00    +0.000 OA
DOCKED: ENDROOT
DOCKED: BRANCH   6  32
DOCKED: ATOM     32  C   UNL d   1      11.244  -6.752  -1.089 -0.15 +0.00    +0.052 C 
DOCKED: BRANCH  32  33
DOCKED: ATOM     33  C   UNL d   1      12.279  -7.824  -1.419 -0.05 +0.00    +0.115 C 
DOCKED: BRANCH  33  34
DOCKED: ATOM     34  C   UNL d   1      11.880  -9.186  -0.905 -0.06 +0.00    +0.139 C 
DOCKED: ATOM     35  O   UNL d   1      10.867  -9.305  -0.234 +0.02 -0.03    -0.650 OA
DOCKED: BRANCH  34  36
DOCKED: ATOM     36  O   UNL d   1      12.634 -10.277  -1.148 +0.04 -0.02    -0.776 OA
DOCKED: ATOM     37  H   UNL d   1      12.567 -11.075  -0.610 +0.02 +0.01    +0.167 HD
DOCKED: ENDBRANCH  34  36
DOCKED: ENDBRANCH  33  34
DOCKED: ENDBRANCH  32  33
DOCKED: ENDBRANCH   6  32
DOCKED: BRANCH  22  38
DOCKED: ATOM     38  C   UNL d   1      11.712 -10.029   3.255 -0.25 +0.01    +0.052 C 
DOCKED: BRANCH  38  39
DOCKED: ATOM     39  C   UNL d   1      12.714 -10.687   2.309 -0.10 +0.01    +0.115 C 
DOCKED: BRANCH  39  40
DOCKED: ATOM     40  C   UNL d   1      12.243 -12.032   1.816 -0.09 +0.02    +0.139 C 
DOCKED: ATOM     41  O   UNL d   1      12.357 -13.014   2.531 -0.00 -0.15    -0.650 OA
DOCKED: BRANCH  40  42
DOCKED: ATOM     42  O   UNL d   1      11.648 -12.163   0.614 +0.04 -0.09    -0.776 OA
DOCKED: ATOM     43  H   UNL d   1      11.304 -11.400   0.135 +0.03 +0.01    +0.167 HD
DOCKED: ENDBRANCH  40  42
DOCKED: ENDBRANCH  39  40
DOCKED: ENDBRANCH  38  39
DOCKED: ENDBRANCH  22  38
DOCKED: BRANCH  12  44
DOCKED: ATOM     44  C   UNL d   1      14.426   0.952   4.159 -0.09 +0.00    +0.004 C 
DOCKED: ATOM     45  C   UNL d   1      13.816   1.634   5.128 -0.13 +0.00    +0.012 C 
DOCKED: ENDBRANCH  12  44
DOCKED: BRANCH  17  46
DOCKED: ATOM     46  C   UNL d   1      15.132  -5.689   8.895 -0.26 +0.00    +0.004 C 
DOCKED: ATOM     47  C   UNL d   1      14.484  -5.825  10.059 -0.37 -0.00    +0.012 C 
DOCKED: ENDBRANCH  17  46
DOCKED: TORSDOF 10
DOCKED: TER
DOCKED: ENDMDL
________________________________________________________________________________


	BEGINNING GENETIC ALGORITHM DOCKING 85 of 100
Run: 85 Seed: 651457006 535708123 [ Run 85 of 100 GA/GALS ]
Beginning LAMARCKIAN GENETIC ALGORITHM (LGA), with a maximum of 25000000 energy evaluations.

Final-Value: -8.352


	FINAL GENETIC ALGORITHM DOCKED STATE
	_______________________________________________


Detailed state:  trans 11.916 14.487 -1.715 quatxyzw 0.011067 0.503706 -0.262118 -0.823075 center 8.287 34.468 -0.670 ntor 10 -66.7033 19.9378 -31.9855 108.3326 -104.4192 98.9304 143.8746 121.9696 -144.2908 0.9186
State:	 11.916  14.487  -1.715   0.019  0.887 -0.462 -69.212    -66.70   19.94  -31.99  108.33 -104.42   98.93  143.87  121.97 -144.29    0.92

DOCKED: MODEL       85
DOCKED: USER    Run = 85
DOCKED: USER    DPF = D:/Protein_go_brrr/autodock/final/mut_K82N/heme_O2/dock.dpf
DOCKED: USER  
DOCKED: USER    Estimated Free Energy of Binding    =   -4.51 kcal/mol  [=(1)+(2)+(3)-(4)]
DOCKED: USER    Estimated Inhibition Constant, Ki   =  498.03 uM (micromolar)  [Temperature = 298.15 K]
DOCKED: USER    
DOCKED: USER    (1) Final Intermolecular Energy     =   -7.49 kcal/mol
DOCKED: USER        vdW + Hbond + desolv Energy     =   -7.82 kcal/mol
DOCKED: USER        Electrostatic Energy            =   +0.33 kcal/mol
DOCKED: USER    (2) Final Total Internal Energy     =   -0.86 kcal/mol
DOCKED: USER    (3) Torsional Free Energy           =   +2.98 kcal/mol
DOCKED: USER    (4) Unbound System's Energy  [=(2)] =   -0.86 kcal/mol
DOCKED: USER    
DOCKED: USER    
DOCKED: USER    NEWDPF move heme_O2_opt.pdbqt
DOCKED: USER    NEWDPF about 8.287000 34.468000 -0.670000
DOCKED: USER    NEWDPF tran0 11.916428 14.486879 -1.715182
DOCKED: USER    NEWDPF quaternion0 0.011067 0.503706 -0.262118 -0.823075
DOCKED: USER    NEWDPF axisangle0 0.019486 0.886911 -0.461529 -69.212465
DOCKED: USER    NEWDPF quat0 0.019486 0.886911 -0.461529 -69.212465
DOCKED: USER    NEWDPF dihe0 -66.70 19.94 -31.99 108.33 -104.42 98.93 143.87 121.97 -144.29 0.92 
DOCKED: USER  keepresnum = 1 
DOCKED: USER  
DOCKED: REMARK  10 active torsions:
DOCKED: REMARK  status: ('A' for Active; 'I' for Inactive)
DOCKED: REMARK    1  A    between atoms: C_6  and  C_10 
DOCKED: REMARK    2  A    between atoms: C_10  and  C_11 
DOCKED: REMARK    3  A    between atoms: C_11  and  C_12 
DOCKED: REMARK    4  A    between atoms: C_12  and  O_14 
DOCKED: REMARK    5  A    between atoms: C_17  and  C_20 
DOCKED: REMARK    6  A    between atoms: C_24  and  C_27 
DOCKED: REMARK    7  A    between atoms: C_31  and  C_34 
DOCKED: REMARK    8  A    between atoms: C_34  and  C_35 
DOCKED: REMARK    9  A    between atoms: C_35  and  C_36 
DOCKED: REMARK   10  A    between atoms: C_36  and  O_38 
DOCKED: USER                              x       y       z     vdW  Elec       q    Type
DOCKED: USER                           _______ _______ _______ _____ _____    ______ ____
DOCKED: ROOT
DOCKED: ATOM      1  C   UNL d   1      10.860  16.018  -0.696 -0.16 -0.01    +0.064 A 
DOCKED: ATOM      2  C   UNL d   1      13.123  12.126   0.819 -0.11 -0.00    +0.064 A 
DOCKED: ATOM      3  C   UNL d   1      14.248  10.913  -3.693 -0.28 -0.01    +0.064 C 
DOCKED: ATOM      4  C   UNL d   1      12.336  15.162  -5.226 -0.05 -0.01    +0.064 A 
DOCKED: ATOM      5  C   UNL d   1      11.385  15.059   0.085 -0.26 -0.01    +0.066 A 
DOCKED: ATOM      6  C   UNL d   1      11.260  15.027   1.476 -0.20 +0.00    -0.021 A 
DOCKED: ATOM      7  C   UNL d   1      11.951  13.924   1.920 -0.16 +0.00    -0.025 A 
DOCKED: ATOM      8  C   UNL d   1      12.439  13.286   0.782 -0.18 -0.00    +0.066 A 
DOCKED: ATOM      9  C   UNL d   1      12.139  13.547   3.373 -0.09 +0.00    +0.051 C 
DOCKED: ATOM     10  C   UNL d   1      13.640  11.399  -0.341 -0.04 -0.00    +0.066 A 
DOCKED: ATOM     11  C   UNL d   1      14.198  10.118  -0.260 -0.14 +0.00    -0.021 A 
DOCKED: ATOM     12  C   UNL d   1      14.513   9.743  -1.554 -0.20 -0.00    +0.000 A 
DOCKED: ATOM     13  C   UNL d   1      14.131  10.846  -2.367 -0.22 -0.01    +0.070 A 
DOCKED: ATOM     14  C   UNL d   1      14.398   9.276   0.994 -0.11 -0.00    +0.052 C 
DOCKED: ATOM     15  C   UNL d   1      13.906  12.023  -4.549 -0.23 -0.01    +0.066 A 
DOCKED: ATOM     16  C   UNL d   1      14.205  12.095  -5.909 -0.22 +0.00    -0.021 A 
DOCKED: ATOM     17  C   UNL d   1      13.670  13.298  -6.368 -0.24 -0.00    +0.000 A 
DOCKED: ATOM     18  C   UNL d   1      13.076  13.878  -5.238 -0.24 -0.01    +0.070 A 
DOCKED: ATOM     19  C   UNL d   1      15.013  11.045  -6.630 -0.15 -0.00    +0.052 C 
DOCKED: ATOM     20  C   UNL d   1      11.791  15.767  -4.153 -0.22 -0.01    +0.066 A 
DOCKED: ATOM     21  C   UNL d   1      11.090  16.969  -4.207 -0.19 +0.00    -0.025 A 
DOCKED: ATOM     22  C   UNL d   1      10.639  17.214  -2.930 -0.21 +0.00    -0.021 A 
DOCKED: ATOM     23  C   UNL d   1      11.098  16.158  -2.137 -0.17 -0.02    +0.066 A 
DOCKED: ATOM     24  C   UNL d   1      10.865  17.840  -5.416 -0.13 -0.00    +0.051 C 
DOCKED: ATOM     25  N   UNL d   1      12.146  14.022  -0.343 -0.20 +0.03    -0.248 N 
DOCKED: ATOM     26  N   UNL d   1      13.605  11.851  -1.621 -0.17 +0.04    -0.248 N 
DOCKED: ATOM     27  N   UNL d   1      13.294  13.127  -4.128 -0.13 +0.06    -0.248 N 
DOCKED: ATOM     28  N   UNL d   1      11.836  15.304  -2.876 -0.20 +0.06    -0.248 N 
DOCKED: ATOM     29 FE   UNL d   1      12.715  13.590  -2.256 -0.06 -0.00    +0.000 Fe
DOCKED: ATOM     30  O   UNL d   1      13.893  14.015  -1.330 -0.14 -0.00    +0.000 OA
DOCKED: ATOM     31  O   UNL d   1      13.848  14.523  -2.821 -0.14 -0.00    +0.000 OA
DOCKED: ENDROOT
DOCKED: BRANCH   6  32
DOCKED: ATOM     32  C   UNL d   1      10.632  16.064   2.371 -0.15 -0.00    +0.052 C 
DOCKED: BRANCH  32  33
DOCKED: ATOM     33  C   UNL d   1      11.319  17.423   2.275 -0.09 -0.01    +0.115 C 
DOCKED: BRANCH  33  34
DOCKED: ATOM     34  C   UNL d   1      12.817  17.302   2.144 -0.03 -0.01    +0.139 C 
DOCKED: ATOM     35  O   UNL d   1      13.346  17.494   1.061 +0.02 +0.04    -0.650 OA
DOCKED: BRANCH  34  36
DOCKED: ATOM     36  O   UNL d   1      13.589  16.957   3.195 +0.01 +0.04    -0.776 OA
DOCKED: ATOM     37  H   UNL d   1      13.690  17.528   3.965 +0.00 -0.01    +0.167 HD
DOCKED: ENDBRANCH  34  36
DOCKED: ENDBRANCH  33  34
DOCKED: ENDBRANCH  32  33
DOCKED: ENDBRANCH   6  32
DOCKED: BRANCH  22  38
DOCKED: ATOM     38  C   UNL d   1       9.865  18.430  -2.490 -0.22 -0.01    +0.052 C 
DOCKED: BRANCH  38  39
DOCKED: ATOM     39  C   UNL d   1       8.375  18.141  -2.316 -0.36 -0.02    +0.115 C 
DOCKED: BRANCH  39  40
DOCKED: ATOM     40  C   UNL d   1       7.732  17.645  -3.587 -0.43 -0.03    +0.139 C 
DOCKED: ATOM     41  O   UNL d   1       6.856  18.306  -4.121 -0.14 +0.12    -0.650 OA
DOCKED: BRANCH  40  42
DOCKED: ATOM     42  O   UNL d   1       8.143  16.506  -4.177 +0.04 +0.24    -0.776 OA
DOCKED: ATOM     43  H   UNL d   1       8.604  15.818  -3.680 -0.42 -0.12    +0.167 HD
DOCKED: ENDBRANCH  40  42
DOCKED: ENDBRANCH  39  40
DOCKED: ENDBRANCH  38  39
DOCKED: ENDBRANCH  22  38
DOCKED: BRANCH  12  44
DOCKED: ATOM     44  C   UNL d   1      15.135   8.401  -1.873 -0.18 -0.00    +0.004 C 
DOCKED: ATOM     45  C   UNL d   1      14.913   7.626  -2.934 -0.19 +0.00    +0.012 C 
DOCKED: ENDBRANCH  12  44
DOCKED: BRANCH  17  46
DOCKED: ATOM     46  C   UNL d   1      13.723  13.950  -7.724 -0.20 -0.00    +0.004 C 
DOCKED: ATOM     47  C   UNL d   1      12.770  13.985  -8.664 -0.25 +0.00    +0.012 C 
DOCKED: ENDBRANCH  17  46
DOCKED: TORSDOF 10
DOCKED: TER
DOCKED: ENDMDL
________________________________________________________________________________


	BEGINNING GENETIC ALGORITHM DOCKING 86 of 100
Run: 86 Seed: 1851977667 736798617 [ Run 86 of 100 GA/GALS ]
Beginning LAMARCKIAN GENETIC ALGORITHM (LGA), with a maximum of 25000000 energy evaluations.

Final-Value: -9.158


	FINAL GENETIC ALGORITHM DOCKED STATE
	_______________________________________________


Detailed state:  trans 7.313 -16.895 -4.725 quatxyzw 0.125796 0.059339 -0.894983 0.423863 center 8.287 34.468 -0.670 ntor 10 -168.8364 26.7461 -95.5298 53.9187 67.1496 -79.0365 -120.0564 -156.3200 -175.3371 159.1784
State:	  7.313 -16.895  -4.725   0.139  0.066 -0.988 129.843   -168.84   26.75  -95.53   53.92   67.15  -79.04 -120.06 -156.32 -175.34  159.18

DOCKED: MODEL       86
DOCKED: USER    Run = 86
DOCKED: USER    DPF = D:/Protein_go_brrr/autodock/final/mut_K82N/heme_O2/dock.dpf
DOCKED: USER  
DOCKED: USER    Estimated Free Energy of Binding    =   -3.80 kcal/mol  [=(1)+(2)+(3)-(4)]
DOCKED: USER    Estimated Inhibition Constant, Ki   =    1.65 mM (millimolar)  [Temperature = 298.15 K]
DOCKED: USER    
DOCKED: USER    (1) Final Intermolecular Energy     =   -6.78 kcal/mol
DOCKED: USER        vdW + Hbond + desolv Energy     =   -6.43 kcal/mol
DOCKED: USER        Electrostatic Energy            =   -0.35 kcal/mol
DOCKED: USER    (2) Final Total Internal Energy     =   -2.38 kcal/mol
DOCKED: USER    (3) Torsional Free Energy           =   +2.98 kcal/mol
DOCKED: USER    (4) Unbound System's Energy  [=(2)] =   -2.38 kcal/mol
DOCKED: USER    
DOCKED: USER    
DOCKED: USER    NEWDPF move heme_O2_opt.pdbqt
DOCKED: USER    NEWDPF about 8.287000 34.468000 -0.670000
DOCKED: USER    NEWDPF tran0 7.313193 -16.894786 -4.725114
DOCKED: USER    NEWDPF quaternion0 0.125796 0.059339 -0.894983 0.423863
DOCKED: USER    NEWDPF axisangle0 0.138890 0.065515 -0.988138 129.842623
DOCKED: USER    NEWDPF quat0 0.138890 0.065515 -0.988138 129.842623
DOCKED: USER    NEWDPF dihe0 -168.84 26.75 -95.53 53.92 67.15 -79.04 -120.06 -156.32 -175.34 159.18 
DOCKED: USER  keepresnum = 1 
DOCKED: USER  
DOCKED: REMARK  10 active torsions:
DOCKED: REMARK  status: ('A' for Active; 'I' for Inactive)
DOCKED: REMARK    1  A    between atoms: C_6  and  C_10 
DOCKED: REMARK    2  A    between atoms: C_10  and  C_11 
DOCKED: REMARK    3  A    between atoms: C_11  and  C_12 
DOCKED: REMARK    4  A    between atoms: C_12  and  O_14 
DOCKED: REMARK    5  A    between atoms: C_17  and  C_20 
DOCKED: REMARK    6  A    between atoms: C_24  and  C_27 
DOCKED: REMARK    7  A    between atoms: C_31  and  C_34 
DOCKED: REMARK    8  A    between atoms: C_34  and  C_35 
DOCKED: REMARK    9  A    between atoms: C_35  and  C_36 
DOCKED: REMARK   10  A    between atoms: C_36  and  O_38 
DOCKED: USER                              x       y       z     vdW  Elec       q    Type
DOCKED: USER                           _______ _______ _______ _____ _____    ______ ____
DOCKED: ROOT
DOCKED: ATOM      1  C   UNL d   1       8.225 -18.723  -5.295 -0.02 +0.01    +0.064 A 
DOCKED: ATOM      2  C   UNL d   1       8.516 -16.085  -1.357 -0.06 +0.01    +0.064 A 
DOCKED: ATOM      3  C   UNL d   1       5.513 -12.822  -3.209 -0.34 +0.03    +0.064 C 
DOCKED: ATOM      4  C   UNL d   1       4.830 -15.765  -7.074 -0.05 +0.04    +0.064 A 
DOCKED: ATOM      5  C   UNL d   1       8.548 -18.273  -4.072 -0.06 +0.01    +0.066 A 
DOCKED: ATOM      6  C   UNL d   1       9.428 -18.925  -3.205 -0.06 -0.00    -0.021 A 
DOCKED: ATOM      7  C   UNL d   1       9.480 -18.185  -2.047 -0.09 -0.00    -0.025 A 
DOCKED: ATOM      8  C   UNL d   1       8.667 -17.075  -2.258 -0.08 +0.01    +0.066 A 
DOCKED: ATOM      9  C   UNL d   1      10.258 -18.569  -0.808 -0.09 +0.00    +0.051 C 
DOCKED: ATOM     10  C   UNL d   1       7.696 -14.885  -1.530 -0.21 +0.01    +0.066 A 
DOCKED: ATOM     11  C   UNL d   1       7.703 -13.812  -0.633 -0.29 -0.00    -0.021 A 
DOCKED: ATOM     12  C   UNL d   1       6.857 -12.853  -1.158 -0.36 +0.00    +0.000 A 
DOCKED: ATOM     13  C   UNL d   1       6.361 -13.414  -2.368 -0.14 +0.02    +0.070 A 
DOCKED: ATOM     14  C   UNL d   1       8.505 -13.694   0.658 -0.33 +0.01    +0.052 C 
DOCKED: ATOM     15  C   UNL d   1       4.959 -13.370  -4.424 -0.23 +0.06    +0.066 A 
DOCKED: ATOM     16  C   UNL d   1       3.951 -12.767  -5.176 -0.29 -0.02    -0.021 A 
DOCKED: ATOM     17  C   UNL d   1       3.739 -13.589  -6.282 -0.21 +0.00    +0.000 A 
DOCKED: ATOM     18  C   UNL d   1       4.648 -14.644  -6.122 -0.09 +0.07    +0.070 A 
DOCKED: ATOM     19  C   UNL d   1       3.249 -11.503  -4.746 -0.37 +0.03    +0.052 C 
DOCKED: ATOM     20  C   UNL d   1       5.661 -16.816  -6.931 -0.02 +0.02    +0.066 A 
DOCKED: ATOM     21  C   UNL d   1       5.803 -17.833  -7.870 +0.00 -0.00    -0.025 A 
DOCKED: ATOM     22  C   UNL d   1       6.786 -18.670  -7.393 +0.00 -0.00    -0.021 A 
DOCKED: ATOM     23  C   UNL d   1       7.196 -18.141  -6.165 -0.01 +0.01    +0.066 A 
DOCKED: ATOM     24  C   UNL d   1       5.037 -17.999  -9.157 +0.01 +0.01    +0.051 C 
DOCKED: ATOM     25  N   UNL d   1       8.042 -17.163  -3.480 -0.07 -0.04    -0.248 N 
DOCKED: ATOM     26  N   UNL d   1       6.872 -14.652  -2.584 -0.10 -0.05    -0.248 N 
DOCKED: ATOM     27  N   UNL d   1       5.327 -14.534  -4.952 -0.09 -0.24    -0.248 N 
DOCKED: ATOM     28  N   UNL d   1       6.478 -17.038  -5.867 -0.02 -0.08    -0.248 N 
DOCKED: ATOM     29 FE   UNL d   1       6.672 -15.852  -4.238 -0.03 +0.00    +0.000 Fe
DOCKED: ATOM     30  O   UNL d   1       6.146 -16.682  -3.031 -0.32 +0.00    +0.000 OA
DOCKED: ATOM     31  O   UNL d   1       5.196 -16.395  -4.254 -0.71 +0.00    +0.000 OA
DOCKED: ENDROOT
DOCKED: BRANCH   6  32
DOCKED: ATOM     32  C   UNL d   1      10.091 -20.265  -3.398 -0.03 +0.00    +0.052 C 
DOCKED: BRANCH  32  33
DOCKED: ATOM     33  C   UNL d   1       9.278 -21.417  -2.816 -0.04 +0.00    +0.115 C 
DOCKED: BRANCH  33  34
DOCKED: ATOM     34  C   UNL d   1       7.891 -21.498  -3.405 -0.07 +0.01    +0.139 C 
DOCKED: ATOM     35  O   UNL d   1       7.000 -20.802  -2.945 -0.21 -0.11    -0.650 OA
DOCKED: BRANCH  34  36
DOCKED: ATOM     36  O   UNL d   1       7.603 -22.346  -4.413 +0.02 -0.03    -0.776 OA
DOCKED: ATOM     37  H   UNL d   1       6.775 -22.295  -4.903 +0.01 +0.01    +0.167 HD
DOCKED: ENDBRANCH  34  36
DOCKED: ENDBRANCH  33  34
DOCKED: ENDBRANCH  32  33
DOCKED: ENDBRANCH   6  32
DOCKED: BRANCH  22  38
DOCKED: ATOM     38  C   UNL d   1       7.254 -19.942  -8.053 +0.00 +0.00    +0.052 C 
DOCKED: BRANCH  38  39
DOCKED: ATOM     39  C   UNL d   1       6.614 -21.185  -7.439 +0.00 +0.01    +0.115 C 
DOCKED: BRANCH  39  40
DOCKED: ATOM     40  C   UNL d   1       5.317 -20.878  -6.735 -0.01 +0.01    +0.139 C 
DOCKED: ATOM     41  O   UNL d   1       4.356 -20.488  -7.378 +0.02 -0.08    -0.650 OA
DOCKED: BRANCH  40  42
DOCKED: ATOM     42  O   UNL d   1       5.181 -21.076  -5.409 +0.04 -0.10    -0.776 OA
DOCKED: ATOM     43  H   UNL d   1       5.933 -21.005  -4.809 +0.02 +0.02    +0.167 HD
DOCKED: ENDBRANCH  40  42
DOCKED: ENDBRANCH  39  40
DOCKED: ENDBRANCH  38  39
DOCKED: ENDBRANCH  22  38
DOCKED: BRANCH  12  44
DOCKED: ATOM     44  C   UNL d   1       6.612 -11.529  -0.465 -0.53 +0.00    +0.004 C 
DOCKED: ATOM     45  C   UNL d   1       7.386 -10.445  -0.473 -0.33 +0.00    +0.012 C 
DOCKED: ENDBRANCH  12  44
DOCKED: BRANCH  17  46
DOCKED: ATOM     46  C   UNL d   1       2.744 -13.493  -7.408 -0.24 +0.00    +0.004 C 
DOCKED: ATOM     47  C   UNL d   1       2.433 -12.422  -8.150 -0.39 +0.00    +0.012 C 
DOCKED: ENDBRANCH  17  46
DOCKED: TORSDOF 10
DOCKED: TER
DOCKED: ENDMDL
________________________________________________________________________________


	BEGINNING GENETIC ALGORITHM DOCKING 87 of 100
Run: 87 Seed: 692047624 1351655497 [ Run 87 of 100 GA/GALS ]
Beginning LAMARCKIAN GENETIC ALGORITHM (LGA), with a maximum of 25000000 energy evaluations.

Final-Value: -8.840


	FINAL GENETIC ALGORITHM DOCKED STATE
	_______________________________________________


Detailed state:  trans 11.752 -11.045 1.681 quatxyzw 0.066746 -0.025504 -0.672075 0.737028 center 8.287 34.468 -0.670 ntor 10 -80.7541 48.9340 65.7549 -62.4785 -56.6468 123.3330 70.3879 120.0484 -165.9440 -162.4223
State:	 11.752 -11.045   1.681   0.099 -0.038 -0.994 85.042    -80.75   48.93   65.75  -62.48  -56.65  123.33   70.39  120.05 -165.94 -162.42

DOCKED: MODEL       87
DOCKED: USER    Run = 87
DOCKED: USER    DPF = D:/Protein_go_brrr/autodock/final/mut_K82N/heme_O2/dock.dpf
DOCKED: USER  
DOCKED: USER    Estimated Free Energy of Binding    =   -5.17 kcal/mol  [=(1)+(2)+(3)-(4)]
DOCKED: USER    Estimated Inhibition Constant, Ki   =  163.42 uM (micromolar)  [Temperature = 298.15 K]
DOCKED: USER    
DOCKED: USER    (1) Final Intermolecular Energy     =   -8.15 kcal/mol
DOCKED: USER        vdW + Hbond + desolv Energy     =   -7.16 kcal/mol
DOCKED: USER        Electrostatic Energy            =   -0.99 kcal/mol
DOCKED: USER    (2) Final Total Internal Energy     =   -0.69 kcal/mol
DOCKED: USER    (3) Torsional Free Energy           =   +2.98 kcal/mol
DOCKED: USER    (4) Unbound System's Energy  [=(2)] =   -0.69 kcal/mol
DOCKED: USER    
DOCKED: USER    
DOCKED: USER    NEWDPF move heme_O2_opt.pdbqt
DOCKED: USER    NEWDPF about 8.287000 34.468000 -0.670000
DOCKED: USER    NEWDPF tran0 11.751756 -11.045099 1.681135
DOCKED: USER    NEWDPF quaternion0 0.066746 -0.025504 -0.672075 0.737028
DOCKED: USER    NEWDPF axisangle0 0.098757 -0.037736 -0.994396 85.042347
DOCKED: USER    NEWDPF quat0 0.098757 -0.037736 -0.994396 85.042347
DOCKED: USER    NEWDPF dihe0 -80.75 48.93 65.75 -62.48 -56.65 123.33 70.39 120.05 -165.94 -162.42 
DOCKED: USER  keepresnum = 1 
DOCKED: USER  
DOCKED: REMARK  10 active torsions:
DOCKED: REMARK  status: ('A' for Active; 'I' for Inactive)
DOCKED: REMARK    1  A    between atoms: C_6  and  C_10 
DOCKED: REMARK    2  A    between atoms: C_10  and  C_11 
DOCKED: REMARK    3  A    between atoms: C_11  and  C_12 
DOCKED: REMARK    4  A    between atoms: C_12  and  O_14 
DOCKED: REMARK    5  A    between atoms: C_17  and  C_20 
DOCKED: REMARK    6  A    between atoms: C_24  and  C_27 
DOCKED: REMARK    7  A    between atoms: C_31  and  C_34 
DOCKED: REMARK    8  A    between atoms: C_34  and  C_35 
DOCKED: REMARK    9  A    between atoms: C_35  and  C_36 
DOCKED: REMARK   10  A    between atoms: C_36  and  O_38 
DOCKED: USER                              x       y       z     vdW  Elec       q    Type
DOCKED: USER                           _______ _______ _______ _____ _____    ______ ____
DOCKED: ROOT
DOCKED: ATOM      1  C   UNL d   1      11.017 -12.945   1.089 -0.11 +0.01    +0.064 A 
DOCKED: ATOM      2  C   UNL d   1      13.646 -11.532   4.783 -0.08 +0.01    +0.064 A 
DOCKED: ATOM      3  C   UNL d   1      13.584  -6.992   3.209 -0.14 +0.00    +0.064 C 
DOCKED: ATOM      4  C   UNL d   1      10.479  -8.349  -0.337 -0.10 +0.00    +0.064 A 
DOCKED: ATOM      5  C   UNL d   1      11.736 -12.931   2.223 -0.11 +0.02    +0.066 A 
DOCKED: ATOM      6  C   UNL d   1      12.014 -14.067   2.987 -0.09 -0.01    -0.021 A 
DOCKED: ATOM      7  C   UNL d   1      12.739 -13.653   4.080 -0.02 -0.01    -0.025 A 
DOCKED: ATOM      8  C   UNL d   1      12.924 -12.282   3.928 -0.09 +0.02    +0.066 A 
DOCKED: ATOM      9  C   UNL d   1      13.189 -14.551   5.211 -0.08 +0.02    +0.051 C 
DOCKED: ATOM     10  C   UNL d   1      13.895 -10.095   4.664 -0.09 +0.01    +0.066 A 
DOCKED: ATOM     11  C   UNL d   1      14.785  -9.397   5.487 -0.07 -0.00    -0.021 A 
DOCKED: ATOM     12  C   UNL d   1      14.795  -8.089   5.038 -0.08 +0.00    +0.000 A 
DOCKED: ATOM     13  C   UNL d   1      13.880  -8.060   3.949 -0.10 +0.00    +0.070 A 
DOCKED: ATOM     14  C   UNL d   1      15.613  -9.959   6.637 -0.05 +0.00    +0.052 C 
DOCKED: ATOM     15  C   UNL d   1      12.638  -6.913   2.123 -0.16 +0.00    +0.066 A 
DOCKED: ATOM     16  C   UNL d   1      12.252  -5.729   1.495 -0.20 +0.00    -0.021 A 
DOCKED: ATOM     17  C   UNL d   1      11.366  -6.091   0.481 -0.25 -0.00    +0.000 A 
DOCKED: ATOM     18  C   UNL d   1      11.279  -7.488   0.565 -0.21 -0.00    +0.070 A 
DOCKED: ATOM     19  C   UNL d   1      12.715  -4.368   1.950 -0.08 -0.00    +0.052 C 
DOCKED: ATOM     20  C   UNL d   1      10.339  -9.687  -0.257 -0.17 +0.00    +0.066 A 
DOCKED: ATOM     21  C   UNL d   1       9.586 -10.447  -1.148 -0.16 -0.00    -0.025 A 
DOCKED: ATOM     22  C   UNL d   1       9.749 -11.762  -0.773 -0.12 -0.00    -0.021 A 
DOCKED: ATOM     23  C   UNL d   1      10.585 -11.754   0.348 -0.12 +0.01    +0.066 A 
DOCKED: ATOM     24  C   UNL d   1       8.750  -9.944  -2.296 -0.04 +0.01    +0.051 C 
DOCKED: ATOM     25  N   UNL d   1      12.250 -11.827   2.818 -0.08 -0.06    -0.248 N 
DOCKED: ATOM     26  N   UNL d   1      13.333  -9.283   3.732 -0.06 -0.02    -0.248 N 
DOCKED: ATOM     27  N   UNL d   1      11.998  -7.962   1.614 -0.12 -0.01    -0.248 N 
DOCKED: ATOM     28  N   UNL d   1      10.905 -10.487   0.685 -0.10 -0.02    -0.248 N 
DOCKED: ATOM     29 FE   UNL d   1      12.109  -9.887   2.196 -0.03 +0.00    +0.000 Fe
DOCKED: ATOM     30  O   UNL d   1      11.335 -10.182   3.514 -0.19 +0.00    +0.000 OA
DOCKED: ATOM     31  O   UNL d   1      10.699  -9.232   2.429 -0.40 +0.00    +0.000 OA
DOCKED: ENDROOT
DOCKED: BRANCH   6  32
DOCKED: ATOM     32  C   UNL d   1      11.505 -15.470   2.775 -0.11 +0.02    +0.052 C 
DOCKED: BRANCH  32  33
DOCKED: ATOM     33  C   UNL d   1      10.106 -15.684   3.344 -0.21 +0.06    +0.115 C 
DOCKED: BRANCH  33  34
DOCKED: ATOM     34  C   UNL d   1      10.103 -16.615   4.531 -0.19 +0.08    +0.139 C 
DOCKED: ATOM     35  O   UNL d   1       9.233 -16.508   5.380 -0.37 -0.56    -0.650 OA
DOCKED: BRANCH  34  36
DOCKED: ATOM     36  O   UNL d   1      11.060 -17.552   4.691 +0.06 -0.22    -0.776 OA
DOCKED: ATOM     37  H   UNL d   1      11.035 -18.394   4.222 +0.04 +0.02    +0.167 HD
DOCKED: ENDBRANCH  34  36
DOCKED: ENDBRANCH  33  34
DOCKED: ENDBRANCH  32  33
DOCKED: ENDBRANCH   6  32
DOCKED: BRANCH  22  38
DOCKED: ATOM     38  C   UNL d   1       9.085 -12.949  -1.421 -0.11 +0.01    +0.052 C 
DOCKED: BRANCH  38  39
DOCKED: ATOM     39  C   UNL d   1       7.561 -12.877  -1.344 -0.23 +0.02    +0.115 C 
DOCKED: BRANCH  39  40
DOCKED: ATOM     40  C   UNL d   1       7.056 -12.858   0.077 -0.42 +0.03    +0.139 C 
DOCKED: ATOM     41  O   UNL d   1       6.767 -13.906   0.631 -0.59 -0.31    -0.650 OA
DOCKED: BRANCH  40  42
DOCKED: ATOM     42  O   UNL d   1       6.966 -11.705   0.768 +0.03 -0.11    -0.776 OA
DOCKED: ATOM     43  H   UNL d   1       6.508 -10.936   0.409 -0.35 -0.01    +0.167 HD
DOCKED: ENDBRANCH  40  42
DOCKED: ENDBRANCH  39  40
DOCKED: ENDBRANCH  38  39
DOCKED: ENDBRANCH  22  38
DOCKED: BRANCH  12  44
DOCKED: ATOM     44  C   UNL d   1      15.656  -7.024   5.683 -0.06 +0.00    +0.004 C 
DOCKED: ATOM     45  C   UNL d   1      15.259  -5.903   6.284 -0.11 +0.00    +0.012 C 
DOCKED: ENDBRANCH  12  44
DOCKED: BRANCH  17  46
DOCKED: ATOM     46  C   UNL d   1      10.578  -5.252  -0.490 -0.34 -0.00    +0.004 C 
DOCKED: ATOM     47  C   UNL d   1       9.543  -4.441  -0.234 -0.48 -0.00    +0.012 C 
DOCKED: ENDBRANCH  17  46
DOCKED: TORSDOF 10
DOCKED: TER
DOCKED: ENDMDL
________________________________________________________________________________


	BEGINNING GENETIC ALGORITHM DOCKING 88 of 100
Run: 88 Seed: 384134184 2055037998 [ Run 88 of 100 GA/GALS ]
Beginning LAMARCKIAN GENETIC ALGORITHM (LGA), with a maximum of 25000000 energy evaluations.

Final-Value: -9.448


	FINAL GENETIC ALGORITHM DOCKED STATE
	_______________________________________________


Detailed state:  trans 12.988 11.028 0.572 quatxyzw 0.358745 0.705483 0.034144 -0.610270 center 8.287 34.468 -0.670 ntor 10 8.0725 127.7055 33.2378 111.2937 -126.6803 -120.5396 -179.6090 -89.8110 2.9978 -5.8796
State:	 12.988  11.028   0.572   0.453  0.891  0.043 -104.782      8.07  127.71   33.24  111.29 -126.68 -120.54 -179.61  -89.81    3.00   -5.88

DOCKED: MODEL       88
DOCKED: USER    Run = 88
DOCKED: USER    DPF = D:/Protein_go_brrr/autodock/final/mut_K82N/heme_O2/dock.dpf
DOCKED: USER  
DOCKED: USER    Estimated Free Energy of Binding    =   -4.10 kcal/mol  [=(1)+(2)+(3)-(4)]
DOCKED: USER    Estimated Inhibition Constant, Ki   =  990.59 uM (micromolar)  [Temperature = 298.15 K]
DOCKED: USER    
DOCKED: USER    (1) Final Intermolecular Energy     =   -7.08 kcal/mol
DOCKED: USER        vdW + Hbond + desolv Energy     =   -6.42 kcal/mol
DOCKED: USER        Electrostatic Energy            =   -0.67 kcal/mol
DOCKED: USER    (2) Final Total Internal Energy     =   -2.37 kcal/mol
DOCKED: USER    (3) Torsional Free Energy           =   +2.98 kcal/mol
DOCKED: USER    (4) Unbound System's Energy  [=(2)] =   -2.37 kcal/mol
DOCKED: USER    
DOCKED: USER    
DOCKED: USER    NEWDPF move heme_O2_opt.pdbqt
DOCKED: USER    NEWDPF about 8.287000 34.468000 -0.670000
DOCKED: USER    NEWDPF tran0 12.988145 11.027521 0.572439
DOCKED: USER    NEWDPF quaternion0 0.358745 0.705483 0.034144 -0.610270
DOCKED: USER    NEWDPF axisangle0 0.452850 0.890544 0.043101 -104.781911
DOCKED: USER    NEWDPF quat0 0.452850 0.890544 0.043101 -104.781911
DOCKED: USER    NEWDPF dihe0 8.07 127.71 33.24 111.29 -126.68 -120.54 -179.61 -89.81 3.00 -5.88 
DOCKED: USER  keepresnum = 1 
DOCKED: USER  
DOCKED: REMARK  10 active torsions:
DOCKED: REMARK  status: ('A' for Active; 'I' for Inactive)
DOCKED: REMARK    1  A    between atoms: C_6  and  C_10 
DOCKED: REMARK    2  A    between atoms: C_10  and  C_11 
DOCKED: REMARK    3  A    between atoms: C_11  and  C_12 
DOCKED: REMARK    4  A    between atoms: C_12  and  O_14 
DOCKED: REMARK    5  A    between atoms: C_17  and  C_20 
DOCKED: REMARK    6  A    between atoms: C_24  and  C_27 
DOCKED: REMARK    7  A    between atoms: C_31  and  C_34 
DOCKED: REMARK    8  A    between atoms: C_34  and  C_35 
DOCKED: REMARK    9  A    between atoms: C_35  and  C_36 
DOCKED: REMARK   10  A    between atoms: C_36  and  O_38 
DOCKED: USER                              x       y       z     vdW  Elec       q    Type
DOCKED: USER                           _______ _______ _______ _____ _____    ______ ____
DOCKED: ROOT
DOCKED: ATOM      1  C   UNL d   1      12.555  10.760   2.632 -0.11 +0.00    +0.064 A 
DOCKED: ATOM      2  C   UNL d   1      14.574   7.941  -0.614 -0.15 +0.00    +0.064 A 
DOCKED: ATOM      3  C   UNL d   1      14.002  11.289  -4.013 -0.27 -0.01    +0.064 C 
DOCKED: ATOM      4  C   UNL d   1      12.358  14.381  -0.577 -0.24 -0.01    +0.064 A 
DOCKED: ATOM      5  C   UNL d   1      13.152   9.721   2.027 -0.11 +0.00    +0.066 A 
DOCKED: ATOM      6  C   UNL d   1      13.475   8.522   2.668 -0.09 -0.00    -0.021 A 
DOCKED: ATOM      7  C   UNL d   1      14.099   7.721   1.740 -0.10 +0.00    -0.025 A 
DOCKED: ATOM      8  C   UNL d   1      14.097   8.435   0.545 -0.14 -0.00    +0.066 A 
DOCKED: ATOM      9  C   UNL d   1      14.684   6.356   2.029 -0.06 -0.00    +0.051 C 
DOCKED: ATOM     10  C   UNL d   1      14.578   8.633  -1.904 -0.18 -0.00    +0.066 A 
DOCKED: ATOM     11  C   UNL d   1      14.934   8.014  -3.107 -0.18 -0.00    -0.021 A 
DOCKED: ATOM     12  C   UNL d   1      14.759   8.959  -4.102 -0.22 -0.00    +0.000 A 
DOCKED: ATOM     13  C   UNL d   1      14.307  10.129  -3.432 -0.25 -0.01    +0.070 A 
DOCKED: ATOM     14  C   UNL d   1      15.397   6.575  -3.304 -0.14 +0.00    +0.052 C 
DOCKED: ATOM     15  C   UNL d   1      13.575  12.507  -3.367 -0.13 -0.02    +0.066 A 
DOCKED: ATOM     16  C   UNL d   1      13.430  13.735  -4.013 -0.22 +0.00    -0.021 A 
DOCKED: ATOM     17  C   UNL d   1      12.963  14.632  -3.052 -0.23 -0.00    +0.000 A 
DOCKED: ATOM     18  C   UNL d   1      12.855  13.874  -1.878 -0.23 -0.01    +0.070 A 
DOCKED: ATOM     19  C   UNL d   1      13.798  13.953  -5.458 -0.20 -0.01    +0.052 C 
DOCKED: ATOM     20  C   UNL d   1      12.282  13.692   0.579 -0.20 -0.00    +0.066 A 
DOCKED: ATOM     21  C   UNL d   1      11.789  14.218   1.770 -0.17 +0.00    -0.025 A 
DOCKED: ATOM     22  C   UNL d   1      11.812  13.193   2.688 -0.12 -0.00    -0.021 A 
DOCKED: ATOM     23  C   UNL d   1      12.338  12.079   2.026 -0.08 +0.00    +0.066 A 
DOCKED: ATOM     24  C   UNL d   1      11.323  15.629   2.019 -0.14 -0.00    +0.051 C 
DOCKED: ATOM     25  N   UNL d   1      13.572   9.692   0.738 -0.07 +0.01    -0.248 N 
DOCKED: ATOM     26  N   UNL d   1      14.204   9.923  -2.095 -0.17 +0.02    -0.248 N 
DOCKED: ATOM     27  N   UNL d   1      13.301  12.606  -2.070 -0.10 +0.06    -0.248 N 
DOCKED: ATOM     28  N   UNL d   1      12.664  12.400   0.757 -0.08 +0.01    -0.248 N 
DOCKED: ATOM     29 FE   UNL d   1      13.429  11.173  -0.660 -0.05 -0.00    +0.000 Fe
DOCKED: ATOM     30  O   UNL d   1      14.890  10.861  -0.224 -0.11 -0.00    +0.000 OA
DOCKED: ATOM     31  O   UNL d   1      14.447  12.354  -0.460 -0.13 -0.00    +0.000 OA
DOCKED: ENDROOT
DOCKED: BRANCH   6  32
DOCKED: ATOM     32  C   UNL d   1      13.330   8.189   4.131 -0.06 +0.00    +0.052 C 
DOCKED: BRANCH  32  33
DOCKED: ATOM     33  C   UNL d   1      11.947   7.647   4.480 -0.12 +0.01    +0.115 C 
DOCKED: BRANCH  33  34
DOCKED: ATOM     34  C   UNL d   1      11.026   7.609   3.286 -0.22 +0.01    +0.139 C 
DOCKED: ATOM     35  O   UNL d   1      11.086   6.672   2.507 -0.00 +0.02    -0.650 OA
DOCKED: BRANCH  34  36
DOCKED: ATOM     36  O   UNL d   1      10.150   8.606   3.042 +0.08 -0.09    -0.776 OA
DOCKED: ATOM     37  H   UNL d   1      10.159   9.429   3.545 +0.08 +0.03    +0.167 HD
DOCKED: ENDBRANCH  34  36
DOCKED: ENDBRANCH  33  34
DOCKED: ENDBRANCH  32  33
DOCKED: ENDBRANCH   6  32
DOCKED: BRANCH  22  38
DOCKED: ATOM     38  C   UNL d   1      11.411  13.302   4.136 -0.09 +0.00    +0.052 C 
DOCKED: BRANCH  38  39
DOCKED: ATOM     39  C   UNL d   1       9.968  12.860   4.375 -0.16 +0.03    +0.115 C 
DOCKED: BRANCH  39  40
DOCKED: ATOM     40  C   UNL d   1       9.857  11.384   4.661 -0.16 +0.06    +0.139 C 
DOCKED: ATOM     41  O   UNL d   1      10.818  10.779   5.110 -0.00 -0.21    -0.650 OA
DOCKED: BRANCH  40  42
DOCKED: ATOM     42  O   UNL d   1       8.697  10.725   4.478 -0.40 -0.64    -0.776 OA
DOCKED: ATOM     43  H   UNL d   1       8.658   9.899   3.981 +0.08 +0.09    +0.167 HD
DOCKED: ENDBRANCH  40  42
DOCKED: ENDBRANCH  39  40
DOCKED: ENDBRANCH  38  39
DOCKED: ENDBRANCH  22  38
DOCKED: BRANCH  12  44
DOCKED: ATOM     44  C   UNL d   1      15.039   8.653  -5.559 -0.22 -0.00    +0.004 C 
DOCKED: ATOM     45  C   UNL d   1      15.426   9.499  -6.513 -0.17 -0.00    +0.012 C 
DOCKED: ENDBRANCH  12  44
DOCKED: BRANCH  17  46
DOCKED: ATOM     46  C   UNL d   1      12.676  16.108  -3.135 -0.17 -0.00    +0.004 C 
DOCKED: ATOM     47  C   UNL d   1      11.486  16.718  -3.202 -0.22 -0.00    +0.012 C 
DOCKED: ENDBRANCH  17  46
DOCKED: TORSDOF 10
DOCKED: TER
DOCKED: ENDMDL
________________________________________________________________________________


	BEGINNING GENETIC ALGORITHM DOCKING 89 of 100
Run: 89 Seed: 1669993999 2069143511 [ Run 89 of 100 GA/GALS ]
Beginning LAMARCKIAN GENETIC ALGORITHM (LGA), with a maximum of 25000000 energy evaluations.

Final-Value: -9.680


	FINAL GENETIC ALGORITHM DOCKED STATE
	_______________________________________________


Detailed state:  trans 11.761 -12.908 3.447 quatxyzw -0.664144 -0.730283 0.152648 0.047936 center 8.287 34.468 -0.670 ntor 10 -45.2029 -6.1391 129.0491 140.5160 -100.8672 134.5445 144.7620 38.1953 14.9132 116.1923
State:	 11.761 -12.908   3.447  -0.665 -0.731  0.153 174.505    -45.20   -6.14  129.05  140.52 -100.87  134.54  144.76   38.20   14.91  116.19

DOCKED: MODEL       89
DOCKED: USER    Run = 89
DOCKED: USER    DPF = D:/Protein_go_brrr/autodock/final/mut_K82N/heme_O2/dock.dpf
DOCKED: USER  
DOCKED: USER    Estimated Free Energy of Binding    =   -4.96 kcal/mol  [=(1)+(2)+(3)-(4)]
DOCKED: USER    Estimated Inhibition Constant, Ki   =  230.09 uM (micromolar)  [Temperature = 298.15 K]
DOCKED: USER    
DOCKED: USER    (1) Final Intermolecular Energy     =   -7.95 kcal/mol
DOCKED: USER        vdW + Hbond + desolv Energy     =   -6.60 kcal/mol
DOCKED: USER        Electrostatic Energy            =   -1.35 kcal/mol
DOCKED: USER    (2) Final Total Internal Energy     =   -1.73 kcal/mol
DOCKED: USER    (3) Torsional Free Energy           =   +2.98 kcal/mol
DOCKED: USER    (4) Unbound System's Energy  [=(2)] =   -1.73 kcal/mol
DOCKED: USER    
DOCKED: USER    
DOCKED: USER    NEWDPF move heme_O2_opt.pdbqt
DOCKED: USER    NEWDPF about 8.287000 34.468000 -0.670000
DOCKED: USER    NEWDPF tran0 11.761095 -12.907565 3.446830
DOCKED: USER    NEWDPF quaternion0 -0.664144 -0.730283 0.152648 0.047936
DOCKED: USER    NEWDPF axisangle0 -0.664909 -0.731123 0.152823 174.504859
DOCKED: USER    NEWDPF quat0 -0.664909 -0.731123 0.152823 174.504859
DOCKED: USER    NEWDPF dihe0 -45.20 -6.14 129.05 140.52 -100.87 134.54 144.76 38.20 14.91 116.19 
DOCKED: USER  keepresnum = 1 
DOCKED: USER  
DOCKED: REMARK  10 active torsions:
DOCKED: REMARK  status: ('A' for Active; 'I' for Inactive)
DOCKED: REMARK    1  A    between atoms: C_6  and  C_10 
DOCKED: REMARK    2  A    between atoms: C_10  and  C_11 
DOCKED: REMARK    3  A    between atoms: C_11  and  C_12 
DOCKED: REMARK    4  A    between atoms: C_12  and  O_14 
DOCKED: REMARK    5  A    between atoms: C_17  and  C_20 
DOCKED: REMARK    6  A    between atoms: C_24  and  C_27 
DOCKED: REMARK    7  A    between atoms: C_31  and  C_34 
DOCKED: REMARK    8  A    between atoms: C_34  and  C_35 
DOCKED: REMARK    9  A    between atoms: C_35  and  C_36 
DOCKED: REMARK   10  A    between atoms: C_36  and  O_38 
DOCKED: USER                              x       y       z     vdW  Elec       q    Type
DOCKED: USER                           _______ _______ _______ _____ _____    ______ ____
DOCKED: ROOT
DOCKED: ATOM      1  C   UNL d   1      12.672 -14.422   4.620 -0.02 +0.03    +0.064 A 
DOCKED: ATOM      2  C   UNL d   1       9.361 -14.556   1.217 -0.23 +0.02    +0.064 A 
DOCKED: ATOM      3  C   UNL d   1       9.511  -9.775   0.755 -0.24 +0.01    +0.064 C 
DOCKED: ATOM      4  C   UNL d   1      13.259  -9.668   3.918 -0.12 +0.01    +0.064 A 
DOCKED: ATOM      5  C   UNL d   1      11.761 -14.849   3.731 -0.06 +0.03    +0.066 A 
DOCKED: ATOM      6  C   UNL d   1      11.398 -16.188   3.563 -0.11 -0.01    -0.021 A 
DOCKED: ATOM      7  C   UNL d   1      10.471 -16.233   2.548 -0.17 -0.01    -0.025 A 
DOCKED: ATOM      8  C   UNL d   1      10.257 -14.914   2.157 -0.18 +0.02    +0.066 A 
DOCKED: ATOM      9  C   UNL d   1       9.863 -17.500   1.986 -0.17 +0.01    +0.051 C 
DOCKED: ATOM     10  C   UNL d   1       9.077 -13.188   0.780 -0.22 +0.01    +0.066 A 
DOCKED: ATOM     11  C   UNL d   1       8.024 -12.858  -0.080 -0.29 -0.00    -0.021 A 
DOCKED: ATOM     12  C   UNL d   1       8.039 -11.482  -0.211 -0.35 +0.00    +0.000 A 
DOCKED: ATOM     13  C   UNL d   1       9.133 -11.042   0.584 -0.24 +0.01    +0.070 A 
DOCKED: ATOM     14  C   UNL d   1       7.027 -13.813  -0.727 -0.37 +0.01    +0.052 C 
DOCKED: ATOM     15  C   UNL d   1      10.633  -9.291   1.522 -0.27 +0.00    +0.066 A 
DOCKED: ATOM     16  C   UNL d   1      11.074  -7.968   1.529 -0.30 -0.00    -0.021 A 
DOCKED: ATOM     17  C   UNL d   1      12.143  -7.914   2.423 -0.23 +0.00    +0.000 A 
DOCKED: ATOM     18  C   UNL d   1      12.274  -9.224   2.903 -0.19 +0.01    +0.070 A 
DOCKED: ATOM     19  C   UNL d   1      10.479  -6.898   0.649 -0.32 -0.00    +0.052 C 
DOCKED: ATOM     20  C   UNL d   1      13.440 -10.925   4.368 -0.10 +0.01    +0.066 A 
DOCKED: ATOM     21  C   UNL d   1      14.373 -11.279   5.338 -0.06 -0.00    -0.025 A 
DOCKED: ATOM     22  C   UNL d   1      14.202 -12.625   5.571 -0.06 -0.00    -0.021 A 
DOCKED: ATOM     23  C   UNL d   1      13.178 -13.048   4.717 -0.06 +0.02    +0.066 A 
DOCKED: ATOM     24  C   UNL d   1      15.380 -10.380   6.007 -0.04 +0.00    +0.051 C 
DOCKED: ATOM     25  N   UNL d   1      11.100 -14.069   2.840 -0.07 -0.11    -0.248 N 
DOCKED: ATOM     26  N   UNL d   1       9.762 -12.087   1.180 -0.12 -0.05    -0.248 N 
DOCKED: ATOM     27  N   UNL d   1      11.399 -10.061   2.290 -0.14 -0.03    -0.248 N 
DOCKED: ATOM     28  N   UNL d   1      12.749 -12.020   3.955 -0.07 -0.07    -0.248 N 
DOCKED: ATOM     29 FE   UNL d   1      11.267 -12.050   2.577 -0.05 +0.00    +0.000 Fe
DOCKED: ATOM     30  O   UNL d   1      11.804 -12.887   1.379 -0.10 +0.00    +0.000 OA
DOCKED: ATOM     31  O   UNL d   1      12.583 -11.599   1.845 -0.10 +0.00    +0.000 OA
DOCKED: ENDROOT
DOCKED: BRANCH   6  32
DOCKED: ATOM     32  C   UNL d   1      11.997 -17.398   4.234 -0.06 +0.01    +0.052 C 
DOCKED: BRANCH  32  33
DOCKED: ATOM     33  C   UNL d   1      11.175 -17.883   5.423 -0.08 +0.03    +0.115 C 
DOCKED: BRANCH  33  34
DOCKED: ATOM     34  C   UNL d   1      10.581 -16.745   6.216 +0.06 +0.10    +0.139 C 
DOCKED: ATOM     35  O   UNL d   1       9.381 -16.533   6.160 -0.16 -0.60    -0.650 OA
DOCKED: BRANCH  34  36
DOCKED: ATOM     36  O   UNL d   1      11.354 -15.933   6.967 -0.17 -0.85    -0.776 OA
DOCKED: ATOM     37  H   UNL d   1      12.045 -16.277   7.545 +0.03 +0.07    +0.167 HD
DOCKED: ENDBRANCH  34  36
DOCKED: ENDBRANCH  33  34
DOCKED: ENDBRANCH  32  33
DOCKED: ENDBRANCH   6  32
DOCKED: BRANCH  22  38
DOCKED: ATOM     38  C   UNL d   1      15.023 -13.465   6.515 -0.03 +0.01    +0.052 C 
DOCKED: BRANCH  38  39
DOCKED: ATOM     39  C   UNL d   1      15.295 -14.863   5.963 -0.00 +0.01    +0.115 C 
DOCKED: BRANCH  39  40
DOCKED: ATOM     40  C   UNL d   1      15.268 -15.922   7.037 +0.00 +0.01    +0.139 C 
DOCKED: ATOM     41  O   UNL d   1      16.248 -16.093   7.744 +0.01 -0.01    -0.650 OA
DOCKED: BRANCH  40  42
DOCKED: ATOM     42  O   UNL d   1      14.159 -16.652   7.267 +0.03 -0.07    -0.776 OA
DOCKED: ATOM     43  H   UNL d   1      13.338 -16.488   6.787 +0.02 +0.03    +0.167 HD
DOCKED: ENDBRANCH  40  42
DOCKED: ENDBRANCH  39  40
DOCKED: ENDBRANCH  38  39
DOCKED: ENDBRANCH  22  38
DOCKED: BRANCH  12  44
DOCKED: ATOM     44  C   UNL d   1       7.031 -10.745  -1.067 -0.42 +0.00    +0.004 C 
DOCKED: ATOM     45  C   UNL d   1       6.755 -10.937  -2.357 -0.41 +0.00    +0.012 C 
DOCKED: ENDBRANCH  12  44
DOCKED: BRANCH  17  46
DOCKED: ATOM     46  C   UNL d   1      13.056  -6.779   2.804 -0.19 +0.00    +0.004 C 
DOCKED: ATOM     47  C   UNL d   1      13.439  -6.399   4.030 -0.19 +0.00    +0.012 C 
DOCKED: ENDBRANCH  17  46
DOCKED: TORSDOF 10
DOCKED: TER
DOCKED: ENDMDL
________________________________________________________________________________


	BEGINNING GENETIC ALGORITHM DOCKING 90 of 100
Run: 90 Seed: 1334034277 412148008 [ Run 90 of 100 GA/GALS ]
Beginning LAMARCKIAN GENETIC ALGORITHM (LGA), with a maximum of 25000000 energy evaluations.

Final-Value: -11.320


	FINAL GENETIC ALGORITHM DOCKED STATE
	_______________________________________________


Detailed state:  trans -8.333 6.817 -12.853 quatxyzw -0.480029 0.505135 0.486122 -0.527348 center 8.287 34.468 -0.670 ntor 10 20.1756 -134.6263 -113.5206 112.2693 -102.8453 -167.7123 -20.7072 55.0626 -177.9623 164.6018
State:	 -8.333   6.817 -12.853  -0.565  0.595  0.572 -116.347     20.18 -134.63 -113.52  112.27 -102.85 -167.71  -20.71   55.06 -177.96  164.60

DOCKED: MODEL       90
DOCKED: USER    Run = 90
DOCKED: USER    DPF = D:/Protein_go_brrr/autodock/final/mut_K82N/heme_O2/dock.dpf
DOCKED: USER  
DOCKED: USER    Estimated Free Energy of Binding    =   -6.43 kcal/mol  [=(1)+(2)+(3)-(4)]
DOCKED: USER    Estimated Inhibition Constant, Ki   =   19.25 uM (micromolar)  [Temperature = 298.15 K]
DOCKED: USER    
DOCKED: USER    (1) Final Intermolecular Energy     =   -9.42 kcal/mol
DOCKED: USER        vdW + Hbond + desolv Energy     =   -6.99 kcal/mol
DOCKED: USER        Electrostatic Energy            =   -2.42 kcal/mol
DOCKED: USER    (2) Final Total Internal Energy     =   -1.90 kcal/mol
DOCKED: USER    (3) Torsional Free Energy           =   +2.98 kcal/mol
DOCKED: USER    (4) Unbound System's Energy  [=(2)] =   -1.90 kcal/mol
DOCKED: USER    
DOCKED: USER    
DOCKED: USER    NEWDPF move heme_O2_opt.pdbqt
DOCKED: USER    NEWDPF about 8.287000 34.468000 -0.670000
DOCKED: USER    NEWDPF tran0 -8.332619 6.817315 -12.853486
DOCKED: USER    NEWDPF quaternion0 -0.480029 0.505135 0.486122 -0.527348
DOCKED: USER    NEWDPF axisangle0 -0.564973 0.594522 0.572144 -116.347127
DOCKED: USER    NEWDPF quat0 -0.564973 0.594522 0.572144 -116.347127
DOCKED: USER    NEWDPF dihe0 20.18 -134.63 -113.52 112.27 -102.85 -167.71 -20.71 55.06 -177.96 164.60 
DOCKED: USER  keepresnum = 1 
DOCKED: USER  
DOCKED: REMARK  10 active torsions:
DOCKED: REMARK  status: ('A' for Active; 'I' for Inactive)
DOCKED: REMARK    1  A    between atoms: C_6  and  C_10 
DOCKED: REMARK    2  A    between atoms: C_10  and  C_11 
DOCKED: REMARK    3  A    between atoms: C_11  and  C_12 
DOCKED: REMARK    4  A    between atoms: C_12  and  O_14 
DOCKED: REMARK    5  A    between atoms: C_17  and  C_20 
DOCKED: REMARK    6  A    between atoms: C_24  and  C_27 
DOCKED: REMARK    7  A    between atoms: C_31  and  C_34 
DOCKED: REMARK    8  A    between atoms: C_34  and  C_35 
DOCKED: REMARK    9  A    between atoms: C_35  and  C_36 
DOCKED: REMARK   10  A    between atoms: C_36  and  O_38 
DOCKED: USER                              x       y       z     vdW  Elec       q    Type
DOCKED: USER                           _______ _______ _______ _____ _____    ______ ____
DOCKED: ROOT
DOCKED: ATOM      1  C   UNL d   1      -9.018   6.008 -11.017 -0.15 +0.01    +0.064 A 
DOCKED: ATOM      2  C   UNL d   1      -6.032   9.556 -12.043 -0.19 -0.01    +0.064 A 
DOCKED: ATOM      3  C   UNL d   1      -6.575   8.774 -16.753 -0.11 -0.01    +0.064 C 
DOCKED: ATOM      4  C   UNL d   1     -10.016   5.434 -15.719 -0.22 +0.01    +0.064 A 
DOCKED: ATOM      5  C   UNL d   1      -8.163   7.038 -10.911 -0.13 +0.01    +0.066 A 
DOCKED: ATOM      6  C   UNL d   1      -7.719   7.566  -9.696 -0.19 -0.00    -0.021 A 
DOCKED: ATOM      7  C   UNL d   1      -6.889   8.621  -9.991 -0.26 -0.00    -0.025 A 
DOCKED: ATOM      8  C   UNL d   1      -6.810   8.678 -11.380 -0.19 -0.00    +0.066 A 
DOCKED: ATOM      9  C   UNL d   1      -6.243   9.528  -8.967 -0.43 -0.00    +0.051 C 
DOCKED: ATOM     10  C   UNL d   1      -5.891   9.649 -13.497 -0.17 -0.01    +0.066 A 
DOCKED: ATOM     11  C   UNL d   1      -4.948  10.468 -14.127 -0.23 +0.01    -0.021 A 
DOCKED: ATOM     12  C   UNL d   1      -5.076  10.243 -15.485 -0.11 -0.00    +0.000 A 
DOCKED: ATOM     13  C   UNL d   1      -6.122   9.287 -15.610 -0.09 -0.01    +0.070 A 
DOCKED: ATOM     14  C   UNL d   1      -3.947  11.405 -13.461 -0.40 -0.02    +0.052 C 
DOCKED: ATOM     15  C   UNL d   1      -7.655   7.831 -16.924 -0.13 -0.01    +0.066 A 
DOCKED: ATOM     16  C   UNL d   1      -8.190   7.457 -18.156 -0.11 +0.00    -0.021 A 
DOCKED: ATOM     17  C   UNL d   1      -9.174   6.506 -17.886 -0.16 +0.00    +0.000 A 
DOCKED: ATOM     18  C   UNL d   1      -9.163   6.368 -16.491 -0.19 +0.00    +0.070 A 
DOCKED: ATOM     19  C   UNL d   1      -7.758   8.075 -19.462 -0.06 -0.01    +0.052 C 
DOCKED: ATOM     20  C   UNL d   1     -10.062   5.307 -14.379 -0.22 +0.01    +0.066 A 
DOCKED: ATOM     21  C   UNL d   1     -10.874   4.396 -13.708 -0.16 -0.01    -0.025 A 
DOCKED: ATOM     22  C   UNL d   1     -10.583   4.526 -12.369 -0.17 -0.01    -0.021 A 
DOCKED: ATOM     23  C   UNL d   1      -9.613   5.529 -12.270 -0.16 +0.01    +0.066 A 
DOCKED: ATOM     24  C   UNL d   1     -11.879   3.451 -14.315 -0.18 +0.04    +0.051 C 
DOCKED: ATOM     25  N   UNL d   1      -7.646   7.744 -11.947 +0.02 -0.01    -0.248 N 
DOCKED: ATOM     26  N   UNL d   1      -6.615   8.935 -14.395 -0.07 +0.02    -0.248 N 
DOCKED: ATOM     27  N   UNL d   1      -8.288   7.234 -15.919 -0.11 +0.01    -0.248 N 
DOCKED: ATOM     28  N   UNL d   1      -9.333   6.032 -13.490 -0.09 -0.03    -0.248 N 
DOCKED: ATOM     29 FE   UNL d   1      -7.985   7.472 -13.942 -0.04 +0.00    +0.000 Fe
DOCKED: ATOM     30  O   UNL d   1      -8.566   8.803 -13.382 -0.09 +0.00    +0.000 OA
DOCKED: ATOM     31  O   UNL d   1      -9.392   7.972 -14.434 -0.10 +0.00    +0.000 OA
DOCKED: ENDROOT
DOCKED: BRANCH   6  32
DOCKED: ATOM     32  C   UNL d   1      -8.164   7.185  -8.307 -0.12 +0.01    +0.052 C 
DOCKED: BRANCH  32  33
DOCKED: ATOM     33  C   UNL d   1      -9.286   8.074  -7.780 -0.17 +0.04    +0.115 C 
DOCKED: BRANCH  33  34
DOCKED: ATOM     34  C   UNL d   1     -10.090   7.402  -6.694 -0.18 +0.11    +0.139 C 
DOCKED: ATOM     35  O   UNL d   1      -9.951   7.755  -5.534 -0.57 -0.52    -0.650 OA
DOCKED: BRANCH  34  36
DOCKED: ATOM     36  O   UNL d   1     -10.944   6.396  -6.973 -0.15 -1.09    -0.776 OA
DOCKED: ATOM     37  H   UNL d   1     -10.875   5.876  -7.782 +0.02 +0.23    +0.167 HD
DOCKED: ENDBRANCH  34  36
DOCKED: ENDBRANCH  33  34
DOCKED: ENDBRANCH  32  33
DOCKED: ENDBRANCH   6  32
DOCKED: BRANCH  22  38
DOCKED: ATOM     38  C   UNL d   1     -11.249   3.772 -11.248 -0.12 +0.02    +0.052 C 
DOCKED: BRANCH  38  39
DOCKED: ATOM     39  C   UNL d   1     -12.427   4.539 -10.650 -0.07 +0.05    +0.115 C 
DOCKED: BRANCH  39  40
DOCKED: ATOM     40  C   UNL d   1     -12.310   4.702  -9.155 -0.08 +0.11    +0.139 C 
DOCKED: ATOM     41  O   UNL d   1     -11.623   3.924  -8.513 -0.04 -0.94    -0.650 OA
DOCKED: BRANCH  40  42
DOCKED: ATOM     42  O   UNL d   1     -12.910   5.726  -8.518 +0.01 -0.61    -0.776 OA
DOCKED: ATOM     43  H   UNL d   1     -12.436   6.269  -7.878 +0.01 +0.16    +0.167 HD
DOCKED: ENDBRANCH  40  42
DOCKED: ENDBRANCH  39  40
DOCKED: ENDBRANCH  38  39
DOCKED: ENDBRANCH  22  38
DOCKED: BRANCH  12  44
DOCKED: ATOM     44  C   UNL d   1      -4.208  10.952 -16.503 -0.13 -0.00    +0.004 C 
DOCKED: ATOM     45  C   UNL d   1      -2.883  10.887 -16.636 -0.19 -0.01    +0.012 C 
DOCKED: ENDBRANCH  12  44
DOCKED: BRANCH  17  46
DOCKED: ATOM     46  C   UNL d   1     -10.129   5.786 -18.800 -0.14 +0.00    +0.004 C 
DOCKED: ATOM     47  C   UNL d   1     -10.083   4.511 -19.208 -0.20 +0.00    +0.012 C 
DOCKED: ENDBRANCH  17  46
DOCKED: TORSDOF 10
DOCKED: TER
DOCKED: ENDMDL
________________________________________________________________________________


	BEGINNING GENETIC ALGORITHM DOCKING 91 of 100
Run: 91 Seed: 2010294620 957145860 [ Run 91 of 100 GA/GALS ]
Beginning LAMARCKIAN GENETIC ALGORITHM (LGA), with a maximum of 25000000 energy evaluations.

Final-Value: -9.606


	FINAL GENETIC ALGORITHM DOCKED STATE
	_______________________________________________


Detailed state:  trans 11.555 -13.142 3.520 quatxyzw -0.675798 -0.718017 0.158307 0.051840 center 8.287 34.468 -0.670 ntor 10 62.9117 -106.1305 117.8398 133.7607 -104.7589 138.5646 -41.3101 -80.3320 -145.1131 -5.5630
State:	 11.555 -13.142   3.520  -0.677 -0.719  0.159 174.057     62.91 -106.13  117.84  133.76 -104.76  138.56  -41.31  -80.33 -145.11   -5.56

DOCKED: MODEL       91
DOCKED: USER    Run = 91
DOCKED: USER    DPF = D:/Protein_go_brrr/autodock/final/mut_K82N/heme_O2/dock.dpf
DOCKED: USER  
DOCKED: USER    Estimated Free Energy of Binding    =   -4.46 kcal/mol  [=(1)+(2)+(3)-(4)]
DOCKED: USER    Estimated Inhibition Constant, Ki   =  541.02 uM (micromolar)  [Temperature = 298.15 K]
DOCKED: USER    
DOCKED: USER    (1) Final Intermolecular Energy     =   -7.44 kcal/mol
DOCKED: USER        vdW + Hbond + desolv Energy     =   -6.93 kcal/mol
DOCKED: USER        Electrostatic Energy            =   -0.51 kcal/mol
DOCKED: USER    (2) Final Total Internal Energy     =   -2.17 kcal/mol
DOCKED: USER    (3) Torsional Free Energy           =   +2.98 kcal/mol
DOCKED: USER    (4) Unbound System's Energy  [=(2)] =   -2.17 kcal/mol
DOCKED: USER    
DOCKED: USER    
DOCKED: USER    NEWDPF move heme_O2_opt.pdbqt
DOCKED: USER    NEWDPF about 8.287000 34.468000 -0.670000
DOCKED: USER    NEWDPF tran0 11.555084 -13.141900 3.520026
DOCKED: USER    NEWDPF quaternion0 -0.675798 -0.718017 0.158307 0.051840
DOCKED: USER    NEWDPF axisangle0 -0.676708 -0.718984 0.158520 174.056892
DOCKED: USER    NEWDPF quat0 -0.676708 -0.718984 0.158520 174.056892
DOCKED: USER    NEWDPF dihe0 62.91 -106.13 117.84 133.76 -104.76 138.56 -41.31 -80.33 -145.11 -5.56 
DOCKED: USER  keepresnum = 1 
DOCKED: USER  
DOCKED: REMARK  10 active torsions:
DOCKED: REMARK  status: ('A' for Active; 'I' for Inactive)
DOCKED: REMARK    1  A    between atoms: C_6  and  C_10 
DOCKED: REMARK    2  A    between atoms: C_10  and  C_11 
DOCKED: REMARK    3  A    between atoms: C_11  and  C_12 
DOCKED: REMARK    4  A    between atoms: C_12  and  O_14 
DOCKED: REMARK    5  A    between atoms: C_17  and  C_20 
DOCKED: REMARK    6  A    between atoms: C_24  and  C_27 
DOCKED: REMARK    7  A    between atoms: C_31  and  C_34 
DOCKED: REMARK    8  A    between atoms: C_34  and  C_35 
DOCKED: REMARK    9  A    between atoms: C_35  and  C_36 
DOCKED: REMARK   10  A    between atoms: C_36  and  O_38 
DOCKED: USER                              x       y       z     vdW  Elec       q    Type
DOCKED: USER                           _______ _______ _______ _____ _____    ______ ____
DOCKED: ROOT
DOCKED: ATOM      1  C   UNL d   1      12.413 -14.666   4.720 -0.03 +0.04    +0.064 A 
DOCKED: ATOM      2  C   UNL d   1       9.109 -14.747   1.309 -0.27 +0.02    +0.064 A 
DOCKED: ATOM      3  C   UNL d   1       9.415  -9.981   0.771 -0.24 +0.01    +0.064 C 
DOCKED: ATOM      4  C   UNL d   1      13.157  -9.946   3.943 -0.13 +0.01    +0.064 A 
DOCKED: ATOM      5  C   UNL d   1      11.490 -15.077   3.835 -0.02 +0.04    +0.066 A 
DOCKED: ATOM      6  C   UNL d   1      11.084 -16.407   3.688 -0.13 -0.01    -0.021 A 
DOCKED: ATOM      7  C   UNL d   1      10.159 -16.438   2.671 -0.20 -0.01    -0.025 A 
DOCKED: ATOM      8  C   UNL d   1       9.990 -15.119   2.257 -0.21 +0.02    +0.066 A 
DOCKED: ATOM      9  C   UNL d   1       9.512 -17.693   2.127 +0.04 +0.01    +0.051 C 
DOCKED: ATOM     10  C   UNL d   1       8.871 -13.378   0.850 -0.25 +0.01    +0.066 A 
DOCKED: ATOM     11  C   UNL d   1       7.831 -13.028  -0.019 -0.33 -0.00    -0.021 A 
DOCKED: ATOM     12  C   UNL d   1       7.891 -11.655  -0.172 -0.36 +0.00    +0.000 A 
DOCKED: ATOM     13  C   UNL d   1       8.997 -11.238   0.620 -0.23 +0.01    +0.070 A 
DOCKED: ATOM     14  C   UNL d   1       6.805 -13.960  -0.654 -0.39 +0.01    +0.052 C 
DOCKED: ATOM     15  C   UNL d   1      10.551  -9.522   1.534 -0.26 +0.01    +0.066 A 
DOCKED: ATOM     16  C   UNL d   1      11.035  -8.214   1.521 -0.30 -0.00    -0.021 A 
DOCKED: ATOM     17  C   UNL d   1      12.103  -8.180   2.418 -0.23 +0.00    +0.000 A 
DOCKED: ATOM     18  C   UNL d   1      12.190  -9.487   2.919 -0.19 +0.01    +0.070 A 
DOCKED: ATOM     19  C   UNL d   1      10.477  -7.139   0.622 -0.30 -0.00    +0.052 C 
DOCKED: ATOM     20  C   UNL d   1      13.296 -11.200   4.414 -0.10 +0.01    +0.066 A 
DOCKED: ATOM     21  C   UNL d   1      14.214 -11.569   5.393 -0.07 -0.00    -0.025 A 
DOCKED: ATOM     22  C   UNL d   1      13.998 -12.905   5.647 -0.07 -0.00    -0.021 A 
DOCKED: ATOM     23  C   UNL d   1      12.963 -13.308   4.797 -0.05 +0.03    +0.066 A 
DOCKED: ATOM     24  C   UNL d   1      15.248 -10.693   6.051 -0.04 +0.00    +0.051 C 
DOCKED: ATOM     25  N   UNL d   1      10.858 -14.290   2.930 -0.05 -0.12    -0.248 N 
DOCKED: ATOM     26  N   UNL d   1       9.590 -12.293   1.234 -0.13 -0.05    -0.248 N 
DOCKED: ATOM     27  N   UNL d   1      11.289 -10.304   2.316 -0.12 -0.04    -0.248 N 
DOCKED: ATOM     28  N   UNL d   1      12.570 -12.279   4.017 -0.04 -0.09    -0.248 N 
DOCKED: ATOM     29 FE   UNL d   1      11.092 -12.283   2.635 -0.05 +0.00    +0.000 Fe
DOCKED: ATOM     30  O   UNL d   1      11.604 -13.156   1.453 -0.11 +0.00    +0.000 OA
DOCKED: ATOM     31  O   UNL d   1      12.424 -11.887   1.900 -0.10 +0.00    +0.000 OA
DOCKED: ENDROOT
DOCKED: BRANCH   6  32
DOCKED: ATOM     32  C   UNL d   1      11.642 -17.624   4.380 -0.07 +0.01    +0.052 C 
DOCKED: BRANCH  32  33
DOCKED: ATOM     33  C   UNL d   1      13.118 -17.856   4.072 -0.01 +0.01    +0.115 C 
DOCKED: BRANCH  33  34
DOCKED: ATOM     34  C   UNL d   1      13.911 -18.225   5.301 +0.00 +0.01    +0.139 C 
DOCKED: ATOM     35  O   UNL d   1      14.253 -19.384   5.474 +0.01 -0.02    -0.650 OA
DOCKED: BRANCH  34  36
DOCKED: ATOM     36  O   UNL d   1      14.230 -17.304   6.234 +0.02 -0.07    -0.776 OA
DOCKED: ATOM     37  H   UNL d   1      13.557 -16.842   6.747 +0.01 +0.03    +0.167 HD
DOCKED: ENDBRANCH  34  36
DOCKED: ENDBRANCH  33  34
DOCKED: ENDBRANCH  32  33
DOCKED: ENDBRANCH   6  32
DOCKED: BRANCH  22  38
DOCKED: ATOM     38  C   UNL d   1      14.788 -13.756   6.607 -0.03 +0.01    +0.052 C 
DOCKED: BRANCH  38  39
DOCKED: ATOM     39  C   UNL d   1      14.114 -13.872   7.972 -0.04 +0.01    +0.115 C 
DOCKED: BRANCH  39  40
DOCKED: ATOM     40  C   UNL d   1      13.334 -15.154   8.123 -0.06 +0.02    +0.139 C 
DOCKED: ATOM     41  O   UNL d   1      12.244 -15.267   7.585 -0.59 -0.41    -0.650 OA
DOCKED: BRANCH  40  42
DOCKED: ATOM     42  O   UNL d   1      13.841 -16.202   8.800 +0.03 -0.03    -0.776 OA
DOCKED: ATOM     43  H   UNL d   1      14.200 -16.973   8.343 +0.01 +0.01    +0.167 HD
DOCKED: ENDBRANCH  40  42
DOCKED: ENDBRANCH  39  40
DOCKED: ENDBRANCH  38  39
DOCKED: ENDBRANCH  22  38
DOCKED: BRANCH  12  44
DOCKED: ATOM     44  C   UNL d   1       6.910 -10.899  -1.043 -0.48 +0.00    +0.004 C 
DOCKED: ATOM     45  C   UNL d   1       6.775 -10.961  -2.367 -0.41 +0.00    +0.012 C 
DOCKED: ENDBRANCH  12  44
DOCKED: BRANCH  17  46
DOCKED: ATOM     46  C   UNL d   1      13.051  -7.070   2.784 -0.19 +0.00    +0.004 C 
DOCKED: ATOM     47  C   UNL d   1      13.349  -6.602   4.003 -0.19 +0.00    +0.012 C 
DOCKED: ENDBRANCH  17  46
DOCKED: TORSDOF 10
DOCKED: TER
DOCKED: ENDMDL
________________________________________________________________________________


	BEGINNING GENETIC ALGORITHM DOCKING 92 of 100
Run: 92 Seed: 1061094794 1723196238 [ Run 92 of 100 GA/GALS ]
Beginning LAMARCKIAN GENETIC ALGORITHM (LGA), with a maximum of 25000000 energy evaluations.

Final-Value: -11.520


	FINAL GENETIC ALGORITHM DOCKED STATE
	_______________________________________________


Detailed state:  trans -8.477 6.531 -12.278 quatxyzw -0.489888 0.578522 0.447599 -0.474319 center 8.287 34.468 -0.670 ntor 10 96.6145 116.7960 -64.7186 -113.7852 114.5217 -60.1136 -40.9846 88.9221 -142.2645 177.5407
State:	 -8.477   6.531 -12.278  -0.556  0.657  0.508 -123.370     96.61  116.80  -64.72 -113.79  114.52  -60.11  -40.98   88.92 -142.26  177.54

DOCKED: MODEL       92
DOCKED: USER    Run = 92
DOCKED: USER    DPF = D:/Protein_go_brrr/autodock/final/mut_K82N/heme_O2/dock.dpf
DOCKED: USER  
DOCKED: USER    Estimated Free Energy of Binding    =   -6.46 kcal/mol  [=(1)+(2)+(3)-(4)]
DOCKED: USER    Estimated Inhibition Constant, Ki   =   18.31 uM (micromolar)  [Temperature = 298.15 K]
DOCKED: USER    
DOCKED: USER    (1) Final Intermolecular Energy     =   -9.45 kcal/mol
DOCKED: USER        vdW + Hbond + desolv Energy     =   -7.13 kcal/mol
DOCKED: USER        Electrostatic Energy            =   -2.32 kcal/mol
DOCKED: USER    (2) Final Total Internal Energy     =   -2.07 kcal/mol
DOCKED: USER    (3) Torsional Free Energy           =   +2.98 kcal/mol
DOCKED: USER    (4) Unbound System's Energy  [=(2)] =   -2.07 kcal/mol
DOCKED: USER    
DOCKED: USER    
DOCKED: USER    NEWDPF move heme_O2_opt.pdbqt
DOCKED: USER    NEWDPF about 8.287000 34.468000 -0.670000
DOCKED: USER    NEWDPF tran0 -8.476869 6.530964 -12.278239
DOCKED: USER    NEWDPF quaternion0 -0.489888 0.578522 0.447599 -0.474319
DOCKED: USER    NEWDPF axisangle0 -0.556467 0.657147 0.508431 -123.370020
DOCKED: USER    NEWDPF quat0 -0.556467 0.657147 0.508431 -123.370020
DOCKED: USER    NEWDPF dihe0 96.61 116.80 -64.72 -113.79 114.52 -60.11 -40.98 88.92 -142.26 177.54 
DOCKED: USER  keepresnum = 1 
DOCKED: USER  
DOCKED: REMARK  10 active torsions:
DOCKED: REMARK  status: ('A' for Active; 'I' for Inactive)
DOCKED: REMARK    1  A    between atoms: C_6  and  C_10 
DOCKED: REMARK    2  A    between atoms: C_10  and  C_11 
DOCKED: REMARK    3  A    between atoms: C_11  and  C_12 
DOCKED: REMARK    4  A    between atoms: C_12  and  O_14 
DOCKED: REMARK    5  A    between atoms: C_17  and  C_20 
DOCKED: REMARK    6  A    between atoms: C_24  and  C_27 
DOCKED: REMARK    7  A    between atoms: C_31  and  C_34 
DOCKED: REMARK    8  A    between atoms: C_34  and  C_35 
DOCKED: REMARK    9  A    between atoms: C_35  and  C_36 
DOCKED: REMARK   10  A    between atoms: C_36  and  O_38 
DOCKED: USER                              x       y       z     vdW  Elec       q    Type
DOCKED: USER                           _______ _______ _______ _____ _____    ______ ____
DOCKED: ROOT
DOCKED: ATOM      1  C   UNL d   1      -9.031   6.083 -10.280 -0.14 +0.02    +0.064 A 
DOCKED: ATOM      2  C   UNL d   1      -6.001   9.233 -12.139 -0.20 -0.01    +0.064 A 
DOCKED: ATOM      3  C   UNL d   1      -6.990   7.699 -16.585 -0.20 -0.01    +0.064 C 
DOCKED: ATOM      4  C   UNL d   1     -10.463   4.781 -14.718 -0.23 +0.02    +0.064 A 
DOCKED: ATOM      5  C   UNL d   1      -8.127   7.066 -10.423 -0.14 +0.01    +0.066 A 
DOCKED: ATOM      6  C   UNL d   1      -7.556   7.765  -9.356 -0.22 -0.00    -0.021 A 
DOCKED: ATOM      7  C   UNL d   1      -6.711   8.707  -9.895 -0.28 +0.00    -0.025 A 
DOCKED: ATOM      8  C   UNL d   1      -6.753   8.524 -11.275 -0.19 -0.00    +0.066 A 
DOCKED: ATOM      9  C   UNL d   1      -5.941   9.736  -9.098 -0.44 -0.00    +0.051 C 
DOCKED: ATOM     10  C   UNL d   1      -5.984   9.071 -13.594 -0.16 -0.01    +0.066 A 
DOCKED: ATOM     11  C   UNL d   1      -5.067   9.717 -14.429 -0.19 +0.00    -0.021 A 
DOCKED: ATOM     12  C   UNL d   1      -5.324   9.274 -15.714 -0.14 -0.00    +0.000 A 
DOCKED: ATOM     13  C   UNL d   1      -6.416   8.372 -15.587 -0.14 -0.01    +0.070 A 
DOCKED: ATOM     14  C   UNL d   1      -3.973  10.695 -14.017 -0.35 -0.02    +0.052 C 
DOCKED: ATOM     15  C   UNL d   1      -8.119   6.804 -16.504 -0.20 -0.00    +0.066 A 
DOCKED: ATOM     16  C   UNL d   1      -8.776   6.259 -17.606 -0.20 +0.00    -0.021 A 
DOCKED: ATOM     17  C   UNL d   1      -9.771   5.424 -17.098 -0.21 +0.00    +0.000 A 
DOCKED: ATOM     18  C   UNL d   1      -9.643   5.522 -15.705 -0.23 +0.01    +0.070 A 
DOCKED: ATOM     19  C   UNL d   1      -8.436   6.622 -19.029 -0.14 -0.00    +0.052 C 
DOCKED: ATOM     20  C   UNL d   1     -10.396   4.885 -13.377 -0.19 +0.02    +0.066 A 
DOCKED: ATOM     21  C   UNL d   1     -11.183   4.147 -12.496 -0.12 -0.01    -0.025 A 
DOCKED: ATOM     22  C   UNL d   1     -10.770   4.485 -11.227 -0.15 -0.01    -0.021 A 
DOCKED: ATOM     23  C   UNL d   1      -9.754   5.434 -11.380 -0.17 +0.02    +0.066 A 
DOCKED: ATOM     24  C   UNL d   1     -12.277   3.172 -12.849 -0.13 +0.02    +0.051 C 
DOCKED: ATOM     25  N   UNL d   1      -7.675   7.557 -11.603 -0.03 -0.01    -0.248 N 
DOCKED: ATOM     26  N   UNL d   1      -6.815   8.258 -14.295 -0.01 +0.02    -0.248 N 
DOCKED: ATOM     27  N   UNL d   1      -8.686   6.421 -15.363 -0.13 -0.01    -0.248 N 
DOCKED: ATOM     28  N   UNL d   1      -9.561   5.707 -12.687 -0.11 -0.04    -0.248 N 
DOCKED: ATOM     29 FE   UNL d   1      -8.199   6.972 -13.488 -0.04 +0.00    +0.000 Fe
DOCKED: ATOM     30  O   UNL d   1      -8.672   8.409 -13.121 -0.11 +0.00    +0.000 OA
DOCKED: ATOM     31  O   UNL d   1      -9.622   7.460 -13.945 -0.11 +0.00    +0.000 OA
DOCKED: ENDROOT
DOCKED: BRANCH   6  32
DOCKED: ATOM     32  C   UNL d   1      -7.892   7.650  -7.892 -0.01 +0.01    +0.052 C 
DOCKED: BRANCH  32  33
DOCKED: ATOM     33  C   UNL d   1      -9.358   7.949  -7.595 -0.18 +0.05    +0.115 C 
DOCKED: BRANCH  33  34
DOCKED: ATOM     34  C   UNL d   1      -9.958   6.970  -6.616 -0.18 +0.13    +0.139 C 
DOCKED: ATOM     35  O   UNL d   1      -9.623   5.797  -6.653 -0.51 -1.04    -0.650 OA
DOCKED: BRANCH  34  36
DOCKED: ATOM     36  O   UNL d   1     -10.882   7.357  -5.712 -0.13 -0.71    -0.776 OA
DOCKED: ATOM     37  H   UNL d   1     -11.827   7.242  -5.866 +0.03 +0.16    +0.167 HD
DOCKED: ENDBRANCH  34  36
DOCKED: ENDBRANCH  33  34
DOCKED: ENDBRANCH  32  33
DOCKED: ENDBRANCH   6  32
DOCKED: BRANCH  22  38
DOCKED: ATOM     38  C   UNL d   1     -11.366   3.970  -9.943 -0.15 +0.03    +0.052 C 
DOCKED: BRANCH  38  39
DOCKED: ATOM     39  C   UNL d   1     -12.649   4.704  -9.561 -0.07 +0.07    +0.115 C 
DOCKED: BRANCH  39  40
DOCKED: ATOM     40  C   UNL d   1     -12.392   5.881  -8.653 -0.06 +0.11    +0.139 C 
DOCKED: ATOM     41  O   UNL d   1     -12.080   6.959  -9.132 +0.03 -0.30    -0.650 OA
DOCKED: BRANCH  40  42
DOCKED: ATOM     42  O   UNL d   1     -12.549   5.777  -7.319 -0.06 -1.21    -0.776 OA
DOCKED: ATOM     43  H   UNL d   1     -11.815   5.927  -6.711 +0.02 +0.39    +0.167 HD
DOCKED: ENDBRANCH  40  42
DOCKED: ENDBRANCH  39  40
DOCKED: ENDBRANCH  38  39
DOCKED: ENDBRANCH  22  38
DOCKED: BRANCH  12  44
DOCKED: ATOM     44  C   UNL d   1      -4.520   9.751 -16.905 -0.11 -0.00    +0.004 C 
DOCKED: ATOM     45  C   UNL d   1      -3.661   9.051 -17.646 -0.14 -0.00    +0.012 C 
DOCKED: ENDBRANCH  12  44
DOCKED: BRANCH  17  46
DOCKED: ATOM     46  C   UNL d   1     -10.833   4.615 -17.794 -0.16 +0.00    +0.004 C 
DOCKED: ATOM     47  C   UNL d   1     -12.163   4.702 -17.660 -0.14 +0.01    +0.012 C 
DOCKED: ENDBRANCH  17  46
DOCKED: TORSDOF 10
DOCKED: TER
DOCKED: ENDMDL
________________________________________________________________________________


	BEGINNING GENETIC ALGORITHM DOCKING 93 of 100
Run: 93 Seed: 276892485 1238073865 [ Run 93 of 100 GA/GALS ]
Beginning LAMARCKIAN GENETIC ALGORITHM (LGA), with a maximum of 25000000 energy evaluations.

Final-Value: -11.608


	FINAL GENETIC ALGORITHM DOCKED STATE
	_______________________________________________


Detailed state:  trans -7.812 10.461 -12.350 quatxyzw -0.131933 -0.553049 -0.157568 0.807405 center 8.287 34.468 -0.670 ntor 10 59.1305 -47.1422 75.9629 -104.6139 -152.3345 -166.8157 -45.7549 110.1877 17.9410 -163.3407
State:	 -7.812  10.461 -12.350  -0.224 -0.937 -0.267 72.314     59.13  -47.14   75.96 -104.61 -152.33 -166.82  -45.75  110.19   17.94 -163.34

DOCKED: MODEL       93
DOCKED: USER    Run = 93
DOCKED: USER    DPF = D:/Protein_go_brrr/autodock/final/mut_K82N/heme_O2/dock.dpf
DOCKED: USER  
DOCKED: USER    Estimated Free Energy of Binding    =   -7.93 kcal/mol  [=(1)+(2)+(3)-(4)]
DOCKED: USER    Estimated Inhibition Constant, Ki   =    1.53 uM (micromolar)  [Temperature = 298.15 K]
DOCKED: USER    
DOCKED: USER    (1) Final Intermolecular Energy     =  -10.91 kcal/mol
DOCKED: USER        vdW + Hbond + desolv Energy     =   -8.49 kcal/mol
DOCKED: USER        Electrostatic Energy            =   -2.43 kcal/mol
DOCKED: USER    (2) Final Total Internal Energy     =   -0.69 kcal/mol
DOCKED: USER    (3) Torsional Free Energy           =   +2.98 kcal/mol
DOCKED: USER    (4) Unbound System's Energy  [=(2)] =   -0.69 kcal/mol
DOCKED: USER    
DOCKED: USER    
DOCKED: USER    NEWDPF move heme_O2_opt.pdbqt
DOCKED: USER    NEWDPF about 8.287000 34.468000 -0.670000
DOCKED: USER    NEWDPF tran0 -7.811981 10.461465 -12.350244
DOCKED: USER    NEWDPF quaternion0 -0.131933 -0.553049 -0.157568 0.807405
DOCKED: USER    NEWDPF axisangle0 -0.223616 -0.937375 -0.267066 72.313694
DOCKED: USER    NEWDPF quat0 -0.223616 -0.937375 -0.267066 72.313694
DOCKED: USER    NEWDPF dihe0 59.13 -47.14 75.96 -104.61 -152.33 -166.82 -45.75 110.19 17.94 -163.34 
DOCKED: USER  keepresnum = 1 
DOCKED: USER  
DOCKED: REMARK  10 active torsions:
DOCKED: REMARK  status: ('A' for Active; 'I' for Inactive)
DOCKED: REMARK    1  A    between atoms: C_6  and  C_10 
DOCKED: REMARK    2  A    between atoms: C_10  and  C_11 
DOCKED: REMARK    3  A    between atoms: C_11  and  C_12 
DOCKED: REMARK    4  A    between atoms: C_12  and  O_14 
DOCKED: REMARK    5  A    between atoms: C_17  and  C_20 
DOCKED: REMARK    6  A    between atoms: C_24  and  C_27 
DOCKED: REMARK    7  A    between atoms: C_31  and  C_34 
DOCKED: REMARK    8  A    between atoms: C_34  and  C_35 
DOCKED: REMARK    9  A    between atoms: C_35  and  C_36 
DOCKED: REMARK   10  A    between atoms: C_36  and  O_38 
DOCKED: USER                              x       y       z     vdW  Elec       q    Type
DOCKED: USER                           _______ _______ _______ _____ _____    ______ ____
DOCKED: ROOT
DOCKED: ATOM      1  C   UNL d   1      -9.258  10.295 -10.808 -0.09 +0.01    +0.064 A 
DOCKED: ATOM      2  C   UNL d   1      -5.100   8.125 -11.554 -0.18 -0.01    +0.064 A 
DOCKED: ATOM      3  C   UNL d   1      -4.467  10.548 -15.656 -0.15 -0.02    +0.064 C 
DOCKED: ATOM      4  C   UNL d   1      -8.513  13.136 -14.656 -0.07 +0.00    +0.064 A 
DOCKED: ATOM      5  C   UNL d   1      -8.178   9.508 -10.675 -0.14 +0.01    +0.066 A 
DOCKED: ATOM      6  C   UNL d   1      -7.983   8.618  -9.615 -0.18 -0.00    -0.021 A 
DOCKED: ATOM      7  C   UNL d   1      -6.760   8.021  -9.808 -0.27 -0.00    -0.025 A 
DOCKED: ATOM      8  C   UNL d   1      -6.262   8.527 -11.005 -0.24 -0.01    +0.066 A 
DOCKED: ATOM      9  C   UNL d   1      -6.116   7.039  -8.853 -0.32 +0.00    +0.051 C 
DOCKED: ATOM     10  C   UNL d   1      -4.538   8.603 -12.818 -0.14 -0.02    +0.066 A 
DOCKED: ATOM     11  C   UNL d   1      -3.411   8.035 -13.423 -0.45 +0.00    -0.021 A 
DOCKED: ATOM     12  C   UNL d   1      -3.223   8.708 -14.616 -0.41 -0.00    +0.000 A 
DOCKED: ATOM     13  C   UNL d   1      -4.262   9.679 -14.666 -0.22 -0.02    +0.070 A 
DOCKED: ATOM     14  C   UNL d   1      -2.566   6.879 -12.898 -0.31 -0.01    +0.052 C 
DOCKED: ATOM     15  C   UNL d   1      -5.484  11.569 -15.728 -0.08 -0.02    +0.066 A 
DOCKED: ATOM     16  C   UNL d   1      -5.546  12.555 -16.713 -0.07 +0.01    -0.021 A 
DOCKED: ATOM     17  C   UNL d   1      -6.691  13.305 -16.448 -0.06 -0.00    +0.000 A 
DOCKED: ATOM     18  C   UNL d   1      -7.251  12.712 -15.307 -0.07 -0.01    +0.070 A 
DOCKED: ATOM     19  C   UNL d   1      -4.488  12.725 -17.774 -0.08 -0.03    +0.052 C 
DOCKED: ATOM     20  C   UNL d   1      -9.055  12.617 -13.538 -0.05 +0.01    +0.066 A 
DOCKED: ATOM     21  C   UNL d   1     -10.257  13.046 -12.981 -0.03 -0.00    -0.025 A 
DOCKED: ATOM     22  C   UNL d   1     -10.499  12.230 -11.899 -0.06 -0.01    -0.021 A 
DOCKED: ATOM     23  C   UNL d   1      -9.422  11.340 -11.824 -0.01 +0.02    +0.066 A 
DOCKED: ATOM     24  C   UNL d   1     -11.128  14.180 -13.455 -0.05 +0.01    +0.051 C 
DOCKED: ATOM     25  N   UNL d   1      -7.106   9.492 -11.505 -0.11 +0.00    -0.248 N 
DOCKED: ATOM     26  N   UNL d   1      -5.054   9.611 -13.566 -0.14 +0.05    -0.248 N 
DOCKED: ATOM     27  N   UNL d   1      -6.465  11.708 -14.841 -0.04 +0.04    -0.248 N 
DOCKED: ATOM     28  N   UNL d   1      -8.525  11.608 -12.795 -0.06 -0.04    -0.248 N 
DOCKED: ATOM     29 FE   UNL d   1      -6.801  10.619 -13.180 -0.04 -0.00    +0.000 Fe
DOCKED: ATOM     30  O   UNL d   1      -5.834  10.959 -12.010 -0.42 -0.00    +0.000 OA
DOCKED: ATOM     31  O   UNL d   1      -6.430  12.120 -12.893 -0.40 -0.00    +0.000 OA
DOCKED: ENDROOT
DOCKED: BRANCH   6  32
DOCKED: ATOM     32  C   UNL d   1      -8.847   8.433  -8.395 -0.20 +0.01    +0.052 C 
DOCKED: BRANCH  32  33
DOCKED: ATOM     33  C   UNL d   1      -9.741   7.199  -8.483 -0.12 +0.05    +0.115 C 
DOCKED: BRANCH  33  34
DOCKED: ATOM     34  C   UNL d   1      -9.684   6.357  -7.233 -0.13 +0.14    +0.139 C 
DOCKED: ATOM     35  O   UNL d   1      -9.958   6.859  -6.154 -0.43 -0.70    -0.650 OA
DOCKED: BRANCH  34  36
DOCKED: ATOM     36  O   UNL d   1      -9.310   5.062  -7.274 -0.52 -1.13    -0.776 OA
DOCKED: ATOM     37  H   UNL d   1      -8.445   4.790  -7.603 +0.06 +0.13    +0.167 HD
DOCKED: ENDBRANCH  34  36
DOCKED: ENDBRANCH  33  34
DOCKED: ENDBRANCH  32  33
DOCKED: ENDBRANCH   6  32
DOCKED: BRANCH  22  38
DOCKED: ATOM     38  C   UNL d   1     -11.668  12.345 -10.956 -0.07 +0.01    +0.052 C 
DOCKED: BRANCH  38  39
DOCKED: ATOM     39  C   UNL d   1     -11.694  13.684 -10.222 -0.11 +0.04    +0.115 C 
DOCKED: BRANCH  39  40
DOCKED: ATOM     40  C   UNL d   1     -10.595  13.800  -9.195 -0.24 +0.08    +0.139 C 
DOCKED: ATOM     41  O   UNL d   1     -10.084  12.791  -8.738 -0.05 -0.26    -0.650 OA
DOCKED: BRANCH  40  42
DOCKED: ATOM     42  O   UNL d   1     -10.130  15.003  -8.807 -0.38 -1.00    -0.776 OA
DOCKED: ATOM     43  H   UNL d   1      -9.939  15.701  -9.446 -0.45 +0.22    +0.167 HD
DOCKED: ENDBRANCH  40  42
DOCKED: ENDBRANCH  39  40
DOCKED: ENDBRANCH  38  39
DOCKED: ENDBRANCH  22  38
DOCKED: BRANCH  12  44
DOCKED: ATOM     44  C   UNL d   1      -2.093   8.364 -15.563 -0.43 -0.00    +0.004 C 
DOCKED: ATOM     45  C   UNL d   1      -0.995   9.075 -15.819 -0.40 -0.00    +0.012 C 
DOCKED: ENDBRANCH  12  44
DOCKED: BRANCH  17  46
DOCKED: ATOM     46  C   UNL d   1      -7.249  14.529 -17.124 -0.04 -0.00    +0.004 C 
DOCKED: ATOM     47  C   UNL d   1      -7.333  15.776 -16.643 -0.06 -0.00    +0.012 C 
DOCKED: ENDBRANCH  17  46
DOCKED: TORSDOF 10
DOCKED: TER
DOCKED: ENDMDL
________________________________________________________________________________


	BEGINNING GENETIC ALGORITHM DOCKING 94 of 100
Run: 94 Seed: 462173642 1042999905 [ Run 94 of 100 GA/GALS ]
Beginning LAMARCKIAN GENETIC ALGORITHM (LGA), with a maximum of 25000000 energy evaluations.

Final-Value: -10.272


	FINAL GENETIC ALGORITHM DOCKED STATE
	_______________________________________________


Detailed state:  trans -11.888 13.097 -8.265 quatxyzw 0.171251 -0.195185 0.412324 0.873249 center 8.287 34.468 -0.670 ntor 10 -144.0001 -177.9245 -128.0063 -87.2688 -1.9371 116.0076 -66.5322 80.7743 171.7933 179.9678
State:	-11.888  13.097  -8.265   0.351 -0.401  0.846 58.323   -144.00 -177.92 -128.01  -87.27   -1.94  116.01  -66.53   80.77  171.79  179.97

DOCKED: MODEL       94
DOCKED: USER    Run = 94
DOCKED: USER    DPF = D:/Protein_go_brrr/autodock/final/mut_K82N/heme_O2/dock.dpf
DOCKED: USER  
DOCKED: USER    Estimated Free Energy of Binding    =   -4.89 kcal/mol  [=(1)+(2)+(3)-(4)]
DOCKED: USER    Estimated Inhibition Constant, Ki   =  261.33 uM (micromolar)  [Temperature = 298.15 K]
DOCKED: USER    
DOCKED: USER    (1) Final Intermolecular Energy     =   -7.87 kcal/mol
DOCKED: USER        vdW + Hbond + desolv Energy     =   -6.22 kcal/mol
DOCKED: USER        Electrostatic Energy            =   -1.65 kcal/mol
DOCKED: USER    (2) Final Total Internal Energy     =   -2.40 kcal/mol
DOCKED: USER    (3) Torsional Free Energy           =   +2.98 kcal/mol
DOCKED: USER    (4) Unbound System's Energy  [=(2)] =   -2.40 kcal/mol
DOCKED: USER    
DOCKED: USER    
DOCKED: USER    NEWDPF move heme_O2_opt.pdbqt
DOCKED: USER    NEWDPF about 8.287000 34.468000 -0.670000
DOCKED: USER    NEWDPF tran0 -11.887759 13.096835 -8.264942
DOCKED: USER    NEWDPF quaternion0 0.171251 -0.195185 0.412324 0.873249
DOCKED: USER    NEWDPF axisangle0 0.351448 -0.400566 0.846186 58.323052
DOCKED: USER    NEWDPF quat0 0.351448 -0.400566 0.846186 58.323052
DOCKED: USER    NEWDPF dihe0 -144.00 -177.92 -128.01 -87.27 -1.94 116.01 -66.53 80.77 171.79 179.97 
DOCKED: USER  keepresnum = 1 
DOCKED: USER  
DOCKED: REMARK  10 active torsions:
DOCKED: REMARK  status: ('A' for Active; 'I' for Inactive)
DOCKED: REMARK    1  A    between atoms: C_6  and  C_10 
DOCKED: REMARK    2  A    between atoms: C_10  and  C_11 
DOCKED: REMARK    3  A    between atoms: C_11  and  C_12 
DOCKED: REMARK    4  A    between atoms: C_12  and  O_14 
DOCKED: REMARK    5  A    between atoms: C_17  and  C_20 
DOCKED: REMARK    6  A    between atoms: C_24  and  C_27 
DOCKED: REMARK    7  A    between atoms: C_31  and  C_34 
DOCKED: REMARK    8  A    between atoms: C_34  and  C_35 
DOCKED: REMARK    9  A    between atoms: C_35  and  C_36 
DOCKED: REMARK   10  A    between atoms: C_36  and  O_38 
DOCKED: USER                              x       y       z     vdW  Elec       q    Type
DOCKED: USER                           _______ _______ _______ _____ _____    ______ ____
DOCKED: ROOT
DOCKED: ATOM      1  C   UNL d   1     -12.972  14.820  -8.861 -0.08 +0.03    +0.064 A 
DOCKED: ATOM      2  C   UNL d   1     -12.280  12.768  -4.634 -0.15 +0.02    +0.064 A 
DOCKED: ATOM      3  C   UNL d   1      -9.642   9.293  -6.649 -0.25 +0.02    +0.064 C 
DOCKED: ATOM      4  C   UNL d   1      -9.948  11.659 -10.936 +0.15 +0.02    +0.064 A 
DOCKED: ATOM      5  C   UNL d   1     -12.997  14.546  -7.546 -0.10 +0.04    +0.066 A 
DOCKED: ATOM      6  C   UNL d   1     -13.687  15.311  -6.601 -0.09 -0.01    -0.021 A 
DOCKED: ATOM      7  C   UNL d   1     -13.452  14.742  -5.371 -0.10 -0.01    -0.025 A 
DOCKED: ATOM      8  C   UNL d   1     -12.665  13.618  -5.605 -0.12 +0.03    +0.066 A 
DOCKED: ATOM      9  C   UNL d   1     -13.949  15.295  -4.053 -0.10 +0.02    +0.051 C 
DOCKED: ATOM     10  C   UNL d   1     -11.474  11.560  -4.821 -0.17 +0.02    +0.066 A 
DOCKED: ATOM     11  C   UNL d   1     -11.241  10.626  -3.806 -0.25 -0.01    -0.021 A 
DOCKED: ATOM     12  C   UNL d   1     -10.497   9.607  -4.372 -0.33 +0.00    +0.000 A 
DOCKED: ATOM     13  C   UNL d   1     -10.304   9.993  -5.728 -0.22 +0.02    +0.070 A 
DOCKED: ATOM     14  C   UNL d   1     -11.731  10.688  -2.364 +0.09 +0.01    +0.052 C 
DOCKED: ATOM     15  C   UNL d   1      -9.394   9.665  -8.021 -0.17 +0.02    +0.066 A 
DOCKED: ATOM     16  C   UNL d   1      -8.556   8.967  -8.890 -0.19 -0.00    -0.021 A 
DOCKED: ATOM     17  C   UNL d   1      -8.626   9.624 -10.119 -0.15 +0.00    +0.000 A 
DOCKED: ATOM     18  C   UNL d   1      -9.516  10.686  -9.904 -0.12 +0.02    +0.070 A 
DOCKED: ATOM     19  C   UNL d   1      -7.728   7.782  -8.460 -0.24 +0.01    +0.052 C 
DOCKED: ATOM     20  C   UNL d   1     -10.766  12.714 -10.754 -0.05 +0.02    +0.066 A 
DOCKED: ATOM     21  C   UNL d   1     -11.151  13.586 -11.768 -0.07 -0.01    -0.025 A 
DOCKED: ATOM     22  C   UNL d   1     -12.034  14.477 -11.201 -0.08 -0.01    -0.021 A 
DOCKED: ATOM     23  C   UNL d   1     -12.141  14.126  -9.852 -0.10 +0.03    +0.066 A 
DOCKED: ATOM     24  C   UNL d   1     -10.697  13.572 -13.205 -0.07 +0.01    +0.051 C 
DOCKED: ATOM     25  N   UNL d   1     -12.331  13.535  -6.937 -0.08 -0.12    -0.248 N 
DOCKED: ATOM     26  N   UNL d   1     -10.897  11.185  -5.991 -0.10 -0.07    -0.248 N 
DOCKED: ATOM     27  N   UNL d   1      -9.913  10.740  -8.607 -0.09 -0.06    -0.248 N 
DOCKED: ATOM     28  N   UNL d   1     -11.334  13.081  -9.574 -0.09 -0.09    -0.248 N 
DOCKED: ATOM     29 FE   UNL d   1     -11.115  12.138  -7.797 -0.03 +0.00    +0.000 Fe
DOCKED: ATOM     30  O   UNL d   1     -10.366  13.135  -6.865 -0.39 +0.00    +0.000 OA
DOCKED: ATOM     31  O   UNL d   1      -9.701  12.682  -8.220 -0.37 +0.00    +0.000 OA
DOCKED: ENDROOT
DOCKED: BRANCH   6  32
DOCKED: ATOM     32  C   UNL d   1     -14.427  16.605  -6.822 -0.06 +0.02    +0.052 C 
DOCKED: BRANCH  32  33
DOCKED: ATOM     33  C   UNL d   1     -13.661  17.820  -6.308 -0.07 +0.08    +0.115 C 
DOCKED: BRANCH  33  34
DOCKED: ATOM     34  C   UNL d   1     -13.175  18.709  -7.426 -0.04 +0.12    +0.139 C 
DOCKED: ATOM     35  O   UNL d   1     -12.180  19.397  -7.260 -0.43 -0.83    -0.650 OA
DOCKED: BRANCH  34  36
DOCKED: ATOM     36  O   UNL d   1     -13.832  18.783  -8.601 -0.02 -0.39    -0.776 OA
DOCKED: ATOM     37  H   UNL d   1     -13.369  18.881  -9.441 +0.01 +0.08    +0.167 HD
DOCKED: ENDBRANCH  34  36
DOCKED: ENDBRANCH  33  34
DOCKED: ENDBRANCH  32  33
DOCKED: ENDBRANCH   6  32
DOCKED: BRANCH  22  38
DOCKED: ATOM     38  C   UNL d   1     -12.685  15.639 -11.907 -0.04 +0.01    +0.052 C 
DOCKED: BRANCH  38  39
DOCKED: ATOM     39  C   UNL d   1     -11.740  16.828 -12.063 -0.06 +0.03    +0.115 C 
DOCKED: BRANCH  39  40
DOCKED: ATOM     40  C   UNL d   1     -11.989  17.901 -11.033 -0.07 +0.06    +0.139 C 
DOCKED: ATOM     41  O   UNL d   1     -12.645  18.887 -11.330 +0.02 -0.18    -0.650 OA
DOCKED: BRANCH  40  42
DOCKED: ATOM     42  O   UNL d   1     -11.541  17.770  -9.769 -0.07 -0.87    -0.776 OA
DOCKED: ATOM     43  H   UNL d   1     -11.755  18.418  -9.088 +0.02 +0.25    +0.167 HD
DOCKED: ENDBRANCH  40  42
DOCKED: ENDBRANCH  39  40
DOCKED: ENDBRANCH  38  39
DOCKED: ENDBRANCH  22  38
DOCKED: BRANCH  12  44
DOCKED: ATOM     44  C   UNL d   1     -10.054   8.397  -3.577 -0.43 +0.00    +0.004 C 
DOCKED: ATOM     45  C   UNL d   1     -10.789   7.635  -2.767 -0.44 +0.00    +0.012 C 
DOCKED: ENDBRANCH  12  44
DOCKED: BRANCH  17  46
DOCKED: ATOM     46  C   UNL d   1      -7.904   9.375 -11.415 -0.17 +0.00    +0.004 C 
DOCKED: ATOM     47  C   UNL d   1      -6.773   9.942 -11.856 -0.27 -0.00    +0.012 C 
DOCKED: ENDBRANCH  17  46
DOCKED: TORSDOF 10
DOCKED: TER
DOCKED: ENDMDL
________________________________________________________________________________


	BEGINNING GENETIC ALGORITHM DOCKING 95 of 100
Run: 95 Seed: 1207892555 122705866 [ Run 95 of 100 GA/GALS ]
Beginning LAMARCKIAN GENETIC ALGORITHM (LGA), with a maximum of 25000000 energy evaluations.

Final-Value: -9.986


	FINAL GENETIC ALGORITHM DOCKED STATE
	_______________________________________________


Detailed state:  trans 13.139 3.658 20.415 quatxyzw -0.157966 -0.847020 0.178252 0.475216 center 8.287 34.468 -0.670 ntor 10 -162.0944 -35.9979 58.9899 118.7644 156.1199 104.2169 78.1034 -101.3180 -7.9283 -34.9166
State:	 13.139   3.658  20.415  -0.180 -0.963  0.203 123.253   -162.09  -36.00   58.99  118.76  156.12  104.22   78.10 -101.32   -7.93  -34.92

DOCKED: MODEL       95
DOCKED: USER    Run = 95
DOCKED: USER    DPF = D:/Protein_go_brrr/autodock/final/mut_K82N/heme_O2/dock.dpf
DOCKED: USER  
DOCKED: USER    Estimated Free Energy of Binding    =   -4.92 kcal/mol  [=(1)+(2)+(3)-(4)]
DOCKED: USER    Estimated Inhibition Constant, Ki   =  249.21 uM (micromolar)  [Temperature = 298.15 K]
DOCKED: USER    
DOCKED: USER    (1) Final Intermolecular Energy     =   -7.90 kcal/mol
DOCKED: USER        vdW + Hbond + desolv Energy     =   -5.15 kcal/mol
DOCKED: USER        Electrostatic Energy            =   -2.75 kcal/mol
DOCKED: USER    (2) Final Total Internal Energy     =   -2.09 kcal/mol
DOCKED: USER    (3) Torsional Free Energy           =   +2.98 kcal/mol
DOCKED: USER    (4) Unbound System's Energy  [=(2)] =   -2.09 kcal/mol
DOCKED: USER    
DOCKED: USER    
DOCKED: USER    NEWDPF move heme_O2_opt.pdbqt
DOCKED: USER    NEWDPF about 8.287000 34.468000 -0.670000
DOCKED: USER    NEWDPF tran0 13.138602 3.658496 20.414692
DOCKED: USER    NEWDPF quaternion0 -0.157966 -0.847020 0.178252 0.475216
DOCKED: USER    NEWDPF axisangle0 -0.179533 -0.962666 0.202590 123.253139
DOCKED: USER    NEWDPF quat0 -0.179533 -0.962666 0.202590 123.253139
DOCKED: USER    NEWDPF dihe0 -162.09 -36.00 58.99 118.76 156.12 104.22 78.10 -101.32 -7.93 -34.92 
DOCKED: USER  keepresnum = 1 
DOCKED: USER  
DOCKED: REMARK  10 active torsions:
DOCKED: REMARK  status: ('A' for Active; 'I' for Inactive)
DOCKED: REMARK    1  A    between atoms: C_6  and  C_10 
DOCKED: REMARK    2  A    between atoms: C_10  and  C_11 
DOCKED: REMARK    3  A    between atoms: C_11  and  C_12 
DOCKED: REMARK    4  A    between atoms: C_12  and  O_14 
DOCKED: REMARK    5  A    between atoms: C_17  and  C_20 
DOCKED: REMARK    6  A    between atoms: C_24  and  C_27 
DOCKED: REMARK    7  A    between atoms: C_31  and  C_34 
DOCKED: REMARK    8  A    between atoms: C_34  and  C_35 
DOCKED: REMARK    9  A    between atoms: C_35  and  C_36 
DOCKED: REMARK   10  A    between atoms: C_36  and  O_38 
DOCKED: USER                              x       y       z     vdW  Elec       q    Type
DOCKED: USER                           _______ _______ _______ _____ _____    ______ ____
DOCKED: ROOT
DOCKED: ATOM      1  C   UNL d   1      13.735   4.370  22.322 +0.00 +0.04    +0.064 A 
DOCKED: ATOM      2  C   UNL d   1      14.733   0.392  19.927 -0.05 +0.01    +0.064 A 
DOCKED: ATOM      3  C   UNL d   1      11.934   1.779  16.274 -0.27 -0.01    +0.064 C 
DOCKED: ATOM      4  C   UNL d   1      11.279   6.091  18.521 -0.08 +0.01    +0.064 A 
DOCKED: ATOM      5  C   UNL d   1      14.236   3.176  21.968 -0.09 +0.03    +0.066 A 
DOCKED: ATOM      6  C   UNL d   1      15.087   2.414  22.773 -0.07 -0.01    -0.021 A 
DOCKED: ATOM      7  C   UNL d   1      15.411   1.282  22.063 -0.04 -0.01    -0.025 A 
DOCKED: ATOM      8  C   UNL d   1      14.711   1.361  20.862 -0.06 +0.01    +0.066 A 
DOCKED: ATOM      9  C   UNL d   1      16.374   0.212  22.531 -0.02 +0.01    +0.051 C 
DOCKED: ATOM     10  C   UNL d   1      14.002   0.408  18.659 -0.09 +0.00    +0.066 A 
DOCKED: ATOM     11  C   UNL d   1      13.930  -0.693  17.798 -0.16 -0.00    -0.021 A 
DOCKED: ATOM     12  C   UNL d   1      13.112  -0.319  16.748 -0.28 -0.00    +0.000 A 
DOCKED: ATOM     13  C   UNL d   1      12.733   1.023  17.027 -0.20 -0.01    +0.070 A 
DOCKED: ATOM     14  C   UNL d   1      14.590  -2.054  17.984 -0.16 +0.00    +0.052 C 
DOCKED: ATOM     15  C   UNL d   1      11.555   3.152  16.504 -0.17 -0.00    +0.066 A 
DOCKED: ATOM     16  C   UNL d   1      10.849   3.940  15.595 -0.25 +0.00    -0.021 A 
DOCKED: ATOM     17  C   UNL d   1      10.651   5.175  16.214 -0.21 -0.00    +0.000 A 
DOCKED: ATOM     18  C   UNL d   1      11.258   5.045  17.471 -0.13 +0.00    +0.070 A 
DOCKED: ATOM     19  C   UNL d   1      10.479   3.468  14.212 -0.22 -0.01    +0.052 C 
DOCKED: ATOM     20  C   UNL d   1      11.888   6.015  19.720 -0.07 +0.01    +0.066 A 
DOCKED: ATOM     21  C   UNL d   1      11.858   7.027  20.676 -0.04 -0.00    -0.025 A 
DOCKED: ATOM     22  C   UNL d   1      12.530   6.543  21.776 -0.06 -0.01    -0.021 A 
DOCKED: ATOM     23  C   UNL d   1      12.962   5.256  21.443 -0.08 +0.03    +0.066 A 
DOCKED: ATOM     24  C   UNL d   1      11.224   8.387  20.544 -0.02 +0.00    +0.051 C 
DOCKED: ATOM     25  N   UNL d   1      14.039   2.558  20.777 -0.07 -0.07    -0.248 N 
DOCKED: ATOM     26  N   UNL d   1      13.283   1.459  18.189 -0.08 -0.01    -0.248 N 
DOCKED: ATOM     27  N   UNL d   1      11.866   3.838  17.601 -0.11 -0.01    -0.248 N 
DOCKED: ATOM     28  N   UNL d   1      12.609   4.956  20.176 -0.07 -0.06    -0.248 N 
DOCKED: ATOM     29 FE   UNL d   1      12.942   3.222  19.188 -0.03 +0.00    +0.000 Fe
DOCKED: ATOM     30  O   UNL d   1      14.473   3.164  18.914 -0.05 +0.00    +0.000 OA
DOCKED: ATOM     31  O   UNL d   1      13.626   4.373  18.364 -0.06 +0.00    +0.000 OA
DOCKED: ENDROOT
DOCKED: BRANCH   6  32
DOCKED: ATOM     32  C   UNL d   1      15.685   2.795  24.103 -0.05 +0.02    +0.052 C 
DOCKED: BRANCH  32  33
DOCKED: ATOM     33  C   UNL d   1      14.682   2.710  25.250 -0.06 +0.08    +0.115 C 
DOCKED: BRANCH  33  34
DOCKED: ATOM     34  C   UNL d   1      14.194   4.068  25.689 -0.02 +0.15    +0.139 C 
DOCKED: ATOM     35  O   UNL d   1      14.537   5.062  25.069 -0.08 -0.45    -0.650 OA
DOCKED: BRANCH  34  36
DOCKED: ATOM     36  O   UNL d   1      13.405   4.215  26.773 -0.22 -1.12    -0.776 OA
DOCKED: ATOM     37  H   UNL d   1      12.882   5.012  26.920 -0.00 +0.24    +0.167 HD
DOCKED: ENDBRANCH  34  36
DOCKED: ENDBRANCH  33  34
DOCKED: ENDBRANCH  32  33
DOCKED: ENDBRANCH   6  32
DOCKED: BRANCH  22  38
DOCKED: ATOM     38  C   UNL d   1      12.794   7.306  23.049 -0.04 +0.02    +0.052 C 
DOCKED: BRANCH  38  39
DOCKED: ATOM     39  C   UNL d   1      11.514   7.600  23.828 -0.05 +0.05    +0.115 C 
DOCKED: BRANCH  39  40
DOCKED: ATOM     40  C   UNL d   1      11.010   6.396  24.584 -0.02 +0.13    +0.139 C 
DOCKED: ATOM     41  O   UNL d   1       9.975   5.851  24.236 +0.04 -0.69    -0.650 OA
DOCKED: BRANCH  40  42
DOCKED: ATOM     42  O   UNL d   1      11.710   5.876  25.610 -0.10 -1.34    -0.776 OA
DOCKED: ATOM     43  H   UNL d   1      12.675   5.891  25.622 -0.00 +0.22    +0.167 HD
DOCKED: ENDBRANCH  40  42
DOCKED: ENDBRANCH  39  40
DOCKED: ENDBRANCH  38  39
DOCKED: ENDBRANCH  22  38
DOCKED: BRANCH  12  44
DOCKED: ATOM     44  C   UNL d   1      12.787  -1.261  15.608 -0.19 -0.00    +0.004 C 
DOCKED: ATOM     45  C   UNL d   1      12.952  -1.053  14.302 -0.43 -0.00    +0.012 C 
DOCKED: ENDBRANCH  12  44
DOCKED: BRANCH  17  46
DOCKED: ATOM     46  C   UNL d   1      10.011   6.441  15.711 -0.29 -0.00    +0.004 C 
DOCKED: ATOM     47  C   UNL d   1       8.867   7.008  16.114 -0.32 -0.00    +0.012 C 
DOCKED: ENDBRANCH  17  46
DOCKED: TORSDOF 10
DOCKED: TER
DOCKED: ENDMDL
________________________________________________________________________________


	BEGINNING GENETIC ALGORITHM DOCKING 96 of 100
Run: 96 Seed: 1527180048 2006511820 [ Run 96 of 100 GA/GALS ]
Beginning LAMARCKIAN GENETIC ALGORITHM (LGA), with a maximum of 25000000 energy evaluations.

Final-Value: -9.344


	FINAL GENETIC ALGORITHM DOCKED STATE
	_______________________________________________


Detailed state:  trans 14.034 5.757 -2.166 quatxyzw -0.709811 -0.488170 -0.504090 -0.061242 center 8.287 34.468 -0.670 ntor 10 134.6032 -99.6295 -33.3956 121.2760 -7.2388 169.0062 -91.7571 49.5482 -173.2264 -175.1196
State:	 14.034   5.757  -2.166  -0.711 -0.489 -0.505 -172.978    134.60  -99.63  -33.40  121.28   -7.24  169.01  -91.76   49.55 -173.23 -175.12

DOCKED: MODEL       96
DOCKED: USER    Run = 96
DOCKED: USER    DPF = D:/Protein_go_brrr/autodock/final/mut_K82N/heme_O2/dock.dpf
DOCKED: USER  
DOCKED: USER    Estimated Free Energy of Binding    =   -3.88 kcal/mol  [=(1)+(2)+(3)-(4)]
DOCKED: USER    Estimated Inhibition Constant, Ki   =    1.43 mM (millimolar)  [Temperature = 298.15 K]
DOCKED: USER    
DOCKED: USER    (1) Final Intermolecular Energy     =   -6.86 kcal/mol
DOCKED: USER        vdW + Hbond + desolv Energy     =   -5.96 kcal/mol
DOCKED: USER        Electrostatic Energy            =   -0.90 kcal/mol
DOCKED: USER    (2) Final Total Internal Energy     =   -2.48 kcal/mol
DOCKED: USER    (3) Torsional Free Energy           =   +2.98 kcal/mol
DOCKED: USER    (4) Unbound System's Energy  [=(2)] =   -2.48 kcal/mol
DOCKED: USER    
DOCKED: USER    
DOCKED: USER    NEWDPF move heme_O2_opt.pdbqt
DOCKED: USER    NEWDPF about 8.287000 34.468000 -0.670000
DOCKED: USER    NEWDPF tran0 14.033606 5.757283 -2.165827
DOCKED: USER    NEWDPF quaternion0 -0.709811 -0.488170 -0.504090 -0.061242
DOCKED: USER    NEWDPF axisangle0 -0.711146 -0.489088 -0.505038 -172.977760
DOCKED: USER    NEWDPF quat0 -0.711146 -0.489088 -0.505038 -172.977760
DOCKED: USER    NEWDPF dihe0 134.60 -99.63 -33.40 121.28 -7.24 169.01 -91.76 49.55 -173.23 -175.12 
DOCKED: USER  keepresnum = 1 
DOCKED: USER  
DOCKED: REMARK  10 active torsions:
DOCKED: REMARK  status: ('A' for Active; 'I' for Inactive)
DOCKED: REMARK    1  A    between atoms: C_6  and  C_10 
DOCKED: REMARK    2  A    between atoms: C_10  and  C_11 
DOCKED: REMARK    3  A    between atoms: C_11  and  C_12 
DOCKED: REMARK    4  A    between atoms: C_12  and  O_14 
DOCKED: REMARK    5  A    between atoms: C_17  and  C_20 
DOCKED: REMARK    6  A    between atoms: C_24  and  C_27 
DOCKED: REMARK    7  A    between atoms: C_31  and  C_34 
DOCKED: REMARK    8  A    between atoms: C_34  and  C_35 
DOCKED: REMARK    9  A    between atoms: C_35  and  C_36 
DOCKED: REMARK   10  A    between atoms: C_36  and  O_38 
DOCKED: USER                              x       y       z     vdW  Elec       q    Type
DOCKED: USER                           _______ _______ _______ _____ _____    ______ ____
DOCKED: ROOT
DOCKED: ATOM      1  C   UNL d   1      13.935   3.803  -2.984 -0.20 +0.01    +0.064 A 
DOCKED: ATOM      2  C   UNL d   1      14.326   8.098  -4.974 -0.17 -0.00    +0.064 A 
DOCKED: ATOM      3  C   UNL d   1      14.196  10.210  -0.659 -0.17 -0.00    +0.064 C 
DOCKED: ATOM      4  C   UNL d   1      14.275   5.770   1.426 -0.08 +0.00    +0.064 A 
DOCKED: ATOM      5  C   UNL d   1      14.054   4.799  -3.877 -0.19 +0.01    +0.066 A 
DOCKED: ATOM      6  C   UNL d   1      14.102   4.608  -5.261 -0.20 -0.00    -0.021 A 
DOCKED: ATOM      7  C   UNL d   1      14.258   5.847  -5.836 -0.21 +0.00    -0.025 A 
DOCKED: ATOM      8  C   UNL d   1      14.253   6.766  -4.790 -0.16 +0.00    +0.066 A 
DOCKED: ATOM      9  C   UNL d   1      14.432   6.098  -7.318 -0.18 -0.00    +0.051 C 
DOCKED: ATOM     10  C   UNL d   1      14.302   9.112  -3.918 -0.20 -0.00    +0.066 A 
DOCKED: ATOM     11  C   UNL d   1      14.215  10.485  -4.172 -0.28 +0.00    -0.021 A 
DOCKED: ATOM     12  C   UNL d   1      14.158  11.110  -2.939 -0.25 -0.00    +0.000 A 
DOCKED: ATOM     13  C   UNL d   1      14.227  10.060  -1.983 -0.22 -0.01    +0.070 A 
DOCKED: ATOM     14  C   UNL d   1      14.160  11.170  -5.532 -0.23 -0.01    +0.052 C 
DOCKED: ATOM     15  C   UNL d   1      14.299   9.177   0.343 -0.13 -0.00    +0.066 A 
DOCKED: ATOM     16  C   UNL d   1      14.425   9.412   1.712 -0.08 +0.00    -0.021 A 
DOCKED: ATOM     17  C   UNL d   1      14.450   8.160   2.327 -0.06 -0.00    +0.000 A 
DOCKED: ATOM     18  C   UNL d   1      14.334   7.243   1.273 -0.10 -0.00    +0.070 A 
DOCKED: ATOM     19  C   UNL d   1      14.564  10.794   2.299 -0.06 -0.00    +0.052 C 
DOCKED: ATOM     20  C   UNL d   1      14.208   4.860   0.435 -0.09 +0.00    +0.066 A 
DOCKED: ATOM     21  C   UNL d   1      14.136   3.485   0.641 -0.09 -0.00    -0.025 A 
DOCKED: ATOM     22  C   UNL d   1      14.011   2.910  -0.603 -0.14 -0.00    -0.021 A 
DOCKED: ATOM     23  C   UNL d   1      14.029   3.959  -1.528 -0.11 +0.01    +0.066 A 
DOCKED: ATOM     24  C   UNL d   1      14.188   2.757   1.959 -0.07 +0.00    +0.051 C 
DOCKED: ATOM     25  N   UNL d   1      14.193   6.114  -3.580 -0.10 -0.03    -0.248 N 
DOCKED: ATOM     26  N   UNL d   1      14.320   8.848  -2.587 -0.15 +0.01    -0.248 N 
DOCKED: ATOM     27  N   UNL d   1      14.319   7.875   0.072 -0.11 -0.00    -0.248 N 
DOCKED: ATOM     28  N   UNL d   1      14.194   5.139  -0.896 -0.02 -0.06    -0.248 N 
DOCKED: ATOM     29 FE   UNL d   1      14.257   6.981  -1.732 -0.05 +0.00    +0.000 Fe
DOCKED: ATOM     30  O   UNL d   1      15.603   7.060  -2.510 -0.13 +0.00    +0.000 OA
DOCKED: ATOM     31  O   UNL d   1      15.611   6.766  -0.962 -0.10 +0.00    +0.000 OA
DOCKED: ENDROOT
DOCKED: BRANCH   6  32
DOCKED: ATOM     32  C   UNL d   1      14.138   3.302  -6.012 -0.20 -0.00    +0.052 C 
DOCKED: BRANCH  32  33
DOCKED: ATOM     33  C   UNL d   1      15.557   2.790  -6.242 -0.07 +0.00    +0.115 C 
DOCKED: BRANCH  33  34
DOCKED: ATOM     34  C   UNL d   1      16.072   1.980  -5.078 -0.05 +0.02    +0.139 C 
DOCKED: ATOM     35  O   UNL d   1      17.275   1.845  -4.923 +0.02 -0.04    -0.650 OA
DOCKED: BRANCH  34  36
DOCKED: ATOM     36  O   UNL d   1      15.230   1.375  -4.215 -0.37 -0.46    -0.776 OA
DOCKED: ATOM     37  H   UNL d   1      15.364   0.466  -3.923 +0.01 +0.10    +0.167 HD
DOCKED: ENDBRANCH  34  36
DOCKED: ENDBRANCH  33  34
DOCKED: ENDBRANCH  32  33
DOCKED: ENDBRANCH   6  32
DOCKED: BRANCH  22  38
DOCKED: ATOM     38  C   UNL d   1      13.944   1.432  -0.885 -0.14 +0.02    +0.052 C 
DOCKED: BRANCH  38  39
DOCKED: ATOM     39  C   UNL d   1      15.296   0.743  -0.707 -0.06 +0.03    +0.115 C 
DOCKED: BRANCH  39  40
DOCKED: ATOM     40  C   UNL d   1      15.647  -0.146  -1.873 -0.06 +0.05    +0.139 C 
DOCKED: ATOM     41  O   UNL d   1      14.813  -0.916  -2.321 -0.20 -0.44    -0.650 OA
DOCKED: BRANCH  40  42
DOCKED: ATOM     42  O   UNL d   1      16.855  -0.071  -2.466 +0.03 -0.13    -0.776 OA
DOCKED: ATOM     43  H   UNL d   1      16.992   0.448  -3.267 +0.01 +0.03    +0.167 HD
DOCKED: ENDBRANCH  40  42
DOCKED: ENDBRANCH  39  40
DOCKED: ENDBRANCH  38  39
DOCKED: ENDBRANCH  22  38
DOCKED: BRANCH  12  44
DOCKED: ATOM     44  C   UNL d   1      14.049  12.614  -2.806 -0.21 -0.00    +0.004 C 
DOCKED: ATOM     45  C   UNL d   1      13.345  13.308  -1.912 -0.24 -0.00    +0.012 C 
DOCKED: ENDBRANCH  12  44
DOCKED: BRANCH  17  46
DOCKED: ATOM     46  C   UNL d   1      14.627   7.772   3.771 -0.03 -0.00    +0.004 C 
DOCKED: ATOM     47  C   UNL d   1      13.743   7.178   4.583 -0.06 +0.00    +0.012 C 
DOCKED: ENDBRANCH  17  46
DOCKED: TORSDOF 10
DOCKED: TER
DOCKED: ENDMDL
________________________________________________________________________________


	BEGINNING GENETIC ALGORITHM DOCKING 97 of 100
Run: 97 Seed: 1364973415 368308650 [ Run 97 of 100 GA/GALS ]
Beginning LAMARCKIAN GENETIC ALGORITHM (LGA), with a maximum of 25000000 energy evaluations.

Final-Value: -9.222


	FINAL GENETIC ALGORITHM DOCKED STATE
	_______________________________________________


Detailed state:  trans 13.849 1.889 22.870 quatxyzw -0.223411 -0.631339 0.527553 0.522673 center 8.287 34.468 -0.670 ntor 10 39.4774 53.6469 -103.6665 58.8855 -106.3915 165.4724 139.3045 125.5345 28.0615 37.1866
State:	 13.849   1.889  22.870  -0.262 -0.741  0.619 116.977     39.48   53.65 -103.67   58.89 -106.39  165.47  139.30  125.53   28.06   37.19

DOCKED: MODEL       97
DOCKED: USER    Run = 97
DOCKED: USER    DPF = D:/Protein_go_brrr/autodock/final/mut_K82N/heme_O2/dock.dpf
DOCKED: USER  
DOCKED: USER    Estimated Free Energy of Binding    =   -4.68 kcal/mol  [=(1)+(2)+(3)-(4)]
DOCKED: USER    Estimated Inhibition Constant, Ki   =  370.65 uM (micromolar)  [Temperature = 298.15 K]
DOCKED: USER    
DOCKED: USER    (1) Final Intermolecular Energy     =   -7.66 kcal/mol
DOCKED: USER        vdW + Hbond + desolv Energy     =   -4.95 kcal/mol
DOCKED: USER        Electrostatic Energy            =   -2.72 kcal/mol
DOCKED: USER    (2) Final Total Internal Energy     =   -1.56 kcal/mol
DOCKED: USER    (3) Torsional Free Energy           =   +2.98 kcal/mol
DOCKED: USER    (4) Unbound System's Energy  [=(2)] =   -1.56 kcal/mol
DOCKED: USER    
DOCKED: USER    
DOCKED: USER    NEWDPF move heme_O2_opt.pdbqt
DOCKED: USER    NEWDPF about 8.287000 34.468000 -0.670000
DOCKED: USER    NEWDPF tran0 13.848539 1.888688 22.870468
DOCKED: USER    NEWDPF quaternion0 -0.223411 -0.631339 0.527553 0.522673
DOCKED: USER    NEWDPF axisangle0 -0.262055 -0.740544 0.618807 116.976578
DOCKED: USER    NEWDPF quat0 -0.262055 -0.740544 0.618807 116.976578
DOCKED: USER    NEWDPF dihe0 39.48 53.65 -103.67 58.89 -106.39 165.47 139.30 125.53 28.06 37.19 
DOCKED: USER  keepresnum = 1 
DOCKED: USER  
DOCKED: REMARK  10 active torsions:
DOCKED: REMARK  status: ('A' for Active; 'I' for Inactive)
DOCKED: REMARK    1  A    between atoms: C_6  and  C_10 
DOCKED: REMARK    2  A    between atoms: C_10  and  C_11 
DOCKED: REMARK    3  A    between atoms: C_11  and  C_12 
DOCKED: REMARK    4  A    between atoms: C_12  and  O_14 
DOCKED: REMARK    5  A    between atoms: C_17  and  C_20 
DOCKED: REMARK    6  A    between atoms: C_24  and  C_27 
DOCKED: REMARK    7  A    between atoms: C_31  and  C_34 
DOCKED: REMARK    8  A    between atoms: C_34  and  C_35 
DOCKED: REMARK    9  A    between atoms: C_35  and  C_36 
DOCKED: REMARK   10  A    between atoms: C_36  and  O_38 
DOCKED: USER                              x       y       z     vdW  Elec       q    Type
DOCKED: USER                           _______ _______ _______ _____ _____    ______ ____
DOCKED: ROOT
DOCKED: ATOM      1  C   UNL d   1      14.673   3.319  24.203 -0.05 +0.04    +0.064 A 
DOCKED: ATOM      2  C   UNL d   1      13.556  -1.269  24.712 -0.05 +0.02    +0.064 A 
DOCKED: ATOM      3  C   UNL d   1      11.965  -1.480  20.182 -0.25 +0.00    +0.064 C 
DOCKED: ATOM      4  C   UNL d   1      13.551   3.112  19.498 -0.10 +0.01    +0.064 A 
DOCKED: ATOM      5  C   UNL d   1      14.500   2.088  24.710 -0.07 +0.05    +0.066 A 
DOCKED: ATOM      6  C   UNL d   1      14.818   1.731  26.024 -0.06 -0.01    -0.021 A 
DOCKED: ATOM      7  C   UNL d   1      14.536   0.392  26.160 -0.04 -0.01    -0.025 A 
DOCKED: ATOM      8  C   UNL d   1      14.008  -0.021  24.939 -0.07 +0.03    +0.066 A 
DOCKED: ATOM      9  C   UNL d   1      14.801  -0.427  27.404 -0.01 +0.01    +0.051 C 
DOCKED: ATOM     10  C   UNL d   1      12.972  -1.755  23.461 -0.08 +0.01    +0.066 A 
DOCKED: ATOM     11  C   UNL d   1      12.369  -3.011  23.330 -0.06 -0.00    -0.021 A 
DOCKED: ATOM     12  C   UNL d   1      11.888  -3.084  22.035 -0.15 +0.00    +0.000 A 
DOCKED: ATOM     13  C   UNL d   1      12.243  -1.845  21.433 -0.18 +0.01    +0.070 A 
DOCKED: ATOM     14  C   UNL d   1      12.234  -4.086  24.402 -0.03 +0.00    +0.052 C 
DOCKED: ATOM     15  C   UNL d   1      12.338  -0.251  19.524 -0.25 +0.01    +0.066 A 
DOCKED: ATOM     16  C   UNL d   1      12.160   0.004  18.165 -0.34 +0.00    -0.021 A 
DOCKED: ATOM     17  C   UNL d   1      12.606   1.307  17.946 -0.24 -0.00    +0.000 A 
DOCKED: ATOM     18  C   UNL d   1      13.026   1.757  19.206 -0.17 +0.01    +0.070 A 
DOCKED: ATOM     19  C   UNL d   1      11.639  -1.028  17.196 -0.40 -0.01    +0.052 C 
DOCKED: ATOM     20  C   UNL d   1      14.002   3.561  20.685 -0.09 +0.02    +0.066 A 
DOCKED: ATOM     21  C   UNL d   1      14.469   4.855  20.903 -0.05 -0.01    -0.025 A 
DOCKED: ATOM     22  C   UNL d   1      14.767   4.940  22.244 -0.05 -0.01    -0.021 A 
DOCKED: ATOM     23  C   UNL d   1      14.487   3.685  22.793 -0.06 +0.03    +0.066 A 
DOCKED: ATOM     24  C   UNL d   1      14.625   5.952  19.882 -0.02 +0.01    +0.051 C 
DOCKED: ATOM     25  N   UNL d   1      14.048   1.008  24.027 -0.08 -0.15    -0.248 N 
DOCKED: ATOM     26  N   UNL d   1      12.906  -1.044  22.306 -0.10 -0.06    -0.248 N 
DOCKED: ATOM     27  N   UNL d   1      12.925   0.773  20.136 -0.13 -0.05    -0.248 N 
DOCKED: ATOM     28  N   UNL d   1      14.065   2.837  21.833 -0.08 -0.11    -0.248 N 
DOCKED: ATOM     29 FE   UNL d   1      13.490   0.910  22.065 -0.03 +0.00    +0.000 Fe
DOCKED: ATOM     30  O   UNL d   1      14.782   0.107  22.391 -0.06 +0.00    +0.000 OA
DOCKED: ATOM     31  O   UNL d   1      14.689   0.925  21.049 -0.08 +0.00    +0.000 OA
DOCKED: ENDROOT
DOCKED: BRANCH   6  32
DOCKED: ATOM     32  C   UNL d   1      15.490   2.578  27.073 -0.02 +0.02    +0.052 C 
DOCKED: BRANCH  32  33
DOCKED: ATOM     33  C   UNL d   1      14.560   2.939  28.228 -0.02 +0.05    +0.115 C 
DOCKED: BRANCH  33  34
DOCKED: ATOM     34  C   UNL d   1      13.184   3.339  27.755 +0.02 +0.14    +0.139 C 
DOCKED: ATOM     35  O   UNL d   1      12.261   2.546  27.847 -0.06 -0.84    -0.650 OA
DOCKED: BRANCH  34  36
DOCKED: ATOM     36  O   UNL d   1      12.954   4.548  27.204 -0.28 -1.08    -0.776 OA
DOCKED: ATOM     37  H   UNL d   1      13.579   4.960  26.596 -0.00 +0.18    +0.167 HD
DOCKED: ENDBRANCH  34  36
DOCKED: ENDBRANCH  33  34
DOCKED: ENDBRANCH  32  33
DOCKED: ENDBRANCH   6  32
DOCKED: BRANCH  22  38
DOCKED: ATOM     38  C   UNL d   1      15.349   6.143  22.939 -0.02 +0.01    +0.052 C 
DOCKED: BRANCH  38  39
DOCKED: ATOM     39  C   UNL d   1      14.714   6.390  24.306 -0.03 +0.04    +0.115 C 
DOCKED: BRANCH  39  40
DOCKED: ATOM     40  C   UNL d   1      13.214   6.525  24.229 -0.06 +0.09    +0.139 C 
DOCKED: ATOM     41  O   UNL d   1      12.715   7.285  23.414 -0.00 -0.25    -0.650 OA
DOCKED: BRANCH  40  42
DOCKED: ATOM     42  O   UNL d   1      12.407   5.780  25.010 -0.29 -1.18    -0.776 OA
DOCKED: ATOM     43  H   UNL d   1      12.488   5.788  25.971 -0.00 +0.24    +0.167 HD
DOCKED: ENDBRANCH  40  42
DOCKED: ENDBRANCH  39  40
DOCKED: ENDBRANCH  38  39
DOCKED: ENDBRANCH  22  38
DOCKED: BRANCH  12  44
DOCKED: ATOM     44  C   UNL d   1      11.158  -4.305  21.517 -0.13 +0.00    +0.004 C 
DOCKED: ATOM     45  C   UNL d   1       9.929  -4.717  21.827 -0.16 -0.00    +0.012 C 
DOCKED: ENDBRANCH  12  44
DOCKED: BRANCH  17  46
DOCKED: ATOM     46  C   UNL d   1      12.719   2.114  16.680 -0.19 -0.00    +0.004 C 
DOCKED: ATOM     47  C   UNL d   1      11.776   2.343  15.757 -0.29 -0.00    +0.012 C 
DOCKED: ENDBRANCH  17  46
DOCKED: TORSDOF 10
DOCKED: TER
DOCKED: ENDMDL
________________________________________________________________________________


	BEGINNING GENETIC ALGORITHM DOCKING 98 of 100
Run: 98 Seed: 365896128 1421890276 [ Run 98 of 100 GA/GALS ]
Beginning LAMARCKIAN GENETIC ALGORITHM (LGA), with a maximum of 25000000 energy evaluations.

Final-Value: -10.016


	FINAL GENETIC ALGORITHM DOCKED STATE
	_______________________________________________


Detailed state:  trans 11.956 2.898 16.783 quatxyzw -0.815302 0.266230 0.513784 -0.020740 center 8.287 34.468 -0.670 ntor 10 -39.3941 51.0658 100.5046 70.3517 -131.7684 -51.4422 -151.5429 -67.3909 -10.3586 -10.5261
State:	 11.956   2.898  16.783  -0.815  0.266  0.514 -177.623    -39.39   51.07  100.50   70.35 -131.77  -51.44 -151.54  -67.39  -10.36  -10.53

DOCKED: MODEL       98
DOCKED: USER    Run = 98
DOCKED: USER    DPF = D:/Protein_go_brrr/autodock/final/mut_K82N/heme_O2/dock.dpf
DOCKED: USER  
DOCKED: USER    Estimated Free Energy of Binding    =   -5.23 kcal/mol  [=(1)+(2)+(3)-(4)]
DOCKED: USER    Estimated Inhibition Constant, Ki   =  147.07 uM (micromolar)  [Temperature = 298.15 K]
DOCKED: USER    
DOCKED: USER    (1) Final Intermolecular Energy     =   -8.21 kcal/mol
DOCKED: USER        vdW + Hbond + desolv Energy     =   -7.50 kcal/mol
DOCKED: USER        Electrostatic Energy            =   -0.71 kcal/mol
DOCKED: USER    (2) Final Total Internal Energy     =   -1.80 kcal/mol
DOCKED: USER    (3) Torsional Free Energy           =   +2.98 kcal/mol
DOCKED: USER    (4) Unbound System's Energy  [=(2)] =   -1.80 kcal/mol
DOCKED: USER    
DOCKED: USER    
DOCKED: USER    NEWDPF move heme_O2_opt.pdbqt
DOCKED: USER    NEWDPF about 8.287000 34.468000 -0.670000
DOCKED: USER    NEWDPF tran0 11.955832 2.898425 16.782570
DOCKED: USER    NEWDPF quaternion0 -0.815302 0.266230 0.513784 -0.020740
DOCKED: USER    NEWDPF axisangle0 -0.815477 0.266287 0.513895 -177.623146
DOCKED: USER    NEWDPF quat0 -0.815477 0.266287 0.513895 -177.623146
DOCKED: USER    NEWDPF dihe0 -39.39 51.07 100.50 70.35 -131.77 -51.44 -151.54 -67.39 -10.36 -10.53 
DOCKED: USER  keepresnum = 1 
DOCKED: USER  
DOCKED: REMARK  10 active torsions:
DOCKED: REMARK  status: ('A' for Active; 'I' for Inactive)
DOCKED: REMARK    1  A    between atoms: C_6  and  C_10 
DOCKED: REMARK    2  A    between atoms: C_10  and  C_11 
DOCKED: REMARK    3  A    between atoms: C_11  and  C_12 
DOCKED: REMARK    4  A    between atoms: C_12  and  O_14 
DOCKED: REMARK    5  A    between atoms: C_17  and  C_20 
DOCKED: REMARK    6  A    between atoms: C_24  and  C_27 
DOCKED: REMARK    7  A    between atoms: C_31  and  C_34 
DOCKED: REMARK    8  A    between atoms: C_34  and  C_35 
DOCKED: REMARK    9  A    between atoms: C_35  and  C_36 
DOCKED: REMARK   10  A    between atoms: C_36  and  O_38 
DOCKED: USER                              x       y       z     vdW  Elec       q    Type
DOCKED: USER                           _______ _______ _______ _____ _____    ______ ____
DOCKED: ROOT
DOCKED: ATOM      1  C   UNL d   1      11.725   2.908  18.891 -0.19 +0.01    +0.064 A 
DOCKED: ATOM      2  C   UNL d   1      10.291   5.901  15.493 -0.22 -0.01    +0.064 A 
DOCKED: ATOM      3  C   UNL d   1      12.367   3.197  12.106 -0.15 -0.00    +0.064 C 
DOCKED: ATOM      4  C   UNL d   1      13.438  -0.138  15.541 -0.21 -0.01    +0.064 A 
DOCKED: ATOM      5  C   UNL d   1      11.164   3.942  18.243 -0.15 +0.01    +0.066 A 
DOCKED: ATOM      6  C   UNL d   1      10.476   4.981  18.875 -0.16 -0.00    -0.021 A 
DOCKED: ATOM      7  C   UNL d   1      10.022   5.826  17.889 -0.12 -0.00    -0.025 A 
DOCKED: ATOM      8  C   UNL d   1      10.488   5.305  16.685 -0.16 -0.00    +0.066 A 
DOCKED: ATOM      9  C   UNL d   1       9.161   7.047  18.123 -0.15 -0.00    +0.051 C 
DOCKED: ATOM     10  C   UNL d   1      10.774   5.414  14.200 -0.21 -0.01    +0.066 A 
DOCKED: ATOM     11  C   UNL d   1      10.683   6.155  13.017 -0.25 +0.00    -0.021 A 
DOCKED: ATOM     12  C   UNL d   1      11.292   5.399  12.032 -0.21 -0.00    +0.000 A 
DOCKED: ATOM     13  C   UNL d   1      11.720   4.209  12.683 -0.15 -0.00    +0.070 A 
DOCKED: ATOM     14  C   UNL d   1      10.065   7.537  12.838 -0.23 +0.00    +0.052 C 
DOCKED: ATOM     15  C   UNL d   1      12.785   1.960  12.722 -0.15 -0.01    +0.066 A 
DOCKED: ATOM     16  C   UNL d   1      13.312   0.871  12.029 -0.18 +0.00    -0.021 A 
DOCKED: ATOM     17  C   UNL d   1      13.624  -0.093  12.988 -0.23 -0.00    +0.000 A 
DOCKED: ATOM     18  C   UNL d   1      13.262   0.490  14.210 -0.18 -0.01    +0.070 A 
DOCKED: ATOM     19  C   UNL d   1      13.418   0.826  10.525 +0.05 -0.01    +0.052 C 
DOCKED: ATOM     20  C   UNL d   1      13.062   0.374  16.729 -0.20 -0.01    +0.066 A 
DOCKED: ATOM     21  C   UNL d   1      13.271  -0.257  17.952 -0.21 +0.00    -0.025 A 
DOCKED: ATOM     22  C   UNL d   1      12.813   0.609  18.920 -0.23 -0.00    -0.021 A 
DOCKED: ATOM     23  C   UNL d   1      12.324   1.733  18.248 -0.23 +0.00    +0.066 A 
DOCKED: ATOM     24  C   UNL d   1      13.873  -1.618  18.185 -0.22 +0.00    +0.051 C 
DOCKED: ATOM     25  N   UNL d   1      11.135   4.109  16.898 -0.13 -0.00    -0.248 N 
DOCKED: ATOM     26  N   UNL d   1      11.396   4.224  14.001 -0.13 +0.02    -0.248 N 
DOCKED: ATOM     27  N   UNL d   1      12.685   1.704  14.023 -0.08 +0.03    -0.248 N 
DOCKED: ATOM     28  N   UNL d   1      12.436   1.566  16.914 -0.13 +0.02    -0.248 N 
DOCKED: ATOM     29 FE   UNL d   1      11.921   2.884  15.466 -0.04 -0.00    +0.000 Fe
DOCKED: ATOM     30  O   UNL d   1      10.365   2.939  15.462 -0.42 -0.00    +0.000 OA
DOCKED: ATOM     31  O   UNL d   1      11.098   1.566  15.219 -0.46 -0.00    +0.000 OA
DOCKED: ENDROOT
DOCKED: BRANCH   6  32
DOCKED: ATOM     32  C   UNL d   1      10.135   5.108  20.338 -0.21 +0.02    +0.052 C 
DOCKED: BRANCH  32  33
DOCKED: ATOM     33  C   UNL d   1      11.346   5.455  21.199 -0.11 +0.05    +0.115 C 
DOCKED: BRANCH  33  34
DOCKED: ATOM     34  C   UNL d   1      12.411   6.192  20.426 -0.06 +0.03    +0.139 C 
DOCKED: ATOM     35  O   UNL d   1      12.265   7.378  20.178 +0.02 -0.08    -0.650 OA
DOCKED: BRANCH  34  36
DOCKED: ATOM     36  O   UNL d   1      13.514   5.561  19.973 +0.03 -0.13    -0.776 OA
DOCKED: ATOM     37  H   UNL d   1      13.969   4.889  20.494 +0.02 +0.04    +0.167 HD
DOCKED: ENDBRANCH  34  36
DOCKED: ENDBRANCH  33  34
DOCKED: ENDBRANCH  32  33
DOCKED: ENDBRANCH   6  32
DOCKED: BRANCH  22  38
DOCKED: ATOM     38  C   UNL d   1      12.792   0.337  20.402 -0.19 +0.01    +0.052 C 
DOCKED: BRANCH  38  39
DOCKED: ATOM     39  C   UNL d   1      14.062   0.817  21.100 -0.11 +0.03    +0.115 C 
DOCKED: BRANCH  39  40
DOCKED: ATOM     40  C   UNL d   1      13.810   1.990  22.014 -0.08 +0.07    +0.139 C 
DOCKED: ATOM     41  O   UNL d   1      13.575   1.798  23.196 +0.02 -0.50    -0.650 OA
DOCKED: BRANCH  40  42
DOCKED: ATOM     42  O   UNL d   1      13.888   3.256  21.560 -0.01 -0.32    -0.776 OA
DOCKED: ATOM     43  H   UNL d   1      13.385   3.548  20.790 +0.02 +0.06    +0.167 HD
DOCKED: ENDBRANCH  40  42
DOCKED: ENDBRANCH  39  40
DOCKED: ENDBRANCH  38  39
DOCKED: ENDBRANCH  22  38
DOCKED: BRANCH  12  44
DOCKED: ATOM     44  C   UNL d   1      11.398   5.880  10.600 -0.23 -0.00    +0.004 C 
DOCKED: ATOM     45  C   UNL d   1      10.486   5.782   9.633 -0.35 -0.00    +0.012 C 
DOCKED: ENDBRANCH  12  44
DOCKED: BRANCH  17  46
DOCKED: ATOM     46  C   UNL d   1      14.164  -1.491  12.845 -0.29 -0.00    +0.004 C 
DOCKED: ATOM     47  C   UNL d   1      15.348  -1.876  12.352 -0.24 -0.00    +0.012 C 
DOCKED: ENDBRANCH  17  46
DOCKED: TORSDOF 10
DOCKED: TER
DOCKED: ENDMDL
________________________________________________________________________________


	BEGINNING GENETIC ALGORITHM DOCKING 99 of 100
Run: 99 Seed: 1601095273 1162231874 [ Run 99 of 100 GA/GALS ]
Beginning LAMARCKIAN GENETIC ALGORITHM (LGA), with a maximum of 25000000 energy evaluations.

Final-Value: -11.757


	FINAL GENETIC ALGORITHM DOCKED STATE
	_______________________________________________


Detailed state:  trans -12.172 10.209 -1.215 quatxyzw 0.347335 0.444572 -0.563885 0.603115 center 8.287 34.468 -0.670 ntor 10 -178.3727 -51.1051 -29.4925 26.2646 91.1142 -172.7519 -88.3503 46.7603 177.9593 164.9014
State:	-12.172  10.209  -1.215   0.435  0.557 -0.707 105.813   -178.37  -51.11  -29.49   26.26   91.11 -172.75  -88.35   46.76  177.96  164.90

DOCKED: MODEL       99
DOCKED: USER    Run = 99
DOCKED: USER    DPF = D:/Protein_go_brrr/autodock/final/mut_K82N/heme_O2/dock.dpf
DOCKED: USER  
DOCKED: USER    Estimated Free Energy of Binding    =   -6.77 kcal/mol  [=(1)+(2)+(3)-(4)]
DOCKED: USER    Estimated Inhibition Constant, Ki   =   10.88 uM (micromolar)  [Temperature = 298.15 K]
DOCKED: USER    
DOCKED: USER    (1) Final Intermolecular Energy     =   -9.75 kcal/mol
DOCKED: USER        vdW + Hbond + desolv Energy     =   -7.03 kcal/mol
DOCKED: USER        Electrostatic Energy            =   -2.73 kcal/mol
DOCKED: USER    (2) Final Total Internal Energy     =   -2.00 kcal/mol
DOCKED: USER    (3) Torsional Free Energy           =   +2.98 kcal/mol
DOCKED: USER    (4) Unbound System's Energy  [=(2)] =   -2.00 kcal/mol
DOCKED: USER    
DOCKED: USER    
DOCKED: USER    NEWDPF move heme_O2_opt.pdbqt
DOCKED: USER    NEWDPF about 8.287000 34.468000 -0.670000
DOCKED: USER    NEWDPF tran0 -12.171965 10.208715 -1.214974
DOCKED: USER    NEWDPF quaternion0 0.347335 0.444572 -0.563885 0.603115
DOCKED: USER    NEWDPF axisangle0 0.435446 0.557349 -0.706930 105.813369
DOCKED: USER    NEWDPF quat0 0.435446 0.557349 -0.706930 105.813369
DOCKED: USER    NEWDPF dihe0 -178.37 -51.11 -29.49 26.26 91.11 -172.75 -88.35 46.76 177.96 164.90 
DOCKED: USER  keepresnum = 1 
DOCKED: USER  
DOCKED: REMARK  10 active torsions:
DOCKED: REMARK  status: ('A' for Active; 'I' for Inactive)
DOCKED: REMARK    1  A    between atoms: C_6  and  C_10 
DOCKED: REMARK    2  A    between atoms: C_10  and  C_11 
DOCKED: REMARK    3  A    between atoms: C_11  and  C_12 
DOCKED: REMARK    4  A    between atoms: C_12  and  O_14 
DOCKED: REMARK    5  A    between atoms: C_17  and  C_20 
DOCKED: REMARK    6  A    between atoms: C_24  and  C_27 
DOCKED: REMARK    7  A    between atoms: C_31  and  C_34 
DOCKED: REMARK    8  A    between atoms: C_34  and  C_35 
DOCKED: REMARK    9  A    between atoms: C_35  and  C_36 
DOCKED: REMARK   10  A    between atoms: C_36  and  O_38 
DOCKED: USER                              x       y       z     vdW  Elec       q    Type
DOCKED: USER                           _______ _______ _______ _____ _____    ______ ____
DOCKED: ROOT
DOCKED: ATOM      1  C   UNL d   1     -11.595   8.499  -2.330 -0.28 +0.02    +0.064 A 
DOCKED: ATOM      2  C   UNL d   1     -14.059   9.021   1.697 -0.10 +0.01    +0.064 A 
DOCKED: ATOM      3  C   UNL d   1     -13.530  13.794   1.511 -0.11 +0.01    +0.064 C 
DOCKED: ATOM      4  C   UNL d   1     -11.404  13.305  -2.884 -0.18 +0.02    +0.064 A 
DOCKED: ATOM      5  C   UNL d   1     -12.310   8.252  -1.221 -0.22 +0.01    +0.066 A 
DOCKED: ATOM      6  C   UNL d   1     -12.663   6.971  -0.786 -0.25 -0.00    -0.021 A 
DOCKED: ATOM      7  C   UNL d   1     -13.413   7.123   0.356 -0.18 -0.00    -0.025 A 
DOCKED: ATOM      8  C   UNL d   1     -13.457   8.490   0.615 -0.15 +0.01    +0.066 A 
DOCKED: ATOM      9  C   UNL d   1     -14.066   5.992   1.120 -0.14 +0.01    +0.051 C 
DOCKED: ATOM     10  C   UNL d   1     -14.118  10.444   2.033 -0.07 +0.01    +0.066 A 
DOCKED: ATOM     11  C   UNL d   1     -14.612  10.927   3.250 -0.04 -0.00    -0.021 A 
DOCKED: ATOM     12  C   UNL d   1     -14.452  12.300   3.223 -0.03 +0.00    +0.000 A 
DOCKED: ATOM     13  C   UNL d   1     -13.867  12.584   1.958 -0.07 +0.01    +0.070 A 
DOCKED: ATOM     14  C   UNL d   1     -15.188  10.111   4.401 -0.05 +0.01    +0.052 C 
DOCKED: ATOM     15  C   UNL d   1     -12.968  14.127   0.223 -0.16 +0.01    +0.066 A 
DOCKED: ATOM     16  C   UNL d   1     -12.790  15.427  -0.249 -0.20 -0.00    -0.021 A 
DOCKED: ATOM     17  C   UNL d   1     -12.186  15.313  -1.501 -0.29 +0.00    +0.000 A 
DOCKED: ATOM     18  C   UNL d   1     -12.038  13.933  -1.700 -0.27 +0.01    +0.070 A 
DOCKED: ATOM     19  C   UNL d   1     -13.258  16.647   0.505 -0.14 +0.01    +0.052 C 
DOCKED: ATOM     20  C   UNL d   1     -11.284  11.985  -3.127 -0.28 +0.02    +0.066 A 
DOCKED: ATOM     21  C   UNL d   1     -10.661  11.453  -4.252 -0.34 -0.01    -0.025 A 
DOCKED: ATOM     22  C   UNL d   1     -10.682  10.085  -4.098 -0.32 -0.01    -0.021 A 
DOCKED: ATOM     23  C   UNL d   1     -11.336   9.832  -2.888 -0.24 +0.02    +0.066 A 
DOCKED: ATOM     24  C   UNL d   1     -10.079  12.210  -5.417 -0.38 +0.02    +0.051 C 
DOCKED: ATOM     25  N   UNL d   1     -12.833   9.189  -0.392 -0.05 -0.04    -0.248 N 
DOCKED: ATOM     26  N   UNL d   1     -13.672  11.450   1.239 -0.05 -0.03    -0.248 N 
DOCKED: ATOM     27  N   UNL d   1     -12.585  13.227  -0.678 -0.10 -0.04    -0.248 N 
DOCKED: ATOM     28  N   UNL d   1     -11.740  10.988  -2.323 -0.00 -0.05    -0.248 N 
DOCKED: ATOM     29 FE   UNL d   1     -12.699  11.220  -0.556 -0.04 +0.00    +0.000 Fe
DOCKED: ATOM     30  O   UNL d   1     -14.138  10.666  -0.766 -0.09 +0.00    +0.000 OA
DOCKED: ATOM     31  O   UNL d   1     -13.613  11.842  -1.674 -0.11 +0.00    +0.000 OA
DOCKED: ENDROOT
DOCKED: BRANCH   6  32
DOCKED: ATOM     32  C   UNL d   1     -12.424   5.659  -1.489 +0.03 +0.02    +0.052 C 
DOCKED: BRANCH  32  33
DOCKED: ATOM     33  C   UNL d   1     -13.645   5.170  -2.261 -0.14 +0.06    +0.115 C 
DOCKED: BRANCH  33  34
DOCKED: ATOM     34  C   UNL d   1     -13.672   5.683  -3.680 -0.10 +0.11    +0.139 C 
DOCKED: ATOM     35  O   UNL d   1     -13.696   6.886  -3.886 -0.02 -0.36    -0.650 OA
DOCKED: BRANCH  34  36
DOCKED: ATOM     36  O   UNL d   1     -13.700   4.840  -4.732 -0.23 -1.21    -0.776 OA
DOCKED: ATOM     37  H   UNL d   1     -13.690   5.158  -5.642 +0.00 +0.30    +0.167 HD
DOCKED: ENDBRANCH  34  36
DOCKED: ENDBRANCH  33  34
DOCKED: ENDBRANCH  32  33
DOCKED: ENDBRANCH   6  32
DOCKED: BRANCH  22  38
DOCKED: ATOM     38  C   UNL d   1     -10.159   9.081  -5.093 -0.29 +0.02    +0.052 C 
DOCKED: BRANCH  38  39
DOCKED: ATOM     39  C   UNL d   1     -11.245   8.588  -6.048 -0.14 +0.06    +0.115 C 
DOCKED: BRANCH  39  40
DOCKED: ATOM     40  C   UNL d   1     -11.222   7.090  -6.222 -0.15 +0.15    +0.139 C 
DOCKED: ATOM     41  O   UNL d   1     -10.173   6.480  -6.090 -0.40 -0.90    -0.650 OA
DOCKED: BRANCH  40  42
DOCKED: ATOM     42  O   UNL d   1     -12.352   6.402  -6.473 -0.25 -1.17    -0.776 OA
DOCKED: ATOM     43  H   UNL d   1     -13.152   6.537  -5.951 +0.01 +0.19    +0.167 HD
DOCKED: ENDBRANCH  40  42
DOCKED: ENDBRANCH  39  40
DOCKED: ENDBRANCH  38  39
DOCKED: ENDBRANCH  22  38
DOCKED: BRANCH  12  44
DOCKED: ATOM     44  C   UNL d   1     -14.868  13.181   4.382 -0.01 +0.00    +0.004 C 
DOCKED: ATOM     45  C   UNL d   1     -14.290  14.305   4.805 -0.02 +0.00    +0.012 C 
DOCKED: ENDBRANCH  12  44
DOCKED: BRANCH  17  46
DOCKED: ATOM     46  C   UNL d   1     -11.805  16.359  -2.513 -0.12 +0.00    +0.004 C 
DOCKED: ATOM     47  C   UNL d   1     -11.628  17.673  -2.321 -0.27 +0.00    +0.012 C 
DOCKED: ENDBRANCH  17  46
DOCKED: TORSDOF 10
DOCKED: TER
DOCKED: ENDMDL
________________________________________________________________________________


	BEGINNING GENETIC ALGORITHM DOCKING 100 of 100
Run: 100 Seed: 2048250051 1037239166 [ Run 100 of 100 GA/GALS ]
Beginning LAMARCKIAN GENETIC ALGORITHM (LGA), with a maximum of 25000000 energy evaluations.

Final-Value: -9.943


	FINAL GENETIC ALGORITHM DOCKED STATE
	_______________________________________________


Detailed state:  trans 14.084 3.344 21.583 quatxyzw 0.531709 0.739974 -0.212020 -0.353231 center 8.287 34.468 -0.670 ntor 10 105.4525 -34.9073 -19.2168 -104.7447 -89.6132 145.8139 116.5990 -135.8198 24.0198 -20.9662
State:	 14.084   3.344  21.583   0.568  0.791 -0.227 -138.630    105.45  -34.91  -19.22 -104.74  -89.61  145.81  116.60 -135.82   24.02  -20.97

DOCKED: MODEL      100
DOCKED: USER    Run = 100
DOCKED: USER    DPF = D:/Protein_go_brrr/autodock/final/mut_K82N/heme_O2/dock.dpf
DOCKED: USER  
DOCKED: USER    Estimated Free Energy of Binding    =   -5.41 kcal/mol  [=(1)+(2)+(3)-(4)]
DOCKED: USER    Estimated Inhibition Constant, Ki   =  108.77 uM (micromolar)  [Temperature = 298.15 K]
DOCKED: USER    
DOCKED: USER    (1) Final Intermolecular Energy     =   -8.39 kcal/mol
DOCKED: USER        vdW + Hbond + desolv Energy     =   -5.05 kcal/mol
DOCKED: USER        Electrostatic Energy            =   -3.34 kcal/mol
DOCKED: USER    (2) Final Total Internal Energy     =   -1.55 kcal/mol
DOCKED: USER    (3) Torsional Free Energy           =   +2.98 kcal/mol
DOCKED: USER    (4) Unbound System's Energy  [=(2)] =   -1.55 kcal/mol
DOCKED: USER    
DOCKED: USER    
DOCKED: USER    NEWDPF move heme_O2_opt.pdbqt
DOCKED: USER    NEWDPF about 8.287000 34.468000 -0.670000
DOCKED: USER    NEWDPF tran0 14.084262 3.344151 21.583003
DOCKED: USER    NEWDPF quaternion0 0.531709 0.739974 -0.212020 -0.353231
DOCKED: USER    NEWDPF axisangle0 0.568347 0.790962 -0.226629 -138.629896
DOCKED: USER    NEWDPF quat0 0.568347 0.790962 -0.226629 -138.629896
DOCKED: USER    NEWDPF dihe0 105.45 -34.91 -19.22 -104.74 -89.61 145.81 116.60 -135.82 24.02 -20.97 
DOCKED: USER  keepresnum = 1 
DOCKED: USER  
DOCKED: REMARK  10 active torsions:
DOCKED: REMARK  status: ('A' for Active; 'I' for Inactive)
DOCKED: REMARK    1  A    between atoms: C_6  and  C_10 
DOCKED: REMARK    2  A    between atoms: C_10  and  C_11 
DOCKED: REMARK    3  A    between atoms: C_11  and  C_12 
DOCKED: REMARK    4  A    between atoms: C_12  and  O_14 
DOCKED: REMARK    5  A    between atoms: C_17  and  C_20 
DOCKED: REMARK    6  A    between atoms: C_24  and  C_27 
DOCKED: REMARK    7  A    between atoms: C_31  and  C_34 
DOCKED: REMARK    8  A    between atoms: C_34  and  C_35 
DOCKED: REMARK    9  A    between atoms: C_35  and  C_36 
DOCKED: REMARK   10  A    between atoms: C_36  and  O_38 
DOCKED: USER                              x       y       z     vdW  Elec       q    Type
DOCKED: USER                           _______ _______ _______ _____ _____    ______ ____
DOCKED: ROOT
DOCKED: ATOM      1  C   UNL d   1      14.756   2.912  23.548 -0.07 +0.04    +0.064 A 
DOCKED: ATOM      2  C   UNL d   1      13.087   0.165  20.051 -0.18 +0.01    +0.064 A 
DOCKED: ATOM      3  C   UNL d   1      12.464   3.994  17.215 -0.13 +0.00    +0.064 C 
DOCKED: ATOM      4  C   UNL d   1      14.627   6.773  20.631 -0.01 +0.01    +0.064 A 
DOCKED: ATOM      5  C   UNL d   1      14.355   1.852  22.828 -0.09 +0.03    +0.066 A 
DOCKED: ATOM      6  C   UNL d   1      14.352   0.538  23.304 -0.09 -0.01    -0.021 A 
DOCKED: ATOM      7  C   UNL d   1      13.910  -0.264  22.277 -0.10 -0.01    -0.025 A 
DOCKED: ATOM      8  C   UNL d   1      13.608   0.589  21.219 -0.14 +0.02    +0.066 A 
DOCKED: ATOM      9  C   UNL d   1      13.822  -1.773  22.334 -0.07 +0.01    +0.051 C 
DOCKED: ATOM     10  C   UNL d   1      12.729   1.013  18.914 -0.21 +0.01    +0.066 A 
DOCKED: ATOM     11  C   UNL d   1      12.040   0.544  17.790 -0.32 +0.00    -0.021 A 
DOCKED: ATOM     12  C   UNL d   1      11.835   1.637  16.969 -0.25 -0.00    +0.000 A 
DOCKED: ATOM     13  C   UNL d   1      12.435   2.734  17.647 -0.17 +0.00    +0.070 A 
DOCKED: ATOM     14  C   UNL d   1      11.572  -0.882  17.524 -0.50 -0.01    +0.052 C 
DOCKED: ATOM     15  C   UNL d   1      13.091   5.126  17.855 -0.04 +0.00    +0.066 A 
DOCKED: ATOM     16  C   UNL d   1      13.229   6.386  17.274 -0.02 -0.00    -0.021 A 
DOCKED: ATOM     17  C   UNL d   1      13.844   7.195  18.230 -0.01 +0.00    +0.000 A 
DOCKED: ATOM     18  C   UNL d   1      14.036   6.357  19.337 -0.01 +0.01    +0.070 A 
DOCKED: ATOM     19  C   UNL d   1      12.817   6.687  15.855 -0.03 -0.00    +0.052 C 
DOCKED: ATOM     20  C   UNL d   1      14.864   5.986  21.698 -0.02 +0.01    +0.066 A 
DOCKED: ATOM     21  C   UNL d   1      15.407   6.439  22.897 -0.01 -0.01    -0.025 A 
DOCKED: ATOM     22  C   UNL d   1      15.426   5.358  23.749 -0.03 -0.01    -0.021 A 
DOCKED: ATOM     23  C   UNL d   1      14.909   4.276  23.030 -0.06 +0.03    +0.066 A 
DOCKED: ATOM     24  C   UNL d   1      15.887   7.832  23.212 +0.00 +0.01    +0.051 C 
DOCKED: ATOM     25  N   UNL d   1      13.944   1.884  21.536 -0.09 -0.09    -0.248 N 
DOCKED: ATOM     26  N   UNL d   1      12.980   2.345  18.828 -0.10 -0.02    -0.248 N 
DOCKED: ATOM     27  N   UNL d   1      13.641   5.087  19.065 -0.02 -0.03    -0.248 N 
DOCKED: ATOM     28  N   UNL d   1      14.610   4.652  21.769 -0.03 -0.08    -0.248 N 
DOCKED: ATOM     29 FE   UNL d   1      13.801   3.509  20.307 -0.02 +0.00    +0.000 Fe
DOCKED: ATOM     30  O   UNL d   1      14.906   2.497  19.885 -0.05 +0.00    +0.000 OA
DOCKED: ATOM     31  O   UNL d   1      15.182   4.045  19.778 -0.03 +0.00    +0.000 OA
DOCKED: ENDROOT
DOCKED: BRANCH   6  32
DOCKED: ATOM     32  C   UNL d   1      14.874   0.033  24.624 -0.05 +0.02    +0.052 C 
DOCKED: BRANCH  32  33
DOCKED: ATOM     33  C   UNL d   1      13.761  -0.369  25.586 -0.06 +0.05    +0.115 C 
DOCKED: BRANCH  33  34
DOCKED: ATOM     34  C   UNL d   1      12.921   0.807  26.018 -0.03 +0.15    +0.139 C 
DOCKED: ATOM     35  O   UNL d   1      11.726   0.818  25.769 -0.42 -1.10    -0.650 OA
DOCKED: BRANCH  34  36
DOCKED: ATOM     36  O   UNL d   1      13.466   1.866  26.651 -0.14 -0.88    -0.776 OA
DOCKED: ATOM     37  H   UNL d   1      13.603   2.711  26.207 -0.00 +0.24    +0.167 HD
DOCKED: ENDBRANCH  34  36
DOCKED: ENDBRANCH  33  34
DOCKED: ENDBRANCH  32  33
DOCKED: ENDBRANCH   6  32
DOCKED: BRANCH  22  38
DOCKED: ATOM     38  C   UNL d   1      15.973   5.356  25.153 -0.02 +0.01    +0.052 C 
DOCKED: BRANCH  38  39
DOCKED: ATOM     39  C   UNL d   1      14.981   5.928  26.164 -0.02 +0.05    +0.115 C 
DOCKED: BRANCH  39  40
DOCKED: ATOM     40  C   UNL d   1      13.575   5.434  25.936 +0.05 +0.15    +0.139 C 
DOCKED: ATOM     41  O   UNL d   1      12.954   5.804  24.952 -0.42 -0.77    -0.650 OA
DOCKED: BRANCH  40  42
DOCKED: ATOM     42  O   UNL d   1      13.005   4.546  26.773 -0.28 -1.36    -0.776 OA
DOCKED: ATOM     43  H   UNL d   1      13.526   3.875  27.229 -0.00 +0.19    +0.167 HD
DOCKED: ENDBRANCH  40  42
DOCKED: ENDBRANCH  39  40
DOCKED: ENDBRANCH  38  39
DOCKED: ENDBRANCH  22  38
DOCKED: BRANCH  12  44
DOCKED: ATOM     44  C   UNL d   1      11.105   1.523  15.647 -0.32 -0.00    +0.004 C 
DOCKED: ATOM     45  C   UNL d   1      10.468   2.484  14.978 -0.44 -0.00    +0.012 C 
DOCKED: ENDBRANCH  12  44
DOCKED: BRANCH  17  46
DOCKED: ATOM     46  C   UNL d   1      14.303   8.628  18.164 +0.00 +0.00    +0.004 C 
DOCKED: ATOM     47  C   UNL d   1      15.557   9.098  18.175 +0.00 +0.00    +0.012 C 
DOCKED: ENDBRANCH  17  46
DOCKED: TORSDOF 10
DOCKED: TER
DOCKED: ENDMDL
________________________________________________________________________________

DPF> analysis                             # perform a ranked cluster analysis


		CLUSTER ANALYSIS OF CONFORMATIONS
		_________________________________

Number of conformations = 100

RMSD cluster analysis will be performed using the ligand atoms only (47 / 47 total atoms).

Outputting structurally similar clusters, ranked in order of increasing energy.


________________________________________________________________________________

Number of distinct conformational clusters found = 56,  out of 100 runs,
Using an rmsd-tolerance of 2.0 A


	CLUSTERING HISTOGRAM
	____________________

________________________________________________________________________________
     |           |     |           |     |                                    
Clus | Lowest    | Run | Mean      | Num | Histogram                          
-ter | Binding   |     | Binding   | in  |                                    
Rank | Energy    |     | Energy    | Clus|    5    10   15   20   25   30   35
_____|___________|_____|___________|_____|____:____|____:____|____:____|____:___
   1 |    -13.85 |  66 |    -13.62 |   2 |##
   2 |     -8.13 |  68 |     -7.66 |  10 |##########
   3 |     -7.37 |  77 |     -6.76 |   6 |######
   4 |     -7.18 |  64 |     -7.18 |   1 |#
   5 |     -6.90 |  28 |     -6.90 |   1 |#
   6 |     -6.81 |  22 |     -6.65 |   4 |####
   7 |     -6.69 |  49 |     -5.74 |   5 |#####
   8 |     -6.45 |   3 |     -6.45 |   1 |#
   9 |     -6.41 |  73 |     -5.87 |   4 |####
  10 |     -6.33 |  56 |     -6.33 |   1 |#
  11 |     -6.15 |  12 |     -6.15 |   1 |#
  12 |     -6.08 |  78 |     -5.92 |   2 |##
  13 |     -5.89 |  20 |     -5.89 |   1 |#
  14 |     -5.78 |  60 |     -5.78 |   1 |#
  15 |     -5.77 |  67 |     -5.46 |   2 |##
  16 |     -5.70 |  45 |     -5.22 |   4 |####
  17 |     -5.69 |  62 |     -5.69 |   1 |#
  18 |     -5.62 |  58 |     -5.62 |   1 |#
  19 |     -5.43 |  35 |     -5.11 |   2 |##
  20 |     -5.43 |  54 |     -5.43 |   1 |#
  21 |     -5.41 | 100 |     -5.41 |   1 |#
  22 |     -5.37 |   6 |     -5.37 |   1 |#
  23 |     -5.30 |  17 |     -5.30 |   1 |#
  24 |     -5.25 |  37 |     -5.21 |   3 |###
  25 |     -5.22 |  15 |     -4.82 |   5 |#####
  26 |     -5.17 |  57 |     -4.85 |   2 |##
  27 |     -5.17 |  87 |     -5.17 |   1 |#
  28 |     -5.01 |  48 |     -5.01 |   1 |#
  29 |     -4.96 |  89 |     -4.63 |   3 |###
  30 |     -4.84 |  59 |     -4.84 |   1 |#
  31 |     -4.82 |   2 |     -4.82 |   1 |#
  32 |     -4.81 |  38 |     -4.81 |   1 |#
  33 |     -4.78 |  32 |     -4.78 |   1 |#
  34 |     -4.78 |  39 |     -4.78 |   1 |#
  35 |     -4.74 |  41 |     -4.74 |   1 |#
  36 |     -4.69 |  46 |     -4.69 |   1 |#
  37 |     -4.68 |  97 |     -4.68 |   1 |#
  38 |     -4.65 |  51 |     -4.65 |   1 |#
  39 |     -4.63 |  70 |     -4.63 |   1 |#
  40 |     -4.62 |  33 |     -4.62 |   1 |#
  41 |     -4.59 |  31 |     -4.59 |   1 |#
  42 |     -4.54 |  23 |     -4.54 |   1 |#
  43 |     -4.51 |  85 |     -3.81 |   3 |###
  44 |     -4.45 |  44 |     -4.26 |   2 |##
  45 |     -4.35 |  42 |     -4.35 |   1 |#
  46 |     -4.31 |  26 |     -4.31 |   1 |#
  47 |     -4.29 |  43 |     -3.87 |   2 |##
  48 |     -4.12 |  76 |     -4.12 |   1 |#
  49 |     -4.10 |  88 |     -4.10 |   1 |#
  50 |     -3.95 |  40 |     -3.95 |   1 |#
  51 |     -3.92 |   1 |     -3.92 |   1 |#
  52 |     -3.88 |  96 |     -3.88 |   1 |#
  53 |     -3.80 |  86 |     -3.80 |   1 |#
  54 |     -3.79 |  80 |     -3.79 |   1 |#
  55 |     -3.69 |  84 |     -3.69 |   1 |#
  56 |     -3.54 |  13 |     -3.54 |   1 |#
_____|___________|_____|___________|_____|______________________________________


Number of multi-member conformational clusters found = 17, out of 100 runs.

	RMSD TABLE
	__________

_____________________________________________________________________
     |      |      |           |         |                 |
Rank | Sub- | Run  | Binding   | Cluster | Reference       | Grep
     | Rank |      | Energy    | RMSD    | RMSD            | Pattern
_____|______|______|___________|_________|_________________|___________
   1      1     66      -13.85      0.00     32.20           RANKING
   1      2     24      -13.40      0.90     32.27           RANKING
   2      1     68       -8.13      0.00     28.74           RANKING
   2      2     29       -8.11      0.56     28.62           RANKING
   2      3     34       -8.05      0.37     28.67           RANKING
   2      4     75       -8.01      0.70     28.75           RANKING
   2      5     93       -7.93      0.49     28.67           RANKING
   2      6     53       -7.90      0.74     28.65           RANKING
   2      7     55       -7.45      1.61     28.73           RANKING
   2      8     69       -7.37      1.15     28.70           RANKING
   2      9     50       -7.05      1.25     28.58           RANKING
   2     10     47       -6.63      1.66     28.15           RANKING
   3      1     77       -7.37      0.00     32.32           RANKING
   3      2     21       -7.05      1.79     32.28           RANKING
   3      3     19       -6.72      0.88     32.09           RANKING
   3      4     79       -6.56      0.80     32.11           RANKING
   3      5     92       -6.46      1.33     32.30           RANKING
   3      6     90       -6.43      1.09     32.13           RANKING
   4      1     64       -7.18      0.00     32.99           RANKING
   5      1     28       -6.90      0.00     28.65           RANKING
   6      1     22       -6.81      0.00     28.87           RANKING
   6      2     99       -6.77      0.83     28.98           RANKING
   6      3     72       -6.66      0.47     29.02           RANKING
   6      4     30       -6.34      0.64     28.74           RANKING
   7      1     49       -6.69      0.00     32.77           RANKING
   7      2      4       -5.85      1.15     31.90           RANKING
   7      3     36       -5.82      1.35     31.54           RANKING
   7      4     98       -5.23      1.42     32.45           RANKING
   7      5     74       -5.10      1.31     32.51           RANKING
   8      1      3       -6.45      0.00     36.46           RANKING
   9      1     73       -6.41      0.00     28.62           RANKING
   9      2      5       -6.20      0.77     28.59           RANKING
   9      3     27       -5.71      0.42     28.56           RANKING
   9      4     82       -5.16      0.52     28.60           RANKING
  10      1     56       -6.33      0.00     28.13           RANKING
  11      1     12       -6.15      0.00     32.48           RANKING
  12      1     78       -6.08      0.00     37.66           RANKING
  12      2     61       -5.75      1.07     37.58           RANKING
  13      1     20       -5.89      0.00     37.89           RANKING
  14      1     60       -5.78      0.00     32.02           RANKING
  15      1     67       -5.77      0.00     29.87           RANKING
  15      2     14       -5.14      1.67     28.90           RANKING
  16      1     45       -5.70      0.00     33.19           RANKING
  16      2     18       -5.34      1.70     32.77           RANKING
  16      3     71       -4.92      1.29     32.96           RANKING
  16      4     95       -4.92      1.70     33.87           RANKING
  17      1     62       -5.69      0.00     44.88           RANKING
  18      1     58       -5.62      0.00     32.24           RANKING
  19      1     35       -5.43      0.00     29.71           RANKING
  19      2     83       -4.78      1.67     27.46           RANKING
  20      1     54       -5.43      0.00     32.17           RANKING
  21      1    100       -5.41      0.00     34.65           RANKING
  22      1      6       -5.37      0.00     32.12           RANKING
  23      1     17       -5.30      0.00     36.29           RANKING
  24      1     37       -5.25      0.00     21.19           RANKING
  24      2     52       -5.23      1.64     21.22           RANKING
  24      3      9       -5.16      1.43     20.60           RANKING
  25      1     15       -5.22      0.00     26.82           RANKING
  25      2      7       -5.00      1.02     26.62           RANKING
  25      3     94       -4.89      1.27     26.88           RANKING
  25      4     81       -4.64      1.95     26.01           RANKING
  25      5     10       -4.34      1.97     26.27           RANKING
  26      1     57       -5.17      0.00     41.29           RANKING
  26      2     25       -4.53      1.76     41.56           RANKING
  27      1     87       -5.17      0.00     42.89           RANKING
  28      1     48       -5.01      0.00     30.98           RANKING
  29      1     89       -4.96      0.00     45.13           RANKING
  29      2     11       -4.47      0.60     45.18           RANKING
  29      3     91       -4.46      0.91     45.43           RANKING
  30      1     59       -4.84      0.00     26.79           RANKING
  31      1      2       -4.82      0.00     26.08           RANKING
  32      1     38       -4.81      0.00     39.79           RANKING
  33      1     32       -4.78      0.00     32.72           RANKING
  34      1     39       -4.78      0.00     26.27           RANKING
  35      1     41       -4.74      0.00     22.54           RANKING
  36      1     46       -4.69      0.00     26.87           RANKING
  37      1     97       -4.68      0.00     36.81           RANKING
  38      1     51       -4.65      0.00     39.16           RANKING
  39      1     70       -4.63      0.00     19.88           RANKING
  40      1     33       -4.62      0.00     30.85           RANKING
  41      1     31       -4.59      0.00     34.34           RANKING
  42      1     23       -4.54      0.00     30.73           RANKING
  43      1     85       -4.51      0.00     19.01           RANKING
  43      2     65       -3.47      1.28     19.90           RANKING
  43      3     63       -3.46      1.42     19.87           RANKING
  44      1     44       -4.45      0.00     40.42           RANKING
  44      2     16       -4.06      1.44     41.08           RANKING
  45      1     42       -4.35      0.00     15.70           RANKING
  46      1     26       -4.31      0.00     21.07           RANKING
  47      1     43       -4.29      0.00     41.91           RANKING
  47      2      8       -3.45      1.70     42.66           RANKING
  48      1     76       -4.12      0.00     47.41           RANKING
  49      1     88       -4.10      0.00     21.99           RANKING
  50      1     40       -3.95      0.00     28.38           RANKING
  51      1      1       -3.92      0.00     31.85           RANKING
  52      1     96       -3.88      0.00     27.50           RANKING
  53      1     86       -3.80      0.00     49.35           RANKING
  54      1     80       -3.79      0.00     45.61           RANKING
  55      1     84       -3.69      0.00     38.27           RANKING
  56      1     13       -3.54      0.00     27.17           RANKING
_______________________________________________________________________



	INFORMATION ENTROPY ANALYSIS FOR THIS CLUSTERING
	________________________________________________


Information entropy for this clustering = 0.81  (rmstol = 2.00 Angstrom)

_______________________________________________________________________


	STATISTICAL MECHANICAL ANALYSIS
	_______________________________


Partition function, Q =   100.95            at Temperature, T = 298.15 K
Free energy,        A ~ -2734.08 kcal/mol   at Temperature, T = 298.15 K
Internal energy,    U =    -5.61 kcal/mol   at Temperature, T = 298.15 K
Entropy,            S =     9.15 kcal/mol/K at Temperature, T = 298.15 K

_______________________________________________________________________


	LOWEST ENERGY DOCKED CONFORMATION from EACH CLUSTER
	___________________________________________________



Keeping original residue number (specified in the input PDBQ file) for outputting.

MODEL       66
USER    Run = 66
USER    Cluster Rank = 1
USER    Number of conformations in this cluster = 2
USER  
USER    RMSD from reference structure       = 32.200 A
USER  
USER    Estimated Free Energy of Binding    =  -13.85 kcal/mol  [=(1)+(2)+(3)-(4)]
USER    Estimated Inhibition Constant, Ki   =   70.84 pM (picomolar)  [Temperature = 298.15 K]
USER    
USER    (1) Final Intermolecular Energy     =  -16.83 kcal/mol
USER        vdW + Hbond + desolv Energy     =  -14.57 kcal/mol
USER        Electrostatic Energy            =   -2.26 kcal/mol
USER    (2) Final Total Internal Energy     =   -1.21 kcal/mol
USER    (3) Torsional Free Energy           =   +2.98 kcal/mol
USER    (4) Unbound System's Energy  [=(2)] =   -1.21 kcal/mol
USER    
USER    
USER  
USER    DPF = D:/Protein_go_brrr/autodock/final/mut_K82N/heme_O2/dock.dpf
USER    NEWDPF move	heme_O2_opt.pdbqt
USER    NEWDPF about	8.287000 34.468000 -0.670000
USER    NEWDPF tran0	-4.418545 3.374555 -6.755580
USER    NEWDPF axisangle0	0.483770 0.381678 0.787584 -16.147663
USER    NEWDPF quaternion0	0.067945 0.053606 0.110615 -0.990088
USER    NEWDPF dihe0	12.68 98.77 146.16 -21.12 87.78 157.83 -25.77 -64.65 -32.94 52.96 
USER  
USER                              x       y       z    vdW   Elec        q     RMS 
ATOM      1  C   UNL d   1      -6.456   3.631  -7.285 -0.19 +0.02    +0.064    32.200
ATOM      2  C   UNL d   1      -4.290   0.807  -4.140 -0.39 +0.00    +0.064    32.200
ATOM      3  C   UNL d   1       0.011   2.525  -5.422 -0.30 -0.00    +0.064    32.200
ATOM      4  C   UNL d   1      -2.242   5.777  -8.322 -0.35 +0.00    +0.064    32.200
ATOM      5  C   UNL d   1      -6.218   2.724  -6.324 -0.24 +0.02    +0.066    32.200
ATOM      6  C   UNL d   1      -7.214   1.970  -5.695 -0.38 -0.01    -0.021    32.200
ATOM      7  C   UNL d   1      -6.592   1.183  -4.754 -0.42 -0.00    -0.025    32.200
ATOM      8  C   UNL d   1      -5.229   1.443  -4.867 -0.38 +0.01    +0.066    32.200
ATOM      9  C   UNL d   1      -7.305   0.261  -3.789 -0.16 +0.01    +0.051    32.200
ATOM     10  C   UNL d   1      -2.845   1.021  -4.230 -0.37 +0.00    +0.066    32.200
ATOM     11  C   UNL d   1      -1.906   0.219  -3.571 -0.40 +0.00    -0.021    32.200
ATOM     12  C   UNL d   1      -0.659   0.687  -3.943 -0.35 -0.00    +0.000    32.200
ATOM     13  C   UNL d   1      -0.914   1.780  -4.817 -0.29 +0.00    +0.070    32.200
ATOM     14  C   UNL d   1      -2.187  -0.961  -2.648 -0.47 -0.00    +0.052    32.200
ATOM     15  C   UNL d   1      -0.205   3.661  -6.285 -0.42 +0.00    +0.066    32.200
ATOM     16  C   UNL d   1       0.805   4.500  -6.756 -0.53 -0.00    -0.021    32.200
ATOM     17  C   UNL d   1       0.186   5.435  -7.584 -0.51 +0.00    +0.000    32.200
ATOM     18  C   UNL d   1      -1.173   5.091  -7.558 -0.40 +0.00    +0.070    32.200
ATOM     19  C   UNL d   1       2.246   4.369  -6.333 -0.17 +0.00    +0.052    32.200
ATOM     20  C   UNL d   1      -3.560   5.500  -8.287 -0.42 +0.01    +0.066    32.200
ATOM     21  C   UNL d   1      -4.519   6.169  -9.043 -0.43 -0.00    -0.025    32.200
ATOM     22  C   UNL d   1      -5.722   5.554  -8.781 -0.24 -0.00    -0.021    32.200
ATOM     23  C   UNL d   1      -5.455   4.539  -7.857 -0.17 +0.01    +0.066    32.200
ATOM     24  C   UNL d   1      -4.298   7.340  -9.966 -0.47 -0.01    +0.051    32.200
ATOM     25  N   UNL d   1      -5.006   2.440  -5.789 -0.16 -0.05    -0.248    32.200
ATOM     26  N   UNL d   1      -2.246   1.979  -4.982 -0.26 -0.01    -0.248    32.200
ATOM     27  N   UNL d   1      -1.402   4.059  -6.706 -0.25 -0.01    -0.248    32.200
ATOM     28  N   UNL d   1      -4.147   4.539  -7.525 -0.16 -0.08    -0.248    32.200
ATOM     29 FE   UNL d   1      -3.201   3.270  -6.264 -0.09 +0.00    +0.000    32.200
ATOM     30  O   UNL d   1      -3.700   3.627  -4.833 -0.43 +0.00    +0.000    32.200
ATOM     31  O   UNL d   1      -2.992   4.727  -5.711 -0.94 +0.00    +0.000    32.200
ATOM     32  C   UNL d   1      -8.706   2.081  -5.873 -0.11 +0.04    +0.052    32.200
ATOM     33  C   UNL d   1      -9.133   2.044  -7.337 -0.22 +0.10    +0.115    32.200
ATOM     34  C   UNL d   1     -10.524   1.489  -7.516 -0.05 +0.15    +0.139    32.200
ATOM     35  O   UNL d   1     -10.759   0.335  -7.197 +0.00 -0.40    -0.650    32.200
ATOM     36  O   UNL d   1     -11.515   2.234  -8.050 -0.26 -1.18    -0.776    32.200
ATOM     37  H   UNL d   1     -11.340   3.068  -8.501 +0.02 +0.23    +0.167    32.200
ATOM     38  C   UNL d   1      -7.059   5.964  -9.341 -0.23 +0.01    +0.052    32.200
ATOM     39  C   UNL d   1      -8.054   4.806  -9.381 -0.22 +0.04    +0.115    32.200
ATOM     40  C   UNL d   1      -9.221   5.017  -8.450 -0.20 +0.11    +0.139    32.200
ATOM     41  O   UNL d   1      -9.023   5.191  -7.258 -0.48 -0.78    -0.650    32.200
ATOM     42  O   UNL d   1     -10.484   5.067  -8.917 -0.02 -0.67    -0.776    32.200
ATOM     43  H   UNL d   1     -11.080   4.312  -8.844 +0.03 +0.19    +0.167    32.200
ATOM     44  C   UNL d   1       0.620   0.058  -3.432 -0.59 -0.00    +0.004    32.200
ATOM     45  C   UNL d   1       0.868  -0.419  -2.213 -0.65 -0.00    +0.012    32.200
ATOM     46  C   UNL d   1       0.744   6.621  -8.325 -0.37 +0.00    +0.004    32.200
ATOM     47  C   UNL d   1       1.810   7.368  -8.011 -0.47 +0.00    +0.012    32.200
TER
ENDMDL
MODEL       68
USER    Run = 68
USER    Cluster Rank = 2
USER    Number of conformations in this cluster = 10
USER  
USER    RMSD from reference structure       = 28.736 A
USER  
USER    Estimated Free Energy of Binding    =   -8.13 kcal/mol  [=(1)+(2)+(3)-(4)]
USER    Estimated Inhibition Constant, Ki   =    1.09 uM (micromolar)  [Temperature = 298.15 K]
USER    
USER    (1) Final Intermolecular Energy     =  -11.11 kcal/mol
USER        vdW + Hbond + desolv Energy     =   -8.50 kcal/mol
USER        Electrostatic Energy            =   -2.62 kcal/mol
USER    (2) Final Total Internal Energy     =   -0.66 kcal/mol
USER    (3) Torsional Free Energy           =   +2.98 kcal/mol
USER    (4) Unbound System's Energy  [=(2)] =   -0.66 kcal/mol
USER    
USER    
USER  
USER    DPF = D:/Protein_go_brrr/autodock/final/mut_K82N/heme_O2/dock.dpf
USER    NEWDPF move	heme_O2_opt.pdbqt
USER    NEWDPF about	8.287000 34.468000 -0.670000
USER    NEWDPF tran0	-7.652127 10.317664 -12.364724
USER    NEWDPF axisangle0	-0.297382 -0.908550 -0.293430 69.211836
USER    NEWDPF quaternion0	-0.168892 -0.515991 -0.166648 0.823078
USER    NEWDPF dihe0	33.30 -43.61 45.18 -102.87 -164.36 -173.52 -50.17 107.79 19.74 -154.04 
USER  
USER                              x       y       z    vdW   Elec        q     RMS 
ATOM      1  C   UNL d   1      -9.207  10.098 -10.939 -0.09 +0.01    +0.064    28.736
ATOM      2  C   UNL d   1      -5.093   7.812 -11.577 -0.20 -0.01    +0.064    28.736
ATOM      3  C   UNL d   1      -4.085  10.509 -15.424 -0.20 -0.02    +0.064    28.736
ATOM      4  C   UNL d   1      -8.089  13.187 -14.495 -0.09 -0.00    +0.064    28.736
ATOM      5  C   UNL d   1      -8.170   9.257 -10.797 -0.13 +0.01    +0.066    28.736
ATOM      6  C   UNL d   1      -8.083   8.281  -9.800 -0.16 -0.00    -0.021    28.736
ATOM      7  C   UNL d   1      -6.873   7.648  -9.957 -0.24 -0.00    -0.025    28.736
ATOM      8  C   UNL d   1      -6.274   8.222 -11.076 -0.22 -0.00    +0.066    28.736
ATOM      9  C   UNL d   1      -6.335   6.569  -9.042 -0.31 +0.00    +0.051    28.736
ATOM     10  C   UNL d   1      -4.427   8.359 -12.759 -0.19 -0.02    +0.066    28.736
ATOM     11  C   UNL d   1      -3.284   7.790 -13.331 -0.47 +0.00    -0.021    28.736
ATOM     12  C   UNL d   1      -2.988   8.543 -14.452 -0.44 -0.00    +0.000    28.736
ATOM     13  C   UNL d   1      -3.982   9.559 -14.495 -0.26 -0.02    +0.070    28.736
ATOM     14  C   UNL d   1      -2.522   6.563 -12.844 -0.28 -0.01    +0.052    28.736
ATOM     15  C   UNL d   1      -5.055  11.576 -15.484 -0.12 -0.02    +0.066    28.736
ATOM     16  C   UNL d   1      -5.010  12.635 -16.389 -0.11 +0.01    -0.021    28.736
ATOM     17  C   UNL d   1      -6.142  13.412 -16.143 -0.11 -0.00    +0.000    28.736
ATOM     18  C   UNL d   1      -6.801  12.759 -15.092 -0.10 -0.01    +0.070    28.736
ATOM     19  C   UNL d   1      -3.876  12.839 -17.362 -0.08 -0.05    +0.052    28.736
ATOM     20  C   UNL d   1      -8.726  12.609 -13.459 -0.03 +0.01    +0.066    28.736
ATOM     21  C   UNL d   1      -9.946  13.046 -12.951 +0.02 -0.01    -0.025    28.736
ATOM     22  C   UNL d   1     -10.294  12.162 -11.955 -0.02 -0.01    -0.021    28.736
ATOM     23  C   UNL d   1      -9.260  11.223 -11.879 +0.01 +0.02    +0.066    28.736
ATOM     24  C   UNL d   1     -10.739  14.250 -13.392 -0.07 +0.01    +0.051    28.736
ATOM     25  N   UNL d   1      -7.044   9.257 -11.553 -0.10 +0.01    -0.248    28.736
ATOM     26  N   UNL d   1      -4.851   9.443 -13.459 -0.16 +0.06    -0.248    28.736
ATOM     27  N   UNL d   1      -6.089  11.689 -14.655 -0.06 +0.05    -0.248    28.736
ATOM     28  N   UNL d   1      -8.288  11.525 -12.765 -0.06 -0.03    -0.248    28.736
ATOM     29 FE   UNL d   1      -6.581  10.493 -13.111 -0.04 -0.00    +0.000    28.736
ATOM     30  O   UNL d   1      -5.685  10.702 -11.856 -0.41 -0.00    +0.000    28.736
ATOM     31  O   UNL d   1      -6.173  11.951 -12.683 -0.46 -0.00    +0.000    28.736
ATOM     32  C   UNL d   1      -9.036   8.042  -8.658 -0.16 +0.01    +0.052    28.736
ATOM     33  C   UNL d   1      -9.939   6.833  -8.883 -0.10 +0.05    +0.115    28.736
ATOM     34  C   UNL d   1      -9.903   5.865  -7.726 -0.05 +0.16    +0.139    28.736
ATOM     35  O   UNL d   1      -9.965   6.288  -6.583 -0.46 -0.91    -0.650    28.736
ATOM     36  O   UNL d   1      -9.774   4.537  -7.924 -0.26 -1.15    -0.776    28.736
ATOM     37  H   UNL d   1      -9.255   4.177  -8.652 +0.05 +0.13    +0.167    28.736
ATOM     38  C   UNL d   1     -11.521  12.256 -11.085 -0.07 +0.01    +0.052    28.736
ATOM     39  C   UNL d   1     -11.663  13.627 -10.427 -0.11 +0.04    +0.115    28.736
ATOM     40  C   UNL d   1     -10.671  13.835  -9.310 -0.21 +0.08    +0.139    28.736
ATOM     41  O   UNL d   1     -10.263  12.876  -8.675 -0.05 -0.26    -0.650    28.736
ATOM     42  O   UNL d   1     -10.186  15.060  -9.030 -0.42 -0.91    -0.776    28.736
ATOM     43  H   UNL d   1      -9.941  15.678  -9.730 -0.47 +0.17    +0.167    28.736
ATOM     44  C   UNL d   1      -1.808   8.223 -15.347 -0.40 -0.00    +0.004    28.736
ATOM     45  C   UNL d   1      -0.958   9.077 -15.917 -0.41 -0.00    +0.012    28.736
ATOM     46  C   UNL d   1      -6.604  14.707 -16.756 -0.09 -0.00    +0.004    28.736
ATOM     47  C   UNL d   1      -6.644  15.922 -16.195 -0.12 -0.00    +0.012    28.736
TER
ENDMDL
MODEL       77
USER    Run = 77
USER    Cluster Rank = 3
USER    Number of conformations in this cluster = 6
USER  
USER    RMSD from reference structure       = 32.322 A
USER  
USER    Estimated Free Energy of Binding    =   -7.37 kcal/mol  [=(1)+(2)+(3)-(4)]
USER    Estimated Inhibition Constant, Ki   =    3.95 uM (micromolar)  [Temperature = 298.15 K]
USER    
USER    (1) Final Intermolecular Energy     =  -10.35 kcal/mol
USER        vdW + Hbond + desolv Energy     =   -7.48 kcal/mol
USER        Electrostatic Energy            =   -2.88 kcal/mol
USER    (2) Final Total Internal Energy     =   -1.34 kcal/mol
USER    (3) Torsional Free Energy           =   +2.98 kcal/mol
USER    (4) Unbound System's Energy  [=(2)] =   -1.34 kcal/mol
USER    
USER    
USER  
USER    DPF = D:/Protein_go_brrr/autodock/final/mut_K82N/heme_O2/dock.dpf
USER    NEWDPF move	heme_O2_opt.pdbqt
USER    NEWDPF about	8.287000 34.468000 -0.670000
USER    NEWDPF tran0	-8.317043 7.170618 -12.886312
USER    NEWDPF axisangle0	-0.622300 0.644947 0.443605 -122.305518
USER    NEWDPF quaternion0	-0.545079 0.564915 0.388557 -0.482476
USER    NEWDPF dihe0	-33.90 40.42 -71.09 30.66 100.11 -50.07 47.80 -29.54 -24.84 -38.08 
USER  
USER                              x       y       z    vdW   Elec        q     RMS 
ATOM      1  C   UNL d   1      -9.123   6.912 -10.941 -0.11 +0.01    +0.064    32.322
ATOM      2  C   UNL d   1      -5.900   9.923 -12.704 -0.21 -0.01    +0.064    32.322
ATOM      3  C   UNL d   1      -6.292   7.935 -17.062 -0.19 -0.01    +0.064    32.322
ATOM      4  C   UNL d   1      -9.957   5.147 -15.372 -0.25 +0.02    +0.064    32.322
ATOM      5  C   UNL d   1      -8.215   7.894 -11.065 -0.11 +0.01    +0.066    32.322
ATOM      6  C   UNL d   1      -7.793   8.707 -10.010 -0.18 -0.00    -0.021    32.322
ATOM      7  C   UNL d   1      -6.892   9.608 -10.528 -0.27 +0.00    -0.025    32.322
ATOM      8  C   UNL d   1      -6.753   9.288 -11.876 -0.19 -0.00    +0.066    32.322
ATOM      9  C   UNL d   1      -6.239  10.727  -9.746 -0.50 -0.00    +0.051    32.322
ATOM     10  C   UNL d   1      -5.693   9.618 -14.121 -0.15 -0.01    +0.066    32.322
ATOM     11  C   UNL d   1      -4.680  10.196 -14.893 -0.18 +0.01    -0.021    32.322
ATOM     12  C   UNL d   1      -4.765   9.623 -16.148 -0.12 -0.00    +0.000    32.322
ATOM     13  C   UNL d   1      -5.858   8.715 -16.072 -0.13 -0.01    +0.070    32.322
ATOM     14  C   UNL d   1      -3.656  11.232 -14.444 -0.38 -0.02    +0.052    32.322
ATOM     15  C   UNL d   1      -7.415   7.030 -17.036 -0.18 -0.01    +0.066    32.322
ATOM     16  C   UNL d   1      -7.920   6.365 -18.153 -0.11 +0.00    -0.021    32.322
ATOM     17  C   UNL d   1      -8.967   5.564 -17.696 -0.21 +0.00    +0.000    32.322
ATOM     18  C   UNL d   1      -9.021   5.803 -16.315 -0.25 +0.01    +0.070    32.322
ATOM     19  C   UNL d   1      -7.400   6.592 -19.551 -0.15 -0.01    +0.052    32.322
ATOM     20  C   UNL d   1     -10.065   5.385 -14.050 -0.21 +0.01    +0.066    32.322
ATOM     21  C   UNL d   1     -10.955   4.723 -13.208 -0.17 -0.01    -0.025    32.322
ATOM     22  C   UNL d   1     -10.712   5.193 -11.937 -0.15 -0.01    -0.021    32.322
ATOM     23  C   UNL d   1      -9.692   6.142 -12.054 -0.13 +0.01    +0.066    32.322
ATOM     24  C   UNL d   1     -11.986   3.695 -13.598 -0.17 +0.03    +0.051    32.322
ATOM     25  N   UNL d   1      -7.617   8.275 -12.221 -0.07 -0.00    -0.248    32.322
ATOM     26  N   UNL d   1      -6.420   8.722 -14.837 -0.07 +0.03    -0.248    32.322
ATOM     27  N   UNL d   1      -8.123   6.751 -15.945 -0.16 +0.01    -0.248    32.322
ATOM     28  N   UNL d   1      -9.333   6.288 -13.346 -0.08 -0.03    -0.248    32.322
ATOM     29 FE   UNL d   1      -7.888   7.495 -14.089 -0.04 -0.00    +0.000    32.322
ATOM     30  O   UNL d   1      -8.415   8.952 -13.933 -0.09 +0.00    +0.000    32.322
ATOM     31  O   UNL d   1      -9.243   7.907 -14.772 -0.10 +0.00    +0.000    32.322
ATOM     32  C   UNL d   1      -8.315   8.731  -8.597 -0.24 +0.01    +0.052    32.322
ATOM     33  C   UNL d   1      -8.173   7.387  -7.890 +0.01 +0.03    +0.115    32.322
ATOM     34  C   UNL d   1      -9.426   6.991  -7.149 -0.08 +0.10    +0.139    32.322
ATOM     35  O   UNL d   1      -9.947   7.782  -6.380 -0.37 -0.44    -0.650    32.322
ATOM     36  O   UNL d   1      -9.972   5.766  -7.296 -0.45 -1.17    -0.776    32.322
ATOM     37  H   UNL d   1      -9.936   5.287  -8.132 +0.04 +0.19    +0.167    32.322
ATOM     38  C   UNL d   1     -11.466   4.796 -10.695 -0.11 +0.02    +0.052    32.322
ATOM     39  C   UNL d   1     -11.293   3.316 -10.357 -0.05 +0.06    +0.115    32.322
ATOM     40  C   UNL d   1     -11.363   3.052  -8.874 -0.04 +0.15    +0.139    32.322
ATOM     41  O   UNL d   1     -12.423   2.725  -8.366 -0.40 -0.87    -0.650    32.322
ATOM     42  O   UNL d   1     -10.261   3.120  -8.102 +0.13 -1.14    -0.776    32.322
ATOM     43  H   UNL d   1      -9.618   3.833  -8.202 +0.05 +0.20    +0.167    32.322
ATOM     44  C   UNL d   1      -3.816   9.995 -17.268 -0.10 -0.00    +0.004    32.322
ATOM     45  C   UNL d   1      -2.790   9.289 -17.740 -0.14 -0.00    +0.012    32.322
ATOM     46  C   UNL d   1      -9.923   4.669 -18.437 -0.20 +0.00    +0.004    32.322
ATOM     47  C   UNL d   1      -9.753   4.081 -19.629 -0.21 +0.00    +0.012    32.322
TER
ENDMDL
MODEL       64
USER    Run = 64
USER    Cluster Rank = 4
USER    Number of conformations in this cluster = 1
USER  
USER    RMSD from reference structure       = 32.993 A
USER  
USER    Estimated Free Energy of Binding    =   -7.18 kcal/mol  [=(1)+(2)+(3)-(4)]
USER    Estimated Inhibition Constant, Ki   =    5.42 uM (micromolar)  [Temperature = 298.15 K]
USER    
USER    (1) Final Intermolecular Energy     =  -10.17 kcal/mol
USER        vdW + Hbond + desolv Energy     =   -7.44 kcal/mol
USER        Electrostatic Energy            =   -2.73 kcal/mol
USER    (2) Final Total Internal Energy     =   -0.57 kcal/mol
USER    (3) Torsional Free Energy           =   +2.98 kcal/mol
USER    (4) Unbound System's Energy  [=(2)] =   -0.57 kcal/mol
USER    
USER    
USER  
USER    DPF = D:/Protein_go_brrr/autodock/final/mut_K82N/heme_O2/dock.dpf
USER    NEWDPF move	heme_O2_opt.pdbqt
USER    NEWDPF about	8.287000 34.468000 -0.670000
USER    NEWDPF tran0	-11.644005 6.299296 -9.428233
USER    NEWDPF axisangle0	-0.755857 -0.150919 -0.637106 142.923923
USER    NEWDPF quaternion0	-0.716638 -0.143088 -0.604048 0.317934
USER    NEWDPF dihe0	-36.53 -15.90 -118.27 -60.67 -139.34 -45.49 7.02 -179.85 -140.90 -179.02 
USER  
USER                              x       y       z    vdW   Elec        q     RMS 
ATOM      1  C   UNL d   1     -12.946   4.968 -10.444 -0.03 +0.03    +0.064    32.993
ATOM      2  C   UNL d   1      -8.642   6.676 -11.500 -0.05 +0.01    +0.064    32.993
ATOM      3  C   UNL d   1      -8.580   9.276  -7.459 -0.25 +0.01    +0.064    32.993
ATOM      4  C   UNL d   1     -12.801   7.158  -6.129 -0.08 +0.06    +0.064    32.993
ATOM      5  C   UNL d   1     -11.779   5.219 -11.060 -0.07 +0.02    +0.066    32.993
ATOM      6  C   UNL d   1     -11.411   4.671 -12.293 -0.13 -0.01    -0.021    32.993
ATOM      7  C   UNL d   1     -10.147   5.131 -12.579 -0.20 -0.01    -0.025    32.993
ATOM      8  C   UNL d   1      -9.797   5.985 -11.536 -0.13 +0.01    +0.066    32.993
ATOM      9  C   UNL d   1      -9.332   4.726 -13.787 -0.21 +0.01    +0.051    32.993
ATOM     10  C   UNL d   1      -8.230   7.604 -10.446 -0.12 +0.01    +0.066    32.993
ATOM     11  C   UNL d   1      -7.096   8.418 -10.537 -0.21 -0.00    -0.021    32.993
ATOM     12  C   UNL d   1      -7.070   9.188  -9.389 -0.31 +0.00    +0.000    32.993
ATOM     13  C   UNL d   1      -8.210   8.782  -8.640 -0.20 +0.01    +0.070    32.993
ATOM     14  C   UNL d   1      -6.093   8.479 -11.684 -0.25 -0.01    +0.052    32.993
ATOM     15  C   UNL d   1      -9.706   8.868  -6.653 -0.19 +0.03    +0.066    32.993
ATOM     16  C   UNL d   1      -9.947   9.308  -5.352 -0.28 -0.01    -0.021    32.993
ATOM     17  C   UNL d   1     -11.145   8.716  -4.952 -0.21 +0.00    +0.000    32.993
ATOM     18  C   UNL d   1     -11.551   7.951  -6.054 -0.13 +0.05    +0.070    32.993
ATOM     19  C   UNL d   1      -8.995  10.200  -4.595 -0.22 +0.01    +0.052    32.993
ATOM     20  C   UNL d   1     -13.199   6.379  -7.153 -0.05 +0.06    +0.066    32.993
ATOM     21  C   UNL d   1     -14.396   5.669  -7.174 -0.05 -0.02    -0.025    32.993
ATOM     22  C   UNL d   1     -14.467   5.060  -8.407 -0.03 -0.01    -0.021    32.993
ATOM     23  C   UNL d   1     -13.297   5.409  -9.089 -0.04 +0.04    +0.066    32.993
ATOM     24  C   UNL d   1     -15.418   5.572  -6.071 -0.04 +0.03    +0.051    32.993
ATOM     25  N   UNL d   1     -10.776   5.988 -10.570 -0.04 -0.08    -0.248    32.993
ATOM     26  N   UNL d   1      -8.907   7.815  -9.288 -0.06 -0.06    -0.248    32.993
ATOM     27  N   UNL d   1     -10.628   7.996  -7.049 -0.09 -0.14    -0.248    32.993
ATOM     28  N   UNL d   1     -12.509   6.174  -8.306 -0.04 -0.20    -0.248    32.993
ATOM     29 FE   UNL d   1     -10.721   6.989  -8.791 -0.02 +0.00    +0.000    32.993
ATOM     30  O   UNL d   1      -9.712   5.807  -8.878 -0.19 +0.00    +0.000    32.993
ATOM     31  O   UNL d   1     -10.495   6.069  -7.536 -0.41 +0.00    +0.000    32.993
ATOM     32  C   UNL d   1     -12.158   3.647 -13.107 -0.15 +0.02    +0.052    32.993
ATOM     33  C   UNL d   1     -12.426   2.358 -12.336 -0.13 +0.06    +0.115    32.993
ATOM     34  C   UNL d   1     -13.070   1.298 -13.195 -0.16 +0.11    +0.139    32.993
ATOM     35  O   UNL d   1     -12.422   0.763 -14.081 -0.56 -1.11    -0.650    32.993
ATOM     36  O   UNL d   1     -14.361   0.943 -13.025 +0.01 -0.43    -0.776    32.993
ATOM     37  H   UNL d   1     -14.770   0.907 -12.152 +0.02 +0.06    +0.167    32.993
ATOM     38  C   UNL d   1     -15.569   4.144  -8.872 -0.01 +0.02    +0.052    32.993
ATOM     39  C   UNL d   1     -15.452   2.743  -8.277 -0.02 +0.04    +0.115    32.993
ATOM     40  C   UNL d   1     -14.247   2.597  -7.381 -0.06 +0.12    +0.139    32.993
ATOM     41  O   UNL d   1     -14.378   2.679  -6.171 -0.05 -0.63    -0.650    32.993
ATOM     42  O   UNL d   1     -13.031   2.324  -7.891 -0.49 -0.96    -0.776    32.993
ATOM     43  H   UNL d   1     -12.920   2.032  -8.804 +0.02 +0.12    +0.167    32.993
ATOM     44  C   UNL d   1      -5.982  10.209  -9.130 -0.43 -0.00    +0.004    32.993
ATOM     45  C   UNL d   1      -5.635  11.247  -9.889 -0.49 -0.00    +0.012    32.993
ATOM     46  C   UNL d   1     -11.881   8.766  -3.639 -0.23 +0.00    +0.004    32.993
ATOM     47  C   UNL d   1     -11.509   8.251  -2.460 -0.37 +0.00    +0.012    32.993
TER
ENDMDL
MODEL       28
USER    Run = 28
USER    Cluster Rank = 5
USER    Number of conformations in this cluster = 1
USER  
USER    RMSD from reference structure       = 28.648 A
USER  
USER    Estimated Free Energy of Binding    =   -6.90 kcal/mol  [=(1)+(2)+(3)-(4)]
USER    Estimated Inhibition Constant, Ki   =    8.76 uM (micromolar)  [Temperature = 298.15 K]
USER    
USER    (1) Final Intermolecular Energy     =   -9.88 kcal/mol
USER        vdW + Hbond + desolv Energy     =   -8.81 kcal/mol
USER        Electrostatic Energy            =   -1.07 kcal/mol
USER    (2) Final Total Internal Energy     =   -0.68 kcal/mol
USER    (3) Torsional Free Energy           =   +2.98 kcal/mol
USER    (4) Unbound System's Energy  [=(2)] =   -0.68 kcal/mol
USER    
USER    
USER  
USER    DPF = D:/Protein_go_brrr/autodock/final/mut_K82N/heme_O2/dock.dpf
USER    NEWDPF move	heme_O2_opt.pdbqt
USER    NEWDPF about	8.287000 34.468000 -0.670000
USER    NEWDPF tran0	-7.578733 10.275736 -11.982987
USER    NEWDPF axisangle0	-0.162237 0.918603 -0.360343 -41.231163
USER    NEWDPF quaternion0	-0.057123 0.323437 -0.126875 -0.935964
USER    NEWDPF dihe0	-83.81 4.66 141.88 -85.58 169.76 -42.10 91.02 156.55 -121.37 7.27 
USER  
USER                              x       y       z    vdW   Elec        q     RMS 
ATOM      1  C   UNL d   1      -9.373  11.348 -11.619 +0.04 +0.02    +0.064    28.648
ATOM      2  C   UNL d   1      -6.730   8.496  -8.891 -0.32 +0.00    +0.064    28.648
ATOM      3  C   UNL d   1      -3.660   7.728 -12.507 -0.34 -0.01    +0.064    28.648
ATOM      4  C   UNL d   1      -6.106  11.037 -15.179 -0.07 -0.01    +0.064    28.648
ATOM      5  C   UNL d   1      -8.903  10.636 -10.581 -0.06 +0.02    +0.066    28.648
ATOM      6  C   UNL d   1      -9.527  10.569  -9.332 -0.16 -0.00    -0.021    28.648
ATOM      7  C   UNL d   1      -8.740   9.778  -8.528 -0.21 -0.00    -0.025    28.648
ATOM      8  C   UNL d   1      -7.682   9.345  -9.323 -0.23 +0.01    +0.066    28.648
ATOM      9  C   UNL d   1      -9.004   9.498  -7.065 -0.27 +0.01    +0.051    28.648
ATOM     10  C   UNL d   1      -5.609   7.989  -9.684 -0.35 -0.00    +0.066    28.648
ATOM     11  C   UNL d   1      -4.744   6.983  -9.238 -0.44 +0.00    -0.021    28.648
ATOM     12  C   UNL d   1      -3.862   6.735 -10.274 -0.50 -0.00    +0.000    28.648
ATOM     13  C   UNL d   1      -4.241   7.632 -11.312 -0.25 -0.01    +0.070    28.648
ATOM     14  C   UNL d   1      -4.774   6.270  -7.891 -0.03 +0.00    +0.052    28.648
ATOM     15  C   UNL d   1      -3.990   8.646 -13.571 -0.34 -0.02    +0.066    28.648
ATOM     16  C   UNL d   1      -3.240   8.810 -14.735 -0.38 +0.01    -0.021    28.648
ATOM     17  C   UNL d   1      -3.918   9.749 -15.512 -0.20 -0.00    +0.000    28.648
ATOM     18  C   UNL d   1      -5.047  10.091 -14.754 -0.14 -0.02    +0.070    28.648
ATOM     19  C   UNL d   1      -1.929   8.104 -14.975 -0.22 -0.02    +0.052    28.648
ATOM     20  C   UNL d   1      -7.178  11.420 -14.459 -0.08 -0.01    +0.066    28.648
ATOM     21  C   UNL d   1      -8.152  12.301 -14.919 -0.06 +0.00    -0.025    28.648
ATOM     22  C   UNL d   1      -9.105  12.381 -13.929 -0.07 -0.00    -0.021    28.648
ATOM     23  C   UNL d   1      -8.667  11.555 -12.889 -0.08 +0.01    +0.066    28.648
ATOM     24  C   UNL d   1      -8.171  13.034 -16.236 -0.03 -0.01    +0.051    28.648
ATOM     25  N   UNL d   1      -7.748   9.927 -10.568 -0.12 -0.02    -0.248    28.648
ATOM     26  N   UNL d   1      -5.302   8.394 -10.942 -0.07 +0.06    -0.248    28.648
ATOM     27  N   UNL d   1      -5.035   9.469 -13.548 -0.15 +0.05    -0.248    28.648
ATOM     28  N   UNL d   1      -7.472  11.008 -13.197 -0.08 -0.00    -0.248    28.648
ATOM     29 FE   UNL d   1      -6.393   9.711 -12.080 -0.05 -0.00    +0.000    28.648
ATOM     30  O   UNL d   1      -5.856  10.524 -10.866 -0.44 -0.00    +0.000    28.648
ATOM     31  O   UNL d   1      -5.495  10.977 -12.331 -0.41 -0.00    +0.000    28.648
ATOM     32  C   UNL d   1     -10.743  11.327  -8.866 -0.14 +0.01    +0.052    28.648
ATOM     33  C   UNL d   1     -10.788  12.758  -9.395 -0.16 +0.04    +0.115    28.648
ATOM     34  C   UNL d   1     -10.127  13.738  -8.458 -0.30 +0.08    +0.139    28.648
ATOM     35  O   UNL d   1      -9.350  13.331  -7.608 -0.12 -0.31    -0.650    28.648
ATOM     36  O   UNL d   1     -10.396  15.059  -8.517 -0.36 -1.19    -0.776    28.648
ATOM     37  H   UNL d   1      -9.950  15.643  -9.141 -0.42 +0.27    +0.167    28.648
ATOM     38  C   UNL d   1     -10.334  13.253 -13.959 -0.06 +0.01    +0.052    28.648
ATOM     39  C   UNL d   1     -11.618  12.444 -14.129 -0.01 +0.01    +0.115    28.648
ATOM     40  C   UNL d   1     -11.377  11.115 -14.800 -0.00 +0.01    +0.139    28.648
ATOM     41  O   UNL d   1     -11.350  10.094 -14.131 +0.01 -0.04    -0.650    28.648
ATOM     42  O   UNL d   1     -11.241  11.025 -16.137 +0.01 -0.01    -0.776    28.648
ATOM     43  H   UNL d   1     -11.188  11.811 -16.693 +0.00 -0.00    +0.167    28.648
ATOM     44  C   UNL d   1      -2.770   5.692 -10.168 -0.31 +0.00    +0.004    28.648
ATOM     45  C   UNL d   1      -1.969   5.448  -9.131 -0.54 +0.00    +0.012    28.648
ATOM     46  C   UNL d   1      -3.569  10.372 -16.837 -0.13 -0.00    +0.004    28.648
ATOM     47  C   UNL d   1      -2.906  11.512 -17.068 -0.16 -0.01    +0.012    28.648
TER
ENDMDL
MODEL       22
USER    Run = 22
USER    Cluster Rank = 6
USER    Number of conformations in this cluster = 4
USER  
USER    RMSD from reference structure       = 28.873 A
USER  
USER    Estimated Free Energy of Binding    =   -6.81 kcal/mol  [=(1)+(2)+(3)-(4)]
USER    Estimated Inhibition Constant, Ki   =   10.19 uM (micromolar)  [Temperature = 298.15 K]
USER    
USER    (1) Final Intermolecular Energy     =   -9.79 kcal/mol
USER        vdW + Hbond + desolv Energy     =   -7.17 kcal/mol
USER        Electrostatic Energy            =   -2.63 kcal/mol
USER    (2) Final Total Internal Energy     =   -2.01 kcal/mol
USER    (3) Torsional Free Energy           =   +2.98 kcal/mol
USER    (4) Unbound System's Energy  [=(2)] =   -2.01 kcal/mol
USER    
USER    
USER  
USER    DPF = D:/Protein_go_brrr/autodock/final/mut_K82N/heme_O2/dock.dpf
USER    NEWDPF move	heme_O2_opt.pdbqt
USER    NEWDPF about	8.287000 34.468000 -0.670000
USER    NEWDPF tran0	-12.312108 10.320691 -1.220565
USER    NEWDPF axisangle0	-0.316608 -0.487524 0.813683 -97.080424
USER    NEWDPF quaternion0	-0.237272 -0.365361 0.609791 -0.662094
USER    NEWDPF dihe0	-171.33 -26.65 -45.24 65.14 65.36 -2.42 -81.05 -32.54 -171.18 33.63 
USER  
USER                              x       y       z    vdW   Elec        q     RMS 
ATOM      1  C   UNL d   1     -12.055   8.678  -2.538 -0.22 +0.02    +0.064    28.873
ATOM      2  C   UNL d   1     -13.205   8.952   2.062 -0.18 +0.02    +0.064    28.873
ATOM      3  C   UNL d   1     -12.874  13.745   1.955 -0.16 +0.01    +0.064    28.873
ATOM      4  C   UNL d   1     -12.159  13.505  -2.892 -0.22 +0.02    +0.064    28.873
ATOM      5  C   UNL d   1     -12.397   8.362  -1.278 -0.21 +0.01    +0.066    28.873
ATOM      6  C   UNL d   1     -12.571   7.052  -0.820 -0.26 -0.00    -0.021    28.873
ATOM      7  C   UNL d   1     -12.946   7.132   0.501 -0.24 -0.00    -0.025    28.873
ATOM      8  C   UNL d   1     -12.944   8.486   0.826 -0.19 +0.01    +0.066    28.873
ATOM      9  C   UNL d   1     -13.311   5.949   1.370 -0.23 +0.01    +0.051    28.873
ATOM     10  C   UNL d   1     -13.195  10.358   2.469 -0.13 +0.01    +0.066    28.873
ATOM     11  C   UNL d   1     -13.312  10.775   3.800 -0.11 -0.00    -0.021    28.873
ATOM     12  C   UNL d   1     -13.201  12.153   3.791 -0.08 +0.00    +0.000    28.873
ATOM     13  C   UNL d   1     -13.031  12.507   2.424 -0.10 +0.01    +0.070    28.873
ATOM     14  C   UNL d   1     -13.494   9.894   5.030 -0.13 +0.03    +0.052    28.873
ATOM     15  C   UNL d   1     -12.735  14.148   0.576 -0.18 +0.01    +0.066    28.873
ATOM     16  C   UNL d   1     -12.740  15.471   0.135 -0.20 -0.00    -0.021    28.873
ATOM     17  C   UNL d   1     -12.538  15.428  -1.244 -0.25 +0.00    +0.000    28.873
ATOM     18  C   UNL d   1     -12.422  14.063  -1.545 -0.23 +0.01    +0.070    28.873
ATOM     19  C   UNL d   1     -12.988  16.643   1.052 -0.12 +0.01    +0.052    28.873
ATOM     20  C   UNL d   1     -12.085  12.201  -3.223 -0.19 +0.02    +0.066    28.873
ATOM     21  C   UNL d   1     -11.817  11.736  -4.508 -0.17 -0.01    -0.025    28.873
ATOM     22  C   UNL d   1     -11.757  10.364  -4.420 -0.15 -0.01    -0.021    28.873
ATOM     23  C   UNL d   1     -12.009  10.040  -3.083 -0.17 +0.02    +0.066    28.873
ATOM     24  C   UNL d   1     -11.632  12.560  -5.756 -0.21 +0.02    +0.051    28.873
ATOM     25  N   UNL d   1     -12.669   9.246  -0.288 +0.01 -0.05    -0.248    28.873
ATOM     26  N   UNL d   1     -13.034  11.409   1.626 -0.02 -0.04    -0.248    28.873
ATOM     27  N   UNL d   1     -12.619  13.299  -0.441 -0.09 -0.04    -0.248    28.873
ATOM     28  N   UNL d   1     -12.253  11.158  -2.369 -0.07 -0.05    -0.248    28.873
ATOM     29 FE   UNL d   1     -12.641  11.285  -0.386 -0.04 +0.00    +0.000    28.873
ATOM     30  O   UNL d   1     -14.063  10.686  -0.182 -0.10 +0.00    +0.000    28.873
ATOM     31  O   UNL d   1     -13.864  11.914  -1.148 -0.10 +0.00    +0.000    28.873
ATOM     32  C   UNL d   1     -12.522   5.779  -1.624 -0.07 +0.02    +0.052    28.873
ATOM     33  C   UNL d   1     -13.870   5.415  -2.239 -0.13 +0.05    +0.115    28.873
ATOM     34  C   UNL d   1     -13.990   5.873  -3.672 -0.11 +0.09    +0.139    28.873
ATOM     35  O   UNL d   1     -14.362   7.010  -3.913 +0.01 -0.28    -0.650    28.873
ATOM     36  O   UNL d   1     -13.722   5.041  -4.700 -0.32 -1.13    -0.776    28.873
ATOM     37  H   UNL d   1     -13.673   5.355  -5.611 +0.00 +0.28    +0.167    28.873
ATOM     38  C   UNL d   1     -11.533   9.419  -5.573 -0.13 +0.02    +0.052    28.873
ATOM     39  C   UNL d   1     -10.527   8.320  -5.238 -0.22 +0.07    +0.115    28.873
ATOM     40  C   UNL d   1     -10.851   7.014  -5.919 -0.18 +0.15    +0.139    28.873
ATOM     41  O   UNL d   1      -9.948   6.314  -6.348 -0.47 -0.91    -0.650    28.873
ATOM     42  O   UNL d   1     -12.122   6.579  -6.020 -0.19 -1.18    -0.776    28.873
ATOM     43  H   UNL d   1     -12.805   6.869  -5.404 +0.02 +0.17    +0.167    28.873
ATOM     44  C   UNL d   1     -13.271  12.973   5.063 -0.05 +0.00    +0.004    28.873
ATOM     45  C   UNL d   1     -12.430  13.923   5.471 -0.05 +0.00    +0.012    28.873
ATOM     46  C   UNL d   1     -12.505  16.526  -2.273 -0.25 +0.00    +0.004    28.873
ATOM     47  C   UNL d   1     -11.699  17.594  -2.320 -0.28 +0.00    +0.012    28.873
TER
ENDMDL
MODEL       49
USER    Run = 49
USER    Cluster Rank = 7
USER    Number of conformations in this cluster = 5
USER  
USER    RMSD from reference structure       = 32.768 A
USER  
USER    Estimated Free Energy of Binding    =   -6.69 kcal/mol  [=(1)+(2)+(3)-(4)]
USER    Estimated Inhibition Constant, Ki   =   12.46 uM (micromolar)  [Temperature = 298.15 K]
USER    
USER    (1) Final Intermolecular Energy     =   -9.67 kcal/mol
USER        vdW + Hbond + desolv Energy     =   -8.51 kcal/mol
USER        Electrostatic Energy            =   -1.17 kcal/mol
USER    (2) Final Total Internal Energy     =   -0.26 kcal/mol
USER    (3) Torsional Free Energy           =   +2.98 kcal/mol
USER    (4) Unbound System's Energy  [=(2)] =   -0.26 kcal/mol
USER    
USER    
USER  
USER    DPF = D:/Protein_go_brrr/autodock/final/mut_K82N/heme_O2/dock.dpf
USER    NEWDPF move	heme_O2_opt.pdbqt
USER    NEWDPF about	8.287000 34.468000 -0.670000
USER    NEWDPF tran0	11.943545 2.917849 16.926579
USER    NEWDPF axisangle0	-0.812073 0.274262 0.515091 -176.994381
USER    NEWDPF quaternion0	-0.811793 0.274168 0.514913 -0.026226
USER    NEWDPF dihe0	85.08 45.73 99.14 67.16 64.04 126.87 -50.98 -59.40 139.97 -13.70 
USER  
USER                              x       y       z    vdW   Elec        q     RMS 
ATOM      1  C   UNL d   1      11.719   2.929  19.036 -0.18 +0.01    +0.064    32.768
ATOM      2  C   UNL d   1      10.336   5.956  15.647 -0.22 -0.01    +0.064    32.768
ATOM      3  C   UNL d   1      12.348   3.215  12.250 -0.15 -0.00    +0.064    32.768
ATOM      4  C   UNL d   1      13.360  -0.147  15.676 -0.22 -0.01    +0.064    32.768
ATOM      5  C   UNL d   1      11.178   3.975  18.391 -0.16 +0.01    +0.066    32.768
ATOM      6  C   UNL d   1      10.512   5.027  19.027 -0.18 -0.00    -0.021    32.768
ATOM      7  C   UNL d   1      10.073   5.882  18.043 -0.12 -0.00    -0.025    32.768
ATOM      8  C   UNL d   1      10.525   5.354  16.837 -0.15 +0.00    +0.066    32.768
ATOM      9  C   UNL d   1       9.238   7.121  18.282 -0.13 -0.00    +0.051    32.768
ATOM     10  C   UNL d   1      10.806   5.461  14.352 -0.21 -0.01    +0.066    32.768
ATOM     11  C   UNL d   1      10.726   6.205  13.169 -0.25 +0.00    -0.021    32.768
ATOM     12  C   UNL d   1      11.318   5.439  12.181 -0.21 -0.00    +0.000    32.768
ATOM     13  C   UNL d   1      11.722   4.239  12.829 -0.15 -0.00    +0.070    32.768
ATOM     14  C   UNL d   1      10.136   7.600  12.994 -0.23 +0.00    +0.052    32.768
ATOM     15  C   UNL d   1      12.742   1.969  12.862 -0.15 -0.01    +0.066    32.768
ATOM     16  C   UNL d   1      13.245   0.870  12.166 -0.19 +0.00    -0.021    32.768
ATOM     17  C   UNL d   1      13.540  -0.101  13.123 -0.25 -0.00    +0.000    32.768
ATOM     18  C   UNL d   1      13.193   0.487  14.347 -0.19 -0.01    +0.070    32.768
ATOM     19  C   UNL d   1      13.346   0.825  10.662 +0.03 -0.01    +0.052    32.768
ATOM     20  C   UNL d   1      12.998   0.371  16.866 -0.21 -0.01    +0.066    32.768
ATOM     21  C   UNL d   1      13.197  -0.266  18.088 -0.22 -0.00    -0.025    32.768
ATOM     22  C   UNL d   1      12.760   0.608  19.058 -0.23 -0.00    -0.021    32.768
ATOM     23  C   UNL d   1      12.292   1.743  18.389 -0.22 +0.00    +0.066    32.768
ATOM     24  C   UNL d   1      13.772  -1.639  18.317 -0.22 +0.00    +0.051    32.768
ATOM     25  N   UNL d   1      11.148   4.145  17.046 -0.13 -0.00    -0.248    32.768
ATOM     26  N   UNL d   1      11.403   4.259  14.148 -0.12 +0.03    -0.248    32.768
ATOM     27  N   UNL d   1      12.641   1.713  14.163 -0.08 +0.03    -0.248    32.768
ATOM     28  N   UNL d   1      12.396   1.576  17.054 -0.14 +0.02    -0.248    32.768
ATOM     29 FE   UNL d   1      11.904   2.906  15.610 -0.04 -0.00    +0.000    32.768
ATOM     30  O   UNL d   1      10.350   2.993  15.610 -0.39 -0.00    +0.000    32.768
ATOM     31  O   UNL d   1      11.055   1.606  15.363 -0.44 -0.00    +0.000    32.768
ATOM     32  C   UNL d   1      10.179   5.158  20.490 -0.22 +0.02    +0.052    32.768
ATOM     33  C   UNL d   1       8.757   5.657  20.732 -0.19 +0.03    +0.115    32.768
ATOM     34  C   UNL d   1       7.981   4.754  21.658 -0.20 +0.05    +0.139    32.768
ATOM     35  O   UNL d   1       7.377   3.796  21.202 -0.67 -0.27    -0.650    32.768
ATOM     36  O   UNL d   1       7.914   4.997  22.984 -0.01 -0.35    -0.776    32.768
ATOM     37  H   UNL d   1       7.259   5.597  23.361 +0.03 +0.05    +0.167    32.768
ATOM     38  C   UNL d   1      12.737   0.334  20.540 -0.17 +0.01    +0.052    32.768
ATOM     39  C   UNL d   1      14.049   0.716  21.223 -0.11 +0.03    +0.115    32.768
ATOM     40  C   UNL d   1      13.861   1.773  22.282 -0.08 +0.07    +0.139    32.768
ATOM     41  O   UNL d   1      13.916   2.954  21.977 -0.02 -0.32    -0.650    32.768
ATOM     42  O   UNL d   1      13.581   1.438  23.556 -0.01 -0.59    -0.776    32.768
ATOM     43  H   UNL d   1      14.088   0.765  24.025 +0.01 +0.09    +0.167    32.768
ATOM     44  C   UNL d   1      11.429   5.920  10.750 -0.22 -0.00    +0.004    32.768
ATOM     45  C   UNL d   1      10.522   5.820   9.779 -0.35 -0.00    +0.012    32.768
ATOM     46  C   UNL d   1      14.050  -1.510  12.976 -0.30 -0.00    +0.004    32.768
ATOM     47  C   UNL d   1      15.200  -1.922  12.426 -0.24 -0.00    +0.012    32.768
TER
ENDMDL
MODEL        3
USER    Run = 3
USER    Cluster Rank = 8
USER    Number of conformations in this cluster = 1
USER  
USER    RMSD from reference structure       = 36.456 A
USER  
USER    Estimated Free Energy of Binding    =   -6.45 kcal/mol  [=(1)+(2)+(3)-(4)]
USER    Estimated Inhibition Constant, Ki   =   18.59 uM (micromolar)  [Temperature = 298.15 K]
USER    
USER    (1) Final Intermolecular Energy     =   -9.44 kcal/mol
USER        vdW + Hbond + desolv Energy     =   -6.56 kcal/mol
USER        Electrostatic Energy            =   -2.88 kcal/mol
USER    (2) Final Total Internal Energy     =   -1.48 kcal/mol
USER    (3) Torsional Free Energy           =   +2.98 kcal/mol
USER    (4) Unbound System's Energy  [=(2)] =   -1.48 kcal/mol
USER    
USER    
USER  
USER    DPF = D:/Protein_go_brrr/autodock/final/mut_K82N/heme_O2/dock.dpf
USER    NEWDPF move	heme_O2_opt.pdbqt
USER    NEWDPF about	8.287000 34.468000 -0.670000
USER    NEWDPF tran0	-11.949484 2.677636 -10.433763
USER    NEWDPF axisangle0	-0.043257 0.976652 -0.210428 33.148943
USER    NEWDPF quaternion0	-0.012340 0.278601 -0.060027 0.958450
USER    NEWDPF dihe0	84.02 106.34 52.67 63.87 -124.73 -104.96 113.08 -31.20 8.08 -4.93 
USER  
USER                              x       y       z    vdW   Elec        q     RMS 
ATOM      1  C   UNL d   1     -13.163   3.118 -12.117 -0.08 +0.03    +0.064    36.456
ATOM      2  C   UNL d   1     -13.821   0.327  -8.330 -0.05 +0.02    +0.064    36.456
ATOM      3  C   UNL d   1      -9.465   1.445  -6.635 -0.03 +0.06    +0.064    36.456
ATOM      4  C   UNL d   1      -8.967   4.689 -10.281 -0.19 +0.02    +0.064    36.456
ATOM      5  C   UNL d   1     -13.698   2.270 -11.224 -0.05 +0.02    +0.066    36.456
ATOM      6  C   UNL d   1     -14.960   1.684 -11.360 -0.02 -0.01    -0.021    36.456
ATOM      7  C   UNL d   1     -15.169   0.910 -10.243 -0.01 -0.01    -0.025    36.456
ATOM      8  C   UNL d   1     -14.010   1.005  -9.479 -0.04 +0.02    +0.066    36.456
ATOM      9  C   UNL d   1     -16.444   0.152  -9.941 -0.00 +0.01    +0.051    36.456
ATOM     10  C   UNL d   1     -12.618   0.370  -7.498 -0.13 +0.04    +0.066    36.456
ATOM     11  C   UNL d   1     -12.409  -0.478  -6.404 -0.14 -0.01    -0.021    36.456
ATOM     12  C   UNL d   1     -11.151  -0.183  -5.912 -0.16 +0.00    +0.000    36.456
ATOM     13  C   UNL d   1     -10.657   0.859  -6.746 -0.08 +0.06    +0.070    36.456
ATOM     14  C   UNL d   1     -13.359  -1.542  -5.867 -0.07 +0.01    +0.052    36.456
ATOM     15  C   UNL d   1      -8.942   2.526  -7.435 -0.21 +0.06    +0.066    36.456
ATOM     16  C   UNL d   1      -7.755   3.206  -7.167 -0.36 -0.01    -0.021    36.456
ATOM     17  C   UNL d   1      -7.593   4.137  -8.193 -0.32 +0.00    +0.000    36.456
ATOM     18  C   UNL d   1      -8.707   3.950  -9.023 -0.20 +0.04    +0.070    36.456
ATOM     19  C   UNL d   1      -6.919   2.948  -5.938 -0.39 +0.02    +0.052    36.456
ATOM     20  C   UNL d   1     -10.047   4.566 -11.078 -0.18 +0.02    +0.066    36.456
ATOM     21  C   UNL d   1     -10.228   5.276 -12.261 -0.18 -0.01    -0.025    36.456
ATOM     22  C   UNL d   1     -11.406   4.822 -12.812 -0.14 -0.01    -0.021    36.456
ATOM     23  C   UNL d   1     -11.910   3.860 -11.931 -0.11 +0.02    +0.066    36.456
ATOM     24  C   UNL d   1      -9.326   6.337 -12.835 -0.11 +0.01    +0.051    36.456
ATOM     25  N   UNL d   1     -13.130   1.895 -10.052 -0.05 -0.11    -0.248    36.456
ATOM     26  N   UNL d   1     -11.558   1.192  -7.704 -0.10 -0.25    -0.248    36.456
ATOM     27  N   UNL d   1      -9.553   3.021  -8.508 -0.01 -0.21    -0.248    36.456
ATOM     28  N   UNL d   1     -11.104   3.740 -10.856 -0.07 -0.10    -0.248    36.456
ATOM     29 FE   UNL d   1     -11.327   2.476  -9.291 -0.04 +0.00    +0.000    36.456
ATOM     30  O   UNL d   1     -12.549   2.999  -8.481 -0.42 +0.00    +0.000    36.456
ATOM     31  O   UNL d   1     -11.307   3.940  -8.717 -0.17 +0.00    +0.000    36.456
ATOM     32  C   UNL d   1     -15.990   1.947 -12.428 -0.01 +0.01    +0.052    36.456
ATOM     33  C   UNL d   1     -15.869   0.995 -13.615 -0.03 +0.05    +0.115    36.456
ATOM     34  C   UNL d   1     -14.621   1.242 -14.425 -0.02 +0.14    +0.139    36.456
ATOM     35  O   UNL d   1     -13.566   0.733 -14.081 -0.39 -0.88    -0.650    36.456
ATOM     36  O   UNL d   1     -14.636   2.040 -15.513 -0.01 -1.09    -0.776    36.456
ATOM     37  H   UNL d   1     -14.544   2.998 -15.446 +0.01 +0.16    +0.167    36.456
ATOM     38  C   UNL d   1     -12.037   5.334 -14.080 -0.11 +0.02    +0.052    36.456
ATOM     39  C   UNL d   1     -11.701   4.465 -15.290 -0.17 +0.06    +0.115    36.456
ATOM     40  C   UNL d   1     -12.818   4.429 -16.302 -0.11 +0.10    +0.139    36.456
ATOM     41  O   UNL d   1     -13.447   5.446 -16.548 +0.00 -0.23    -0.650    36.456
ATOM     42  O   UNL d   1     -13.105   3.302 -16.982 -0.49 -1.31    -0.776    36.456
ATOM     43  H   UNL d   1     -13.908   2.798 -16.808 +0.02 +0.34    +0.167    36.456
ATOM     44  C   UNL d   1     -10.563  -0.909  -4.720 -0.24 +0.00    +0.004    36.456
ATOM     45  C   UNL d   1      -9.977  -0.380  -3.647 -0.35 +0.00    +0.012    36.456
ATOM     46  C   UNL d   1      -6.540   5.190  -8.414 -0.15 +0.00    +0.004    36.456
ATOM     47  C   UNL d   1      -5.214   5.029  -8.506 -0.40 +0.00    +0.012    36.456
TER
ENDMDL
MODEL       73
USER    Run = 73
USER    Cluster Rank = 9
USER    Number of conformations in this cluster = 4
USER  
USER    RMSD from reference structure       = 28.619 A
USER  
USER    Estimated Free Energy of Binding    =   -6.41 kcal/mol  [=(1)+(2)+(3)-(4)]
USER    Estimated Inhibition Constant, Ki   =   20.05 uM (micromolar)  [Temperature = 298.15 K]
USER    
USER    (1) Final Intermolecular Energy     =   -9.39 kcal/mol
USER        vdW + Hbond + desolv Energy     =   -6.56 kcal/mol
USER        Electrostatic Energy            =   -2.83 kcal/mol
USER    (2) Final Total Internal Energy     =   -1.89 kcal/mol
USER    (3) Torsional Free Energy           =   +2.98 kcal/mol
USER    (4) Unbound System's Energy  [=(2)] =   -1.89 kcal/mol
USER    
USER    
USER  
USER    DPF = D:/Protein_go_brrr/autodock/final/mut_K82N/heme_O2/dock.dpf
USER    NEWDPF move	heme_O2_opt.pdbqt
USER    NEWDPF about	8.287000 34.468000 -0.670000
USER    NEWDPF tran0	-10.120305 10.957130 -7.918626
USER    NEWDPF axisangle0	-0.624729 -0.093965 0.775167 -148.623512
USER    NEWDPF quaternion0	-0.601456 -0.090464 0.746290 -0.270403
USER    NEWDPF dihe0	179.56 96.93 -34.93 122.43 -18.39 -23.66 -107.76 93.19 174.33 -168.30 
USER  
USER                              x       y       z    vdW   Elec        q     RMS 
ATOM      1  C   UNL d   1      -9.297   9.343  -6.817 -0.23 +0.02    +0.064    28.619
ATOM      2  C   UNL d   1     -12.155  12.934  -5.594 -0.14 +0.02    +0.064    28.619
ATOM      3  C   UNL d   1     -12.029  14.679 -10.070 -0.13 +0.03    +0.064    28.619
ATOM      4  C   UNL d   1      -9.475  10.725 -11.453 -0.08 +0.01    +0.064    28.619
ATOM      5  C   UNL d   1     -10.086  10.176  -6.119 -0.22 +0.02    +0.066    28.619
ATOM      6  C   UNL d   1     -10.365  10.034  -4.757 -0.31 -0.01    -0.021    28.619
ATOM      7  C   UNL d   1     -11.227  11.048  -4.412 -0.23 -0.01    -0.025    28.619
ATOM      8  C   UNL d   1     -11.413  11.810  -5.562 -0.16 +0.02    +0.066    28.619
ATOM      9  C   UNL d   1     -11.846  11.229  -3.043 -0.23 +0.01    +0.051    28.619
ATOM     10  C   UNL d   1     -12.369  13.787  -6.764 -0.13 +0.03    +0.066    28.619
ATOM     11  C   UNL d   1     -13.012  15.028  -6.704 -0.09 -0.01    -0.021    28.619
ATOM     12  C   UNL d   1     -12.970  15.555  -7.982 -0.10 +0.00    +0.000    28.619
ATOM     13  C   UNL d   1     -12.299  14.578  -8.769 -0.13 +0.04    +0.070    28.619
ATOM     14  C   UNL d   1     -13.618  15.695  -5.475 -0.10 +0.03    +0.052    28.619
ATOM     15  C   UNL d   1     -11.383  13.699 -10.909 -0.09 +0.02    +0.066    28.619
ATOM     16  C   UNL d   1     -11.276  13.793 -12.297 -0.07 -0.00    -0.021    28.619
ATOM     17  C   UNL d   1     -10.553  12.676 -12.713 -0.07 +0.00    +0.000    28.619
ATOM     18  C   UNL d   1     -10.267  11.976 -11.533 -0.00 +0.02    +0.070    28.619
ATOM     19  C   UNL d   1     -11.915  14.900 -13.097 -0.04 +0.01    +0.052    28.619
ATOM     20  C   UNL d   1      -9.219  10.005 -10.344 -0.11 +0.01    +0.066    28.619
ATOM     21  C   UNL d   1      -8.452   8.843 -10.327 -0.12 -0.00    -0.025    28.619
ATOM     22  C   UNL d   1      -8.368   8.450  -9.010 -0.18 -0.00    -0.021    28.619
ATOM     23  C   UNL d   1      -9.105   9.381  -8.271 -0.18 +0.01    +0.066    28.619
ATOM     24  C   UNL d   1      -7.834   8.142 -11.509 -0.14 +0.00    +0.051    28.619
ATOM     25  N   UNL d   1     -10.762  11.235  -6.629 -0.09 -0.07    -0.248    28.619
ATOM     26  N   UNL d   1     -11.941  13.504  -8.021 -0.09 -0.12    -0.248    28.619
ATOM     27  N   UNL d   1     -10.842  12.571 -10.457 -0.08 -0.08    -0.248    28.619
ATOM     28  N   UNL d   1      -9.658  10.298  -9.091 -0.08 -0.06    -0.248    28.619
ATOM     29 FE   UNL d   1     -10.791  11.890  -8.563 -0.03 +0.00    +0.000    28.619
ATOM     30  O   UNL d   1     -12.152  11.312  -8.075 -0.06 +0.00    +0.000    28.619
ATOM     31  O   UNL d   1     -11.650  11.001  -9.535 -0.06 +0.00    +0.000    28.619
ATOM     32  C   UNL d   1      -9.949   8.911  -3.842 -0.40 +0.02    +0.052    28.619
ATOM     33  C   UNL d   1     -11.075   7.917  -3.575 -0.33 +0.05    +0.115    28.619
ATOM     34  C   UNL d   1     -11.414   7.091  -4.791 -0.14 +0.13    +0.139    28.619
ATOM     35  O   UNL d   1     -12.418   6.396  -4.787 -0.38 -0.90    -0.650    28.619
ATOM     36  O   UNL d   1     -10.616   7.079  -5.878 -0.19 -0.81    -0.776    28.619
ATOM     37  H   UNL d   1     -10.823   6.552  -6.659 +0.03 +0.23    +0.167    28.619
ATOM     38  C   UNL d   1      -7.671   7.214  -8.506 -0.21 +0.01    +0.052    28.619
ATOM     39  C   UNL d   1      -8.351   5.930  -8.975 -0.20 +0.04    +0.115    28.619
ATOM     40  C   UNL d   1      -9.446   5.482  -8.039 -0.16 +0.13    +0.139    28.619
ATOM     41  O   UNL d   1     -10.588   5.366  -8.454 -0.10 -0.70    -0.650    28.619
ATOM     42  O   UNL d   1      -9.178   5.159  -6.759 -0.45 -1.25    -0.776    28.619
ATOM     43  H   UNL d   1      -9.337   5.779  -6.038 +0.03 +0.24    +0.167    28.619
ATOM     44  C   UNL d   1     -13.566  16.907  -8.314 -0.08 +0.00    +0.004    28.619
ATOM     45  C   UNL d   1     -13.076  17.840  -9.129 -0.08 +0.01    +0.012    28.619
ATOM     46  C   UNL d   1     -10.173  12.202 -14.091 -0.05 +0.00    +0.004    28.619
ATOM     47  C   UNL d   1      -8.947  12.082 -14.617 -0.06 +0.00    +0.012    28.619
TER
ENDMDL
MODEL       56
USER    Run = 56
USER    Cluster Rank = 10
USER    Number of conformations in this cluster = 1
USER  
USER    RMSD from reference structure       = 28.130 A
USER  
USER    Estimated Free Energy of Binding    =   -6.33 kcal/mol  [=(1)+(2)+(3)-(4)]
USER    Estimated Inhibition Constant, Ki   =   22.89 uM (micromolar)  [Temperature = 298.15 K]
USER    
USER    (1) Final Intermolecular Energy     =   -9.31 kcal/mol
USER        vdW + Hbond + desolv Energy     =   -6.45 kcal/mol
USER        Electrostatic Energy            =   -2.86 kcal/mol
USER    (2) Final Total Internal Energy     =   -1.59 kcal/mol
USER    (3) Torsional Free Energy           =   +2.98 kcal/mol
USER    (4) Unbound System's Energy  [=(2)] =   -1.59 kcal/mol
USER    
USER    
USER  
USER    DPF = D:/Protein_go_brrr/autodock/final/mut_K82N/heme_O2/dock.dpf
USER    NEWDPF move	heme_O2_opt.pdbqt
USER    NEWDPF about	8.287000 34.468000 -0.670000
USER    NEWDPF tran0	-11.691424 11.454940 -5.733457
USER    NEWDPF axisangle0	0.446303 0.705739 0.550224 -168.179126
USER    NEWDPF quaternion0	0.443930 0.701987 0.547299 -0.102974
USER    NEWDPF dihe0	-89.72 -130.59 61.34 -106.55 72.47 144.84 80.03 -121.46 0.29 -30.77 
USER  
USER                              x       y       z    vdW   Elec        q     RMS 
ATOM      1  C   UNL d   1     -10.795   9.541  -5.550 -0.18 +0.02    +0.064    28.130
ATOM      2  C   UNL d   1     -10.537  12.897  -8.902 -0.21 +0.03    +0.064    28.130
ATOM      3  C   UNL d   1     -13.585  15.698  -6.461 -0.08 +0.04    +0.064    28.130
ATOM      4  C   UNL d   1     -13.486  12.459  -2.779 -0.08 +0.01    +0.064    28.130
ATOM      5  C   UNL d   1     -10.475  10.226  -6.660 -0.16 +0.02    +0.066    28.130
ATOM      6  C   UNL d   1      -9.622   9.745  -7.658 -0.19 -0.01    -0.021    28.130
ATOM      7  C   UNL d   1      -9.513  10.734  -8.608 -0.19 -0.01    -0.025    28.130
ATOM      8  C   UNL d   1     -10.339  11.772  -8.188 -0.18 +0.02    +0.066    28.130
ATOM      9  C   UNL d   1      -8.625  10.664  -9.831 -0.15 +0.01    +0.051    28.130
ATOM     10  C   UNL d   1     -11.409  14.010  -8.524 -0.21 +0.04    +0.066    28.130
ATOM     11  C   UNL d   1     -11.705  15.079  -9.377 -0.18 -0.02    -0.021    28.130
ATOM     12  C   UNL d   1     -12.597  15.889  -8.698 -0.08 +0.00    +0.000    28.130
ATOM     13  C   UNL d   1     -12.790  15.260  -7.436 -0.01 +0.06    +0.070    28.130
ATOM     14  C   UNL d   1     -11.181  15.305 -10.790 -0.17 +0.03    +0.052    28.130
ATOM     15  C   UNL d   1     -13.780  15.110  -5.158 -0.09 +0.03    +0.066    28.130
ATOM     16  C   UNL d   1     -14.499  15.705  -4.122 -0.06 -0.01    -0.021    28.130
ATOM     17  C   UNL d   1     -14.484  14.800  -3.061 -0.05 +0.00    +0.000    28.130
ATOM     18  C   UNL d   1     -13.749  13.705  -3.536 -0.07 +0.02    +0.070    28.130
ATOM     19  C   UNL d   1     -15.083  17.093  -4.216 -0.03 +0.01    +0.052    28.130
ATOM     20  C   UNL d   1     -12.749  11.408  -3.188 -0.11 +0.01    +0.066    28.130
ATOM     21  C   UNL d   1     -12.552  10.253  -2.437 -0.14 -0.01    -0.025    28.130
ATOM     22  C   UNL d   1     -11.810   9.400  -3.222 -0.21 -0.01    -0.021    28.130
ATOM     23  C   UNL d   1     -11.566  10.075  -4.421 -0.15 +0.02    +0.066    28.130
ATOM     24  C   UNL d   1     -13.044   9.979  -1.039 -0.07 +0.01    +0.051    28.130
ATOM     25  N   UNL d   1     -10.881  11.485  -6.956 -0.09 -0.07    -0.248    28.130
ATOM     26  N   UNL d   1     -12.060  14.120  -7.337 -0.11 -0.16    -0.248    28.130
ATOM     27  N   UNL d   1     -13.266  13.942  -4.783 -0.07 -0.08    -0.248    28.130
ATOM     28  N   UNL d   1     -12.100  11.313  -4.379 -0.06 -0.06    -0.248    28.130
ATOM     29 FE   UNL d   1     -12.081  12.708  -5.846 -0.03 +0.00    +0.000    28.130
ATOM     30  O   UNL d   1     -10.610  13.204  -5.956 -0.37 +0.00    +0.000    28.130
ATOM     31  O   UNL d   1     -11.379  13.337  -4.587 -0.28 +0.00    +0.000    28.130
ATOM     32  C   UNL d   1      -8.830   8.463  -7.657 -0.23 +0.02    +0.052    28.130
ATOM     33  C   UNL d   1      -9.645   7.263  -8.130 -0.15 +0.06    +0.115    28.130
ATOM     34  C   UNL d   1     -10.109   6.396  -6.986 -0.12 +0.17    +0.139    28.130
ATOM     35  O   UNL d   1      -9.328   5.617  -6.464 -0.51 -0.98    -0.650    28.130
ATOM     36  O   UNL d   1     -11.382   6.441  -6.541 -0.07 -1.24    -0.776    28.130
ATOM     37  H   UNL d   1     -11.660   7.052  -5.849 +0.03 +0.18    +0.167    28.130
ATOM     38  C   UNL d   1     -11.312   8.038  -2.811 -0.37 +0.02    +0.052    28.130
ATOM     39  C   UNL d   1     -12.439   7.012  -2.712 -0.20 +0.05    +0.115    28.130
ATOM     40  C   UNL d   1     -13.204   6.868  -4.004 -0.12 +0.09    +0.139    28.130
ATOM     41  O   UNL d   1     -13.932   7.772  -4.381 +0.02 -0.26    -0.650    28.130
ATOM     42  O   UNL d   1     -13.058   5.778  -4.781 -0.45 -1.30    -0.776    28.130
ATOM     43  H   UNL d   1     -12.851   5.851  -5.720 +0.03 +0.37    +0.167    28.130
ATOM     44  C   UNL d   1     -13.159  17.155  -9.309 -0.09 +0.00    +0.004    28.130
ATOM     45  C   UNL d   1     -13.093  18.396  -8.827 -0.07 +0.01    +0.012    28.130
ATOM     46  C   UNL d   1     -15.037  14.905  -1.664 -0.04 +0.00    +0.004    28.130
ATOM     47  C   UNL d   1     -14.363  14.953  -0.508 -0.08 +0.00    +0.012    28.130
TER
ENDMDL
MODEL       12
USER    Run = 12
USER    Cluster Rank = 11
USER    Number of conformations in this cluster = 1
USER  
USER    RMSD from reference structure       = 32.484 A
USER  
USER    Estimated Free Energy of Binding    =   -6.15 kcal/mol  [=(1)+(2)+(3)-(4)]
USER    Estimated Inhibition Constant, Ki   =   31.14 uM (micromolar)  [Temperature = 298.15 K]
USER    
USER    (1) Final Intermolecular Energy     =   -9.13 kcal/mol
USER        vdW + Hbond + desolv Energy     =   -9.19 kcal/mol
USER        Electrostatic Energy            =   +0.06 kcal/mol
USER    (2) Final Total Internal Energy     =   -1.77 kcal/mol
USER    (3) Torsional Free Energy           =   +2.98 kcal/mol
USER    (4) Unbound System's Energy  [=(2)] =   -1.77 kcal/mol
USER    
USER    
USER  
USER    DPF = D:/Protein_go_brrr/autodock/final/mut_K82N/heme_O2/dock.dpf
USER    NEWDPF move	heme_O2_opt.pdbqt
USER    NEWDPF about	8.287000 34.468000 -0.670000
USER    NEWDPF tran0	2.358649 4.857392 18.681695
USER    NEWDPF axisangle0	0.066894 -0.556777 -0.827964 115.935019
USER    NEWDPF quaternion0	0.056709 -0.472006 -0.701905 0.530400
USER    NEWDPF dihe0	-100.96 -13.15 42.97 142.61 57.60 152.71 -102.81 -6.67 -173.89 148.11 
USER  
USER                              x       y       z    vdW   Elec        q     RMS 
ATOM      1  C   UNL d   1       2.347   2.992  19.691 -0.27 -0.05    +0.064    32.484
ATOM      2  C   UNL d   1       5.578   6.461  19.398 -0.20 -0.01    +0.064    32.484
ATOM      3  C   UNL d   1       2.714   9.009  16.500 -0.28 -0.03    +0.064    32.484
ATOM      4  C   UNL d   1      -0.811   5.666  17.179 -0.21 -0.02    +0.064    32.484
ATOM      5  C   UNL d   1       3.459   3.728  19.849 -0.28 -0.03    +0.066    32.484
ATOM      6  C   UNL d   1       4.562   3.327  20.609 -0.33 +0.01    -0.021    32.484
ATOM      7  C   UNL d   1       5.480   4.350  20.560 -0.29 +0.00    -0.025    32.484
ATOM      8  C   UNL d   1       4.933   5.327  19.732 -0.25 -0.02    +0.066    32.484
ATOM      9  C   UNL d   1       6.796   4.368  21.308 -0.29 +0.01    +0.051    32.484
ATOM     10  C   UNL d   1       5.065   7.511  18.517 -0.19 -0.02    +0.066    32.484
ATOM     11  C   UNL d   1       5.840   8.588  18.072 -0.16 +0.01    -0.021    32.484
ATOM     12  C   UNL d   1       5.037   9.325  17.221 -0.21 -0.00    +0.000    32.484
ATOM     13  C   UNL d   1       3.787   8.647  17.204 -0.22 -0.03    +0.070    32.484
ATOM     14  C   UNL d   1       7.293   8.887  18.422 -0.10 -0.01    +0.052    32.484
ATOM     15  C   UNL d   1       1.420   8.370  16.483 -0.23 -0.03    +0.066    32.484
ATOM     16  C   UNL d   1       0.290   8.891  15.854 -0.19 +0.01    -0.021    32.484
ATOM     17  C   UNL d   1      -0.728   7.955  16.035 -0.08 -0.00    +0.000    32.484
ATOM     18  C   UNL d   1      -0.134   6.919  16.769 -0.21 -0.03    +0.070    32.484
ATOM     19  C   UNL d   1       0.268  10.246  15.192 -0.19 -0.05    +0.052    32.484
ATOM     20  C   UNL d   1      -0.284   4.672  17.919 -0.23 -0.02    +0.066    32.484
ATOM     21  C   UNL d   1      -0.965   3.506  18.259 -0.23 +0.01    -0.025    32.484
ATOM     22  C   UNL d   1      -0.072   2.721  18.952 -0.26 +0.01    -0.021    32.484
ATOM     23  C   UNL d   1       1.121   3.446  19.025 -0.28 -0.03    +0.066    32.484
ATOM     24  C   UNL d   1      -2.397   3.162  17.942 -0.27 -0.01    +0.051    32.484
ATOM     25  N   UNL d   1       3.661   4.972  19.348 -0.16 +0.11    -0.248    32.484
ATOM     26  N   UNL d   1       3.811   7.547  17.998 -0.11 +0.11    -0.248    32.484
ATOM     27  N   UNL d   1       1.148   7.222  17.096 -0.15 +0.11    -0.248    32.484
ATOM     28  N   UNL d   1       0.974   4.650  18.435 -0.08 +0.12    -0.248    32.484
ATOM     29 FE   UNL d   1       2.380   6.090  18.217 -0.06 -0.00    +0.000    32.484
ATOM     30  O   UNL d   1       2.633   6.670  19.639 -0.14 -0.00    +0.000    32.484
ATOM     31  O   UNL d   1       1.184   6.717  19.022 -0.14 -0.00    +0.000    32.484
ATOM     32  C   UNL d   1       4.695   2.092  21.462 -0.32 -0.03    +0.052    32.484
ATOM     33  C   UNL d   1       4.240   2.314  22.901 -0.14 -0.04    +0.115    32.484
ATOM     34  C   UNL d   1       2.738   2.372  23.026 -0.07 -0.08    +0.139    32.484
ATOM     35  O   UNL d   1       2.170   3.452  22.985 +0.02 +0.22    -0.650    32.484
ATOM     36  O   UNL d   1       2.004   1.256  23.212 +0.07 +0.65    -0.776    32.484
ATOM     37  H   UNL d   1       1.530   0.830  22.489 -0.34 -0.28    +0.167    32.484
ATOM     38  C   UNL d   1      -0.374   1.376  19.562 -0.31 -0.03    +0.052    32.484
ATOM     39  C   UNL d   1      -0.396   1.423  21.089 -0.10 -0.07    +0.115    32.484
ATOM     40  C   UNL d   1      -0.882   0.131  21.697 -0.12 -0.00    +0.139    32.484
ATOM     41  O   UNL d   1      -2.018  -0.255  21.475 -0.10 -0.22    -0.650    32.484
ATOM     42  O   UNL d   1      -0.064  -0.637  22.444 -0.50 -0.01    -0.776    32.484
ATOM     43  H   UNL d   1       0.884  -0.466  22.492 -0.23 -0.16    +0.167    32.484
ATOM     44  C   UNL d   1       5.535  10.576  16.529 -0.10 -0.00    +0.004    32.484
ATOM     45  C   UNL d   1       4.866  11.706  16.300 -0.13 -0.00    +0.012    32.484
ATOM     46  C   UNL d   1      -2.180   7.985  15.637 -0.23 -0.00    +0.004    32.484
ATOM     47  C   UNL d   1      -2.907   7.007  15.081 -0.31 -0.01    +0.012    32.484
TER
ENDMDL
MODEL       78
USER    Run = 78
USER    Cluster Rank = 12
USER    Number of conformations in this cluster = 2
USER  
USER    RMSD from reference structure       = 37.661 A
USER  
USER    Estimated Free Energy of Binding    =   -6.08 kcal/mol  [=(1)+(2)+(3)-(4)]
USER    Estimated Inhibition Constant, Ki   =   34.95 uM (micromolar)  [Temperature = 298.15 K]
USER    
USER    (1) Final Intermolecular Energy     =   -9.06 kcal/mol
USER        vdW + Hbond + desolv Energy     =   -6.05 kcal/mol
USER        Electrostatic Energy            =   -3.01 kcal/mol
USER    (2) Final Total Internal Energy     =   -1.59 kcal/mol
USER    (3) Torsional Free Energy           =   +2.98 kcal/mol
USER    (4) Unbound System's Energy  [=(2)] =   -1.59 kcal/mol
USER    
USER    
USER  
USER    DPF = D:/Protein_go_brrr/autodock/final/mut_K82N/heme_O2/dock.dpf
USER    NEWDPF move	heme_O2_opt.pdbqt
USER    NEWDPF about	8.287000 34.468000 -0.670000
USER    NEWDPF tran0	-13.606713 0.204342 -4.735721
USER    NEWDPF axisangle0	-0.656516 0.221048 -0.721197 -78.187507
USER    NEWDPF quaternion0	-0.413993 0.139391 -0.454780 -0.776115
USER    NEWDPF dihe0	-61.50 -39.02 -102.42 112.53 26.74 -61.06 -113.05 -178.70 148.64 161.18 
USER  
USER                              x       y       z    vdW   Elec        q     RMS 
ATOM      1  C   UNL d   1     -14.749   1.474  -5.993 -0.06 +0.03    +0.064    37.661
ATOM      2  C   UNL d   1     -13.518   1.757  -1.415 -0.11 +0.01    +0.064    37.661
ATOM      3  C   UNL d   1     -11.191  -2.439  -1.686 -0.21 -0.05    +0.064    37.661
ATOM      4  C   UNL d   1     -12.046  -2.508  -6.516 -0.16 +0.01    +0.064    37.661
ATOM      5  C   UNL d   1     -14.603   1.894  -4.726 -0.07 +0.04    +0.066    37.661
ATOM      6  C   UNL d   1     -15.157   3.075  -4.224 -0.07 -0.01    -0.021    37.661
ATOM      7  C   UNL d   1     -14.765   3.180  -2.910 -0.09 -0.01    -0.025    37.661
ATOM      8  C   UNL d   1     -14.023   2.036  -2.632 -0.09 +0.02    +0.066    37.661
ATOM      9  C   UNL d   1     -15.081   4.350  -2.003 -0.07 +0.01    +0.051    37.661
ATOM     10  C   UNL d   1     -12.751   0.563  -1.057 -0.14 +0.00    +0.066    37.661
ATOM     11  C   UNL d   1     -12.392   0.244   0.257 -0.18 +0.00    -0.021    37.661
ATOM     12  C   UNL d   1     -11.736  -0.972   0.202 -0.26 -0.00    +0.000    37.661
ATOM     13  C   UNL d   1     -11.721  -1.327  -1.175 -0.20 -0.03    +0.070    37.661
ATOM     14  C   UNL d   1     -12.687   1.051   1.516 -0.18 -0.00    +0.052    37.661
ATOM     15  C   UNL d   1     -11.124  -2.819  -3.076 -0.19 -0.02    +0.066    37.661
ATOM     16  C   UNL d   1     -10.412  -3.914  -3.563 -0.25 +0.01    -0.021    37.661
ATOM     17  C   UNL d   1     -10.640  -3.954  -4.938 -0.22 -0.00    +0.000    37.661
ATOM     18  C   UNL d   1     -11.487  -2.865  -5.191 -0.15 -0.00    +0.070    37.661
ATOM     19  C   UNL d   1      -9.542  -4.784  -2.690 -0.43 -0.03    +0.052    37.661
ATOM     20  C   UNL d   1     -12.825  -1.447  -6.801 -0.10 +0.01    +0.066    37.661
ATOM     21  C   UNL d   1     -13.336  -1.171  -8.066 -0.09 -0.01    -0.025    37.661
ATOM     22  C   UNL d   1     -14.131  -0.055  -7.930 -0.05 -0.01    -0.021    37.661
ATOM     23  C   UNL d   1     -14.061   0.321  -6.585 -0.06 +0.03    +0.066    37.661
ATOM     24  C   UNL d   1     -13.076  -1.931  -9.340 -0.11 +0.01    +0.051    37.661
ATOM     25  N   UNL d   1     -13.868   1.277  -3.769 -0.07 -0.12    -0.248    37.661
ATOM     26  N   UNL d   1     -12.336  -0.386  -1.934 -0.07 +0.01    -0.248    37.661
ATOM     27  N   UNL d   1     -11.709  -2.145  -4.062 -0.07 +0.01    -0.248    37.661
ATOM     28  N   UNL d   1     -13.231  -0.501  -5.912 -0.04 -0.08    -0.248    37.661
ATOM     29 FE   UNL d   1     -12.785  -0.446  -3.938 -0.02 +0.00    +0.000    37.661
ATOM     30  O   UNL d   1     -11.913   0.826  -3.724 -0.05 +0.00    +0.000    37.661
ATOM     31  O   UNL d   1     -11.436  -0.288  -4.731 -0.21 +0.00    +0.000    37.661
ATOM     32  C   UNL d   1     -15.911   4.136  -4.983 -0.04 +0.02    +0.052    37.661
ATOM     33  C   UNL d   1     -15.345   5.536  -4.765 -0.05 +0.06    +0.115    37.661
ATOM     34  C   UNL d   1     -13.945   5.681  -5.308 +0.23 +0.16    +0.139    37.661
ATOM     35  O   UNL d   1     -13.047   6.054  -4.570 -0.42 -0.86    -0.650    37.661
ATOM     36  O   UNL d   1     -13.664   5.433  -6.604 -0.33 -1.11    -0.776    37.661
ATOM     37  H   UNL d   1     -13.803   4.564  -7.000 +0.00 +0.25    +0.167    37.661
ATOM     38  C   UNL d   1     -14.862   0.644  -9.047 -0.03 +0.01    +0.052    37.661
ATOM     39  C   UNL d   1     -14.089   1.844  -9.588 -0.04 +0.04    +0.115    37.661
ATOM     40  C   UNL d   1     -12.773   2.048  -8.880 -0.11 +0.10    +0.139    37.661
ATOM     41  O   UNL d   1     -11.791   1.413  -9.230 -0.01 -0.37    -0.650    37.661
ATOM     42  O   UNL d   1     -12.646   2.960  -7.896 -0.18 -1.40    -0.776    37.661
ATOM     43  H   UNL d   1     -13.112   3.805  -7.928 +0.01 +0.25    +0.167    37.661
ATOM     44  C   UNL d   1     -11.199  -1.652   1.444 +0.09 -0.00    +0.004    37.661
ATOM     45  C   UNL d   1     -11.889  -2.270   2.402 -0.26 -0.01    +0.012    37.661
ATOM     46  C   UNL d   1     -10.096  -4.867  -6.004 -0.37 -0.00    +0.004    37.661
ATOM     47  C   UNL d   1     -10.726  -5.861  -6.644 -0.45 -0.00    +0.012    37.661
TER
ENDMDL
MODEL       20
USER    Run = 20
USER    Cluster Rank = 13
USER    Number of conformations in this cluster = 1
USER  
USER    RMSD from reference structure       = 37.893 A
USER  
USER    Estimated Free Energy of Binding    =   -5.89 kcal/mol  [=(1)+(2)+(3)-(4)]
USER    Estimated Inhibition Constant, Ki   =   47.83 uM (micromolar)  [Temperature = 298.15 K]
USER    
USER    (1) Final Intermolecular Energy     =   -8.88 kcal/mol
USER        vdW + Hbond + desolv Energy     =   -7.96 kcal/mol
USER        Electrostatic Energy            =   -0.91 kcal/mol
USER    (2) Final Total Internal Energy     =   -0.32 kcal/mol
USER    (3) Torsional Free Energy           =   +2.98 kcal/mol
USER    (4) Unbound System's Energy  [=(2)] =   -0.32 kcal/mol
USER    
USER    
USER  
USER    DPF = D:/Protein_go_brrr/autodock/final/mut_K82N/heme_O2/dock.dpf
USER    NEWDPF move	heme_O2_opt.pdbqt
USER    NEWDPF about	8.287000 34.468000 -0.670000
USER    NEWDPF tran0	13.874843 -5.466410 4.688762
USER    NEWDPF axisangle0	-0.554565 0.829639 -0.064465 87.079511
USER    NEWDPF quaternion0	-0.382017 0.571503 -0.044407 0.724897
USER    NEWDPF dihe0	21.48 -84.68 71.12 -147.83 -53.68 -77.43 12.05 36.92 47.35 -168.21 
USER  
USER                              x       y       z    vdW   Elec        q     RMS 
ATOM      1  C   UNL d   1      13.568  -3.863   3.335 -0.09 +0.00    +0.064    37.893
ATOM      2  C   UNL d   1      12.391  -8.462   3.180 -0.21 +0.00    +0.064    37.893
ATOM      3  C   UNL d   1      14.470  -9.232   7.444 -0.02 +0.00    +0.064    37.893
ATOM      4  C   UNL d   1      15.267  -4.407   7.835 -0.14 +0.00    +0.064    37.893
ATOM      5  C   UNL d   1      13.077  -5.050   2.946 -0.08 +0.00    +0.066    37.893
ATOM      6  C   UNL d   1      12.411  -5.263   1.735 -0.19 +0.00    -0.021    37.893
ATOM      7  C   UNL d   1      12.032  -6.585   1.708 -0.21 -0.00    -0.025    37.893
ATOM      8  C   UNL d   1      12.519  -7.154   2.882 -0.15 +0.00    +0.066    37.893
ATOM      9  C   UNL d   1      11.217  -7.230   0.608 -0.26 -0.00    +0.051    37.893
ATOM     10  C   UNL d   1      12.900  -9.120   4.384 -0.19 +0.01    +0.066    37.893
ATOM     11  C   UNL d   1      12.885 -10.507   4.567 -0.17 -0.00    -0.021    37.893
ATOM     12  C   UNL d   1      13.496 -10.751   5.783 -0.15 +0.00    +0.000    37.893
ATOM     13  C   UNL d   1      13.847  -9.469   6.290 -0.12 +0.01    +0.070    37.893
ATOM     14  C   UNL d   1      12.334 -11.558   3.610 -0.14 +0.01    +0.052    37.893
ATOM     15  C   UNL d   1      14.811  -7.949   8.008 -0.11 +0.00    +0.066    37.893
ATOM     16  C   UNL d   1      15.315  -7.760   9.295 -0.17 -0.00    -0.021    37.893
ATOM     17  C   UNL d   1      15.549  -6.391   9.429 -0.20 +0.00    +0.000    37.893
ATOM     18  C   UNL d   1      15.167  -5.841   8.198 -0.15 +0.00    +0.070    37.893
ATOM     19  C   UNL d   1      15.474  -8.882  10.289 -0.18 +0.00    +0.052    37.893
ATOM     20  C   UNL d   1      14.870  -3.840   6.680 -0.15 +0.00    +0.066    37.893
ATOM     21  C   UNL d   1      15.006  -2.486   6.388 -0.12 -0.00    -0.025    37.893
ATOM     22  C   UNL d   1      14.552  -2.317   5.099 -0.15 -0.00    -0.021    37.893
ATOM     23  C   UNL d   1      14.138  -3.577   4.657 -0.15 +0.01    +0.066    37.893
ATOM     24  C   UNL d   1      15.539  -1.407   7.295 -0.07 +0.00    +0.051    37.893
ATOM     25  N   UNL d   1      13.105  -6.194   3.673 -0.11 -0.02    -0.248    37.893
ATOM     26  N   UNL d   1      13.476  -8.482   5.434 -0.11 -0.02    -0.248    37.893
ATOM     27  N   UNL d   1      14.652  -6.790   7.375 -0.09 -0.01    -0.248    37.893
ATOM     28  N   UNL d   1      14.291  -4.491   5.636 -0.12 -0.02    -0.248    37.893
ATOM     29 FE   UNL d   1      13.887  -6.472   5.539 -0.04 +0.00    +0.000    37.893
ATOM     30  O   UNL d   1      12.337  -6.598   5.483 -0.32 +0.00    +0.000    37.893
ATOM     31  O   UNL d   1      13.018  -5.871   6.703 -0.45 +0.00    +0.000    37.893
ATOM     32  C   UNL d   1      12.024  -4.237   0.702 -0.24 -0.01    +0.052    37.893
ATOM     33  C   UNL d   1      12.423  -4.642  -0.714 -0.13 +0.01    +0.115    37.893
ATOM     34  C   UNL d   1      12.249  -3.518  -1.705 -0.19 +0.06    +0.139    37.893
ATOM     35  O   UNL d   1      12.912  -3.508  -2.729 -0.18 -0.37    -0.650    37.893
ATOM     36  O   UNL d   1      11.392  -2.502  -1.472 -0.42 -0.47    -0.776    37.893
ATOM     37  H   UNL d   1      11.098  -2.275  -0.582 -0.47 -0.01    +0.167    37.893
ATOM     38  C   UNL d   1      14.465  -1.005   4.364 -0.13 +0.00    +0.052    37.893
ATOM     39  C   UNL d   1      13.439  -0.058   4.983 -0.16 +0.02    +0.115    37.893
ATOM     40  C   UNL d   1      12.716   0.766   3.948 -0.21 +0.01    +0.139    37.893
ATOM     41  O   UNL d   1      11.958   0.222   3.161 -0.38 -0.12    -0.650    37.893
ATOM     42  O   UNL d   1      12.851   2.106   3.906 +0.07 -0.01    -0.776    37.893
ATOM     43  H   UNL d   1      12.340   2.683   4.487 -0.03 -0.01    +0.167    37.893
ATOM     44  C   UNL d   1      13.676 -12.153   6.326 -0.12 +0.00    +0.004    37.893
ATOM     45  C   UNL d   1      13.102 -12.695   7.400 -0.16 +0.00    +0.012    37.893
ATOM     46  C   UNL d   1      16.031  -5.582  10.604 -0.22 +0.00    +0.004    37.893
ATOM     47  C   UNL d   1      15.814  -4.286  10.862 -0.20 +0.00    +0.012    37.893
TER
ENDMDL
MODEL       60
USER    Run = 60
USER    Cluster Rank = 14
USER    Number of conformations in this cluster = 1
USER  
USER    RMSD from reference structure       = 32.023 A
USER  
USER    Estimated Free Energy of Binding    =   -5.78 kcal/mol  [=(1)+(2)+(3)-(4)]
USER    Estimated Inhibition Constant, Ki   =   58.39 uM (micromolar)  [Temperature = 298.15 K]
USER    
USER    (1) Final Intermolecular Energy     =   -8.76 kcal/mol
USER        vdW + Hbond + desolv Energy     =   -8.37 kcal/mol
USER        Electrostatic Energy            =   -0.39 kcal/mol
USER    (2) Final Total Internal Energy     =   -0.98 kcal/mol
USER    (3) Torsional Free Energy           =   +2.98 kcal/mol
USER    (4) Unbound System's Energy  [=(2)] =   -0.98 kcal/mol
USER    
USER    
USER  
USER    DPF = D:/Protein_go_brrr/autodock/final/mut_K82N/heme_O2/dock.dpf
USER    NEWDPF move	heme_O2_opt.pdbqt
USER    NEWDPF about	8.287000 34.468000 -0.670000
USER    NEWDPF tran0	12.281641 3.093087 15.284496
USER    NEWDPF axisangle0	0.656401 -0.177003 -0.733354 152.591576
USER    NEWDPF quaternion0	0.637714 -0.171964 -0.712476 0.236910
USER    NEWDPF dihe0	50.64 -105.70 44.24 -21.12 -34.55 -116.17 30.93 69.14 30.15 155.80 
USER  
USER                              x       y       z    vdW   Elec        q     RMS 
ATOM      1  C   UNL d   1      12.747   1.935  17.000 -0.16 -0.00    +0.064    32.023
ATOM      2  C   UNL d   1      11.112   6.362  16.465 -0.09 -0.00    +0.064    32.023
ATOM      3  C   UNL d   1      11.239   5.930  11.680 -0.22 -0.00    +0.064    32.023
ATOM      4  C   UNL d   1      12.467   1.211  12.221 -0.23 -0.01    +0.064    32.023
ATOM      5  C   UNL d   1      12.290   3.174  17.245 -0.16 -0.00    +0.066    32.023
ATOM      6  C   UNL d   1      12.128   3.709  18.526 -0.18 -0.00    -0.021    32.023
ATOM      7  C   UNL d   1      11.613   4.976  18.373 -0.14 -0.00    -0.025    32.023
ATOM      8  C   UNL d   1      11.521   5.197  17.002 -0.11 +0.00    +0.066    32.023
ATOM      9  C   UNL d   1      11.212   5.890  19.510 -0.12 +0.01    +0.051    32.023
ATOM     10  C   UNL d   1      11.017   6.661  15.035 -0.13 -0.00    +0.066    32.023
ATOM     11  C   UNL d   1      10.743   7.938  14.533 -0.15 -0.00    -0.021    32.023
ATOM     12  C   UNL d   1      10.793   7.838  13.154 -0.19 +0.00    +0.000    32.023
ATOM     13  C   UNL d   1      11.089   6.472  12.888 -0.19 -0.00    +0.070    32.023
ATOM     14  C   UNL d   1      10.473   9.207  15.334 -0.12 +0.00    +0.052    32.023
ATOM     15  C   UNL d   1      11.504   4.546  11.368 -0.09 -0.00    +0.066    32.023
ATOM     16  C   UNL d   1      11.487   4.009  10.081 -0.12 +0.00    -0.021    32.023
ATOM     17  C   UNL d   1      11.833   2.664  10.210 -0.17 -0.00    +0.000    32.023
ATOM     18  C   UNL d   1      12.041   2.480  11.585 -0.04 -0.01    +0.070    32.023
ATOM     19  C   UNL d   1      11.092   4.805   8.862 -0.25 +0.00    +0.052    32.023
ATOM     20  C   UNL d   1      12.633   0.988  13.539 -0.21 -0.01    +0.066    32.023
ATOM     21  C   UNL d   1      13.054  -0.224  14.079 -0.30 +0.01    -0.025    32.023
ATOM     22  C   UNL d   1      13.166  -0.028  15.437 -0.25 +0.00    -0.021    32.023
ATOM     23  C   UNL d   1      12.790   1.297  15.679 -0.17 -0.01    +0.066    32.023
ATOM     24  C   UNL d   1      13.333  -1.505  13.336 -0.41 -0.01    +0.051    32.023
ATOM     25  N   UNL d   1      11.877   4.063  16.308 -0.09 +0.01    -0.248    32.023
ATOM     26  N   UNL d   1      11.219   5.763  14.038 -0.11 +0.02    -0.248    32.023
ATOM     27  N   UNL d   1      11.763   3.613  12.279 -0.08 +0.01    -0.248    32.023
ATOM     28  N   UNL d   1      12.423   1.897  14.528 -0.09 +0.03    -0.248    32.023
ATOM     29 FE   UNL d   1      11.825   3.815  14.282 -0.04 -0.00    +0.000    32.023
ATOM     30  O   UNL d   1      10.418   3.920  14.938 -0.37 -0.00    +0.000    32.023
ATOM     31  O   UNL d   1      10.661   2.889  13.772 -0.40 -0.00    +0.000    32.023
ATOM     32  C   UNL d   1      12.316   3.012  19.848 -0.12 +0.01    +0.052    32.023
ATOM     33  C   UNL d   1      13.482   3.577  20.654 -0.11 +0.03    +0.115    32.023
ATOM     34  C   UNL d   1      14.108   2.545  21.560 -0.10 +0.05    +0.139    32.023
ATOM     35  O   UNL d   1      15.115   2.827  22.190 -0.00 -0.20    -0.650    32.023
ATOM     36  O   UNL d   1      13.595   1.302  21.670 -0.02 -0.29    -0.776    32.023
ATOM     37  H   UNL d   1      13.400   0.759  20.898 +0.03 +0.04    +0.167    32.023
ATOM     38  C   UNL d   1      13.551  -1.078  16.447 -0.28 -0.00    +0.052    32.023
ATOM     39  C   UNL d   1      12.345  -1.620  17.212 -0.33 -0.00    +0.115    32.023
ATOM     40  C   UNL d   1      12.359  -1.223  18.667 -0.34 +0.00    +0.139    32.023
ATOM     41  O   UNL d   1      12.906  -0.186  19.007 -0.00 -0.03    -0.650    32.023
ATOM     42  O   UNL d   1      11.732  -1.968  19.597 -0.02 +0.03    -0.776    32.023
ATOM     43  H   UNL d   1      10.882  -1.703  19.967 -0.49 -0.06    +0.167    32.023
ATOM     44  C   UNL d   1      10.555   9.031  12.252 -0.18 +0.00    +0.004    32.023
ATOM     45  C   UNL d   1       9.881   9.066  11.103 -0.25 +0.00    +0.012    32.023
ATOM     46  C   UNL d   1      11.925   1.564   9.186 -0.32 -0.00    +0.004    32.023
ATOM     47  C   UNL d   1      11.248   1.444   8.037 -0.45 -0.00    +0.012    32.023
TER
ENDMDL
MODEL       67
USER    Run = 67
USER    Cluster Rank = 15
USER    Number of conformations in this cluster = 2
USER  
USER    RMSD from reference structure       = 29.870 A
USER  
USER    Estimated Free Energy of Binding    =   -5.77 kcal/mol  [=(1)+(2)+(3)-(4)]
USER    Estimated Inhibition Constant, Ki   =   58.59 uM (micromolar)  [Temperature = 298.15 K]
USER    
USER    (1) Final Intermolecular Energy     =   -8.76 kcal/mol
USER        vdW + Hbond + desolv Energy     =   -5.90 kcal/mol
USER        Electrostatic Energy            =   -2.85 kcal/mol
USER    (2) Final Total Internal Energy     =   -2.16 kcal/mol
USER    (3) Torsional Free Energy           =   +2.98 kcal/mol
USER    (4) Unbound System's Energy  [=(2)] =   -2.16 kcal/mol
USER    
USER    
USER  
USER    DPF = D:/Protein_go_brrr/autodock/final/mut_K82N/heme_O2/dock.dpf
USER    NEWDPF move	heme_O2_opt.pdbqt
USER    NEWDPF about	8.287000 34.468000 -0.670000
USER    NEWDPF tran0	-9.169874 9.640805 -11.161659
USER    NEWDPF axisangle0	0.910407 0.271128 -0.312488 166.585533
USER    NEWDPF quaternion0	0.904176 0.269272 -0.310349 0.116796
USER    NEWDPF dihe0	-81.07 -130.56 -39.78 -106.96 31.61 157.11 53.39 61.87 16.16 140.14 
USER  
USER                              x       y       z    vdW   Elec        q     RMS 
ATOM      1  C   UNL d   1      -9.660   8.061  -9.833 -0.06 +0.01    +0.064    29.870
ATOM      2  C   UNL d   1     -12.325  11.139 -12.279 -0.01 +0.01    +0.064    29.870
ATOM      3  C   UNL d   1      -8.401  13.249 -14.079 -0.09 +0.00    +0.064    29.870
ATOM      4  C   UNL d   1      -5.659   9.786 -11.945 -0.12 -0.02    +0.064    29.870
ATOM      5  C   UNL d   1     -10.705   8.725 -10.353 -0.02 +0.01    +0.066    29.870
ATOM      6  C   UNL d   1     -12.041   8.436 -10.059 -0.00 -0.00    -0.021    29.870
ATOM      7  C   UNL d   1     -12.814   9.298 -10.799 +0.00 -0.00    -0.025    29.870
ATOM      8  C   UNL d   1     -11.929  10.122 -11.489 -0.01 +0.01    +0.066    29.870
ATOM      9  C   UNL d   1     -14.327   9.284 -10.843 +0.01 +0.01    +0.051    29.870
ATOM     10  C   UNL d   1     -11.444  12.051 -13.010 -0.03 +0.01    +0.066    29.870
ATOM     11  C   UNL d   1     -11.902  13.189 -13.683 -0.02 -0.00    -0.021    29.870
ATOM     12  C   UNL d   1     -10.783  13.821 -14.194 -0.04 +0.00    +0.000    29.870
ATOM     13  C   UNL d   1      -9.682  13.007 -13.805 -0.05 +0.01    +0.070    29.870
ATOM     14  C   UNL d   1     -13.343  13.668 -13.810 -0.00 +0.00    +0.052    29.870
ATOM     15  C   UNL d   1      -7.262  12.433 -13.734 -0.13 -0.00    +0.066    29.870
ATOM     16  C   UNL d   1      -5.963  12.655 -14.192 -0.26 +0.00    -0.021    29.870
ATOM     17  C   UNL d   1      -5.164  11.679 -13.597 -0.36 -0.00    +0.000    29.870
ATOM     18  C   UNL d   1      -6.046  10.926 -12.809 -0.25 -0.01    +0.070    29.870
ATOM     19  C   UNL d   1      -5.614  13.732 -15.188 -0.24 -0.02    +0.052    29.870
ATOM     20  C   UNL d   1      -6.485   9.016 -11.210 -0.22 -0.01    +0.066    29.870
ATOM     21  C   UNL d   1      -6.060   7.966 -10.401 -0.29 +0.00    -0.025    29.870
ATOM     22  C   UNL d   1      -7.184   7.481  -9.771 -0.23 -0.00    -0.021    29.870
ATOM     23  C   UNL d   1      -8.260   8.243 -10.234 -0.12 +0.01    +0.066    29.870
ATOM     24  C   UNL d   1      -4.654   7.451 -10.240 -0.43 -0.01    +0.051    29.870
ATOM     25  N   UNL d   1     -10.631   9.726 -11.265 -0.01 -0.04    -0.248    29.870
ATOM     26  N   UNL d   1     -10.094  11.930 -13.089 -0.05 -0.04    -0.248    29.870
ATOM     27  N   UNL d   1      -7.326  11.351 -12.963 -0.10 -0.00    -0.248    29.870
ATOM     28  N   UNL d   1      -7.837   9.146 -11.143 -0.07 -0.01    -0.248    29.870
ATOM     29 FE   UNL d   1      -8.955  10.529 -12.110 -0.02 +0.00    +0.000    29.870
ATOM     30  O   UNL d   1      -9.849   9.742 -13.112 -0.04 +0.00    +0.000    29.870
ATOM     31  O   UNL d   1      -8.281   9.620 -13.202 -0.09 +0.00    +0.000    29.870
ATOM     32  C   UNL d   1     -12.577   7.305  -9.220 -0.02 +0.02    +0.052    29.870
ATOM     33  C   UNL d   1     -12.945   7.739  -7.805 -0.02 +0.05    +0.115    29.870
ATOM     34  C   UNL d   1     -12.325   6.854  -6.752 -0.03 +0.15    +0.139    29.870
ATOM     35  O   UNL d   1     -13.043   6.236  -5.983 -0.44 -0.98    -0.650    29.870
ATOM     36  O   UNL d   1     -10.986   6.751  -6.620 -0.08 -0.98    -0.776    29.870
ATOM     37  H   UNL d   1     -10.459   6.178  -7.190 +0.03 +0.24    +0.167    29.870
ATOM     38  C   UNL d   1      -7.223   6.307  -8.826 -0.21 +0.01    +0.052    29.870
ATOM     39  C   UNL d   1      -8.094   5.167  -9.350 -0.23 +0.04    +0.115    29.870
ATOM     40  C   UNL d   1      -9.248   4.854  -8.430 -0.20 +0.11    +0.139    29.870
ATOM     41  O   UNL d   1      -9.030   4.535  -7.273 -0.44 -0.90    -0.650    29.870
ATOM     42  O   UNL d   1     -10.523   4.970  -8.849 -0.03 -0.72    -0.776    29.870
ATOM     43  H   UNL d   1     -11.172   5.484  -8.354 +0.02 +0.20    +0.167    29.870
ATOM     44  C   UNL d   1     -10.878  15.107 -14.987 -0.03 +0.00    +0.004    29.870
ATOM     45  C   UNL d   1     -10.115  16.194 -14.878 -0.05 +0.00    +0.012    29.870
ATOM     46  C   UNL d   1      -3.698  11.373 -13.751 -0.42 -0.00    +0.004    29.870
ATOM     47  C   UNL d   1      -3.130  10.283 -14.283 -0.40 -0.00    +0.012    29.870
TER
ENDMDL
MODEL       45
USER    Run = 45
USER    Cluster Rank = 16
USER    Number of conformations in this cluster = 4
USER  
USER    RMSD from reference structure       = 33.187 A
USER  
USER    Estimated Free Energy of Binding    =   -5.70 kcal/mol  [=(1)+(2)+(3)-(4)]
USER    Estimated Inhibition Constant, Ki   =   66.89 uM (micromolar)  [Temperature = 298.15 K]
USER    
USER    (1) Final Intermolecular Energy     =   -8.68 kcal/mol
USER        vdW + Hbond + desolv Energy     =   -6.03 kcal/mol
USER        Electrostatic Energy            =   -2.65 kcal/mol
USER    (2) Final Total Internal Energy     =   -0.67 kcal/mol
USER    (3) Torsional Free Energy           =   +2.98 kcal/mol
USER    (4) Unbound System's Energy  [=(2)] =   -0.67 kcal/mol
USER    
USER    
USER  
USER    DPF = D:/Protein_go_brrr/autodock/final/mut_K82N/heme_O2/dock.dpf
USER    NEWDPF move	heme_O2_opt.pdbqt
USER    NEWDPF about	8.287000 34.468000 -0.670000
USER    NEWDPF tran0	13.006820 4.711629 20.047973
USER    NEWDPF axisangle0	0.634852 -0.400032 -0.661012 -169.656865
USER    NEWDPF quaternion0	0.632268 -0.398404 -0.658321 -0.090138
USER    NEWDPF dihe0	6.58 63.82 -50.71 -119.65 -133.92 81.41 -105.91 -60.30 -180.00 147.05 
USER  
USER                              x       y       z    vdW   Elec        q     RMS 
ATOM      1  C   UNL d   1      13.843   5.146  21.948 -0.07 +0.03    +0.064    33.187
ATOM      2  C   UNL d   1      11.324   7.754  18.880 -0.02 +0.00    +0.064    33.187
ATOM      3  C   UNL d   1      11.108   4.078  15.792 -0.25 -0.01    +0.064    33.187
ATOM      4  C   UNL d   1      13.287   1.238  19.146 -0.15 +0.01    +0.064    33.187
ATOM      5  C   UNL d   1      13.174   6.155  21.366 -0.05 +0.02    +0.066    33.187
ATOM      6  C   UNL d   1      13.023   7.424  21.933 -0.03 -0.00    -0.021    33.187
ATOM      7  C   UNL d   1      12.258   8.166  21.065 -0.01 -0.00    -0.025    33.187
ATOM      8  C   UNL d   1      12.002   7.346  19.970 -0.02 +0.01    +0.066    33.187
ATOM      9  C   UNL d   1      11.787   9.582  21.320 -0.00 +0.00    +0.051    33.187
ATOM     10  C   UNL d   1      11.045   6.946  17.691 -0.06 +0.00    +0.066    33.187
ATOM     11  C   UNL d   1      10.481   7.467  16.522 -0.11 +0.00    -0.021    33.187
ATOM     12  C   UNL d   1      10.427   6.427  15.613 -0.21 -0.00    +0.000    33.187
ATOM     13  C   UNL d   1      10.962   5.301  16.299 -0.16 -0.00    +0.070    33.187
ATOM     14  C   UNL d   1      10.038   8.904  16.272 -0.12 -0.00    +0.052    33.187
ATOM     15  C   UNL d   1      11.612   2.904  16.464 -0.18 -0.01    +0.066    33.187
ATOM     16  C   UNL d   1      11.586   1.616  15.931 -0.23 +0.00    -0.021    33.187
ATOM     17  C   UNL d   1      12.202   0.789  16.871 -0.30 -0.00    +0.000    33.187
ATOM     18  C   UNL d   1      12.563   1.646  17.919 -0.20 -0.00    +0.070    33.187
ATOM     19  C   UNL d   1      10.935   1.284  14.612 -0.38 -0.02    +0.052    33.187
ATOM     20  C   UNL d   1      13.610   2.026  20.190 -0.12 +0.01    +0.066    33.187
ATOM     21  C   UNL d   1      14.309   1.587  21.311 -0.10 -0.01    -0.025    33.187
ATOM     22  C   UNL d   1      14.500   2.694  22.108 -0.09 -0.01    -0.021    33.187
ATOM     23  C   UNL d   1      13.893   3.767  21.449 -0.08 +0.03    +0.066    33.187
ATOM     24  C   UNL d   1      14.767   0.183  21.609 -0.07 +0.01    +0.051    33.187
ATOM     25  N   UNL d   1      12.512   6.086  20.186 -0.03 -0.05    -0.248    33.187
ATOM     26  N   UNL d   1      11.331   5.625  17.565 -0.06 -0.01    -0.248    33.187
ATOM     27  N   UNL d   1      12.130   2.912  17.689 -0.13 -0.00    -0.248    33.187
ATOM     28  N   UNL d   1      13.314   3.347  20.305 -0.09 -0.07    -0.248    33.187
ATOM     29 FE   UNL d   1      12.329   4.475  18.943 -0.02 +0.00    +0.000    33.187
ATOM     30  O   UNL d   1      10.993   4.903  19.618 -0.23 +0.00    +0.000    33.187
ATOM     31  O   UNL d   1      11.330   3.373  19.454 -0.26 +0.00    +0.000    33.187
ATOM     32  C   UNL d   1      13.463   7.883  23.299 -0.02 +0.01    +0.052    33.187
ATOM     33  C   UNL d   1      12.346   7.814  24.335 -0.03 +0.04    +0.115    33.187
ATOM     34  C   UNL d   1      12.010   6.396  24.725 -0.03 +0.13    +0.139    33.187
ATOM     35  O   UNL d   1      12.762   5.779  25.463 -0.50 -0.90    -0.650    33.187
ATOM     36  O   UNL d   1      10.907   5.779  24.254 +0.30 -1.05    -0.776    33.187
ATOM     37  H   UNL d   1      10.346   6.180  23.580 +0.01 +0.13    +0.167    33.187
ATOM     38  C   UNL d   1      15.173   2.699  23.456 -0.07 +0.02    +0.052    33.187
ATOM     39  C   UNL d   1      14.194   2.979  24.594 +0.00 +0.11    +0.115    33.187
ATOM     40  C   UNL d   1      14.109   1.836  25.575 -0.05 +0.12    +0.139    33.187
ATOM     41  O   UNL d   1      13.017   1.445  25.956 -0.29 -0.96    -0.650    33.187
ATOM     42  O   UNL d   1      15.218   1.203  26.003 +0.01 -0.30    -0.776    33.187
ATOM     43  H   UNL d   1      15.875   1.649  26.551 +0.01 +0.05    +0.167    33.187
ATOM     44  C   UNL d   1       9.878   6.609  14.214 -0.32 -0.00    +0.004    33.187
ATOM     45  C   UNL d   1      10.478   6.334  13.056 -0.32 -0.00    +0.012    33.187
ATOM     46  C   UNL d   1      12.417  -0.701  16.885 -0.44 -0.00    +0.004    33.187
ATOM     47  C   UNL d   1      12.079  -1.578  17.839 -0.44 -0.00    +0.012    33.187
TER
ENDMDL
MODEL       62
USER    Run = 62
USER    Cluster Rank = 17
USER    Number of conformations in this cluster = 1
USER  
USER    RMSD from reference structure       = 44.881 A
USER  
USER    Estimated Free Energy of Binding    =   -5.69 kcal/mol  [=(1)+(2)+(3)-(4)]
USER    Estimated Inhibition Constant, Ki   =   67.25 uM (micromolar)  [Temperature = 298.15 K]
USER    
USER    (1) Final Intermolecular Energy     =   -8.68 kcal/mol
USER        vdW + Hbond + desolv Energy     =   -6.18 kcal/mol
USER        Electrostatic Energy            =   -2.50 kcal/mol
USER    (2) Final Total Internal Energy     =   -1.13 kcal/mol
USER    (3) Torsional Free Energy           =   +2.98 kcal/mol
USER    (4) Unbound System's Energy  [=(2)] =   -1.13 kcal/mol
USER    
USER    
USER  
USER    DPF = D:/Protein_go_brrr/autodock/final/mut_K82N/heme_O2/dock.dpf
USER    NEWDPF move	heme_O2_opt.pdbqt
USER    NEWDPF about	8.287000 34.468000 -0.670000
USER    NEWDPF tran0	7.598766 -11.895299 -8.025379
USER    NEWDPF axisangle0	0.105101 -0.751140 -0.651722 81.480233
USER    NEWDPF quaternion0	0.068592 -0.490216 -0.425333 0.757678
USER    NEWDPF dihe0	64.89 -77.23 42.05 -94.59 -149.08 81.46 64.57 76.83 -3.66 180.00 
USER  
USER                              x       y       z    vdW   Elec        q     RMS 
ATOM      1  C   UNL d   1       6.328 -13.013  -6.747 -0.09 +0.02    +0.064    44.881
ATOM      2  C   UNL d   1      10.992 -12.118  -6.651 -0.01 +0.00    +0.064    44.881
ATOM      3  C   UNL d   1      10.678  -9.562 -10.708 -0.01 -0.01    +0.064    44.881
ATOM      4  C   UNL d   1       5.801 -10.075 -10.558 -0.20 -0.00    +0.064    44.881
ATOM      5  C   UNL d   1       7.622 -12.977  -6.389 -0.07 +0.01    +0.066    44.881
ATOM      6  C   UNL d   1       8.142 -13.625  -5.265 -0.05 -0.00    -0.021    44.881
ATOM      7  C   UNL d   1       9.484 -13.331  -5.212 -0.02 -0.00    -0.025    44.881
ATOM      8  C   UNL d   1       9.757 -12.551  -6.332 -0.03 +0.00    +0.066    44.881
ATOM      9  C   UNL d   1      10.423 -13.769  -4.110 -0.00 +0.00    +0.051    44.881
ATOM     10  C   UNL d   1      11.343 -11.316  -7.824 -0.01 -0.00    +0.066    44.881
ATOM     11  C   UNL d   1      12.662 -11.033  -8.196 +0.00 +0.00    -0.021    44.881
ATOM     12  C   UNL d   1      12.593 -10.312  -9.373 +0.00 -0.00    +0.000    44.881
ATOM     13  C   UNL d   1      11.204 -10.183  -9.653 -0.00 -0.00    +0.070    44.881
ATOM     14  C   UNL d   1      13.935 -11.456  -7.473 +0.00 -0.00    +0.052    44.881
ATOM     15  C   UNL d   1       9.278  -9.379 -11.009 -0.02 -0.01    +0.066    44.881
ATOM     16  C   UNL d   1       8.789  -8.578 -12.041 -0.05 +0.00    -0.021    44.881
ATOM     17  C   UNL d   1       7.401  -8.708 -12.017 -0.13 -0.00    +0.000    44.881
ATOM     18  C   UNL d   1       7.143  -9.592 -10.960 -0.10 -0.01    +0.070    44.881
ATOM     19  C   UNL d   1       9.678  -7.727 -12.913 -0.03 -0.01    +0.052    44.881
ATOM     20  C   UNL d   1       5.515 -10.888  -9.523 -0.18 +0.00    +0.066    44.881
ATOM     21  C   UNL d   1       4.232 -11.324  -9.204 -0.26 -0.00    -0.025    44.881
ATOM     22  C   UNL d   1       4.366 -12.183  -8.137 -0.21 -0.00    -0.021    44.881
ATOM     23  C   UNL d   1       5.730 -12.226  -7.831 -0.12 +0.01    +0.066    44.881
ATOM     24  C   UNL d   1       2.943 -10.936  -9.881 -0.34 -0.00    +0.051    44.881
ATOM     25  N   UNL d   1       8.597 -12.279  -7.021 -0.05 -0.01    -0.248    44.881
ATOM     26  N   UNL d   1      10.451 -10.793  -8.703 -0.01 +0.01    -0.248    44.881
ATOM     27  N   UNL d   1       8.288  -9.929 -10.312 -0.03 +0.02    -0.248    44.881
ATOM     28  N   UNL d   1       6.419 -11.402  -8.647 -0.10 -0.01    -0.248    44.881
ATOM     29 FE   UNL d   1       8.420 -11.098  -8.677 -0.01 -0.00    +0.000    44.881
ATOM     30  O   UNL d   1       8.759 -10.311  -7.378 -0.16 -0.00    +0.000    44.881
ATOM     31  O   UNL d   1       7.735  -9.707  -8.412 -0.05 -0.00    +0.000    44.881
ATOM     32  C   UNL d   1       7.385 -14.380  -4.202 -0.11 +0.01    +0.052    44.881
ATOM     33  C   UNL d   1       7.018 -15.798  -4.630 -0.09 +0.04    +0.115    44.881
ATOM     34  C   UNL d   1       5.526 -16.014  -4.684 -0.12 +0.12    +0.139    44.881
ATOM     35  O   UNL d   1       4.844 -15.332  -5.431 -0.32 -0.84    -0.650    44.881
ATOM     36  O   UNL d   1       4.920 -16.931  -3.901 -0.41 -0.87    -0.776    44.881
ATOM     37  H   UNL d   1       4.900 -16.849  -2.940 -0.45 +0.13    +0.167    44.881
ATOM     38  C   UNL d   1       3.236 -12.871  -7.416 -0.30 +0.02    +0.052    44.881
ATOM     39  C   UNL d   1       2.511 -11.939  -6.447 -0.38 +0.05    +0.115    44.881
ATOM     40  C   UNL d   1       2.875 -12.208  -5.008 -0.40 +0.13    +0.139    44.881
ATOM     41  O   UNL d   1       1.997 -12.276  -4.163 -0.56 -0.75    -0.650    44.881
ATOM     42  O   UNL d   1       4.153 -12.426  -4.643 -0.20 -0.71    -0.776    44.881
ATOM     43  H   UNL d   1       4.598 -13.260  -4.835 +0.06 +0.18    +0.167    44.881
ATOM     44  C   UNL d   1      13.834  -9.827 -10.093 +0.00 -0.00    +0.004    44.881
ATOM     45  C   UNL d   1      14.010  -8.672 -10.734 +0.00 -0.00    +0.012    44.881
ATOM     46  C   UNL d   1       6.332  -8.045 -12.844 -0.17 -0.00    +0.004    44.881
ATOM     47  C   UNL d   1       5.540  -7.019 -12.507 -0.36 -0.00    +0.012    44.881
TER
ENDMDL
MODEL       58
USER    Run = 58
USER    Cluster Rank = 18
USER    Number of conformations in this cluster = 1
USER  
USER    RMSD from reference structure       = 32.237 A
USER  
USER    Estimated Free Energy of Binding    =   -5.62 kcal/mol  [=(1)+(2)+(3)-(4)]
USER    Estimated Inhibition Constant, Ki   =   75.45 uM (micromolar)  [Temperature = 298.15 K]
USER    
USER    (1) Final Intermolecular Energy     =   -8.61 kcal/mol
USER        vdW + Hbond + desolv Energy     =   -5.75 kcal/mol
USER        Electrostatic Energy            =   -2.86 kcal/mol
USER    (2) Final Total Internal Energy     =   -1.67 kcal/mol
USER    (3) Torsional Free Energy           =   +2.98 kcal/mol
USER    (4) Unbound System's Energy  [=(2)] =   -1.67 kcal/mol
USER    
USER    
USER  
USER    DPF = D:/Protein_go_brrr/autodock/final/mut_K82N/heme_O2/dock.dpf
USER    NEWDPF move	heme_O2_opt.pdbqt
USER    NEWDPF about	8.287000 34.468000 -0.670000
USER    NEWDPF tran0	-12.803008 6.842349 -7.304068
USER    NEWDPF axisangle0	0.771681 0.279747 0.571183 -124.593693
USER    NEWDPF quaternion0	0.683222 0.247679 0.505707 -0.464891
USER    NEWDPF dihe0	-41.48 -69.37 126.00 40.64 48.14 -44.34 -144.01 -176.11 168.16 167.52 
USER  
USER                              x       y       z    vdW   Elec        q     RMS 
ATOM      1  C   UNL d   1     -14.303   5.370  -7.587 -0.05 +0.05    +0.064    32.237
ATOM      2  C   UNL d   1     -10.099   6.108  -9.670 -0.09 +0.03    +0.064    32.237
ATOM      3  C   UNL d   1      -9.339  10.006  -6.965 -0.25 +0.02    +0.064    32.237
ATOM      4  C   UNL d   1     -13.445   8.984  -4.482 -0.04 +0.02    +0.064    32.237
ATOM      5  C   UNL d   1     -13.221   5.252  -8.373 -0.05 +0.06    +0.066    32.237
ATOM      6  C   UNL d   1     -13.057   4.249  -9.334 -0.07 -0.01    -0.021    32.237
ATOM      7  C   UNL d   1     -11.821   4.436  -9.907 -0.11 -0.01    -0.025    32.237
ATOM      8  C   UNL d   1     -11.285   5.576  -9.315 -0.08 +0.04    +0.066    32.237
ATOM      9  C   UNL d   1     -11.203   3.528 -10.948 -0.08 +0.02    +0.051    32.237
ATOM     10  C   UNL d   1      -9.495   7.314  -9.102 -0.09 +0.02    +0.066    32.237
ATOM     11  C   UNL d   1      -8.342   7.914  -9.619 -0.15 -0.00    -0.021    32.237
ATOM     12  C   UNL d   1      -8.117   9.050  -8.863 -0.24 +0.00    +0.000    32.237
ATOM     13  C   UNL d   1      -9.162   9.072  -7.899 -0.19 +0.02    +0.070    32.237
ATOM     14  C   UNL d   1      -7.505   7.439 -10.801 -0.17 +0.00    +0.052    32.237
ATOM     15  C   UNL d   1     -10.363  10.046  -5.949 -0.20 +0.02    +0.066    32.237
ATOM     16  C   UNL d   1     -10.398  10.962  -4.898 -0.32 -0.01    -0.021    32.237
ATOM     17  C   UNL d   1     -11.560  10.689  -4.176 -0.20 +0.00    +0.000    32.237
ATOM     18  C   UNL d   1     -12.155   9.615  -4.851 -0.08 +0.02    +0.070    32.237
ATOM     19  C   UNL d   1      -9.304  11.969  -4.647 -0.37 +0.01    +0.052    32.237
ATOM     20  C   UNL d   1     -14.023   7.924  -5.081 -0.03 +0.03    +0.066    32.237
ATOM     21  C   UNL d   1     -15.248   7.385  -4.700 -0.02 -0.01    -0.025    32.237
ATOM     22  C   UNL d   1     -15.522   6.372  -5.591 -0.02 -0.01    -0.021    32.237
ATOM     23  C   UNL d   1     -14.440   6.318  -6.475 -0.05 +0.04    +0.066    32.237
ATOM     24  C   UNL d   1     -16.112   7.813  -3.543 -0.01 +0.01    +0.051    32.237
ATOM     25  N   UNL d   1     -12.119   6.040  -8.325 -0.05 -0.23    -0.248    32.237
ATOM     26  N   UNL d   1      -9.994   8.010  -8.048 -0.07 -0.10    -0.248    32.237
ATOM     27  N   UNL d   1     -11.378   9.189  -5.879 -0.05 -0.09    -0.248    32.237
ATOM     28  N   UNL d   1     -13.510   7.234  -6.134 -0.04 -0.17    -0.248    32.237
ATOM     29 FE   UNL d   1     -11.764   7.621  -7.082 -0.02 +0.00    +0.000    32.237
ATOM     30  O   UNL d   1     -10.844   6.394  -6.817 -0.38 +0.00    +0.000    32.237
ATOM     31  O   UNL d   1     -11.418   7.217  -5.602 -0.27 +0.00    +0.000    32.237
ATOM     32  C   UNL d   1     -13.964   3.077  -9.609 -0.05 +0.02    +0.052    32.237
ATOM     33  C   UNL d   1     -13.374   1.750  -9.144 -0.08 +0.06    +0.115    32.237
ATOM     34  C   UNL d   1     -12.539   1.897  -7.896 +0.18 +0.17    +0.139    32.237
ATOM     35  O   UNL d   1     -11.321   1.894  -7.981 -0.36 -0.85    -0.650    32.237
ATOM     36  O   UNL d   1     -13.108   2.005  -6.677 -0.26 -1.30    -0.776    32.237
ATOM     37  H   UNL d   1     -13.895   2.541  -6.527 +0.00 +0.21    +0.167    32.237
ATOM     38  C   UNL d   1     -16.726   5.467  -5.550 -0.01 +0.01    +0.052    32.237
ATOM     39  C   UNL d   1     -16.478   4.205  -4.726 -0.02 +0.03    +0.115    32.237
ATOM     40  C   UNL d   1     -15.109   4.190  -4.092 -0.08 +0.08    +0.139    32.237
ATOM     41  O   UNL d   1     -14.982   4.492  -2.917 -0.01 -0.26    -0.650    32.237
ATOM     42  O   UNL d   1     -14.025   3.799  -4.789 +0.09 -1.02    -0.776    32.237
ATOM     43  H   UNL d   1     -13.918   2.888  -5.087 +0.00 +0.21    +0.167    32.237
ATOM     44  C   UNL d   1      -6.949   9.975  -9.132 -0.36 +0.00    +0.004    32.237
ATOM     45  C   UNL d   1      -5.650   9.677  -9.130 -0.50 -0.00    +0.012    32.237
ATOM     46  C   UNL d   1     -12.105  11.300  -2.912 -0.21 +0.00    +0.004    32.237
ATOM     47  C   UNL d   1     -12.008  12.570  -2.497 -0.26 +0.00    +0.012    32.237
TER
ENDMDL
MODEL       35
USER    Run = 35
USER    Cluster Rank = 19
USER    Number of conformations in this cluster = 2
USER  
USER    RMSD from reference structure       = 29.714 A
USER  
USER    Estimated Free Energy of Binding    =   -5.43 kcal/mol  [=(1)+(2)+(3)-(4)]
USER    Estimated Inhibition Constant, Ki   =  103.80 uM (micromolar)  [Temperature = 298.15 K]
USER    
USER    (1) Final Intermolecular Energy     =   -8.42 kcal/mol
USER        vdW + Hbond + desolv Energy     =   -7.85 kcal/mol
USER        Electrostatic Energy            =   -0.57 kcal/mol
USER    (2) Final Total Internal Energy     =   -0.67 kcal/mol
USER    (3) Torsional Free Energy           =   +2.98 kcal/mol
USER    (4) Unbound System's Energy  [=(2)] =   -0.67 kcal/mol
USER    
USER    
USER  
USER    DPF = D:/Protein_go_brrr/autodock/final/mut_K82N/heme_O2/dock.dpf
USER    NEWDPF move	heme_O2_opt.pdbqt
USER    NEWDPF about	8.287000 34.468000 -0.670000
USER    NEWDPF tran0	11.819565 5.047480 13.773389
USER    NEWDPF axisangle0	-0.336278 0.757309 -0.559821 107.326225
USER    NEWDPF quaternion0	-0.270888 0.610048 -0.450962 0.592532
USER    NEWDPF dihe0	-74.82 39.15 138.68 -105.27 -112.65 -68.18 83.66 -48.25 -175.18 176.89 
USER  
USER                              x       y       z    vdW   Elec        q     RMS 
ATOM      1  C   UNL d   1      11.964   5.632  11.739 -0.12 -0.00    +0.064    29.714
ATOM      2  C   UNL d   1      12.371   1.424  13.905 -0.20 -0.01    +0.064    29.714
ATOM      3  C   UNL d   1      11.635   3.458  18.196 -0.20 +0.01    +0.064    29.714
ATOM      4  C   UNL d   1      10.740   7.717  15.934 -0.09 -0.00    +0.064    29.714
ATOM      5  C   UNL d   1      12.133   4.321  11.978 -0.11 -0.00    +0.066    29.714
ATOM      6  C   UNL d   1      12.399   3.373  10.986 -0.14 +0.00    -0.021    29.714
ATOM      7  C   UNL d   1      12.474   2.148  11.607 -0.19 +0.00    -0.025    29.714
ATOM      8  C   UNL d   1      12.300   2.388  12.967 -0.16 -0.01    +0.066    29.714
ATOM      9  C   UNL d   1      12.674   0.828  10.895 +0.06 -0.01    +0.051    29.714
ATOM     10  C   UNL d   1      12.220   1.619  15.348 -0.21 -0.01    +0.066    29.714
ATOM     11  C   UNL d   1      12.465   0.614  16.289 -0.28 +0.00    -0.021    29.714
ATOM     12  C   UNL d   1      12.276   1.185  17.534 -0.27 -0.00    +0.000    29.714
ATOM     13  C   UNL d   1      11.905   2.534  17.274 -0.19 -0.00    +0.070    29.714
ATOM     14  C   UNL d   1      12.889  -0.825  16.015 -0.35 -0.01    +0.052    29.714
ATOM     15  C   UNL d   1      11.223   4.823  17.975 -0.15 +0.01    +0.066    29.714
ATOM     16  C   UNL d   1      10.795   5.693  18.978 -0.14 -0.00    -0.021    29.714
ATOM     17  C   UNL d   1      10.534   6.913  18.356 -0.08 +0.00    +0.000    29.714
ATOM     18  C   UNL d   1      10.827   6.694  17.002 -0.09 -0.00    +0.070    29.714
ATOM     19  C   UNL d   1      10.624   5.270  20.415 -0.20 +0.02    +0.052    29.714
ATOM     20  C   UNL d   1      10.972   7.530  14.620 -0.13 -0.00    +0.066    29.714
ATOM     21  C   UNL d   1      10.891   8.537  13.662 -0.13 -0.00    -0.025    29.714
ATOM     22  C   UNL d   1      11.263   7.967  12.465 -0.13 -0.00    -0.021    29.714
ATOM     23  C   UNL d   1      11.541   6.624  12.735 -0.13 -0.00    +0.066    29.714
ATOM     24  C   UNL d   1      10.476   9.970  13.877 -0.10 +0.00    +0.051    29.714
ATOM     25  N   UNL d   1      12.025   3.718  13.187 -0.09 +0.02    -0.248    29.714
ATOM     26  N   UNL d   1      11.869   2.788  15.942 -0.12 +0.03    -0.248    29.714
ATOM     27  N   UNL d   1      11.171   5.401  16.778 -0.08 +0.00    -0.248    29.714
ATOM     28  N   UNL d   1      11.319   6.352  14.037 -0.08 +0.01    -0.248    29.714
ATOM     29 FE   UNL d   1      11.591   4.584  14.985 -0.04 -0.00    +0.000    29.714
ATOM     30  O   UNL d   1      10.476   3.633  14.460 -0.41 -0.00    +0.000    29.714
ATOM     31  O   UNL d   1      10.081   4.987  15.163 -0.33 -0.00    +0.000    29.714
ATOM     32  C   UNL d   1      12.445   3.585   9.495 -0.19 -0.00    +0.052    29.714
ATOM     33  C   UNL d   1      11.097   3.346   8.821 -0.32 -0.00    +0.115    29.714
ATOM     34  C   UNL d   1      10.998   1.973   8.204 -0.42 -0.01    +0.139    29.714
ATOM     35  O   UNL d   1      10.463   1.069   8.826 -0.14 +0.05    -0.650    29.714
ATOM     36  O   UNL d   1      11.514   1.711   6.985 +0.02 +0.00    -0.776    29.714
ATOM     37  H   UNL d   1      11.091   2.017   6.175 -0.03 -0.01    +0.167    29.714
ATOM     38  C   UNL d   1      11.286   8.665  11.130 -0.11 +0.00    +0.052    29.714
ATOM     39  C   UNL d   1       9.903   8.731  10.484 -0.24 +0.02    +0.115    29.714
ATOM     40  C   UNL d   1       9.555  10.120  10.010 -0.21 +0.05    +0.139    29.714
ATOM     41  O   UNL d   1      10.053  10.552   8.983 -0.28 -0.40    -0.650    29.714
ATOM     42  O   UNL d   1       8.660  10.878  10.673 -0.31 -0.32    -0.776    29.714
ATOM     43  H   UNL d   1       8.649  10.918  11.637 +0.03 +0.01    +0.167    29.714
ATOM     44  C   UNL d   1      12.461   0.401  18.816 -0.32 +0.00    +0.004    29.714
ATOM     45  C   UNL d   1      12.010  -0.821  19.100 -0.34 +0.00    +0.012    29.714
ATOM     46  C   UNL d   1       9.993   8.206  18.905 -0.05 +0.00    +0.004    29.714
ATOM     47  C   UNL d   1       8.811   8.784  18.653 -0.06 -0.00    +0.012    29.714
TER
ENDMDL
MODEL       54
USER    Run = 54
USER    Cluster Rank = 20
USER    Number of conformations in this cluster = 1
USER  
USER    RMSD from reference structure       = 32.173 A
USER  
USER    Estimated Free Energy of Binding    =   -5.43 kcal/mol  [=(1)+(2)+(3)-(4)]
USER    Estimated Inhibition Constant, Ki   =  105.36 uM (micromolar)  [Temperature = 298.15 K]
USER    
USER    (1) Final Intermolecular Energy     =   -8.41 kcal/mol
USER        vdW + Hbond + desolv Energy     =   -6.45 kcal/mol
USER        Electrostatic Energy            =   -1.96 kcal/mol
USER    (2) Final Total Internal Energy     =   -2.30 kcal/mol
USER    (3) Torsional Free Energy           =   +2.98 kcal/mol
USER    (4) Unbound System's Energy  [=(2)] =   -2.30 kcal/mol
USER    
USER    
USER  
USER    DPF = D:/Protein_go_brrr/autodock/final/mut_K82N/heme_O2/dock.dpf
USER    NEWDPF move	heme_O2_opt.pdbqt
USER    NEWDPF about	8.287000 34.468000 -0.670000
USER    NEWDPF tran0	-9.448362 6.637643 -10.901785
USER    NEWDPF axisangle0	-0.674037 0.491386 0.551555 -112.572402
USER    NEWDPF quaternion0	-0.560678 0.408745 0.458795 -0.555045
USER    NEWDPF dihe0	-179.59 127.91 132.95 42.10 -119.96 24.82 -71.95 57.20 -172.09 -172.97 
USER  
USER                              x       y       z    vdW   Elec        q     RMS 
ATOM      1  C   UNL d   1     -10.440   5.714  -9.270 -0.11 +0.04    +0.064    32.173
ATOM      2  C   UNL d   1      -7.739   9.607  -9.595 -0.22 +0.01    +0.064    32.173
ATOM      3  C   UNL d   1      -7.079   8.868 -14.298 -0.12 -0.00    +0.064    32.173
ATOM      4  C   UNL d   1     -10.246   5.129 -14.072 -0.21 +0.02    +0.064    32.173
ATOM      5  C   UNL d   1      -9.761   6.835  -8.975 -0.10 +0.03    +0.066    32.173
ATOM      6  C   UNL d   1      -9.677   7.385  -7.693 -0.16 -0.01    -0.021    32.173
ATOM      7  C   UNL d   1      -8.931   8.535  -7.794 -0.21 -0.01    -0.025    32.173
ATOM      8  C   UNL d   1      -8.539   8.631  -9.126 -0.15 +0.01    +0.066    32.173
ATOM      9  C   UNL d   1      -8.652   9.489  -6.653 -0.21 +0.01    +0.051    32.173
ATOM     10  C   UNL d   1      -7.276   9.747 -10.977 -0.20 +0.00    +0.066    32.173
ATOM     11  C   UNL d   1      -6.316  10.684 -11.376 -0.35 +0.00    -0.021    32.173
ATOM     12  C   UNL d   1      -6.099  10.474 -12.725 -0.26 -0.00    +0.000    32.173
ATOM     13  C   UNL d   1      -6.967   9.406 -13.083 -0.12 -0.00    +0.070    32.173
ATOM     14  C   UNL d   1      -5.615  11.716 -10.501 -0.27 -0.01    +0.052    32.173
ATOM     15  C   UNL d   1      -7.970   7.811 -14.709 +0.04 -0.00    +0.066    32.173
ATOM     16  C   UNL d   1      -8.157   7.403 -16.030 -0.17 +0.00    -0.021    32.173
ATOM     17  C   UNL d   1      -9.057   6.339 -15.990 -0.23 +0.00    +0.000    32.173
ATOM     18  C   UNL d   1      -9.354   6.173 -14.630 -0.16 +0.01    +0.070    32.173
ATOM     19  C   UNL d   1      -7.510   8.095 -17.203 -0.13 -0.01    +0.052    32.173
ATOM     20  C   UNL d   1     -10.586   4.969 -12.778 -0.16 +0.02    +0.066    32.173
ATOM     21  C   UNL d   1     -11.418   3.956 -12.309 -0.12 -0.01    -0.025    32.173
ATOM     22  C   UNL d   1     -11.462   4.090 -10.940 -0.13 -0.01    -0.021    32.173
ATOM     23  C   UNL d   1     -10.668   5.197 -10.624 -0.12 +0.02    +0.066    32.173
ATOM     24  C   UNL d   1     -12.136   2.914 -13.127 -0.05 +0.03    +0.051    32.173
ATOM     25  N   UNL d   1      -9.105   7.618  -9.866 -0.04 -0.05    -0.248    32.173
ATOM     26  N   UNL d   1      -7.683   8.973 -12.015 -0.07 -0.00    -0.248    32.173
ATOM     27  N   UNL d   1      -8.744   7.122 -13.875 +0.01 -0.01    -0.248    32.173
ATOM     28  N   UNL d   1     -10.174   5.755 -11.748 -0.09 -0.06    -0.248    32.173
ATOM     29 FE   UNL d   1      -8.938   7.352 -11.884 -0.03 +0.00    +0.000    32.173
ATOM     30  O   UNL d   1      -9.786   8.594 -11.482 -0.06 +0.00    +0.000    32.173
ATOM     31  O   UNL d   1     -10.241   7.695 -12.693 -0.07 +0.00    +0.000    32.173
ATOM     32  C   UNL d   1     -10.383   6.925  -6.443 -0.17 +0.05    +0.052    32.173
ATOM     33  C   UNL d   1     -11.759   7.561  -6.272 -0.12 +0.09    +0.115    32.173
ATOM     34  C   UNL d   1     -12.880   6.596  -6.569 +0.01 +0.16    +0.139    32.173
ATOM     35  O   UNL d   1     -13.328   5.899  -5.673 -0.37 -1.06    -0.650    32.173
ATOM     36  O   UNL d   1     -13.383   6.463  -7.813 -0.01 -0.55    -0.776    32.173
ATOM     37  H   UNL d   1     -14.105   5.856  -8.010 +0.01 +0.10    +0.167    32.173
ATOM     38  C   UNL d   1     -12.277   3.240 -10.000 -0.12 +0.03    +0.052    32.173
ATOM     39  C   UNL d   1     -13.774   3.517 -10.113 -0.04 +0.05    +0.115    32.173
ATOM     40  C   UNL d   1     -14.391   3.904  -8.792 -0.04 +0.08    +0.139    32.173
ATOM     41  O   UNL d   1     -15.530   4.341  -8.760 +0.01 -0.23    -0.650    32.173
ATOM     42  O   UNL d   1     -13.724   3.727  -7.635 -0.05 -0.97    -0.776    32.173
ATOM     43  H   UNL d   1     -13.646   4.435  -6.985 +0.00 +0.28    +0.167    32.173
ATOM     44  C   UNL d   1      -5.108  11.301 -13.517 -0.38 -0.00    +0.004    32.173
ATOM     45  C   UNL d   1      -5.018  12.629 -13.585 -0.46 -0.00    +0.012    32.173
ATOM     46  C   UNL d   1      -9.683   5.532 -17.096 -0.24 +0.00    +0.004    32.173
ATOM     47  C   UNL d   1      -9.137   5.162 -18.262 -0.24 +0.00    +0.012    32.173
TER
ENDMDL
MODEL      100
USER    Run = 100
USER    Cluster Rank = 21
USER    Number of conformations in this cluster = 1
USER  
USER    RMSD from reference structure       = 34.653 A
USER  
USER    Estimated Free Energy of Binding    =   -5.41 kcal/mol  [=(1)+(2)+(3)-(4)]
USER    Estimated Inhibition Constant, Ki   =  108.77 uM (micromolar)  [Temperature = 298.15 K]
USER    
USER    (1) Final Intermolecular Energy     =   -8.39 kcal/mol
USER        vdW + Hbond + desolv Energy     =   -5.05 kcal/mol
USER        Electrostatic Energy            =   -3.34 kcal/mol
USER    (2) Final Total Internal Energy     =   -1.55 kcal/mol
USER    (3) Torsional Free Energy           =   +2.98 kcal/mol
USER    (4) Unbound System's Energy  [=(2)] =   -1.55 kcal/mol
USER    
USER    
USER  
USER    DPF = D:/Protein_go_brrr/autodock/final/mut_K82N/heme_O2/dock.dpf
USER    NEWDPF move	heme_O2_opt.pdbqt
USER    NEWDPF about	8.287000 34.468000 -0.670000
USER    NEWDPF tran0	14.084262 3.344151 21.583003
USER    NEWDPF axisangle0	0.568347 0.790962 -0.226629 -138.629896
USER    NEWDPF quaternion0	0.531709 0.739974 -0.212020 -0.353231
USER    NEWDPF dihe0	105.45 -34.91 -19.22 -104.74 -89.61 145.81 116.60 -135.82 24.02 -20.97 
USER  
USER                              x       y       z    vdW   Elec        q     RMS 
ATOM      1  C   UNL d   1      14.756   2.912  23.548 -0.07 +0.04    +0.064    34.653
ATOM      2  C   UNL d   1      13.087   0.165  20.051 -0.18 +0.01    +0.064    34.653
ATOM      3  C   UNL d   1      12.464   3.994  17.215 -0.13 +0.00    +0.064    34.653
ATOM      4  C   UNL d   1      14.627   6.773  20.631 -0.01 +0.01    +0.064    34.653
ATOM      5  C   UNL d   1      14.355   1.852  22.828 -0.09 +0.03    +0.066    34.653
ATOM      6  C   UNL d   1      14.352   0.538  23.304 -0.09 -0.01    -0.021    34.653
ATOM      7  C   UNL d   1      13.910  -0.264  22.277 -0.10 -0.01    -0.025    34.653
ATOM      8  C   UNL d   1      13.608   0.589  21.219 -0.14 +0.02    +0.066    34.653
ATOM      9  C   UNL d   1      13.822  -1.773  22.334 -0.07 +0.01    +0.051    34.653
ATOM     10  C   UNL d   1      12.729   1.013  18.914 -0.21 +0.01    +0.066    34.653
ATOM     11  C   UNL d   1      12.040   0.544  17.790 -0.32 +0.00    -0.021    34.653
ATOM     12  C   UNL d   1      11.835   1.637  16.969 -0.25 -0.00    +0.000    34.653
ATOM     13  C   UNL d   1      12.435   2.734  17.647 -0.17 +0.00    +0.070    34.653
ATOM     14  C   UNL d   1      11.572  -0.882  17.524 -0.50 -0.01    +0.052    34.653
ATOM     15  C   UNL d   1      13.091   5.126  17.855 -0.04 +0.00    +0.066    34.653
ATOM     16  C   UNL d   1      13.229   6.386  17.274 -0.02 -0.00    -0.021    34.653
ATOM     17  C   UNL d   1      13.844   7.195  18.230 -0.01 +0.00    +0.000    34.653
ATOM     18  C   UNL d   1      14.036   6.357  19.337 -0.01 +0.01    +0.070    34.653
ATOM     19  C   UNL d   1      12.817   6.687  15.855 -0.03 -0.00    +0.052    34.653
ATOM     20  C   UNL d   1      14.864   5.986  21.698 -0.02 +0.01    +0.066    34.653
ATOM     21  C   UNL d   1      15.407   6.439  22.897 -0.01 -0.01    -0.025    34.653
ATOM     22  C   UNL d   1      15.426   5.358  23.749 -0.03 -0.01    -0.021    34.653
ATOM     23  C   UNL d   1      14.909   4.276  23.030 -0.06 +0.03    +0.066    34.653
ATOM     24  C   UNL d   1      15.887   7.832  23.212 +0.00 +0.01    +0.051    34.653
ATOM     25  N   UNL d   1      13.944   1.884  21.536 -0.09 -0.09    -0.248    34.653
ATOM     26  N   UNL d   1      12.980   2.345  18.828 -0.10 -0.02    -0.248    34.653
ATOM     27  N   UNL d   1      13.641   5.087  19.065 -0.02 -0.03    -0.248    34.653
ATOM     28  N   UNL d   1      14.610   4.652  21.769 -0.03 -0.08    -0.248    34.653
ATOM     29 FE   UNL d   1      13.801   3.509  20.307 -0.02 +0.00    +0.000    34.653
ATOM     30  O   UNL d   1      14.906   2.497  19.885 -0.05 +0.00    +0.000    34.653
ATOM     31  O   UNL d   1      15.182   4.045  19.778 -0.03 +0.00    +0.000    34.653
ATOM     32  C   UNL d   1      14.874   0.033  24.624 -0.05 +0.02    +0.052    34.653
ATOM     33  C   UNL d   1      13.761  -0.369  25.586 -0.06 +0.05    +0.115    34.653
ATOM     34  C   UNL d   1      12.921   0.807  26.018 -0.03 +0.15    +0.139    34.653
ATOM     35  O   UNL d   1      11.726   0.818  25.769 -0.42 -1.10    -0.650    34.653
ATOM     36  O   UNL d   1      13.466   1.866  26.651 -0.14 -0.88    -0.776    34.653
ATOM     37  H   UNL d   1      13.603   2.711  26.207 -0.00 +0.24    +0.167    34.653
ATOM     38  C   UNL d   1      15.973   5.356  25.153 -0.02 +0.01    +0.052    34.653
ATOM     39  C   UNL d   1      14.981   5.928  26.164 -0.02 +0.05    +0.115    34.653
ATOM     40  C   UNL d   1      13.575   5.434  25.936 +0.05 +0.15    +0.139    34.653
ATOM     41  O   UNL d   1      12.954   5.804  24.952 -0.42 -0.77    -0.650    34.653
ATOM     42  O   UNL d   1      13.005   4.546  26.773 -0.28 -1.36    -0.776    34.653
ATOM     43  H   UNL d   1      13.526   3.875  27.229 -0.00 +0.19    +0.167    34.653
ATOM     44  C   UNL d   1      11.105   1.523  15.647 -0.32 -0.00    +0.004    34.653
ATOM     45  C   UNL d   1      10.468   2.484  14.978 -0.44 -0.00    +0.012    34.653
ATOM     46  C   UNL d   1      14.303   8.628  18.164 +0.00 +0.00    +0.004    34.653
ATOM     47  C   UNL d   1      15.557   9.098  18.175 +0.00 +0.00    +0.012    34.653
TER
ENDMDL
MODEL        6
USER    Run = 6
USER    Cluster Rank = 22
USER    Number of conformations in this cluster = 1
USER  
USER    RMSD from reference structure       = 32.118 A
USER  
USER    Estimated Free Energy of Binding    =   -5.37 kcal/mol  [=(1)+(2)+(3)-(4)]
USER    Estimated Inhibition Constant, Ki   =  115.72 uM (micromolar)  [Temperature = 298.15 K]
USER    
USER    (1) Final Intermolecular Energy     =   -8.35 kcal/mol
USER        vdW + Hbond + desolv Energy     =   -7.70 kcal/mol
USER        Electrostatic Energy            =   -0.65 kcal/mol
USER    (2) Final Total Internal Energy     =   -0.81 kcal/mol
USER    (3) Torsional Free Energy           =   +2.98 kcal/mol
USER    (4) Unbound System's Energy  [=(2)] =   -0.81 kcal/mol
USER    
USER    
USER  
USER    DPF = D:/Protein_go_brrr/autodock/final/mut_K82N/heme_O2/dock.dpf
USER    NEWDPF move	heme_O2_opt.pdbqt
USER    NEWDPF about	8.287000 34.468000 -0.670000
USER    NEWDPF tran0	11.564190 3.734144 16.894177
USER    NEWDPF axisangle0	-0.177079 0.770158 -0.612781 -87.852298
USER    NEWDPF quaternion0	-0.122845 0.534282 -0.425105 -0.720235
USER    NEWDPF dihe0	48.03 88.32 -93.87 -108.35 57.63 175.41 -134.36 -44.15 3.66 157.95 
USER  
USER                              x       y       z    vdW   Elec        q     RMS 
ATOM      1  C   UNL d   1      11.028   5.713  17.439 -0.11 +0.00    +0.064    32.118
ATOM      2  C   UNL d   1      13.036   2.152  19.857 -0.16 +0.01    +0.064    32.118
ATOM      3  C   UNL d   1      12.790  -0.721  16.013 -0.33 -0.01    +0.064    32.118
ATOM      4  C   UNL d   1      11.162   3.083  13.376 -0.08 -0.01    +0.064    32.118
ATOM      5  C   UNL d   1      11.596   4.979  18.410 -0.13 +0.01    +0.066    32.118
ATOM      6  C   UNL d   1      11.827   5.443  19.708 -0.12 -0.00    -0.021    32.118
ATOM      7  C   UNL d   1      12.448   4.428  20.397 -0.13 -0.01    -0.025    32.118
ATOM      8  C   UNL d   1      12.535   3.354  19.515 -0.16 +0.01    +0.066    32.118
ATOM      9  C   UNL d   1      12.946   4.527  21.822 +0.06 +0.03    +0.051    32.118
ATOM     10  C   UNL d   1      13.132   0.982  18.983 -0.17 +0.01    +0.066    32.118
ATOM     11  C   UNL d   1      13.508  -0.287  19.435 -0.16 -0.00    -0.021    32.118
ATOM     12  C   UNL d   1      13.426  -1.134  18.344 -0.23 +0.00    +0.000    32.118
ATOM     13  C   UNL d   1      13.007  -0.311  17.262 -0.25 -0.00    +0.070    32.118
ATOM     14  C   UNL d   1      13.903  -0.682  20.853 -0.12 +0.01    +0.052    32.118
ATOM     15  C   UNL d   1      12.400   0.086  14.881 -0.24 -0.02    +0.066    32.118
ATOM     16  C   UNL d   1      12.348  -0.371  13.565 -0.36 +0.01    -0.021    32.118
ATOM     17  C   UNL d   1      11.887   0.697  12.795 -0.36 -0.00    +0.000    32.118
ATOM     18  C   UNL d   1      11.688   1.739  13.712 -0.27 -0.01    +0.070    32.118
ATOM     19  C   UNL d   1      12.790  -1.753  13.156 -0.42 -0.02    +0.052    32.118
ATOM     20  C   UNL d   1      11.000   4.118  14.223 -0.21 -0.01    +0.066    32.118
ATOM     21  C   UNL d   1      10.483   5.356  13.852 -0.23 +0.00    -0.025    32.118
ATOM     22  C   UNL d   1      10.412   6.109  15.003 -0.24 +0.00    -0.021    32.118
ATOM     23  C   UNL d   1      10.907   5.306  16.034 -0.17 -0.00    +0.066    32.118
ATOM     24  C   UNL d   1      10.081   5.800  12.469 -0.11 -0.00    +0.051    32.118
ATOM     25  N   UNL d   1      12.070   3.717  18.272 -0.12 -0.02    -0.248    32.118
ATOM     26  N   UNL d   1      12.836   0.976  17.658 -0.12 +0.01    -0.248    32.118
ATOM     27  N   UNL d   1      12.075   1.374  14.961 -0.15 +0.05    -0.248    32.118
ATOM     28  N   UNL d   1      11.305   4.112  15.548 -0.13 +0.02    -0.248    32.118
ATOM     29 FE   UNL d   1      12.065   2.554  16.593 -0.04 -0.00    +0.000    32.118
ATOM     30  O   UNL d   1      13.487   2.990  17.051 -0.09 -0.00    +0.000    32.118
ATOM     31  O   UNL d   1      13.135   2.966  15.516 -0.10 -0.00    +0.000    32.118
ATOM     32  C   UNL d   1      11.600   6.833  20.246 -0.06 +0.01    +0.052    32.118
ATOM     33  C   UNL d   1      10.181   7.042  20.766 -0.06 +0.02    +0.115    32.118
ATOM     34  C   UNL d   1       9.692   5.875  21.587 -0.14 +0.05    +0.139    32.118
ATOM     35  O   UNL d   1       9.054   4.984  21.048 -0.14 -0.26    -0.650    32.118
ATOM     36  O   UNL d   1       9.918   5.804  22.915 +0.01 -0.54    -0.776    32.118
ATOM     37  H   UNL d   1       9.742   6.547  23.503 +0.01 +0.09    +0.167    32.118
ATOM     38  C   UNL d   1       9.954   7.543  15.087 -0.26 -0.00    +0.052    32.118
ATOM     39  C   UNL d   1      11.122   8.524  15.160 -0.08 -0.00    +0.115    32.118
ATOM     40  C   UNL d   1      10.942   9.704  14.239 -0.09 +0.00    +0.139    32.118
ATOM     41  O   UNL d   1      10.474   9.537  13.124 -0.41 -0.07    -0.650    32.118
ATOM     42  O   UNL d   1      11.241  10.954  14.643 +0.02 +0.00    -0.776    32.118
ATOM     43  H   UNL d   1      12.118  11.332  14.507 +0.01 -0.00    +0.167    32.118
ATOM     44  C   UNL d   1      13.753  -2.609  18.445 -0.22 +0.00    +0.004    32.118
ATOM     45  C   UNL d   1      12.968  -3.594  18.880 -0.25 +0.00    +0.012    32.118
ATOM     46  C   UNL d   1      11.682   0.828  11.309 -0.31 -0.00    +0.004    32.118
ATOM     47  C   UNL d   1      12.322   1.635  10.453 -0.29 -0.00    +0.012    32.118
TER
ENDMDL
MODEL       17
USER    Run = 17
USER    Cluster Rank = 23
USER    Number of conformations in this cluster = 1
USER  
USER    RMSD from reference structure       = 36.294 A
USER  
USER    Estimated Free Energy of Binding    =   -5.30 kcal/mol  [=(1)+(2)+(3)-(4)]
USER    Estimated Inhibition Constant, Ki   =  130.18 uM (micromolar)  [Temperature = 298.15 K]
USER    
USER    (1) Final Intermolecular Energy     =   -8.28 kcal/mol
USER        vdW + Hbond + desolv Energy     =   -7.70 kcal/mol
USER        Electrostatic Energy            =   -0.59 kcal/mol
USER    (2) Final Total Internal Energy     =   -0.45 kcal/mol
USER    (3) Torsional Free Energy           =   +2.98 kcal/mol
USER    (4) Unbound System's Energy  [=(2)] =   -0.45 kcal/mol
USER    
USER    
USER  
USER    DPF = D:/Protein_go_brrr/autodock/final/mut_K82N/heme_O2/dock.dpf
USER    NEWDPF move	heme_O2_opt.pdbqt
USER    NEWDPF about	8.287000 34.468000 -0.670000
USER    NEWDPF tran0	14.186994 -3.686307 4.414164
USER    NEWDPF axisangle0	0.004317 0.604107 -0.796892 70.431757
USER    NEWDPF quaternion0	0.002490 0.348364 -0.459535 0.816985
USER    NEWDPF dihe0	-105.00 63.05 21.24 -104.54 23.73 -84.20 48.39 -21.77 159.46 118.12 
USER  
USER                              x       y       z    vdW   Elec        q     RMS 
ATOM      1  C   UNL d   1      13.567  -4.493   2.553 -0.14 +0.00    +0.064    36.294
ATOM      2  C   UNL d   1      13.885  -6.356   6.911 -0.22 +0.01    +0.064    36.294
ATOM      3  C   UNL d   1      15.575  -2.211   8.659 -0.12 -0.00    +0.064    36.294
ATOM      4  C   UNL d   1      14.802  -0.142   4.279 -0.06 +0.00    +0.064    36.294
ATOM      5  C   UNL d   1      13.514  -5.337   3.596 -0.13 +0.00    +0.066    36.294
ATOM      6  C   UNL d   1      13.095  -6.668   3.505 -0.17 -0.00    -0.021    36.294
ATOM      7  C   UNL d   1      13.146  -7.196   4.774 -0.22 -0.00    -0.025    36.294
ATOM      8  C   UNL d   1      13.640  -6.187   5.597 -0.21 +0.01    +0.066    36.294
ATOM      9  C   UNL d   1      12.705  -8.594   5.148 -0.29 +0.00    +0.051    36.294
ATOM     10  C   UNL d   1      14.423  -5.343   7.819 -0.24 +0.00    +0.066    36.294
ATOM     11  C   UNL d   1      14.812  -5.618   9.135 -0.28 +0.00    -0.021    36.294
ATOM     12  C   UNL d   1      15.319  -4.439   9.650 -0.25 -0.00    +0.000    36.294
ATOM     13  C   UNL d   1      15.197  -3.488   8.600 -0.15 -0.00    +0.070    36.294
ATOM     14  C   UNL d   1      14.730  -6.956   9.861 -0.29 -0.00    +0.052    36.294
ATOM     15  C   UNL d   1      15.436  -1.207   7.632 -0.02 +0.00    +0.066    36.294
ATOM     16  C   UNL d   1      15.700   0.150   7.811 -0.06 -0.00    -0.021    36.294
ATOM     17  C   UNL d   1      15.486   0.760   6.576 -0.06 +0.00    +0.000    36.294
ATOM     18  C   UNL d   1      15.104  -0.285   5.723 -0.08 +0.00    +0.070    36.294
ATOM     19  C   UNL d   1      16.076   0.745   9.145 -0.07 -0.00    +0.052    36.294
ATOM     20  C   UNL d   1      14.391  -1.115   3.443 -0.10 +0.00    +0.066    36.294
ATOM     21  C   UNL d   1      14.138  -0.923   2.087 -0.12 -0.00    -0.025    36.294
ATOM     22  C   UNL d   1      13.812  -2.158   1.573 -0.15 -0.00    -0.021    36.294
ATOM     23  C   UNL d   1      13.859  -3.058   2.643 -0.12 +0.00    +0.066    36.294
ATOM     24  C   UNL d   1      14.203   0.373   1.322 -0.11 +0.00    +0.051    36.294
ATOM     25  N   UNL d   1      13.804  -5.023   4.882 -0.12 -0.03    -0.248    36.294
ATOM     26  N   UNL d   1      14.647  -4.045   7.492 -0.13 -0.01    -0.248    36.294
ATOM     27  N   UNL d   1      15.006  -1.458   6.398 -0.07 -0.02    -0.248    36.294
ATOM     28  N   UNL d   1      14.168  -2.411   3.786 -0.09 -0.01    -0.248    36.294
ATOM     29 FE   UNL d   1      14.406  -3.219   5.626 -0.03 +0.00    +0.000    36.294
ATOM     30  O   UNL d   1      12.987  -3.651   6.098 -0.49 +0.00    +0.000    36.294
ATOM     31  O   UNL d   1      13.261  -2.145   5.727 -0.59 +0.00    +0.000    36.294
ATOM     32  C   UNL d   1      12.538  -7.380   2.300 -0.20 +0.00    +0.052    36.294
ATOM     33  C   UNL d   1      11.098  -7.842   2.499 -0.19 +0.01    +0.115    36.294
ATOM     34  C   UNL d   1      10.883  -9.266   2.047 -0.26 +0.01    +0.139    36.294
ATOM     35  O   UNL d   1       9.984  -9.520   1.261 -0.06 -0.05    -0.650    36.294
ATOM     36  O   UNL d   1      11.647 -10.275   2.515 +0.04 -0.11    -0.776    36.294
ATOM     37  H   UNL d   1      12.340 -10.681   1.981 +0.04 +0.02    +0.167    36.294
ATOM     38  C   UNL d   1      13.414  -2.439   0.147 -0.19 +0.01    +0.052    36.294
ATOM     39  C   UNL d   1      12.275  -3.451   0.049 -0.22 +0.00    +0.115    36.294
ATOM     40  C   UNL d   1      11.512  -3.337  -1.247 -0.22 +0.04    +0.139    36.294
ATOM     41  O   UNL d   1      12.091  -3.505  -2.308 -0.45 -0.38    -0.650    36.294
ATOM     42  O   UNL d   1      10.186  -3.102  -1.255 -0.03 -0.06    -0.776    36.294
ATOM     43  H   UNL d   1       9.819  -2.270  -0.933 -0.38 -0.04    +0.167    36.294
ATOM     44  C   UNL d   1      15.854  -4.344  11.064 -0.13 +0.00    +0.004    36.294
ATOM     45  C   UNL d   1      16.078  -3.245  11.782 -0.17 -0.00    +0.012    36.294
ATOM     46  C   UNL d   1      15.553   2.207   6.163 -0.03 +0.00    +0.004    36.294
ATOM     47  C   UNL d   1      14.547   3.012   5.798 -0.06 -0.00    +0.012    36.294
TER
ENDMDL
MODEL       37
USER    Run = 37
USER    Cluster Rank = 24
USER    Number of conformations in this cluster = 3
USER  
USER    RMSD from reference structure       = 21.194 A
USER  
USER    Estimated Free Energy of Binding    =   -5.25 kcal/mol  [=(1)+(2)+(3)-(4)]
USER    Estimated Inhibition Constant, Ki   =  142.43 uM (micromolar)  [Temperature = 298.15 K]
USER    
USER    (1) Final Intermolecular Energy     =   -8.23 kcal/mol
USER        vdW + Hbond + desolv Energy     =   -7.43 kcal/mol
USER        Electrostatic Energy            =   -0.80 kcal/mol
USER    (2) Final Total Internal Energy     =   -0.70 kcal/mol
USER    (3) Torsional Free Energy           =   +2.98 kcal/mol
USER    (4) Unbound System's Energy  [=(2)] =   -0.70 kcal/mol
USER    
USER    
USER  
USER    DPF = D:/Protein_go_brrr/autodock/final/mut_K82N/heme_O2/dock.dpf
USER    NEWDPF move	heme_O2_opt.pdbqt
USER    NEWDPF about	8.287000 34.468000 -0.670000
USER    NEWDPF tran0	13.195581 12.139465 -1.039842
USER    NEWDPF axisangle0	0.421409 0.853484 0.306560 -138.308101
USER    NEWDPF quaternion0	0.393824 0.797616 0.286493 -0.355857
USER    NEWDPF dihe0	118.22 -21.00 -86.25 52.61 -124.52 7.54 -78.82 74.66 0.05 -4.07 
USER  
USER                              x       y       z    vdW   Elec        q     RMS 
ATOM      1  C   UNL d   1      13.633  10.758   0.510 +0.02 -0.00    +0.064    21.194
ATOM      2  C   UNL d   1      14.903  10.958  -4.062 -0.17 -0.01    +0.064    21.194
ATOM      3  C   UNL d   1      12.345  14.976  -4.694 -0.23 -0.01    +0.064    21.194
ATOM      4  C   UNL d   1      11.418  15.046   0.123 -0.26 -0.01    +0.064    21.194
ATOM      5  C   UNL d   1      14.189  10.486  -0.682 -0.15 -0.00    +0.066    21.194
ATOM      6  C   UNL d   1      14.997   9.374  -0.932 -0.13 +0.00    -0.021    21.194
ATOM      7  C   UNL d   1      15.401   9.454  -2.244 -0.12 +0.00    -0.025    21.194
ATOM      8  C   UNL d   1      14.789  10.587  -2.773 -0.17 -0.01    +0.066    21.194
ATOM      9  C   UNL d   1      16.354   8.489  -2.917 -0.07 -0.00    +0.051    21.194
ATOM     10  C   UNL d   1      14.267  12.122  -4.679 -0.20 -0.01    +0.066    21.194
ATOM     11  C   UNL d   1      14.286  12.370  -6.056 -0.20 +0.00    -0.021    21.194
ATOM     12  C   UNL d   1      13.538  13.515  -6.261 -0.24 -0.00    +0.000    21.194
ATOM     13  C   UNL d   1      13.106  13.917  -4.966 -0.23 -0.01    +0.070    21.194
ATOM     14  C   UNL d   1      14.965  11.535  -7.135 -0.14 -0.00    +0.052    21.194
ATOM     15  C   UNL d   1      11.915  15.436  -3.395 -0.26 -0.01    +0.066    21.194
ATOM     16  C   UNL d   1      11.258  16.644  -3.162 -0.21 +0.00    -0.021    21.194
ATOM     17  C   UNL d   1      10.984  16.686  -1.795 -0.19 -0.00    +0.000    21.194
ATOM     18  C   UNL d   1      11.500  15.484  -1.290 -0.21 -0.02    +0.070    21.194
ATOM     19  C   UNL d   1      11.002  17.663  -4.243 -0.17 -0.01    +0.052    21.194
ATOM     20  C   UNL d   1      11.940  13.921   0.648 -0.22 -0.00    +0.066    21.194
ATOM     21  C   UNL d   1      11.815  13.552   1.985 -0.14 +0.00    -0.025    21.194
ATOM     22  C   UNL d   1      12.416  12.320   2.108 -0.11 -0.00    -0.021    21.194
ATOM     23  C   UNL d   1      12.904  11.989   0.840 -0.03 -0.00    +0.066    21.194
ATOM     24  C   UNL d   1      11.158  14.338   3.090 -0.14 +0.00    +0.051    21.194
ATOM     25  N   UNL d   1      14.095  11.258  -1.793 -0.14 +0.03    -0.248    21.194
ATOM     26  N   UNL d   1      13.557  13.066  -4.010 -0.15 +0.06    -0.248    21.194
ATOM     27  N   UNL d   1      12.127  14.773  -2.262 -0.20 +0.06    -0.248    21.194
ATOM     28  N   UNL d   1      12.652  12.985  -0.034 -0.15 +0.02    -0.248    21.194
ATOM     29 FE   UNL d   1      13.100  13.028  -2.008 -0.06 -0.00    +0.000    21.194
ATOM     30  O   UNL d   1      14.648  13.162  -2.099 -0.12 -0.00    +0.000    21.194
ATOM     31  O   UNL d   1      13.813  14.258  -1.335 -0.13 -0.00    +0.000    21.194
ATOM     32  C   UNL d   1      15.487   8.347   0.056 -0.08 -0.00    +0.052    21.194
ATOM     33  C   UNL d   1      14.471   7.238   0.310 -0.13 +0.00    +0.115    21.194
ATOM     34  C   UNL d   1      14.769   5.991  -0.486 -0.09 +0.02    +0.139    21.194
ATOM     35  O   UNL d   1      15.565   5.174  -0.052 +0.01 -0.03    -0.650    21.194
ATOM     36  O   UNL d   1      14.194   5.770  -1.686 -0.55 -0.31    -0.776    21.194
ATOM     37  H   UNL d   1      14.715   5.685  -2.493 +0.04 +0.03    +0.167    21.194
ATOM     38  C   UNL d   1      12.567  11.540   3.388 -0.10 +0.00    +0.052    21.194
ATOM     39  C   UNL d   1      11.489  10.471   3.549 -0.10 +0.01    +0.115    21.194
ATOM     40  C   UNL d   1      10.459  10.843   4.586 -0.16 +0.04    +0.139    21.194
ATOM     41  O   UNL d   1       9.322  10.409   4.494 -0.42 -0.38    -0.650    21.194
ATOM     42  O   UNL d   1      10.784  11.607   5.647 +0.03 -0.28    -0.776    21.194
ATOM     43  H   UNL d   1      11.701  11.725   5.922 +0.02 +0.03    +0.167    21.194
ATOM     44  C   UNL d   1      13.320  14.098  -7.641 -0.23 -0.00    +0.004    21.194
ATOM     45  C   UNL d   1      12.343  13.819  -8.503 -0.29 +0.00    +0.012    21.194
ATOM     46  C   UNL d   1      10.350  17.756  -0.946 -0.24 -0.00    +0.004    21.194
ATOM     47  C   UNL d   1       9.242  18.465  -1.198 -0.23 -0.00    +0.012    21.194
TER
ENDMDL
MODEL       15
USER    Run = 15
USER    Cluster Rank = 25
USER    Number of conformations in this cluster = 5
USER  
USER    RMSD from reference structure       = 26.822 A
USER  
USER    Estimated Free Energy of Binding    =   -5.22 kcal/mol  [=(1)+(2)+(3)-(4)]
USER    Estimated Inhibition Constant, Ki   =  149.77 uM (micromolar)  [Temperature = 298.15 K]
USER    
USER    (1) Final Intermolecular Energy     =   -8.20 kcal/mol
USER        vdW + Hbond + desolv Energy     =   -6.36 kcal/mol
USER        Electrostatic Energy            =   -1.84 kcal/mol
USER    (2) Final Total Internal Energy     =   -2.44 kcal/mol
USER    (3) Torsional Free Energy           =   +2.98 kcal/mol
USER    (4) Unbound System's Energy  [=(2)] =   -2.44 kcal/mol
USER    
USER    
USER  
USER    DPF = D:/Protein_go_brrr/autodock/final/mut_K82N/heme_O2/dock.dpf
USER    NEWDPF move	heme_O2_opt.pdbqt
USER    NEWDPF about	8.287000 34.468000 -0.670000
USER    NEWDPF tran0	-12.156246 13.598441 -9.208991
USER    NEWDPF axisangle0	-0.583748 0.249438 -0.772670 -64.702876
USER    NEWDPF quaternion0	-0.312370 0.133477 -0.413464 -0.844782
USER    NEWDPF dihe0	18.44 -137.35 -77.74 -79.72 85.24 125.88 153.46 121.09 -150.26 -180.00 
USER  
USER                              x       y       z    vdW   Elec        q     RMS 
ATOM      1  C   UNL d   1     -13.337  15.005 -10.270 -0.03 +0.02    +0.064    26.822
ATOM      2  C   UNL d   1     -12.490  14.372  -5.640 -0.10 +0.04    +0.064    26.822
ATOM      3  C   UNL d   1      -9.694  10.577  -6.577 -0.20 +0.02    +0.064    26.822
ATOM      4  C   UNL d   1     -10.173  11.509 -11.369 -0.03 +0.02    +0.064    26.822
ATOM      5  C   UNL d   1     -13.333  15.144  -8.934 -0.07 +0.03    +0.066    26.822
ATOM      6  C   UNL d   1     -14.052  16.126  -8.247 -0.06 -0.01    -0.021    26.822
ATOM      7  C   UNL d   1     -13.773  15.971  -6.909 -0.08 -0.01    -0.025    26.822
ATOM      8  C   UNL d   1     -12.930  14.867  -6.812 -0.07 +0.04    +0.066    26.822
ATOM      9  C   UNL d   1     -14.284  16.874  -5.808 -0.07 +0.02    +0.051    26.822
ATOM     10  C   UNL d   1     -11.623  13.204  -5.474 -0.18 +0.03    +0.066    26.822
ATOM     11  C   UNL d   1     -11.329  12.634  -4.230 -0.26 -0.01    -0.021    26.822
ATOM     12  C   UNL d   1     -10.539  11.528  -4.480 -0.36 +0.00    +0.000    26.822
ATOM     13  C   UNL d   1     -10.381  11.492  -5.893 -0.24 +0.02    +0.070    26.822
ATOM     14  C   UNL d   1     -11.805  13.109  -2.862 -0.30 +0.01    +0.052    26.822
ATOM     15  C   UNL d   1      -9.481  10.525  -8.003 -0.16 +0.01    +0.066    26.822
ATOM     16  C   UNL d   1      -8.617   9.636  -8.642 -0.21 -0.00    -0.021    26.822
ATOM     17  C   UNL d   1      -8.736   9.884 -10.009 -0.16 +0.00    +0.000    26.822
ATOM     18  C   UNL d   1      -9.679  10.918 -10.103 -0.01 +0.02    +0.070    26.822
ATOM     19  C   UNL d   1      -7.723   8.678  -7.895 -0.31 +0.01    +0.052    26.822
ATOM     20  C   UNL d   1     -11.044  12.530 -11.494 -0.07 +0.02    +0.066    26.822
ATOM     21  C   UNL d   1     -11.487  13.033 -12.714 -0.05 -0.00    -0.025    26.822
ATOM     22  C   UNL d   1     -12.409  14.012 -12.420 -0.03 -0.00    -0.021    26.822
ATOM     23  C   UNL d   1     -12.482  14.083 -11.026 -0.04 +0.02    +0.066    26.822
ATOM     24  C   UNL d   1     -11.049  12.604 -14.090 -0.03 +0.00    +0.051    26.822
ATOM     25  N   UNL d   1     -12.607  14.399  -8.065 -0.08 -0.14    -0.248    26.822
ATOM     26  N   UNL d   1     -11.040  12.518  -6.489 -0.14 -0.09    -0.248    26.822
ATOM     27  N   UNL d   1     -10.063  11.345  -8.873 -0.11 -0.07    -0.248    26.822
ATOM     28  N   UNL d   1     -11.617  13.211 -10.467 -0.06 -0.08    -0.248    26.822
ATOM     29 FE   UNL d   1     -11.329  12.865  -8.493 -0.03 +0.00    +0.000    26.822
ATOM     30  O   UNL d   1     -10.623  14.132  -7.928 -0.52 +0.00    +0.000    26.822
ATOM     31  O   UNL d   1      -9.950  13.321  -9.099 -0.32 +0.00    +0.000    26.822
ATOM     32  C   UNL d   1     -14.861  17.255  -8.830 -0.02 +0.02    +0.052    26.822
ATOM     33  C   UNL d   1     -14.004  18.278  -9.570 -0.03 +0.04    +0.115    26.822
ATOM     34  C   UNL d   1     -12.603  18.362  -9.017 +0.06 +0.14    +0.139    26.822
ATOM     35  O   UNL d   1     -12.427  18.777  -7.883 -0.56 -0.97    -0.650    26.822
ATOM     36  O   UNL d   1     -11.532  18.016  -9.760 -0.10 -0.85    -0.776    26.822
ATOM     37  H   UNL d   1     -11.574  17.959 -10.722 +0.03 +0.10    +0.167    26.822
ATOM     38  C   UNL d   1     -13.129  14.871 -13.427 -0.01 +0.01    +0.052    26.822
ATOM     39  C   UNL d   1     -12.250  15.999 -13.963 -0.01 +0.01    +0.115    26.822
ATOM     40  C   UNL d   1     -11.777  16.929 -12.874 -0.03 +0.02    +0.139    26.822
ATOM     41  O   UNL d   1     -12.451  17.901 -12.571 +0.02 -0.11    -0.650    26.822
ATOM     42  O   UNL d   1     -10.645  16.679 -12.188 +0.01 -0.24    -0.776    26.822
ATOM     43  H   UNL d   1     -10.608  16.759 -11.228 +0.01 +0.09    +0.167    26.822
ATOM     44  C   UNL d   1     -10.023  10.640  -3.367 -0.52 +0.00    +0.004    26.822
ATOM     45  C   UNL d   1     -10.530   9.484  -2.940 -0.42 +0.00    +0.012    26.822
ATOM     46  C   UNL d   1      -8.016   9.287 -11.188 -0.17 +0.00    +0.004    26.822
ATOM     47  C   UNL d   1      -6.848   9.665 -11.725 -0.26 -0.00    +0.012    26.822
TER
ENDMDL
MODEL       57
USER    Run = 57
USER    Cluster Rank = 26
USER    Number of conformations in this cluster = 2
USER  
USER    RMSD from reference structure       = 41.291 A
USER  
USER    Estimated Free Energy of Binding    =   -5.17 kcal/mol  [=(1)+(2)+(3)-(4)]
USER    Estimated Inhibition Constant, Ki   =  161.73 uM (micromolar)  [Temperature = 298.15 K]
USER    
USER    (1) Final Intermolecular Energy     =   -8.16 kcal/mol
USER        vdW + Hbond + desolv Energy     =   -5.79 kcal/mol
USER        Electrostatic Energy            =   -2.37 kcal/mol
USER    (2) Final Total Internal Energy     =   -2.01 kcal/mol
USER    (3) Torsional Free Energy           =   +2.98 kcal/mol
USER    (4) Unbound System's Energy  [=(2)] =   -2.01 kcal/mol
USER    
USER    
USER  
USER    DPF = D:/Protein_go_brrr/autodock/final/mut_K82N/heme_O2/dock.dpf
USER    NEWDPF move	heme_O2_opt.pdbqt
USER    NEWDPF about	8.287000 34.468000 -0.670000
USER    NEWDPF tran0	9.094763 -4.131012 23.473392
USER    NEWDPF axisangle0	0.175382 -0.976731 0.123444 131.987680
USER    NEWDPF quaternion0	0.160211 -0.892245 0.112766 0.406835
USER    NEWDPF dihe0	-100.83 66.91 36.12 -7.79 77.49 65.46 -91.08 51.85 179.55 -179.18 
USER  
USER                              x       y       z    vdW   Elec        q     RMS 
ATOM      1  C   UNL d   1       9.523  -2.812  25.079 -0.05 +0.01    +0.064    41.291
ATOM      2  C   UNL d   1      12.152  -6.036  22.787 -0.03 +0.00    +0.064    41.291
ATOM      3  C   UNL d   1       8.429  -7.217  19.987 -0.13 +0.00    +0.064    41.291
ATOM      4  C   UNL d   1       5.851  -3.570  22.016 -0.18 -0.01    +0.064    41.291
ATOM      5  C   UNL d   1      10.542  -3.592  24.683 -0.03 +0.01    +0.066    41.291
ATOM      6  C   UNL d   1      11.812  -3.576  25.266 -0.02 -0.00    -0.021    41.291
ATOM      7  C   UNL d   1      12.587  -4.478  24.575 -0.01 -0.00    -0.025    41.291
ATOM      8  C   UNL d   1      11.755  -5.055  23.620 -0.02 +0.00    +0.066    41.291
ATOM      9  C   UNL d   1      14.058  -4.727  24.827 -0.00 +0.00    +0.051    41.291
ATOM     10  C   UNL d   1      11.319  -6.696  21.780 -0.06 +0.00    +0.066    41.291
ATOM     11  C   UNL d   1      11.732  -7.819  21.055 -0.07 -0.00    -0.021    41.291
ATOM     12  C   UNL d   1      10.666  -8.185  20.255 -0.13 +0.00    +0.000    41.291
ATOM     13  C   UNL d   1       9.644  -7.236  20.534 -0.07 +0.01    +0.070    41.291
ATOM     14  C   UNL d   1      13.078  -8.529  21.142 -0.04 +0.00    +0.052    41.291
ATOM     15  C   UNL d   1       7.379  -6.254  20.217 -0.16 -0.00    +0.066    41.291
ATOM     16  C   UNL d   1       6.190  -6.193  19.491 -0.24 +0.00    -0.021    41.291
ATOM     17  C   UNL d   1       5.439  -5.159  20.051 -0.25 -0.00    +0.000    41.291
ATOM     18  C   UNL d   1       6.237  -4.662  21.092 -0.21 -0.01    +0.070    41.291
ATOM     19  C   UNL d   1       5.903  -7.080  18.306 -0.24 -0.00    +0.052    41.291
ATOM     20  C   UNL d   1       6.608  -3.040  22.996 -0.17 -0.00    +0.066    41.291
ATOM     21  C   UNL d   1       6.184  -2.023  23.847 -0.15 +0.00    -0.025    41.291
ATOM     22  C   UNL d   1       7.208  -1.813  24.744 -0.10 -0.00    -0.021    41.291
ATOM     23  C   UNL d   1       8.230  -2.701  24.394 -0.09 +0.01    +0.066    41.291
ATOM     24  C   UNL d   1       4.870  -1.287  23.804 -0.14 -0.01    +0.051    41.291
ATOM     25  N   UNL d   1      10.514  -4.462  23.643 -0.02 -0.01    -0.248    41.291
ATOM     26  N   UNL d   1      10.052  -6.331  21.460 -0.05 -0.01    -0.248    41.291
ATOM     27  N   UNL d   1       7.441  -5.288  21.129 -0.12 +0.01    -0.248    41.291
ATOM     28  N   UNL d   1       7.879  -3.413  23.303 -0.08 +0.00    -0.248    41.291
ATOM     29 FE   UNL d   1       8.955  -4.862  22.386 -0.03 -0.00    +0.000    41.291
ATOM     30  O   UNL d   1      10.151  -4.144  21.695 -0.20 -0.00    +0.000    41.291
ATOM     31  O   UNL d   1       8.675  -3.737  21.323 -0.25 -0.00    +0.000    41.291
ATOM     32  C   UNL d   1      12.323  -2.653  26.342 -0.02 +0.01    +0.052    41.291
ATOM     33  C   UNL d   1      13.100  -1.465  25.783 -0.04 +0.03    +0.115    41.291
ATOM     34  C   UNL d   1      12.202  -0.307  25.424 -0.10 +0.09    +0.139    41.291
ATOM     35  O   UNL d   1      11.497  -0.376  24.430 -0.01 -0.42    -0.650    41.291
ATOM     36  O   UNL d   1      12.180   0.821  26.164 -0.55 -1.10    -0.776    41.291
ATOM     37  H   UNL d   1      11.485   0.996  26.809 +0.00 +0.25    +0.167    41.291
ATOM     38  C   UNL d   1       7.221  -0.772  25.832 -0.07 +0.01    +0.052    41.291
ATOM     39  C   UNL d   1       7.515   0.628  25.296 -0.11 +0.04    +0.115    41.291
ATOM     40  C   UNL d   1       8.621   1.316  26.056 -0.01 +0.12    +0.139    41.291
ATOM     41  O   UNL d   1       8.621   2.533  26.157 -0.38 -0.90    -0.650    41.291
ATOM     42  O   UNL d   1       9.586   0.608  26.674 -0.06 -0.65    -0.776    41.291
ATOM     43  H   UNL d   1      10.254   0.123  26.175 +0.01 +0.14    +0.167    41.291
ATOM     44  C   UNL d   1      10.732  -9.377  19.323 -0.17 +0.00    +0.004    41.291
ATOM     45  C   UNL d   1      10.121  -9.534  18.149 -0.24 +0.00    +0.012    41.291
ATOM     46  C   UNL d   1       4.103  -4.585  19.662 -0.25 -0.00    +0.004    41.291
ATOM     47  C   UNL d   1       3.428  -4.759  18.518 -0.45 -0.00    +0.012    41.291
TER
ENDMDL
MODEL       87
USER    Run = 87
USER    Cluster Rank = 27
USER    Number of conformations in this cluster = 1
USER  
USER    RMSD from reference structure       = 42.893 A
USER  
USER    Estimated Free Energy of Binding    =   -5.17 kcal/mol  [=(1)+(2)+(3)-(4)]
USER    Estimated Inhibition Constant, Ki   =  163.42 uM (micromolar)  [Temperature = 298.15 K]
USER    
USER    (1) Final Intermolecular Energy     =   -8.15 kcal/mol
USER        vdW + Hbond + desolv Energy     =   -7.16 kcal/mol
USER        Electrostatic Energy            =   -0.99 kcal/mol
USER    (2) Final Total Internal Energy     =   -0.69 kcal/mol
USER    (3) Torsional Free Energy           =   +2.98 kcal/mol
USER    (4) Unbound System's Energy  [=(2)] =   -0.69 kcal/mol
USER    
USER    
USER  
USER    DPF = D:/Protein_go_brrr/autodock/final/mut_K82N/heme_O2/dock.dpf
USER    NEWDPF move	heme_O2_opt.pdbqt
USER    NEWDPF about	8.287000 34.468000 -0.670000
USER    NEWDPF tran0	11.751756 -11.045099 1.681135
USER    NEWDPF axisangle0	0.098757 -0.037736 -0.994396 85.042347
USER    NEWDPF quaternion0	0.066746 -0.025504 -0.672075 0.737028
USER    NEWDPF dihe0	-80.75 48.93 65.75 -62.48 -56.65 123.33 70.39 120.05 -165.94 -162.42 
USER  
USER                              x       y       z    vdW   Elec        q     RMS 
ATOM      1  C   UNL d   1      11.017 -12.945   1.089 -0.11 +0.01    +0.064    42.893
ATOM      2  C   UNL d   1      13.646 -11.532   4.783 -0.08 +0.01    +0.064    42.893
ATOM      3  C   UNL d   1      13.584  -6.992   3.209 -0.14 +0.00    +0.064    42.893
ATOM      4  C   UNL d   1      10.479  -8.349  -0.337 -0.10 +0.00    +0.064    42.893
ATOM      5  C   UNL d   1      11.736 -12.931   2.223 -0.11 +0.02    +0.066    42.893
ATOM      6  C   UNL d   1      12.014 -14.067   2.987 -0.09 -0.01    -0.021    42.893
ATOM      7  C   UNL d   1      12.739 -13.653   4.080 -0.02 -0.01    -0.025    42.893
ATOM      8  C   UNL d   1      12.924 -12.282   3.928 -0.09 +0.02    +0.066    42.893
ATOM      9  C   UNL d   1      13.189 -14.551   5.211 -0.08 +0.02    +0.051    42.893
ATOM     10  C   UNL d   1      13.895 -10.095   4.664 -0.09 +0.01    +0.066    42.893
ATOM     11  C   UNL d   1      14.785  -9.397   5.487 -0.07 -0.00    -0.021    42.893
ATOM     12  C   UNL d   1      14.795  -8.089   5.038 -0.08 +0.00    +0.000    42.893
ATOM     13  C   UNL d   1      13.880  -8.060   3.949 -0.10 +0.00    +0.070    42.893
ATOM     14  C   UNL d   1      15.613  -9.959   6.637 -0.05 +0.00    +0.052    42.893
ATOM     15  C   UNL d   1      12.638  -6.913   2.123 -0.16 +0.00    +0.066    42.893
ATOM     16  C   UNL d   1      12.252  -5.729   1.495 -0.20 +0.00    -0.021    42.893
ATOM     17  C   UNL d   1      11.366  -6.091   0.481 -0.25 -0.00    +0.000    42.893
ATOM     18  C   UNL d   1      11.279  -7.488   0.565 -0.21 -0.00    +0.070    42.893
ATOM     19  C   UNL d   1      12.715  -4.368   1.950 -0.08 -0.00    +0.052    42.893
ATOM     20  C   UNL d   1      10.339  -9.687  -0.257 -0.17 +0.00    +0.066    42.893
ATOM     21  C   UNL d   1       9.586 -10.447  -1.148 -0.16 -0.00    -0.025    42.893
ATOM     22  C   UNL d   1       9.749 -11.762  -0.773 -0.12 -0.00    -0.021    42.893
ATOM     23  C   UNL d   1      10.585 -11.754   0.348 -0.12 +0.01    +0.066    42.893
ATOM     24  C   UNL d   1       8.750  -9.944  -2.296 -0.04 +0.01    +0.051    42.893
ATOM     25  N   UNL d   1      12.250 -11.827   2.818 -0.08 -0.06    -0.248    42.893
ATOM     26  N   UNL d   1      13.333  -9.283   3.732 -0.06 -0.02    -0.248    42.893
ATOM     27  N   UNL d   1      11.998  -7.962   1.614 -0.12 -0.01    -0.248    42.893
ATOM     28  N   UNL d   1      10.905 -10.487   0.685 -0.10 -0.02    -0.248    42.893
ATOM     29 FE   UNL d   1      12.109  -9.887   2.196 -0.03 +0.00    +0.000    42.893
ATOM     30  O   UNL d   1      11.335 -10.182   3.514 -0.19 +0.00    +0.000    42.893
ATOM     31  O   UNL d   1      10.699  -9.232   2.429 -0.40 +0.00    +0.000    42.893
ATOM     32  C   UNL d   1      11.505 -15.470   2.775 -0.11 +0.02    +0.052    42.893
ATOM     33  C   UNL d   1      10.106 -15.684   3.344 -0.21 +0.06    +0.115    42.893
ATOM     34  C   UNL d   1      10.103 -16.615   4.531 -0.19 +0.08    +0.139    42.893
ATOM     35  O   UNL d   1       9.233 -16.508   5.380 -0.37 -0.56    -0.650    42.893
ATOM     36  O   UNL d   1      11.060 -17.552   4.691 +0.06 -0.22    -0.776    42.893
ATOM     37  H   UNL d   1      11.035 -18.394   4.222 +0.04 +0.02    +0.167    42.893
ATOM     38  C   UNL d   1       9.085 -12.949  -1.421 -0.11 +0.01    +0.052    42.893
ATOM     39  C   UNL d   1       7.561 -12.877  -1.344 -0.23 +0.02    +0.115    42.893
ATOM     40  C   UNL d   1       7.056 -12.858   0.077 -0.42 +0.03    +0.139    42.893
ATOM     41  O   UNL d   1       6.767 -13.906   0.631 -0.59 -0.31    -0.650    42.893
ATOM     42  O   UNL d   1       6.966 -11.705   0.768 +0.03 -0.11    -0.776    42.893
ATOM     43  H   UNL d   1       6.508 -10.936   0.409 -0.35 -0.01    +0.167    42.893
ATOM     44  C   UNL d   1      15.656  -7.024   5.683 -0.06 +0.00    +0.004    42.893
ATOM     45  C   UNL d   1      15.259  -5.903   6.284 -0.11 +0.00    +0.012    42.893
ATOM     46  C   UNL d   1      10.578  -5.252  -0.490 -0.34 -0.00    +0.004    42.893
ATOM     47  C   UNL d   1       9.543  -4.441  -0.234 -0.48 -0.00    +0.012    42.893
TER
ENDMDL
MODEL       48
USER    Run = 48
USER    Cluster Rank = 28
USER    Number of conformations in this cluster = 1
USER  
USER    RMSD from reference structure       = 30.977 A
USER  
USER    Estimated Free Energy of Binding    =   -5.01 kcal/mol  [=(1)+(2)+(3)-(4)]
USER    Estimated Inhibition Constant, Ki   =  212.51 uM (micromolar)  [Temperature = 298.15 K]
USER    
USER    (1) Final Intermolecular Energy     =   -7.99 kcal/mol
USER        vdW + Hbond + desolv Energy     =   -7.73 kcal/mol
USER        Electrostatic Energy            =   -0.27 kcal/mol
USER    (2) Final Total Internal Energy     =   -1.87 kcal/mol
USER    (3) Torsional Free Energy           =   +2.98 kcal/mol
USER    (4) Unbound System's Energy  [=(2)] =   -1.87 kcal/mol
USER    
USER    
USER  
USER    DPF = D:/Protein_go_brrr/autodock/final/mut_K82N/heme_O2/dock.dpf
USER    NEWDPF move	heme_O2_opt.pdbqt
USER    NEWDPF about	8.287000 34.468000 -0.670000
USER    NEWDPF tran0	3.848222 6.330392 18.445323
USER    NEWDPF axisangle0	-0.164574 0.668570 0.725210 151.403412
USER    NEWDPF quaternion0	-0.159476 0.647860 0.702745 0.246970
USER    NEWDPF dihe0	-30.77 17.19 -36.69 45.91 51.30 180.00 -124.70 24.93 174.41 145.88 
USER  
USER                              x       y       z    vdW   Elec        q     RMS 
ATOM      1  C   UNL d   1       5.915   6.677  18.774 -0.24 -0.01    +0.064    30.977
ATOM      2  C   UNL d   1       2.543   9.215  16.595 -0.21 -0.03    +0.064    30.977
ATOM      3  C   UNL d   1      -0.729   5.812  17.494 -0.20 -0.02    +0.064    30.977
ATOM      4  C   UNL d   1       2.620   3.409  20.154 -0.27 -0.04    +0.064    30.977
ATOM      5  C   UNL d   1       5.264   7.646  18.110 -0.21 -0.02    +0.066    30.977
ATOM      6  C   UNL d   1       5.870   8.815  17.639 -0.18 +0.01    -0.021    30.977
ATOM      7  C   UNL d   1       4.885   9.570  17.046 -0.21 +0.01    -0.025    30.977
ATOM      8  C   UNL d   1       3.715   8.820  17.128 -0.22 -0.02    +0.066    30.977
ATOM      9  C   UNL d   1       5.087  10.953  16.466 -0.12 -0.01    +0.051    30.977
ATOM     10  C   UNL d   1       1.288   8.462  16.630 -0.21 -0.03    +0.066    30.977
ATOM     11  C   UNL d   1       0.143   8.842  15.921 -0.18 +0.01    -0.021    30.977
ATOM     12  C   UNL d   1      -0.806   7.863  16.153 -0.15 -0.00    +0.000    30.977
ATOM     13  C   UNL d   1      -0.176   6.928  17.019 -0.19 -0.03    +0.070    30.977
ATOM     14  C   UNL d   1      -0.029  10.072  15.037 -0.17 -0.06    +0.052    30.977
ATOM     15  C   UNL d   1      -0.137   4.858  18.401 -0.18 -0.02    +0.066    30.977
ATOM     16  C   UNL d   1      -0.824   3.797  18.991 -0.18 +0.01    -0.021    30.977
ATOM     17  C   UNL d   1       0.110   3.098  19.755 -0.21 -0.00    +0.000    30.977
ATOM     18  C   UNL d   1       1.314   3.793  19.569 -0.23 -0.04    +0.070    30.977
ATOM     19  C   UNL d   1      -2.307   3.580  18.819 -0.18 -0.01    +0.052    30.977
ATOM     20  C   UNL d   1       3.784   4.077  20.032 -0.28 -0.03    +0.066    30.977
ATOM     21  C   UNL d   1       4.987   3.657  20.592 -0.32 +0.01    -0.025    30.977
ATOM     22  C   UNL d   1       5.943   4.562  20.186 -0.29 +0.00    -0.021    30.977
ATOM     23  C   UNL d   1       5.281   5.514  19.406 -0.27 -0.02    +0.066    30.977
ATOM     24  C   UNL d   1       5.213   2.455  21.472 -0.38 -0.01    +0.051    30.977
ATOM     25  N   UNL d   1       3.936   7.665  17.841 -0.15 +0.11    -0.248    30.977
ATOM     26  N   UNL d   1       1.096   7.302  17.308 -0.14 +0.11    -0.248    30.977
ATOM     27  N   UNL d   1       1.129   4.900  18.806 -0.12 +0.12    -0.248    30.977
ATOM     28  N   UNL d   1       3.961   5.241  19.352 -0.17 +0.10    -0.248    30.977
ATOM     29 FE   UNL d   1       2.537   6.262  18.339 -0.06 -0.00    +0.000    30.977
ATOM     30  O   UNL d   1       2.361   7.617  19.084 -0.13 -0.00    +0.000    30.977
ATOM     31  O   UNL d   1       2.129   6.265  19.857 -0.13 -0.00    +0.000    30.977
ATOM     32  C   UNL d   1       7.289   9.271  17.856 -0.13 -0.01    +0.052    30.977
ATOM     33  C   UNL d   1       7.408  10.343  18.935 -0.03 -0.01    +0.115    30.977
ATOM     34  C   UNL d   1       6.760   9.929  20.232 -0.01 -0.01    +0.139    30.977
ATOM     35  O   UNL d   1       5.643  10.337  20.507 +0.01 +0.06    -0.650    30.977
ATOM     36  O   UNL d   1       7.400   9.134  21.115 +0.03 +0.01    -0.776    30.977
ATOM     37  H   UNL d   1       8.042   8.472  20.835 +0.02 +0.00    +0.167    30.977
ATOM     38  C   UNL d   1       7.396   4.541  20.584 -0.22 +0.02    +0.052    30.977
ATOM     39  C   UNL d   1       7.770   5.719  21.481 -0.16 +0.02    +0.115    30.977
ATOM     40  C   UNL d   1       9.242   6.045  21.420 -0.14 +0.04    +0.139    30.977
ATOM     41  O   UNL d   1      10.057   5.145  21.297 -0.05 -0.31    -0.650    30.977
ATOM     42  O   UNL d   1       9.674   7.321  21.448 +0.04 -0.15    -0.776    30.977
ATOM     43  H   UNL d   1       9.118   8.034  21.784 +0.02 +0.02    +0.167    30.977
ATOM     44  C   UNL d   1      -2.189   7.923  15.539 -0.16 -0.00    +0.004    30.977
ATOM     45  C   UNL d   1      -2.897   6.922  15.016 -0.32 -0.01    +0.012    30.977
ATOM     46  C   UNL d   1      -0.046   1.905  20.659 -0.17 -0.00    +0.004    30.977
ATOM     47  C   UNL d   1      -0.812   0.822  20.477 -0.27 -0.00    +0.012    30.977
TER
ENDMDL
MODEL       89
USER    Run = 89
USER    Cluster Rank = 29
USER    Number of conformations in this cluster = 3
USER  
USER    RMSD from reference structure       = 45.125 A
USER  
USER    Estimated Free Energy of Binding    =   -4.96 kcal/mol  [=(1)+(2)+(3)-(4)]
USER    Estimated Inhibition Constant, Ki   =  230.09 uM (micromolar)  [Temperature = 298.15 K]
USER    
USER    (1) Final Intermolecular Energy     =   -7.95 kcal/mol
USER        vdW + Hbond + desolv Energy     =   -6.60 kcal/mol
USER        Electrostatic Energy            =   -1.35 kcal/mol
USER    (2) Final Total Internal Energy     =   -1.73 kcal/mol
USER    (3) Torsional Free Energy           =   +2.98 kcal/mol
USER    (4) Unbound System's Energy  [=(2)] =   -1.73 kcal/mol
USER    
USER    
USER  
USER    DPF = D:/Protein_go_brrr/autodock/final/mut_K82N/heme_O2/dock.dpf
USER    NEWDPF move	heme_O2_opt.pdbqt
USER    NEWDPF about	8.287000 34.468000 -0.670000
USER    NEWDPF tran0	11.761095 -12.907565 3.446830
USER    NEWDPF axisangle0	-0.664909 -0.731123 0.152823 174.504859
USER    NEWDPF quaternion0	-0.664144 -0.730283 0.152648 0.047936
USER    NEWDPF dihe0	-45.20 -6.14 129.05 140.52 -100.87 134.54 144.76 38.20 14.91 116.19 
USER  
USER                              x       y       z    vdW   Elec        q     RMS 
ATOM      1  C   UNL d   1      12.672 -14.422   4.620 -0.02 +0.03    +0.064    45.125
ATOM      2  C   UNL d   1       9.361 -14.556   1.217 -0.23 +0.02    +0.064    45.125
ATOM      3  C   UNL d   1       9.511  -9.775   0.755 -0.24 +0.01    +0.064    45.125
ATOM      4  C   UNL d   1      13.259  -9.668   3.918 -0.12 +0.01    +0.064    45.125
ATOM      5  C   UNL d   1      11.761 -14.849   3.731 -0.06 +0.03    +0.066    45.125
ATOM      6  C   UNL d   1      11.398 -16.188   3.563 -0.11 -0.01    -0.021    45.125
ATOM      7  C   UNL d   1      10.471 -16.233   2.548 -0.17 -0.01    -0.025    45.125
ATOM      8  C   UNL d   1      10.257 -14.914   2.157 -0.18 +0.02    +0.066    45.125
ATOM      9  C   UNL d   1       9.863 -17.500   1.986 -0.17 +0.01    +0.051    45.125
ATOM     10  C   UNL d   1       9.077 -13.188   0.780 -0.22 +0.01    +0.066    45.125
ATOM     11  C   UNL d   1       8.024 -12.858  -0.080 -0.29 -0.00    -0.021    45.125
ATOM     12  C   UNL d   1       8.039 -11.482  -0.211 -0.35 +0.00    +0.000    45.125
ATOM     13  C   UNL d   1       9.133 -11.042   0.584 -0.24 +0.01    +0.070    45.125
ATOM     14  C   UNL d   1       7.027 -13.813  -0.727 -0.37 +0.01    +0.052    45.125
ATOM     15  C   UNL d   1      10.633  -9.291   1.522 -0.27 +0.00    +0.066    45.125
ATOM     16  C   UNL d   1      11.074  -7.968   1.529 -0.30 -0.00    -0.021    45.125
ATOM     17  C   UNL d   1      12.143  -7.914   2.423 -0.23 +0.00    +0.000    45.125
ATOM     18  C   UNL d   1      12.274  -9.224   2.903 -0.19 +0.01    +0.070    45.125
ATOM     19  C   UNL d   1      10.479  -6.898   0.649 -0.32 -0.00    +0.052    45.125
ATOM     20  C   UNL d   1      13.440 -10.925   4.368 -0.10 +0.01    +0.066    45.125
ATOM     21  C   UNL d   1      14.373 -11.279   5.338 -0.06 -0.00    -0.025    45.125
ATOM     22  C   UNL d   1      14.202 -12.625   5.571 -0.06 -0.00    -0.021    45.125
ATOM     23  C   UNL d   1      13.178 -13.048   4.717 -0.06 +0.02    +0.066    45.125
ATOM     24  C   UNL d   1      15.380 -10.380   6.007 -0.04 +0.00    +0.051    45.125
ATOM     25  N   UNL d   1      11.100 -14.069   2.840 -0.07 -0.11    -0.248    45.125
ATOM     26  N   UNL d   1       9.762 -12.087   1.180 -0.12 -0.05    -0.248    45.125
ATOM     27  N   UNL d   1      11.399 -10.061   2.290 -0.14 -0.03    -0.248    45.125
ATOM     28  N   UNL d   1      12.749 -12.020   3.955 -0.07 -0.07    -0.248    45.125
ATOM     29 FE   UNL d   1      11.267 -12.050   2.577 -0.05 +0.00    +0.000    45.125
ATOM     30  O   UNL d   1      11.804 -12.887   1.379 -0.10 +0.00    +0.000    45.125
ATOM     31  O   UNL d   1      12.583 -11.599   1.845 -0.10 +0.00    +0.000    45.125
ATOM     32  C   UNL d   1      11.997 -17.398   4.234 -0.06 +0.01    +0.052    45.125
ATOM     33  C   UNL d   1      11.175 -17.883   5.423 -0.08 +0.03    +0.115    45.125
ATOM     34  C   UNL d   1      10.581 -16.745   6.216 +0.06 +0.10    +0.139    45.125
ATOM     35  O   UNL d   1       9.381 -16.533   6.160 -0.16 -0.60    -0.650    45.125
ATOM     36  O   UNL d   1      11.354 -15.933   6.967 -0.17 -0.85    -0.776    45.125
ATOM     37  H   UNL d   1      12.045 -16.277   7.545 +0.03 +0.07    +0.167    45.125
ATOM     38  C   UNL d   1      15.023 -13.465   6.515 -0.03 +0.01    +0.052    45.125
ATOM     39  C   UNL d   1      15.295 -14.863   5.963 -0.00 +0.01    +0.115    45.125
ATOM     40  C   UNL d   1      15.268 -15.922   7.037 +0.00 +0.01    +0.139    45.125
ATOM     41  O   UNL d   1      16.248 -16.093   7.744 +0.01 -0.01    -0.650    45.125
ATOM     42  O   UNL d   1      14.159 -16.652   7.267 +0.03 -0.07    -0.776    45.125
ATOM     43  H   UNL d   1      13.338 -16.488   6.787 +0.02 +0.03    +0.167    45.125
ATOM     44  C   UNL d   1       7.031 -10.745  -1.067 -0.42 +0.00    +0.004    45.125
ATOM     45  C   UNL d   1       6.755 -10.937  -2.357 -0.41 +0.00    +0.012    45.125
ATOM     46  C   UNL d   1      13.056  -6.779   2.804 -0.19 +0.00    +0.004    45.125
ATOM     47  C   UNL d   1      13.439  -6.399   4.030 -0.19 +0.00    +0.012    45.125
TER
ENDMDL
MODEL       59
USER    Run = 59
USER    Cluster Rank = 30
USER    Number of conformations in this cluster = 1
USER  
USER    RMSD from reference structure       = 26.785 A
USER  
USER    Estimated Free Energy of Binding    =   -4.84 kcal/mol  [=(1)+(2)+(3)-(4)]
USER    Estimated Inhibition Constant, Ki   =  281.82 uM (micromolar)  [Temperature = 298.15 K]
USER    
USER    (1) Final Intermolecular Energy     =   -7.83 kcal/mol
USER        vdW + Hbond + desolv Energy     =   -6.66 kcal/mol
USER        Electrostatic Energy            =   -1.17 kcal/mol
USER    (2) Final Total Internal Energy     =   -1.66 kcal/mol
USER    (3) Torsional Free Energy           =   +2.98 kcal/mol
USER    (4) Unbound System's Energy  [=(2)] =   -1.66 kcal/mol
USER    
USER    
USER  
USER    DPF = D:/Protein_go_brrr/autodock/final/mut_K82N/heme_O2/dock.dpf
USER    NEWDPF move	heme_O2_opt.pdbqt
USER    NEWDPF about	8.287000 34.468000 -0.670000
USER    NEWDPF tran0	7.964767 12.200763 -16.112513
USER    NEWDPF axisangle0	0.350161 -0.163255 0.922353 -127.335893
USER    NEWDPF quaternion0	0.313827 -0.146315 0.826648 -0.443573
USER    NEWDPF dihe0	-42.33 -49.56 130.25 -8.51 64.24 -69.53 -152.39 -96.43 -178.46 125.57 
USER  
USER                              x       y       z    vdW   Elec        q     RMS 
ATOM      1  C   UNL d   1       7.923  11.078 -17.912 -0.06 +0.02    +0.064    26.785
ATOM      2  C   UNL d   1      11.134  11.440 -14.431 -0.08 +0.01    +0.064    26.785
ATOM      3  C   UNL d   1       8.385  14.620 -12.100 -0.20 +0.00    +0.064    26.785
ATOM      4  C   UNL d   1       4.861  13.895 -15.435 -0.09 +0.00    +0.064    26.785
ATOM      5  C   UNL d   1       9.019  10.916 -17.154 -0.06 +0.02    +0.066    26.785
ATOM      6  C   UNL d   1      10.089  10.083 -17.494 -0.03 -0.00    -0.021    26.785
ATOM      7  C   UNL d   1      11.000  10.154 -16.467 -0.03 -0.00    -0.025    26.785
ATOM      8  C   UNL d   1      10.484  11.065 -15.549 -0.06 +0.01    +0.066    26.785
ATOM      9  C   UNL d   1      12.279   9.349 -16.387 -0.01 +0.00    +0.051    26.785
ATOM     10  C   UNL d   1      10.653  12.408 -13.444 -0.13 +0.01    +0.066    26.785
ATOM     11  C   UNL d   1      11.438  12.883 -12.387 -0.17 -0.00    -0.021    26.785
ATOM     12  C   UNL d   1      10.669  13.815 -11.714 -0.23 +0.00    +0.000    26.785
ATOM     13  C   UNL d   1       9.427  13.847 -12.406 -0.11 +0.01    +0.070    26.785
ATOM     14  C   UNL d   1      12.871  12.486 -12.051 -0.14 +0.00    +0.052    26.785
ATOM     15  C   UNL d   1       7.099  14.656 -12.754 -0.22 +0.00    +0.066    26.785
ATOM     16  C   UNL d   1       5.994  15.367 -12.286 -0.28 +0.00    -0.021    26.785
ATOM     17  C   UNL d   1       4.977  15.174 -13.221 -0.26 -0.00    +0.000    26.785
ATOM     18  C   UNL d   1       5.546  14.351 -14.203 -0.19 +0.00    +0.070    26.785
ATOM     19  C   UNL d   1       5.991  16.113 -10.975 -0.33 -0.01    +0.052    26.785
ATOM     20  C   UNL d   1       5.362  13.070 -16.376 -0.12 +0.01    +0.066    26.785
ATOM     21  C   UNL d   1       4.676  12.690 -17.525 -0.11 -0.00    -0.025    26.785
ATOM     22  C   UNL d   1       5.543  11.909 -18.256 -0.07 -0.00    -0.021    26.785
ATOM     23  C   UNL d   1       6.725  11.827 -17.514 -0.09 +0.02    +0.066    26.785
ATOM     24  C   UNL d   1       3.263  13.050 -17.906 -0.11 -0.01    +0.051    26.785
ATOM     25  N   UNL d   1       9.234  11.484 -15.942 -0.06 -0.07    -0.248    26.785
ATOM     26  N   UNL d   1       9.424  12.984 -13.454 -0.09 -0.04    -0.248    26.785
ATOM     27  N   UNL d   1       6.809  13.985 -13.865 -0.14 -0.03    -0.248    26.785
ATOM     28  N   UNL d   1       6.595  12.497 -16.350 -0.09 -0.08    -0.248    26.785
ATOM     29 FE   UNL d   1       7.997  12.740 -14.911 -0.03 +0.00    +0.000    26.785
ATOM     30  O   UNL d   1       8.179  11.347 -14.241 -0.44 +0.00    +0.000    26.785
ATOM     31  O   UNL d   1       6.759  12.032 -14.249 -0.74 +0.00    +0.000    26.785
ATOM     32  C   UNL d   1      10.194   9.149 -18.672 -0.01 +0.00    +0.052    26.785
ATOM     33  C   UNL d   1       9.775   7.722 -18.336 -0.02 +0.01    +0.115    26.785
ATOM     34  C   UNL d   1       8.813   7.663 -17.175 -0.02 +0.06    +0.139    26.785
ATOM     35  O   UNL d   1       9.245   7.620 -16.035 -0.58 -0.37    -0.650    26.785
ATOM     36  O   UNL d   1       7.478   7.629 -17.369 +0.01 -0.53    -0.776    26.785
ATOM     37  H   UNL d   1       7.043   8.182 -18.029 +0.01 +0.08    +0.167    26.785
ATOM     38  C   UNL d   1       5.224  11.230 -19.563 -0.03 +0.00    +0.052    26.785
ATOM     39  C   UNL d   1       5.657   9.765 -19.579 -0.03 +0.01    +0.115    26.785
ATOM     40  C   UNL d   1       4.649   8.859 -18.919 -0.08 +0.02    +0.139    26.785
ATOM     41  O   UNL d   1       3.612   8.580 -19.500 +0.04 -0.02    -0.650    26.785
ATOM     42  O   UNL d   1       4.893   8.306 -17.715 +0.03 -0.40    -0.776    26.785
ATOM     43  H   UNL d   1       5.736   7.881 -17.516 +0.02 +0.12    +0.167    26.785
ATOM     44  C   UNL d   1      11.188  14.561 -10.502 -0.29 +0.00    +0.004    26.785
ATOM     45  C   UNL d   1      11.704  14.049  -9.385 -0.31 +0.00    +0.012    26.785
ATOM     46  C   UNL d   1       3.545  15.639 -13.232 -0.28 -0.00    +0.004    26.785
ATOM     47  C   UNL d   1       2.823  16.124 -12.214 -0.35 -0.00    +0.012    26.785
TER
ENDMDL
MODEL        2
USER    Run = 2
USER    Cluster Rank = 31
USER    Number of conformations in this cluster = 1
USER  
USER    RMSD from reference structure       = 26.075 A
USER  
USER    Estimated Free Energy of Binding    =   -4.82 kcal/mol  [=(1)+(2)+(3)-(4)]
USER    Estimated Inhibition Constant, Ki   =  292.46 uM (micromolar)  [Temperature = 298.15 K]
USER    
USER    (1) Final Intermolecular Energy     =   -7.80 kcal/mol
USER        vdW + Hbond + desolv Energy     =   -5.91 kcal/mol
USER        Electrostatic Energy            =   -1.90 kcal/mol
USER    (2) Final Total Internal Energy     =   -2.21 kcal/mol
USER    (3) Torsional Free Energy           =   +2.98 kcal/mol
USER    (4) Unbound System's Energy  [=(2)] =   -2.21 kcal/mol
USER    
USER    
USER  
USER    DPF = D:/Protein_go_brrr/autodock/final/mut_K82N/heme_O2/dock.dpf
USER    NEWDPF move	heme_O2_opt.pdbqt
USER    NEWDPF about	8.287000 34.468000 -0.670000
USER    NEWDPF tran0	-12.588125 14.450709 -7.534295
USER    NEWDPF axisangle0	-0.064350 0.910332 -0.408845 -70.439440
USER    NEWDPF quaternion0	-0.037112 0.525001 -0.235786 -0.816946
USER    NEWDPF dihe0	143.16 1.63 67.12 -102.83 -179.68 -110.01 -86.46 -147.18 176.90 142.33 
USER  
USER                              x       y       z    vdW   Elec        q     RMS 
ATOM      1  C   UNL d   1     -13.711  15.927  -6.505 -0.08 +0.04    +0.064    26.075
ATOM      2  C   UNL d   1     -11.014  12.319  -4.999 -0.25 +0.02    +0.064    26.075
ATOM      3  C   UNL d   1     -10.074  11.010  -9.526 -0.14 +0.02    +0.064    26.075
ATOM      4  C   UNL d   1     -12.457  15.004 -11.089 -0.05 +0.02    +0.064    26.075
ATOM      5  C   UNL d   1     -13.053  15.054  -5.726 -0.08 +0.04    +0.066    26.075
ATOM      6  C   UNL d   1     -13.086  15.072  -4.329 -0.14 -0.01    -0.021    26.075
ATOM      7  C   UNL d   1     -12.270  14.054  -3.891 -0.12 -0.01    -0.025    26.075
ATOM      8  C   UNL d   1     -11.800  13.412  -5.033 -0.16 +0.03    +0.066    26.075
ATOM      9  C   UNL d   1     -11.956  13.760  -2.441 -0.30 +0.01    +0.051    26.075
ATOM     10  C   UNL d   1     -10.509  11.589  -6.162 -0.22 +0.02    +0.066    26.075
ATOM     11  C   UNL d   1      -9.833  10.368  -6.070 -0.26 -0.01    -0.021    26.075
ATOM     12  C   UNL d   1      -9.569   9.965  -7.366 -0.21 +0.00    +0.000    26.075
ATOM     13  C   UNL d   1     -10.100  10.993  -8.194 -0.16 +0.02    +0.070    26.075
ATOM     14  C   UNL d   1      -9.478   9.603  -4.800 -0.35 +0.02    +0.052    26.075
ATOM     15  C   UNL d   1     -10.569  12.048 -10.399 -0.09 +0.02    +0.066    26.075
ATOM     16  C   UNL d   1     -10.366  12.085 -11.778 -0.03 -0.01    -0.021    26.075
ATOM     17  C   UNL d   1     -11.035  13.215 -12.245 -0.07 +0.00    +0.000    26.075
ATOM     18  C   UNL d   1     -11.606  13.790 -11.101 -0.08 +0.02    +0.070    26.075
ATOM     19  C   UNL d   1      -9.513  11.079 -12.511 -0.09 +0.01    +0.052    26.075
ATOM     20  C   UNL d   1     -12.984  15.606 -10.006 -0.06 +0.03    +0.066    26.075
ATOM     21  C   UNL d   1     -13.793  16.738 -10.058 -0.03 -0.01    -0.025    26.075
ATOM     22  C   UNL d   1     -14.182  16.999  -8.764 -0.04 -0.01    -0.021    26.075
ATOM     23  C   UNL d   1     -13.579  16.024  -7.964 -0.07 +0.04    +0.066    26.075
ATOM     24  C   UNL d   1     -14.173  17.531 -11.281 -0.01 +0.01    +0.051    26.075
ATOM     25  N   UNL d   1     -12.230  14.069  -6.164 -0.09 -0.14    -0.248    26.075
ATOM     26  N   UNL d   1     -10.666  11.979  -7.453 -0.12 -0.08    -0.248    26.075
ATOM     27  N   UNL d   1     -11.251  13.111  -9.981 -0.09 -0.09    -0.248    26.075
ATOM     28  N   UNL d   1     -12.816  15.206  -8.717 -0.07 -0.16    -0.248    26.075
ATOM     29 FE   UNL d   1     -11.748  13.604  -8.093 -0.03 +0.00    +0.000    26.075
ATOM     30  O   UNL d   1     -10.557  14.171  -7.266 -0.34 +0.00    +0.000    26.075
ATOM     31  O   UNL d   1     -10.742  14.607  -8.769 -0.62 +0.00    +0.000    26.075
ATOM     32  C   UNL d   1     -13.746  16.089  -3.434 -0.11 +0.02    +0.052    26.075
ATOM     33  C   UNL d   1     -12.765  17.122  -2.887 -0.16 +0.04    +0.115    26.075
ATOM     34  C   UNL d   1     -12.661  18.341  -3.770 -0.09 +0.06    +0.139    26.075
ATOM     35  O   UNL d   1     -13.623  18.685  -4.439 +0.00 -0.24    -0.650    26.075
ATOM     36  O   UNL d   1     -11.516  19.048  -3.861 +0.05 -0.43    -0.776    26.075
ATOM     37  H   UNL d   1     -11.226  19.446  -4.690 +0.03 +0.12    +0.167    26.075
ATOM     38  C   UNL d   1     -15.033  18.161  -8.320 -0.02 +0.02    +0.052    26.075
ATOM     39  C   UNL d   1     -14.278  19.117  -7.399 -0.04 +0.05    +0.115    26.075
ATOM     40  C   UNL d   1     -12.805  19.179  -7.716 +0.12 +0.13    +0.139    26.075
ATOM     41  O   UNL d   1     -12.429  19.079  -8.873 -0.37 -0.61    -0.650    26.075
ATOM     42  O   UNL d   1     -11.893  19.396  -6.748 -0.21 -1.05    -0.776    26.075
ATOM     43  H   UNL d   1     -12.148  19.455  -5.819 +0.02 +0.15    +0.167    26.075
ATOM     44  C   UNL d   1      -8.849   8.669  -7.675 -0.26 +0.00    +0.004    26.075
ATOM     45  C   UNL d   1      -7.675   8.509  -8.285 -0.31 +0.00    +0.012    26.075
ATOM     46  C   UNL d   1     -11.128  13.808 -13.626 -0.05 +0.00    +0.004    26.075
ATOM     47  C   UNL d   1     -10.580  14.943 -14.079 -0.06 +0.00    +0.012    26.075
TER
ENDMDL
MODEL       38
USER    Run = 38
USER    Cluster Rank = 32
USER    Number of conformations in this cluster = 1
USER  
USER    RMSD from reference structure       = 39.791 A
USER  
USER    Estimated Free Energy of Binding    =   -4.81 kcal/mol  [=(1)+(2)+(3)-(4)]
USER    Estimated Inhibition Constant, Ki   =  296.22 uM (micromolar)  [Temperature = 298.15 K]
USER    
USER    (1) Final Intermolecular Energy     =   -7.80 kcal/mol
USER        vdW + Hbond + desolv Energy     =   -7.24 kcal/mol
USER        Electrostatic Energy            =   -0.56 kcal/mol
USER    (2) Final Total Internal Energy     =   -0.79 kcal/mol
USER    (3) Torsional Free Energy           =   +2.98 kcal/mol
USER    (4) Unbound System's Energy  [=(2)] =   -0.79 kcal/mol
USER    
USER    
USER  
USER    DPF = D:/Protein_go_brrr/autodock/final/mut_K82N/heme_O2/dock.dpf
USER    NEWDPF move	heme_O2_opt.pdbqt
USER    NEWDPF about	8.287000 34.468000 -0.670000
USER    NEWDPF tran0	10.035165 -6.362576 -9.300500
USER    NEWDPF axisangle0	0.320913 -0.582572 -0.746742 163.117452
USER    NEWDPF quaternion0	0.317437 -0.576261 -0.738653 0.146796
USER    NEWDPF dihe0	-61.82 -57.96 -25.37 -119.01 -12.29 151.65 64.47 122.92 -170.50 -180.00 
USER  
USER                              x       y       z    vdW   Elec        q     RMS 
ATOM      1  C   UNL d   1      11.337  -7.016  -7.758 -0.03 -0.01    +0.064    39.791
ATOM      2  C   UNL d   1      10.927  -2.891 -10.078 -0.10 -0.05    +0.064    39.791
ATOM      3  C   UNL d   1       7.353  -4.651 -12.765 -0.19 -0.02    +0.064    39.791
ATOM      4  C   UNL d   1       7.444  -8.743 -10.060 -0.13 -0.01    +0.064    39.791
ATOM      5  C   UNL d   1      11.516  -5.750  -8.169 -0.04 -0.01    +0.066    39.791
ATOM      6  C   UNL d   1      12.488  -4.889  -7.651 -0.08 +0.00    -0.021    39.791
ATOM      7  C   UNL d   1      12.342  -3.681  -8.291 -0.14 +0.01    -0.025    39.791
ATOM      8  C   UNL d   1      11.316  -3.852  -9.217 -0.12 -0.03    +0.066    39.791
ATOM      9  C   UNL d   1      13.144  -2.436  -7.984 -0.19 -0.02    +0.051    39.791
ATOM     10  C   UNL d   1       9.874  -3.019 -11.086 -0.19 -0.04    +0.066    39.791
ATOM     11  C   UNL d   1       9.621  -2.048 -12.062 -0.26 +0.01    -0.021    39.791
ATOM     12  C   UNL d   1       8.606  -2.546 -12.857 -0.29 -0.00    +0.000    39.791
ATOM     13  C   UNL d   1       8.280  -3.814 -12.302 -0.18 -0.02    +0.070    39.791
ATOM     14  C   UNL d   1      10.337  -0.715 -12.244 -0.18 -0.04    +0.052    39.791
ATOM     15  C   UNL d   1       6.969  -5.928 -12.211 -0.19 -0.01    +0.066    39.791
ATOM     16  C   UNL d   1       5.879  -6.682 -12.643 -0.30 +0.00    -0.021    39.791
ATOM     17  C   UNL d   1       5.885  -7.853 -11.886 -0.29 -0.00    +0.000    39.791
ATOM     18  C   UNL d   1       6.994  -7.725 -11.038 -0.15 -0.01    +0.070    39.791
ATOM     19  C   UNL d   1       4.908  -6.199 -13.691 -0.48 -0.01    +0.052    39.791
ATOM     20  C   UNL d   1       8.476  -8.634  -9.202 -0.10 -0.01    +0.066    39.791
ATOM     21  C   UNL d   1       8.864  -9.635  -8.316 -0.08 +0.00    -0.025    39.791
ATOM     22  C   UNL d   1       9.988  -9.171  -7.671 -0.09 +0.00    -0.021    39.791
ATOM     23  C   UNL d   1      10.236  -7.891  -8.176 -0.06 -0.01    +0.066    39.791
ATOM     24  C   UNL d   1       8.193 -10.966  -8.094 -0.09 -0.00    +0.051    39.791
ATOM     25  N   UNL d   1      10.764  -5.106  -9.095 -0.03 +0.07    -0.248    39.791
ATOM     26  N   UNL d   1       9.054  -4.092 -11.221 -0.08 +0.09    -0.248    39.791
ATOM     27  N   UNL d   1       7.595  -6.518 -11.196 -0.06 +0.05    -0.248    39.791
ATOM     28  N   UNL d   1       9.288  -7.551  -9.074 -0.05 +0.05    -0.248    39.791
ATOM     29 FE   UNL d   1       9.169  -5.835 -10.141 -0.03 -0.00    +0.000    39.791
ATOM     30  O   UNL d   1       8.796  -4.716  -9.125 -0.22 -0.00    +0.000    39.791
ATOM     31  O   UNL d   1       7.846  -5.961  -9.301 -0.23 -0.00    +0.000    39.791
ATOM     32  C   UNL d   1      13.429  -5.144  -6.502 -0.06 +0.00    +0.052    39.791
ATOM     33  C   UNL d   1      12.820  -4.794  -5.148 -0.08 +0.02    +0.115    39.791
ATOM     34  C   UNL d   1      13.576  -3.694  -4.445 -0.08 +0.05    +0.139    39.791
ATOM     35  O   UNL d   1      13.408  -3.516  -3.249 -0.06 -0.33    -0.650    39.791
ATOM     36  O   UNL d   1      14.416  -2.879  -5.115 -0.01 -0.27    -0.776    39.791
ATOM     37  H   UNL d   1      15.197  -3.213  -5.571 +0.02 +0.02    +0.167    39.791
ATOM     38  C   UNL d   1      10.740  -9.896  -6.584 -0.07 -0.00    +0.052    39.791
ATOM     39  C   UNL d   1      10.042  -9.798  -5.229 -0.07 +0.01    +0.115    39.791
ATOM     40  C   UNL d   1       9.852  -8.370  -4.781 -0.15 +0.00    +0.139    39.791
ATOM     41  O   UNL d   1      10.826  -7.670  -4.557 +0.02 -0.00    -0.650    39.791
ATOM     42  O   UNL d   1       8.621  -7.834  -4.672 -0.21 +0.05    -0.776    39.791
ATOM     43  H   UNL d   1       8.003  -7.833  -5.413 -0.44 -0.07    +0.167    39.791
ATOM     44  C   UNL d   1       8.059  -1.773 -14.040 -0.32 -0.00    +0.004    39.791
ATOM     45  C   UNL d   1       7.532  -2.259 -15.163 -0.24 -0.01    +0.012    39.791
ATOM     46  C   UNL d   1       4.929  -9.016 -11.857 -0.39 -0.00    +0.004    39.791
ATOM     47  C   UNL d   1       4.287  -9.535 -10.803 -0.47 -0.00    +0.012    39.791
TER
ENDMDL
MODEL       32
USER    Run = 32
USER    Cluster Rank = 33
USER    Number of conformations in this cluster = 1
USER  
USER    RMSD from reference structure       = 32.723 A
USER  
USER    Estimated Free Energy of Binding    =   -4.78 kcal/mol  [=(1)+(2)+(3)-(4)]
USER    Estimated Inhibition Constant, Ki   =  313.21 uM (micromolar)  [Temperature = 298.15 K]
USER    
USER    (1) Final Intermolecular Energy     =   -7.76 kcal/mol
USER        vdW + Hbond + desolv Energy     =   -6.01 kcal/mol
USER        Electrostatic Energy            =   -1.75 kcal/mol
USER    (2) Final Total Internal Energy     =   -0.88 kcal/mol
USER    (3) Torsional Free Energy           =   +2.98 kcal/mol
USER    (4) Unbound System's Energy  [=(2)] =   -0.88 kcal/mol
USER    
USER    
USER  
USER    DPF = D:/Protein_go_brrr/autodock/final/mut_K82N/heme_O2/dock.dpf
USER    NEWDPF move	heme_O2_opt.pdbqt
USER    NEWDPF about	8.287000 34.468000 -0.670000
USER    NEWDPF tran0	13.169256 4.779426 19.537579
USER    NEWDPF axisangle0	0.630310 -0.635466 -0.445973 -143.556133
USER    NEWDPF quaternion0	0.598702 -0.603598 -0.423609 -0.312699
USER    NEWDPF dihe0	-101.27 -57.16 -42.37 -91.27 58.72 -109.06 180.00 -102.34 4.18 155.42 
USER  
USER                              x       y       z    vdW   Elec        q     RMS 
ATOM      1  C   UNL d   1      13.765   6.471  20.670 -0.02 +0.01    +0.064    32.723
ATOM      2  C   UNL d   1      11.631   6.025  16.450 -0.07 -0.00    +0.064    32.723
ATOM      3  C   UNL d   1      11.807   1.233  16.764 -0.30 -0.01    +0.064    32.723
ATOM      4  C   UNL d   1      13.570   1.678  21.321 -0.12 +0.02    +0.064    32.723
ATOM      5  C   UNL d   1      13.169   6.741  19.497 -0.02 +0.01    +0.066    32.723
ATOM      6  C   UNL d   1      12.945   8.032  19.011 -0.01 -0.00    -0.021    32.723
ATOM      7  C   UNL d   1      12.289   7.905  17.810 -0.01 -0.00    -0.025    32.723
ATOM      8  C   UNL d   1      12.172   6.538  17.572 -0.03 +0.00    +0.066    32.723
ATOM      9  C   UNL d   1      11.785   9.060  16.972 -0.02 -0.00    +0.051    32.723
ATOM     10  C   UNL d   1      11.502   4.602  16.134 -0.15 -0.00    +0.066    32.723
ATOM     11  C   UNL d   1      11.083   4.125  14.887 -0.25 +0.00    -0.021    32.723
ATOM     12  C   UNL d   1      11.144   2.746  14.952 -0.32 -0.00    +0.000    32.723
ATOM     13  C   UNL d   1      11.596   2.452  16.268 -0.18 -0.01    +0.070    32.723
ATOM     14  C   UNL d   1      10.669   4.952  13.675 -0.21 -0.01    +0.052    32.723
ATOM     15  C   UNL d   1      12.229   0.892  18.102 -0.26 -0.00    +0.066    32.723
ATOM     16  C   UNL d   1      12.274  -0.406  18.610 -0.34 +0.00    -0.021    32.723
ATOM     17  C   UNL d   1      12.773  -0.304  19.908 -0.23 +0.00    +0.000    32.723
ATOM     18  C   UNL d   1      13.000   1.067  20.097 -0.17 +0.01    +0.070    32.723
ATOM     19  C   UNL d   1      11.790  -1.608  17.839 -0.41 -0.00    +0.052    32.723
ATOM     20  C   UNL d   1      13.761   2.991  21.551 -0.08 +0.03    +0.066    32.723
ATOM     21  C   UNL d   1      14.319   3.507  22.717 -0.06 -0.01    -0.025    32.723
ATOM     22  C   UNL d   1      14.407   4.869  22.539 -0.07 -0.01    -0.021    32.723
ATOM     23  C   UNL d   1      13.881   5.138  21.271 -0.06 +0.02    +0.066    32.723
ATOM     24  C   UNL d   1      14.743   2.738  23.942 -0.08 +0.03    +0.051    32.723
ATOM     25  N   UNL d   1      12.656   5.822  18.642 -0.02 -0.02    -0.248    32.723
ATOM     26  N   UNL d   1      11.806   3.587  16.982 -0.12 +0.00    -0.248    32.723
ATOM     27  N   UNL d   1      12.594   1.784  19.018 -0.15 -0.03    -0.248    32.723
ATOM     28  N   UNL d   1      13.448   3.999  20.693 -0.07 -0.08    -0.248    32.723
ATOM     29 FE   UNL d   1      12.633   3.791  18.852 -0.03 +0.00    +0.000    32.723
ATOM     30  O   UNL d   1      11.223   4.446  18.924 -0.25 +0.00    +0.000    32.723
ATOM     31  O   UNL d   1      11.583   3.259  19.895 -0.13 +0.00    +0.000    32.723
ATOM     32  C   UNL d   1      13.213   9.340  19.710 -0.00 +0.00    +0.052    32.723
ATOM     33  C   UNL d   1      14.631   9.855  19.480 -0.00 +0.00    +0.115    32.723
ATOM     34  C   UNL d   1      15.459   8.908  18.648 +0.00 +0.00    +0.139    32.723
ATOM     35  O   UNL d   1      16.144   8.062  19.199 +0.00 -0.02    -0.650    32.723
ATOM     36  O   UNL d   1      15.483   8.992  17.302 +0.00 -0.00    -0.776    32.723
ATOM     37  H   UNL d   1      14.969   8.396  16.744 +0.00 +0.00    +0.167    32.723
ATOM     38  C   UNL d   1      14.910   5.858  23.558 -0.04 +0.02    +0.052    32.723
ATOM     39  C   UNL d   1      13.775   6.615  24.244 -0.05 +0.06    +0.115    32.723
ATOM     40  C   UNL d   1      13.070   5.779  25.283 +0.14 +0.16    +0.139    32.723
ATOM     41  O   UNL d   1      13.707   4.984  25.956 -0.44 -0.78    -0.650    32.723
ATOM     42  O   UNL d   1      11.752   5.929  25.520 -0.12 -1.29    -0.776    32.723
ATOM     43  H   UNL d   1      11.374   6.789  25.739 +0.00 +0.14    +0.167    32.723
ATOM     44  C   UNL d   1      10.770   1.868  13.776 -0.39 -0.00    +0.004    32.723
ATOM     45  C   UNL d   1      11.442   0.828  13.284 -0.44 -0.00    +0.012    32.723
ATOM     46  C   UNL d   1      12.991  -1.350  20.969 -0.20 +0.00    +0.004    32.723
ATOM     47  C   UNL d   1      12.195  -1.662  22.000 -0.21 +0.00    +0.012    32.723
TER
ENDMDL
MODEL       39
USER    Run = 39
USER    Cluster Rank = 34
USER    Number of conformations in this cluster = 1
USER  
USER    RMSD from reference structure       = 26.266 A
USER  
USER    Estimated Free Energy of Binding    =   -4.78 kcal/mol  [=(1)+(2)+(3)-(4)]
USER    Estimated Inhibition Constant, Ki   =  314.99 uM (micromolar)  [Temperature = 298.15 K]
USER    
USER    (1) Final Intermolecular Energy     =   -7.76 kcal/mol
USER        vdW + Hbond + desolv Energy     =   -6.26 kcal/mol
USER        Electrostatic Energy            =   -1.50 kcal/mol
USER    (2) Final Total Internal Energy     =   -1.54 kcal/mol
USER    (3) Torsional Free Energy           =   +2.98 kcal/mol
USER    (4) Unbound System's Energy  [=(2)] =   -1.54 kcal/mol
USER    
USER    
USER  
USER    DPF = D:/Protein_go_brrr/autodock/final/mut_K82N/heme_O2/dock.dpf
USER    NEWDPF move	heme_O2_opt.pdbqt
USER    NEWDPF about	8.287000 34.468000 -0.670000
USER    NEWDPF tran0	12.158949 7.645050 10.575695
USER    NEWDPF axisangle0	0.495560 -0.830550 0.254180 -129.181854
USER    NEWDPF quaternion0	0.447623 -0.750208 0.229592 -0.429078
USER    NEWDPF dihe0	-134.07 43.93 18.83 -104.92 26.40 -10.70 -125.18 110.00 177.65 -148.86 
USER  
USER                              x       y       z    vdW   Elec        q     RMS 
ATOM      1  C   UNL d   1      12.419   9.413   9.432 -0.02 +0.01    +0.064    26.266
ATOM      2  C   UNL d   1      12.891   4.807   8.371 -0.10 -0.00    +0.064    26.266
ATOM      3  C   UNL d   1      11.741   3.558  12.867 -0.18 -0.00    +0.064    26.266
ATOM      4  C   UNL d   1      10.786   8.270  13.844 -0.14 +0.00    +0.064    26.266
ATOM      5  C   UNL d   1      12.639   8.262   8.776 -0.03 +0.00    +0.066    26.266
ATOM      6  C   UNL d   1      13.026   8.187   7.435 -0.04 -0.00    -0.021    26.266
ATOM      7  C   UNL d   1      13.121   6.853   7.115 -0.06 -0.00    -0.025    26.266
ATOM      8  C   UNL d   1      12.837   6.150   8.282 -0.08 +0.00    +0.066    26.266
ATOM      9  C   UNL d   1      13.441   6.314   5.738 -0.06 -0.00    +0.051    26.266
ATOM     10  C   UNL d   1      12.626   4.016   9.573 -0.13 -0.00    +0.066    26.266
ATOM     11  C   UNL d   1      12.856   2.638   9.654 -0.18 +0.00    -0.021    26.266
ATOM     12  C   UNL d   1      12.547   2.262  10.948 -0.20 -0.00    +0.000    26.266
ATOM     13  C   UNL d   1      12.126   3.457  11.595 -0.07 -0.00    +0.070    26.266
ATOM     14  C   UNL d   1      13.375   1.723   8.550 -0.09 +0.00    +0.052    26.266
ATOM     15  C   UNL d   1      11.273   4.741  13.549 -0.19 -0.01    +0.066    26.266
ATOM     16  C   UNL d   1      10.729   4.750  14.833 -0.23 +0.00    -0.021    26.266
ATOM     17  C   UNL d   1      10.449   6.083  15.133 -0.24 -0.00    +0.000    26.266
ATOM     18  C   UNL d   1      10.850   6.797  13.995 -0.18 -0.00    +0.070    26.266
ATOM     19  C   UNL d   1      10.477   3.494  15.628 -0.27 -0.01    +0.052    26.266
ATOM     20  C   UNL d   1      11.121   8.982  12.752 -0.11 +0.00    +0.066    26.266
ATOM     21  C   UNL d   1      11.057  10.371  12.675 -0.09 -0.00    -0.025    26.266
ATOM     22  C   UNL d   1      11.544  10.716  11.434 -0.04 -0.00    -0.021    26.266
ATOM     23  C   UNL d   1      11.872   9.519  10.790 -0.03 +0.00    +0.066    26.266
ATOM     24  C   UNL d   1      10.552  11.320  13.731 -0.09 +0.00    +0.051    26.266
ATOM     25  N   UNL d   1      12.477   7.017   9.288 -0.03 -0.01    -0.248    26.266
ATOM     26  N   UNL d   1      12.172   4.518  10.750 -0.07 +0.01    -0.248    26.266
ATOM     27  N   UNL d   1      11.278   5.960  13.016 -0.12 +0.01    -0.248    26.266
ATOM     28  N   UNL d   1      11.572   8.466  11.577 -0.04 -0.01    -0.248    26.266
ATOM     29 FE   UNL d   1      11.869   6.506  11.169 -0.03 -0.00    +0.000    26.266
ATOM     30  O   UNL d   1      10.847   6.134  10.056 -0.30 -0.00    +0.000    26.266
ATOM     31  O   UNL d   1      10.331   6.706  11.430 -0.35 -0.00    +0.000    26.266
ATOM     32  C   UNL d   1      13.168   9.319   6.451 -0.03 +0.00    +0.052    26.266
ATOM     33  C   UNL d   1      11.949   9.474   5.546 -0.07 +0.02    +0.115    26.266
ATOM     34  C   UNL d   1      10.662   9.572   6.327 -0.12 +0.06    +0.139    26.266
ATOM     35  O   UNL d   1       9.753   8.792   6.092 -0.04 -0.32    -0.650    26.266
ATOM     36  O   UNL d   1      10.479  10.524   7.265 -0.09 -0.49    -0.776    26.266
ATOM     37  H   UNL d   1      10.112  10.322   8.133 +0.03 +0.13    +0.167    26.266
ATOM     38  C   UNL d   1      11.626  12.115  10.881 -0.02 +0.00    +0.052    26.266
ATOM     39  C   UNL d   1      10.331  12.899  11.087 -0.05 +0.01    +0.115    26.266
ATOM     40  C   UNL d   1       9.212  12.404  10.205 -0.10 +0.06    +0.139    26.266
ATOM     41  O   UNL d   1       8.102  12.221  10.680 -0.56 -0.37    -0.650    26.266
ATOM     42  O   UNL d   1       9.400  12.208   8.886 -0.34 -0.73    -0.776    26.266
ATOM     43  H   UNL d   1      10.172  11.736   8.551 +0.02 +0.12    +0.167    26.266
ATOM     44  C   UNL d   1      12.681   0.830  11.423 -0.17 -0.00    +0.004    26.266
ATOM     45  C   UNL d   1      12.181   0.285  12.531 -0.38 -0.00    +0.012    26.266
ATOM     46  C   UNL d   1       9.802   6.709  16.339 -0.26 -0.00    +0.004    26.266
ATOM     47  C   UNL d   1       8.610   7.314  16.420 -0.31 -0.00    +0.012    26.266
TER
ENDMDL
MODEL       41
USER    Run = 41
USER    Cluster Rank = 35
USER    Number of conformations in this cluster = 1
USER  
USER    RMSD from reference structure       = 22.541 A
USER  
USER    Estimated Free Energy of Binding    =   -4.74 kcal/mol  [=(1)+(2)+(3)-(4)]
USER    Estimated Inhibition Constant, Ki   =  336.75 uM (micromolar)  [Temperature = 298.15 K]
USER    
USER    (1) Final Intermolecular Energy     =   -7.72 kcal/mol
USER        vdW + Hbond + desolv Energy     =   -6.73 kcal/mol
USER        Electrostatic Energy            =   -0.99 kcal/mol
USER    (2) Final Total Internal Energy     =   -2.28 kcal/mol
USER    (3) Torsional Free Energy           =   +2.98 kcal/mol
USER    (4) Unbound System's Energy  [=(2)] =   -2.28 kcal/mol
USER    
USER    
USER  
USER    DPF = D:/Protein_go_brrr/autodock/final/mut_K82N/heme_O2/dock.dpf
USER    NEWDPF move	heme_O2_opt.pdbqt
USER    NEWDPF about	8.287000 34.468000 -0.670000
USER    NEWDPF tran0	6.735543 15.987025 -13.493902
USER    NEWDPF axisangle0	-0.205063 0.143697 -0.968143 154.260005
USER    NEWDPF quaternion0	-0.199911 0.140087 -0.943821 0.222740
USER    NEWDPF dihe0	25.45 147.53 17.91 19.08 88.49 -64.28 111.65 117.10 -127.73 -179.97 
USER  
USER                              x       y       z    vdW   Elec        q     RMS 
ATOM      1  C   UNL d   1       7.732  15.070 -15.127 -0.04 +0.00    +0.064    22.541
ATOM      2  C   UNL d   1       9.234  16.537 -10.866 -0.16 -0.00    +0.064    22.541
ATOM      3  C   UNL d   1       4.828  18.095  -9.746 -0.14 -0.02    +0.064    22.541
ATOM      4  C   UNL d   1       3.167  16.158 -13.936 -0.18 -0.02    +0.064    22.541
ATOM      5  C   UNL d   1       8.499  15.340 -14.058 -0.05 +0.00    +0.066    22.541
ATOM      6  C   UNL d   1       9.868  15.063 -13.988 -0.05 -0.00    -0.021    22.541
ATOM      7  C   UNL d   1      10.295  15.448 -12.738 -0.08 +0.00    -0.025    22.541
ATOM      8  C   UNL d   1       9.186  15.994 -12.098 -0.11 -0.00    +0.066    22.541
ATOM      9  C   UNL d   1      11.699  15.259 -12.207 -0.07 -0.00    +0.051    22.541
ATOM     10  C   UNL d   1       8.110  17.144 -10.152 -0.18 -0.01    +0.066    22.541
ATOM     11  C   UNL d   1       8.250  17.839  -8.946 -0.12 +0.00    -0.021    22.541
ATOM     12  C   UNL d   1       6.993  18.312  -8.616 -0.23 -0.00    +0.000    22.541
ATOM     13  C   UNL d   1       6.136  17.858  -9.657 -0.22 -0.02    +0.070    22.541
ATOM     14  C   UNL d   1       9.533  18.067  -8.156 -0.08 -0.00    +0.052    22.541
ATOM     15  C   UNL d   1       3.920  17.623 -10.764 -0.19 -0.02    +0.066    22.541
ATOM     16  C   UNL d   1       2.534  17.767 -10.715 -0.25 +0.01    -0.021    22.541
ATOM     17  C   UNL d   1       2.038  17.221 -11.899 -0.27 -0.00    +0.000    22.541
ATOM     18  C   UNL d   1       3.175  16.781 -12.592 -0.19 -0.02    +0.070    22.541
ATOM     19  C   UNL d   1       1.809  18.356  -9.531 -0.33 -0.02    +0.052    22.541
ATOM     20  C   UNL d   1       4.233  15.685 -14.611 -0.12 -0.01    +0.066    22.541
ATOM     21  C   UNL d   1       4.166  15.124 -15.883 -0.11 +0.01    -0.025    22.541
ATOM     22  C   UNL d   1       5.461  14.833 -16.249 -0.07 +0.00    -0.021    22.541
ATOM     23  C   UNL d   1       6.272  15.213 -15.175 -0.06 -0.00    +0.066    22.541
ATOM     24  C   UNL d   1       2.929  14.874 -16.705 -0.14 -0.03    +0.051    22.541
ATOM     25  N   UNL d   1       8.066  15.867 -12.887 -0.05 +0.01    -0.248    22.541
ATOM     26  N   UNL d   1       6.823  17.144 -10.585 -0.13 +0.04    -0.248    22.541
ATOM     27  N   UNL d   1       4.300  16.966 -11.856 -0.10 +0.05    -0.248    22.541
ATOM     28  N   UNL d   1       5.517  15.689 -14.163 -0.05 +0.02    -0.248    22.541
ATOM     29 FE   UNL d   1       6.163  16.412 -12.386 -0.03 -0.00    +0.000    22.541
ATOM     30  O   UNL d   1       6.697  15.187 -11.587 -0.39 -0.00    +0.000    22.541
ATOM     31  O   UNL d   1       5.202  15.204 -12.083 -0.41 -0.00    +0.000    22.541
ATOM     32  C   UNL d   1      10.717  14.339 -15.001 -0.03 +0.00    +0.052    22.541
ATOM     33  C   UNL d   1      10.041  13.088 -15.553 -0.04 +0.01    +0.115    22.541
ATOM     34  C   UNL d   1       9.955  11.982 -14.531 -0.11 +0.02    +0.139    22.541
ATOM     35  O   UNL d   1      10.980  11.500 -14.076 +0.02 -0.07    -0.650    22.541
ATOM     36  O   UNL d   1       8.766  11.489 -14.126 -0.01 -0.32    -0.776    22.541
ATOM     37  H   UNL d   1       7.980  11.531 -14.683 +0.04 +0.10    +0.167    22.541
ATOM     38  C   UNL d   1       5.882  14.167 -17.534 -0.04 -0.00    +0.052    22.541
ATOM     39  C   UNL d   1       5.654  12.658 -17.509 -0.09 +0.01    +0.115    22.541
ATOM     40  C   UNL d   1       6.498  11.964 -16.470 -0.10 +0.06    +0.139    22.541
ATOM     41  O   UNL d   1       6.146  11.968 -15.301 -0.43 -0.45    -0.650    22.541
ATOM     42  O   UNL d   1       7.613  11.292 -16.815 -0.12 -0.39    -0.776    22.541
ATOM     43  H   UNL d   1       8.361  11.211 -16.211 +0.02 +0.08    +0.167    22.541
ATOM     44  C   UNL d   1       6.744  19.128  -7.365 -0.30 -0.00    +0.004    22.541
ATOM     45  C   UNL d   1       5.574  19.430  -6.803 -0.39 -0.00    +0.012    22.541
ATOM     46  C   UNL d   1       0.626  17.035 -12.386 -0.31 -0.00    +0.004    22.541
ATOM     47  C   UNL d   1      -0.500  17.559 -11.885 -0.26 -0.00    +0.012    22.541
TER
ENDMDL
MODEL       46
USER    Run = 46
USER    Cluster Rank = 36
USER    Number of conformations in this cluster = 1
USER  
USER    RMSD from reference structure       = 26.869 A
USER  
USER    Estimated Free Energy of Binding    =   -4.69 kcal/mol  [=(1)+(2)+(3)-(4)]
USER    Estimated Inhibition Constant, Ki   =  366.91 uM (micromolar)  [Temperature = 298.15 K]
USER    
USER    (1) Final Intermolecular Energy     =   -7.67 kcal/mol
USER        vdW + Hbond + desolv Energy     =   -5.97 kcal/mol
USER        Electrostatic Energy            =   -1.70 kcal/mol
USER    (2) Final Total Internal Energy     =   -2.14 kcal/mol
USER    (3) Torsional Free Energy           =   +2.98 kcal/mol
USER    (4) Unbound System's Energy  [=(2)] =   -2.14 kcal/mol
USER    
USER    
USER  
USER    DPF = D:/Protein_go_brrr/autodock/final/mut_K82N/heme_O2/dock.dpf
USER    NEWDPF move	heme_O2_opt.pdbqt
USER    NEWDPF about	8.287000 34.468000 -0.670000
USER    NEWDPF tran0	-11.612247 13.640589 -6.402067
USER    NEWDPF axisangle0	-0.200027 -0.334370 0.920970 -119.248003
USER    NEWDPF quaternion0	-0.172568 -0.288470 0.794544 -0.505672
USER    NEWDPF dihe0	69.55 169.89 -25.53 125.13 -103.16 167.52 -30.93 94.19 152.72 160.85 
USER  
USER                              x       y       z    vdW   Elec        q     RMS 
ATOM      1  C   UNL d   1     -10.781  11.985  -7.435 -0.18 +0.02    +0.064    26.869
ATOM      2  C   UNL d   1     -11.463  12.872  -2.819 -0.26 +0.02    +0.064    26.869
ATOM      3  C   UNL d   1     -13.326  17.186  -3.829 -0.11 +0.03    +0.064    26.869
ATOM      4  C   UNL d   1     -13.070  16.088  -8.604 -0.09 +0.05    +0.064    26.869
ATOM      5  C   UNL d   1     -10.816  11.874  -6.097 -0.21 +0.02    +0.066    26.869
ATOM      6  C   UNL d   1     -10.339  10.766  -5.391 -0.28 -0.01    -0.021    26.869
ATOM      7  C   UNL d   1     -10.576  11.003  -4.057 -0.36 -0.01    -0.025    26.869
ATOM      8  C   UNL d   1     -11.147  12.270  -3.982 -0.27 +0.02    +0.066    26.869
ATOM      9  C   UNL d   1     -10.283  10.026  -2.939 -0.38 +0.01    +0.051    26.869
ATOM     10  C   UNL d   1     -12.043  14.208  -2.676 -0.18 +0.02    +0.066    26.869
ATOM     11  C   UNL d   1     -12.200  14.851  -1.442 -0.29 -0.00    -0.021    26.869
ATOM     12  C   UNL d   1     -12.719  16.103  -1.714 -0.22 +0.00    +0.000    26.869
ATOM     13  C   UNL d   1     -12.864  16.150  -3.128 -0.14 +0.03    +0.070    26.869
ATOM     14  C   UNL d   1     -11.844  14.303  -0.065 -0.29 +0.01    +0.052    26.869
ATOM     15  C   UNL d   1     -13.521  17.260  -5.257 +0.01 +0.04    +0.066    26.869
ATOM     16  C   UNL d   1     -14.161  18.311  -5.914 -0.06 -0.01    -0.021    26.869
ATOM     17  C   UNL d   1     -14.101  18.019  -7.276 -0.06 +0.00    +0.000    26.869
ATOM     18  C   UNL d   1     -13.418  16.797  -7.350 -0.01 +0.06    +0.070    26.869
ATOM     19  C   UNL d   1     -14.815  19.459  -5.186 -0.02 +0.01    +0.052    26.869
ATOM     20  C   UNL d   1     -12.453  14.895  -8.708 -0.12 +0.04    +0.066    26.869
ATOM     21  C   UNL d   1     -12.136  14.284  -9.918 -0.11 -0.01    -0.025    26.869
ATOM     22  C   UNL d   1     -11.459  13.127  -9.605 -0.13 -0.01    -0.021    26.869
ATOM     23  C   UNL d   1     -11.404  13.065  -8.209 -0.17 +0.03    +0.066    26.869
ATOM     24  C   UNL d   1     -12.465  14.778 -11.303 -0.06 +0.01    +0.051    26.869
ATOM     25  N   UNL d   1     -11.355  12.778  -5.243 -0.14 -0.09    -0.248    26.869
ATOM     26  N   UNL d   1     -12.455  14.992  -3.705 -0.11 -0.11    -0.248    26.869
ATOM     27  N   UNL d   1     -13.140  16.315  -6.112 +0.08 -0.21    -0.248    26.869
ATOM     28  N   UNL d   1     -12.049  14.118  -7.668 -0.11 -0.16    -0.248    26.869
ATOM     29 FE   UNL d   1     -12.252  14.554  -5.702 -0.05 +0.00    +0.000    26.869
ATOM     30  O   UNL d   1     -13.227  13.490  -5.119 -0.11 +0.00    +0.000    26.869
ATOM     31  O   UNL d   1     -13.698  14.413  -6.305 -0.09 +0.00    +0.000    26.869
ATOM     32  C   UNL d   1      -9.806   9.473  -5.953 -0.29 +0.02    +0.052    26.869
ATOM     33  C   UNL d   1     -10.560   8.249  -5.440 -0.23 +0.07    +0.115    26.869
ATOM     34  C   UNL d   1     -10.639   7.149  -6.469 -0.18 +0.13    +0.139    26.869
ATOM     35  O   UNL d   1      -9.945   6.153  -6.343 -0.42 -1.03    -0.650    26.869
ATOM     36  O   UNL d   1     -11.442   7.252  -7.548 +0.03 -0.57    -0.776    26.869
ATOM     37  H   UNL d   1     -11.260   7.873  -8.263 +0.03 +0.07    +0.167    26.869
ATOM     38  C   UNL d   1     -10.953  12.110 -10.595 -0.10 +0.02    +0.052    26.869
ATOM     39  C   UNL d   1     -11.912  10.933 -10.762 -0.02 +0.02    +0.115    26.869
ATOM     40  C   UNL d   1     -11.669   9.843  -9.748 -0.01 +0.03    +0.139    26.869
ATOM     41  O   UNL d   1     -10.533   9.441  -9.551 +0.04 -0.14    -0.650    26.869
ATOM     42  O   UNL d   1     -12.679   9.337  -9.015 +0.03 -0.18    -0.776    26.869
ATOM     43  H   UNL d   1     -12.552   8.571  -8.442 +0.01 +0.05    +0.167    26.869
ATOM     44  C   UNL d   1     -13.021  17.104  -0.618 -0.17 +0.00    +0.004    26.869
ATOM     45  C   UNL d   1     -12.988  18.434  -0.692 -0.13 +0.00    +0.012    26.869
ATOM     46  C   UNL d   1     -14.667  18.745  -8.468 -0.02 +0.00    +0.004    26.869
ATOM     47  C   UNL d   1     -14.006  19.286  -9.499 -0.02 +0.00    +0.012    26.869
TER
ENDMDL
MODEL       97
USER    Run = 97
USER    Cluster Rank = 37
USER    Number of conformations in this cluster = 1
USER  
USER    RMSD from reference structure       = 36.808 A
USER  
USER    Estimated Free Energy of Binding    =   -4.68 kcal/mol  [=(1)+(2)+(3)-(4)]
USER    Estimated Inhibition Constant, Ki   =  370.65 uM (micromolar)  [Temperature = 298.15 K]
USER    
USER    (1) Final Intermolecular Energy     =   -7.66 kcal/mol
USER        vdW + Hbond + desolv Energy     =   -4.95 kcal/mol
USER        Electrostatic Energy            =   -2.72 kcal/mol
USER    (2) Final Total Internal Energy     =   -1.56 kcal/mol
USER    (3) Torsional Free Energy           =   +2.98 kcal/mol
USER    (4) Unbound System's Energy  [=(2)] =   -1.56 kcal/mol
USER    
USER    
USER  
USER    DPF = D:/Protein_go_brrr/autodock/final/mut_K82N/heme_O2/dock.dpf
USER    NEWDPF move	heme_O2_opt.pdbqt
USER    NEWDPF about	8.287000 34.468000 -0.670000
USER    NEWDPF tran0	13.848539 1.888688 22.870468
USER    NEWDPF axisangle0	-0.262055 -0.740544 0.618807 116.976578
USER    NEWDPF quaternion0	-0.223411 -0.631339 0.527553 0.522673
USER    NEWDPF dihe0	39.48 53.65 -103.67 58.89 -106.39 165.47 139.30 125.53 28.06 37.19 
USER  
USER                              x       y       z    vdW   Elec        q     RMS 
ATOM      1  C   UNL d   1      14.673   3.319  24.203 -0.05 +0.04    +0.064    36.808
ATOM      2  C   UNL d   1      13.556  -1.269  24.712 -0.05 +0.02    +0.064    36.808
ATOM      3  C   UNL d   1      11.965  -1.480  20.182 -0.25 +0.00    +0.064    36.808
ATOM      4  C   UNL d   1      13.551   3.112  19.498 -0.10 +0.01    +0.064    36.808
ATOM      5  C   UNL d   1      14.500   2.088  24.710 -0.07 +0.05    +0.066    36.808
ATOM      6  C   UNL d   1      14.818   1.731  26.024 -0.06 -0.01    -0.021    36.808
ATOM      7  C   UNL d   1      14.536   0.392  26.160 -0.04 -0.01    -0.025    36.808
ATOM      8  C   UNL d   1      14.008  -0.021  24.939 -0.07 +0.03    +0.066    36.808
ATOM      9  C   UNL d   1      14.801  -0.427  27.404 -0.01 +0.01    +0.051    36.808
ATOM     10  C   UNL d   1      12.972  -1.755  23.461 -0.08 +0.01    +0.066    36.808
ATOM     11  C   UNL d   1      12.369  -3.011  23.330 -0.06 -0.00    -0.021    36.808
ATOM     12  C   UNL d   1      11.888  -3.084  22.035 -0.15 +0.00    +0.000    36.808
ATOM     13  C   UNL d   1      12.243  -1.845  21.433 -0.18 +0.01    +0.070    36.808
ATOM     14  C   UNL d   1      12.234  -4.086  24.402 -0.03 +0.00    +0.052    36.808
ATOM     15  C   UNL d   1      12.338  -0.251  19.524 -0.25 +0.01    +0.066    36.808
ATOM     16  C   UNL d   1      12.160   0.004  18.165 -0.34 +0.00    -0.021    36.808
ATOM     17  C   UNL d   1      12.606   1.307  17.946 -0.24 -0.00    +0.000    36.808
ATOM     18  C   UNL d   1      13.026   1.757  19.206 -0.17 +0.01    +0.070    36.808
ATOM     19  C   UNL d   1      11.639  -1.028  17.196 -0.40 -0.01    +0.052    36.808
ATOM     20  C   UNL d   1      14.002   3.561  20.685 -0.09 +0.02    +0.066    36.808
ATOM     21  C   UNL d   1      14.469   4.855  20.903 -0.05 -0.01    -0.025    36.808
ATOM     22  C   UNL d   1      14.767   4.940  22.244 -0.05 -0.01    -0.021    36.808
ATOM     23  C   UNL d   1      14.487   3.685  22.793 -0.06 +0.03    +0.066    36.808
ATOM     24  C   UNL d   1      14.625   5.952  19.882 -0.02 +0.01    +0.051    36.808
ATOM     25  N   UNL d   1      14.048   1.008  24.027 -0.08 -0.15    -0.248    36.808
ATOM     26  N   UNL d   1      12.906  -1.044  22.306 -0.10 -0.06    -0.248    36.808
ATOM     27  N   UNL d   1      12.925   0.773  20.136 -0.13 -0.05    -0.248    36.808
ATOM     28  N   UNL d   1      14.065   2.837  21.833 -0.08 -0.11    -0.248    36.808
ATOM     29 FE   UNL d   1      13.490   0.910  22.065 -0.03 +0.00    +0.000    36.808
ATOM     30  O   UNL d   1      14.782   0.107  22.391 -0.06 +0.00    +0.000    36.808
ATOM     31  O   UNL d   1      14.689   0.925  21.049 -0.08 +0.00    +0.000    36.808
ATOM     32  C   UNL d   1      15.490   2.578  27.073 -0.02 +0.02    +0.052    36.808
ATOM     33  C   UNL d   1      14.560   2.939  28.228 -0.02 +0.05    +0.115    36.808
ATOM     34  C   UNL d   1      13.184   3.339  27.755 +0.02 +0.14    +0.139    36.808
ATOM     35  O   UNL d   1      12.261   2.546  27.847 -0.06 -0.84    -0.650    36.808
ATOM     36  O   UNL d   1      12.954   4.548  27.204 -0.28 -1.08    -0.776    36.808
ATOM     37  H   UNL d   1      13.579   4.960  26.596 -0.00 +0.18    +0.167    36.808
ATOM     38  C   UNL d   1      15.349   6.143  22.939 -0.02 +0.01    +0.052    36.808
ATOM     39  C   UNL d   1      14.714   6.390  24.306 -0.03 +0.04    +0.115    36.808
ATOM     40  C   UNL d   1      13.214   6.525  24.229 -0.06 +0.09    +0.139    36.808
ATOM     41  O   UNL d   1      12.715   7.285  23.414 -0.00 -0.25    -0.650    36.808
ATOM     42  O   UNL d   1      12.407   5.780  25.010 -0.29 -1.18    -0.776    36.808
ATOM     43  H   UNL d   1      12.488   5.788  25.971 -0.00 +0.24    +0.167    36.808
ATOM     44  C   UNL d   1      11.158  -4.305  21.517 -0.13 +0.00    +0.004    36.808
ATOM     45  C   UNL d   1       9.929  -4.717  21.827 -0.16 -0.00    +0.012    36.808
ATOM     46  C   UNL d   1      12.719   2.114  16.680 -0.19 -0.00    +0.004    36.808
ATOM     47  C   UNL d   1      11.776   2.343  15.757 -0.29 -0.00    +0.012    36.808
TER
ENDMDL
MODEL       51
USER    Run = 51
USER    Cluster Rank = 38
USER    Number of conformations in this cluster = 1
USER  
USER    RMSD from reference structure       = 39.160 A
USER  
USER    Estimated Free Energy of Binding    =   -4.65 kcal/mol  [=(1)+(2)+(3)-(4)]
USER    Estimated Inhibition Constant, Ki   =  390.69 uM (micromolar)  [Temperature = 298.15 K]
USER    
USER    (1) Final Intermolecular Energy     =   -7.63 kcal/mol
USER        vdW + Hbond + desolv Energy     =   -6.80 kcal/mol
USER        Electrostatic Energy            =   -0.83 kcal/mol
USER    (2) Final Total Internal Energy     =   -0.62 kcal/mol
USER    (3) Torsional Free Energy           =   +2.98 kcal/mol
USER    (4) Unbound System's Energy  [=(2)] =   -0.62 kcal/mol
USER    
USER    
USER  
USER    DPF = D:/Protein_go_brrr/autodock/final/mut_K82N/heme_O2/dock.dpf
USER    NEWDPF move	heme_O2_opt.pdbqt
USER    NEWDPF about	8.287000 34.468000 -0.670000
USER    NEWDPF tran0	12.974400 -6.424557 4.683431
USER    NEWDPF axisangle0	0.719292 0.694116 -0.028667 -146.948299
USER    NEWDPF quaternion0	0.689579 0.665443 -0.027482 -0.284448
USER    NEWDPF dihe0	-58.88 -110.55 -103.21 122.81 -91.79 -70.67 59.72 -30.19 163.97 -179.89 
USER  
USER                              x       y       z    vdW   Elec        q     RMS 
ATOM      1  C   UNL d   1      13.053  -7.740   6.346 +0.02 +0.01    +0.064    39.160
ATOM      2  C   UNL d   1      11.903  -8.399   1.785 -0.20 +0.00    +0.064    39.160
ATOM      3  C   UNL d   1      12.630  -3.745   0.833 -0.21 -0.00    +0.064    39.160
ATOM      4  C   UNL d   1      14.276  -3.149   5.416 -0.18 +0.01    +0.064    39.160
ATOM      5  C   UNL d   1      12.682  -8.299   5.182 -0.25 +0.01    +0.066    39.160
ATOM      6  C   UNL d   1      12.351  -9.649   5.033 -0.28 -0.00    -0.021    39.160
ATOM      7  C   UNL d   1      12.060  -9.850   3.704 -0.24 -0.00    -0.025    39.160
ATOM      8  C   UNL d   1      12.174  -8.608   3.087 -0.23 +0.00    +0.066    39.160
ATOM      9  C   UNL d   1      11.723 -11.189   3.085 -0.14 +0.01    +0.051    39.160
ATOM     10  C   UNL d   1      11.982  -7.115   1.087 -0.18 +0.00    +0.066    39.160
ATOM     11  C   UNL d   1      11.533  -6.922  -0.224 -0.15 -0.00    -0.021    39.160
ATOM     12  C   UNL d   1      11.717  -5.582  -0.510 -0.16 +0.00    +0.000    39.160
ATOM     13  C   UNL d   1      12.293  -5.024   0.664 -0.17 -0.00    +0.070    39.160
ATOM     14  C   UNL d   1      10.927  -7.967  -1.154 -0.06 +0.00    +0.052    39.160
ATOM     15  C   UNL d   1      13.247  -3.147   1.992 -0.13 -0.00    +0.066    39.160
ATOM     16  C   UNL d   1      13.726  -1.838   2.047 -0.16 -0.00    -0.021    39.160
ATOM     17  C   UNL d   1      14.201  -1.646   3.344 -0.13 +0.00    +0.000    39.160
ATOM     18  C   UNL d   1      13.972  -2.868   3.993 -0.02 +0.00    +0.070    39.160
ATOM     19  C   UNL d   1      13.737  -0.917   0.854 -0.17 +0.01    +0.052    39.160
ATOM     20  C   UNL d   1      14.109  -4.322   6.058 -0.21 +0.01    +0.066    39.160
ATOM     21  C   UNL d   1      14.398  -4.522   7.405 -0.24 -0.00    -0.025    39.160
ATOM     22  C   UNL d   1      14.030  -5.816   7.694 -0.29 -0.00    -0.021    39.160
ATOM     23  C   UNL d   1      13.545  -6.366   6.503 -0.25 +0.01    +0.066    39.160
ATOM     24  C   UNL d   1      14.998  -3.529   8.366 -0.19 -0.00    +0.051    39.160
ATOM     25  N   UNL d   1      12.621  -7.666   3.985 -0.14 -0.02    -0.248    39.160
ATOM     26  N   UNL d   1      12.455  -5.964   1.629 -0.13 +0.00    -0.248    39.160
ATOM     27  N   UNL d   1      13.462  -3.790   3.137 -0.05 -0.01    -0.248    39.160
ATOM     28  N   UNL d   1      13.637  -5.468   5.501 -0.14 -0.03    -0.248    39.160
ATOM     29 FE   UNL d   1      13.052  -5.712   3.579 -0.05 +0.00    +0.000    39.160
ATOM     30  O   UNL d   1      14.052  -6.721   2.943 -0.11 +0.00    +0.000    39.160
ATOM     31  O   UNL d   1      14.588  -5.376   3.565 -0.11 +0.00    +0.000    39.160
ATOM     32  C   UNL d   1      12.438 -10.740   6.069 -0.23 +0.01    +0.052    39.160
ATOM     33  C   UNL d   1      13.513 -11.775   5.751 -0.11 +0.03    +0.115    39.160
ATOM     34  C   UNL d   1      12.955 -13.173   5.654 -0.03 +0.07    +0.139    39.160
ATOM     35  O   UNL d   1      13.025 -13.778   4.596 -0.01 -0.26    -0.650    39.160
ATOM     36  O   UNL d   1      12.353 -13.765   6.706 -0.16 -0.71    -0.776    39.160
ATOM     37  H   UNL d   1      12.807 -13.900   7.546 +0.02 +0.07    +0.167    39.160
ATOM     38  C   UNL d   1      14.198  -6.500   9.026 -0.32 -0.00    +0.052    39.160
ATOM     39  C   UNL d   1      15.635  -6.957   9.269 -0.16 +0.00    +0.115    39.160
ATOM     40  C   UNL d   1      16.009  -6.929  10.730 -0.18 +0.00    +0.139    39.160
ATOM     41  O   UNL d   1      15.569  -7.780  11.485 -0.05 -0.02    -0.650    39.160
ATOM     42  O   UNL d   1      16.866  -6.007  11.210 +0.03 -0.03    -0.776    39.160
ATOM     43  H   UNL d   1      17.763  -6.241  11.476 +0.03 +0.00    +0.167    39.160
ATOM     44  C   UNL d   1      11.336  -4.987  -1.849 -0.22 +0.00    +0.004    39.160
ATOM     45  C   UNL d   1      10.113  -4.748  -2.321 -0.30 +0.00    +0.012    39.160
ATOM     46  C   UNL d   1      14.882  -0.465   3.982 -0.08 +0.00    +0.004    39.160
ATOM     47  C   UNL d   1      14.444   0.300   4.990 -0.12 +0.00    +0.012    39.160
TER
ENDMDL
MODEL       70
USER    Run = 70
USER    Cluster Rank = 39
USER    Number of conformations in this cluster = 1
USER  
USER    RMSD from reference structure       = 19.877 A
USER  
USER    Estimated Free Energy of Binding    =   -4.63 kcal/mol  [=(1)+(2)+(3)-(4)]
USER    Estimated Inhibition Constant, Ki   =  404.82 uM (micromolar)  [Temperature = 298.15 K]
USER    
USER    (1) Final Intermolecular Energy     =   -7.61 kcal/mol
USER        vdW + Hbond + desolv Energy     =   -6.61 kcal/mol
USER        Electrostatic Energy            =   -1.00 kcal/mol
USER    (2) Final Total Internal Energy     =   -2.30 kcal/mol
USER    (3) Torsional Free Energy           =   +2.98 kcal/mol
USER    (4) Unbound System's Energy  [=(2)] =   -2.30 kcal/mol
USER    
USER    
USER  
USER    DPF = D:/Protein_go_brrr/autodock/final/mut_K82N/heme_O2/dock.dpf
USER    NEWDPF move	heme_O2_opt.pdbqt
USER    NEWDPF about	8.287000 34.468000 -0.670000
USER    NEWDPF tran0	11.975684 12.873072 1.727211
USER    NEWDPF axisangle0	0.343408 0.924290 0.166611 -105.767252
USER    NEWDPF quaternion0	0.273837 0.737039 0.132857 -0.603436
USER    NEWDPF dihe0	-112.89 -13.88 -19.64 120.34 110.56 128.11 102.97 -166.78 3.18 -10.15 
USER  
USER                              x       y       z    vdW   Elec        q     RMS 
ATOM      1  C   UNL d   1      11.580  12.417   3.761 -0.09 +0.01    +0.064    19.877
ATOM      2  C   UNL d   1      14.341  10.358   0.489 -0.11 -0.00    +0.064    19.877
ATOM      3  C   UNL d   1      12.992  13.581  -2.810 -0.14 -0.02    +0.064    19.877
ATOM      4  C   UNL d   1      10.517  15.991   0.673 -0.08 -0.01    +0.064    19.877
ATOM      5  C   UNL d   1      12.442  11.595   3.140 -0.10 +0.00    +0.066    19.877
ATOM      6  C   UNL d   1      13.053  10.495   3.751 -0.07 -0.00    -0.021    19.877
ATOM      7  C   UNL d   1      13.885   9.924   2.817 -0.07 -0.00    -0.025    19.877
ATOM      8  C   UNL d   1      13.724  10.662   1.648 -0.10 -0.00    +0.066    19.877
ATOM      9  C   UNL d   1      14.800   8.747   3.078 -0.03 -0.00    +0.051    19.877
ATOM     10  C   UNL d   1      14.193  11.081  -0.775 -0.16 -0.00    +0.066    19.877
ATOM     11  C   UNL d   1      14.727  10.627  -1.987 -0.17 +0.00    -0.021    19.877
ATOM     12  C   UNL d   1      14.334  11.534  -2.954 -0.22 -0.00    +0.000    19.877
ATOM     13  C   UNL d   1      13.576  12.517  -2.260 -0.19 -0.02    +0.070    19.877
ATOM     14  C   UNL d   1      15.554   9.368  -2.217 -0.12 -0.00    +0.052    19.877
ATOM     15  C   UNL d   1      12.246  14.618  -2.138 -0.27 -0.01    +0.066    19.877
ATOM     16  C   UNL d   1      11.800  15.791  -2.745 -0.25 +0.00    -0.021    19.877
ATOM     17  C   UNL d   1      11.092  16.495  -1.770 -0.22 -0.00    +0.000    19.877
ATOM     18  C   UNL d   1      11.159  15.686  -0.627 -0.24 -0.01    +0.070    19.877
ATOM     19  C   UNL d   1      12.132  16.158  -4.169 -0.20 -0.01    +0.052    19.877
ATOM     20  C   UNL d   1      10.598  15.259   1.802 -0.17 -0.00    +0.066    19.877
ATOM     21  C   UNL d   1       9.956  15.589   2.993 -0.14 -0.00    -0.025    19.877
ATOM     22  C   UNL d   1      10.226  14.567   3.875 -0.12 -0.00    -0.021    19.877
ATOM     23  C   UNL d   1      11.040  13.658   3.193 -0.11 +0.00    +0.066    19.877
ATOM     24  C   UNL d   1       9.131  16.817   3.275 -0.17 -0.00    +0.051    19.877
ATOM     25  N   UNL d   1      12.885  11.730   1.866 -0.09 -0.00    -0.248    19.877
ATOM     26  N   UNL d   1      13.499  12.236  -0.934 -0.14 +0.03    -0.248    19.877
ATOM     27  N   UNL d   1      11.926  14.588  -0.847 -0.21 +0.04    -0.248    19.877
ATOM     28  N   UNL d   1      11.300  14.105   1.947 -0.12 +0.00    -0.248    19.877
ATOM     29 FE   UNL d   1      12.391  13.180   0.515 -0.05 -0.00    +0.000    19.877
ATOM     30  O   UNL d   1      13.872  13.241   0.990 -0.10 -0.00    +0.000    19.877
ATOM     31  O   UNL d   1      13.060  14.576   0.790 -0.11 -0.00    +0.000    19.877
ATOM     32  C   UNL d   1      12.965  10.076   5.195 -0.04 +0.00    +0.052    19.877
ATOM     33  C   UNL d   1      11.767   9.174   5.479 -0.09 +0.02    +0.115    19.877
ATOM     34  C   UNL d   1      10.481   9.952   5.610 -0.14 +0.06    +0.139    19.877
ATOM     35  O   UNL d   1      10.478  11.018   6.204 -0.01 -0.36    -0.650    19.877
ATOM     36  O   UNL d   1       9.321   9.481   5.108 -0.29 -0.52    -0.776    19.877
ATOM     37  H   UNL d   1       8.875   9.907   4.366 +0.07 +0.11    +0.167    19.877
ATOM     38  C   UNL d   1       9.776  14.507   5.312 -0.10 +0.01    +0.052    19.877
ATOM     39  C   UNL d   1       8.441  13.785   5.475 -0.18 +0.04    +0.115    19.877
ATOM     40  C   UNL d   1       8.025  13.053   4.223 -0.31 +0.05    +0.139    19.877
ATOM     41  O   UNL d   1       7.392  13.638   3.360 -0.07 -0.12    -0.650    19.877
ATOM     42  O   UNL d   1       8.386  11.772   4.015 -0.09 -0.40    -0.776    19.877
ATOM     43  H   UNL d   1       9.043  11.335   4.570 +0.05 +0.11    +0.167    19.877
ATOM     44  C   UNL d   1      14.717  11.373  -4.410 -0.22 -0.00    +0.004    19.877
ATOM     45  C   UNL d   1      14.094  11.866  -5.480 -0.28 -0.00    +0.012    19.877
ATOM     46  C   UNL d   1      10.431  17.847  -1.812 -0.23 -0.00    +0.004    19.877
ATOM     47  C   UNL d   1       9.126  18.134  -1.732 -0.34 -0.00    +0.012    19.877
TER
ENDMDL
MODEL       33
USER    Run = 33
USER    Cluster Rank = 40
USER    Number of conformations in this cluster = 1
USER  
USER    RMSD from reference structure       = 30.846 A
USER  
USER    Estimated Free Energy of Binding    =   -4.62 kcal/mol  [=(1)+(2)+(3)-(4)]
USER    Estimated Inhibition Constant, Ki   =  410.81 uM (micromolar)  [Temperature = 298.15 K]
USER    
USER    (1) Final Intermolecular Energy     =   -7.60 kcal/mol
USER        vdW + Hbond + desolv Energy     =   -7.56 kcal/mol
USER        Electrostatic Energy            =   -0.04 kcal/mol
USER    (2) Final Total Internal Energy     =   -2.34 kcal/mol
USER    (3) Torsional Free Energy           =   +2.98 kcal/mol
USER    (4) Unbound System's Energy  [=(2)] =   -2.34 kcal/mol
USER    
USER    
USER  
USER    DPF = D:/Protein_go_brrr/autodock/final/mut_K82N/heme_O2/dock.dpf
USER    NEWDPF move	heme_O2_opt.pdbqt
USER    NEWDPF about	8.287000 34.468000 -0.670000
USER    NEWDPF tran0	11.592717 4.218158 14.571920
USER    NEWDPF axisangle0	0.802769 -0.586192 0.109277 -134.922801
USER    NEWDPF quaternion0	0.741454 -0.541419 0.100931 -0.383306
USER    NEWDPF dihe0	-137.81 2.07 53.14 -32.64 87.90 119.20 114.24 -164.38 4.62 -16.61 
USER  
USER                              x       y       z    vdW   Elec        q     RMS 
ATOM      1  C   UNL d   1      10.540   6.045  14.341 -0.23 -0.01    +0.064    30.846
ATOM      2  C   UNL d   1      12.418   3.007  11.210 -0.14 -0.00    +0.064    30.846
ATOM      3  C   UNL d   1      14.017   0.192  14.762 -0.17 -0.01    +0.064    30.846
ATOM      4  C   UNL d   1      11.675   3.060  17.980 -0.16 +0.00    +0.064    30.846
ATOM      5  C   UNL d   1      10.919   5.447  13.200 -0.21 -0.01    +0.066    30.846
ATOM      6  C   UNL d   1      10.667   5.963  11.925 -0.27 +0.00    -0.021    30.846
ATOM      7  C   UNL d   1      11.173   5.063  11.017 -0.20 +0.00    -0.025    30.846
ATOM      8  C   UNL d   1      11.762   4.046  11.762 -0.10 -0.00    +0.066    30.846
ATOM      9  C   UNL d   1      11.052   5.190   9.514 -0.29 -0.00    +0.051    30.846
ATOM     10  C   UNL d   1      13.075   1.922  11.941 -0.14 -0.01    +0.066    30.846
ATOM     11  C   UNL d   1      13.882   0.958  11.325 -0.13 +0.00    -0.021    30.846
ATOM     12  C   UNL d   1      14.367   0.148  12.335 -0.15 -0.00    +0.000    30.846
ATOM     13  C   UNL d   1      13.806   0.668  13.535 -0.13 -0.01    +0.070    30.846
ATOM     14  C   UNL d   1      14.199   0.833   9.840 -0.05 -0.00    +0.052    30.846
ATOM     15  C   UNL d   1      13.441   0.667  15.997 -0.14 -0.01    +0.066    30.846
ATOM     16  C   UNL d   1      13.571   0.025  17.228 -0.17 +0.00    -0.021    30.846
ATOM     17  C   UNL d   1      12.910   0.825  18.161 -0.22 +0.00    +0.000    30.846
ATOM     18  C   UNL d   1      12.422   1.909  17.419 -0.20 -0.00    +0.070    30.846
ATOM     19  C   UNL d   1      14.258  -1.307  17.393 -0.19 +0.00    +0.052    30.846
ATOM     20  C   UNL d   1      11.155   4.095  17.291 -0.15 +0.00    +0.066    30.846
ATOM     21  C   UNL d   1      10.476   5.160  17.877 -0.13 -0.00    -0.025    30.846
ATOM     22  C   UNL d   1      10.169   6.033  16.858 -0.17 +0.00    -0.021    30.846
ATOM     23  C   UNL d   1      10.658   5.458  15.681 -0.20 -0.01    +0.066    30.846
ATOM     24  C   UNL d   1      10.135   5.333  19.334 -0.20 +0.01    +0.051    30.846
ATOM     25  N   UNL d   1      11.547   4.250  13.106 -0.11 +0.02    -0.248    30.846
ATOM     26  N   UNL d   1      13.018   1.744  13.285 -0.07 +0.03    -0.248    30.846
ATOM     27  N   UNL d   1      12.689   1.759  16.096 -0.09 +0.03    -0.248    30.846
ATOM     28  N   UNL d   1      11.217   4.259  15.943 -0.13 +0.02    -0.248    30.846
ATOM     29 FE   UNL d   1      12.112   3.009  14.626 -0.04 -0.00    +0.000    30.846
ATOM     30  O   UNL d   1      10.975   2.432  13.733 -0.39 -0.00    +0.000    30.846
ATOM     31  O   UNL d   1      10.925   2.221  15.293 -0.42 -0.00    +0.000    30.846
ATOM     32  C   UNL d   1       9.863   7.186  11.566 -0.30 +0.00    +0.052    30.846
ATOM     33  C   UNL d   1      10.700   8.461  11.548 -0.16 +0.01    +0.115    30.846
ATOM     34  C   UNL d   1      11.174   8.859  12.924 -0.11 +0.01    +0.139    30.846
ATOM     35  O   UNL d   1      10.357   9.151  13.782 -0.52 -0.09    -0.650    30.846
ATOM     36  O   UNL d   1      12.488   8.926  13.222 +0.04 -0.00    -0.776    30.846
ATOM     37  H   UNL d   1      12.841   8.590  14.054 +0.02 -0.00    +0.167    30.846
ATOM     38  C   UNL d   1       9.392   7.316  17.005 -0.19 -0.00    +0.052    30.846
ATOM     39  C   UNL d   1      10.280   8.491  17.409 -0.05 -0.00    +0.115    30.846
ATOM     40  C   UNL d   1      11.747   8.193  17.230 -0.02 -0.00    +0.139    30.846
ATOM     41  O   UNL d   1      12.408   7.807  18.180 +0.02 -0.02    -0.650    30.846
ATOM     42  O   UNL d   1      12.336   8.297  16.022 +0.04 +0.01    -0.776    30.846
ATOM     43  H   UNL d   1      11.857   8.629  15.254 +0.02 -0.00    +0.167    30.846
ATOM     44  C   UNL d   1      15.293  -1.017  12.056 -0.19 -0.00    +0.004    30.846
ATOM     45  C   UNL d   1      15.191  -2.269  12.500 -0.24 -0.00    +0.012    30.846
ATOM     46  C   UNL d   1      12.660   0.626  19.632 -0.25 +0.00    +0.004    30.846
ATOM     47  C   UNL d   1      12.345  -0.507  20.273 -0.28 +0.00    +0.012    30.846
TER
ENDMDL
MODEL       31
USER    Run = 31
USER    Cluster Rank = 41
USER    Number of conformations in this cluster = 1
USER  
USER    RMSD from reference structure       = 34.338 A
USER  
USER    Estimated Free Energy of Binding    =   -4.59 kcal/mol  [=(1)+(2)+(3)-(4)]
USER    Estimated Inhibition Constant, Ki   =  435.01 uM (micromolar)  [Temperature = 298.15 K]
USER    
USER    (1) Final Intermolecular Energy     =   -7.57 kcal/mol
USER        vdW + Hbond + desolv Energy     =   -5.84 kcal/mol
USER        Electrostatic Energy            =   -1.73 kcal/mol
USER    (2) Final Total Internal Energy     =   -2.54 kcal/mol
USER    (3) Torsional Free Energy           =   +2.98 kcal/mol
USER    (4) Unbound System's Energy  [=(2)] =   -2.54 kcal/mol
USER    
USER    
USER  
USER    DPF = D:/Protein_go_brrr/autodock/final/mut_K82N/heme_O2/dock.dpf
USER    NEWDPF move	heme_O2_opt.pdbqt
USER    NEWDPF about	8.287000 34.468000 -0.670000
USER    NEWDPF tran0	-13.338707 4.332775 -2.286699
USER    NEWDPF axisangle0	0.639796 -0.768105 0.026017 -98.838295
USER    NEWDPF quaternion0	0.485918 -0.583367 0.019760 -0.650520
USER    NEWDPF dihe0	139.03 138.91 -73.69 53.48 -133.54 -46.83 115.03 -87.82 17.11 -17.72 
USER  
USER                              x       y       z    vdW   Elec        q     RMS 
ATOM      1  C   UNL d   1     -13.699   6.186  -3.253 -0.12 +0.04    +0.064    34.338
ATOM      2  C   UNL d   1     -14.451   1.684  -4.566 -0.08 +0.03    +0.064    34.338
ATOM      3  C   UNL d   1     -12.589   0.072  -0.440 -0.16 -0.01    +0.064    34.338
ATOM      4  C   UNL d   1     -12.250   4.710   1.124 -0.27 +0.01    +0.064    34.338
ATOM      5  C   UNL d   1     -14.057   5.093  -3.946 -0.05 +0.06    +0.066    34.338
ATOM      6  C   UNL d   1     -14.622   5.127  -5.224 -0.06 -0.02    -0.021    34.338
ATOM      7  C   UNL d   1     -14.880   3.826  -5.588 -0.07 -0.02    -0.025    34.338
ATOM      8  C   UNL d   1     -14.422   3.031  -4.542 -0.05 +0.05    +0.066    34.338
ATOM      9  C   UNL d   1     -15.563   3.405  -6.871 -0.04 +0.02    +0.051    34.338
ATOM     10  C   UNL d   1     -13.964   0.796  -3.510 -0.08 +0.02    +0.066    34.338
ATOM     11  C   UNL d   1     -13.868  -0.592  -3.655 -0.05 -0.00    -0.021    34.338
ATOM     12  C   UNL d   1     -13.317  -1.073  -2.482 -0.06 -0.00    +0.000    34.338
ATOM     13  C   UNL d   1     -13.114   0.073  -1.665 -0.09 +0.00    +0.070    34.338
ATOM     14  C   UNL d   1     -14.261  -1.422  -4.872 -0.03 +0.00    +0.052    34.338
ATOM     15  C   UNL d   1     -12.400   1.206   0.433 -0.20 -0.00    +0.066    34.338
ATOM     16  C   UNL d   1     -11.999   1.119   1.766 -0.24 +0.00    -0.021    34.338
ATOM     17  C   UNL d   1     -11.896   2.429   2.233 -0.33 +0.00    +0.000    34.338
ATOM     18  C   UNL d   1     -12.245   3.228   1.135 -0.24 +0.01    +0.070    34.338
ATOM     19  C   UNL d   1     -11.805  -0.193   2.483 -0.18 -0.01    +0.052    34.338
ATOM     20  C   UNL d   1     -12.621   5.506   0.102 -0.24 +0.01    +0.066    34.338
ATOM     21  C   UNL d   1     -12.587   6.897   0.145 -0.29 -0.00    -0.025    34.338
ATOM     22  C   UNL d   1     -12.971   7.334  -1.103 -0.21 -0.00    -0.021    34.338
ATOM     23  C   UNL d   1     -13.243   6.190  -1.858 -0.15 +0.02    +0.066    34.338
ATOM     24  C   UNL d   1     -12.211   7.765   1.318 -0.31 +0.01    +0.051    34.338
ATOM     25  N   UNL d   1     -13.975   3.815  -3.503 -0.03 -0.20    -0.248    34.338
ATOM     26  N   UNL d   1     -13.515   1.206  -2.296 -0.07 -0.06    -0.248    34.338
ATOM     27  N   UNL d   1     -12.621   2.468   0.075 -0.14 -0.03    -0.248    34.338
ATOM     28  N   UNL d   1     -13.072   5.082  -1.108 -0.13 -0.09    -0.248    34.338
ATOM     29 FE   UNL d   1     -13.292   3.157  -1.695 -0.04 +0.00    +0.000    34.338
ATOM     30  O   UNL d   1     -14.818   2.938  -1.907 -0.08 +0.00    +0.000    34.338
ATOM     31  O   UNL d   1     -14.284   3.401  -0.499 -0.11 +0.00    +0.000    34.338
ATOM     32  C   UNL d   1     -15.033   6.339  -6.020 -0.04 +0.03    +0.052    34.338
ATOM     33  C   UNL d   1     -14.015   6.716  -7.093 -0.04 +0.07    +0.115    34.338
ATOM     34  C   UNL d   1     -12.713   7.201  -6.505 -0.08 +0.11    +0.139    34.338
ATOM     35  O   UNL d   1     -11.931   6.396  -6.024 -0.17 -1.15    -0.650    34.338
ATOM     36  O   UNL d   1     -12.401   8.513  -6.472 +0.06 -0.35    -0.776    34.338
ATOM     37  H   UNL d   1     -11.976   8.918  -5.708 +0.05 +0.07    +0.167    34.338
ATOM     38  C   UNL d   1     -13.127   8.774  -1.519 -0.17 +0.01    +0.052    34.338
ATOM     39  C   UNL d   1     -11.805   9.400  -1.957 -0.06 +0.03    +0.115    34.338
ATOM     40  C   UNL d   1     -11.560   9.253  -3.438 -0.23 +0.04    +0.139    34.338
ATOM     41  O   UNL d   1     -11.826  10.176  -4.191 +0.06 -0.17    -0.650    34.338
ATOM     42  O   UNL d   1     -11.002   8.136  -3.942 -0.02 -0.38    -0.776    34.338
ATOM     43  H   UNL d   1     -11.294   7.760  -4.781 +0.05 +0.11    +0.167    34.338
ATOM     44  C   UNL d   1     -13.049  -2.548  -2.265 -0.09 -0.00    +0.004    34.338
ATOM     45  C   UNL d   1     -11.884  -3.189  -2.347 -0.17 -0.01    +0.012    34.338
ATOM     46  C   UNL d   1     -11.563   2.968   3.599 -0.34 +0.00    +0.004    34.338
ATOM     47  C   UNL d   1     -10.567   2.600   4.415 -0.45 -0.00    +0.012    34.338
TER
ENDMDL
MODEL       23
USER    Run = 23
USER    Cluster Rank = 42
USER    Number of conformations in this cluster = 1
USER  
USER    RMSD from reference structure       = 30.733 A
USER  
USER    Estimated Free Energy of Binding    =   -4.54 kcal/mol  [=(1)+(2)+(3)-(4)]
USER    Estimated Inhibition Constant, Ki   =  466.26 uM (micromolar)  [Temperature = 298.15 K]
USER    
USER    (1) Final Intermolecular Energy     =   -7.53 kcal/mol
USER        vdW + Hbond + desolv Energy     =   -7.55 kcal/mol
USER        Electrostatic Energy            =   +0.02 kcal/mol
USER    (2) Final Total Internal Energy     =   -1.72 kcal/mol
USER    (3) Torsional Free Energy           =   +2.98 kcal/mol
USER    (4) Unbound System's Energy  [=(2)] =   -1.72 kcal/mol
USER    
USER    
USER  
USER    DPF = D:/Protein_go_brrr/autodock/final/mut_K82N/heme_O2/dock.dpf
USER    NEWDPF move	heme_O2_opt.pdbqt
USER    NEWDPF about	8.287000 34.468000 -0.670000
USER    NEWDPF tran0	11.978440 4.683389 15.335678
USER    NEWDPF axisangle0	0.761143 -0.573679 -0.302580 -152.544156
USER    NEWDPF quaternion0	0.739400 -0.557291 -0.293936 -0.237312
USER    NEWDPF dihe0	-90.55 100.61 112.79 -131.15 67.96 68.71 -119.58 31.18 -172.31 180.00 
USER  
USER                              x       y       z    vdW   Elec        q     RMS 
ATOM      1  C   UNL d   1      11.740   6.344  16.634 -0.06 -0.00    +0.064    30.733
ATOM      2  C   UNL d   1      11.258   5.851  11.935 -0.19 -0.00    +0.064    30.733
ATOM      3  C   UNL d   1      12.503   1.217  12.200 -0.26 -0.01    +0.064    30.733
ATOM      4  C   UNL d   1      12.539   1.591  17.091 -0.20 -0.00    +0.064    30.733
ATOM      5  C   UNL d   1      11.506   6.587  15.335 -0.08 -0.00    +0.066    30.733
ATOM      6  C   UNL d   1      11.138   7.837  14.826 -0.11 +0.00    -0.021    30.733
ATOM      7  C   UNL d   1      10.956   7.685  13.472 -0.16 -0.00    -0.025    30.733
ATOM      8  C   UNL d   1      11.264   6.359  13.182 -0.17 -0.00    +0.066    30.733
ATOM      9  C   UNL d   1      10.479   8.774  12.535 -0.18 +0.00    +0.051    30.733
ATOM     10  C   UNL d   1      11.593   4.475  11.567 -0.09 -0.00    +0.066    30.733
ATOM     11  C   UNL d   1      11.730   4.043  10.243 -0.19 +0.00    -0.021    30.733
ATOM     12  C   UNL d   1      12.106   2.714  10.299 -0.18 -0.00    +0.000    30.733
ATOM     13  C   UNL d   1      12.168   2.400  11.685 -0.11 -0.01    +0.070    30.733
ATOM     14  C   UNL d   1      11.536   4.872   8.978 -0.24 +0.00    +0.052    30.733
ATOM     15  C   UNL d   1      12.543   0.849  13.594 -0.23 -0.01    +0.066    30.733
ATOM     16  C   UNL d   1      12.742  -0.450  14.064 -0.31 +0.01    -0.021    30.733
ATOM     17  C   UNL d   1      12.755  -0.368  15.456 -0.30 -0.00    +0.000    30.733
ATOM     18  C   UNL d   1      12.563   0.992  15.735 -0.21 -0.01    +0.070    30.733
ATOM     19  C   UNL d   1      12.845  -1.647  13.153 -0.45 -0.02    +0.052    30.733
ATOM     20  C   UNL d   1      12.314   2.883  17.396 -0.17 -0.00    +0.066    30.733
ATOM     21  C   UNL d   1      12.321   3.392  18.692 -0.19 -0.00    -0.025    30.733
ATOM     22  C   UNL d   1      12.122   4.749  18.579 -0.12 -0.00    -0.021    30.733
ATOM     23  C   UNL d   1      11.982   5.018  17.214 -0.09 +0.00    +0.066    30.733
ATOM     24  C   UNL d   1      12.505   2.621  19.974 -0.09 +0.01    +0.051    30.733
ATOM     25  N   UNL d   1      11.539   5.667  14.340 -0.07 +0.02    -0.248    30.733
ATOM     26  N   UNL d   1      11.850   3.475  12.449 -0.08 +0.02    -0.248    30.733
ATOM     27  N   UNL d   1      12.361   1.704  14.597 -0.10 +0.04    -0.248    30.733
ATOM     28  N   UNL d   1      12.055   3.874  16.502 -0.08 +0.01    -0.248    30.733
ATOM     29 FE   UNL d   1      11.953   3.673  14.491 -0.04 -0.00    +0.000    30.733
ATOM     30  O   UNL d   1      10.479   3.981  14.097 -0.38 -0.00    +0.000    30.733
ATOM     31  O   UNL d   1      10.790   2.815  15.110 -0.42 -0.00    +0.000    30.733
ATOM     32  C   UNL d   1      10.835   9.094  15.598 -0.09 -0.00    +0.052    30.733
ATOM     33  C   UNL d   1       9.369   9.198  16.009 -0.14 -0.01    +0.115    30.733
ATOM     34  C   UNL d   1       8.924   8.029  16.853 -0.18 -0.02    +0.139    30.733
ATOM     35  O   UNL d   1       8.584   6.990  16.311 -0.07 +0.14    -0.650    30.733
ATOM     36  O   UNL d   1       8.866   8.114  18.198 +0.07 +0.05    -0.776    30.733
ATOM     37  H   UNL d   1       9.616   7.884  18.757 +0.04 +0.00    +0.167    30.733
ATOM     38  C   UNL d   1      12.009   5.719  19.727 -0.10 +0.01    +0.052    30.733
ATOM     39  C   UNL d   1      10.637   5.674  20.395 -0.15 +0.03    +0.115    30.733
ATOM     40  C   UNL d   1      10.239   7.003  20.986 -0.06 +0.03    +0.139    30.733
ATOM     41  O   UNL d   1       9.564   7.037  22.002 +0.01 -0.17    -0.650    30.733
ATOM     42  O   UNL d   1      10.658   8.161  20.440 +0.04 -0.07    -0.776    30.733
ATOM     43  H   UNL d   1      10.073   8.706  19.900 +0.02 +0.01    +0.167    30.733
ATOM     44  C   UNL d   1      12.359   1.897   9.049 -0.27 -0.00    +0.004    30.733
ATOM     45  C   UNL d   1      11.465   1.448   8.169 -0.39 -0.00    +0.012    30.733
ATOM     46  C   UNL d   1      12.871  -1.439  16.508 -0.28 -0.00    +0.004    30.733
ATOM     47  C   UNL d   1      12.189  -1.552  17.655 -0.44 -0.00    +0.012    30.733
TER
ENDMDL
MODEL       85
USER    Run = 85
USER    Cluster Rank = 43
USER    Number of conformations in this cluster = 3
USER  
USER    RMSD from reference structure       = 19.010 A
USER  
USER    Estimated Free Energy of Binding    =   -4.51 kcal/mol  [=(1)+(2)+(3)-(4)]
USER    Estimated Inhibition Constant, Ki   =  498.03 uM (micromolar)  [Temperature = 298.15 K]
USER    
USER    (1) Final Intermolecular Energy     =   -7.49 kcal/mol
USER        vdW + Hbond + desolv Energy     =   -7.82 kcal/mol
USER        Electrostatic Energy            =   +0.33 kcal/mol
USER    (2) Final Total Internal Energy     =   -0.86 kcal/mol
USER    (3) Torsional Free Energy           =   +2.98 kcal/mol
USER    (4) Unbound System's Energy  [=(2)] =   -0.86 kcal/mol
USER    
USER    
USER  
USER    DPF = D:/Protein_go_brrr/autodock/final/mut_K82N/heme_O2/dock.dpf
USER    NEWDPF move	heme_O2_opt.pdbqt
USER    NEWDPF about	8.287000 34.468000 -0.670000
USER    NEWDPF tran0	11.916428 14.486879 -1.715182
USER    NEWDPF axisangle0	0.019486 0.886911 -0.461529 -69.212465
USER    NEWDPF quaternion0	0.011067 0.503706 -0.262118 -0.823075
USER    NEWDPF dihe0	-66.70 19.94 -31.99 108.33 -104.42 98.93 143.87 121.97 -144.29 0.92 
USER  
USER                              x       y       z    vdW   Elec        q     RMS 
ATOM      1  C   UNL d   1      10.860  16.018  -0.696 -0.16 -0.01    +0.064    19.010
ATOM      2  C   UNL d   1      13.123  12.126   0.819 -0.11 -0.00    +0.064    19.010
ATOM      3  C   UNL d   1      14.248  10.913  -3.693 -0.28 -0.01    +0.064    19.010
ATOM      4  C   UNL d   1      12.336  15.162  -5.226 -0.05 -0.01    +0.064    19.010
ATOM      5  C   UNL d   1      11.385  15.059   0.085 -0.26 -0.01    +0.066    19.010
ATOM      6  C   UNL d   1      11.260  15.027   1.476 -0.20 +0.00    -0.021    19.010
ATOM      7  C   UNL d   1      11.951  13.924   1.920 -0.16 +0.00    -0.025    19.010
ATOM      8  C   UNL d   1      12.439  13.286   0.782 -0.18 -0.00    +0.066    19.010
ATOM      9  C   UNL d   1      12.139  13.547   3.373 -0.09 +0.00    +0.051    19.010
ATOM     10  C   UNL d   1      13.640  11.399  -0.341 -0.04 -0.00    +0.066    19.010
ATOM     11  C   UNL d   1      14.198  10.118  -0.260 -0.14 +0.00    -0.021    19.010
ATOM     12  C   UNL d   1      14.513   9.743  -1.554 -0.20 -0.00    +0.000    19.010
ATOM     13  C   UNL d   1      14.131  10.846  -2.367 -0.22 -0.01    +0.070    19.010
ATOM     14  C   UNL d   1      14.398   9.276   0.994 -0.11 -0.00    +0.052    19.010
ATOM     15  C   UNL d   1      13.906  12.023  -4.549 -0.23 -0.01    +0.066    19.010
ATOM     16  C   UNL d   1      14.205  12.095  -5.909 -0.22 +0.00    -0.021    19.010
ATOM     17  C   UNL d   1      13.670  13.298  -6.368 -0.24 -0.00    +0.000    19.010
ATOM     18  C   UNL d   1      13.076  13.878  -5.238 -0.24 -0.01    +0.070    19.010
ATOM     19  C   UNL d   1      15.013  11.045  -6.630 -0.15 -0.00    +0.052    19.010
ATOM     20  C   UNL d   1      11.791  15.767  -4.153 -0.22 -0.01    +0.066    19.010
ATOM     21  C   UNL d   1      11.090  16.969  -4.207 -0.19 +0.00    -0.025    19.010
ATOM     22  C   UNL d   1      10.639  17.214  -2.930 -0.21 +0.00    -0.021    19.010
ATOM     23  C   UNL d   1      11.098  16.158  -2.137 -0.17 -0.02    +0.066    19.010
ATOM     24  C   UNL d   1      10.865  17.840  -5.416 -0.13 -0.00    +0.051    19.010
ATOM     25  N   UNL d   1      12.146  14.022  -0.343 -0.20 +0.03    -0.248    19.010
ATOM     26  N   UNL d   1      13.605  11.851  -1.621 -0.17 +0.04    -0.248    19.010
ATOM     27  N   UNL d   1      13.294  13.127  -4.128 -0.13 +0.06    -0.248    19.010
ATOM     28  N   UNL d   1      11.836  15.304  -2.876 -0.20 +0.06    -0.248    19.010
ATOM     29 FE   UNL d   1      12.715  13.590  -2.256 -0.06 -0.00    +0.000    19.010
ATOM     30  O   UNL d   1      13.893  14.015  -1.330 -0.14 -0.00    +0.000    19.010
ATOM     31  O   UNL d   1      13.848  14.523  -2.821 -0.14 -0.00    +0.000    19.010
ATOM     32  C   UNL d   1      10.632  16.064   2.371 -0.15 -0.00    +0.052    19.010
ATOM     33  C   UNL d   1      11.319  17.423   2.275 -0.09 -0.01    +0.115    19.010
ATOM     34  C   UNL d   1      12.817  17.302   2.144 -0.03 -0.01    +0.139    19.010
ATOM     35  O   UNL d   1      13.346  17.494   1.061 +0.02 +0.04    -0.650    19.010
ATOM     36  O   UNL d   1      13.589  16.957   3.195 +0.01 +0.04    -0.776    19.010
ATOM     37  H   UNL d   1      13.690  17.528   3.965 +0.00 -0.01    +0.167    19.010
ATOM     38  C   UNL d   1       9.865  18.430  -2.490 -0.22 -0.01    +0.052    19.010
ATOM     39  C   UNL d   1       8.375  18.141  -2.316 -0.36 -0.02    +0.115    19.010
ATOM     40  C   UNL d   1       7.732  17.645  -3.587 -0.43 -0.03    +0.139    19.010
ATOM     41  O   UNL d   1       6.856  18.306  -4.121 -0.14 +0.12    -0.650    19.010
ATOM     42  O   UNL d   1       8.143  16.506  -4.177 +0.04 +0.24    -0.776    19.010
ATOM     43  H   UNL d   1       8.604  15.818  -3.680 -0.42 -0.12    +0.167    19.010
ATOM     44  C   UNL d   1      15.135   8.401  -1.873 -0.18 -0.00    +0.004    19.010
ATOM     45  C   UNL d   1      14.913   7.626  -2.934 -0.19 +0.00    +0.012    19.010
ATOM     46  C   UNL d   1      13.723  13.950  -7.724 -0.20 -0.00    +0.004    19.010
ATOM     47  C   UNL d   1      12.770  13.985  -8.664 -0.25 +0.00    +0.012    19.010
TER
ENDMDL
MODEL       44
USER    Run = 44
USER    Cluster Rank = 44
USER    Number of conformations in this cluster = 2
USER  
USER    RMSD from reference structure       = 40.417 A
USER  
USER    Estimated Free Energy of Binding    =   -4.45 kcal/mol  [=(1)+(2)+(3)-(4)]
USER    Estimated Inhibition Constant, Ki   =  545.65 uM (micromolar)  [Temperature = 298.15 K]
USER    
USER    (1) Final Intermolecular Energy     =   -7.43 kcal/mol
USER        vdW + Hbond + desolv Energy     =   -5.32 kcal/mol
USER        Electrostatic Energy            =   -2.11 kcal/mol
USER    (2) Final Total Internal Energy     =   -2.16 kcal/mol
USER    (3) Torsional Free Energy           =   +2.98 kcal/mol
USER    (4) Unbound System's Energy  [=(2)] =   -2.16 kcal/mol
USER    
USER    
USER  
USER    DPF = D:/Protein_go_brrr/autodock/final/mut_K82N/heme_O2/dock.dpf
USER    NEWDPF move	heme_O2_opt.pdbqt
USER    NEWDPF about	8.287000 34.468000 -0.670000
USER    NEWDPF tran0	11.977183 -3.203351 21.143770
USER    NEWDPF axisangle0	0.657822 0.247890 -0.711211 -80.603042
USER    NEWDPF quaternion0	0.425486 0.160338 -0.460018 -0.762651
USER    NEWDPF dihe0	166.25 -8.99 -65.17 -108.89 71.06 136.65 -83.90 25.01 -174.04 179.96 
USER  
USER                              x       y       z    vdW   Elec        q     RMS 
ATOM      1  C   UNL d   1      11.617  -1.380  22.166 -0.15 +0.01    +0.064    40.417
ATOM      2  C   UNL d   1       9.404  -5.582  22.225 -0.08 +0.00    +0.064    40.417
ATOM      3  C   UNL d   1      12.471  -7.347  18.973 -0.25 +0.01    +0.064    40.417
ATOM      4  C   UNL d   1      15.045  -3.180  19.260 -0.10 +0.00    +0.064    40.417
ATOM      5  C   UNL d   1      10.766  -2.379  22.449 -0.19 +0.01    +0.066    40.417
ATOM      6  C   UNL d   1       9.695  -2.267  23.340 -0.19 -0.00    -0.021    40.417
ATOM      7  C   UNL d   1       9.080  -3.496  23.391 -0.12 -0.00    -0.025    40.417
ATOM      8  C   UNL d   1       9.762  -4.312  22.492 -0.12 -0.00    +0.066    40.417
ATOM      9  C   UNL d   1       7.915  -3.845  24.292 -0.06 +0.00    +0.051    40.417
ATOM     10  C   UNL d   1      10.066  -6.478  21.276 -0.06 +0.00    +0.066    40.417
ATOM     11  C   UNL d   1       9.556  -7.731  20.916 -0.09 -0.00    -0.021    40.417
ATOM     12  C   UNL d   1      10.417  -8.248  19.966 -0.15 +0.00    +0.000    40.417
ATOM     13  C   UNL d   1      11.433  -7.265  19.806 -0.10 +0.01    +0.070    40.417
ATOM     14  C   UNL d   1       8.286  -8.394  21.436 -0.04 +0.00    +0.052    40.417
ATOM     15  C   UNL d   1      13.539  -6.391  18.807 -0.23 +0.01    +0.066    40.417
ATOM     16  C   UNL d   1      14.683  -6.609  18.041 -0.22 -0.00    -0.021    40.417
ATOM     17  C   UNL d   1      15.433  -5.434  18.108 -0.16 +0.00    +0.000    40.417
ATOM     18  C   UNL d   1      14.678  -4.576  18.920 -0.14 +0.01    +0.070    40.417
ATOM     19  C   UNL d   1      14.983  -7.923  17.365 -0.22 +0.01    +0.052    40.417
ATOM     20  C   UNL d   1      14.366  -2.345  20.070 -0.08 +0.00    +0.066    40.417
ATOM     21  C   UNL d   1      14.752  -1.034  20.338 -0.06 -0.00    -0.025    40.417
ATOM     22  C   UNL d   1      13.772  -0.497  21.143 -0.12 -0.00    -0.021    40.417
ATOM     23  C   UNL d   1      12.831  -1.509  21.351 -0.15 +0.01    +0.066    40.417
ATOM     24  C   UNL d   1      15.994  -0.331  19.854 -0.03 +0.00    +0.051    40.417
ATOM     25  N   UNL d   1      10.840  -3.642  21.961 -0.10 -0.00    -0.248    40.417
ATOM     26  N   UNL d   1      11.214  -6.194  20.610 +0.03 -0.02    -0.248    40.417
ATOM     27  N   UNL d   1      13.570  -5.198  19.396 -0.13 -0.03    -0.248    40.417
ATOM     28  N   UNL d   1      13.219  -2.644  20.734 -0.07 -0.02    -0.248    40.417
ATOM     29 FE   UNL d   1      12.226  -4.407  20.671 -0.04 +0.00    +0.000    40.417
ATOM     30  O   UNL d   1      12.308  -5.004  22.106 -0.08 +0.00    +0.000    40.417
ATOM     31  O   UNL d   1      13.633  -4.681  21.318 -0.08 +0.00    +0.000    40.417
ATOM     32  C   UNL d   1       9.344  -1.093  24.217 -0.15 +0.02    +0.052    40.417
ATOM     33  C   UNL d   1      10.007  -1.159  25.590 -0.10 +0.04    +0.115    40.417
ATOM     34  C   UNL d   1      11.312  -0.404  25.635 -0.11 +0.09    +0.139    40.417
ATOM     35  O   UNL d   1      12.323  -0.919  25.185 -0.02 -0.29    -0.650    40.417
ATOM     36  O   UNL d   1      11.395   0.824  26.188 -0.50 -1.26    -0.776    40.417
ATOM     37  H   UNL d   1      12.242   1.235  26.395 +0.01 +0.31    +0.167    40.417
ATOM     38  C   UNL d   1      13.780   0.892  21.728 -0.14 +0.02    +0.052    40.417
ATOM     39  C   UNL d   1      14.700   1.007  22.941 -0.08 +0.04    +0.115    40.417
ATOM     40  C   UNL d   1      14.310   2.141  23.855 -0.06 +0.10    +0.139    40.417
ATOM     41  O   UNL d   1      14.616   3.286  23.565 -0.02 -0.40    -0.650    40.417
ATOM     42  O   UNL d   1      13.581   1.920  24.966 +0.01 -0.96    -0.776    40.417
ATOM     43  H   UNL d   1      13.213   1.050  25.163 +0.00 +0.18    +0.167    40.417
ATOM     44  C   UNL d   1      10.188  -9.600  19.324 -0.15 +0.00    +0.004    40.417
ATOM     45  C   UNL d   1       9.840  -9.861  18.065 -0.23 +0.00    +0.012    40.417
ATOM     46  C   UNL d   1      16.782  -5.089  17.537 -0.13 +0.00    +0.004    40.417
ATOM     47  C   UNL d   1      17.910  -4.795  18.197 -0.07 +0.00    +0.012    40.417
TER
ENDMDL
MODEL       42
USER    Run = 42
USER    Cluster Rank = 45
USER    Number of conformations in this cluster = 1
USER  
USER    RMSD from reference structure       = 15.698 A
USER  
USER    Estimated Free Energy of Binding    =   -4.35 kcal/mol  [=(1)+(2)+(3)-(4)]
USER    Estimated Inhibition Constant, Ki   =  651.54 uM (micromolar)  [Temperature = 298.15 K]
USER    
USER    (1) Final Intermolecular Energy     =   -7.33 kcal/mol
USER        vdW + Hbond + desolv Energy     =   -5.55 kcal/mol
USER        Electrostatic Energy            =   -1.78 kcal/mol
USER    (2) Final Total Internal Energy     =   -1.71 kcal/mol
USER    (3) Torsional Free Energy           =   +2.98 kcal/mol
USER    (4) Unbound System's Energy  [=(2)] =   -1.71 kcal/mol
USER    
USER    
USER  
USER    DPF = D:/Protein_go_brrr/autodock/final/mut_K82N/heme_O2/dock.dpf
USER    NEWDPF move	heme_O2_opt.pdbqt
USER    NEWDPF about	8.287000 34.468000 -0.670000
USER    NEWDPF tran0	-5.215805 22.528879 4.662530
USER    NEWDPF axisangle0	0.565992 -0.691681 -0.448588 101.713414
USER    NEWDPF quaternion0	0.438966 -0.536446 -0.347911 0.631262
USER    NEWDPF dihe0	-49.23 37.97 20.98 90.76 74.43 73.45 83.09 -134.85 2.65 -38.19 
USER  
USER                              x       y       z    vdW   Elec        q     RMS 
ATOM      1  C   UNL d   1      -6.402  22.070   6.360 -0.04 +0.01    +0.064    15.698
ATOM      2  C   UNL d   1      -2.327  24.455   5.844 -0.03 -0.01    +0.064    15.698
ATOM      3  C   UNL d   1      -2.339  23.633   1.109 -0.15 -0.02    +0.064    15.698
ATOM      4  C   UNL d   1      -6.776  21.588   1.557 -0.18 -0.00    +0.064    15.698
ATOM      5  C   UNL d   1      -5.294  22.788   6.606 -0.02 +0.00    +0.066    15.698
ATOM      6  C   UNL d   1      -4.904  23.215   7.878 -0.00 -0.00    -0.021    15.698
ATOM      7  C   UNL d   1      -3.747  23.943   7.724 -0.00 +0.00    -0.025    15.698
ATOM      8  C   UNL d   1      -3.436  23.899   6.368 -0.01 -0.00    +0.066    15.698
ATOM      9  C   UNL d   1      -3.019  24.657   8.842 -0.00 -0.00    +0.051    15.698
ATOM     10  C   UNL d   1      -1.936  24.423   4.434 -0.09 -0.01    +0.066    15.698
ATOM     11  C   UNL d   1      -0.696  24.873   3.968 -0.14 +0.01    -0.021    15.698
ATOM     12  C   UNL d   1      -0.673  24.628   2.608 -0.21 -0.00    +0.000    15.698
ATOM     13  C   UNL d   1      -1.934  24.040   2.311 -0.19 -0.02    +0.070    15.698
ATOM     14  C   UNL d   1       0.431  25.487   4.792 -0.11 -0.03    +0.052    15.698
ATOM     15  C   UNL d   1      -3.620  23.066   0.761 -0.22 -0.02    +0.066    15.698
ATOM     16  C   UNL d   1      -4.044  22.812  -0.543 -0.26 +0.01    -0.021    15.698
ATOM     17  C   UNL d   1      -5.307  22.230  -0.440 -0.26 -0.00    +0.000    15.698
ATOM     18  C   UNL d   1      -5.561  22.169   0.938 -0.21 -0.01    +0.070    15.698
ATOM     19  C   UNL d   1      -3.239  23.195  -1.759 -0.29 -0.03    +0.052    15.698
ATOM     20  C   UNL d   1      -7.070  21.552   2.871 -0.14 -0.00    +0.066    15.698
ATOM     21  C   UNL d   1      -8.223  20.976   3.398 -0.18 -0.00    -0.025    15.698
ATOM     22  C   UNL d   1      -8.120  21.080   4.767 -0.11 -0.00    -0.021    15.698
ATOM     23  C   UNL d   1      -6.913  21.735   5.026 -0.09 +0.01    +0.066    15.698
ATOM     24  C   UNL d   1      -9.365  20.360   2.633 -0.09 +0.01    +0.051    15.698
ATOM     25  N   UNL d   1      -4.424  23.243   5.671 -0.02 +0.00    -0.248    15.698
ATOM     26  N   UNL d   1      -2.698  23.923   3.427 -0.07 +0.04    -0.248    15.698
ATOM     27  N   UNL d   1      -4.559  22.749   1.647 -0.12 +0.03    -0.248    15.698
ATOM     28  N   UNL d   1      -6.299  22.061   3.869 -0.08 -0.00    -0.248    15.698
ATOM     29 FE   UNL d   1      -4.512  22.985   3.647 -0.03 -0.00    +0.000    15.698
ATOM     30  O   UNL d   1      -4.725  24.458   4.102 -0.04 -0.00    +0.000    15.698
ATOM     31  O   UNL d   1      -5.594  23.871   2.927 -0.07 -0.00    +0.000    15.698
ATOM     32  C   UNL d   1      -5.659  23.065   9.174 +0.00 +0.00    +0.052    15.698
ATOM     33  C   UNL d   1      -5.388  21.733   9.867 +0.00 +0.01    +0.115    15.698
ATOM     34  C   UNL d   1      -6.477  20.721   9.612 -0.00 +0.02    +0.139    15.698
ATOM     35  O   UNL d   1      -7.538  20.813  10.208 +0.01 -0.07    -0.650    15.698
ATOM     36  O   UNL d   1      -6.295  19.692   8.758 +0.02 -0.36    -0.776    15.698
ATOM     37  H   UNL d   1      -5.942  19.822   7.870 +0.02 +0.11    +0.167    15.698
ATOM     38  C   UNL d   1      -9.159  20.630   5.762 -0.05 +0.01    +0.052    15.698
ATOM     39  C   UNL d   1      -9.383  19.120   5.727 -0.09 +0.03    +0.115    15.698
ATOM     40  C   UNL d   1      -8.090  18.347   5.657 -0.19 +0.11    +0.139    15.698
ATOM     41  O   UNL d   1      -8.023  17.339   4.972 -0.28 -0.62    -0.650    15.698
ATOM     42  O   UNL d   1      -6.986  18.778   6.297 -0.26 -1.14    -0.776    15.698
ATOM     43  H   UNL d   1      -7.032  19.153   7.185 +0.02 +0.16    +0.167    15.698
ATOM     44  C   UNL d   1       0.524  24.977   1.748 -0.26 -0.00    +0.004    15.698
ATOM     45  C   UNL d   1       0.576  25.082   0.421 -0.31 -0.01    +0.012    15.698
ATOM     46  C   UNL d   1      -6.284  21.795  -1.500 -0.30 -0.00    +0.004    15.698
ATOM     47  C   UNL d   1      -6.316  20.637  -2.172 -0.41 -0.00    +0.012    15.698
TER
ENDMDL
MODEL       26
USER    Run = 26
USER    Cluster Rank = 46
USER    Number of conformations in this cluster = 1
USER  
USER    RMSD from reference structure       = 21.071 A
USER  
USER    Estimated Free Energy of Binding    =   -4.31 kcal/mol  [=(1)+(2)+(3)-(4)]
USER    Estimated Inhibition Constant, Ki   =  691.97 uM (micromolar)  [Temperature = 298.15 K]
USER    
USER    (1) Final Intermolecular Energy     =   -7.29 kcal/mol
USER        vdW + Hbond + desolv Energy     =   -6.49 kcal/mol
USER        Electrostatic Energy            =   -0.80 kcal/mol
USER    (2) Final Total Internal Energy     =   -2.01 kcal/mol
USER    (3) Torsional Free Energy           =   +2.98 kcal/mol
USER    (4) Unbound System's Energy  [=(2)] =   -2.01 kcal/mol
USER    
USER    
USER  
USER    DPF = D:/Protein_go_brrr/autodock/final/mut_K82N/heme_O2/dock.dpf
USER    NEWDPF move	heme_O2_opt.pdbqt
USER    NEWDPF about	8.287000 34.468000 -0.670000
USER    NEWDPF tran0	9.306641 15.818084 -10.517801
USER    NEWDPF axisangle0	0.796304 0.562677 0.222025 93.709995
USER    NEWDPF quaternion0	0.581003 0.410543 0.161995 0.683847
USER    NEWDPF dihe0	154.85 -36.50 -99.07 122.83 -138.03 -17.83 80.35 -14.81 -1.62 -6.88 
USER  
USER                              x       y       z    vdW   Elec        q     RMS 
ATOM      1  C   UNL d   1       8.884  14.762 -12.308 -0.18 +0.00    +0.064    21.071
ATOM      2  C   UNL d   1       6.313  17.758  -9.668 -0.22 -0.01    +0.064    21.071
ATOM      3  C   UNL d   1       9.915  18.223  -6.521 -0.12 -0.01    +0.064    21.071
ATOM      4  C   UNL d   1      12.741  15.517  -9.481 -0.11 -0.00    +0.064    21.071
ATOM      5  C   UNL d   1       7.892  15.541 -11.848 -0.21 -0.00    +0.066    21.071
ATOM      6  C   UNL d   1       6.645  15.668 -12.468 -0.20 +0.00    -0.021    21.071
ATOM      7  C   UNL d   1       5.915  16.569 -11.728 -0.19 +0.00    -0.025    21.071
ATOM      8  C   UNL d   1       6.718  16.930 -10.650 -0.21 -0.01    +0.066    21.071
ATOM      9  C   UNL d   1       4.529  17.059 -12.085 -0.18 -0.01    +0.051    21.071
ATOM     10  C   UNL d   1       7.101  18.156  -8.501 -0.22 -0.01    +0.066    21.071
ATOM     11  C   UNL d   1       6.576  18.887  -7.430 -0.27 +0.01    -0.021    21.071
ATOM     12  C   UNL d   1       7.594  19.015  -6.504 -0.24 -0.00    +0.000    21.071
ATOM     13  C   UNL d   1       8.712  18.352  -7.081 -0.06 -0.01    +0.070    21.071
ATOM     14  C   UNL d   1       5.154  19.416  -7.284 -0.24 -0.02    +0.052    21.071
ATOM     15  C   UNL d   1      11.082  17.590  -7.087 -0.04 -0.00    +0.066    21.071
ATOM     16  C   UNL d   1      12.356  17.631  -6.523 -0.08 +0.00    -0.021    21.071
ATOM     17  C   UNL d   1      13.179  16.867  -7.350 -0.08 -0.00    +0.000    21.071
ATOM     18  C   UNL d   1      12.333  16.409  -8.370 -0.10 -0.00    +0.070    21.071
ATOM     19  C   UNL d   1      12.683  18.433  -5.288 -0.05 -0.00    +0.052    21.071
ATOM     20  C   UNL d   1      11.966  15.094 -10.498 -0.14 -0.00    +0.066    21.071
ATOM     21  C   UNL d   1      12.402  14.239 -11.507 -0.11 +0.00    -0.025    21.071
ATOM     22  C   UNL d   1      11.309  13.991 -12.307 -0.14 -0.00    -0.021    21.071
ATOM     23  C   UNL d   1      10.247  14.721 -11.765 -0.18 +0.00    +0.066    21.071
ATOM     24  C   UNL d   1      13.791  13.690 -11.701 -0.07 -0.00    +0.051    21.071
ATOM     25  N   UNL d   1       7.959  16.346 -10.760 -0.16 +0.02    -0.248    21.071
ATOM     26  N   UNL d   1       8.405  17.836  -8.298 +0.01 +0.02    -0.248    21.071
ATOM     27  N   UNL d   1      11.082  16.918  -8.235 -0.00 +0.00    -0.248    21.071
ATOM     28  N   UNL d   1      10.662  15.426 -10.691 -0.13 -0.00    -0.248    21.071
ATOM     29 FE   UNL d   1       9.544  16.622  -9.502 -0.05 -0.00    +0.000    21.071
ATOM     30  O   UNL d   1       9.193  17.877 -10.354 -0.10 -0.00    +0.000    21.071
ATOM     31  O   UNL d   1      10.702  17.502 -10.102 -0.10 -0.00    +0.000    21.071
ATOM     32  C   UNL d   1       6.202  15.075 -13.780 -0.18 -0.00    +0.052    21.071
ATOM     33  C   UNL d   1       5.746  13.624 -13.651 -0.24 +0.01    +0.115    21.071
ATOM     34  C   UNL d   1       6.794  12.648 -14.123 -0.28 +0.05    +0.139    21.071
ATOM     35  O   UNL d   1       7.807  12.482 -13.461 -0.02 -0.21    -0.650    21.071
ATOM     36  O   UNL d   1       6.653  11.969 -15.280 -0.53 -0.52    -0.776    21.071
ATOM     37  H   UNL d   1       7.411  11.630 -15.770 +0.03 +0.12    +0.167    21.071
ATOM     38  C   UNL d   1      11.308  13.151 -13.558 -0.10 +0.00    +0.052    21.071
ATOM     39  C   UNL d   1      10.880  11.710 -13.290 -0.13 +0.01    +0.115    21.071
ATOM     40  C   UNL d   1      10.507  10.975 -14.554 -0.11 +0.02    +0.139    21.071
ATOM     41  O   UNL d   1      11.034   9.905 -14.810 +0.03 -0.09    -0.650    21.071
ATOM     42  O   UNL d   1       9.561  11.455 -15.384 +0.04 -0.20    -0.776    21.071
ATOM     43  H   UNL d   1       8.795  11.938 -15.051 +0.04 +0.05    +0.167    21.071
ATOM     44  C   UNL d   1       7.400  19.747  -5.192 -0.32 -0.00    +0.004    21.071
ATOM     45  C   UNL d   1       6.771  19.316  -4.100 -0.50 -0.00    +0.012    21.071
ATOM     46  C   UNL d   1      14.658  16.592  -7.290 -0.04 -0.00    +0.004    21.071
ATOM     47  C   UNL d   1      15.276  15.419  -7.100 -0.04 -0.00    +0.012    21.071
TER
ENDMDL
MODEL       43
USER    Run = 43
USER    Cluster Rank = 47
USER    Number of conformations in this cluster = 2
USER  
USER    RMSD from reference structure       = 41.912 A
USER  
USER    Estimated Free Energy of Binding    =   -4.29 kcal/mol  [=(1)+(2)+(3)-(4)]
USER    Estimated Inhibition Constant, Ki   =  718.17 uM (micromolar)  [Temperature = 298.15 K]
USER    
USER    (1) Final Intermolecular Energy     =   -7.27 kcal/mol
USER        vdW + Hbond + desolv Energy     =   -6.38 kcal/mol
USER        Electrostatic Energy            =   -0.89 kcal/mol
USER    (2) Final Total Internal Energy     =   -2.11 kcal/mol
USER    (3) Torsional Free Energy           =   +2.98 kcal/mol
USER    (4) Unbound System's Energy  [=(2)] =   -2.11 kcal/mol
USER    
USER    
USER  
USER    DPF = D:/Protein_go_brrr/autodock/final/mut_K82N/heme_O2/dock.dpf
USER    NEWDPF move	heme_O2_opt.pdbqt
USER    NEWDPF about	8.287000 34.468000 -0.670000
USER    NEWDPF tran0	9.273757 -5.477675 21.333203
USER    NEWDPF axisangle0	-0.622466 0.177793 0.762185 135.530665
USER    NEWDPF quaternion0	-0.576181 0.164573 0.705510 0.378401
USER    NEWDPF dihe0	78.14 112.50 -99.59 -107.11 39.21 -13.48 41.03 -87.25 -4.11 -17.90 
USER  
USER                              x       y       z    vdW   Elec        q     RMS 
ATOM      1  C   UNL d   1      10.324  -4.359  22.797 -0.09 +0.00    +0.064    41.912
ATOM      2  C   UNL d   1       5.851  -4.166  21.211 -0.23 -0.01    +0.064    41.912
ATOM      3  C   UNL d   1       6.705  -7.726  18.098 -0.22 -0.00    +0.064    41.912
ATOM      4  C   UNL d   1      11.172  -8.256  20.054 -0.13 +0.01    +0.064    41.912
ATOM      5  C   UNL d   1       9.037  -4.017  22.621 -0.14 -0.00    +0.066    41.912
ATOM      6  C   UNL d   1       8.396  -2.993  23.324 -0.17 -0.00    -0.021    41.912
ATOM      7  C   UNL d   1       7.089  -2.965  22.897 -0.21 +0.00    -0.025    41.912
ATOM      8  C   UNL d   1       6.981  -3.941  21.909 -0.22 -0.00    +0.066    41.912
ATOM      9  C   UNL d   1       6.016  -2.055  23.452 -0.19 -0.00    +0.051    41.912
ATOM     10  C   UNL d   1       5.684  -5.159  20.149 -0.23 -0.01    +0.066    41.912
ATOM     11  C   UNL d   1       4.541  -5.240  19.345 -0.27 +0.00    -0.021    41.912
ATOM     12  C   UNL d   1       4.775  -6.249  18.429 -0.27 -0.00    +0.000    41.912
ATOM     13  C   UNL d   1       6.071  -6.745  18.741 -0.23 -0.01    +0.070    41.912
ATOM     14  C   UNL d   1       3.290  -4.373  19.429 -0.13 -0.01    +0.052    41.912
ATOM     15  C   UNL d   1       8.001  -8.281  18.404 -0.18 +0.01    +0.066    41.912
ATOM     16  C   UNL d   1       8.539  -9.415  17.797 -0.24 -0.00    -0.021    41.912
ATOM     17  C   UNL d   1       9.812  -9.587  18.340 -0.21 +0.00    +0.000    41.912
ATOM     18  C   UNL d   1       9.959  -8.528  19.248 -0.17 +0.01    +0.070    41.912
ATOM     19  C   UNL d   1       7.776 -10.258  16.806 -0.28 +0.00    +0.052    41.912
ATOM     20  C   UNL d   1      11.330  -7.276  20.965 -0.08 +0.00    +0.066    41.912
ATOM     21  C   UNL d   1      12.504  -7.059  21.681 -0.05 -0.00    -0.025    41.912
ATOM     22  C   UNL d   1      12.290  -5.935  22.448 -0.04 -0.00    -0.021    41.912
ATOM     23  C   UNL d   1      10.981  -5.518  22.184 -0.07 +0.00    +0.066    41.912
ATOM     24  C   UNL d   1      13.764  -7.883  21.638 -0.03 +0.00    +0.051    41.912
ATOM     25  N   UNL d   1       8.164  -4.632  21.787 -0.12 +0.01    -0.248    41.912
ATOM     26  N   UNL d   1       6.615  -6.079  19.791 -0.15 +0.02    -0.248    41.912
ATOM     27  N   UNL d   1       8.822  -7.790  19.329 -0.11 -0.03    -0.248    41.912
ATOM     28  N   UNL d   1      10.387  -6.363  21.316 -0.05 -0.01    -0.248    41.912
ATOM     29 FE   UNL d   1       8.515  -6.225  20.558 -0.04 +0.00    +0.000    41.912
ATOM     30  O   UNL d   1       7.545  -6.540  21.733 -0.09 -0.00    +0.000    41.912
ATOM     31  O   UNL d   1       8.622  -7.606  21.302 -0.08 +0.00    +0.000    41.912
ATOM     32  C   UNL d   1       8.948  -2.162  24.454 -0.13 +0.01    +0.052    41.912
ATOM     33  C   UNL d   1       9.853  -1.033  23.971 -0.07 +0.04    +0.115    41.912
ATOM     34  C   UNL d   1      11.047  -0.827  24.870 -0.09 +0.07    +0.139    41.912
ATOM     35  O   UNL d   1      11.132   0.191  25.537 -0.30 -0.68    -0.650    41.912
ATOM     36  O   UNL d   1      12.043  -1.735  24.934 +0.02 -0.22    -0.776    41.912
ATOM     37  H   UNL d   1      12.724  -1.794  24.254 +0.02 +0.04    +0.167    41.912
ATOM     38  C   UNL d   1      13.269  -5.340  23.426 -0.02 +0.00    +0.052    41.912
ATOM     39  C   UNL d   1      14.276  -4.412  22.749 -0.02 +0.01    +0.115    41.912
ATOM     40  C   UNL d   1      13.814  -2.976  22.731 -0.03 +0.01    +0.139    41.912
ATOM     41  O   UNL d   1      14.571  -2.091  23.096 +0.02 -0.08    -0.650    41.912
ATOM     42  O   UNL d   1      12.593  -2.644  22.269 +0.05 -0.08    -0.776    41.912
ATOM     43  H   UNL d   1      11.921  -2.263  22.847 +0.04 +0.02    +0.167    41.912
ATOM     44  C   UNL d   1       3.757  -6.630  17.374 -0.41 -0.00    +0.004    41.912
ATOM     45  C   UNL d   1       3.460  -5.979  16.250 -0.56 -0.00    +0.012    41.912
ATOM     46  C   UNL d   1      10.843 -10.663  18.123 -0.15 +0.00    +0.004    41.912
ATOM     47  C   UNL d   1      11.293 -11.569  19.001 -0.07 +0.00    +0.012    41.912
TER
ENDMDL
MODEL       76
USER    Run = 76
USER    Cluster Rank = 48
USER    Number of conformations in this cluster = 1
USER  
USER    RMSD from reference structure       = 47.412 A
USER  
USER    Estimated Free Energy of Binding    =   -4.12 kcal/mol  [=(1)+(2)+(3)-(4)]
USER    Estimated Inhibition Constant, Ki   =  961.62 uM (micromolar)  [Temperature = 298.15 K]
USER    
USER    (1) Final Intermolecular Energy     =   -7.10 kcal/mol
USER        vdW + Hbond + desolv Energy     =   -7.27 kcal/mol
USER        Electrostatic Energy            =   +0.17 kcal/mol
USER    (2) Final Total Internal Energy     =   -2.00 kcal/mol
USER    (3) Torsional Free Energy           =   +2.98 kcal/mol
USER    (4) Unbound System's Energy  [=(2)] =   -2.00 kcal/mol
USER    
USER    
USER  
USER    DPF = D:/Protein_go_brrr/autodock/final/mut_K82N/heme_O2/dock.dpf
USER    NEWDPF move	heme_O2_opt.pdbqt
USER    NEWDPF about	8.287000 34.468000 -0.670000
USER    NEWDPF tran0	-8.759558 -11.928654 7.678047
USER    NEWDPF axisangle0	-0.632124 -0.143954 -0.761378 76.376018
USER    NEWDPF quaternion0	-0.390807 -0.088998 -0.470717 0.785986
USER    NEWDPF dihe0	-10.32 -12.29 -7.76 128.15 54.96 165.09 -138.21 59.09 169.49 132.27 
USER  
USER                              x       y       z    vdW   Elec        q     RMS 
ATOM      1  C   UNL d   1     -10.581 -12.867   7.129 -0.12 -0.01    +0.064    47.412
ATOM      2  C   UNL d   1      -6.235 -14.568   8.009 -0.12 -0.01    +0.064    47.412
ATOM      3  C   UNL d   1      -4.564 -10.136   8.821 -0.43 -0.02    +0.064    47.412
ATOM      4  C   UNL d   1      -9.139  -8.419   8.386 -0.13 -0.01    +0.064    47.412
ATOM      5  C   UNL d   1      -9.536 -13.691   7.304 -0.11 -0.01    +0.066    47.412
ATOM      6  C   UNL d   1      -9.595 -15.078   7.136 -0.07 +0.00    -0.021    47.412
ATOM      7  C   UNL d   1      -8.348 -15.576   7.432 -0.06 +0.00    -0.025    47.412
ATOM      8  C   UNL d   1      -7.549 -14.475   7.727 -0.11 -0.01    +0.066    47.412
ATOM      9  C   UNL d   1      -7.985 -17.044   7.452 -0.02 -0.01    +0.051    47.412
ATOM     10  C   UNL d   1      -5.340 -13.448   8.303 -0.21 -0.01    +0.066    47.412
ATOM     11  C   UNL d   1      -3.953 -13.583   8.428 -0.29 +0.00    -0.021    47.412
ATOM     12  C   UNL d   1      -3.451 -12.313   8.645 -0.36 -0.00    +0.000    47.412
ATOM     13  C   UNL d   1      -4.587 -11.457   8.652 -0.23 -0.02    +0.070    47.412
ATOM     14  C   UNL d   1      -3.137 -14.867   8.318 -0.28 +0.01    +0.052    47.412
ATOM     15  C   UNL d   1      -5.694  -9.239   8.870 -0.38 -0.01    +0.066    47.412
ATOM     16  C   UNL d   1      -5.617  -7.889   9.214 -0.45 +0.00    -0.021    47.412
ATOM     17  C   UNL d   1      -6.910  -7.379   9.098 -0.34 -0.00    +0.000    47.412
ATOM     18  C   UNL d   1      -7.688  -8.470   8.685 -0.23 -0.01    +0.070    47.412
ATOM     19  C   UNL d   1      -4.341  -7.228   9.671 -0.51 -0.00    +0.052    47.412
ATOM     20  C   UNL d   1      -9.924  -9.455   8.030 +0.01 -0.01    +0.066    47.412
ATOM     21  C   UNL d   1     -11.282  -9.343   7.744 -0.07 +0.00    -0.025    47.412
ATOM     22  C   UNL d   1     -11.703 -10.595   7.358 -0.07 +0.00    -0.021    47.412
ATOM     23  C   UNL d   1     -10.587 -11.432   7.439 -0.06 -0.01    +0.066    47.412
ATOM     24  C   UNL d   1     -12.134  -8.104   7.839 -0.04 -0.01    +0.051    47.412
ATOM     25  N   UNL d   1      -8.297 -13.321   7.711 -0.11 +0.05    -0.248    47.412
ATOM     26  N   UNL d   1      -5.732 -12.156   8.448 -0.19 +0.05    -0.248    47.412
ATOM     27  N   UNL d   1      -6.948  -9.606   8.624 -0.19 +0.04    -0.248    47.412
ATOM     28  N   UNL d   1      -9.518 -10.745   7.892 +0.07 +0.03    -0.248    47.412
ATOM     29 FE   UNL d   1      -7.638 -11.443   8.169 -0.05 -0.00    +0.000    47.412
ATOM     30  O   UNL d   1      -7.706 -12.401   9.394 -0.12 -0.00    +0.000    47.412
ATOM     31  O   UNL d   1      -8.147 -10.897   9.553 -0.14 -0.00    +0.000    47.412
ATOM     32  C   UNL d   1     -10.810 -15.920   6.842 -0.04 -0.01    +0.052    47.412
ATOM     33  C   UNL d   1     -11.275 -16.729   8.048 -0.00 -0.01    +0.115    47.412
ATOM     34  C   UNL d   1     -11.175 -15.951   9.336 -0.00 -0.01    +0.139    47.412
ATOM     35  O   UNL d   1     -10.192 -16.084  10.047 +0.00 +0.05    -0.650    47.412
ATOM     36  O   UNL d   1     -12.165 -15.127   9.739 +0.00 +0.06    -0.776    47.412
ATOM     37  H   UNL d   1     -12.901 -14.893   9.162 +0.00 -0.01    +0.167    47.412
ATOM     38  C   UNL d   1     -13.116 -10.973   6.994 -0.04 -0.01    +0.052    47.412
ATOM     39  C   UNL d   1     -13.629 -12.158   7.807 -0.01 -0.01    +0.115    47.412
ATOM     40  C   UNL d   1     -14.061 -13.312   6.936 -0.01 -0.01    +0.139    47.412
ATOM     41  O   UNL d   1     -14.823 -13.115   6.004 +0.01 +0.06    -0.650    47.412
ATOM     42  O   UNL d   1     -13.578 -14.553   7.137 +0.02 +0.07    -0.776    47.412
ATOM     43  H   UNL d   1     -12.849 -14.719   7.746 +0.01 -0.02    +0.167    47.412
ATOM     44  C   UNL d   1      -1.969 -12.054   8.822 -0.54 -0.00    +0.004    47.412
ATOM     45  C   UNL d   1      -1.337 -10.881   8.814 -0.65 -0.00    +0.012    47.412
ATOM     46  C   UNL d   1      -7.462  -6.010   9.391 -0.30 -0.00    +0.004    47.412
ATOM     47  C   UNL d   1      -8.092  -5.174   8.555 -0.33 -0.00    +0.012    47.412
TER
ENDMDL
MODEL       88
USER    Run = 88
USER    Cluster Rank = 49
USER    Number of conformations in this cluster = 1
USER  
USER    RMSD from reference structure       = 21.986 A
USER  
USER    Estimated Free Energy of Binding    =   -4.10 kcal/mol  [=(1)+(2)+(3)-(4)]
USER    Estimated Inhibition Constant, Ki   =  990.59 uM (micromolar)  [Temperature = 298.15 K]
USER    
USER    (1) Final Intermolecular Energy     =   -7.08 kcal/mol
USER        vdW + Hbond + desolv Energy     =   -6.42 kcal/mol
USER        Electrostatic Energy            =   -0.67 kcal/mol
USER    (2) Final Total Internal Energy     =   -2.37 kcal/mol
USER    (3) Torsional Free Energy           =   +2.98 kcal/mol
USER    (4) Unbound System's Energy  [=(2)] =   -2.37 kcal/mol
USER    
USER    
USER  
USER    DPF = D:/Protein_go_brrr/autodock/final/mut_K82N/heme_O2/dock.dpf
USER    NEWDPF move	heme_O2_opt.pdbqt
USER    NEWDPF about	8.287000 34.468000 -0.670000
USER    NEWDPF tran0	12.988145 11.027521 0.572439
USER    NEWDPF axisangle0	0.452850 0.890544 0.043101 -104.781911
USER    NEWDPF quaternion0	0.358745 0.705483 0.034144 -0.610270
USER    NEWDPF dihe0	8.07 127.71 33.24 111.29 -126.68 -120.54 -179.61 -89.81 3.00 -5.88 
USER  
USER                              x       y       z    vdW   Elec        q     RMS 
ATOM      1  C   UNL d   1      12.555  10.760   2.632 -0.11 +0.00    +0.064    21.986
ATOM      2  C   UNL d   1      14.574   7.941  -0.614 -0.15 +0.00    +0.064    21.986
ATOM      3  C   UNL d   1      14.002  11.289  -4.013 -0.27 -0.01    +0.064    21.986
ATOM      4  C   UNL d   1      12.358  14.381  -0.577 -0.24 -0.01    +0.064    21.986
ATOM      5  C   UNL d   1      13.152   9.721   2.027 -0.11 +0.00    +0.066    21.986
ATOM      6  C   UNL d   1      13.475   8.522   2.668 -0.09 -0.00    -0.021    21.986
ATOM      7  C   UNL d   1      14.099   7.721   1.740 -0.10 +0.00    -0.025    21.986
ATOM      8  C   UNL d   1      14.097   8.435   0.545 -0.14 -0.00    +0.066    21.986
ATOM      9  C   UNL d   1      14.684   6.356   2.029 -0.06 -0.00    +0.051    21.986
ATOM     10  C   UNL d   1      14.578   8.633  -1.904 -0.18 -0.00    +0.066    21.986
ATOM     11  C   UNL d   1      14.934   8.014  -3.107 -0.18 -0.00    -0.021    21.986
ATOM     12  C   UNL d   1      14.759   8.959  -4.102 -0.22 -0.00    +0.000    21.986
ATOM     13  C   UNL d   1      14.307  10.129  -3.432 -0.25 -0.01    +0.070    21.986
ATOM     14  C   UNL d   1      15.397   6.575  -3.304 -0.14 +0.00    +0.052    21.986
ATOM     15  C   UNL d   1      13.575  12.507  -3.367 -0.13 -0.02    +0.066    21.986
ATOM     16  C   UNL d   1      13.430  13.735  -4.013 -0.22 +0.00    -0.021    21.986
ATOM     17  C   UNL d   1      12.963  14.632  -3.052 -0.23 -0.00    +0.000    21.986
ATOM     18  C   UNL d   1      12.855  13.874  -1.878 -0.23 -0.01    +0.070    21.986
ATOM     19  C   UNL d   1      13.798  13.953  -5.458 -0.20 -0.01    +0.052    21.986
ATOM     20  C   UNL d   1      12.282  13.692   0.579 -0.20 -0.00    +0.066    21.986
ATOM     21  C   UNL d   1      11.789  14.218   1.770 -0.17 +0.00    -0.025    21.986
ATOM     22  C   UNL d   1      11.812  13.193   2.688 -0.12 -0.00    -0.021    21.986
ATOM     23  C   UNL d   1      12.338  12.079   2.026 -0.08 +0.00    +0.066    21.986
ATOM     24  C   UNL d   1      11.323  15.629   2.019 -0.14 -0.00    +0.051    21.986
ATOM     25  N   UNL d   1      13.572   9.692   0.738 -0.07 +0.01    -0.248    21.986
ATOM     26  N   UNL d   1      14.204   9.923  -2.095 -0.17 +0.02    -0.248    21.986
ATOM     27  N   UNL d   1      13.301  12.606  -2.070 -0.10 +0.06    -0.248    21.986
ATOM     28  N   UNL d   1      12.664  12.400   0.757 -0.08 +0.01    -0.248    21.986
ATOM     29 FE   UNL d   1      13.429  11.173  -0.660 -0.05 -0.00    +0.000    21.986
ATOM     30  O   UNL d   1      14.890  10.861  -0.224 -0.11 -0.00    +0.000    21.986
ATOM     31  O   UNL d   1      14.447  12.354  -0.460 -0.13 -0.00    +0.000    21.986
ATOM     32  C   UNL d   1      13.330   8.189   4.131 -0.06 +0.00    +0.052    21.986
ATOM     33  C   UNL d   1      11.947   7.647   4.480 -0.12 +0.01    +0.115    21.986
ATOM     34  C   UNL d   1      11.026   7.609   3.286 -0.22 +0.01    +0.139    21.986
ATOM     35  O   UNL d   1      11.086   6.672   2.507 -0.00 +0.02    -0.650    21.986
ATOM     36  O   UNL d   1      10.150   8.606   3.042 +0.08 -0.09    -0.776    21.986
ATOM     37  H   UNL d   1      10.159   9.429   3.545 +0.08 +0.03    +0.167    21.986
ATOM     38  C   UNL d   1      11.411  13.302   4.136 -0.09 +0.00    +0.052    21.986
ATOM     39  C   UNL d   1       9.968  12.860   4.375 -0.16 +0.03    +0.115    21.986
ATOM     40  C   UNL d   1       9.857  11.384   4.661 -0.16 +0.06    +0.139    21.986
ATOM     41  O   UNL d   1      10.818  10.779   5.110 -0.00 -0.21    -0.650    21.986
ATOM     42  O   UNL d   1       8.697  10.725   4.478 -0.40 -0.64    -0.776    21.986
ATOM     43  H   UNL d   1       8.658   9.899   3.981 +0.08 +0.09    +0.167    21.986
ATOM     44  C   UNL d   1      15.039   8.653  -5.559 -0.22 -0.00    +0.004    21.986
ATOM     45  C   UNL d   1      15.426   9.499  -6.513 -0.17 -0.00    +0.012    21.986
ATOM     46  C   UNL d   1      12.676  16.108  -3.135 -0.17 -0.00    +0.004    21.986
ATOM     47  C   UNL d   1      11.486  16.718  -3.202 -0.22 -0.00    +0.012    21.986
TER
ENDMDL
MODEL       40
USER    Run = 40
USER    Cluster Rank = 50
USER    Number of conformations in this cluster = 1
USER  
USER    RMSD from reference structure       = 28.381 A
USER  
USER    Estimated Free Energy of Binding    =   -3.95 kcal/mol  [=(1)+(2)+(3)-(4)]
USER    Estimated Inhibition Constant, Ki   =    1.27 mM (millimolar)  [Temperature = 298.15 K]
USER    
USER    (1) Final Intermolecular Energy     =   -6.93 kcal/mol
USER        vdW + Hbond + desolv Energy     =   -5.78 kcal/mol
USER        Electrostatic Energy            =   -1.15 kcal/mol
USER    (2) Final Total Internal Energy     =   -2.35 kcal/mol
USER    (3) Torsional Free Energy           =   +2.98 kcal/mol
USER    (4) Unbound System's Energy  [=(2)] =   -2.35 kcal/mol
USER    
USER    
USER  
USER    DPF = D:/Protein_go_brrr/autodock/final/mut_K82N/heme_O2/dock.dpf
USER    NEWDPF move	heme_O2_opt.pdbqt
USER    NEWDPF about	8.287000 34.468000 -0.670000
USER    NEWDPF tran0	15.162268 5.580481 -5.522273
USER    NEWDPF axisangle0	0.605933 -0.112317 -0.787547 128.236190
USER    NEWDPF quaternion0	0.545155 -0.101051 -0.708553 0.436518
USER    NEWDPF dihe0	-27.51 -123.13 85.79 -106.09 16.01 104.26 -99.03 -72.21 -179.29 20.66 
USER  
USER                              x       y       z    vdW   Elec        q     RMS 
ATOM      1  C   UNL d   1      15.317   3.774  -4.421 -0.08 +0.01    +0.064    28.381
ATOM      2  C   UNL d   1      14.739   8.299  -3.097 -0.14 -0.00    +0.064    28.381
ATOM      3  C   UNL d   1      14.867   9.751  -7.676 -0.05 -0.00    +0.064    28.381
ATOM      4  C   UNL d   1      14.982   5.052  -9.079 -0.05 -0.01    +0.064    28.381
ATOM      5  C   UNL d   1      15.147   4.886  -3.688 -0.10 +0.01    +0.066    28.381
ATOM      6  C   UNL d   1      15.083   4.900  -2.291 -0.11 -0.00    -0.021    28.381
ATOM      7  C   UNL d   1      14.872   6.204  -1.909 -0.12 -0.00    -0.025    28.381
ATOM      8  C   UNL d   1      14.862   6.958  -3.080 -0.15 +0.00    +0.066    28.381
ATOM      9  C   UNL d   1      14.664   6.665  -0.483 -0.11 +0.00    +0.051    28.381
ATOM     10  C   UNL d   1      14.744   9.145  -4.292 -0.20 -0.00    +0.066    28.381
ATOM     11  C   UNL d   1      14.778  10.543  -4.244 -0.21 +0.00    -0.021    28.381
ATOM     12  C   UNL d   1      14.833  10.980  -5.554 -0.19 -0.00    +0.000    28.381
ATOM     13  C   UNL d   1      14.818   9.798  -6.345 -0.12 -0.00    +0.070    28.381
ATOM     14  C   UNL d   1      14.784  11.424  -3.000 -0.18 -0.01    +0.052    28.381
ATOM     15  C   UNL d   1      14.818   8.578  -8.515 -0.13 -0.00    +0.066    28.381
ATOM     16  C   UNL d   1      14.707   8.603  -9.905 -0.15 +0.00    -0.021    28.381
ATOM     17  C   UNL d   1      14.737   7.274 -10.327 -0.11 -0.00    +0.000    28.381
ATOM     18  C   UNL d   1      14.867   6.528  -9.147 -0.10 -0.01    +0.070    28.381
ATOM     19  C   UNL d   1      14.529   9.877 -10.692 -0.15 -0.00    +0.052    28.381
ATOM     20  C   UNL d   1      15.065   4.302  -7.963 -0.06 -0.01    +0.066    28.381
ATOM     21  C   UNL d   1      15.189   2.915  -7.962 -0.08 +0.00    -0.025    28.381
ATOM     22  C   UNL d   1      15.313   2.536  -6.644 -0.09 +0.00    -0.021    28.381
ATOM     23  C   UNL d   1      15.242   3.709  -5.885 -0.08 +0.00    +0.066    28.381
ATOM     24  C   UNL d   1      15.186   1.998  -9.157 -0.07 -0.01    +0.051    28.381
ATOM     25  N   UNL d   1      14.966   6.137  -4.179 -0.10 -0.01    -0.248    28.381
ATOM     26  N   UNL d   1      14.759   8.686  -5.569 -0.14 +0.01    -0.248    28.381
ATOM     27  N   UNL d   1      14.839   7.331  -8.053 -0.10 +0.02    -0.248    28.381
ATOM     28  N   UNL d   1      15.046   4.775  -6.688 -0.04 +0.02    -0.248    28.381
ATOM     29 FE   UNL d   1      14.903   6.717  -6.135 -0.03 -0.00    +0.000    28.381
ATOM     30  O   UNL d   1      13.542   6.859  -5.394 -0.32 -0.00    +0.000    28.381
ATOM     31  O   UNL d   1      13.570   6.339  -6.881 -0.31 -0.00    +0.000    28.381
ATOM     32  C   UNL d   1      15.080   3.719  -1.355 -0.08 +0.01    +0.052    28.381
ATOM     33  C   UNL d   1      13.674   3.286  -0.952 -0.18 +0.02    +0.115    28.381
ATOM     34  C   UNL d   1      12.993   2.473  -2.024 -0.19 +0.07    +0.139    28.381
ATOM     35  O   UNL d   1      11.833   2.713  -2.318 -0.53 -0.34    -0.650    28.381
ATOM     36  O   UNL d   1      13.629   1.461  -2.650 -0.28 -0.76    -0.776    28.381
ATOM     37  H   UNL d   1      14.588   1.443  -2.748 +0.03 +0.11    +0.167    28.381
ATOM     38  C   UNL d   1      15.428   1.119  -6.145 -0.05 +0.01    +0.052    28.381
ATOM     39  C   UNL d   1      16.698   0.892  -5.326 -0.04 +0.01    +0.115    28.381
ATOM     40  C   UNL d   1      16.416   0.763  -3.850 -0.05 +0.03    +0.139    28.381
ATOM     41  O   UNL d   1      16.783   1.640  -3.084 +0.03 -0.10    -0.650    28.381
ATOM     42  O   UNL d   1      15.719  -0.282  -3.363 -0.05 -0.35    -0.776    28.381
ATOM     43  H   UNL d   1      14.894  -0.156  -2.880 +0.01 +0.14    +0.167    28.381
ATOM     44  C   UNL d   1      14.890  12.451  -5.909 -0.17 -0.00    +0.004    28.381
ATOM     45  C   UNL d   1      13.886  13.242  -6.287 -0.25 -0.00    +0.012    28.381
ATOM     46  C   UNL d   1      14.599   6.670 -11.699 -0.06 -0.00    +0.004    28.381
ATOM     47  C   UNL d   1      13.606   5.905 -12.171 -0.06 -0.00    +0.012    28.381
TER
ENDMDL
MODEL        1
USER    Run = 1
USER    Cluster Rank = 51
USER    Number of conformations in this cluster = 1
USER  
USER    RMSD from reference structure       = 31.853 A
USER  
USER    Estimated Free Energy of Binding    =   -3.92 kcal/mol  [=(1)+(2)+(3)-(4)]
USER    Estimated Inhibition Constant, Ki   =    1.34 mM (millimolar)  [Temperature = 298.15 K]
USER    
USER    (1) Final Intermolecular Energy     =   -6.90 kcal/mol
USER        vdW + Hbond + desolv Energy     =   -6.86 kcal/mol
USER        Electrostatic Energy            =   -0.04 kcal/mol
USER    (2) Final Total Internal Energy     =   -2.07 kcal/mol
USER    (3) Torsional Free Energy           =   +2.98 kcal/mol
USER    (4) Unbound System's Energy  [=(2)] =   -2.07 kcal/mol
USER    
USER    
USER  
USER    DPF = D:/Protein_go_brrr/autodock/final/mut_K82N/heme_O2/dock.dpf
USER    NEWDPF move	heme_O2_opt.pdbqt
USER    NEWDPF about	8.287000 34.468000 -0.670000
USER    NEWDPF tran0	12.265013 2.523370 13.607280
USER    NEWDPF axisangle0	-0.479635 -0.732959 -0.482412 177.915883
USER    NEWDPF quaternion0	-0.479555 -0.732838 -0.482333 0.018186
USER    NEWDPF dihe0	143.90 -85.36 -113.27 -127.19 -179.83 149.62 -63.26 24.22 -167.29 179.19 
USER  
USER                              x       y       z    vdW   Elec        q     RMS 
ATOM      1  C   UNL d   1      13.295   0.670  13.655 -0.17 -0.01    +0.064    31.853
ATOM      2  C   UNL d   1      12.606   3.868  10.212 -0.12 -0.00    +0.064    31.853
ATOM      3  C   UNL d   1      10.002   6.623  13.166 -0.21 -0.00    +0.064    31.853
ATOM      4  C   UNL d   1      11.104   3.575  16.849 -0.13 -0.00    +0.064    31.853
ATOM      5  C   UNL d   1      13.321   1.316  12.478 -0.15 -0.01    +0.066    31.853
ATOM      6  C   UNL d   1      13.962   0.832  11.334 -0.13 +0.00    -0.021    31.853
ATOM      7  C   UNL d   1      13.800   1.777  10.349 -0.14 +0.00    -0.025    31.853
ATOM      8  C   UNL d   1      13.024   2.791  10.904 -0.12 -0.00    +0.066    31.853
ATOM      9  C   UNL d   1      14.401   1.695   8.962 -0.11 +0.00    +0.051    31.853
ATOM     10  C   UNL d   1      11.771   4.951  10.734 -0.16 -0.00    +0.066    31.853
ATOM     11  C   UNL d   1      11.231   5.962   9.931 -0.22 +0.00    -0.021    31.853
ATOM     12  C   UNL d   1      10.462   6.756  10.761 -0.29 -0.00    +0.000    31.853
ATOM     13  C   UNL d   1      10.590   6.179  12.055 -0.25 -0.00    +0.070    31.853
ATOM     14  C   UNL d   1      11.417   6.145   8.429 -0.16 +0.00    +0.052    31.853
ATOM     15  C   UNL d   1      10.134   6.089  14.500 -0.22 -0.01    +0.066    31.853
ATOM     16  C   UNL d   1       9.625   6.696  15.648 -0.28 +0.00    -0.021    31.853
ATOM     17  C   UNL d   1       9.928   5.845  16.711 -0.19 -0.00    +0.000    31.853
ATOM     18  C   UNL d   1      10.606   4.768  16.124 -0.17 -0.00    +0.070    31.853
ATOM     19  C   UNL d   1       8.951   8.045  15.636 -0.26 -0.01    +0.052    31.853
ATOM     20  C   UNL d   1      11.796   2.545  16.324 -0.21 -0.01    +0.066    31.853
ATOM     21  C   UNL d   1      12.224   1.440  17.054 -0.24 +0.00    -0.025    31.853
ATOM     22  C   UNL d   1      12.826   0.588  16.155 -0.23 +0.00    -0.021    31.853
ATOM     23  C   UNL d   1      12.760   1.217  14.907 -0.17 -0.01    +0.066    31.853
ATOM     24  C   UNL d   1      12.068   1.209  18.534 -0.23 +0.00    +0.051    31.853
ATOM     25  N   UNL d   1      12.784   2.536  12.235 -0.07 +0.02    -0.248    31.853
ATOM     26  N   UNL d   1      11.392   5.085  12.031 -0.12 +0.01    -0.248    31.853
ATOM     27  N   UNL d   1      10.788   4.969  14.794 -0.16 +0.03    -0.248    31.853
ATOM     28  N   UNL d   1      12.173   2.426  15.023 -0.10 +0.03    -0.248    31.853
ATOM     29 FE   UNL d   1      11.784   3.748  13.540 -0.04 -0.00    +0.000    31.853
ATOM     30  O   UNL d   1      13.162   4.313  13.088 -0.07 -0.00    +0.000    31.853
ATOM     31  O   UNL d   1      12.706   4.473  14.588 -0.09 -0.00    +0.000    31.853
ATOM     32  C   UNL d   1      14.812  -0.406  11.206 -0.04 -0.01    +0.052    31.853
ATOM     33  C   UNL d   1      16.258  -0.179  11.637 -0.07 -0.01    +0.115    31.853
ATOM     34  C   UNL d   1      16.624  -0.976  12.864 -0.08 -0.00    +0.139    31.853
ATOM     35  O   UNL d   1      16.066  -2.039  13.082 -0.02 +0.00    -0.650    31.853
ATOM     36  O   UNL d   1      17.540  -0.526  13.747 +0.02 +0.01    -0.776    31.853
ATOM     37  H   UNL d   1      17.454  -0.681  14.695 +0.02 -0.00    +0.167    31.853
ATOM     38  C   UNL d   1      13.484  -0.724  16.493 -0.28 -0.00    +0.052    31.853
ATOM     39  C   UNL d   1      14.882  -0.540  17.080 -0.11 +0.00    +0.115    31.853
ATOM     40  C   UNL d   1      15.745  -1.765  16.908 -0.10 +0.01    +0.139    31.853
ATOM     41  O   UNL d   1      15.452  -2.799  17.487 -0.01 -0.07    -0.650    31.853
ATOM     42  O   UNL d   1      16.810  -1.755  16.084 +0.01 -0.03    -0.776    31.853
ATOM     43  H   UNL d   1      16.715  -1.898  15.134 +0.02 +0.01    +0.167    31.853
ATOM     44  C   UNL d   1       9.703   7.960  10.245 -0.33 +0.00    +0.004    31.853
ATOM     45  C   UNL d   1       8.720   7.985   9.346 -0.39 +0.00    +0.012    31.853
ATOM     46  C   UNL d   1       9.689   5.988  18.191 -0.11 +0.00    +0.004    31.853
ATOM     47  C   UNL d   1      10.544   5.754  19.195 -0.17 +0.00    +0.012    31.853
TER
ENDMDL
MODEL       96
USER    Run = 96
USER    Cluster Rank = 52
USER    Number of conformations in this cluster = 1
USER  
USER    RMSD from reference structure       = 27.504 A
USER  
USER    Estimated Free Energy of Binding    =   -3.88 kcal/mol  [=(1)+(2)+(3)-(4)]
USER    Estimated Inhibition Constant, Ki   =    1.43 mM (millimolar)  [Temperature = 298.15 K]
USER    
USER    (1) Final Intermolecular Energy     =   -6.86 kcal/mol
USER        vdW + Hbond + desolv Energy     =   -5.96 kcal/mol
USER        Electrostatic Energy            =   -0.90 kcal/mol
USER    (2) Final Total Internal Energy     =   -2.48 kcal/mol
USER    (3) Torsional Free Energy           =   +2.98 kcal/mol
USER    (4) Unbound System's Energy  [=(2)] =   -2.48 kcal/mol
USER    
USER    
USER  
USER    DPF = D:/Protein_go_brrr/autodock/final/mut_K82N/heme_O2/dock.dpf
USER    NEWDPF move	heme_O2_opt.pdbqt
USER    NEWDPF about	8.287000 34.468000 -0.670000
USER    NEWDPF tran0	14.033606 5.757283 -2.165827
USER    NEWDPF axisangle0	-0.711146 -0.489088 -0.505038 -172.977760
USER    NEWDPF quaternion0	-0.709811 -0.488170 -0.504090 -0.061242
USER    NEWDPF dihe0	134.60 -99.63 -33.40 121.28 -7.24 169.01 -91.76 49.55 -173.23 -175.12 
USER  
USER                              x       y       z    vdW   Elec        q     RMS 
ATOM      1  C   UNL d   1      13.935   3.803  -2.984 -0.20 +0.01    +0.064    27.504
ATOM      2  C   UNL d   1      14.326   8.098  -4.974 -0.17 -0.00    +0.064    27.504
ATOM      3  C   UNL d   1      14.196  10.210  -0.659 -0.17 -0.00    +0.064    27.504
ATOM      4  C   UNL d   1      14.275   5.770   1.426 -0.08 +0.00    +0.064    27.504
ATOM      5  C   UNL d   1      14.054   4.799  -3.877 -0.19 +0.01    +0.066    27.504
ATOM      6  C   UNL d   1      14.102   4.608  -5.261 -0.20 -0.00    -0.021    27.504
ATOM      7  C   UNL d   1      14.258   5.847  -5.836 -0.21 +0.00    -0.025    27.504
ATOM      8  C   UNL d   1      14.253   6.766  -4.790 -0.16 +0.00    +0.066    27.504
ATOM      9  C   UNL d   1      14.432   6.098  -7.318 -0.18 -0.00    +0.051    27.504
ATOM     10  C   UNL d   1      14.302   9.112  -3.918 -0.20 -0.00    +0.066    27.504
ATOM     11  C   UNL d   1      14.215  10.485  -4.172 -0.28 +0.00    -0.021    27.504
ATOM     12  C   UNL d   1      14.158  11.110  -2.939 -0.25 -0.00    +0.000    27.504
ATOM     13  C   UNL d   1      14.227  10.060  -1.983 -0.22 -0.01    +0.070    27.504
ATOM     14  C   UNL d   1      14.160  11.170  -5.532 -0.23 -0.01    +0.052    27.504
ATOM     15  C   UNL d   1      14.299   9.177   0.343 -0.13 -0.00    +0.066    27.504
ATOM     16  C   UNL d   1      14.425   9.412   1.712 -0.08 +0.00    -0.021    27.504
ATOM     17  C   UNL d   1      14.450   8.160   2.327 -0.06 -0.00    +0.000    27.504
ATOM     18  C   UNL d   1      14.334   7.243   1.273 -0.10 -0.00    +0.070    27.504
ATOM     19  C   UNL d   1      14.564  10.794   2.299 -0.06 -0.00    +0.052    27.504
ATOM     20  C   UNL d   1      14.208   4.860   0.435 -0.09 +0.00    +0.066    27.504
ATOM     21  C   UNL d   1      14.136   3.485   0.641 -0.09 -0.00    -0.025    27.504
ATOM     22  C   UNL d   1      14.011   2.910  -0.603 -0.14 -0.00    -0.021    27.504
ATOM     23  C   UNL d   1      14.029   3.959  -1.528 -0.11 +0.01    +0.066    27.504
ATOM     24  C   UNL d   1      14.188   2.757   1.959 -0.07 +0.00    +0.051    27.504
ATOM     25  N   UNL d   1      14.193   6.114  -3.580 -0.10 -0.03    -0.248    27.504
ATOM     26  N   UNL d   1      14.320   8.848  -2.587 -0.15 +0.01    -0.248    27.504
ATOM     27  N   UNL d   1      14.319   7.875   0.072 -0.11 -0.00    -0.248    27.504
ATOM     28  N   UNL d   1      14.194   5.139  -0.896 -0.02 -0.06    -0.248    27.504
ATOM     29 FE   UNL d   1      14.257   6.981  -1.732 -0.05 +0.00    +0.000    27.504
ATOM     30  O   UNL d   1      15.603   7.060  -2.510 -0.13 +0.00    +0.000    27.504
ATOM     31  O   UNL d   1      15.611   6.766  -0.962 -0.10 +0.00    +0.000    27.504
ATOM     32  C   UNL d   1      14.138   3.302  -6.012 -0.20 -0.00    +0.052    27.504
ATOM     33  C   UNL d   1      15.557   2.790  -6.242 -0.07 +0.00    +0.115    27.504
ATOM     34  C   UNL d   1      16.072   1.980  -5.078 -0.05 +0.02    +0.139    27.504
ATOM     35  O   UNL d   1      17.275   1.845  -4.923 +0.02 -0.04    -0.650    27.504
ATOM     36  O   UNL d   1      15.230   1.375  -4.215 -0.37 -0.46    -0.776    27.504
ATOM     37  H   UNL d   1      15.364   0.466  -3.923 +0.01 +0.10    +0.167    27.504
ATOM     38  C   UNL d   1      13.944   1.432  -0.885 -0.14 +0.02    +0.052    27.504
ATOM     39  C   UNL d   1      15.296   0.743  -0.707 -0.06 +0.03    +0.115    27.504
ATOM     40  C   UNL d   1      15.647  -0.146  -1.873 -0.06 +0.05    +0.139    27.504
ATOM     41  O   UNL d   1      14.813  -0.916  -2.321 -0.20 -0.44    -0.650    27.504
ATOM     42  O   UNL d   1      16.855  -0.071  -2.466 +0.03 -0.13    -0.776    27.504
ATOM     43  H   UNL d   1      16.992   0.448  -3.267 +0.01 +0.03    +0.167    27.504
ATOM     44  C   UNL d   1      14.049  12.614  -2.806 -0.21 -0.00    +0.004    27.504
ATOM     45  C   UNL d   1      13.345  13.308  -1.912 -0.24 -0.00    +0.012    27.504
ATOM     46  C   UNL d   1      14.627   7.772   3.771 -0.03 -0.00    +0.004    27.504
ATOM     47  C   UNL d   1      13.743   7.178   4.583 -0.06 +0.00    +0.012    27.504
TER
ENDMDL
MODEL       86
USER    Run = 86
USER    Cluster Rank = 53
USER    Number of conformations in this cluster = 1
USER  
USER    RMSD from reference structure       = 49.353 A
USER  
USER    Estimated Free Energy of Binding    =   -3.80 kcal/mol  [=(1)+(2)+(3)-(4)]
USER    Estimated Inhibition Constant, Ki   =    1.65 mM (millimolar)  [Temperature = 298.15 K]
USER    
USER    (1) Final Intermolecular Energy     =   -6.78 kcal/mol
USER        vdW + Hbond + desolv Energy     =   -6.43 kcal/mol
USER        Electrostatic Energy            =   -0.35 kcal/mol
USER    (2) Final Total Internal Energy     =   -2.38 kcal/mol
USER    (3) Torsional Free Energy           =   +2.98 kcal/mol
USER    (4) Unbound System's Energy  [=(2)] =   -2.38 kcal/mol
USER    
USER    
USER  
USER    DPF = D:/Protein_go_brrr/autodock/final/mut_K82N/heme_O2/dock.dpf
USER    NEWDPF move	heme_O2_opt.pdbqt
USER    NEWDPF about	8.287000 34.468000 -0.670000
USER    NEWDPF tran0	7.313193 -16.894786 -4.725114
USER    NEWDPF axisangle0	0.138890 0.065515 -0.988138 129.842623
USER    NEWDPF quaternion0	0.125796 0.059339 -0.894983 0.423863
USER    NEWDPF dihe0	-168.84 26.75 -95.53 53.92 67.15 -79.04 -120.06 -156.32 -175.34 159.18 
USER  
USER                              x       y       z    vdW   Elec        q     RMS 
ATOM      1  C   UNL d   1       8.225 -18.723  -5.295 -0.02 +0.01    +0.064    49.353
ATOM      2  C   UNL d   1       8.516 -16.085  -1.357 -0.06 +0.01    +0.064    49.353
ATOM      3  C   UNL d   1       5.513 -12.822  -3.209 -0.34 +0.03    +0.064    49.353
ATOM      4  C   UNL d   1       4.830 -15.765  -7.074 -0.05 +0.04    +0.064    49.353
ATOM      5  C   UNL d   1       8.548 -18.273  -4.072 -0.06 +0.01    +0.066    49.353
ATOM      6  C   UNL d   1       9.428 -18.925  -3.205 -0.06 -0.00    -0.021    49.353
ATOM      7  C   UNL d   1       9.480 -18.185  -2.047 -0.09 -0.00    -0.025    49.353
ATOM      8  C   UNL d   1       8.667 -17.075  -2.258 -0.08 +0.01    +0.066    49.353
ATOM      9  C   UNL d   1      10.258 -18.569  -0.808 -0.09 +0.00    +0.051    49.353
ATOM     10  C   UNL d   1       7.696 -14.885  -1.530 -0.21 +0.01    +0.066    49.353
ATOM     11  C   UNL d   1       7.703 -13.812  -0.633 -0.29 -0.00    -0.021    49.353
ATOM     12  C   UNL d   1       6.857 -12.853  -1.158 -0.36 +0.00    +0.000    49.353
ATOM     13  C   UNL d   1       6.361 -13.414  -2.368 -0.14 +0.02    +0.070    49.353
ATOM     14  C   UNL d   1       8.505 -13.694   0.658 -0.33 +0.01    +0.052    49.353
ATOM     15  C   UNL d   1       4.959 -13.370  -4.424 -0.23 +0.06    +0.066    49.353
ATOM     16  C   UNL d   1       3.951 -12.767  -5.176 -0.29 -0.02    -0.021    49.353
ATOM     17  C   UNL d   1       3.739 -13.589  -6.282 -0.21 +0.00    +0.000    49.353
ATOM     18  C   UNL d   1       4.648 -14.644  -6.122 -0.09 +0.07    +0.070    49.353
ATOM     19  C   UNL d   1       3.249 -11.503  -4.746 -0.37 +0.03    +0.052    49.353
ATOM     20  C   UNL d   1       5.661 -16.816  -6.931 -0.02 +0.02    +0.066    49.353
ATOM     21  C   UNL d   1       5.803 -17.833  -7.870 +0.00 -0.00    -0.025    49.353
ATOM     22  C   UNL d   1       6.786 -18.670  -7.393 +0.00 -0.00    -0.021    49.353
ATOM     23  C   UNL d   1       7.196 -18.141  -6.165 -0.01 +0.01    +0.066    49.353
ATOM     24  C   UNL d   1       5.037 -17.999  -9.157 +0.01 +0.01    +0.051    49.353
ATOM     25  N   UNL d   1       8.042 -17.163  -3.480 -0.07 -0.04    -0.248    49.353
ATOM     26  N   UNL d   1       6.872 -14.652  -2.584 -0.10 -0.05    -0.248    49.353
ATOM     27  N   UNL d   1       5.327 -14.534  -4.952 -0.09 -0.24    -0.248    49.353
ATOM     28  N   UNL d   1       6.478 -17.038  -5.867 -0.02 -0.08    -0.248    49.353
ATOM     29 FE   UNL d   1       6.672 -15.852  -4.238 -0.03 +0.00    +0.000    49.353
ATOM     30  O   UNL d   1       6.146 -16.682  -3.031 -0.32 +0.00    +0.000    49.353
ATOM     31  O   UNL d   1       5.196 -16.395  -4.254 -0.71 +0.00    +0.000    49.353
ATOM     32  C   UNL d   1      10.091 -20.265  -3.398 -0.03 +0.00    +0.052    49.353
ATOM     33  C   UNL d   1       9.278 -21.417  -2.816 -0.04 +0.00    +0.115    49.353
ATOM     34  C   UNL d   1       7.891 -21.498  -3.405 -0.07 +0.01    +0.139    49.353
ATOM     35  O   UNL d   1       7.000 -20.802  -2.945 -0.21 -0.11    -0.650    49.353
ATOM     36  O   UNL d   1       7.603 -22.346  -4.413 +0.02 -0.03    -0.776    49.353
ATOM     37  H   UNL d   1       6.775 -22.295  -4.903 +0.01 +0.01    +0.167    49.353
ATOM     38  C   UNL d   1       7.254 -19.942  -8.053 +0.00 +0.00    +0.052    49.353
ATOM     39  C   UNL d   1       6.614 -21.185  -7.439 +0.00 +0.01    +0.115    49.353
ATOM     40  C   UNL d   1       5.317 -20.878  -6.735 -0.01 +0.01    +0.139    49.353
ATOM     41  O   UNL d   1       4.356 -20.488  -7.378 +0.02 -0.08    -0.650    49.353
ATOM     42  O   UNL d   1       5.181 -21.076  -5.409 +0.04 -0.10    -0.776    49.353
ATOM     43  H   UNL d   1       5.933 -21.005  -4.809 +0.02 +0.02    +0.167    49.353
ATOM     44  C   UNL d   1       6.612 -11.529  -0.465 -0.53 +0.00    +0.004    49.353
ATOM     45  C   UNL d   1       7.386 -10.445  -0.473 -0.33 +0.00    +0.012    49.353
ATOM     46  C   UNL d   1       2.744 -13.493  -7.408 -0.24 +0.00    +0.004    49.353
ATOM     47  C   UNL d   1       2.433 -12.422  -8.150 -0.39 +0.00    +0.012    49.353
TER
ENDMDL
MODEL       80
USER    Run = 80
USER    Cluster Rank = 54
USER    Number of conformations in this cluster = 1
USER  
USER    RMSD from reference structure       = 45.611 A
USER  
USER    Estimated Free Energy of Binding    =   -3.79 kcal/mol  [=(1)+(2)+(3)-(4)]
USER    Estimated Inhibition Constant, Ki   =    1.67 mM (millimolar)  [Temperature = 298.15 K]
USER    
USER    (1) Final Intermolecular Energy     =   -6.77 kcal/mol
USER        vdW + Hbond + desolv Energy     =   -6.71 kcal/mol
USER        Electrostatic Energy            =   -0.06 kcal/mol
USER    (2) Final Total Internal Energy     =   -2.16 kcal/mol
USER    (3) Torsional Free Energy           =   +2.98 kcal/mol
USER    (4) Unbound System's Energy  [=(2)] =   -2.16 kcal/mol
USER    
USER    
USER  
USER    DPF = D:/Protein_go_brrr/autodock/final/mut_K82N/heme_O2/dock.dpf
USER    NEWDPF move	heme_O2_opt.pdbqt
USER    NEWDPF about	8.287000 34.468000 -0.670000
USER    NEWDPF tran0	3.477053 -10.023199 18.480245
USER    NEWDPF axisangle0	0.178196 -0.907561 0.380235 -158.826775
USER    NEWDPF quaternion0	0.175163 -0.892113 0.373762 -0.183722
USER    NEWDPF dihe0	123.26 -125.91 64.03 -109.70 -36.38 152.05 100.59 -117.88 11.61 -21.92 
USER  
USER                              x       y       z    vdW   Elec        q     RMS 
ATOM      1  C   UNL d   1       4.993  -8.714  17.782 -0.17 -0.00    +0.064    45.611
ATOM      2  C   UNL d   1       4.466 -13.428  17.543 -0.25 -0.01    +0.064    45.611
ATOM      3  C   UNL d   1       0.327 -13.181  19.972 -0.08 -0.00    +0.064    45.611
ATOM      4  C   UNL d   1       0.617  -8.287  19.809 -0.05 +0.01    +0.064    45.611
ATOM      5  C   UNL d   1       5.186 -10.016  17.517 -0.14 -0.00    +0.066    45.611
ATOM      6  C   UNL d   1       6.301 -10.520  16.841 -0.18 +0.00    -0.021    45.611
ATOM      7  C   UNL d   1       6.128 -11.880  16.733 -0.23 +0.00    -0.025    45.611
ATOM      8  C   UNL d   1       4.937 -12.175  17.389 -0.23 -0.01    +0.066    45.611
ATOM      9  C   UNL d   1       7.066 -12.816  16.002 -0.27 -0.01    +0.051    45.611
ATOM     10  C   UNL d   1       3.235 -13.802  18.241 -0.21 -0.00    +0.066    45.611
ATOM     11  C   UNL d   1       2.877 -15.127  18.514 -0.18 +0.00    -0.021    45.611
ATOM     12  C   UNL d   1       1.695 -15.076  19.230 -0.10 +0.00    +0.000    45.611
ATOM     13  C   UNL d   1       1.386 -13.692  19.345 -0.07 +0.00    +0.070    45.611
ATOM     14  C   UNL d   1       3.645 -16.387  18.132 -0.19 -0.01    +0.052    45.611
ATOM     15  C   UNL d   1      -0.040 -11.790  20.081 -0.08 -0.00    +0.066    45.611
ATOM     16  C   UNL d   1      -1.246 -11.330  20.609 -0.04 +0.00    -0.021    45.611
ATOM     17  C   UNL d   1      -1.187  -9.937  20.572 -0.06 +0.00    +0.000    45.611
ATOM     18  C   UNL d   1       0.069  -9.648  20.018 -0.07 +0.00    +0.070    45.611
ATOM     19  C   UNL d   1      -2.358 -12.251  21.046 -0.02 -0.00    +0.052    45.611
ATOM     20  C   UNL d   1       1.798  -7.974  19.241 -0.13 +0.00    +0.066    45.611
ATOM     21  C   UNL d   1       2.269  -6.673  19.087 -0.19 -0.00    -0.025    45.611
ATOM     22  C   UNL d   1       3.526  -6.776  18.536 -0.21 +0.00    -0.021    45.611
ATOM     23  C   UNL d   1       3.770  -8.142  18.357 -0.16 -0.00    +0.066    45.611
ATOM     24  C   UNL d   1       1.553  -5.396  19.443 -0.28 +0.02    +0.051    45.611
ATOM     25  N   UNL d   1       4.325 -11.019  17.815 -0.12 +0.01    -0.248    45.611
ATOM     26  N   UNL d   1       2.325 -12.925  18.736 -0.11 +0.01    -0.248    45.611
ATOM     27  N   UNL d   1       0.719 -10.784  19.658 -0.07 +0.01    -0.248    45.611
ATOM     28  N   UNL d   1       2.698  -8.864  18.746 -0.09 +0.00    -0.248    45.611
ATOM     29 FE   UNL d   1       2.510 -10.879  18.742 -0.03 -0.00    +0.000    45.611
ATOM     30  O   UNL d   1       2.421 -11.305  17.248 -0.35 -0.00    +0.000    45.611
ATOM     31  O   UNL d   1       1.364 -10.297  17.837 -0.39 -0.00    +0.000    45.611
ATOM     32  C   UNL d   1       7.420  -9.742  16.198 -0.35 +0.00    +0.052    45.611
ATOM     33  C   UNL d   1       8.635  -9.589  17.108 -0.28 +0.01    +0.115    45.611
ATOM     34  C   UNL d   1       8.472  -8.465  18.100 -0.13 +0.03    +0.139    45.611
ATOM     35  O   UNL d   1       9.305  -8.311  18.979 -0.38 -0.13    -0.650    45.611
ATOM     36  O   UNL d   1       7.407  -7.637  18.057 +0.04 -0.03    -0.776    45.611
ATOM     37  H   UNL d   1       6.823  -7.516  18.815 +0.06 -0.00    +0.167    45.611
ATOM     38  C   UNL d   1       4.412  -5.622  18.145 -0.34 -0.01    +0.052    45.611
ATOM     39  C   UNL d   1       5.143  -5.019  19.343 -0.24 -0.02    +0.115    45.611
ATOM     40  C   UNL d   1       6.050  -6.013  20.025 -0.19 -0.01    +0.139    45.611
ATOM     41  O   UNL d   1       5.573  -7.006  20.551 +0.05 +0.03    -0.650    45.611
ATOM     42  O   UNL d   1       7.387  -5.852  20.020 +0.03 +0.04    -0.776    45.611
ATOM     43  H   UNL d   1       7.976  -6.533  19.673 +0.06 +0.00    +0.167    45.611
ATOM     44  C   UNL d   1       0.996 -16.328  19.717 -0.06 -0.00    +0.004    45.611
ATOM     45  C   UNL d   1      -0.235 -16.745  19.423 -0.05 -0.00    +0.012    45.611
ATOM     46  C   UNL d   1      -2.205  -8.894  20.948 -0.06 +0.00    +0.004    45.611
ATOM     47  C   UNL d   1      -2.800  -7.992  20.156 -0.12 +0.00    +0.012    45.611
TER
ENDMDL
MODEL       84
USER    Run = 84
USER    Cluster Rank = 55
USER    Number of conformations in this cluster = 1
USER  
USER    RMSD from reference structure       = 38.267 A
USER  
USER    Estimated Free Energy of Binding    =   -3.69 kcal/mol  [=(1)+(2)+(3)-(4)]
USER    Estimated Inhibition Constant, Ki   =    1.96 mM (millimolar)  [Temperature = 298.15 K]
USER    
USER    (1) Final Intermolecular Energy     =   -6.68 kcal/mol
USER        vdW + Hbond + desolv Energy     =   -6.47 kcal/mol
USER        Electrostatic Energy            =   -0.21 kcal/mol
USER    (2) Final Total Internal Energy     =   -2.28 kcal/mol
USER    (3) Torsional Free Energy           =   +2.98 kcal/mol
USER    (4) Unbound System's Energy  [=(2)] =   -2.28 kcal/mol
USER    
USER    
USER  
USER    DPF = D:/Protein_go_brrr/autodock/final/mut_K82N/heme_O2/dock.dpf
USER    NEWDPF move	heme_O2_opt.pdbqt
USER    NEWDPF about	8.287000 34.468000 -0.670000
USER    NEWDPF tran0	12.686063 -5.625759 3.093130
USER    NEWDPF axisangle0	-0.819745 -0.314523 -0.478636 -161.109491
USER    NEWDPF quaternion0	-0.808632 -0.310259 -0.472147 -0.164105
USER    NEWDPF dihe0	159.33 -18.54 -58.04 88.47 146.57 135.82 -67.00 -4.56 -149.33 158.86 
USER  
USER                              x       y       z    vdW   Elec        q     RMS 
ATOM      1  C   UNL d   1      11.876  -7.175   1.892 -0.22 +0.00    +0.064    38.267
ATOM      2  C   UNL d   1      12.963  -2.642   0.979 -0.19 -0.00    +0.064    38.267
ATOM      3  C   UNL d   1      14.393  -1.974   5.518 -0.16 +0.01    +0.064    38.267
ATOM      4  C   UNL d   1      13.727  -6.764   6.346 -0.22 +0.01    +0.064    38.267
ATOM      5  C   UNL d   1      12.056  -5.997   1.272 -0.20 -0.00    +0.066    38.267
ATOM      6  C   UNL d   1      11.736  -5.760  -0.067 -0.18 +0.00    -0.021    38.267
ATOM      7  C   UNL d   1      12.091  -4.460  -0.345 -0.18 -0.00    -0.025    38.267
ATOM      8  C   UNL d   1      12.573  -3.925   0.847 -0.18 -0.00    +0.066    38.267
ATOM      9  C   UNL d   1      11.987  -3.806  -1.705 -0.23 +0.02    +0.051    38.267
ATOM     10  C   UNL d   1      13.456  -2.018   2.207 -0.11 +0.00    +0.066    38.267
ATOM     11  C   UNL d   1      13.691  -0.644   2.331 -0.15 -0.00    -0.021    38.267
ATOM     12  C   UNL d   1      14.087  -0.429   3.639 -0.12 +0.00    +0.000    38.267
ATOM     13  C   UNL d   1      14.082  -1.714   4.248 -0.06 +0.01    +0.070    38.267
ATOM     14  C   UNL d   1      13.520   0.422   1.256 -0.16 +0.01    +0.052    38.267
ATOM     15  C   UNL d   1      14.434  -3.265   6.163 -0.17 +0.01    +0.066    38.267
ATOM     16  C   UNL d   1      14.925  -3.490   7.449 -0.17 -0.00    -0.021    38.267
ATOM     17  C   UNL d   1      14.746  -4.849   7.707 -0.22 +0.00    +0.000    38.267
ATOM     18  C   UNL d   1      14.150  -5.357   6.544 -0.21 +0.01    +0.070    38.267
ATOM     19  C   UNL d   1      15.565  -2.411   8.286 -0.12 -0.00    +0.052    38.267
ATOM     20  C   UNL d   1      13.192  -7.294   5.229 -0.22 +0.01    +0.066    38.267
ATOM     21  C   UNL d   1      12.797  -8.623   5.108 -0.26 -0.00    -0.025    38.267
ATOM     22  C   UNL d   1      12.242  -8.752   3.854 -0.28 -0.00    -0.021    38.267
ATOM     23  C   UNL d   1      12.336  -7.495   3.248 -0.17 +0.01    +0.066    38.267
ATOM     24  C   UNL d   1      12.945  -9.716   6.134 -0.17 +0.01    +0.051    38.267
ATOM     25  N   UNL d   1      12.613  -4.891   1.825 -0.13 +0.01    -0.248    38.267
ATOM     26  N   UNL d   1      13.701  -2.676   3.369 -0.07 -0.01    -0.248    38.267
ATOM     27  N   UNL d   1      14.037  -4.397   5.591 -0.14 -0.03    -0.248    38.267
ATOM     28  N   UNL d   1      12.955  -6.623   4.070 -0.13 -0.03    -0.248    38.267
ATOM     29 FE   UNL d   1      13.327  -4.664   3.725 -0.05 +0.00    +0.000    38.267
ATOM     30  O   UNL d   1      14.431  -4.617   2.629 -0.11 +0.00    +0.000    38.267
ATOM     31  O   UNL d   1      14.709  -5.367   3.986 -0.11 +0.00    +0.000    38.267
ATOM     32  C   UNL d   1      11.244  -6.752  -1.089 -0.15 +0.00    +0.052    38.267
ATOM     33  C   UNL d   1      12.279  -7.824  -1.419 -0.05 +0.00    +0.115    38.267
ATOM     34  C   UNL d   1      11.880  -9.186  -0.905 -0.06 +0.00    +0.139    38.267
ATOM     35  O   UNL d   1      10.867  -9.305  -0.234 +0.02 -0.03    -0.650    38.267
ATOM     36  O   UNL d   1      12.634 -10.277  -1.148 +0.04 -0.02    -0.776    38.267
ATOM     37  H   UNL d   1      12.567 -11.075  -0.610 +0.02 +0.01    +0.167    38.267
ATOM     38  C   UNL d   1      11.712 -10.029   3.255 -0.25 +0.01    +0.052    38.267
ATOM     39  C   UNL d   1      12.714 -10.687   2.309 -0.10 +0.01    +0.115    38.267
ATOM     40  C   UNL d   1      12.243 -12.032   1.816 -0.09 +0.02    +0.139    38.267
ATOM     41  O   UNL d   1      12.357 -13.014   2.531 -0.00 -0.15    -0.650    38.267
ATOM     42  O   UNL d   1      11.648 -12.163   0.614 +0.04 -0.09    -0.776    38.267
ATOM     43  H   UNL d   1      11.304 -11.400   0.135 +0.03 +0.01    +0.167    38.267
ATOM     44  C   UNL d   1      14.426   0.952   4.159 -0.09 +0.00    +0.004    38.267
ATOM     45  C   UNL d   1      13.816   1.634   5.128 -0.13 +0.00    +0.012    38.267
ATOM     46  C   UNL d   1      15.132  -5.689   8.895 -0.26 +0.00    +0.004    38.267
ATOM     47  C   UNL d   1      14.484  -5.825  10.059 -0.37 -0.00    +0.012    38.267
TER
ENDMDL
MODEL       13
USER    Run = 13
USER    Cluster Rank = 56
USER    Number of conformations in this cluster = 1
USER  
USER    RMSD from reference structure       = 27.167 A
USER  
USER    Estimated Free Energy of Binding    =   -3.54 kcal/mol  [=(1)+(2)+(3)-(4)]
USER    Estimated Inhibition Constant, Ki   =    2.55 mM (millimolar)  [Temperature = 298.15 K]
USER    
USER    (1) Final Intermolecular Energy     =   -6.52 kcal/mol
USER        vdW + Hbond + desolv Energy     =   -6.36 kcal/mol
USER        Electrostatic Energy            =   -0.16 kcal/mol
USER    (2) Final Total Internal Energy     =   -2.57 kcal/mol
USER    (3) Torsional Free Energy           =   +2.98 kcal/mol
USER    (4) Unbound System's Energy  [=(2)] =   -2.57 kcal/mol
USER    
USER    
USER  
USER    DPF = D:/Protein_go_brrr/autodock/final/mut_K82N/heme_O2/dock.dpf
USER    NEWDPF move	heme_O2_opt.pdbqt
USER    NEWDPF about	8.287000 34.468000 -0.670000
USER    NEWDPF tran0	14.103466 7.935148 -8.368858
USER    NEWDPF axisangle0	0.538491 0.772859 -0.335732 -153.098071
USER    NEWDPF quaternion0	0.523720 0.751659 -0.326523 -0.232613
USER    NEWDPF dihe0	-104.38 -133.59 -122.59 118.82 80.24 136.26 72.06 -101.95 22.40 -11.30 
USER  
USER                              x       y       z    vdW   Elec        q     RMS 
ATOM      1  C   UNL d   1      15.305   7.478  -6.681 -0.13 -0.00    +0.064    27.167
ATOM      2  C   UNL d   1      12.368   4.852  -9.335 -0.24 -0.02    +0.064    27.167
ATOM      3  C   UNL d   1      11.283   8.657 -12.063 -0.19 -0.00    +0.064    27.167
ATOM      4  C   UNL d   1      14.663  11.257  -9.639 -0.12 -0.00    +0.064    27.167
ATOM      5  C   UNL d   1      14.596   6.453  -7.182 -0.15 -0.00    +0.066    27.167
ATOM      6  C   UNL d   1      14.610   5.159  -6.652 -0.14 +0.00    -0.021    27.167
ATOM      7  C   UNL d   1      13.794   4.388  -7.446 -0.20 +0.01    -0.025    27.167
ATOM      8  C   UNL d   1      13.266   5.243  -8.410 -0.20 -0.01    +0.066    27.167
ATOM      9  C   UNL d   1      13.578   2.900  -7.278 -0.10 -0.02    +0.051    27.167
ATOM     10  C   UNL d   1      11.762   5.708 -10.357 -0.24 -0.02    +0.066    27.167
ATOM     11  C   UNL d   1      10.716   5.291 -11.187 -0.27 +0.01    -0.021    27.167
ATOM     12  C   UNL d   1      10.376   6.380 -11.968 -0.26 -0.00    +0.000    27.167
ATOM     13  C   UNL d   1      11.263   7.419 -11.570 -0.19 -0.01    +0.070    27.167
ATOM     14  C   UNL d   1      10.049   3.921 -11.214 -0.24 -0.03    +0.052    27.167
ATOM     15  C   UNL d   1      12.187   9.725 -11.712 -0.21 +0.00    +0.066    27.167
ATOM     16  C   UNL d   1      12.264  10.947 -12.380 -0.19 -0.00    -0.021    27.167
ATOM     17  C   UNL d   1      13.222  11.705 -11.707 -0.16 -0.00    +0.000    27.167
ATOM     18  C   UNL d   1      13.662  10.878 -10.664 -0.15 -0.00    +0.070    27.167
ATOM     19  C   UNL d   1      11.464  11.259 -13.620 -0.14 +0.00    +0.052    27.167
ATOM     20  C   UNL d   1      15.140  10.474  -8.652 -0.11 -0.00    +0.066    27.167
ATOM     21  C   UNL d   1      16.070  10.892  -7.704 -0.08 +0.00    -0.025    27.167
ATOM     22  C   UNL d   1      16.244   9.837  -6.837 -0.09 +0.00    -0.021    27.167
ATOM     23  C   UNL d   1      15.424   8.803  -7.300 -0.13 -0.00    +0.066    27.167
ATOM     24  C   UNL d   1      16.760  12.229  -7.632 -0.04 -0.00    +0.051    27.167
ATOM     25  N   UNL d   1      13.811   6.500  -8.286 -0.11 +0.03    -0.248    27.167
ATOM     26  N   UNL d   1      12.106   6.999 -10.593 -0.16 +0.04    -0.248    27.167
ATOM     27  N   UNL d   1      13.078   9.654 -10.728 -0.15 +0.01    -0.248    27.167
ATOM     28  N   UNL d   1      14.789   9.180  -8.429 -0.09 +0.01    -0.248    27.167
ATOM     29 FE   UNL d   1      13.457   8.100  -9.505 -0.06 -0.00    +0.000    27.167
ATOM     30  O   UNL d   1      14.270   6.960 -10.185 -0.14 -0.00    +0.000    27.167
ATOM     31  O   UNL d   1      14.652   8.463 -10.461 -0.14 -0.00    +0.000    27.167
ATOM     32  C   UNL d   1      15.462   4.631  -5.527 -0.08 -0.00    +0.052    27.167
ATOM     33  C   UNL d   1      14.676   4.418  -4.238 -0.15 +0.01    +0.115    27.167
ATOM     34  C   UNL d   1      15.051   5.410  -3.164 -0.12 +0.01    +0.139    27.167
ATOM     35  O   UNL d   1      16.143   5.329  -2.623 +0.02 -0.03    -0.650    27.167
ATOM     36  O   UNL d   1      14.195   6.373  -2.766 -0.26 -0.17    -0.776    27.167
ATOM     37  H   UNL d   1      14.297   7.292  -3.037 +0.04 +0.01    +0.167    27.167
ATOM     38  C   UNL d   1      17.196   9.808  -5.669 -0.03 -0.00    +0.052    27.167
ATOM     39  C   UNL d   1      16.546  10.299  -4.377 -0.05 -0.01    +0.115    27.167
ATOM     40  C   UNL d   1      15.640   9.264  -3.758 -0.11 -0.01    +0.139    27.167
ATOM     41  O   UNL d   1      14.516   9.098  -4.204 -0.03 +0.04    -0.650    27.167
ATOM     42  O   UNL d   1      16.067   8.479  -2.750 +0.04 +0.02    -0.776    27.167
ATOM     43  H   UNL d   1      15.947   7.522  -2.769 +0.03 +0.00    +0.167    27.167
ATOM     44  C   UNL d   1       9.266   6.317 -12.996 -0.35 -0.00    +0.004    27.167
ATOM     45  C   UNL d   1       8.005   5.925 -12.816 -0.36 -0.00    +0.012    27.167
ATOM     46  C   UNL d   1      13.778  13.075 -11.992 -0.08 -0.00    +0.004    27.167
ATOM     47  C   UNL d   1      13.618  14.199 -11.282 -0.08 -0.00    +0.012    27.167
TER
ENDMDL


AVSFLD: # AVS field file
AVSFLD: #
AVSFLD: # Created by AutoDock
AVSFLD: #
AVSFLD: ndim=2           # number of dimensions in the field
AVSFLD: nspace=1         # number of physical coordinates
AVSFLD: veclen=7         # vector size
AVSFLD: dim1=47          # atoms
AVSFLD: dim2=56          # conformations
AVSFLD: data=Real       # data type (byte,integer,Real,double)
AVSFLD: field=uniform    # field coordinate layout
AVSFLD: label= x y z vdW Elec q RMS
AVSFLD: variable 1 file = D:/Protein_go_brrr/autodock/final/mut_K82N/heme_O2/dock.dlg.pdb filetype = ascii offset = 5 stride = 12
AVSFLD: variable 2 file = D:/Protein_go_brrr/autodock/final/mut_K82N/heme_O2/dock.dlg.pdb filetype = ascii offset = 6 stride = 12
AVSFLD: variable 3 file = D:/Protein_go_brrr/autodock/final/mut_K82N/heme_O2/dock.dlg.pdb filetype = ascii offset = 7 stride = 12
AVSFLD: variable 4 file = D:/Protein_go_brrr/autodock/final/mut_K82N/heme_O2/dock.dlg.pdb filetype = ascii offset = 8 stride = 12
AVSFLD: variable 5 file = D:/Protein_go_brrr/autodock/final/mut_K82N/heme_O2/dock.dlg.pdb filetype = ascii offset = 9 stride = 12
AVSFLD: variable 6 file = D:/Protein_go_brrr/autodock/final/mut_K82N/heme_O2/dock.dlg.pdb filetype = ascii offset = 10 stride = 12
AVSFLD: variable 7 file = D:/Protein_go_brrr/autodock/final/mut_K82N/heme_O2/dock.dlg.pdb filetype = ascii offset = 11 stride = 12
AVSFLD: # end of file

>>> Closing the docking parameter file (DPF)...
This docking finished at:			10:57 06" p.m., 10/17/2025


________________________________________________________________________________

D:/autodockScripts/autodock4.exe: Successful Completion on "ACER"

Real= 7h 48m 15.55s,  CPU= 7m 08.25s,  System= 22.95s
________________________________________________________________________________

