          AutoDock 4.2 Release 4.2.6   
         (C) 1989-2012 The Scripps Research Institute
        AutoDock comes with ABSOLUTELY NO WARRANTY.
        AutoDock is free software, and you are welcome
        to redistribute it under certain conditions;
        for details type 'autodock4 -C'

                     main.cc  $Revision: 1.213 $

                   Compiled on Jul 18 2014 at 15:34:58


This file was created at:			11:13 26" a.m., 01/15/2026
                   on host:		"ACER"
Current Working Directory = "D:\Protein_go_brrr\autodock\final\AncA\heme_O2"

      ________________________________________________________________

                   SETTING UP DEFAULT PARAMETER LIBRARY
      ________________________________________________________________


Random number generator was seeded with values 28936, 1768472006.
Docking parameter file (DPF) used for this docking:		D:/Protein_go_brrr/autodock/final/AncA/heme_O2/dock.dpf
DPF> autodock_parameter_version 4.2       # used by autodock to validate parameter set

	Autodock parameter version 4.2.
DPF> outlev 1                             # diagnostic output level

Output Level = 1  ADT-COMPATIBLE OUTPUT DURING DOCKING.
DPF> intelec                              # calculate internal electrostatics

Electrostatic energies will be calculated for all non-bonds between moving atoms.
DPF> seed pid time                        # seeds for random generator

Random number generator was seeded with values 28936, 1768472006.
DPF> ligand_types A C OA N Fe HD          # atoms types in ligand

DPF> fld opt_AncA.maps.fld                # grid_data_file

Opening Grid Map Dimensions file:		opt_AncA.maps.fld
Grid Point Spacing =				0.714 Angstroms

Even Number of User-specified Grid Points =	126 x-points
						126 y-points
						126 z-points

Coordinates of Central Grid Point of Maps =	(-0.462, -1.415, -1.889)
Macromolecule file used to create Grid Maps =	opt_AncA.pdbqt
Grid Parameter file used to create Grid Maps =	D:/Protein_go_brrr/autodock/final/AncA/heme_O2/grid.gpf
Minimum coordinates in grid = (-45.444, -46.397, -46.871)
Maximum coordinates in grid = (44.520, 43.567, 43.093)

DPF> map opt_AncA.A.map                   # atom-specific affinity map

DPF> map opt_AncA.C.map                   # atom-specific affinity map

DPF> map opt_AncA.OA.map                  # atom-specific affinity map

DPF> map opt_AncA.N.map                   # atom-specific affinity map

DPF> map opt_AncA.Fe.map                  # atom-specific affinity map

DPF> map opt_AncA.HD.map                  # atom-specific affinity map

DPF> elecmap opt_AncA.e.map               # electrostatics map

DPF> desolvmap opt_AncA.d.map             # desolvation map

DPF> move heme_O2_opt.pdbqt               # small molecule

1,4-interactions will be _ignored_ in the non-bonded internal energy calculation.

Ligand PDBQT file = "heme_O2_opt.pdbqt"

INPUT LIGAND PDBQT FILE:
________________________

INPUT-LIGAND-PDBQT: REMARK  10 active torsions:
INPUT-LIGAND-PDBQT: REMARK  status: ('A' for Active; 'I' for Inactive)
INPUT-LIGAND-PDBQT: REMARK    1  A    between atoms: C_6  and  C_10 
INPUT-LIGAND-PDBQT: REMARK    2  A    between atoms: C_10  and  C_11 
INPUT-LIGAND-PDBQT: REMARK    3  A    between atoms: C_11  and  C_12 
INPUT-LIGAND-PDBQT: REMARK    4  A    between atoms: C_12  and  O_14 
INPUT-LIGAND-PDBQT: REMARK    5  A    between atoms: C_17  and  C_20 
INPUT-LIGAND-PDBQT: REMARK    6  A    between atoms: C_24  and  C_27 
INPUT-LIGAND-PDBQT: REMARK    7  A    between atoms: C_31  and  C_34 
INPUT-LIGAND-PDBQT: REMARK    8  A    between atoms: C_34  and  C_35 
INPUT-LIGAND-PDBQT: REMARK    9  A    between atoms: C_35  and  C_36 
INPUT-LIGAND-PDBQT: REMARK   10  A    between atoms: C_36  and  O_38 
INPUT-LIGAND-PDBQT: ROOT
INPUT-LIGAND-PDBQT: ATOM      1  C   UNL d   1       6.417  35.070  -1.470  0.00  0.00     0.064 A 
INPUT-LIGAND-PDBQT: ATOM      2  C   UNL d   1       7.592  32.343   2.237  0.00  0.00     0.064 A 
INPUT-LIGAND-PDBQT: ATOM      3  C   UNL d   1      12.269  32.904   1.285  0.00  0.00     0.064 C 
INPUT-LIGAND-PDBQT: ATOM      4  C   UNL d   1      11.084  36.099  -2.244  0.00  0.00     0.064 A 
INPUT-LIGAND-PDBQT: ATOM      5  C   UNL d   1       6.355  34.284  -0.383  0.00  0.00     0.066 A 
INPUT-LIGAND-PDBQT: ATOM      6  C   UNL d   1       5.162  33.858   0.208  0.00  0.00    -0.021 A 
INPUT-LIGAND-PDBQT: ATOM      7  C   UNL d   1       5.501  33.104   1.307  0.00  0.00    -0.025 A 
INPUT-LIGAND-PDBQT: ATOM      8  C   UNL d   1       6.892  33.050   1.329  0.00  0.00     0.066 A 
INPUT-LIGAND-PDBQT: ATOM      9  C   UNL d   1       4.513  32.505   2.284  0.00  0.00     0.051 C 
INPUT-LIGAND-PDBQT: ATOM     10  C   UNL d   1       9.050  32.230   2.297  0.00  0.00     0.066 A 
INPUT-LIGAND-PDBQT: ATOM     11  C   UNL d   1       9.719  31.353   3.158  0.00  0.00    -0.021 A 
INPUT-LIGAND-PDBQT: ATOM     12  C   UNL d   1      11.068  31.487   2.886  0.00  0.00     0.000 A 
INPUT-LIGAND-PDBQT: ATOM     13  C   UNL d   1      11.148  32.469   1.860  0.00  0.00     0.070 A 
INPUT-LIGAND-PDBQT: ATOM     14  C   UNL d   1       9.096  30.407   4.178  0.00  0.00     0.052 C 
INPUT-LIGAND-PDBQT: ATOM     15  C   UNL d   1      12.395  33.921   0.269  0.00  0.00     0.066 A 
INPUT-LIGAND-PDBQT: ATOM     16  C   UNL d   1      13.607  34.449  -0.175  0.00  0.00    -0.021 A 
INPUT-LIGAND-PDBQT: ATOM     17  C   UNL d   1      13.294  35.363  -1.181  0.00  0.00     0.000 A 
INPUT-LIGAND-PDBQT: ATOM     18  C   UNL d   1      11.896  35.322  -1.278  0.00  0.00     0.070 A 
INPUT-LIGAND-PDBQT: ATOM     19  C   UNL d   1      14.937  34.079   0.432  0.00  0.00     0.052 C 
INPUT-LIGAND-PDBQT: ATOM     20  C   UNL d   1       9.740  36.116  -2.335  0.00  0.00     0.066 A 
INPUT-LIGAND-PDBQT: ATOM     21  C   UNL d   1       9.031  36.855  -3.278  0.00  0.00    -0.025 A 
INPUT-LIGAND-PDBQT: ATOM     22  C   UNL d   1       7.701  36.553  -3.090  0.00  0.00    -0.021 A 
INPUT-LIGAND-PDBQT: ATOM     23  C   UNL d   1       7.646  35.651  -2.023  0.00  0.00     0.066 A 
INPUT-LIGAND-PDBQT: ATOM     24  C   UNL d   1       9.594  37.804  -4.304  0.00  0.00     0.051 C 
INPUT-LIGAND-PDBQT: ATOM     25  N   UNL d   1       7.418  33.831   0.326  0.00  0.00    -0.248 N 
INPUT-LIGAND-PDBQT: ATOM     26  N   UNL d   1       9.916  32.919   1.511  0.00  0.00    -0.248 N 
INPUT-LIGAND-PDBQT: ATOM     27  N   UNL d   1      11.363  34.498  -0.340  0.00  0.00    -0.248 N 
INPUT-LIGAND-PDBQT: ATOM     28  N   UNL d   1       8.884  35.423  -1.538  0.00  0.00    -0.248 N 
INPUT-LIGAND-PDBQT: ATOM     29 FE   UNL d   1       9.399  34.181  -0.025  0.00  0.00     0.000 Fe
INPUT-LIGAND-PDBQT: ATOM     30  O   UNL d   1       8.866  34.841   1.280  0.00  0.00     0.000 OA
INPUT-LIGAND-PDBQT: ATOM     31  O   UNL d   1       9.881  35.626   0.366  0.00  0.00     0.000 OA
INPUT-LIGAND-PDBQT: ENDROOT
INPUT-LIGAND-PDBQT: BRANCH   6  32
INPUT-LIGAND-PDBQT: ATOM     32  C   UNL d   1       3.756  34.255  -0.161  0.00  0.00     0.052 C 
INPUT-LIGAND-PDBQT: BRANCH  32  33
INPUT-LIGAND-PDBQT: ATOM     33  C   UNL d   1       3.190  33.429  -1.312  0.00  0.00     0.115 C 
INPUT-LIGAND-PDBQT: BRANCH  33  34
INPUT-LIGAND-PDBQT: ATOM     34  C   UNL d   1       1.764  33.798  -1.638  0.00  0.00     0.139 C 
INPUT-LIGAND-PDBQT: ATOM     35  O   UNL d   1       1.015  32.956  -2.107  0.00  0.00    -0.650 OA
INPUT-LIGAND-PDBQT: BRANCH  34  36
INPUT-LIGAND-PDBQT: ATOM     36  O   UNL d   1       1.301  35.051  -1.449  0.00  0.00    -0.776 OA
INPUT-LIGAND-PDBQT: ATOM     37  H   UNL d   1       1.861  35.756  -1.104  0.00  0.00     0.167 HD
INPUT-LIGAND-PDBQT: ENDBRANCH  34  36
INPUT-LIGAND-PDBQT: ENDBRANCH  33  34
INPUT-LIGAND-PDBQT: ENDBRANCH  32  33
INPUT-LIGAND-PDBQT: ENDBRANCH   6  32
INPUT-LIGAND-PDBQT: BRANCH  22  38
INPUT-LIGAND-PDBQT: ATOM     38  C   UNL d   1       6.548  37.151  -3.854  0.00  0.00     0.052 C 
INPUT-LIGAND-PDBQT: BRANCH  38  39
INPUT-LIGAND-PDBQT: ATOM     39  C   UNL d   1       6.010  36.208  -4.928  0.00  0.00     0.115 C 
INPUT-LIGAND-PDBQT: BRANCH  39  40
INPUT-LIGAND-PDBQT: ATOM     40  C   UNL d   1       4.838  36.794  -5.675  0.00  0.00     0.139 C 
INPUT-LIGAND-PDBQT: ATOM     41  O   UNL d   1       4.700  36.561  -6.865  0.00  0.00    -0.650 OA
INPUT-LIGAND-PDBQT: BRANCH  40  42
INPUT-LIGAND-PDBQT: ATOM     42  O   UNL d   1       3.907  37.532  -5.040  0.00  0.00    -0.776 OA
INPUT-LIGAND-PDBQT: ATOM     43  H   UNL d   1       3.982  37.740  -4.101  0.00  0.00     0.167 HD
INPUT-LIGAND-PDBQT: ENDBRANCH  40  42
INPUT-LIGAND-PDBQT: ENDBRANCH  39  40
INPUT-LIGAND-PDBQT: ENDBRANCH  38  39
INPUT-LIGAND-PDBQT: ENDBRANCH  22  38
INPUT-LIGAND-PDBQT: BRANCH  12  44
INPUT-LIGAND-PDBQT: ATOM     44  C   UNL d   1      12.120  30.683   3.621  0.00  0.00     0.004 C 
INPUT-LIGAND-PDBQT: ATOM     45  C   UNL d   1      13.434  30.659   3.401  0.00  0.00     0.012 C 
INPUT-LIGAND-PDBQT: ENDBRANCH  12  44
INPUT-LIGAND-PDBQT: BRANCH  17  46
INPUT-LIGAND-PDBQT: ATOM     46  C   UNL d   1      14.171  36.282  -1.989  0.00  0.00     0.004 C 
INPUT-LIGAND-PDBQT: ATOM     47  C   UNL d   1      15.480  36.522  -1.839  0.00  0.00     0.012 C 
INPUT-LIGAND-PDBQT: ENDBRANCH  17  46
INPUT-LIGAND-PDBQT: TORSDOF 10
________________________________________________________________________________

Total charge on ligand                               =	-2.002 e
REMARK  10 active torsions:
REMARK  status: ('A' for Active; 'I' for Inactive)
REMARK    1  A    between atoms: C_6  and  C_10 
REMARK    2  A    between atoms: C_10  and  C_11 
REMARK    3  A    between atoms: C_11  and  C_12 
REMARK    4  A    between atoms: C_12  and  O_14 
REMARK    5  A    between atoms: C_17  and  C_20 
REMARK    6  A    between atoms: C_24  and  C_27 
REMARK    7  A    between atoms: C_31  and  C_34 
REMARK    8  A    between atoms: C_34  and  C_35 
REMARK    9  A    between atoms: C_35  and  C_36 
REMARK   10  A    between atoms: C_36  and  O_38 


Number of Rotatable Bonds in Small Molecule =	10 torsions
Number of atoms in ligand:  47

Number of non-hydrogen atoms in ligand:  45

Number of vibrational degrees of freedom of ligand:  135


Number of torsional degrees of freedom = 10
Estimated loss of torsional free energy upon binding = +2.9830 kcal/mol


DPF> about 8.287 34.468 -0.670            # small molecule center

Small molecule center of rotation =	(+8.287, +34.468, -0.670)

DPF> tran0 random                         # initial coordinates/A or random

Initial translation =			(-17.641, -22.617, 36.989) Angstroms
DPF> quaternion0 random                   # initial orientation

Each run will begin with a new, random initial orientation.
Initial quaternion,  (x,y,z,w) =	( -0.053, 0.900, -0.413, -0.132 ),
DPF> dihe0 random                         # initial dihedrals (relative) or random

DPF> torsdof 10                            # torsional degrees of freedom

Number of torsional degrees of freedom = 10
Free energy coefficient for torsional degrees of freedom = 0.2983, the factory default value.

Estimated loss of torsional free energy upon binding = +2.9830 kcal/mol

DPF> rmstol 2.0                           # cluster_tolerance/A

Maximum RMS tolerance for conformational cluster analysis = 2.00 Angstroms
DPF> extnrg 1000.0                        # external grid energy

External grid energy (beyond grid map walls) = 1000.00

DPF> e0max 0.0 10000                      # max initial energy; max number of retries

Using user-specified maximum number of retries for simanneal initialization, 10000 retries.
If the simanneal initial energy is greater than e0max, 0.000,
then a new, random initial state will be created.

DPF> ga_pop_size 150                      # number of individuals in population

A population of 150 individuals will be used
DPF> ga_num_evals 25000000                # maximum number of energy evaluations

There will be at most 25000000 function evaluations used.
DPF> ga_num_generations 27000             # maximum number of generations

The GA will run for at most 27000 generations.
DPF> ga_elitism 1                         # number of top individuals to survive to next generation

The 1 best will be preserved each GA generation.
DPF> ga_mutation_rate 0.02                # rate of gene mutation

The mutation rate is 0.020000.
DPF> ga_crossover_rate 0.8                # rate of crossover

The crossover rate is 0.800000.
DPF> ga_window_size 10                    # 

The GA's selection window is 10 generations.
DPF> ga_cauchy_alpha 0.0                  # Alpha parameter of Cauchy distribution

The alpha parameter (for the Cauchy distribution) is being set to 0.000000.
DPF> ga_cauchy_beta 1.0                   # Beta parameter Cauchy distribution

The beta parameter (for the Cauchy distribution) is being set to 1.000000.
DPF> set_ga                               # set the above parameters for GA or LGA

DPF> sw_max_its 300                       # iterations of Solis & Wets local search

Solis & Wets algorithms will perform at most 300 iterations.
DPF> sw_max_succ 4                        # consecutive successes before changing rho

Solis & Wets algorithms expand rho every 4 in a row successes.
DPF> sw_max_fail 4                        # consecutive failures before changing rho

Solis & Wets algorithms contract rho every 4 in a row failures.
DPF> sw_rho 1.0                           # size of local search space to sample

rho is set to 1.000000.
DPF> sw_lb_rho 0.01                       # lower bound on rho

rho will never get smaller than 0.010000.
DPF> ls_search_freq 0.06                  # probability of performing local search on individual

Local search will be performed with frequency 0.060000.
DPF> set_psw1                             # set the above pseudo-Solis & Wets parameters

Creating a new Local Search object using the pseudo-Solis-Wets algorithm (pSW1) with the current settings.

DPF> unbound_model bound                  # state of unbound ligand

DPF> ga_run 100                           # do this many hybrid GA-LS runs

centering ligand on specified point: 8.287 34.468 -0.670
Furthest true ligand atom from "about" center is 7.588 Angstroms (maxrad).
Number of requested GA dockings = 100 runs
Unbound model to be used is 'same as bound' [AutoDock 4.2 default].

	BEGINNING GENETIC ALGORITHM DOCKING 1 of 100
Run: 1 Seed: 944192720 710744198 [ Run 1 of 100 GA/GALS ]
Beginning LAMARCKIAN GENETIC ALGORITHM (LGA), with a maximum of 25000000 energy evaluations.

Final-Value: -11.502


	FINAL GENETIC ALGORITHM DOCKED STATE
	_______________________________________________


Detailed state:  trans -8.480 -17.813 -3.652 quatxyzw 0.114221 0.915202 -0.032876 -0.385069 center 8.287 34.468 -0.670 ntor 10 -32.4005 -161.6905 55.3123 -108.3644 47.3728 176.9249 -120.0053 91.0294 162.1585 171.8740
State:	 -8.480 -17.813  -3.652   0.124  0.992 -0.036 -134.704    -32.40 -161.69   55.31 -108.36   47.37  176.92 -120.01   91.03  162.16  171.87

DOCKED: MODEL        1
DOCKED: USER    Run = 1
DOCKED: USER    DPF = D:/Protein_go_brrr/autodock/final/AncA/heme_O2/dock.dpf
DOCKED: USER  
DOCKED: USER    Estimated Free Energy of Binding    =   -6.33 kcal/mol  [=(1)+(2)+(3)-(4)]
DOCKED: USER    Estimated Inhibition Constant, Ki   =   22.86 uM (micromolar)  [Temperature = 298.15 K]
DOCKED: USER    
DOCKED: USER    (1) Final Intermolecular Energy     =   -9.31 kcal/mol
DOCKED: USER        vdW + Hbond + desolv Energy     =   -4.63 kcal/mol
DOCKED: USER        Electrostatic Energy            =   -4.68 kcal/mol
DOCKED: USER    (2) Final Total Internal Energy     =   -2.19 kcal/mol
DOCKED: USER    (3) Torsional Free Energy           =   +2.98 kcal/mol
DOCKED: USER    (4) Unbound System's Energy  [=(2)] =   -2.19 kcal/mol
DOCKED: USER    
DOCKED: USER    
DOCKED: USER    NEWDPF move heme_O2_opt.pdbqt
DOCKED: USER    NEWDPF about 8.287000 34.468000 -0.670000
DOCKED: USER    NEWDPF tran0 -8.479723 -17.813405 -3.652479
DOCKED: USER    NEWDPF quaternion0 0.114221 0.915202 -0.032876 -0.385069
DOCKED: USER    NEWDPF axisangle0 0.123765 0.991672 -0.035623 -134.703980
DOCKED: USER    NEWDPF quat0 0.123765 0.991672 -0.035623 -134.703980
DOCKED: USER    NEWDPF dihe0 -32.40 -161.69 55.31 -108.36 47.37 176.92 -120.01 91.03 162.16 171.87 
DOCKED: USER  keepresnum = 1 
DOCKED: USER  
DOCKED: REMARK  10 active torsions:
DOCKED: REMARK  status: ('A' for Active; 'I' for Inactive)
DOCKED: REMARK    1  A    between atoms: C_6  and  C_10 
DOCKED: REMARK    2  A    between atoms: C_10  and  C_11 
DOCKED: REMARK    3  A    between atoms: C_11  and  C_12 
DOCKED: REMARK    4  A    between atoms: C_12  and  O_14 
DOCKED: REMARK    5  A    between atoms: C_17  and  C_20 
DOCKED: REMARK    6  A    between atoms: C_24  and  C_27 
DOCKED: REMARK    7  A    between atoms: C_31  and  C_34 
DOCKED: REMARK    8  A    between atoms: C_34  and  C_35 
DOCKED: REMARK    9  A    between atoms: C_35  and  C_36 
DOCKED: REMARK   10  A    between atoms: C_36  and  O_38 
DOCKED: USER                              x       y       z     vdW  Elec       q    Type
DOCKED: USER                           _______ _______ _______ _____ _____    ______ ____
DOCKED: ROOT
DOCKED: ATOM      1  C   UNL d   1      -7.630 -17.454  -1.743 -0.04 +0.06    +0.064 A 
DOCKED: ATOM      2  C   UNL d   1      -6.480 -20.437  -5.255 -0.06 +0.06    +0.064 A 
DOCKED: ATOM      3  C   UNL d   1     -10.180 -18.891  -7.903 -0.16 +0.03    +0.064 C 
DOCKED: ATOM      4  C   UNL d   1     -11.090 -15.481  -4.496 -0.04 +0.02    +0.064 A 
DOCKED: ATOM      5  C   UNL d   1      -7.014 -18.390  -2.483 -0.04 +0.06    +0.066 A 
DOCKED: ATOM      6  C   UNL d   1      -5.894 -19.110  -2.059 -0.02 -0.02    -0.021 A 
DOCKED: ATOM      7  C   UNL d   1      -5.534 -19.944  -3.092 -0.01 -0.02    -0.025 A 
DOCKED: ATOM      8  C   UNL d   1      -6.473 -19.744  -4.100 -0.03 +0.05    +0.066 A 
DOCKED: ATOM      9  C   UNL d   1      -4.324 -20.852  -3.090 -0.00 +0.03    +0.051 C 
DOCKED: ATOM     10  C   UNL d   1      -7.452 -20.288  -6.339 -0.09 +0.07    +0.066 A 
DOCKED: ATOM     11  C   UNL d   1      -7.510 -21.144  -7.444 -0.01 -0.03    -0.021 A 
DOCKED: ATOM     12  C   UNL d   1      -8.582 -20.726  -8.210 -0.12 +0.00    +0.000 A 
DOCKED: ATOM     13  C   UNL d   1      -9.122 -19.605  -7.520 -0.13 +0.05    +0.070 A 
DOCKED: ATOM     14  C   UNL d   1      -6.599 -22.329  -7.741 -0.02 +0.06    +0.052 C 
DOCKED: ATOM     15  C   UNL d   1     -10.736 -17.729  -7.252 -0.17 +0.03    +0.066 A 
DOCKED: ATOM     16  C   UNL d   1     -11.743 -16.928  -7.790 -0.15 -0.01    -0.021 A 
DOCKED: ATOM     17  C   UNL d   1     -12.018 -15.948  -6.836 -0.20 +0.00    +0.000 A 
DOCKED: ATOM     18  C   UNL d   1     -11.148 -16.230  -5.773 -0.15 +0.02    +0.070 A 
DOCKED: ATOM     19  C   UNL d   1     -12.307 -17.133  -9.173 -0.17 +0.01    +0.052 C 
DOCKED: ATOM     20  C   UNL d   1     -10.239 -15.698  -3.474 -0.09 +0.03    +0.066 A 
DOCKED: ATOM     21  C   UNL d   1     -10.243 -14.971  -2.287 -0.11 -0.01    -0.025 A 
DOCKED: ATOM     22  C   UNL d   1      -9.282 -15.536  -1.480 -0.07 -0.01    -0.021 A 
DOCKED: ATOM     23  C   UNL d   1      -8.712 -16.581  -2.214 -0.06 +0.05    +0.066 A 
DOCKED: ATOM     24  C   UNL d   1     -11.117 -13.793  -1.942 -0.18 +0.02    +0.051 C 
DOCKED: ATOM     25  N   UNL d   1      -7.346 -18.740  -3.750 -0.03 -0.20    -0.248 N 
DOCKED: ATOM     26  N   UNL d   1      -8.425 -19.342  -6.385 -0.08 -0.19    -0.248 N 
DOCKED: ATOM     27  N   UNL d   1     -10.326 -17.268  -6.074 -0.09 -0.11    -0.248 N 
DOCKED: ATOM     28  N   UNL d   1      -9.266 -16.647  -3.442 -0.05 -0.16    -0.248 N 
DOCKED: ATOM     29 FE   UNL d   1      -8.850 -17.984  -4.905 -0.02 +0.00    +0.000 Fe
DOCKED: ATOM     30  O   UNL d   1      -7.425 -17.633  -5.422 -0.23 +0.00    +0.000 OA
DOCKED: ATOM     31  O   UNL d   1      -8.566 -16.549  -5.482 -0.28 +0.00    +0.000 OA
DOCKED: ENDROOT
DOCKED: BRANCH   6  32
DOCKED: ATOM     32  C   UNL d   1      -5.106 -18.928  -0.788 -0.01 +0.04    +0.052 C 
DOCKED: BRANCH  32  33
DOCKED: ATOM     33  C   UNL d   1      -3.683 -18.437  -1.038 -0.03 +0.11    +0.115 C 
DOCKED: BRANCH  33  34
DOCKED: ATOM     34  C   UNL d   1      -3.650 -17.131  -1.793 +0.01 +0.23    +0.139 C 
DOCKED: ATOM     35  O   UNL d   1      -3.367 -17.127  -2.980 -0.36 -1.37    -0.650 OA
DOCKED: BRANCH  34  36
DOCKED: ATOM     36  O   UNL d   1      -3.901 -15.956  -1.178 +0.06 -1.64    -0.776 OA
DOCKED: ATOM     37  H   UNL d   1      -4.516 -15.888  -0.438 +0.01 +0.32    +0.167 HD
DOCKED: ENDBRANCH  34  36
DOCKED: ENDBRANCH  33  34
DOCKED: ENDBRANCH  32  33
DOCKED: ENDBRANCH   6  32
DOCKED: BRANCH  22  38
DOCKED: ATOM     38  C   UNL d   1      -8.893 -15.054  -0.106 -0.09 +0.04    +0.052 C 
DOCKED: BRANCH  38  39
DOCKED: ATOM     39  C   UNL d   1      -7.835 -13.954  -0.153 -0.16 +0.12    +0.115 C 
DOCKED: BRANCH  39  40
DOCKED: ATOM     40  C   UNL d   1      -6.431 -14.504  -0.113 -0.08 +0.25    +0.139 C 
DOCKED: ATOM     41  O   UNL d   1      -6.175 -15.462   0.598 -0.22 -1.44    -0.650 OA
DOCKED: BRANCH  40  42
DOCKED: ATOM     42  O   UNL d   1      -5.459 -13.987  -0.890 -0.12 -1.69    -0.776 OA
DOCKED: ATOM     43  H   UNL d   1      -4.664 -14.489  -1.105 +0.02 +0.43    +0.167 HD
DOCKED: ENDBRANCH  40  42
DOCKED: ENDBRANCH  39  40
DOCKED: ENDBRANCH  38  39
DOCKED: ENDBRANCH  22  38
DOCKED: BRANCH  12  44
DOCKED: ATOM     44  C   UNL d   1      -8.971 -21.423  -9.497 -0.11 +0.00    +0.004 C 
DOCKED: ATOM     45  C   UNL d   1      -9.187 -20.874 -10.692 -0.12 +0.01    +0.012 C 
DOCKED: ENDBRANCH  12  44
DOCKED: BRANCH  17  46
DOCKED: ATOM     46  C   UNL d   1     -12.960 -14.774  -6.868 -0.23 +0.00    +0.004 C 
DOCKED: ATOM     47  C   UNL d   1     -12.659 -13.469  -6.836 -0.32 +0.00    +0.012 C 
DOCKED: ENDBRANCH  17  46
DOCKED: TORSDOF 10
DOCKED: TER
DOCKED: ENDMDL
________________________________________________________________________________


	BEGINNING GENETIC ALGORITHM DOCKING 2 of 100
Run: 2 Seed: 663677442 567649589 [ Run 2 of 100 GA/GALS ]
Beginning LAMARCKIAN GENETIC ALGORITHM (LGA), with a maximum of 25000000 energy evaluations.

Final-Value: -12.437


	FINAL GENETIC ALGORITHM DOCKED STATE
	_______________________________________________


Detailed state:  trans -11.817 -14.005 -3.453 quatxyzw -0.332001 -0.841329 0.358114 0.231724 center 8.287 34.468 -0.670 ntor 10 -85.1041 -110.6549 41.8758 -34.1216 -26.4308 111.9150 -37.4473 -74.9865 -138.8769 7.1903
State:	-11.817 -14.005  -3.453  -0.341 -0.865  0.368 153.203    -85.10 -110.65   41.88  -34.12  -26.43  111.92  -37.45  -74.99 -138.88    7.19

DOCKED: MODEL        2
DOCKED: USER    Run = 2
DOCKED: USER    DPF = D:/Protein_go_brrr/autodock/final/AncA/heme_O2/dock.dpf
DOCKED: USER  
DOCKED: USER    Estimated Free Energy of Binding    =   -6.83 kcal/mol  [=(1)+(2)+(3)-(4)]
DOCKED: USER    Estimated Inhibition Constant, Ki   =    9.83 uM (micromolar)  [Temperature = 298.15 K]
DOCKED: USER    
DOCKED: USER    (1) Final Intermolecular Energy     =   -9.81 kcal/mol
DOCKED: USER        vdW + Hbond + desolv Energy     =   -6.92 kcal/mol
DOCKED: USER        Electrostatic Energy            =   -2.90 kcal/mol
DOCKED: USER    (2) Final Total Internal Energy     =   -2.62 kcal/mol
DOCKED: USER    (3) Torsional Free Energy           =   +2.98 kcal/mol
DOCKED: USER    (4) Unbound System's Energy  [=(2)] =   -2.62 kcal/mol
DOCKED: USER    
DOCKED: USER    
DOCKED: USER    NEWDPF move heme_O2_opt.pdbqt
DOCKED: USER    NEWDPF about 8.287000 34.468000 -0.670000
DOCKED: USER    NEWDPF tran0 -11.817457 -14.004881 -3.453167
DOCKED: USER    NEWDPF quaternion0 -0.332001 -0.841329 0.358114 0.231724
DOCKED: USER    NEWDPF axisangle0 -0.341290 -0.864869 0.368134 153.202840
DOCKED: USER    NEWDPF quat0 -0.341290 -0.864869 0.368134 153.202840
DOCKED: USER    NEWDPF dihe0 -85.10 -110.65 41.88 -34.12 -26.43 111.92 -37.45 -74.99 -138.88 7.19 
DOCKED: USER  keepresnum = 1 
DOCKED: USER  
DOCKED: REMARK  10 active torsions:
DOCKED: REMARK  status: ('A' for Active; 'I' for Inactive)
DOCKED: REMARK    1  A    between atoms: C_6  and  C_10 
DOCKED: REMARK    2  A    between atoms: C_10  and  C_11 
DOCKED: REMARK    3  A    between atoms: C_11  and  C_12 
DOCKED: REMARK    4  A    between atoms: C_12  and  O_14 
DOCKED: REMARK    5  A    between atoms: C_17  and  C_20 
DOCKED: REMARK    6  A    between atoms: C_24  and  C_27 
DOCKED: REMARK    7  A    between atoms: C_31  and  C_34 
DOCKED: REMARK    8  A    between atoms: C_34  and  C_35 
DOCKED: REMARK    9  A    between atoms: C_35  and  C_36 
DOCKED: REMARK   10  A    between atoms: C_36  and  O_38 
DOCKED: USER                              x       y       z     vdW  Elec       q    Type
DOCKED: USER                           _______ _______ _______ _____ _____    ______ ____
DOCKED: ROOT
DOCKED: ATOM      1  C   UNL d   1     -10.246 -13.819  -2.041 -0.15 +0.03    +0.064 A 
DOCKED: ATOM      2  C   UNL d   1     -12.448 -17.588  -3.913 -0.02 +0.02    +0.064 A 
DOCKED: ATOM      3  C   UNL d   1     -15.330 -14.738  -6.494 -0.04 +0.01    +0.064 C 
DOCKED: ATOM      4  C   UNL d   1     -12.755 -10.863  -4.939 -0.35 +0.00    +0.064 A 
DOCKED: ATOM      5  C   UNL d   1     -10.609 -15.077  -2.340 -0.10 +0.03    +0.066 A 
DOCKED: ATOM      6  C   UNL d   1     -10.025 -16.215  -1.776 -0.05 -0.01    -0.021 A 
DOCKED: ATOM      7  C   UNL d   1     -10.632 -17.308  -2.350 -0.02 -0.01    -0.025 A 
DOCKED: ATOM      8  C   UNL d   1     -11.603 -16.807  -3.213 -0.04 +0.02    +0.066 A 
DOCKED: ATOM      9  C   UNL d   1     -10.254 -18.748  -2.082 -0.00 +0.02    +0.051 C 
DOCKED: ATOM     10  C   UNL d   1     -13.501 -17.120  -4.815 -0.02 +0.01    +0.066 A 
DOCKED: ATOM     11  C   UNL d   1     -14.455 -17.968  -5.389 -0.01 -0.00    -0.021 A 
DOCKED: ATOM     12  C   UNL d   1     -15.306 -17.162  -6.123 -0.01 +0.00    +0.000 A 
DOCKED: ATOM     13  C   UNL d   1     -14.804 -15.841  -5.961 -0.03 +0.01    +0.070 A 
DOCKED: ATOM     14  C   UNL d   1     -14.566 -19.479  -5.223 -0.00 +0.01    +0.052 C 
DOCKED: ATOM     15  C   UNL d   1     -14.832 -13.388  -6.384 -0.08 +0.01    +0.066 A 
DOCKED: ATOM     16  C   UNL d   1     -15.332 -12.300  -7.099 -0.11 -0.00    -0.021 A 
DOCKED: ATOM     17  C   UNL d   1     -14.612 -11.184  -6.673 -0.25 +0.00    +0.000 A 
DOCKED: ATOM     18  C   UNL d   1     -13.717 -11.681  -5.715 -0.26 +0.00    +0.070 A 
DOCKED: ATOM     19  C   UNL d   1     -16.402 -12.431  -8.154 -0.07 +0.01    +0.052 C 
DOCKED: ATOM     20  C   UNL d   1     -11.853 -11.313  -4.046 -0.32 +0.01    +0.066 A 
DOCKED: ATOM     21  C   UNL d   1     -10.985 -10.491  -3.332 -0.39 -0.00    -0.025 A 
DOCKED: ATOM     22  C   UNL d   1     -10.281 -11.314  -2.482 -0.34 -0.01    -0.021 A 
DOCKED: ATOM     23  C   UNL d   1     -10.735 -12.614  -2.721 -0.17 +0.02    +0.066 A 
DOCKED: ATOM     24  C   UNL d   1     -10.831  -8.998  -3.459 -0.42 +0.01    +0.051 C 
DOCKED: ATOM     25  N   UNL d   1     -11.543 -15.433  -3.255 -0.05 -0.08    -0.248 N 
DOCKED: ATOM     26  N   UNL d   1     -13.703 -15.825  -5.168 -0.02 -0.05    -0.248 N 
DOCKED: ATOM     27  N   UNL d   1     -13.813 -13.031  -5.607 -0.08 -0.03    -0.248 N 
DOCKED: ATOM     28  N   UNL d   1     -11.659 -12.614  -3.704 -0.12 -0.05    -0.248 N 
DOCKED: ATOM     29 FE   UNL d   1     -12.675 -14.206  -4.433 -0.03 +0.00    +0.000 Fe
DOCKED: ATOM     30  O   UNL d   1     -11.640 -15.057  -5.224 -0.18 +0.00    +0.000 OA
DOCKED: ATOM     31  O   UNL d   1     -11.892 -13.557  -5.632 -0.27 +0.00    +0.000 OA
DOCKED: ENDROOT
DOCKED: BRANCH   6  32
DOCKED: ATOM     32  C   UNL d   1      -8.849 -16.281  -0.837 -0.04 +0.04    +0.052 C 
DOCKED: BRANCH  32  33
DOCKED: ATOM     33  C   UNL d   1      -7.611 -15.579  -1.388 -0.09 +0.14    +0.115 C 
DOCKED: BRANCH  33  34
DOCKED: ATOM     34  C   UNL d   1      -6.864 -14.812  -0.326 -0.13 +0.21    +0.139 C 
DOCKED: ATOM     35  O   UNL d   1      -5.878 -14.161  -0.632 -0.24 -1.27    -0.650 OA
DOCKED: BRANCH  34  36
DOCKED: ATOM     36  O   UNL d   1      -7.244 -14.851   0.968 -0.06 -1.28    -0.776 OA
DOCKED: ATOM     37  H   UNL d   1      -7.928 -14.268   1.318 +0.05 +0.22    +0.167 HD
DOCKED: ENDBRANCH  34  36
DOCKED: ENDBRANCH  33  34
DOCKED: ENDBRANCH  32  33
DOCKED: ENDBRANCH   6  32
DOCKED: BRANCH  22  38
DOCKED: ATOM     38  C   UNL d   1      -9.189 -10.876  -1.540 -0.33 +0.02    +0.052 C 
DOCKED: BRANCH  38  39
DOCKED: ATOM     39  C   UNL d   1      -9.623 -10.936  -0.077 -0.30 +0.05    +0.115 C 
DOCKED: BRANCH  39  40
DOCKED: ATOM     40  C   UNL d   1      -9.042 -12.125   0.648 -0.31 +0.09    +0.139 C 
DOCKED: ATOM     41  O   UNL d   1      -9.744 -13.096   0.880 -0.48 -0.43    -0.650 OA
DOCKED: BRANCH  40  42
DOCKED: ATOM     42  O   UNL d   1      -7.742 -12.157   1.001 -0.32 -0.86    -0.776 OA
DOCKED: ATOM     43  H   UNL d   1      -7.110 -12.729   0.549 +0.06 +0.21    +0.167 HD
DOCKED: ENDBRANCH  40  42
DOCKED: ENDBRANCH  39  40
DOCKED: ENDBRANCH  38  39
DOCKED: ENDBRANCH  22  38
DOCKED: BRANCH  12  44
DOCKED: ATOM     44  C   UNL d   1     -16.484 -17.725  -6.890 -0.00 +0.00    +0.004 C 
DOCKED: ATOM     45  C   UNL d   1     -16.948 -17.339  -8.078 -0.00 +0.00    +0.012 C 
DOCKED: ENDBRANCH  12  44
DOCKED: BRANCH  17  46
DOCKED: ATOM     46  C   UNL d   1     -14.659  -9.748  -7.121 -0.32 -0.00    +0.004 C 
DOCKED: ATOM     47  C   UNL d   1     -14.768  -9.273  -8.369 -0.37 -0.00    +0.012 C 
DOCKED: ENDBRANCH  17  46
DOCKED: TORSDOF 10
DOCKED: TER
DOCKED: ENDMDL
________________________________________________________________________________


	BEGINNING GENETIC ALGORITHM DOCKING 3 of 100
Run: 3 Seed: 2001768862 2127465917 [ Run 3 of 100 GA/GALS ]
Beginning LAMARCKIAN GENETIC ALGORITHM (LGA), with a maximum of 25000000 energy evaluations.

Final-Value: -19.214


	FINAL GENETIC ALGORITHM DOCKED STATE
	_______________________________________________


Detailed state:  trans -4.863 -8.533 -3.182 quatxyzw -0.135736 -0.424256 -0.693631 0.566091 center 8.287 34.468 -0.670 ntor 10 -113.8042 89.2675 23.4552 157.1103 -87.6137 9.8614 -51.9279 53.1009 -142.5114 -146.5936
State:	 -4.863  -8.533  -3.182  -0.165 -0.515 -0.841 111.044   -113.80   89.27   23.46  157.11  -87.61    9.86  -51.93   53.10 -142.51 -146.59

DOCKED: MODEL        3
DOCKED: USER    Run = 3
DOCKED: USER    DPF = D:/Protein_go_brrr/autodock/final/AncA/heme_O2/dock.dpf
DOCKED: USER  
DOCKED: USER    Estimated Free Energy of Binding    =  -14.69 kcal/mol  [=(1)+(2)+(3)-(4)]
DOCKED: USER    Estimated Inhibition Constant, Ki   =   17.18 pM (picomolar)  [Temperature = 298.15 K]
DOCKED: USER    
DOCKED: USER    (1) Final Intermolecular Energy     =  -17.67 kcal/mol
DOCKED: USER        vdW + Hbond + desolv Energy     =  -14.32 kcal/mol
DOCKED: USER        Electrostatic Energy            =   -3.35 kcal/mol
DOCKED: USER    (2) Final Total Internal Energy     =   -1.54 kcal/mol
DOCKED: USER    (3) Torsional Free Energy           =   +2.98 kcal/mol
DOCKED: USER    (4) Unbound System's Energy  [=(2)] =   -1.54 kcal/mol
DOCKED: USER    
DOCKED: USER    
DOCKED: USER    NEWDPF move heme_O2_opt.pdbqt
DOCKED: USER    NEWDPF about 8.287000 34.468000 -0.670000
DOCKED: USER    NEWDPF tran0 -4.862510 -8.533181 -3.182164
DOCKED: USER    NEWDPF quaternion0 -0.135736 -0.424256 -0.693631 0.566091
DOCKED: USER    NEWDPF axisangle0 -0.164659 -0.514659 -0.841435 111.043797
DOCKED: USER    NEWDPF quat0 -0.164659 -0.514659 -0.841435 111.043797
DOCKED: USER    NEWDPF dihe0 -113.80 89.27 23.46 157.11 -87.61 9.86 -51.93 53.10 -142.51 -146.59 
DOCKED: USER  keepresnum = 1 
DOCKED: USER  
DOCKED: REMARK  10 active torsions:
DOCKED: REMARK  status: ('A' for Active; 'I' for Inactive)
DOCKED: REMARK    1  A    between atoms: C_6  and  C_10 
DOCKED: REMARK    2  A    between atoms: C_10  and  C_11 
DOCKED: REMARK    3  A    between atoms: C_11  and  C_12 
DOCKED: REMARK    4  A    between atoms: C_12  and  O_14 
DOCKED: REMARK    5  A    between atoms: C_17  and  C_20 
DOCKED: REMARK    6  A    between atoms: C_24  and  C_27 
DOCKED: REMARK    7  A    between atoms: C_31  and  C_34 
DOCKED: REMARK    8  A    between atoms: C_34  and  C_35 
DOCKED: REMARK    9  A    between atoms: C_35  and  C_36 
DOCKED: REMARK   10  A    between atoms: C_36  and  O_38 
DOCKED: USER                              x       y       z     vdW  Elec       q    Type
DOCKED: USER                           _______ _______ _______ _____ _____    ______ ____
DOCKED: ROOT
DOCKED: ATOM      1  C   UNL d   1      -5.198 -10.564  -2.672 -0.30 +0.05    +0.064 A 
DOCKED: ATOM      2  C   UNL d   1      -1.271  -7.897  -2.803 -0.35 +0.02    +0.064 A 
DOCKED: ATOM      3  C   UNL d   1      -3.790  -4.099  -4.327 -0.38 +0.01    +0.064 C 
DOCKED: ATOM      4  C   UNL d   1      -7.909  -6.698  -3.738 -0.39 +0.02    +0.064 A 
DOCKED: ATOM      5  C   UNL d   1      -3.925 -10.148  -2.581 -0.35 +0.04    +0.066 A 
DOCKED: ATOM      6  C   UNL d   1      -2.860 -10.966  -2.193 -0.34 -0.02    -0.021 A 
DOCKED: ATOM      7  C   UNL d   1      -1.729 -10.183  -2.189 -0.33 -0.01    -0.025 A 
DOCKED: ATOM      8  C   UNL d   1      -2.126  -8.921  -2.622 -0.39 +0.02    +0.066 A 
DOCKED: ATOM      9  C   UNL d   1      -0.356 -10.649  -1.755 -0.37 +0.02    +0.051 C 
DOCKED: ATOM     10  C   UNL d   1      -1.625  -6.558  -3.277 -0.43 +0.01    +0.066 A 
DOCKED: ATOM     11  C   UNL d   1      -0.677  -5.582  -3.603 -0.49 -0.00    -0.021 A 
DOCKED: ATOM     12  C   UNL d   1      -1.383  -4.485  -4.062 -0.40 +0.00    +0.000 A 
DOCKED: ATOM     13  C   UNL d   1      -2.753  -4.858  -3.975 -0.38 +0.01    +0.070 A 
DOCKED: ATOM     14  C   UNL d   1       0.840  -5.700  -3.508 -0.35 +0.01    +0.052 C 
DOCKED: ATOM     15  C   UNL d   1      -5.192  -4.426  -4.221 -0.36 +0.01    +0.066 A 
DOCKED: ATOM     16  C   UNL d   1      -6.233  -3.527  -4.451 -0.45 -0.00    -0.021 A 
DOCKED: ATOM     17  C   UNL d   1      -7.417  -4.246  -4.288 -0.49 +0.00    +0.000 A 
DOCKED: ATOM     18  C   UNL d   1      -7.004  -5.547  -3.969 -0.41 +0.02    +0.070 A 
DOCKED: ATOM     19  C   UNL d   1      -6.008  -2.066  -4.748 -0.36 +0.00    +0.052 C 
DOCKED: ATOM     20  C   UNL d   1      -7.548  -7.947  -3.388 -0.39 +0.02    +0.066 A 
DOCKED: ATOM     21  C   UNL d   1      -8.446  -8.995  -3.201 -0.40 -0.01    -0.025 A 
DOCKED: ATOM     22  C   UNL d   1      -7.689 -10.111  -2.923 +0.03 -0.01    -0.021 A 
DOCKED: ATOM     23  C   UNL d   1      -6.353  -9.698  -2.933 +0.15 +0.04    +0.066 A 
DOCKED: ATOM     24  C   UNL d   1      -9.949  -8.934  -3.280 -0.53 +0.01    +0.051 C 
DOCKED: ATOM     25  N   UNL d   1      -3.490  -8.883  -2.800 -0.21 -0.11    -0.248 N 
DOCKED: ATOM     26  N   UNL d   1      -2.891  -6.119  -3.492 -0.26 -0.06    -0.248 N 
DOCKED: ATOM     27  N   UNL d   1      -5.653  -5.620  -3.859 -0.25 -0.07    -0.248 N 
DOCKED: ATOM     28  N   UNL d   1      -6.275  -8.372  -3.171 -0.12 -0.13    -0.248 N 
DOCKED: ATOM     29 FE   UNL d   1      -4.597  -7.252  -3.331 -0.09 +0.00    +0.000 Fe
DOCKED: ATOM     30  O   UNL d   1      -3.995  -7.163  -1.898 -0.38 +0.00    +0.000 OA
DOCKED: ATOM     31  O   UNL d   1      -5.459  -6.646  -2.163 -0.74 +0.00    +0.000 OA
DOCKED: ENDROOT
DOCKED: BRANCH   6  32
DOCKED: ATOM     32  C   UNL d   1      -2.919 -12.392  -1.710 -0.25 +0.07    +0.052 C 
DOCKED: BRANCH  32  33
DOCKED: ATOM     33  C   UNL d   1      -3.790 -12.561  -0.469 +0.10 +0.16    +0.115 C 
DOCKED: BRANCH  33  34
DOCKED: ATOM     34  C   UNL d   1      -4.858 -13.611  -0.653 -0.06 +0.28    +0.139 C 
DOCKED: ATOM     35  O   UNL d   1      -4.897 -14.571   0.099 -0.40 -1.57    -0.650 OA
DOCKED: BRANCH  34  36
DOCKED: ATOM     36  O   UNL d   1      -5.759 -13.528  -1.654 +0.27 -1.75    -0.776 OA
DOCKED: ATOM     37  H   UNL d   1      -6.698 -13.386  -1.486 +0.05 +0.25    +0.167 HD
DOCKED: ENDBRANCH  34  36
DOCKED: ENDBRANCH  33  34
DOCKED: ENDBRANCH  32  33
DOCKED: ENDBRANCH   6  32
DOCKED: BRANCH  22  38
DOCKED: ATOM     38  C   UNL d   1      -8.229 -11.481  -2.603 -0.28 +0.03    +0.052 C 
DOCKED: BRANCH  38  39
DOCKED: ATOM     39  C   UNL d   1      -9.392 -11.432  -1.614 -0.32 +0.05    +0.115 C 
DOCKED: BRANCH  39  40
DOCKED: ATOM     40  C   UNL d   1      -9.187 -12.354  -0.438 -0.26 +0.09    +0.139 C 
DOCKED: ATOM     41  O   UNL d   1      -9.738 -12.112   0.624 -0.59 -0.40    -0.650 OA
DOCKED: BRANCH  40  42
DOCKED: ATOM     42  O   UNL d   1      -8.445 -13.472  -0.551 +0.08 -0.65    -0.776 OA
DOCKED: ATOM     43  H   UNL d   1      -7.501 -13.474  -0.351 +0.06 +0.19    +0.167 HD
DOCKED: ENDBRANCH  40  42
DOCKED: ENDBRANCH  39  40
DOCKED: ENDBRANCH  38  39
DOCKED: ENDBRANCH  22  38
DOCKED: BRANCH  12  44
DOCKED: ATOM     44  C   UNL d   1      -0.692  -3.219  -4.523 -0.41 +0.00    +0.004 C 
DOCKED: ATOM     45  C   UNL d   1      -1.216  -2.001  -4.651 -0.60 +0.00    +0.012 C 
DOCKED: ENDBRANCH  12  44
DOCKED: BRANCH  17  46
DOCKED: ATOM     46  C   UNL d   1      -8.856  -3.807  -4.350 -0.63 +0.00    +0.004 C 
DOCKED: ATOM     47  C   UNL d   1      -9.926  -4.523  -4.718 -0.59 +0.00    +0.012 C 
DOCKED: ENDBRANCH  17  46
DOCKED: TORSDOF 10
DOCKED: TER
DOCKED: ENDMDL
________________________________________________________________________________


	BEGINNING GENETIC ALGORITHM DOCKING 4 of 100
Run: 4 Seed: 403352203 1504669804 [ Run 4 of 100 GA/GALS ]
Beginning LAMARCKIAN GENETIC ALGORITHM (LGA), with a maximum of 25000000 energy evaluations.

Final-Value: -18.617


	FINAL GENETIC ALGORITHM DOCKED STATE
	_______________________________________________


Detailed state:  trans -4.781 -8.536 -3.155 quatxyzw -0.118213 -0.432025 -0.700086 0.556111 center 8.287 34.468 -0.670 ntor 10 35.9548 -61.9045 31.8564 -32.3876 151.3435 -121.7970 -12.6216 -72.7865 -120.7722 128.8088
State:	 -4.781  -8.536  -3.155  -0.142 -0.520 -0.842 112.425     35.95  -61.90   31.86  -32.39  151.34 -121.80  -12.62  -72.79 -120.77  128.81

DOCKED: MODEL        4
DOCKED: USER    Run = 4
DOCKED: USER    DPF = D:/Protein_go_brrr/autodock/final/AncA/heme_O2/dock.dpf
DOCKED: USER  
DOCKED: USER    Estimated Free Energy of Binding    =  -15.06 kcal/mol  [=(1)+(2)+(3)-(4)]
DOCKED: USER    Estimated Inhibition Constant, Ki   =    9.12 pM (picomolar)  [Temperature = 298.15 K]
DOCKED: USER    
DOCKED: USER    (1) Final Intermolecular Energy     =  -18.04 kcal/mol
DOCKED: USER        vdW + Hbond + desolv Energy     =  -14.87 kcal/mol
DOCKED: USER        Electrostatic Energy            =   -3.18 kcal/mol
DOCKED: USER    (2) Final Total Internal Energy     =   -0.57 kcal/mol
DOCKED: USER    (3) Torsional Free Energy           =   +2.98 kcal/mol
DOCKED: USER    (4) Unbound System's Energy  [=(2)] =   -0.57 kcal/mol
DOCKED: USER    
DOCKED: USER    
DOCKED: USER    NEWDPF move heme_O2_opt.pdbqt
DOCKED: USER    NEWDPF about 8.287000 34.468000 -0.670000
DOCKED: USER    NEWDPF tran0 -4.781256 -8.535819 -3.154980
DOCKED: USER    NEWDPF quaternion0 -0.118213 -0.432025 -0.700086 0.556111
DOCKED: USER    NEWDPF axisangle0 -0.142236 -0.519819 -0.842352 112.425388
DOCKED: USER    NEWDPF quat0 -0.142236 -0.519819 -0.842352 112.425388
DOCKED: USER    NEWDPF dihe0 35.95 -61.90 31.86 -32.39 151.34 -121.80 -12.62 -72.79 -120.77 128.81 
DOCKED: USER  keepresnum = 1 
DOCKED: USER  
DOCKED: REMARK  10 active torsions:
DOCKED: REMARK  status: ('A' for Active; 'I' for Inactive)
DOCKED: REMARK    1  A    between atoms: C_6  and  C_10 
DOCKED: REMARK    2  A    between atoms: C_10  and  C_11 
DOCKED: REMARK    3  A    between atoms: C_11  and  C_12 
DOCKED: REMARK    4  A    between atoms: C_12  and  O_14 
DOCKED: REMARK    5  A    between atoms: C_17  and  C_20 
DOCKED: REMARK    6  A    between atoms: C_24  and  C_27 
DOCKED: REMARK    7  A    between atoms: C_31  and  C_34 
DOCKED: REMARK    8  A    between atoms: C_34  and  C_35 
DOCKED: REMARK    9  A    between atoms: C_35  and  C_36 
DOCKED: REMARK   10  A    between atoms: C_36  and  O_38 
DOCKED: USER                              x       y       z     vdW  Elec       q    Type
DOCKED: USER                           _______ _______ _______ _____ _____    ______ ____
DOCKED: ROOT
DOCKED: ATOM      1  C   UNL d   1      -5.044 -10.567  -2.602 -0.31 +0.05    +0.064 A 
DOCKED: ATOM      2  C   UNL d   1      -1.220  -7.754  -2.760 -0.38 +0.02    +0.064 A 
DOCKED: ATOM      3  C   UNL d   1      -3.868  -4.090  -4.390 -0.37 +0.01    +0.064 C 
DOCKED: ATOM      4  C   UNL d   1      -7.890  -6.831  -3.777 -0.40 +0.02    +0.064 A 
DOCKED: ATOM      5  C   UNL d   1      -3.788 -10.100  -2.510 -0.35 +0.04    +0.066 A 
DOCKED: ATOM      6  C   UNL d   1      -2.697 -10.868  -2.094 -0.34 -0.02    -0.021 A 
DOCKED: ATOM      7  C   UNL d   1      -1.596 -10.043  -2.098 -0.36 -0.01    -0.025 A 
DOCKED: ATOM      8  C   UNL d   1      -2.037  -8.807  -2.563 -0.41 +0.02    +0.066 A 
DOCKED: ATOM      9  C   UNL d   1      -0.211 -10.445  -1.643 -0.23 +0.02    +0.051 C 
DOCKED: ATOM     10  C   UNL d   1      -1.620  -6.441  -3.267 -0.44 +0.01    +0.066 A 
DOCKED: ATOM     11  C   UNL d   1      -0.707  -5.437  -3.608 -0.49 -0.00    -0.021 A 
DOCKED: ATOM     12  C   UNL d   1      -1.450  -4.378  -4.097 -0.37 +0.00    +0.000 A 
DOCKED: ATOM     13  C   UNL d   1      -2.806  -4.802  -4.013 -0.39 +0.01    +0.070 A 
DOCKED: ATOM     14  C   UNL d   1       0.812  -5.495  -3.497 -0.43 +0.01    +0.052 C 
DOCKED: ATOM     15  C   UNL d   1      -5.257  -4.468  -4.290 -0.36 +0.01    +0.066 A 
DOCKED: ATOM     16  C   UNL d   1      -6.329  -3.615  -4.548 -0.47 -0.00    -0.021 A 
DOCKED: ATOM     17  C   UNL d   1      -7.487  -4.375  -4.379 -0.49 +0.00    +0.000 A 
DOCKED: ATOM     18  C   UNL d   1      -7.028  -5.652  -4.027 -0.41 +0.02    +0.070 A 
DOCKED: ATOM     19  C   UNL d   1      -6.157  -2.154  -4.876 -0.38 +0.00    +0.052 C 
DOCKED: ATOM     20  C   UNL d   1      -7.485  -8.058  -3.396 -0.38 +0.02    +0.066 A 
DOCKED: ATOM     21  C   UNL d   1      -8.344  -9.135  -3.193 -0.38 -0.01    -0.025 A 
DOCKED: ATOM     22  C   UNL d   1      -7.548 -10.215  -2.884 +0.10 -0.01    -0.021 A 
DOCKED: ATOM     23  C   UNL d   1      -6.229  -9.751  -2.892 +0.13 +0.04    +0.066 A 
DOCKED: ATOM     24  C   UNL d   1      -9.848  -9.132  -3.286 -0.52 +0.01    +0.051 C 
DOCKED: ATOM     25  N   UNL d   1      -3.400  -8.824  -2.754 -0.22 -0.11    -0.248 N 
DOCKED: ATOM     26  N   UNL d   1      -2.900  -6.056  -3.503 -0.26 -0.06    -0.248 N 
DOCKED: ATOM     27  N   UNL d   1      -5.676  -5.671  -3.904 -0.25 -0.07    -0.248 N 
DOCKED: ATOM     28  N   UNL d   1      -6.199  -8.429  -3.160 -0.11 -0.13    -0.248 N 
DOCKED: ATOM     29 FE   UNL d   1      -4.564  -7.249  -3.330 -0.09 +0.00    +0.000 Fe
DOCKED: ATOM     30  O   UNL d   1      -3.979  -7.106  -1.895 -0.35 +0.00    +0.000 OA
DOCKED: ATOM     31  O   UNL d   1      -5.459  -6.651  -2.184 -0.76 +0.00    +0.000 OA
DOCKED: ENDROOT
DOCKED: BRANCH   6  32
DOCKED: ATOM     32  C   UNL d   1      -2.706 -12.284  -1.580 -0.30 +0.06    +0.052 C 
DOCKED: BRANCH  32  33
DOCKED: ATOM     33  C   UNL d   1      -3.928 -12.593  -0.720 -0.04 +0.17    +0.115 C 
DOCKED: BRANCH  33  34
DOCKED: ATOM     34  C   UNL d   1      -4.122 -14.074  -0.508 -0.06 +0.28    +0.139 C 
DOCKED: ATOM     35  O   UNL d   1      -3.333 -14.863  -1.002 +0.01 -1.33    -0.650 OA
DOCKED: BRANCH  34  36
DOCKED: ATOM     36  O   UNL d   1      -5.169 -14.553   0.196 -0.41 -1.89    -0.776 OA
DOCKED: ATOM     37  H   UNL d   1      -6.040 -14.142   0.159 +0.03 +0.34    +0.167 HD
DOCKED: ENDBRANCH  34  36
DOCKED: ENDBRANCH  33  34
DOCKED: ENDBRANCH  32  33
DOCKED: ENDBRANCH   6  32
DOCKED: BRANCH  22  38
DOCKED: ATOM     38  C   UNL d   1      -8.038 -11.597  -2.538 -0.27 +0.03    +0.052 C 
DOCKED: BRANCH  38  39
DOCKED: ATOM     39  C   UNL d   1      -7.422 -12.127  -1.245 -0.21 +0.10    +0.115 C 
DOCKED: BRANCH  39  40
DOCKED: ATOM     40  C   UNL d   1      -8.398 -12.120  -0.096 -0.21 +0.10    +0.139 C 
DOCKED: ATOM     41  O   UNL d   1      -9.598 -12.130  -0.320 -0.27 -0.37    -0.650 OA
DOCKED: BRANCH  40  42
DOCKED: ATOM     42  O   UNL d   1      -7.970 -12.157   1.181 -0.38 -0.81    -0.776 OA
DOCKED: ATOM     43  H   UNL d   1      -7.430 -12.884   1.512 +0.06 +0.23    +0.167 HD
DOCKED: ENDBRANCH  40  42
DOCKED: ENDBRANCH  39  40
DOCKED: ENDBRANCH  38  39
DOCKED: ENDBRANCH  22  38
DOCKED: BRANCH  12  44
DOCKED: ATOM     44  C   UNL d   1      -0.804  -3.097  -4.580 -0.43 +0.00    +0.004 C 
DOCKED: ATOM     45  C   UNL d   1      -1.327  -1.872  -4.597 -0.61 +0.00    +0.012 C 
DOCKED: ENDBRANCH  12  44
DOCKED: BRANCH  17  46
DOCKED: ATOM     46  C   UNL d   1      -8.941  -3.993  -4.462 -0.62 +0.00    +0.004 C 
DOCKED: ATOM     47  C   UNL d   1      -9.528  -2.868  -4.032 -0.69 +0.00    +0.012 C 
DOCKED: ENDBRANCH  17  46
DOCKED: TORSDOF 10
DOCKED: TER
DOCKED: ENDMDL
________________________________________________________________________________


	BEGINNING GENETIC ALGORITHM DOCKING 5 of 100
Run: 5 Seed: 1371307940 335357458 [ Run 5 of 100 GA/GALS ]
Beginning LAMARCKIAN GENETIC ALGORITHM (LGA), with a maximum of 25000000 energy evaluations.

Final-Value: -11.417


	FINAL GENETIC ALGORITHM DOCKED STATE
	_______________________________________________


Detailed state:  trans -10.560 -17.049 -5.609 quatxyzw -0.339972 -0.915996 -0.062960 0.203486 center 8.287 34.468 -0.670 ntor 10 9.5915 10.2470 61.2207 -100.4204 42.9744 84.8318 -155.6119 53.5117 -175.6955 -162.1641
State:	-10.560 -17.049  -5.609  -0.347 -0.936 -0.064 156.518      9.59   10.25   61.22 -100.42   42.97   84.83 -155.61   53.51 -175.70 -162.16

DOCKED: MODEL        5
DOCKED: USER    Run = 5
DOCKED: USER    DPF = D:/Protein_go_brrr/autodock/final/AncA/heme_O2/dock.dpf
DOCKED: USER  
DOCKED: USER    Estimated Free Energy of Binding    =   -6.72 kcal/mol  [=(1)+(2)+(3)-(4)]
DOCKED: USER    Estimated Inhibition Constant, Ki   =   11.92 uM (micromolar)  [Temperature = 298.15 K]
DOCKED: USER    
DOCKED: USER    (1) Final Intermolecular Energy     =   -9.70 kcal/mol
DOCKED: USER        vdW + Hbond + desolv Energy     =   -5.93 kcal/mol
DOCKED: USER        Electrostatic Energy            =   -3.77 kcal/mol
DOCKED: USER    (2) Final Total Internal Energy     =   -1.72 kcal/mol
DOCKED: USER    (3) Torsional Free Energy           =   +2.98 kcal/mol
DOCKED: USER    (4) Unbound System's Energy  [=(2)] =   -1.72 kcal/mol
DOCKED: USER    
DOCKED: USER    
DOCKED: USER    NEWDPF move heme_O2_opt.pdbqt
DOCKED: USER    NEWDPF about 8.287000 34.468000 -0.670000
DOCKED: USER    NEWDPF tran0 -10.559689 -17.048714 -5.608989
DOCKED: USER    NEWDPF quaternion0 -0.339972 -0.915996 -0.062960 0.203486
DOCKED: USER    NEWDPF axisangle0 -0.347237 -0.935570 -0.064305 156.518207
DOCKED: USER    NEWDPF quat0 -0.347237 -0.935570 -0.064305 156.518207
DOCKED: USER    NEWDPF dihe0 9.59 10.25 61.22 -100.42 42.97 84.83 -155.61 53.51 -175.70 -162.16 
DOCKED: USER  keepresnum = 1 
DOCKED: USER  
DOCKED: REMARK  10 active torsions:
DOCKED: REMARK  status: ('A' for Active; 'I' for Inactive)
DOCKED: REMARK    1  A    between atoms: C_6  and  C_10 
DOCKED: REMARK    2  A    between atoms: C_10  and  C_11 
DOCKED: REMARK    3  A    between atoms: C_11  and  C_12 
DOCKED: REMARK    4  A    between atoms: C_12  and  O_14 
DOCKED: REMARK    5  A    between atoms: C_17  and  C_20 
DOCKED: REMARK    6  A    between atoms: C_24  and  C_27 
DOCKED: REMARK    7  A    between atoms: C_31  and  C_34 
DOCKED: REMARK    8  A    between atoms: C_34  and  C_35 
DOCKED: REMARK    9  A    between atoms: C_35  and  C_36 
DOCKED: REMARK   10  A    between atoms: C_36  and  O_38 
DOCKED: USER                              x       y       z     vdW  Elec       q    Type
DOCKED: USER                           _______ _______ _______ _____ _____    ______ ____
DOCKED: ROOT
DOCKED: ATOM      1  C   UNL d   1      -9.250 -17.785  -4.112 -0.06 +0.04    +0.064 A 
DOCKED: ATOM      2  C   UNL d   1     -10.144 -19.183  -8.562 -0.14 +0.04    +0.064 A 
DOCKED: ATOM      3  C   UNL d   1     -13.413 -15.702  -9.097 -0.04 +0.01    +0.064 C 
DOCKED: ATOM      4  C   UNL d   1     -12.159 -13.958  -4.687 -0.11 +0.02    +0.064 A 
DOCKED: ATOM      5  C   UNL d   1      -9.225 -18.448  -5.279 -0.08 +0.04    +0.066 A 
DOCKED: ATOM      6  C   UNL d   1      -8.415 -19.559  -5.531 -0.07 -0.01    -0.021 A 
DOCKED: ATOM      7  C   UNL d   1      -8.641 -19.939  -6.833 -0.11 -0.02    -0.025 A 
DOCKED: ATOM      8  C   UNL d   1      -9.619 -19.078  -7.326 -0.13 +0.04    +0.066 A 
DOCKED: ATOM      9  C   UNL d   1      -7.915 -21.058  -7.548 -0.10 +0.05    +0.051 C 
DOCKED: ATOM     10  C   UNL d   1     -11.187 -18.325  -9.126 -0.17 +0.03    +0.066 A 
DOCKED: ATOM     11  C   UNL d   1     -11.811 -18.578 -10.352 -0.13 -0.01    -0.021 A 
DOCKED: ATOM     12  C   UNL d   1     -12.770 -17.596 -10.516 -0.15 +0.00    +0.000 A 
DOCKED: ATOM     13  C   UNL d   1     -12.665 -16.773  -9.361 -0.02 +0.01    +0.070 A 
DOCKED: ATOM     14  C   UNL d   1     -11.525 -19.726 -11.314 -0.07 +0.02    +0.052 C 
DOCKED: ATOM     15  C   UNL d   1     -13.314 -14.823  -7.957 -0.09 +0.00    +0.066 A 
DOCKED: ATOM     16  C   UNL d   1     -14.015 -13.625  -7.819 -0.21 -0.00    -0.021 A 
DOCKED: ATOM     17  C   UNL d   1     -13.672 -13.109  -6.569 -0.22 +0.00    +0.000 A 
DOCKED: ATOM     18  C   UNL d   1     -12.778 -14.045  -6.030 -0.20 +0.01    +0.070 A 
DOCKED: ATOM     19  C   UNL d   1     -14.896 -13.058  -8.904 -0.21 +0.01    +0.052 C 
DOCKED: ATOM     20  C   UNL d   1     -11.264 -14.814  -4.156 -0.02 +0.02    +0.066 A 
DOCKED: ATOM     21  C   UNL d   1     -10.728 -14.690  -2.878 -0.11 -0.01    -0.025 A 
DOCKED: ATOM     22  C   UNL d   1      -9.918 -15.787  -2.686 -0.08 -0.01    -0.021 A 
DOCKED: ATOM     23  C   UNL d   1      -9.976 -16.533  -3.867 -0.08 +0.03    +0.066 A 
DOCKED: ATOM     24  C   UNL d   1     -10.974 -13.579  -1.890 -0.19 +0.02    +0.051 C 
DOCKED: ATOM     25  N   UNL d   1      -9.930 -18.120  -6.389 -0.08 -0.13    -0.248 N 
DOCKED: ATOM     26  N   UNL d   1     -11.696 -17.221  -8.523 -0.13 -0.07    -0.248 N 
DOCKED: ATOM     27  N   UNL d   1     -12.515 -15.039  -6.916 -0.15 -0.04    -0.248 N 
DOCKED: ATOM     28  N   UNL d   1     -10.760 -15.915  -4.774 -0.06 -0.10    -0.248 N 
DOCKED: ATOM     29 FE   UNL d   1     -11.226 -16.561  -6.635 -0.04 +0.00    +0.000 Fe
DOCKED: ATOM     30  O   UNL d   1      -9.924 -16.434  -7.478 -0.34 +0.00    +0.000 OA
DOCKED: ATOM     31  O   UNL d   1     -10.531 -15.158  -6.783 -0.21 +0.00    +0.000 OA
DOCKED: ENDROOT
DOCKED: BRANCH   6  32
DOCKED: ATOM     32  C   UNL d   1      -7.367 -20.161  -4.631 -0.04 +0.04    +0.052 C 
DOCKED: BRANCH  32  33
DOCKED: ATOM     33  C   UNL d   1      -5.975 -19.587  -4.877 -0.08 +0.11    +0.115 C 
DOCKED: BRANCH  33  34
DOCKED: ATOM     34  C   UNL d   1      -6.020 -18.231  -5.537 -0.18 +0.17    +0.139 C 
DOCKED: ATOM     35  O   UNL d   1      -5.690 -18.118  -6.707 +0.05 -1.03    -0.650 OA
DOCKED: BRANCH  34  36
DOCKED: ATOM     36  O   UNL d   1      -6.393 -17.128  -4.855 +0.17 -1.13    -0.776 OA
DOCKED: ATOM     37  H   UNL d   1      -6.508 -17.135  -3.898 +0.03 +0.25    +0.167 HD
DOCKED: ENDBRANCH  34  36
DOCKED: ENDBRANCH  33  34
DOCKED: ENDBRANCH  32  33
DOCKED: ENDBRANCH   6  32
DOCKED: BRANCH  22  38
DOCKED: ATOM     38  C   UNL d   1      -9.088 -16.062  -1.459 -0.06 +0.04    +0.052 C 
DOCKED: BRANCH  38  39
DOCKED: ATOM     39  C   UNL d   1      -8.060 -14.963  -1.194 -0.10 +0.12    +0.115 C 
DOCKED: BRANCH  39  40
DOCKED: ATOM     40  C   UNL d   1      -6.664 -15.508  -1.025 -0.02 +0.23    +0.139 C 
DOCKED: ATOM     41  O   UNL d   1      -5.990 -15.162  -0.068 -0.46 -1.31    -0.650 OA
DOCKED: BRANCH  40  42
DOCKED: ATOM     42  O   UNL d   1      -6.162 -16.414  -1.886 -0.38 -1.57    -0.776 OA
DOCKED: ATOM     43  H   UNL d   1      -6.593 -16.603  -2.728 +0.02 +0.31    +0.167 HD
DOCKED: ENDBRANCH  40  42
DOCKED: ENDBRANCH  39  40
DOCKED: ENDBRANCH  38  39
DOCKED: ENDBRANCH  22  38
DOCKED: BRANCH  12  44
DOCKED: ATOM     44  C   UNL d   1     -13.666 -17.542 -11.736 -0.13 +0.00    +0.004 C 
DOCKED: ATOM     45  C   UNL d   1     -13.818 -16.537 -12.597 -0.22 +0.01    +0.012 C 
DOCKED: ENDBRANCH  12  44
DOCKED: BRANCH  17  46
DOCKED: ATOM     46  C   UNL d   1     -14.061 -11.823  -5.891 -0.28 +0.00    +0.004 C 
DOCKED: ATOM     47  C   UNL d   1     -13.306 -10.737  -5.679 -0.45 +0.00    +0.012 C 
DOCKED: ENDBRANCH  17  46
DOCKED: TORSDOF 10
DOCKED: TER
DOCKED: ENDMDL
________________________________________________________________________________


	BEGINNING GENETIC ALGORITHM DOCKING 6 of 100
Run: 6 Seed: 1450574532 1786724180 [ Run 6 of 100 GA/GALS ]
Beginning LAMARCKIAN GENETIC ALGORITHM (LGA), with a maximum of 25000000 energy evaluations.

Final-Value: -18.548


	FINAL GENETIC ALGORITHM DOCKED STATE
	_______________________________________________


Detailed state:  trans -4.686 -8.577 -3.228 quatxyzw -0.120238 -0.433941 -0.722071 0.525216 center 8.287 34.468 -0.670 ntor 10 -89.7467 -56.8241 23.5483 -18.6199 -57.9152 -19.1614 18.2693 78.3696 26.7686 158.9466
State:	 -4.686  -8.577  -3.228  -0.141 -0.510 -0.849 116.634    -89.75  -56.82   23.55  -18.62  -57.92  -19.16   18.27   78.37   26.77  158.95

DOCKED: MODEL        6
DOCKED: USER    Run = 6
DOCKED: USER    DPF = D:/Protein_go_brrr/autodock/final/AncA/heme_O2/dock.dpf
DOCKED: USER  
DOCKED: USER    Estimated Free Energy of Binding    =  -15.20 kcal/mol  [=(1)+(2)+(3)-(4)]
DOCKED: USER    Estimated Inhibition Constant, Ki   =    7.16 pM (picomolar)  [Temperature = 298.15 K]
DOCKED: USER    
DOCKED: USER    (1) Final Intermolecular Energy     =  -18.19 kcal/mol
DOCKED: USER        vdW + Hbond + desolv Energy     =  -14.47 kcal/mol
DOCKED: USER        Electrostatic Energy            =   -3.72 kcal/mol
DOCKED: USER    (2) Final Total Internal Energy     =   -0.36 kcal/mol
DOCKED: USER    (3) Torsional Free Energy           =   +2.98 kcal/mol
DOCKED: USER    (4) Unbound System's Energy  [=(2)] =   -0.36 kcal/mol
DOCKED: USER    
DOCKED: USER    
DOCKED: USER    NEWDPF move heme_O2_opt.pdbqt
DOCKED: USER    NEWDPF about 8.287000 34.468000 -0.670000
DOCKED: USER    NEWDPF tran0 -4.686068 -8.577122 -3.228400
DOCKED: USER    NEWDPF quaternion0 -0.120238 -0.433941 -0.722071 0.525216
DOCKED: USER    NEWDPF axisangle0 -0.141296 -0.509937 -0.848528 116.634494
DOCKED: USER    NEWDPF quat0 -0.141296 -0.509937 -0.848528 116.634494
DOCKED: USER    NEWDPF dihe0 -89.75 -56.82 23.55 -18.62 -57.92 -19.16 18.27 78.37 26.77 158.95 
DOCKED: USER  keepresnum = 1 
DOCKED: USER  
DOCKED: REMARK  10 active torsions:
DOCKED: REMARK  status: ('A' for Active; 'I' for Inactive)
DOCKED: REMARK    1  A    between atoms: C_6  and  C_10 
DOCKED: REMARK    2  A    between atoms: C_10  and  C_11 
DOCKED: REMARK    3  A    between atoms: C_11  and  C_12 
DOCKED: REMARK    4  A    between atoms: C_12  and  O_14 
DOCKED: REMARK    5  A    between atoms: C_17  and  C_20 
DOCKED: REMARK    6  A    between atoms: C_24  and  C_27 
DOCKED: REMARK    7  A    between atoms: C_31  and  C_34 
DOCKED: REMARK    8  A    between atoms: C_34  and  C_35 
DOCKED: REMARK    9  A    between atoms: C_35  and  C_36 
DOCKED: REMARK   10  A    between atoms: C_36  and  O_38 
DOCKED: USER                              x       y       z     vdW  Elec       q    Type
DOCKED: USER                           _______ _______ _______ _____ _____    ______ ____
DOCKED: ROOT
DOCKED: ATOM      1  C   UNL d   1      -4.799 -10.634  -2.723 -0.34 +0.05    +0.064 A 
DOCKED: ATOM      2  C   UNL d   1      -1.175  -7.570  -2.904 -0.35 +0.02    +0.064 A 
DOCKED: ATOM      3  C   UNL d   1      -4.102  -4.051  -4.368 -0.33 +0.01    +0.064 C 
DOCKED: ATOM      4  C   UNL d   1      -7.917  -7.068  -3.725 -0.40 +0.02    +0.064 A 
DOCKED: ATOM      5  C   UNL d   1      -3.575 -10.087  -2.651 -0.34 +0.04    +0.066 A 
DOCKED: ATOM      6  C   UNL d   1      -2.424 -10.790  -2.284 -0.31 -0.01    -0.021 A 
DOCKED: ATOM      7  C   UNL d   1      -1.381  -9.894  -2.294 -0.32 -0.01    -0.025 A 
DOCKED: ATOM      8  C   UNL d   1      -1.915  -8.679  -2.714 -0.38 +0.02    +0.066 A 
DOCKED: ATOM      9  C   UNL d   1       0.040 -10.215  -1.885 -0.22 +0.02    +0.051 C 
DOCKED: ATOM     10  C   UNL d   1      -1.674  -6.274  -3.365 -0.43 +0.01    +0.066 A 
DOCKED: ATOM     11  C   UNL d   1      -0.839  -5.203  -3.702 -0.47 -0.00    -0.021 A 
DOCKED: ATOM     12  C   UNL d   1      -1.664  -4.185  -4.144 -0.37 +0.00    +0.000 A 
DOCKED: ATOM     13  C   UNL d   1      -2.986  -4.699  -4.037 -0.38 +0.01    +0.070 A 
DOCKED: ATOM     14  C   UNL d   1       0.683  -5.162  -3.632 -0.56 +0.01    +0.052 C 
DOCKED: ATOM     15  C   UNL d   1      -5.460  -4.524  -4.241 -0.37 +0.01    +0.066 A 
DOCKED: ATOM     16  C   UNL d   1      -6.593  -3.738  -4.450 -0.48 -0.00    -0.021 A 
DOCKED: ATOM     17  C   UNL d   1      -7.693  -4.577  -4.271 -0.49 +0.00    +0.000 A 
DOCKED: ATOM     18  C   UNL d   1      -7.141  -5.829  -3.965 -0.41 +0.02    +0.070 A 
DOCKED: ATOM     19  C   UNL d   1      -6.527  -2.260  -4.743 -0.56 +0.00    +0.052 C 
DOCKED: ATOM     20  C   UNL d   1      -7.422  -8.275  -3.387 -0.37 +0.02    +0.066 A 
DOCKED: ATOM     21  C   UNL d   1      -8.201  -9.411  -3.191 -0.32 -0.01    -0.025 A 
DOCKED: ATOM     22  C   UNL d   1      -7.327 -10.443  -2.932 +0.23 -0.01    -0.021 A 
DOCKED: ATOM     23  C   UNL d   1      -6.043  -9.892  -2.961 -0.02 +0.04    +0.066 A 
DOCKED: ATOM     24  C   UNL d   1      -9.704  -9.507  -3.246 -0.49 +0.01    +0.051 C 
DOCKED: ATOM     25  N   UNL d   1      -3.278  -8.783  -2.871 -0.20 -0.10    -0.248 N 
DOCKED: ATOM     26  N   UNL d   1      -2.983  -5.969  -3.558 -0.26 -0.05    -0.248 N 
DOCKED: ATOM     27  N   UNL d   1      -5.788  -5.760  -3.878 -0.22 -0.08    -0.248 N 
DOCKED: ATOM     28  N   UNL d   1      -6.108  -8.565  -3.194 -0.11 -0.13    -0.248 N 
DOCKED: ATOM     29 FE   UNL d   1      -4.559  -7.274  -3.375 -0.09 +0.00    +0.000 Fe
DOCKED: ATOM     30  O   UNL d   1      -3.945  -7.129  -1.952 -0.38 +0.00    +0.000 OA
DOCKED: ATOM     31  O   UNL d   1      -5.460  -6.766  -2.190 -0.67 +0.00    +0.000 OA
DOCKED: ENDROOT
DOCKED: BRANCH   6  32
DOCKED: ATOM     32  C   UNL d   1      -2.326 -12.217  -1.808 -0.31 +0.06    +0.052 C 
DOCKED: BRANCH  32  33
DOCKED: ATOM     33  C   UNL d   1      -1.643 -13.133  -2.818 -0.18 +0.14    +0.115 C 
DOCKED: BRANCH  33  34
DOCKED: ATOM     34  C   UNL d   1      -1.885 -14.593  -2.526 -0.02 +0.23    +0.139 C 
DOCKED: ATOM     35  O   UNL d   1      -1.890 -15.399  -3.443 -0.24 -1.20    -0.650 OA
DOCKED: BRANCH  34  36
DOCKED: ATOM     36  O   UNL d   1      -2.127 -15.029  -1.273 +0.01 -1.13    -0.776 OA
DOCKED: ATOM     37  H   UNL d   1      -1.416 -15.298  -0.679 +0.03 +0.17    +0.167 HD
DOCKED: ENDBRANCH  34  36
DOCKED: ENDBRANCH  33  34
DOCKED: ENDBRANCH  32  33
DOCKED: ENDBRANCH   6  32
DOCKED: BRANCH  22  38
DOCKED: ATOM     38  C   UNL d   1      -7.716 -11.863  -2.610 -0.25 +0.04    +0.052 C 
DOCKED: BRANCH  38  39
DOCKED: ATOM     39  C   UNL d   1      -7.685 -12.150  -1.111 -0.21 +0.09    +0.115 C 
DOCKED: BRANCH  39  40
DOCKED: ATOM     40  C   UNL d   1      -6.460 -12.927  -0.698 -0.24 +0.19    +0.139 C 
DOCKED: ATOM     41  O   UNL d   1      -5.735 -12.494   0.184 -0.05 -0.92    -0.650 OA
DOCKED: BRANCH  40  42
DOCKED: ATOM     42  O   UNL d   1      -6.176 -14.122  -1.250 -0.20 -1.58    -0.776 OA
DOCKED: ATOM     43  H   UNL d   1      -6.818 -14.842  -1.255 +0.03 +0.29    +0.167 HD
DOCKED: ENDBRANCH  40  42
DOCKED: ENDBRANCH  39  40
DOCKED: ENDBRANCH  38  39
DOCKED: ENDBRANCH  22  38
DOCKED: BRANCH  12  44
DOCKED: ATOM     44  C   UNL d   1      -1.117  -2.851  -4.609 -0.50 +0.00    +0.004 C 
DOCKED: ATOM     45  C   UNL d   1      -1.767  -1.694  -4.721 -0.64 +0.00    +0.012 C 
DOCKED: ENDBRANCH  12  44
DOCKED: BRANCH  17  46
DOCKED: ATOM     46  C   UNL d   1      -9.171  -4.290  -4.307 -0.60 +0.00    +0.004 C 
DOCKED: ATOM     47  C   UNL d   1      -9.796  -3.130  -4.067 -0.69 +0.00    +0.012 C 
DOCKED: ENDBRANCH  17  46
DOCKED: TORSDOF 10
DOCKED: TER
DOCKED: ENDMDL
________________________________________________________________________________


	BEGINNING GENETIC ALGORITHM DOCKING 7 of 100
Run: 7 Seed: 842254630 1657602607 [ Run 7 of 100 GA/GALS ]
Beginning LAMARCKIAN GENETIC ALGORITHM (LGA), with a maximum of 25000000 energy evaluations.

Final-Value: -12.509


	FINAL GENETIC ALGORITHM DOCKED STATE
	_______________________________________________


Detailed state:  trans -0.354 -15.139 -2.038 quatxyzw 0.852892 0.214974 0.433799 -0.195397 center 8.287 34.468 -0.670 ntor 10 -14.8188 -20.1794 149.8367 106.3398 180.0000 -73.5432 47.6227 124.6837 146.0564 12.0184
State:	 -0.354 -15.139  -2.038   0.870  0.219  0.442 -157.464    -14.82  -20.18  149.84  106.34  180.00  -73.54   47.62  124.68  146.06   12.02

DOCKED: MODEL        7
DOCKED: USER    Run = 7
DOCKED: USER    DPF = D:/Protein_go_brrr/autodock/final/AncA/heme_O2/dock.dpf
DOCKED: USER  
DOCKED: USER    Estimated Free Energy of Binding    =   -9.07 kcal/mol  [=(1)+(2)+(3)-(4)]
DOCKED: USER    Estimated Inhibition Constant, Ki   =  224.73 nM (nanomolar)  [Temperature = 298.15 K]
DOCKED: USER    
DOCKED: USER    (1) Final Intermolecular Energy     =  -12.05 kcal/mol
DOCKED: USER        vdW + Hbond + desolv Energy     =   -7.55 kcal/mol
DOCKED: USER        Electrostatic Energy            =   -4.50 kcal/mol
DOCKED: USER    (2) Final Total Internal Energy     =   -0.46 kcal/mol
DOCKED: USER    (3) Torsional Free Energy           =   +2.98 kcal/mol
DOCKED: USER    (4) Unbound System's Energy  [=(2)] =   -0.46 kcal/mol
DOCKED: USER    
DOCKED: USER    
DOCKED: USER    NEWDPF move heme_O2_opt.pdbqt
DOCKED: USER    NEWDPF about 8.287000 34.468000 -0.670000
DOCKED: USER    NEWDPF tran0 -0.353615 -15.139411 -2.037827
DOCKED: USER    NEWDPF quaternion0 0.852892 0.214974 0.433799 -0.195397
DOCKED: USER    NEWDPF axisangle0 0.869655 0.219199 0.442325 -157.464222
DOCKED: USER    NEWDPF quat0 0.869655 0.219199 0.442325 -157.464222
DOCKED: USER    NEWDPF dihe0 -14.82 -20.18 149.84 106.34 180.00 -73.54 47.62 124.68 146.06 12.02 
DOCKED: USER  keepresnum = 1 
DOCKED: USER  
DOCKED: REMARK  10 active torsions:
DOCKED: REMARK  status: ('A' for Active; 'I' for Inactive)
DOCKED: REMARK    1  A    between atoms: C_6  and  C_10 
DOCKED: REMARK    2  A    between atoms: C_10  and  C_11 
DOCKED: REMARK    3  A    between atoms: C_11  and  C_12 
DOCKED: REMARK    4  A    between atoms: C_12  and  O_14 
DOCKED: REMARK    5  A    between atoms: C_17  and  C_20 
DOCKED: REMARK    6  A    between atoms: C_24  and  C_27 
DOCKED: REMARK    7  A    between atoms: C_31  and  C_34 
DOCKED: REMARK    8  A    between atoms: C_34  and  C_35 
DOCKED: REMARK    9  A    between atoms: C_35  and  C_36 
DOCKED: REMARK   10  A    between atoms: C_36  and  O_38 
DOCKED: USER                              x       y       z     vdW  Elec       q    Type
DOCKED: USER                           _______ _______ _______ _____ _____    ______ ____
DOCKED: ROOT
DOCKED: ATOM      1  C   UNL d   1      -1.887 -16.525  -2.514 -0.06 +0.09    +0.064 A 
DOCKED: ATOM      2  C   UNL d   1       1.254 -14.172  -5.189 -0.26 +0.03    +0.064 A 
DOCKED: ATOM      3  C   UNL d   1       3.064 -11.991  -1.309 -0.23 +0.02    +0.064 C 
DOCKED: ATOM      4  C   UNL d   1       0.157 -14.764   1.506 -0.11 +0.04    +0.064 A 
DOCKED: ATOM      5  C   UNL d   1      -1.180 -16.065  -3.558 -0.12 +0.08    +0.066 A 
DOCKED: ATOM      6  C   UNL d   1      -1.410 -16.437  -4.885 -0.14 -0.02    -0.021 A 
DOCKED: ATOM      7  C   UNL d   1      -0.474 -15.790  -5.656 -0.25 -0.02    -0.025 A 
DOCKED: ATOM      8  C   UNL d   1       0.273 -15.002  -4.784 -0.19 +0.04    +0.066 A 
DOCKED: ATOM      9  C   UNL d   1      -0.311 -15.965  -7.150 -0.29 +0.03    +0.051 C 
DOCKED: ATOM     10  C   UNL d   1       2.055 -13.306  -4.324 -0.20 +0.03    +0.066 A 
DOCKED: ATOM     11  C   UNL d   1       2.947 -12.344  -4.813 -0.29 -0.01    -0.021 A 
DOCKED: ATOM     12  C   UNL d   1       3.466 -11.692  -3.709 -0.29 +0.00    +0.000 A 
DOCKED: ATOM     13  C   UNL d   1       2.857 -12.315  -2.585 -0.17 +0.02    +0.070 A 
DOCKED: ATOM     14  C   UNL d   1       3.270 -12.042  -6.271 -0.31 +0.01    +0.052 C 
DOCKED: ATOM     15  C   UNL d   1       2.494 -12.620  -0.141 -0.16 +0.02    +0.066 A 
DOCKED: ATOM     16  C   UNL d   1       2.877 -12.344   1.171 -0.21 -0.01    -0.021 A 
DOCKED: ATOM     17  C   UNL d   1       2.062 -13.123   1.991 -0.18 +0.00    +0.000 A 
DOCKED: ATOM     18  C   UNL d   1       1.231 -13.825   1.106 -0.12 +0.03    +0.070 A 
DOCKED: ATOM     19  C   UNL d   1       4.010 -11.412   1.519 -0.23 +0.01    +0.052 C 
DOCKED: ATOM     20  C   UNL d   1      -0.629 -15.486   0.683 -0.09 +0.05    +0.066 A 
DOCKED: ATOM     21  C   UNL d   1      -1.637 -16.342   1.118 -0.08 -0.02    -0.025 A 
DOCKED: ATOM     22  C   UNL d   1      -2.248 -16.831  -0.014 -0.07 -0.02    -0.021 A 
DOCKED: ATOM     23  C   UNL d   1      -1.576 -16.268  -1.103 -0.07 +0.07    +0.066 A 
DOCKED: ATOM     24  C   UNL d   1      -1.996 -16.678   2.542 +0.01 +0.05    +0.051 C 
DOCKED: ATOM     25  N   UNL d   1      -0.120 -15.222  -3.484 -0.07 -0.20    -0.248 N 
DOCKED: ATOM     26  N   UNL d   1       2.003 -13.299  -2.968 -0.07 -0.10    -0.248 N 
DOCKED: ATOM     27  N   UNL d   1       1.558 -13.563  -0.185 -0.05 -0.10    -0.248 N 
DOCKED: ATOM     28  N   UNL d   1      -0.563 -15.486  -0.675 -0.04 -0.19    -0.248 N 
DOCKED: ATOM     29 FE   UNL d   1       0.712 -14.399  -1.811 -0.02 +0.00    +0.000 Fe
DOCKED: ATOM     30  O   UNL d   1       1.634 -15.425  -2.531 -0.06 +0.00    +0.000 OA
DOCKED: ATOM     31  O   UNL d   1       1.575 -15.399  -0.957 -0.04 +0.00    +0.000 OA
DOCKED: ENDROOT
DOCKED: BRANCH   6  32
DOCKED: ATOM     32  C   UNL d   1      -2.383 -17.467  -5.399 -0.15 +0.06    +0.052 C 
DOCKED: BRANCH  32  33
DOCKED: ATOM     33  C   UNL d   1      -1.741 -18.458  -6.365 -0.11 +0.11    +0.115 C 
DOCKED: BRANCH  33  34
DOCKED: ATOM     34  C   UNL d   1      -2.586 -18.695  -7.592 -0.09 +0.21    +0.139 C 
DOCKED: ATOM     35  O   UNL d   1      -3.321 -17.809  -7.999 -0.51 -1.13    -0.650 OA
DOCKED: BRANCH  34  36
DOCKED: ATOM     36  O   UNL d   1      -2.570 -19.878  -8.240 -0.19 -1.47    -0.776 OA
DOCKED: ATOM     37  H   UNL d   1      -1.885 -20.538  -8.081 +0.02 +0.19    +0.167 HD
DOCKED: ENDBRANCH  34  36
DOCKED: ENDBRANCH  33  34
DOCKED: ENDBRANCH  32  33
DOCKED: ENDBRANCH   6  32
DOCKED: BRANCH  22  38
DOCKED: ATOM     38  C   UNL d   1      -3.372 -17.835  -0.041 -0.05 +0.05    +0.052 C 
DOCKED: BRANCH  38  39
DOCKED: ATOM     39  C   UNL d   1      -4.671 -17.239  -0.581 -0.08 +0.16    +0.115 C 
DOCKED: BRANCH  39  40
DOCKED: ATOM     40  C   UNL d   1      -5.114 -16.024   0.196 +0.08 +0.27    +0.139 C 
DOCKED: ATOM     41  O   UNL d   1      -4.491 -14.980   0.094 -0.40 -1.53    -0.650 OA
DOCKED: BRANCH  40  42
DOCKED: ATOM     42  O   UNL d   1      -6.220 -16.055   0.964 -0.23 -1.57    -0.776 OA
DOCKED: ATOM     43  H   UNL d   1      -6.889 -16.742   0.858 +0.01 +0.21    +0.167 HD
DOCKED: ENDBRANCH  40  42
DOCKED: ENDBRANCH  39  40
DOCKED: ENDBRANCH  38  39
DOCKED: ENDBRANCH  22  38
DOCKED: BRANCH  12  44
DOCKED: ATOM     44  C   UNL d   1       4.472 -10.568  -3.839 -0.45 +0.00    +0.004 C 
DOCKED: ATOM     45  C   UNL d   1       5.438 -10.434  -4.748 -0.43 +0.00    +0.012 C 
DOCKED: ENDBRANCH  12  44
DOCKED: BRANCH  17  46
DOCKED: ATOM     46  C   UNL d   1       2.043 -13.298   3.487 -0.19 +0.00    +0.004 C 
DOCKED: ATOM     47  C   UNL d   1       1.228 -12.721   4.378 -0.33 +0.01    +0.012 C 
DOCKED: ENDBRANCH  17  46
DOCKED: TORSDOF 10
DOCKED: TER
DOCKED: ENDMDL
________________________________________________________________________________


	BEGINNING GENETIC ALGORITHM DOCKING 8 of 100
Run: 8 Seed: 2049221159 1860009593 [ Run 8 of 100 GA/GALS ]
Beginning LAMARCKIAN GENETIC ALGORITHM (LGA), with a maximum of 25000000 energy evaluations.

Final-Value: -9.035


	FINAL GENETIC ALGORITHM DOCKED STATE
	_______________________________________________


Detailed state:  trans 10.081 8.962 -16.554 quatxyzw -0.736533 0.140645 -0.258475 0.609039 center 8.287 34.468 -0.670 ntor 10 0.0781 37.9371 53.6700 -103.2246 129.4358 103.1494 135.6320 56.4659 -137.1540 -179.7771
State:	 10.081   8.962 -16.554  -0.929  0.177 -0.326 104.960      0.08   37.94   53.67 -103.22  129.44  103.15  135.63   56.47 -137.15 -179.78

DOCKED: MODEL        8
DOCKED: USER    Run = 8
DOCKED: USER    DPF = D:/Protein_go_brrr/autodock/final/AncA/heme_O2/dock.dpf
DOCKED: USER  
DOCKED: USER    Estimated Free Energy of Binding    =   -4.29 kcal/mol  [=(1)+(2)+(3)-(4)]
DOCKED: USER    Estimated Inhibition Constant, Ki   =  711.19 uM (micromolar)  [Temperature = 298.15 K]
DOCKED: USER    
DOCKED: USER    (1) Final Intermolecular Energy     =   -7.28 kcal/mol
DOCKED: USER        vdW + Hbond + desolv Energy     =   -5.42 kcal/mol
DOCKED: USER        Electrostatic Energy            =   -1.86 kcal/mol
DOCKED: USER    (2) Final Total Internal Energy     =   -1.76 kcal/mol
DOCKED: USER    (3) Torsional Free Energy           =   +2.98 kcal/mol
DOCKED: USER    (4) Unbound System's Energy  [=(2)] =   -1.76 kcal/mol
DOCKED: USER    
DOCKED: USER    
DOCKED: USER    NEWDPF move heme_O2_opt.pdbqt
DOCKED: USER    NEWDPF about 8.287000 34.468000 -0.670000
DOCKED: USER    NEWDPF tran0 10.081398 8.962108 -16.553550
DOCKED: USER    NEWDPF quaternion0 -0.736533 0.140645 -0.258475 0.609039
DOCKED: USER    NEWDPF axisangle0 -0.928629 0.177327 -0.325889 104.959901
DOCKED: USER    NEWDPF quat0 -0.928629 0.177327 -0.325889 104.959901
DOCKED: USER    NEWDPF dihe0 0.08 37.94 53.67 -103.22 129.44 103.15 135.63 56.47 -137.15 -179.78 
DOCKED: USER  keepresnum = 1 
DOCKED: USER  
DOCKED: REMARK  10 active torsions:
DOCKED: REMARK  status: ('A' for Active; 'I' for Inactive)
DOCKED: REMARK    1  A    between atoms: C_6  and  C_10 
DOCKED: REMARK    2  A    between atoms: C_10  and  C_11 
DOCKED: REMARK    3  A    between atoms: C_11  and  C_12 
DOCKED: REMARK    4  A    between atoms: C_12  and  O_14 
DOCKED: REMARK    5  A    between atoms: C_17  and  C_20 
DOCKED: REMARK    6  A    between atoms: C_24  and  C_27 
DOCKED: REMARK    7  A    between atoms: C_31  and  C_34 
DOCKED: REMARK    8  A    between atoms: C_34  and  C_35 
DOCKED: REMARK    9  A    between atoms: C_35  and  C_36 
DOCKED: REMARK   10  A    between atoms: C_36  and  O_38 
DOCKED: USER                              x       y       z     vdW  Elec       q    Type
DOCKED: USER                           _______ _______ _______ _____ _____    ______ ____
DOCKED: ROOT
DOCKED: ATOM      1  C   UNL d   1       8.053   9.405 -16.990 -0.07 +0.02    +0.064 A 
DOCKED: ATOM      2  C   UNL d   1      11.225   6.532 -19.051 -0.08 +0.02    +0.064 A 
DOCKED: ATOM      3  C   UNL d   1      14.600   7.837 -15.888 -0.15 +0.01    +0.064 C 
DOCKED: ATOM      4  C   UNL d   1      11.213  10.433 -13.469 -0.13 +0.02    +0.064 A 
DOCKED: ATOM      5  C   UNL d   1       8.640   8.516 -17.808 -0.07 +0.03    +0.066 A 
DOCKED: ATOM      6  C   UNL d   1       8.000   7.907 -18.891 -0.05 -0.01    -0.021 A 
DOCKED: ATOM      7  C   UNL d   1       8.904   7.043 -19.462 -0.05 -0.01    -0.025 A 
DOCKED: ATOM      8  C   UNL d   1      10.087   7.183 -18.742 -0.08 +0.03    +0.066 A 
DOCKED: ATOM      9  C   UNL d   1       8.604   6.120 -20.623 -0.02 +0.02    +0.051 C 
DOCKED: ATOM     10  C   UNL d   1      12.502   6.656 -18.347 -0.08 +0.02    +0.066 A 
DOCKED: ATOM     11  C   UNL d   1      13.693   6.085 -18.808 -0.04 -0.00    -0.021 A 
DOCKED: ATOM     12  C   UNL d   1      14.682   6.464 -17.919 -0.09 +0.00    +0.000 A 
DOCKED: ATOM     13  C   UNL d   1      14.020   7.253 -16.937 -0.08 +0.02    +0.070 A 
DOCKED: ATOM     14  C   UNL d   1      13.886   5.235 -20.059 -0.05 +0.01    +0.052 C 
DOCKED: ATOM     15  C   UNL d   1      13.960   8.613 -14.854 -0.18 +0.01    +0.066 A 
DOCKED: ATOM     16  C   UNL d   1      14.594   9.059 -13.694 -0.19 -0.00    -0.021 A 
DOCKED: ATOM     17  C   UNL d   1      13.647   9.801 -12.988 -0.19 +0.00    +0.000 A 
DOCKED: ATOM     18  C   UNL d   1      12.492   9.754 -13.781 -0.14 +0.01    +0.070 A 
DOCKED: ATOM     19  C   UNL d   1      16.014   8.694 -13.340 -0.20 +0.01    +0.052 C 
DOCKED: ATOM     20  C   UNL d   1      10.074  10.373 -14.185 -0.11 +0.02    +0.066 A 
DOCKED: ATOM     21  C   UNL d   1       8.904  11.050 -13.850 -0.10 -0.01    -0.025 A 
DOCKED: ATOM     22  C   UNL d   1       8.002  10.790 -14.857 -0.09 -0.01    -0.021 A 
DOCKED: ATOM     23  C   UNL d   1       8.650   9.947 -15.764 -0.09 +0.02    +0.066 A 
DOCKED: ATOM     24  C   UNL d   1       8.659  11.898 -12.629 -0.13 +0.02    +0.051 C 
DOCKED: ATOM     25  N   UNL d   1       9.904   8.042 -17.682 -0.07 -0.12    -0.248 N 
DOCKED: ATOM     26  N   UNL d   1      12.694   7.361 -17.203 -0.10 -0.08    -0.248 N 
DOCKED: ATOM     27  N   UNL d   1      12.678   8.967 -14.872 -0.13 -0.05    -0.248 N 
DOCKED: ATOM     28  N   UNL d   1       9.895   9.659 -15.329 -0.08 -0.09    -0.248 N 
DOCKED: ATOM     29 FE   UNL d   1      11.286   8.519 -16.257 -0.03 +0.00    +0.000 Fe
DOCKED: ATOM     30  O   UNL d   1      10.774   7.052 -16.169 -0.48 +0.00    +0.000 OA
DOCKED: ATOM     31  O   UNL d   1      11.012   7.876 -14.848 -0.93 +0.00    +0.000 OA
DOCKED: ENDROOT
DOCKED: BRANCH   6  32
DOCKED: ATOM     32  C   UNL d   1       6.553   8.027 -19.294 -0.02 +0.02    +0.052 C 
DOCKED: BRANCH  32  33
DOCKED: ATOM     33  C   UNL d   1       5.592   7.707 -18.153 -0.05 +0.05    +0.115 C 
DOCKED: BRANCH  33  34
DOCKED: ATOM     34  C   UNL d   1       5.970   6.445 -17.419 -0.11 +0.14    +0.139 C 
DOCKED: ATOM     35  O   UNL d   1       6.676   5.615 -17.970 -0.09 -0.92    -0.650 OA
DOCKED: BRANCH  34  36
DOCKED: ATOM     36  O   UNL d   1       5.522   6.195 -16.171 -0.22 -1.00    -0.776 OA
DOCKED: ATOM     37  H   UNL d   1       4.942   6.808 -15.705 +0.03 +0.12    +0.167 HD
DOCKED: ENDBRANCH  34  36
DOCKED: ENDBRANCH  33  34
DOCKED: ENDBRANCH  32  33
DOCKED: ENDBRANCH   6  32
DOCKED: BRANCH  22  38
DOCKED: ATOM     38  C   UNL d   1       6.576  11.276 -14.905 -0.07 +0.01    +0.052 C 
DOCKED: BRANCH  38  39
DOCKED: ATOM     39  C   UNL d   1       5.654  10.466 -13.998 -0.01 +0.03    +0.115 C 
DOCKED: BRANCH  39  40
DOCKED: ATOM     40  C   UNL d   1       4.475   9.889 -14.741 -0.02 +0.03    +0.139 C 
DOCKED: ATOM     41  O   UNL d   1       3.350  10.299 -14.505 -0.00 -0.09    -0.650 OA
DOCKED: BRANCH  40  42
DOCKED: ATOM     42  O   UNL d   1       4.645   8.961 -15.703 +0.01 -0.24    -0.776 OA
DOCKED: ATOM     43  H   UNL d   1       5.284   8.245 -15.606 +0.02 +0.08    +0.167 HD
DOCKED: ENDBRANCH  40  42
DOCKED: ENDBRANCH  39  40
DOCKED: ENDBRANCH  38  39
DOCKED: ENDBRANCH  22  38
DOCKED: BRANCH  12  44
DOCKED: ATOM     44  C   UNL d   1      16.125   6.040 -18.092 -0.09 +0.00    +0.004 C 
DOCKED: ATOM     45  C   UNL d   1      16.935   5.500 -17.182 -0.10 +0.00    +0.012 C 
DOCKED: ENDBRANCH  12  44
DOCKED: BRANCH  17  46
DOCKED: ATOM     46  C   UNL d   1      13.723  10.478 -11.645 -0.26 +0.00    +0.004 C 
DOCKED: ATOM     47  C   UNL d   1      13.104  10.136 -10.508 -0.17 +0.00    +0.012 C 
DOCKED: ENDBRANCH  17  46
DOCKED: TORSDOF 10
DOCKED: TER
DOCKED: ENDMDL
________________________________________________________________________________


	BEGINNING GENETIC ALGORITHM DOCKING 9 of 100
Run: 9 Seed: 180373759 233448522 [ Run 9 of 100 GA/GALS ]
Beginning LAMARCKIAN GENETIC ALGORITHM (LGA), with a maximum of 25000000 energy evaluations.

Final-Value: -20.067


	FINAL GENETIC ALGORITHM DOCKED STATE
	_______________________________________________


Detailed state:  trans -4.745 -8.537 -3.313 quatxyzw -0.130140 -0.424779 -0.715568 0.539063 center 8.287 34.468 -0.670 ntor 10 71.8827 -132.3470 19.5804 -22.3652 169.9778 -163.0532 -9.0790 56.3988 -138.8306 166.7087
State:	 -4.745  -8.537  -3.313  -0.155 -0.504 -0.850 114.760     71.88 -132.35   19.58  -22.37  169.98 -163.05   -9.08   56.40 -138.83  166.71

DOCKED: MODEL        9
DOCKED: USER    Run = 9
DOCKED: USER    DPF = D:/Protein_go_brrr/autodock/final/AncA/heme_O2/dock.dpf
DOCKED: USER  
DOCKED: USER    Estimated Free Energy of Binding    =  -15.10 kcal/mol  [=(1)+(2)+(3)-(4)]
DOCKED: USER    Estimated Inhibition Constant, Ki   =    8.53 pM (picomolar)  [Temperature = 298.15 K]
DOCKED: USER    
DOCKED: USER    (1) Final Intermolecular Energy     =  -18.08 kcal/mol
DOCKED: USER        vdW + Hbond + desolv Energy     =  -14.25 kcal/mol
DOCKED: USER        Electrostatic Energy            =   -3.83 kcal/mol
DOCKED: USER    (2) Final Total Internal Energy     =   -1.98 kcal/mol
DOCKED: USER    (3) Torsional Free Energy           =   +2.98 kcal/mol
DOCKED: USER    (4) Unbound System's Energy  [=(2)] =   -1.98 kcal/mol
DOCKED: USER    
DOCKED: USER    
DOCKED: USER    NEWDPF move heme_O2_opt.pdbqt
DOCKED: USER    NEWDPF about 8.287000 34.468000 -0.670000
DOCKED: USER    NEWDPF tran0 -4.744925 -8.537367 -3.312628
DOCKED: USER    NEWDPF quaternion0 -0.130140 -0.424779 -0.715568 0.539063
DOCKED: USER    NEWDPF axisangle0 -0.154512 -0.504329 -0.849575 114.760273
DOCKED: USER    NEWDPF quat0 -0.154512 -0.504329 -0.849575 114.760273
DOCKED: USER    NEWDPF dihe0 71.88 -132.35 19.58 -22.37 169.98 -163.05 -9.08 56.40 -138.83 166.71 
DOCKED: USER  keepresnum = 1 
DOCKED: USER  
DOCKED: REMARK  10 active torsions:
DOCKED: REMARK  status: ('A' for Active; 'I' for Inactive)
DOCKED: REMARK    1  A    between atoms: C_6  and  C_10 
DOCKED: REMARK    2  A    between atoms: C_10  and  C_11 
DOCKED: REMARK    3  A    between atoms: C_11  and  C_12 
DOCKED: REMARK    4  A    between atoms: C_12  and  O_14 
DOCKED: REMARK    5  A    between atoms: C_17  and  C_20 
DOCKED: REMARK    6  A    between atoms: C_24  and  C_27 
DOCKED: REMARK    7  A    between atoms: C_31  and  C_34 
DOCKED: REMARK    8  A    between atoms: C_34  and  C_35 
DOCKED: REMARK    9  A    between atoms: C_35  and  C_36 
DOCKED: REMARK   10  A    between atoms: C_36  and  O_38 
DOCKED: USER                              x       y       z     vdW  Elec       q    Type
DOCKED: USER                           _______ _______ _______ _____ _____    ______ ____
DOCKED: ROOT
DOCKED: ATOM      1  C   UNL d   1      -4.938 -10.596  -2.838 -0.33 +0.05    +0.064 A 
DOCKED: ATOM      2  C   UNL d   1      -1.200  -7.668  -2.954 -0.32 +0.02    +0.064 A 
DOCKED: ATOM      3  C   UNL d   1      -3.985  -4.020  -4.382 -0.33 +0.01    +0.064 C 
DOCKED: ATOM      4  C   UNL d   1      -7.914  -6.901  -3.805 -0.41 +0.02    +0.064 A 
DOCKED: ATOM      5  C   UNL d   1      -3.695 -10.097  -2.752 -0.32 +0.04    +0.066 A 
DOCKED: ATOM      6  C   UNL d   1      -2.573 -10.848  -2.389 -0.32 -0.02    -0.021 A 
DOCKED: ATOM      7  C   UNL d   1      -1.497  -9.991  -2.380 -0.30 -0.01    -0.025 A 
DOCKED: ATOM      8  C   UNL d   1      -1.983  -8.751  -2.785 -0.35 +0.02    +0.066 A 
DOCKED: ATOM      9  C   UNL d   1      -0.092 -10.371  -1.968 -0.28 +0.02    +0.051 C 
DOCKED: ATOM     10  C   UNL d   1      -1.648  -6.347  -3.399 -0.44 +0.01    +0.066 A 
DOCKED: ATOM     11  C   UNL d   1      -0.771  -5.304  -3.716 -0.47 -0.00    -0.021 A 
DOCKED: ATOM     12  C   UNL d   1      -1.554  -4.249  -4.146 -0.35 +0.00    +0.000 A 
DOCKED: ATOM     13  C   UNL d   1      -2.895  -4.715  -4.054 -0.38 +0.01    +0.070 A 
DOCKED: ATOM     14  C   UNL d   1       0.751  -5.322  -3.637 -0.52 +0.01    +0.052 C 
DOCKED: ATOM     15  C   UNL d   1      -5.360  -4.443  -4.270 -0.36 +0.01    +0.066 A 
DOCKED: ATOM     16  C   UNL d   1      -6.461  -3.612  -4.473 -0.47 -0.00    -0.021 A 
DOCKED: ATOM     17  C   UNL d   1      -7.593  -4.412  -4.313 -0.49 +0.00    +0.000 A 
DOCKED: ATOM     18  C   UNL d   1      -7.090  -5.688  -4.022 -0.41 +0.02    +0.070 A 
DOCKED: ATOM     19  C   UNL d   1      -6.338  -2.134  -4.744 -0.55 +0.00    +0.052 C 
DOCKED: ATOM     20  C   UNL d   1      -7.466  -8.130  -3.482 -0.37 +0.02    +0.066 A 
DOCKED: ATOM     21  C   UNL d   1      -8.289  -9.239  -3.307 -0.40 -0.01    -0.025 A 
DOCKED: ATOM     22  C   UNL d   1      -7.456 -10.307  -3.058 +0.23 -0.01    -0.021 A 
DOCKED: ATOM     23  C   UNL d   1      -6.152  -9.804  -3.072 -0.04 +0.04    +0.066 A 
DOCKED: ATOM     24  C   UNL d   1      -9.794  -9.277  -3.371 -0.52 +0.01    +0.051 C 
DOCKED: ATOM     25  N   UNL d   1      -3.348  -8.801  -2.950 -0.18 -0.10    -0.248 N 
DOCKED: ATOM     26  N   UNL d   1      -2.943  -5.991  -3.594 -0.26 -0.05    -0.248 N 
DOCKED: ATOM     27  N   UNL d   1      -5.736  -5.672  -3.926 -0.25 -0.07    -0.248 N 
DOCKED: ATOM     28  N   UNL d   1      -6.165  -8.472  -3.286 -0.16 -0.13    -0.248 N 
DOCKED: ATOM     29 FE   UNL d   1      -4.568  -7.238  -3.439 -0.09 +0.00    +0.000 Fe
DOCKED: ATOM     30  O   UNL d   1      -3.958  -7.136  -2.011 -0.40 +0.00    +0.000 OA
DOCKED: ATOM     31  O   UNL d   1      -5.456  -6.714  -2.252 -0.77 +0.00    +0.000 OA
DOCKED: ENDROOT
DOCKED: BRANCH   6  32
DOCKED: ATOM     32  C   UNL d   1      -2.532 -12.284  -1.933 -0.30 +0.06    +0.052 C 
DOCKED: BRANCH  32  33
DOCKED: ATOM     33  C   UNL d   1      -3.446 -12.553  -0.741 -0.00 +0.16    +0.115 C 
DOCKED: BRANCH  33  34
DOCKED: ATOM     34  C   UNL d   1      -3.609 -14.027  -0.464 -0.10 +0.25    +0.139 C 
DOCKED: ATOM     35  O   UNL d   1      -2.796 -14.819  -0.912 -0.03 -1.11    -0.650 OA
DOCKED: BRANCH  34  36
DOCKED: ATOM     36  O   UNL d   1      -4.654 -14.497   0.249 -0.30 -1.90    -0.776 OA
DOCKED: ATOM     37  H   UNL d   1      -5.549 -14.518  -0.109 +0.03 +0.37    +0.167 HD
DOCKED: ENDBRANCH  34  36
DOCKED: ENDBRANCH  33  34
DOCKED: ENDBRANCH  32  33
DOCKED: ENDBRANCH   6  32
DOCKED: BRANCH  22  38
DOCKED: ATOM     38  C   UNL d   1      -7.900 -11.716  -2.760 +0.03 +0.04    +0.052 C 
DOCKED: BRANCH  38  39
DOCKED: ATOM     39  C   UNL d   1      -8.071 -11.967  -1.263 -0.16 +0.08    +0.115 C 
DOCKED: BRANCH  39  40
DOCKED: ATOM     40  C   UNL d   1      -7.257 -13.142  -0.780 -0.21 +0.16    +0.139 C 
DOCKED: ATOM     41  O   UNL d   1      -6.842 -13.963  -1.582 -0.20 -1.08    -0.650 OA
DOCKED: BRANCH  40  42
DOCKED: ATOM     42  O   UNL d   1      -6.934 -13.276   0.521 -0.05 -1.13    -0.776 OA
DOCKED: ATOM     43  H   UNL d   1      -6.026 -13.443   0.801 +0.04 +0.36    +0.167 HD
DOCKED: ENDBRANCH  40  42
DOCKED: ENDBRANCH  39  40
DOCKED: ENDBRANCH  38  39
DOCKED: ENDBRANCH  22  38
DOCKED: BRANCH  12  44
DOCKED: ATOM     44  C   UNL d   1      -0.955  -2.931  -4.589 -0.48 +0.00    +0.004 C 
DOCKED: ATOM     45  C   UNL d   1      -1.576  -1.764  -4.757 -0.63 +0.00    +0.012 C 
DOCKED: ENDBRANCH  12  44
DOCKED: BRANCH  17  46
DOCKED: ATOM     46  C   UNL d   1      -9.059  -4.069  -4.352 -0.62 +0.00    +0.004 C 
DOCKED: ATOM     47  C   UNL d   1      -9.647  -2.910  -4.033 -0.69 +0.00    +0.012 C 
DOCKED: ENDBRANCH  17  46
DOCKED: TORSDOF 10
DOCKED: TER
DOCKED: ENDMDL
________________________________________________________________________________


	BEGINNING GENETIC ALGORITHM DOCKING 10 of 100
Run: 10 Seed: 952687100 1076827051 [ Run 10 of 100 GA/GALS ]
Beginning LAMARCKIAN GENETIC ALGORITHM (LGA), with a maximum of 25000000 energy evaluations.

Final-Value: -11.674


	FINAL GENETIC ALGORITHM DOCKED STATE
	_______________________________________________


Detailed state:  trans -5.568 -14.127 -1.311 quatxyzw -0.050713 -0.441454 -0.706353 0.551010 center 8.287 34.468 -0.670 ntor 10 -118.3910 31.2797 58.7559 42.8107 180.0000 127.6564 -84.7190 171.7263 -179.6420 6.4884
State:	 -5.568 -14.127  -1.311  -0.061 -0.529 -0.846 113.127   -118.39   31.28   58.76   42.81  180.00  127.66  -84.72  171.73 -179.64    6.49

DOCKED: MODEL       10
DOCKED: USER    Run = 10
DOCKED: USER    DPF = D:/Protein_go_brrr/autodock/final/AncA/heme_O2/dock.dpf
DOCKED: USER  
DOCKED: USER    Estimated Free Energy of Binding    =   -7.98 kcal/mol  [=(1)+(2)+(3)-(4)]
DOCKED: USER    Estimated Inhibition Constant, Ki   =    1.41 uM (micromolar)  [Temperature = 298.15 K]
DOCKED: USER    
DOCKED: USER    (1) Final Intermolecular Energy     =  -10.97 kcal/mol
DOCKED: USER        vdW + Hbond + desolv Energy     =   -7.83 kcal/mol
DOCKED: USER        Electrostatic Energy            =   -3.14 kcal/mol
DOCKED: USER    (2) Final Total Internal Energy     =   -0.71 kcal/mol
DOCKED: USER    (3) Torsional Free Energy           =   +2.98 kcal/mol
DOCKED: USER    (4) Unbound System's Energy  [=(2)] =   -0.71 kcal/mol
DOCKED: USER    
DOCKED: USER    
DOCKED: USER    NEWDPF move heme_O2_opt.pdbqt
DOCKED: USER    NEWDPF about 8.287000 34.468000 -0.670000
DOCKED: USER    NEWDPF tran0 -5.568152 -14.127137 -1.310761
DOCKED: USER    NEWDPF quaternion0 -0.050713 -0.441454 -0.706353 0.551010
DOCKED: USER    NEWDPF axisangle0 -0.060771 -0.529005 -0.846440 113.127338
DOCKED: USER    NEWDPF quat0 -0.060771 -0.529005 -0.846440 113.127338
DOCKED: USER    NEWDPF dihe0 -118.39 31.28 58.76 42.81 180.00 127.66 -84.72 171.73 -179.64 6.49 
DOCKED: USER  keepresnum = 1 
DOCKED: USER  
DOCKED: REMARK  10 active torsions:
DOCKED: REMARK  status: ('A' for Active; 'I' for Inactive)
DOCKED: REMARK    1  A    between atoms: C_6  and  C_10 
DOCKED: REMARK    2  A    between atoms: C_10  and  C_11 
DOCKED: REMARK    3  A    between atoms: C_11  and  C_12 
DOCKED: REMARK    4  A    between atoms: C_12  and  O_14 
DOCKED: REMARK    5  A    between atoms: C_17  and  C_20 
DOCKED: REMARK    6  A    between atoms: C_24  and  C_27 
DOCKED: REMARK    7  A    between atoms: C_31  and  C_34 
DOCKED: REMARK    8  A    between atoms: C_34  and  C_35 
DOCKED: REMARK    9  A    between atoms: C_35  and  C_36 
DOCKED: REMARK   10  A    between atoms: C_36  and  O_38 
DOCKED: USER                              x       y       z     vdW  Elec       q    Type
DOCKED: USER                           _______ _______ _______ _____ _____    ______ ____
DOCKED: ROOT
DOCKED: ATOM      1  C   UNL d   1      -5.731 -16.123  -0.610 -0.03 +0.11    +0.064 A 
DOCKED: ATOM      2  C   UNL d   1      -2.117 -13.042  -0.707 -0.13 +0.07    +0.064 A 
DOCKED: ATOM      3  C   UNL d   1      -4.873  -9.735  -2.843 -0.31 +0.04    +0.064 C 
DOCKED: ATOM      4  C   UNL d   1      -8.727 -12.723  -2.315 -0.16 +0.04    +0.064 A 
DOCKED: ATOM      5  C   UNL d   1      -4.524 -15.554  -0.461 -0.13 +0.13    +0.066 A 
DOCKED: ATOM      6  C   UNL d   1      -3.419 -16.199   0.102 -0.12 -0.03    -0.021 A 
DOCKED: ATOM      7  C   UNL d   1      -2.384 -15.294   0.114 -0.11 -0.03    -0.025 A 
DOCKED: ATOM      8  C   UNL d   1      -2.871 -14.136  -0.486 -0.13 +0.10    +0.066 A 
DOCKED: ATOM      9  C   UNL d   1      -1.016 -15.551   0.708 -0.11 +0.04    +0.051 C 
DOCKED: ATOM     10  C   UNL d   1      -2.566 -11.808  -1.353 -0.27 +0.06    +0.066 A 
DOCKED: ATOM     11  C   UNL d   1      -1.701 -10.766  -1.705 -0.35 -0.01    -0.021 A 
DOCKED: ATOM     12  C   UNL d   1      -2.474  -9.810  -2.338 -0.40 +0.00    +0.000 A 
DOCKED: ATOM     13  C   UNL d   1      -3.799 -10.330  -2.325 -0.34 +0.05    +0.070 A 
DOCKED: ATOM     14  C   UNL d   1      -0.197 -10.696  -1.472 -0.35 +0.02    +0.052 C 
DOCKED: ATOM     15  C   UNL d   1      -6.235 -10.211  -2.818 +0.04 +0.04    +0.066 A 
DOCKED: ATOM     16  C   UNL d   1      -7.340  -9.467  -3.231 -0.17 -0.01    -0.021 A 
DOCKED: ATOM     17  C   UNL d   1      -8.451 -10.298  -3.089 -0.17 +0.00    +0.000 A 
DOCKED: ATOM     18  C   UNL d   1      -7.933 -11.504  -2.596 -0.22 +0.05    +0.070 A 
DOCKED: ATOM     19  C   UNL d   1      -7.245  -8.026  -3.667 -0.34 +0.02    +0.052 C 
DOCKED: ATOM     20  C   UNL d   1      -8.270 -13.881  -1.801 -0.15 +0.06    +0.066 A 
DOCKED: ATOM     21  C   UNL d   1      -9.063 -15.003  -1.575 -0.09 -0.02    -0.025 A 
DOCKED: ATOM     22  C   UNL d   1      -8.221 -15.990  -1.115 -0.06 -0.02    -0.021 A 
DOCKED: ATOM     23  C   UNL d   1      -6.943 -15.427  -1.060 -0.09 +0.10    +0.066 A 
DOCKED: ATOM     24  C   UNL d   1     -10.550 -15.125  -1.785 -0.12 +0.02    +0.051 C 
DOCKED: ATOM     25  N   UNL d   1      -4.208 -14.275  -0.780 +0.05 -0.56    -0.248 N 
DOCKED: ATOM     26  N   UNL d   1      -3.846 -11.543  -1.719 -0.20 -0.27    -0.248 N 
DOCKED: ATOM     27  N   UNL d   1      -6.598 -11.408  -2.367 -0.16 -0.21    -0.248 N 
DOCKED: ATOM     28  N   UNL d   1      -6.985 -14.131  -1.435 -0.09 -0.39    -0.248 N 
DOCKED: ATOM     29 FE   UNL d   1      -5.429 -12.845  -1.577 -0.06 +0.00    +0.000 Fe
DOCKED: ATOM     30  O   UNL d   1      -4.978 -12.545  -0.118 -0.17 +0.00    +0.000 OA
DOCKED: ATOM     31  O   UNL d   1      -6.457 -12.230  -0.558 -0.32 +0.00    +0.000 OA
DOCKED: ENDROOT
DOCKED: BRANCH   6  32
DOCKED: ATOM     32  C   UNL d   1      -3.371 -17.567   0.732 -0.07 +0.06    +0.052 C 
DOCKED: BRANCH  32  33
DOCKED: ATOM     33  C   UNL d   1      -3.526 -17.527   2.249 -0.02 +0.14    +0.115 C 
DOCKED: BRANCH  33  34
DOCKED: ATOM     34  C   UNL d   1      -4.959 -17.697   2.687 +0.11 +0.19    +0.139 C 
DOCKED: ATOM     35  O   UNL d   1      -5.728 -18.346   1.995 -0.00 -0.60    -0.650 OA
DOCKED: BRANCH  34  36
DOCKED: ATOM     36  O   UNL d   1      -5.423 -17.124   3.816 -0.48 -1.40    -0.776 OA
DOCKED: ATOM     37  H   UNL d   1      -5.763 -17.646   4.552 +0.01 +0.17    +0.167 HD
DOCKED: ENDBRANCH  34  36
DOCKED: ENDBRANCH  33  34
DOCKED: ENDBRANCH  32  33
DOCKED: ENDBRANCH   6  32
DOCKED: BRANCH  22  38
DOCKED: ATOM     38  C   UNL d   1      -8.640 -17.374  -0.693 -0.01 +0.03    +0.052 C 
DOCKED: BRANCH  38  39
DOCKED: ATOM     39  C   UNL d   1      -8.197 -18.445  -1.688 -0.01 +0.07    +0.115 C 
DOCKED: BRANCH  39  40
DOCKED: ATOM     40  C   UNL d   1      -7.650 -17.855  -2.964 -0.06 +0.12    +0.139 C 
DOCKED: ATOM     41  O   UNL d   1      -8.408 -17.589  -3.883 +0.02 -0.49    -0.650 OA
DOCKED: BRANCH  40  42
DOCKED: ATOM     42  O   UNL d   1      -6.341 -17.566  -3.091 -0.02 -1.06    -0.776 OA
DOCKED: ATOM     43  H   UNL d   1      -5.662 -18.105  -2.667 +0.02 +0.20    +0.167 HD
DOCKED: ENDBRANCH  40  42
DOCKED: ENDBRANCH  39  40
DOCKED: ENDBRANCH  38  39
DOCKED: ENDBRANCH  22  38
DOCKED: BRANCH  12  44
DOCKED: ATOM     44  C   UNL d   1      -1.882  -8.524  -2.876 -0.46 +0.00    +0.004 C 
DOCKED: ATOM     45  C   UNL d   1      -2.260  -7.274  -2.611 -0.52 +0.00    +0.012 C 
DOCKED: ENDBRANCH  12  44
DOCKED: BRANCH  17  46
DOCKED: ATOM     46  C   UNL d   1      -9.916 -10.038  -3.317 -0.49 +0.00    +0.004 C 
DOCKED: ATOM     47  C   UNL d   1     -10.485  -9.277  -4.261 -0.57 +0.00    +0.012 C 
DOCKED: ENDBRANCH  17  46
DOCKED: TORSDOF 10
DOCKED: TER
DOCKED: ENDMDL
________________________________________________________________________________


	BEGINNING GENETIC ALGORITHM DOCKING 11 of 100
Run: 11 Seed: 2120321422 533320231 [ Run 11 of 100 GA/GALS ]
Beginning LAMARCKIAN GENETIC ALGORITHM (LGA), with a maximum of 25000000 energy evaluations.

Final-Value: -13.473


	FINAL GENETIC ALGORITHM DOCKED STATE
	_______________________________________________


Detailed state:  trans -11.427 -13.798 -0.955 quatxyzw -0.490650 -0.656593 0.556258 0.136838 center 8.287 34.468 -0.670 ntor 10 120.1926 130.5952 -60.6136 178.9653 -179.2386 -63.8875 -77.8174 104.7694 -170.8499 -171.7821
State:	-11.427 -13.798  -0.955  -0.495 -0.663  0.562 164.270    120.19  130.60  -60.61  178.97 -179.24  -63.89  -77.82  104.77 -170.85 -171.78

DOCKED: MODEL       11
DOCKED: USER    Run = 11
DOCKED: USER    DPF = D:/Protein_go_brrr/autodock/final/AncA/heme_O2/dock.dpf
DOCKED: USER  
DOCKED: USER    Estimated Free Energy of Binding    =   -8.09 kcal/mol  [=(1)+(2)+(3)-(4)]
DOCKED: USER    Estimated Inhibition Constant, Ki   =    1.17 uM (micromolar)  [Temperature = 298.15 K]
DOCKED: USER    
DOCKED: USER    (1) Final Intermolecular Energy     =  -11.08 kcal/mol
DOCKED: USER        vdW + Hbond + desolv Energy     =   -7.31 kcal/mol
DOCKED: USER        Electrostatic Energy            =   -3.77 kcal/mol
DOCKED: USER    (2) Final Total Internal Energy     =   -2.40 kcal/mol
DOCKED: USER    (3) Torsional Free Energy           =   +2.98 kcal/mol
DOCKED: USER    (4) Unbound System's Energy  [=(2)] =   -2.40 kcal/mol
DOCKED: USER    
DOCKED: USER    
DOCKED: USER    NEWDPF move heme_O2_opt.pdbqt
DOCKED: USER    NEWDPF about 8.287000 34.468000 -0.670000
DOCKED: USER    NEWDPF tran0 -11.427210 -13.797548 -0.955027
DOCKED: USER    NEWDPF quaternion0 -0.490650 -0.656593 0.556258 0.136838
DOCKED: USER    NEWDPF axisangle0 -0.495310 -0.662828 0.561540 164.270112
DOCKED: USER    NEWDPF quat0 -0.495310 -0.662828 0.561540 164.270112
DOCKED: USER    NEWDPF dihe0 120.19 130.60 -60.61 178.97 -179.24 -63.89 -77.82 104.77 -170.85 -171.78 
DOCKED: USER  keepresnum = 1 
DOCKED: USER  
DOCKED: REMARK  10 active torsions:
DOCKED: REMARK  status: ('A' for Active; 'I' for Inactive)
DOCKED: REMARK    1  A    between atoms: C_6  and  C_10 
DOCKED: REMARK    2  A    between atoms: C_10  and  C_11 
DOCKED: REMARK    3  A    between atoms: C_11  and  C_12 
DOCKED: REMARK    4  A    between atoms: C_12  and  O_14 
DOCKED: REMARK    5  A    between atoms: C_17  and  C_20 
DOCKED: REMARK    6  A    between atoms: C_24  and  C_27 
DOCKED: REMARK    7  A    between atoms: C_31  and  C_34 
DOCKED: REMARK    8  A    between atoms: C_34  and  C_35 
DOCKED: REMARK    9  A    between atoms: C_35  and  C_36 
DOCKED: REMARK   10  A    between atoms: C_36  and  O_38 
DOCKED: USER                              x       y       z     vdW  Elec       q    Type
DOCKED: USER                           _______ _______ _______ _____ _____    ______ ____
DOCKED: ROOT
DOCKED: ATOM      1  C   UNL d   1      -9.755 -14.086   0.318 -0.14 +0.04    +0.064 A 
DOCKED: ATOM      2  C   UNL d   1     -13.850 -16.440  -0.183 -0.12 +0.01    +0.064 A 
DOCKED: ATOM      3  C   UNL d   1     -15.305 -13.372  -3.584 -0.19 +0.01    +0.064 C 
DOCKED: ATOM      4  C   UNL d   1     -10.897 -11.224  -3.416 -0.29 +0.01    +0.064 A 
DOCKED: ATOM      5  C   UNL d   1     -10.749 -14.978   0.458 -0.11 +0.03    +0.066 A 
DOCKED: ATOM      6  C   UNL d   1     -10.731 -16.033   1.374 -0.08 -0.01    -0.021 A 
DOCKED: ATOM      7  C   UNL d   1     -11.897 -16.741   1.200 -0.07 -0.01    -0.025 A 
DOCKED: ATOM      8  C   UNL d   1     -12.618 -16.070   0.215 -0.08 +0.02    +0.066 A 
DOCKED: ATOM      9  C   UNL d   1     -12.257 -18.012   1.938 -0.03 +0.01    +0.051 C 
DOCKED: ATOM     10  C   UNL d   1     -14.663 -15.763  -1.194 -0.14 +0.01    +0.066 A 
DOCKED: ATOM     11  C   UNL d   1     -15.999 -16.091  -1.453 -0.11 -0.00    -0.021 A 
DOCKED: ATOM     12  C   UNL d   1     -16.442 -15.205  -2.418 -0.13 +0.00    +0.000 A 
DOCKED: ATOM     13  C   UNL d   1     -15.322 -14.377  -2.709 -0.15 +0.01    +0.070 A 
DOCKED: ATOM     14  C   UNL d   1     -16.826 -17.184  -0.787 -0.07 +0.01    +0.052 C 
DOCKED: ATOM     15  C   UNL d   1     -14.183 -12.533  -3.932 -0.20 +0.00    +0.066 A 
DOCKED: ATOM     16  C   UNL d   1     -14.183 -11.606  -4.974 -0.27 -0.00    -0.021 A 
DOCKED: ATOM     17  C   UNL d   1     -12.936 -10.982  -4.946 -0.37 +0.00    +0.000 A 
DOCKED: ATOM     18  C   UNL d   1     -12.261 -11.582  -3.874 -0.27 +0.01    +0.070 A 
DOCKED: ATOM     19  C   UNL d   1     -15.340 -11.439  -5.927 -0.21 +0.00    +0.052 C 
DOCKED: ATOM     20  C   UNL d   1     -10.204 -11.808  -2.420 -0.27 +0.02    +0.066 A 
DOCKED: ATOM     21  C   UNL d   1      -8.929 -11.416  -2.022 -0.30 -0.01    -0.025 A 
DOCKED: ATOM     22  C   UNL d   1      -8.598 -12.202  -0.941 -0.26 -0.01    -0.021 A 
DOCKED: ATOM     23  C   UNL d   1      -9.681 -13.062  -0.730 -0.20 +0.04    +0.066 A 
DOCKED: ATOM     24  C   UNL d   1      -8.068 -10.347  -2.643 -0.23 +0.02    +0.051 C 
DOCKED: ATOM     25  N   UNL d   1     -11.881 -15.023  -0.287 -0.08 -0.07    -0.248 N 
DOCKED: ATOM     26  N   UNL d   1     -14.243 -14.727  -1.963 -0.11 -0.03    -0.248 N 
DOCKED: ATOM     27  N   UNL d   1     -13.004 -12.572  -3.318 -0.13 -0.02    -0.248 N 
DOCKED: ATOM     28  N   UNL d   1     -10.636 -12.849  -1.659 -0.05 -0.10    -0.248 N 
DOCKED: ATOM     29 FE   UNL d   1     -12.427 -13.779  -1.812 -0.06 +0.00    +0.000 Fe
DOCKED: ATOM     30  O   UNL d   1     -12.123 -15.236  -2.268 -0.15 +0.00    +0.000 OA
DOCKED: ATOM     31  O   UNL d   1     -11.651 -14.025  -3.158 -0.21 +0.00    +0.000 OA
DOCKED: ENDROOT
DOCKED: BRANCH   6  32
DOCKED: ATOM     32  C   UNL d   1      -9.604 -16.446   2.284 -0.03 +0.03    +0.052 C 
DOCKED: BRANCH  32  33
DOCKED: ATOM     33  C   UNL d   1      -8.624 -17.407   1.617 -0.01 +0.08    +0.115 C 
DOCKED: BRANCH  33  34
DOCKED: ATOM     34  C   UNL d   1      -7.379 -16.710   1.127 -0.04 +0.16    +0.139 C 
DOCKED: ATOM     35  O   UNL d   1      -6.974 -15.717   1.710 +0.05 -1.26    -0.650 OA
DOCKED: BRANCH  34  36
DOCKED: ATOM     36  O   UNL d   1      -6.712 -17.145   0.038 +0.02 -0.85    -0.776 OA
DOCKED: ATOM     37  H   UNL d   1      -6.578 -16.586  -0.736 +0.02 +0.22    +0.167 HD
DOCKED: ENDBRANCH  34  36
DOCKED: ENDBRANCH  33  34
DOCKED: ENDBRANCH  32  33
DOCKED: ENDBRANCH   6  32
DOCKED: BRANCH  22  38
DOCKED: ATOM     38  C   UNL d   1      -7.288 -12.169  -0.199 -0.02 +0.05    +0.052 C 
DOCKED: BRANCH  38  39
DOCKED: ATOM     39  C   UNL d   1      -6.133 -12.723  -1.031 -0.25 +0.16    +0.115 C 
DOCKED: BRANCH  39  40
DOCKED: ATOM     40  C   UNL d   1      -6.148 -14.229  -1.106 +0.04 +0.28    +0.139 C 
DOCKED: ATOM     41  O   UNL d   1      -6.890 -14.789  -1.898 -0.47 -1.26    -0.650 OA
DOCKED: BRANCH  40  42
DOCKED: ATOM     42  O   UNL d   1      -5.317 -14.972  -0.350 -0.47 -1.71    -0.776 OA
DOCKED: ATOM     43  H   UNL d   1      -5.633 -15.739   0.143 +0.02 +0.34    +0.167 HD
DOCKED: ENDBRANCH  40  42
DOCKED: ENDBRANCH  39  40
DOCKED: ENDBRANCH  38  39
DOCKED: ENDBRANCH  22  38
DOCKED: BRANCH  12  44
DOCKED: ATOM     44  C   UNL d   1     -17.857 -15.242  -2.954 -0.08 +0.00    +0.004 C 
DOCKED: ATOM     45  C   UNL d   1     -18.805 -14.314  -2.830 -0.11 +0.00    +0.012 C 
DOCKED: ENDBRANCH  12  44
DOCKED: BRANCH  17  46
DOCKED: ATOM     46  C   UNL d   1     -12.330  -9.944  -5.852 -0.51 +0.00    +0.004 C 
DOCKED: ATOM     47  C   UNL d   1     -11.179  -9.278  -5.696 -0.42 +0.00    +0.012 C 
DOCKED: ENDBRANCH  17  46
DOCKED: TORSDOF 10
DOCKED: TER
DOCKED: ENDMDL
________________________________________________________________________________


	BEGINNING GENETIC ALGORITHM DOCKING 12 of 100
Run: 12 Seed: 100863578 1099054602 [ Run 12 of 100 GA/GALS ]
Beginning LAMARCKIAN GENETIC ALGORITHM (LGA), with a maximum of 25000000 energy evaluations.

Final-Value: -12.207


	FINAL GENETIC ALGORITHM DOCKED STATE
	_______________________________________________


Detailed state:  trans -0.158 -15.746 -1.856 quatxyzw -0.408879 -0.045629 0.386002 -0.825675 center 8.287 34.468 -0.670 ntor 10 36.4365 -41.1309 -25.8136 126.4076 47.8198 158.9941 -135.8312 4.8985 162.7982 -167.8726
State:	 -0.158 -15.746  -1.856  -0.725 -0.081  0.684 -68.686     36.44  -41.13  -25.81  126.41   47.82  158.99 -135.83    4.90  162.80 -167.87

DOCKED: MODEL       12
DOCKED: USER    Run = 12
DOCKED: USER    DPF = D:/Protein_go_brrr/autodock/final/AncA/heme_O2/dock.dpf
DOCKED: USER  
DOCKED: USER    Estimated Free Energy of Binding    =   -8.63 kcal/mol  [=(1)+(2)+(3)-(4)]
DOCKED: USER    Estimated Inhibition Constant, Ki   =  469.66 nM (nanomolar)  [Temperature = 298.15 K]
DOCKED: USER    
DOCKED: USER    (1) Final Intermolecular Energy     =  -11.62 kcal/mol
DOCKED: USER        vdW + Hbond + desolv Energy     =   -6.71 kcal/mol
DOCKED: USER        Electrostatic Energy            =   -4.90 kcal/mol
DOCKED: USER    (2) Final Total Internal Energy     =   -0.59 kcal/mol
DOCKED: USER    (3) Torsional Free Energy           =   +2.98 kcal/mol
DOCKED: USER    (4) Unbound System's Energy  [=(2)] =   -0.59 kcal/mol
DOCKED: USER    
DOCKED: USER    
DOCKED: USER    NEWDPF move heme_O2_opt.pdbqt
DOCKED: USER    NEWDPF about 8.287000 34.468000 -0.670000
DOCKED: USER    NEWDPF tran0 -0.157946 -15.746291 -1.856042
DOCKED: USER    NEWDPF quaternion0 -0.408879 -0.045629 0.386002 -0.825675
DOCKED: USER    NEWDPF axisangle0 -0.724775 -0.080882 0.684222 -68.686128
DOCKED: USER    NEWDPF quat0 -0.724775 -0.080882 0.684222 -68.686128
DOCKED: USER    NEWDPF dihe0 36.44 -41.13 -25.81 126.41 47.82 158.99 -135.83 4.90 162.80 -167.87 
DOCKED: USER  keepresnum = 1 
DOCKED: USER  
DOCKED: REMARK  10 active torsions:
DOCKED: REMARK  status: ('A' for Active; 'I' for Inactive)
DOCKED: REMARK    1  A    between atoms: C_6  and  C_10 
DOCKED: REMARK    2  A    between atoms: C_10  and  C_11 
DOCKED: REMARK    3  A    between atoms: C_11  and  C_12 
DOCKED: REMARK    4  A    between atoms: C_12  and  O_14 
DOCKED: REMARK    5  A    between atoms: C_17  and  C_20 
DOCKED: REMARK    6  A    between atoms: C_24  and  C_27 
DOCKED: REMARK    7  A    between atoms: C_31  and  C_34 
DOCKED: REMARK    8  A    between atoms: C_34  and  C_35 
DOCKED: REMARK    9  A    between atoms: C_35  and  C_36 
DOCKED: REMARK   10  A    between atoms: C_36  and  O_38 
DOCKED: USER                              x       y       z     vdW  Elec       q    Type
DOCKED: USER                           _______ _______ _______ _____ _____    ______ ____
DOCKED: ROOT
DOCKED: ATOM      1  C   UNL d   1      -1.511 -17.299  -2.364 -0.05 +0.06    +0.064 A 
DOCKED: ATOM      2  C   UNL d   1      -0.504 -15.136   1.744 -0.10 +0.05    +0.064 A 
DOCKED: ATOM      3  C   UNL d   1       2.795 -12.383  -0.409 -0.20 +0.02    +0.064 C 
DOCKED: ATOM      4  C   UNL d   1       1.431 -14.267  -4.728 -0.20 +0.03    +0.064 A 
DOCKED: ATOM      5  C   UNL d   1      -1.508 -16.934  -1.071 -0.04 +0.06    +0.066 A 
DOCKED: ATOM      6  C   UNL d   1      -2.316 -17.517  -0.091 -0.04 -0.02    -0.021 A 
DOCKED: ATOM      7  C   UNL d   1      -2.057 -16.862   1.090 -0.07 -0.02    -0.025 A 
DOCKED: ATOM      8  C   UNL d   1      -1.062 -15.930   0.809 -0.08 +0.06    +0.066 A 
DOCKED: ATOM      9  C   UNL d   1      -2.769 -17.124   2.399 -0.07 +0.06    +0.051 C 
DOCKED: ATOM     10  C   UNL d   1       0.557 -14.155   1.513 -0.12 +0.04    +0.066 A 
DOCKED: ATOM     11  C   UNL d   1       1.214 -13.475   2.545 -0.18 -0.01    -0.021 A 
DOCKED: ATOM     12  C   UNL d   1       2.181 -12.690   1.946 -0.22 +0.00    +0.000 A 
DOCKED: ATOM     13  C   UNL d   1       2.049 -12.932   0.550 -0.15 +0.02    +0.070 A 
DOCKED: ATOM     14  C   UNL d   1       0.948 -13.591   4.041 -0.23 +0.03    +0.052 C 
DOCKED: ATOM     15  C   UNL d   1       2.670 -12.575  -1.833 -0.14 +0.02    +0.066 A 
DOCKED: ATOM     16  C   UNL d   1       3.372 -11.847  -2.794 -0.23 -0.01    -0.021 A 
DOCKED: ATOM     17  C   UNL d   1       2.999 -12.366  -4.033 -0.25 +0.00    +0.000 A 
DOCKED: ATOM     18  C   UNL d   1       2.086 -13.386  -3.732 -0.15 +0.03    +0.070 A 
DOCKED: ATOM     19  C   UNL d   1       4.285 -10.697  -2.449 -0.28 +0.01    +0.052 C 
DOCKED: ATOM     20  C   UNL d   1       0.518 -15.226  -4.477 -0.14 +0.04    +0.066 A 
DOCKED: ATOM     21  C   UNL d   1      -0.051 -16.036  -5.456 -0.20 -0.02    -0.025 A 
DOCKED: ATOM     22  C   UNL d   1      -0.872 -16.924  -4.797 -0.12 -0.02    -0.021 A 
DOCKED: ATOM     23  C   UNL d   1      -0.786 -16.610  -3.437 -0.08 +0.06    +0.066 A 
DOCKED: ATOM     24  C   UNL d   1       0.173 -15.964  -6.944 -0.30 +0.03    +0.051 C 
DOCKED: ATOM     25  N   UNL d   1      -0.772 -15.929  -0.536 -0.03 -0.20    -0.248 N 
DOCKED: ATOM     26  N   UNL d   1       1.056 -13.821   0.296 -0.06 -0.12    -0.248 N 
DOCKED: ATOM     27  N   UNL d   1       1.842 -13.449  -2.398 -0.05 -0.10    -0.248 N 
DOCKED: ATOM     28  N   UNL d   1       0.025 -15.548  -3.252 -0.05 -0.19    -0.248 N 
DOCKED: ATOM     29 FE   UNL d   1       0.538 -14.689  -1.493 -0.02 +0.00    +0.000 Fe
DOCKED: ATOM     30  O   UNL d   1      -0.740 -13.971  -0.970 -0.17 +0.00    +0.000 OA
DOCKED: ATOM     31  O   UNL d   1      -0.146 -13.582  -2.376 -0.17 +0.00    +0.000 OA
DOCKED: ENDROOT
DOCKED: BRANCH   6  32
DOCKED: ATOM     32  C   UNL d   1      -3.391 -18.556  -0.279 -0.02 +0.04    +0.052 C 
DOCKED: BRANCH  32  33
DOCKED: ATOM     33  C   UNL d   1      -4.788 -18.025   0.025 -0.04 +0.12    +0.115 C 
DOCKED: BRANCH  33  34
DOCKED: ATOM     34  C   UNL d   1      -5.007 -16.636  -0.522 -0.09 +0.22    +0.139 C 
DOCKED: ATOM     35  O   UNL d   1      -4.973 -15.677   0.232 -0.53 -1.42    -0.650 OA
DOCKED: BRANCH  34  36
DOCKED: ATOM     36  O   UNL d   1      -5.270 -16.429  -1.829 +0.13 -1.92    -0.776 OA
DOCKED: ATOM     37  H   UNL d   1      -5.815 -17.036  -2.343 +0.01 +0.31    +0.167 HD
DOCKED: ENDBRANCH  34  36
DOCKED: ENDBRANCH  33  34
DOCKED: ENDBRANCH  32  33
DOCKED: ENDBRANCH   6  32
DOCKED: BRANCH  22  38
DOCKED: ATOM     38  C   UNL d   1      -1.737 -17.971  -5.450 -0.13 +0.05    +0.052 C 
DOCKED: BRANCH  38  39
DOCKED: ATOM     39  C   UNL d   1      -2.854 -17.360  -6.294 -0.12 +0.14    +0.115 C 
DOCKED: BRANCH  39  40
DOCKED: ATOM     40  C   UNL d   1      -3.774 -18.404  -6.875 -0.12 +0.23    +0.139 C 
DOCKED: ATOM     41  O   UNL d   1      -3.316 -19.298  -7.568 -0.19 -1.53    -0.650 OA
DOCKED: BRANCH  40  42
DOCKED: ATOM     42  O   UNL d   1      -5.093 -18.399  -6.600 -0.02 -1.30    -0.776 OA
DOCKED: ATOM     43  H   UNL d   1      -5.425 -18.174  -5.723 +0.03 +0.23    +0.167 HD
DOCKED: ENDBRANCH  40  42
DOCKED: ENDBRANCH  39  40
DOCKED: ENDBRANCH  38  39
DOCKED: ENDBRANCH  22  38
DOCKED: BRANCH  12  44
DOCKED: ATOM     44  C   UNL d   1       3.110 -11.805   2.750 -0.29 +0.00    +0.004 C 
DOCKED: ATOM     45  C   UNL d   1       4.360 -11.448   2.456 -0.22 +0.00    +0.012 C 
DOCKED: ENDBRANCH  12  44
DOCKED: BRANCH  17  46
DOCKED: ATOM     46  C   UNL d   1       3.375 -11.953  -5.431 -0.42 +0.00    +0.004 C 
DOCKED: ATOM     47  C   UNL d   1       3.996 -12.679  -6.370 -0.48 +0.00    +0.012 C 
DOCKED: ENDBRANCH  17  46
DOCKED: TORSDOF 10
DOCKED: TER
DOCKED: ENDMDL
________________________________________________________________________________


	BEGINNING GENETIC ALGORITHM DOCKING 13 of 100
Run: 13 Seed: 347019769 148567026 [ Run 13 of 100 GA/GALS ]
Beginning LAMARCKIAN GENETIC ALGORITHM (LGA), with a maximum of 25000000 energy evaluations.

Final-Value: -18.383


	FINAL GENETIC ALGORITHM DOCKED STATE
	_______________________________________________


Detailed state:  trans -4.748 -8.594 -3.175 quatxyzw 0.122245 0.427488 0.710331 -0.545655 center 8.287 34.468 -0.670 ntor 10 -78.0290 -59.8006 32.1456 -22.8628 -133.7891 4.6740 37.6974 63.1442 67.9633 148.4718
State:	 -4.748  -8.594  -3.175   0.146  0.510  0.848 -113.861    -78.03  -59.80   32.15  -22.86 -133.79    4.67   37.70   63.14   67.96  148.47

DOCKED: MODEL       13
DOCKED: USER    Run = 13
DOCKED: USER    DPF = D:/Protein_go_brrr/autodock/final/AncA/heme_O2/dock.dpf
DOCKED: USER  
DOCKED: USER    Estimated Free Energy of Binding    =  -15.29 kcal/mol  [=(1)+(2)+(3)-(4)]
DOCKED: USER    Estimated Inhibition Constant, Ki   =    6.25 pM (picomolar)  [Temperature = 298.15 K]
DOCKED: USER    
DOCKED: USER    (1) Final Intermolecular Energy     =  -18.27 kcal/mol
DOCKED: USER        vdW + Hbond + desolv Energy     =  -14.53 kcal/mol
DOCKED: USER        Electrostatic Energy            =   -3.74 kcal/mol
DOCKED: USER    (2) Final Total Internal Energy     =   -0.11 kcal/mol
DOCKED: USER    (3) Torsional Free Energy           =   +2.98 kcal/mol
DOCKED: USER    (4) Unbound System's Energy  [=(2)] =   -0.11 kcal/mol
DOCKED: USER    
DOCKED: USER    
DOCKED: USER    NEWDPF move heme_O2_opt.pdbqt
DOCKED: USER    NEWDPF about 8.287000 34.468000 -0.670000
DOCKED: USER    NEWDPF tran0 -4.748465 -8.594370 -3.174835
DOCKED: USER    NEWDPF quaternion0 0.122245 0.427488 0.710331 -0.545655
DOCKED: USER    NEWDPF axisangle0 0.145876 0.510123 0.847641 -113.861117
DOCKED: USER    NEWDPF quat0 0.145876 0.510123 0.847641 -113.861117
DOCKED: USER    NEWDPF dihe0 -78.03 -59.80 32.15 -22.86 -133.79 4.67 37.70 63.14 67.96 148.47 
DOCKED: USER  keepresnum = 1 
DOCKED: USER  
DOCKED: REMARK  10 active torsions:
DOCKED: REMARK  status: ('A' for Active; 'I' for Inactive)
DOCKED: REMARK    1  A    between atoms: C_6  and  C_10 
DOCKED: REMARK    2  A    between atoms: C_10  and  C_11 
DOCKED: REMARK    3  A    between atoms: C_11  and  C_12 
DOCKED: REMARK    4  A    between atoms: C_12  and  O_14 
DOCKED: REMARK    5  A    between atoms: C_17  and  C_20 
DOCKED: REMARK    6  A    between atoms: C_24  and  C_27 
DOCKED: REMARK    7  A    between atoms: C_31  and  C_34 
DOCKED: REMARK    8  A    between atoms: C_34  and  C_35 
DOCKED: REMARK    9  A    between atoms: C_35  and  C_36 
DOCKED: REMARK   10  A    between atoms: C_36  and  O_38 
DOCKED: USER                              x       y       z     vdW  Elec       q    Type
DOCKED: USER                           _______ _______ _______ _____ _____    ______ ____
DOCKED: ROOT
DOCKED: ATOM      1  C   UNL d   1      -4.964 -10.642  -2.665 -0.33 +0.05    +0.064 A 
DOCKED: ATOM      2  C   UNL d   1      -1.202  -7.745  -2.788 -0.37 +0.02    +0.064 A 
DOCKED: ATOM      3  C   UNL d   1      -3.940  -4.104  -4.317 -0.36 +0.01    +0.064 C 
DOCKED: ATOM      4  C   UNL d   1      -7.898  -6.943  -3.737 -0.40 +0.02    +0.064 A 
DOCKED: ATOM      5  C   UNL d   1      -3.718 -10.151  -2.572 -0.35 +0.04    +0.066 A 
DOCKED: ATOM      6  C   UNL d   1      -2.607 -10.904  -2.181 -0.33 -0.02    -0.021 A 
DOCKED: ATOM      7  C   UNL d   1      -1.524 -10.055  -2.174 -0.34 -0.01    -0.025 A 
DOCKED: ATOM      8  C   UNL d   1      -1.995  -8.819  -2.608 -0.40 +0.02    +0.066 A 
DOCKED: ATOM      9  C   UNL d   1      -0.127 -10.438  -1.738 -0.25 +0.02    +0.051 C 
DOCKED: ATOM     10  C   UNL d   1      -1.634  -6.430  -3.262 -0.44 +0.01    +0.066 A 
DOCKED: ATOM     11  C   UNL d   1      -0.745  -5.399  -3.587 -0.48 -0.00    -0.021 A 
DOCKED: ATOM     12  C   UNL d   1      -1.515  -4.346  -4.047 -0.41 +0.00    +0.000 A 
DOCKED: ATOM     13  C   UNL d   1      -2.860  -4.801  -3.964 -0.38 +0.01    +0.070 A 
DOCKED: ATOM     14  C   UNL d   1       0.776  -5.427  -3.489 -0.46 +0.01    +0.052 C 
DOCKED: ATOM     15  C   UNL d   1      -5.319  -4.514  -4.215 -0.36 +0.01    +0.066 A 
DOCKED: ATOM     16  C   UNL d   1      -6.412  -3.679  -4.448 -0.46 -0.00    -0.021 A 
DOCKED: ATOM     17  C   UNL d   1      -7.552  -4.467  -4.287 -0.49 +0.00    +0.000 A 
DOCKED: ATOM     18  C   UNL d   1      -7.063  -5.741  -3.967 -0.41 +0.02    +0.070 A 
DOCKED: ATOM     19  C   UNL d   1      -6.273  -2.207  -4.744 -0.55 +0.00    +0.052 C 
DOCKED: ATOM     20  C   UNL d   1      -7.464  -8.170  -3.386 -0.38 +0.02    +0.066 A 
DOCKED: ATOM     21  C   UNL d   1      -8.298  -9.269  -3.201 -0.37 -0.01    -0.025 A 
DOCKED: ATOM     22  C   UNL d   1      -7.477 -10.338  -2.922 +0.17 -0.01    -0.021 A 
DOCKED: ATOM     23  C   UNL d   1      -6.168  -9.846  -2.929 +0.06 +0.04    +0.066 A 
DOCKED: ATOM     24  C   UNL d   1      -9.802  -9.297  -3.284 -0.51 +0.01    +0.051 C 
DOCKED: ATOM     25  N   UNL d   1      -3.358  -8.862  -2.790 -0.21 -0.11    -0.248 N 
DOCKED: ATOM     26  N   UNL d   1      -2.924  -6.067  -3.481 -0.26 -0.06    -0.248 N 
DOCKED: ATOM     27  N   UNL d   1      -5.710  -5.733  -3.854 -0.23 -0.07    -0.248 N 
DOCKED: ATOM     28  N   UNL d   1      -6.168  -8.518  -3.167 -0.12 -0.13    -0.248 N 
DOCKED: ATOM     29 FE   UNL d   1      -4.560  -7.299  -3.323 -0.09 +0.00    +0.000 Fe
DOCKED: ATOM     30  O   UNL d   1      -3.967  -7.175  -1.889 -0.37 +0.00    +0.000 OA
DOCKED: ATOM     31  O   UNL d   1      -5.459  -6.746  -2.157 -0.65 +0.00    +0.000 OA
DOCKED: ENDROOT
DOCKED: BRANCH   6  32
DOCKED: ATOM     32  C   UNL d   1      -2.582 -12.331  -1.698 -0.30 +0.06    +0.052 C 
DOCKED: BRANCH  32  33
DOCKED: ATOM     33  C   UNL d   1      -1.263 -13.035  -1.997 -0.21 +0.11    +0.115 C 
DOCKED: BRANCH  33  34
DOCKED: ATOM     34  C   UNL d   1      -1.452 -14.493  -2.335 -0.11 +0.18    +0.139 C 
DOCKED: ATOM     35  O   UNL d   1      -1.891 -14.807  -3.430 -0.08 -1.21    -0.650 OA
DOCKED: BRANCH  34  36
DOCKED: ATOM     36  O   UNL d   1      -1.174 -15.464  -1.440 +0.03 -0.79    -0.776 OA
DOCKED: ATOM     37  H   UNL d   1      -0.270 -15.746  -1.257 +0.03 +0.12    +0.167 HD
DOCKED: ENDBRANCH  34  36
DOCKED: ENDBRANCH  33  34
DOCKED: ENDBRANCH  32  33
DOCKED: ENDBRANCH   6  32
DOCKED: BRANCH  22  38
DOCKED: ATOM     38  C   UNL d   1      -7.935 -11.738  -2.603 -0.27 +0.04    +0.052 C 
DOCKED: BRANCH  38  39
DOCKED: ATOM     39  C   UNL d   1      -7.705 -12.106  -1.139 -0.19 +0.09    +0.115 C 
DOCKED: BRANCH  39  40
DOCKED: ATOM     40  C   UNL d   1      -6.756 -13.268  -0.980 -0.21 +0.19    +0.139 C 
DOCKED: ATOM     41  O   UNL d   1      -6.046 -13.339   0.010 -0.14 -1.10    -0.650 OA
DOCKED: BRANCH  40  42
DOCKED: ATOM     42  O   UNL d   1      -6.715 -14.262  -1.888 -0.18 -1.59    -0.776 OA
DOCKED: ATOM     43  H   UNL d   1      -7.500 -14.775  -2.112 +0.03 +0.24    +0.167 HD
DOCKED: ENDBRANCH  40  42
DOCKED: ENDBRANCH  39  40
DOCKED: ENDBRANCH  38  39
DOCKED: ENDBRANCH  22  38
DOCKED: BRANCH  12  44
DOCKED: ATOM     44  C   UNL d   1      -0.899  -3.041  -4.507 -0.46 +0.00    +0.004 C 
DOCKED: ATOM     45  C   UNL d   1      -1.446  -1.826  -4.487 -0.61 +0.00    +0.012 C 
DOCKED: ENDBRANCH  12  44
DOCKED: BRANCH  17  46
DOCKED: ATOM     46  C   UNL d   1      -9.014  -4.114  -4.352 -0.61 +0.00    +0.004 C 
DOCKED: ATOM     47  C   UNL d   1      -9.599  -2.947  -4.053 -0.69 +0.00    +0.012 C 
DOCKED: ENDBRANCH  17  46
DOCKED: TORSDOF 10
DOCKED: TER
DOCKED: ENDMDL
________________________________________________________________________________


	BEGINNING GENETIC ALGORITHM DOCKING 14 of 100
Run: 14 Seed: 75340483 1158194144 [ Run 14 of 100 GA/GALS ]
Beginning LAMARCKIAN GENETIC ALGORITHM (LGA), with a maximum of 25000000 energy evaluations.

Final-Value: -10.267


	FINAL GENETIC ALGORITHM DOCKED STATE
	_______________________________________________


Detailed state:  trans -20.047 -5.978 7.632 quatxyzw 0.201229 -0.793697 0.047471 -0.572100 center 8.287 34.468 -0.670 ntor 10 154.4842 138.7655 -46.3555 125.7604 -88.5212 -47.8973 -100.5649 114.4635 177.6903 -170.5909
State:	-20.047  -5.978   7.632   0.245 -0.968  0.058 -110.206    154.48  138.77  -46.36  125.76  -88.52  -47.90 -100.56  114.46  177.69 -170.59

DOCKED: MODEL       14
DOCKED: USER    Run = 14
DOCKED: USER    DPF = D:/Protein_go_brrr/autodock/final/AncA/heme_O2/dock.dpf
DOCKED: USER  
DOCKED: USER    Estimated Free Energy of Binding    =   -4.73 kcal/mol  [=(1)+(2)+(3)-(4)]
DOCKED: USER    Estimated Inhibition Constant, Ki   =  340.30 uM (micromolar)  [Temperature = 298.15 K]
DOCKED: USER    
DOCKED: USER    (1) Final Intermolecular Energy     =   -7.71 kcal/mol
DOCKED: USER        vdW + Hbond + desolv Energy     =   -5.99 kcal/mol
DOCKED: USER        Electrostatic Energy            =   -1.73 kcal/mol
DOCKED: USER    (2) Final Total Internal Energy     =   -2.55 kcal/mol
DOCKED: USER    (3) Torsional Free Energy           =   +2.98 kcal/mol
DOCKED: USER    (4) Unbound System's Energy  [=(2)] =   -2.55 kcal/mol
DOCKED: USER    
DOCKED: USER    
DOCKED: USER    NEWDPF move heme_O2_opt.pdbqt
DOCKED: USER    NEWDPF about 8.287000 34.468000 -0.670000
DOCKED: USER    NEWDPF tran0 -20.046935 -5.978219 7.632301
DOCKED: USER    NEWDPF quaternion0 0.201229 -0.793697 0.047471 -0.572100
DOCKED: USER    NEWDPF axisangle0 0.245346 -0.967706 0.057878 -110.206476
DOCKED: USER    NEWDPF quat0 0.245346 -0.967706 0.057878 -110.206476
DOCKED: USER    NEWDPF dihe0 154.48 138.77 -46.36 125.76 -88.52 -47.90 -100.56 114.46 177.69 -170.59 
DOCKED: USER  keepresnum = 1 
DOCKED: USER  
DOCKED: REMARK  10 active torsions:
DOCKED: REMARK  status: ('A' for Active; 'I' for Inactive)
DOCKED: REMARK    1  A    between atoms: C_6  and  C_10 
DOCKED: REMARK    2  A    between atoms: C_10  and  C_11 
DOCKED: REMARK    3  A    between atoms: C_11  and  C_12 
DOCKED: REMARK    4  A    between atoms: C_12  and  O_14 
DOCKED: REMARK    5  A    between atoms: C_17  and  C_20 
DOCKED: REMARK    6  A    between atoms: C_24  and  C_27 
DOCKED: REMARK    7  A    between atoms: C_31  and  C_34 
DOCKED: REMARK    8  A    between atoms: C_34  and  C_35 
DOCKED: REMARK    9  A    between atoms: C_35  and  C_36 
DOCKED: REMARK   10  A    between atoms: C_36  and  O_38 
DOCKED: USER                              x       y       z     vdW  Elec       q    Type
DOCKED: USER                           _______ _______ _______ _____ _____    ______ ____
DOCKED: ROOT
DOCKED: ATOM      1  C   UNL d   1     -19.066  -4.687   6.264 -0.31 +0.00    +0.064 A 
DOCKED: ATOM      2  C   UNL d   1     -21.653  -8.626   5.668 -0.16 -0.00    +0.064 A 
DOCKED: ATOM      3  C   UNL d   1     -22.253  -9.062  10.416 -0.10 -0.00    +0.064 C 
DOCKED: ATOM      4  C   UNL d   1     -19.997  -4.747  11.015 -0.14 -0.02    +0.064 A 
DOCKED: ATOM      5  C   UNL d   1     -19.722  -5.722   5.715 -0.28 -0.00    +0.066 A 
DOCKED: ATOM      6  C   UNL d   1     -19.773  -5.976   4.341 -0.28 +0.00    -0.021 A 
DOCKED: ATOM      7  C   UNL d   1     -20.558  -7.091   4.164 -0.24 +0.00    -0.025 A 
DOCKED: ATOM      8  C   UNL d   1     -20.925  -7.516   5.438 -0.19 -0.01    +0.066 A 
DOCKED: ATOM      9  C   UNL d   1     -20.942  -7.676   2.822 -0.23 -0.00    +0.051 C 
DOCKED: ATOM     10  C   UNL d   1     -22.050  -9.134   6.982 -0.13 -0.00    +0.066 A 
DOCKED: ATOM     11  C   UNL d   1     -22.665 -10.376   7.173 -0.09 -0.00    -0.021 A 
DOCKED: ATOM     12  C   UNL d   1     -22.830 -10.528   8.537 -0.08 +0.00    +0.000 A 
DOCKED: ATOM     13  C   UNL d   1     -22.306  -9.338   9.113 -0.10 -0.00    +0.070 A 
DOCKED: ATOM     14  C   UNL d   1     -23.053 -11.388   6.101 -0.05 +0.00    +0.052 C 
DOCKED: ATOM     15  C   UNL d   1     -21.764  -7.855  11.037 -0.08 -0.01    +0.066 A 
DOCKED: ATOM     16  C   UNL d   1     -21.887  -7.557  12.394 -0.04 +0.00    -0.021 A 
DOCKED: ATOM     17  C   UNL d   1     -21.251  -6.331  12.588 -0.04 -0.00    +0.000 A 
DOCKED: ATOM     18  C   UNL d   1     -20.780  -5.968  11.318 -0.09 -0.01    +0.070 A 
DOCKED: ATOM     19  C   UNL d   1     -22.640  -8.434  13.363 -0.01 -0.00    +0.052 C 
DOCKED: ATOM     20  C   UNL d   1     -19.567  -4.347   9.802 -0.20 -0.02    +0.066 A 
DOCKED: ATOM     21  C   UNL d   1     -18.817  -3.196   9.581 -0.21 +0.01    -0.025 A 
DOCKED: ATOM     22  C   UNL d   1     -18.520  -3.177   8.237 -0.28 +0.00    -0.021 A 
DOCKED: ATOM     23  C   UNL d   1     -19.117  -4.313   7.682 -0.29 -0.00    +0.066 A 
DOCKED: ATOM     24  C   UNL d   1     -18.409  -2.163  10.600 -0.17 -0.02    +0.051 C 
DOCKED: ATOM     25  N   UNL d   1     -20.465  -6.635   6.388 -0.15 +0.04    -0.248 N 
DOCKED: ATOM     26  N   UNL d   1     -21.838  -8.493   8.159 -0.08 +0.02    -0.248 N 
DOCKED: ATOM     27  N   UNL d   1     -21.165  -6.867  10.377 -0.05 +0.06    -0.248 N 
DOCKED: ATOM     28  N   UNL d   1     -19.790  -4.998   8.630 -0.15 +0.06    -0.248 N 
DOCKED: ATOM     29 FE   UNL d   1     -20.807  -6.733   8.399 -0.04 -0.00    +0.000 Fe
DOCKED: ATOM     30  O   UNL d   1     -22.073  -6.387   7.562 -0.11 -0.00    +0.000 OA
DOCKED: ATOM     31  O   UNL d   1     -21.822  -5.658   8.937 -0.11 -0.00    +0.000 OA
DOCKED: ENDROOT
DOCKED: BRANCH   6  32
DOCKED: ATOM     32  C   UNL d   1     -19.222  -5.127   3.224 -0.17 +0.01    +0.052 C 
DOCKED: BRANCH  32  33
DOCKED: ATOM     33  C   UNL d   1     -20.282  -4.247   2.570 -0.21 +0.03    +0.115 C 
DOCKED: BRANCH  33  34
DOCKED: ATOM     34  C   UNL d   1     -20.621  -3.037   3.405 -0.16 +0.06    +0.139 C 
DOCKED: ATOM     35  O   UNL d   1     -20.456  -1.920   2.942 +0.01 -0.55    -0.650 OA
DOCKED: BRANCH  34  36
DOCKED: ATOM     36  O   UNL d   1     -21.078  -3.160   4.668 +0.05 -0.26    -0.776 OA
DOCKED: ATOM     37  H   UNL d   1     -20.965  -2.461   5.322 +0.03 +0.07    +0.167 HD
DOCKED: ENDBRANCH  34  36
DOCKED: ENDBRANCH  33  34
DOCKED: ENDBRANCH  32  33
DOCKED: ENDBRANCH   6  32
DOCKED: BRANCH  22  38
DOCKED: ATOM     38  C   UNL d   1     -17.759  -2.091   7.521 -0.30 +0.01    +0.052 C 
DOCKED: BRANCH  38  39
DOCKED: ATOM     39  C   UNL d   1     -18.542  -0.781   7.450 -0.16 +0.05    +0.115 C 
DOCKED: BRANCH  39  40
DOCKED: ATOM     40  C   UNL d   1     -19.773  -0.892   6.585 -0.11 +0.09    +0.139 C 
DOCKED: ATOM     41  O   UNL d   1     -20.858  -1.110   7.100 +0.03 -0.24    -0.650 OA
DOCKED: BRANCH  40  42
DOCKED: ATOM     42  O   UNL d   1     -19.707  -0.704   5.253 -0.43 -1.29    -0.776 OA
DOCKED: ATOM     43  H   UNL d   1     -20.223  -1.242   4.640 +0.03 +0.21    +0.167 HD
DOCKED: ENDBRANCH  40  42
DOCKED: ENDBRANCH  39  40
DOCKED: ENDBRANCH  38  39
DOCKED: ENDBRANCH  22  38
DOCKED: BRANCH  12  44
DOCKED: ATOM     44  C   UNL d   1     -23.461 -11.767   9.137 -0.03 +0.00    +0.004 C 
DOCKED: ATOM     45  C   UNL d   1     -22.989 -12.532  10.121 -0.03 +0.00    +0.012 C 
DOCKED: ENDBRANCH  12  44
DOCKED: BRANCH  17  46
DOCKED: ATOM     46  C   UNL d   1     -21.108  -5.476  13.819 -0.02 -0.00    +0.004 C 
DOCKED: ATOM     47  C   UNL d   1     -19.983  -5.100  14.440 -0.03 -0.00    +0.012 C 
DOCKED: ENDBRANCH  17  46
DOCKED: TORSDOF 10
DOCKED: TER
DOCKED: ENDMDL
________________________________________________________________________________


	BEGINNING GENETIC ALGORITHM DOCKING 15 of 100
Run: 15 Seed: 1838698831 1382124801 [ Run 15 of 100 GA/GALS ]
Beginning LAMARCKIAN GENETIC ALGORITHM (LGA), with a maximum of 25000000 energy evaluations.

Final-Value: -12.545


	FINAL GENETIC ALGORITHM DOCKED STATE
	_______________________________________________


Detailed state:  trans -0.302 -15.459 -1.799 quatxyzw 0.344820 0.002768 -0.374129 0.860883 center 8.287 34.468 -0.670 ntor 10 109.0261 -19.2624 125.8515 110.6452 116.8244 -110.8044 115.7344 36.9703 -139.3438 -35.0499
State:	 -0.302 -15.459  -1.799   0.678  0.005 -0.735 61.168    109.03  -19.26  125.85  110.65  116.82 -110.80  115.73   36.97 -139.34  -35.05

DOCKED: MODEL       15
DOCKED: USER    Run = 15
DOCKED: USER    DPF = D:/Protein_go_brrr/autodock/final/AncA/heme_O2/dock.dpf
DOCKED: USER  
DOCKED: USER    Estimated Free Energy of Binding    =   -8.88 kcal/mol  [=(1)+(2)+(3)-(4)]
DOCKED: USER    Estimated Inhibition Constant, Ki   =  308.21 nM (nanomolar)  [Temperature = 298.15 K]
DOCKED: USER    
DOCKED: USER    (1) Final Intermolecular Energy     =  -11.87 kcal/mol
DOCKED: USER        vdW + Hbond + desolv Energy     =   -7.58 kcal/mol
DOCKED: USER        Electrostatic Energy            =   -4.29 kcal/mol
DOCKED: USER    (2) Final Total Internal Energy     =   -0.68 kcal/mol
DOCKED: USER    (3) Torsional Free Energy           =   +2.98 kcal/mol
DOCKED: USER    (4) Unbound System's Energy  [=(2)] =   -0.68 kcal/mol
DOCKED: USER    
DOCKED: USER    
DOCKED: USER    NEWDPF move heme_O2_opt.pdbqt
DOCKED: USER    NEWDPF about 8.287000 34.468000 -0.670000
DOCKED: USER    NEWDPF tran0 -0.301895 -15.459088 -1.798730
DOCKED: USER    NEWDPF quaternion0 0.344820 0.002768 -0.374129 0.860883
DOCKED: USER    NEWDPF axisangle0 0.677707 0.005439 -0.735312 61.168340
DOCKED: USER    NEWDPF quat0 0.677707 0.005439 -0.735312 61.168340
DOCKED: USER    NEWDPF dihe0 109.03 -19.26 125.85 110.65 116.82 -110.80 115.73 36.97 -139.34 -35.05 
DOCKED: USER  keepresnum = 1 
DOCKED: USER  
DOCKED: REMARK  10 active torsions:
DOCKED: REMARK  status: ('A' for Active; 'I' for Inactive)
DOCKED: REMARK    1  A    between atoms: C_6  and  C_10 
DOCKED: REMARK    2  A    between atoms: C_10  and  C_11 
DOCKED: REMARK    3  A    between atoms: C_11  and  C_12 
DOCKED: REMARK    4  A    between atoms: C_12  and  O_14 
DOCKED: REMARK    5  A    between atoms: C_17  and  C_20 
DOCKED: REMARK    6  A    between atoms: C_24  and  C_27 
DOCKED: REMARK    7  A    between atoms: C_31  and  C_34 
DOCKED: REMARK    8  A    between atoms: C_34  and  C_35 
DOCKED: REMARK    9  A    between atoms: C_35  and  C_36 
DOCKED: REMARK   10  A    between atoms: C_36  and  O_38 
DOCKED: USER                              x       y       z     vdW  Elec       q    Type
DOCKED: USER                           _______ _______ _______ _____ _____    ______ ____
DOCKED: ROOT
DOCKED: ATOM      1  C   UNL d   1      -1.825 -16.850  -2.294 -0.06 +0.08    +0.064 A 
DOCKED: ATOM      2  C   UNL d   1      -0.201 -15.213   1.859 -0.10 +0.04    +0.064 A 
DOCKED: ATOM      3  C   UNL d   1       3.056 -12.484  -0.385 -0.18 +0.02    +0.064 C 
DOCKED: ATOM      4  C   UNL d   1       1.078 -13.797  -4.678 -0.22 +0.03    +0.064 A 
DOCKED: ATOM      5  C   UNL d   1      -1.650 -16.626  -0.981 -0.06 +0.07    +0.066 A 
DOCKED: ATOM      6  C   UNL d   1      -2.391 -17.253   0.025 -0.06 -0.02    -0.021 A 
DOCKED: ATOM      7  C   UNL d   1      -1.951 -16.747   1.226 -0.08 -0.02    -0.025 A 
DOCKED: ATOM      8  C   UNL d   1      -0.921 -15.862   0.923 -0.09 +0.05    +0.066 A 
DOCKED: ATOM      9  C   UNL d   1      -2.535 -17.096   2.578 -0.06 +0.06    +0.051 C 
DOCKED: ATOM     10  C   UNL d   1       0.905 -14.290   1.603 -0.11 +0.03    +0.066 A 
DOCKED: ATOM     11  C   UNL d   1       1.724 -13.771   2.612 -0.14 -0.01    -0.021 A 
DOCKED: ATOM     12  C   UNL d   1       2.681 -12.996   1.983 -0.15 +0.00    +0.000 A 
DOCKED: ATOM     13  C   UNL d   1       2.377 -13.078   0.596 -0.12 +0.02    +0.070 A 
DOCKED: ATOM     14  C   UNL d   1       1.615 -14.027   4.111 -0.14 +0.02    +0.052 C 
DOCKED: ATOM     15  C   UNL d   1       2.761 -12.513  -1.798 -0.14 +0.02    +0.066 A 
DOCKED: ATOM     16  C   UNL d   1       3.411 -11.738  -2.757 -0.24 -0.00    -0.021 A 
DOCKED: ATOM     17  C   UNL d   1       2.863 -12.095  -3.989 -0.27 +0.00    +0.000 A 
DOCKED: ATOM     18  C   UNL d   1       1.908 -13.075  -3.685 -0.18 +0.03    +0.070 A 
DOCKED: ATOM     19  C   UNL d   1       4.447 -10.698  -2.411 -0.30 +0.01    +0.052 C 
DOCKED: ATOM     20  C   UNL d   1       0.123 -14.711  -4.418 -0.19 +0.05    +0.066 A 
DOCKED: ATOM     21  C   UNL d   1      -0.614 -15.370  -5.397 -0.24 -0.02    -0.025 A 
DOCKED: ATOM     22  C   UNL d   1      -1.427 -16.264  -4.737 -0.11 -0.02    -0.021 A 
DOCKED: ATOM     23  C   UNL d   1      -1.168 -16.103  -3.372 -0.11 +0.08    +0.066 A 
DOCKED: ATOM     24  C   UNL d   1      -0.548 -15.156  -6.887 -0.37 +0.03    +0.051 C 
DOCKED: ATOM     25  N   UNL d   1      -0.780 -15.738  -0.440 -0.04 -0.20    -0.248 N 
DOCKED: ATOM     26  N   UNL d   1       1.293 -13.863   0.374 -0.05 -0.11    -0.248 N 
DOCKED: ATOM     27  N   UNL d   1       1.807 -13.262  -2.344 -0.06 -0.10    -0.248 N 
DOCKED: ATOM     28  N   UNL d   1      -0.257 -15.126  -3.180 -0.07 -0.21    -0.248 N 
DOCKED: ATOM     29 FE   UNL d   1       0.514 -14.497  -1.418 -0.02 +0.00    +0.000 Fe
DOCKED: ATOM     30  O   UNL d   1      -0.637 -13.751  -0.681 -0.19 +0.00    +0.000 OA
DOCKED: ATOM     31  O   UNL d   1      -0.170 -13.258  -2.103 -0.18 +0.00    +0.000 OA
DOCKED: ENDROOT
DOCKED: BRANCH   6  32
DOCKED: ATOM     32  C   UNL d   1      -3.561 -18.188  -0.136 -0.04 +0.05    +0.052 C 
DOCKED: BRANCH  32  33
DOCKED: ATOM     33  C   UNL d   1      -4.690 -17.586  -0.968 -0.06 +0.15    +0.115 C 
DOCKED: BRANCH  33  34
DOCKED: ATOM     34  C   UNL d   1      -5.348 -16.415  -0.282 -0.10 +0.23    +0.139 C 
DOCKED: ATOM     35  O   UNL d   1      -5.455 -16.409   0.934 -0.28 -1.33    -0.650 OA
DOCKED: BRANCH  34  36
DOCKED: ATOM     36  O   UNL d   1      -5.850 -15.379  -0.986 -0.36 -1.68    -0.776 OA
DOCKED: ATOM     37  H   UNL d   1      -6.799 -15.227  -1.064 +0.03 +0.27    +0.167 HD
DOCKED: ENDBRANCH  34  36
DOCKED: ENDBRANCH  33  34
DOCKED: ENDBRANCH  32  33
DOCKED: ENDBRANCH   6  32
DOCKED: BRANCH  22  38
DOCKED: ATOM     38  C   UNL d   1      -2.441 -17.172  -5.384 -0.14 +0.07    +0.052 C 
DOCKED: BRANCH  38  39
DOCKED: ATOM     39  C   UNL d   1      -1.789 -18.243  -6.256 -0.12 +0.11    +0.115 C 
DOCKED: BRANCH  39  40
DOCKED: ATOM     40  C   UNL d   1      -2.603 -18.557  -7.487 -0.13 +0.20    +0.139 C 
DOCKED: ATOM     41  O   UNL d   1      -3.244 -17.673  -8.032 -0.43 -1.06    -0.650 OA
DOCKED: BRANCH  40  42
DOCKED: ATOM     42  O   UNL d   1      -2.596 -19.790  -8.029 -0.25 -1.41    -0.776 OA
DOCKED: ATOM     43  H   UNL d   1      -1.913 -20.435  -7.808 +0.02 +0.19    +0.167 HD
DOCKED: ENDBRANCH  40  42
DOCKED: ENDBRANCH  39  40
DOCKED: ENDBRANCH  38  39
DOCKED: ENDBRANCH  22  38
DOCKED: BRANCH  12  44
DOCKED: ATOM     44  C   UNL d   1       3.761 -12.269   2.756 -0.19 +0.00    +0.004 C 
DOCKED: ATOM     45  C   UNL d   1       3.609 -11.358   3.716 -0.27 +0.00    +0.012 C 
DOCKED: ENDBRANCH  12  44
DOCKED: BRANCH  17  46
DOCKED: ATOM     46  C   UNL d   1       3.116 -11.563  -5.375 -0.39 +0.00    +0.004 C 
DOCKED: ATOM     47  C   UNL d   1       3.826 -12.126  -6.361 -0.55 +0.00    +0.012 C 
DOCKED: ENDBRANCH  17  46
DOCKED: TORSDOF 10
DOCKED: TER
DOCKED: ENDMDL
________________________________________________________________________________


	BEGINNING GENETIC ALGORITHM DOCKING 16 of 100
Run: 16 Seed: 220797787 47035306 [ Run 16 of 100 GA/GALS ]
Beginning LAMARCKIAN GENETIC ALGORITHM (LGA), with a maximum of 25000000 energy evaluations.

Final-Value: -19.073


	FINAL GENETIC ALGORITHM DOCKED STATE
	_______________________________________________


Detailed state:  trans -4.639 -8.592 -3.318 quatxyzw -0.134497 -0.442894 -0.738447 0.490358 center 8.287 34.468 -0.670 ntor 10 -136.1748 -82.1193 27.2690 -1.8805 -89.3112 -158.6910 -31.1451 31.3817 -157.0697 154.0701
State:	 -4.639  -8.592  -3.318  -0.154 -0.508 -0.847 121.272   -136.17  -82.12   27.27   -1.88  -89.31 -158.69  -31.15   31.38 -157.07  154.07

DOCKED: MODEL       16
DOCKED: USER    Run = 16
DOCKED: USER    DPF = D:/Protein_go_brrr/autodock/final/AncA/heme_O2/dock.dpf
DOCKED: USER  
DOCKED: USER    Estimated Free Energy of Binding    =  -14.55 kcal/mol  [=(1)+(2)+(3)-(4)]
DOCKED: USER    Estimated Inhibition Constant, Ki   =   21.50 pM (picomolar)  [Temperature = 298.15 K]
DOCKED: USER    
DOCKED: USER    (1) Final Intermolecular Energy     =  -17.54 kcal/mol
DOCKED: USER        vdW + Hbond + desolv Energy     =  -13.43 kcal/mol
DOCKED: USER        Electrostatic Energy            =   -4.11 kcal/mol
DOCKED: USER    (2) Final Total Internal Energy     =   -1.54 kcal/mol
DOCKED: USER    (3) Torsional Free Energy           =   +2.98 kcal/mol
DOCKED: USER    (4) Unbound System's Energy  [=(2)] =   -1.54 kcal/mol
DOCKED: USER    
DOCKED: USER    
DOCKED: USER    NEWDPF move heme_O2_opt.pdbqt
DOCKED: USER    NEWDPF about 8.287000 34.468000 -0.670000
DOCKED: USER    NEWDPF tran0 -4.639134 -8.592127 -3.317774
DOCKED: USER    NEWDPF quaternion0 -0.134497 -0.442894 -0.738447 0.490358
DOCKED: USER    NEWDPF axisangle0 -0.154325 -0.508185 -0.847308 121.271807
DOCKED: USER    NEWDPF quat0 -0.154325 -0.508185 -0.847308 121.271807
DOCKED: USER    NEWDPF dihe0 -136.17 -82.12 27.27 -1.88 -89.31 -158.69 -31.15 31.38 -157.07 154.07 
DOCKED: USER  keepresnum = 1 
DOCKED: USER  
DOCKED: REMARK  10 active torsions:
DOCKED: REMARK  status: ('A' for Active; 'I' for Inactive)
DOCKED: REMARK    1  A    between atoms: C_6  and  C_10 
DOCKED: REMARK    2  A    between atoms: C_10  and  C_11 
DOCKED: REMARK    3  A    between atoms: C_11  and  C_12 
DOCKED: REMARK    4  A    between atoms: C_12  and  O_14 
DOCKED: REMARK    5  A    between atoms: C_17  and  C_20 
DOCKED: REMARK    6  A    between atoms: C_24  and  C_27 
DOCKED: REMARK    7  A    between atoms: C_31  and  C_34 
DOCKED: REMARK    8  A    between atoms: C_34  and  C_35 
DOCKED: REMARK    9  A    between atoms: C_35  and  C_36 
DOCKED: REMARK   10  A    between atoms: C_36  and  O_38 
DOCKED: USER                              x       y       z     vdW  Elec       q    Type
DOCKED: USER                           _______ _______ _______ _____ _____    ______ ____
DOCKED: ROOT
DOCKED: ATOM      1  C   UNL d   1      -4.607 -10.663  -2.861 -0.35 +0.05    +0.064 A 
DOCKED: ATOM      2  C   UNL d   1      -1.178  -7.391  -3.163 -0.33 +0.02    +0.064 A 
DOCKED: ATOM      3  C   UNL d   1      -4.378  -4.015  -4.368 -0.30 +0.01    +0.064 C 
DOCKED: ATOM      4  C   UNL d   1      -7.973  -7.262  -3.595 -0.40 +0.02    +0.064 A 
DOCKED: ATOM      5  C   UNL d   1      -3.413 -10.048  -2.843 -0.30 +0.04    +0.066 A 
DOCKED: ATOM      6  C   UNL d   1      -2.205 -10.692  -2.559 -0.25 -0.01    -0.021 A 
DOCKED: ATOM      7  C   UNL d   1      -1.217  -9.736  -2.603 -0.26 -0.01    -0.025 A 
DOCKED: ATOM      8  C   UNL d   1      -1.842  -8.545  -2.961 -0.31 +0.02    +0.066 A 
DOCKED: ATOM      9  C   UNL d   1       0.241  -9.983  -2.283 +0.18 +0.02    +0.051 C 
DOCKED: ATOM     10  C   UNL d   1      -1.775  -6.116  -3.561 -0.43 +0.01    +0.066 A 
DOCKED: ATOM     11  C   UNL d   1      -1.023  -4.991  -3.916 -0.44 -0.00    -0.021 A 
DOCKED: ATOM     12  C   UNL d   1      -1.928  -4.012  -4.284 -0.36 +0.00    +0.000 A 
DOCKED: ATOM     13  C   UNL d   1      -3.210  -4.605  -4.117 -0.39 +0.01    +0.070 A 
DOCKED: ATOM     14  C   UNL d   1       0.496  -4.863  -3.930 -0.57 +0.01    +0.052 C 
DOCKED: ATOM     15  C   UNL d   1      -5.698  -4.568  -4.179 -0.38 +0.01    +0.066 A 
DOCKED: ATOM     16  C   UNL d   1      -6.883  -3.845  -4.304 -0.49 -0.00    -0.021 A 
DOCKED: ATOM     17  C   UNL d   1      -7.922  -4.750  -4.087 -0.48 +0.00    +0.000 A 
DOCKED: ATOM     18  C   UNL d   1      -7.284  -5.974  -3.845 -0.41 +0.02    +0.070 A 
DOCKED: ATOM     19  C   UNL d   1      -6.918  -2.359  -4.561 -0.57 +0.00    +0.052 C 
DOCKED: ATOM     20  C   UNL d   1      -7.392  -8.445  -3.316 -0.37 +0.03    +0.066 A 
DOCKED: ATOM     21  C   UNL d   1      -8.094  -9.629  -3.107 -0.23 -0.01    -0.025 A 
DOCKED: ATOM     22  C   UNL d   1      -7.150 -10.614  -2.924 +0.28 -0.01    -0.021 A 
DOCKED: ATOM     23  C   UNL d   1      -5.902  -9.989  -3.010 -0.12 +0.04    +0.066 A 
DOCKED: ATOM     24  C   UNL d   1      -9.589  -9.811  -3.081 -0.46 +0.01    +0.051 C 
DOCKED: ATOM     25  N   UNL d   1      -3.204  -8.724  -3.044 -0.16 -0.10    -0.248 N 
DOCKED: ATOM     26  N   UNL d   1      -3.108  -5.883  -3.673 -0.26 -0.05    -0.248 N 
DOCKED: ATOM     27  N   UNL d   1      -5.934  -5.829  -3.831 -0.21 -0.08    -0.248 N 
DOCKED: ATOM     28  N   UNL d   1      -6.055  -8.663  -3.204 -0.11 -0.13    -0.248 N 
DOCKED: ATOM     29 FE   UNL d   1      -4.594  -7.281  -3.437 -0.09 +0.00    +0.000 Fe
DOCKED: ATOM     30  O   UNL d   1      -3.910  -7.133  -2.047 -0.40 +0.00    +0.000 OA
DOCKED: ATOM     31  O   UNL d   1      -5.454  -6.854  -2.191 -0.60 +0.00    +0.000 OA
DOCKED: ENDROOT
DOCKED: BRANCH   6  32
DOCKED: ATOM     32  C   UNL d   1      -2.000 -12.121  -2.126 -0.30 +0.05    +0.052 C 
DOCKED: BRANCH  32  33
DOCKED: ATOM     33  C   UNL d   1      -2.428 -12.370  -0.684 -0.02 +0.12    +0.115 C 
DOCKED: BRANCH  33  34
DOCKED: ATOM     34  C   UNL d   1      -2.987 -13.757  -0.481 -0.07 +0.22    +0.139 C 
DOCKED: ATOM     35  O   UNL d   1      -2.446 -14.516   0.306 +0.12 -0.92    -0.650 OA
DOCKED: BRANCH  34  36
DOCKED: ATOM     36  O   UNL d   1      -4.061 -14.190  -1.174 +0.17 -1.89    -0.776 OA
DOCKED: ATOM     37  H   UNL d   1      -4.780 -14.674  -0.751 +0.02 +0.40    +0.167 HD
DOCKED: ENDBRANCH  34  36
DOCKED: ENDBRANCH  33  34
DOCKED: ENDBRANCH  32  33
DOCKED: ENDBRANCH   6  32
DOCKED: BRANCH  22  38
DOCKED: ATOM     38  C   UNL d   1      -7.438 -12.062  -2.619 -0.24 +0.05    +0.052 C 
DOCKED: BRANCH  38  39
DOCKED: ATOM     39  C   UNL d   1      -7.190 -12.408  -1.152 -0.21 +0.11    +0.115 C 
DOCKED: BRANCH  39  40
DOCKED: ATOM     40  C   UNL d   1      -6.762 -13.841  -0.963 -0.17 +0.21    +0.139 C 
DOCKED: ATOM     41  O   UNL d   1      -6.896 -14.640  -1.876 -0.44 -1.23    -0.650 OA
DOCKED: BRANCH  40  42
DOCKED: ATOM     42  O   UNL d   1      -6.183 -14.249   0.183 -0.35 -1.55    -0.776 OA
DOCKED: ATOM     43  H   UNL d   1      -5.250 -14.083   0.364 +0.06 +0.42    +0.167 HD
DOCKED: ENDBRANCH  40  42
DOCKED: ENDBRANCH  39  40
DOCKED: ENDBRANCH  38  39
DOCKED: ENDBRANCH  22  38
DOCKED: BRANCH  12  44
DOCKED: ATOM     44  C   UNL d   1      -1.484  -2.639  -4.744 -0.54 +0.00    +0.004 C 
DOCKED: ATOM     45  C   UNL d   1      -2.182  -1.504  -4.726 -0.66 +0.00    +0.012 C 
DOCKED: ENDBRANCH  12  44
DOCKED: BRANCH  17  46
DOCKED: ATOM     46  C   UNL d   1      -9.413  -4.549  -4.033 -0.56 +0.00    +0.004 C 
DOCKED: ATOM     47  C   UNL d   1     -10.094  -3.395  -4.032 -0.71 +0.00    +0.012 C 
DOCKED: ENDBRANCH  17  46
DOCKED: TORSDOF 10
DOCKED: TER
DOCKED: ENDMDL
________________________________________________________________________________


	BEGINNING GENETIC ALGORITHM DOCKING 17 of 100
Run: 17 Seed: 1189538591 1264157547 [ Run 17 of 100 GA/GALS ]
Beginning LAMARCKIAN GENETIC ALGORITHM (LGA), with a maximum of 25000000 energy evaluations.

Final-Value: -14.900


	FINAL GENETIC ALGORITHM DOCKED STATE
	_______________________________________________


Detailed state:  trans -4.866 -10.828 -1.821 quatxyzw 0.813223 0.493500 -0.238020 0.196147 center 8.287 34.468 -0.670 ntor 10 87.6927 -156.2627 42.3882 5.0465 -132.2114 -114.0294 -133.9194 -70.4881 -16.4621 114.4102
State:	 -4.866 -10.828  -1.821   0.829  0.503 -0.243 157.376     87.69 -156.26   42.39    5.05 -132.21 -114.03 -133.92  -70.49  -16.46  114.41

DOCKED: MODEL       17
DOCKED: USER    Run = 17
DOCKED: USER    DPF = D:/Protein_go_brrr/autodock/final/AncA/heme_O2/dock.dpf
DOCKED: USER  
DOCKED: USER    Estimated Free Energy of Binding    =  -11.28 kcal/mol  [=(1)+(2)+(3)-(4)]
DOCKED: USER    Estimated Inhibition Constant, Ki   =    5.38 nM (nanomolar)  [Temperature = 298.15 K]
DOCKED: USER    
DOCKED: USER    (1) Final Intermolecular Energy     =  -14.26 kcal/mol
DOCKED: USER        vdW + Hbond + desolv Energy     =  -11.28 kcal/mol
DOCKED: USER        Electrostatic Energy            =   -2.98 kcal/mol
DOCKED: USER    (2) Final Total Internal Energy     =   -0.64 kcal/mol
DOCKED: USER    (3) Torsional Free Energy           =   +2.98 kcal/mol
DOCKED: USER    (4) Unbound System's Energy  [=(2)] =   -0.64 kcal/mol
DOCKED: USER    
DOCKED: USER    
DOCKED: USER    NEWDPF move heme_O2_opt.pdbqt
DOCKED: USER    NEWDPF about 8.287000 34.468000 -0.670000
DOCKED: USER    NEWDPF tran0 -4.866333 -10.827605 -1.820832
DOCKED: USER    NEWDPF quaternion0 0.813223 0.493500 -0.238020 0.196147
DOCKED: USER    NEWDPF axisangle0 0.829333 0.503276 -0.242735 157.376489
DOCKED: USER    NEWDPF quat0 0.829333 0.503276 -0.242735 157.376489
DOCKED: USER    NEWDPF dihe0 87.69 -156.26 42.39 5.05 -132.21 -114.03 -133.92 -70.49 -16.46 114.41 
DOCKED: USER  keepresnum = 1 
DOCKED: USER  
DOCKED: REMARK  10 active torsions:
DOCKED: REMARK  status: ('A' for Active; 'I' for Inactive)
DOCKED: REMARK    1  A    between atoms: C_6  and  C_10 
DOCKED: REMARK    2  A    between atoms: C_10  and  C_11 
DOCKED: REMARK    3  A    between atoms: C_11  and  C_12 
DOCKED: REMARK    4  A    between atoms: C_12  and  O_14 
DOCKED: REMARK    5  A    between atoms: C_17  and  C_20 
DOCKED: REMARK    6  A    between atoms: C_24  and  C_27 
DOCKED: REMARK    7  A    between atoms: C_31  and  C_34 
DOCKED: REMARK    8  A    between atoms: C_34  and  C_35 
DOCKED: REMARK    9  A    between atoms: C_35  and  C_36 
DOCKED: REMARK   10  A    between atoms: C_36  and  O_38 
DOCKED: USER                              x       y       z     vdW  Elec       q    Type
DOCKED: USER                           _______ _______ _______ _____ _____    ______ ____
DOCKED: ROOT
DOCKED: ATOM      1  C   UNL d   1      -4.722 -12.833  -1.145 -0.21 +0.11    +0.064 A 
DOCKED: ATOM      2  C   UNL d   1      -8.339 -10.279  -2.863 -0.18 +0.03    +0.064 A 
DOCKED: ATOM      3  C   UNL d   1      -5.520  -6.413  -3.308 -0.34 +0.03    +0.064 C 
DOCKED: ATOM      4  C   UNL d   1      -1.678  -9.165  -1.991 -0.42 +0.02    +0.064 A 
DOCKED: ATOM      5  C   UNL d   1      -5.936 -12.454  -1.577 -0.21 +0.09    +0.066 A 
DOCKED: ATOM      6  C   UNL d   1      -7.058 -13.288  -1.589 -0.21 -0.03    -0.021 A 
DOCKED: ATOM      7  C   UNL d   1      -8.095 -12.563  -2.127 -0.22 -0.02    -0.025 A 
DOCKED: ATOM      8  C   UNL d   1      -7.590 -11.291  -2.384 -0.11 +0.04    +0.066 A 
DOCKED: ATOM      9  C   UNL d   1      -9.482 -13.105  -2.395 -0.18 +0.03    +0.051 C 
DOCKED: ATOM     10  C   UNL d   1      -7.872  -8.919  -3.131 -0.24 +0.02    +0.066 A 
DOCKED: ATOM     11  C   UNL d   1      -8.726  -7.865  -3.472 -0.44 -0.01    -0.021 A 
DOCKED: ATOM     12  C   UNL d   1      -7.934  -6.737  -3.587 -0.43 +0.00    +0.000 A 
DOCKED: ATOM     13  C   UNL d   1      -6.610  -7.180  -3.316 -0.27 +0.03    +0.070 A 
DOCKED: ATOM     14  C   UNL d   1     -10.239  -7.925  -3.653 -0.45 +0.01    +0.052 C 
DOCKED: ATOM     15  C   UNL d   1      -4.158  -6.829  -3.073 -0.15 +0.02    +0.066 A 
DOCKED: ATOM     16  C   UNL d   1      -3.041  -6.011  -3.241 -0.40 -0.00    -0.021 A 
DOCKED: ATOM     17  C   UNL d   1      -1.934  -6.774  -2.872 -0.47 +0.00    +0.000 A 
DOCKED: ATOM     18  C   UNL d   1      -2.465  -8.017  -2.500 -0.41 +0.02    +0.070 A 
DOCKED: ATOM     19  C   UNL d   1      -3.125  -4.607  -3.785 -0.43 +0.01    +0.052 C 
DOCKED: ATOM     20  C   UNL d   1      -2.150 -10.384  -1.667 -0.34 +0.04    +0.066 A 
DOCKED: ATOM     21  C   UNL d   1      -1.361 -11.421  -1.175 -0.30 -0.02    -0.025 A 
DOCKED: ATOM     22  C   UNL d   1      -2.216 -12.465  -0.903 -0.16 -0.02    -0.021 A 
DOCKED: ATOM     23  C   UNL d   1      -3.498 -12.031  -1.257 -0.28 +0.08    +0.066 A 
DOCKED: ATOM     24  C   UNL d   1       0.132 -11.417  -0.979 -0.33 +0.02    +0.051 C 
DOCKED: ATOM     25  N   UNL d   1      -6.244 -11.245  -2.106 -0.01 -0.22    -0.248 N 
DOCKED: ATOM     26  N   UNL d   1      -6.581  -8.509  -3.044 -0.07 -0.12    -0.248 N 
DOCKED: ATOM     27  N   UNL d   1      -3.807  -8.057  -2.700 -0.23 -0.10    -0.248 N 
DOCKED: ATOM     28  N   UNL d   1      -3.446 -10.782  -1.763 -0.21 -0.19    -0.248 N 
DOCKED: ATOM     29 FE   UNL d   1      -5.000  -9.652  -2.399 -0.08 +0.00    +0.000 Fe
DOCKED: ATOM     30  O   UNL d   1      -5.503 -10.307  -3.719 -0.32 +0.00    +0.000 OA
DOCKED: ATOM     31  O   UNL d   1      -4.010  -9.817  -3.610 +0.12 +0.00    +0.000 OA
DOCKED: ENDROOT
DOCKED: BRANCH   6  32
DOCKED: ATOM     32  C   UNL d   1      -7.124 -14.752  -1.238 -0.11 +0.08    +0.052 C 
DOCKED: BRANCH  32  33
DOCKED: ATOM     33  C   UNL d   1      -6.866 -15.018   0.242 -0.11 +0.19    +0.115 C 
DOCKED: BRANCH  33  34
DOCKED: ATOM     34  C   UNL d   1      -7.595 -14.047   1.137 -0.14 +0.20    +0.139 C 
DOCKED: ATOM     35  O   UNL d   1      -8.793 -14.185   1.327 +0.03 -0.58    -0.650 OA
DOCKED: BRANCH  34  36
DOCKED: ATOM     36  O   UNL d   1      -6.957 -13.007   1.713 -0.27 -1.39    -0.776 OA
DOCKED: ATOM     37  H   UNL d   1      -6.866 -12.155   1.270 +0.06 +0.24    +0.167 HD
DOCKED: ENDBRANCH  34  36
DOCKED: ENDBRANCH  33  34
DOCKED: ENDBRANCH  32  33
DOCKED: ENDBRANCH   6  32
DOCKED: BRANCH  22  38
DOCKED: ATOM     38  C   UNL d   1      -1.809 -13.823  -0.392 -0.15 +0.06    +0.052 C 
DOCKED: BRANCH  38  39
DOCKED: ATOM     39  C   UNL d   1      -2.658 -14.946  -0.985 -0.12 +0.19    +0.115 C 
DOCKED: BRANCH  39  40
DOCKED: ATOM     40  C   UNL d   1      -1.892 -15.784  -1.978 -0.08 +0.20    +0.139 C 
DOCKED: ATOM     41  O   UNL d   1      -0.688 -15.933  -1.845 +0.02 -0.57    -0.650 OA
DOCKED: BRANCH  40  42
DOCKED: ATOM     42  O   UNL d   1      -2.523 -16.417  -2.986 -0.28 -1.71    -0.776 OA
DOCKED: ATOM     43  H   UNL d   1      -2.160 -17.218  -3.384 +0.02 +0.23    +0.167 HD
DOCKED: ENDBRANCH  40  42
DOCKED: ENDBRANCH  39  40
DOCKED: ENDBRANCH  38  39
DOCKED: ENDBRANCH  22  38
DOCKED: BRANCH  12  44
DOCKED: ATOM     44  C   UNL d   1      -8.511  -5.382  -3.941 -0.49 +0.00    +0.004 C 
DOCKED: ATOM     45  C   UNL d   1      -7.977  -4.443  -4.721 -0.56 +0.00    +0.012 C 
DOCKED: ENDBRANCH  12  44
DOCKED: BRANCH  17  46
DOCKED: ATOM     46  C   UNL d   1      -0.462  -6.457  -2.896 -0.51 +0.00    +0.004 C 
DOCKED: ATOM     47  C   UNL d   1       0.137  -5.337  -3.320 -0.60 +0.00    +0.012 C 
DOCKED: ENDBRANCH  17  46
DOCKED: TORSDOF 10
DOCKED: TER
DOCKED: ENDMDL
________________________________________________________________________________


	BEGINNING GENETIC ALGORITHM DOCKING 18 of 100
Run: 18 Seed: 1851307479 1115481109 [ Run 18 of 100 GA/GALS ]
Beginning LAMARCKIAN GENETIC ALGORITHM (LGA), with a maximum of 25000000 energy evaluations.

Final-Value: -11.149


	FINAL GENETIC ALGORITHM DOCKED STATE
	_______________________________________________


Detailed state:  trans -11.626 -16.014 -6.945 quatxyzw 0.472836 -0.135280 -0.855734 0.160761 center 8.287 34.468 -0.670 ntor 10 -15.1947 -48.4581 -82.9666 122.8528 35.9654 24.4200 -51.6410 58.3361 -3.7562 34.2929
State:	-11.626 -16.014  -6.945   0.479 -0.137 -0.867 161.498    -15.19  -48.46  -82.97  122.85   35.97   24.42  -51.64   58.34   -3.76   34.29

DOCKED: MODEL       18
DOCKED: USER    Run = 18
DOCKED: USER    DPF = D:/Protein_go_brrr/autodock/final/AncA/heme_O2/dock.dpf
DOCKED: USER  
DOCKED: USER    Estimated Free Energy of Binding    =   -7.60 kcal/mol  [=(1)+(2)+(3)-(4)]
DOCKED: USER    Estimated Inhibition Constant, Ki   =    2.67 uM (micromolar)  [Temperature = 298.15 K]
DOCKED: USER    
DOCKED: USER    (1) Final Intermolecular Energy     =  -10.59 kcal/mol
DOCKED: USER        vdW + Hbond + desolv Energy     =   -7.00 kcal/mol
DOCKED: USER        Electrostatic Energy            =   -3.58 kcal/mol
DOCKED: USER    (2) Final Total Internal Energy     =   -0.56 kcal/mol
DOCKED: USER    (3) Torsional Free Energy           =   +2.98 kcal/mol
DOCKED: USER    (4) Unbound System's Energy  [=(2)] =   -0.56 kcal/mol
DOCKED: USER    
DOCKED: USER    
DOCKED: USER    NEWDPF move heme_O2_opt.pdbqt
DOCKED: USER    NEWDPF about 8.287000 34.468000 -0.670000
DOCKED: USER    NEWDPF tran0 -11.626303 -16.014462 -6.945386
DOCKED: USER    NEWDPF quaternion0 0.472836 -0.135280 -0.855734 0.160761
DOCKED: USER    NEWDPF axisangle0 0.479067 -0.137063 -0.867011 161.497827
DOCKED: USER    NEWDPF quat0 0.479067 -0.137063 -0.867011 161.497827
DOCKED: USER    NEWDPF dihe0 -15.19 -48.46 -82.97 122.85 35.97 24.42 -51.64 58.34 -3.76 34.29 
DOCKED: USER  keepresnum = 1 
DOCKED: USER  
DOCKED: REMARK  10 active torsions:
DOCKED: REMARK  status: ('A' for Active; 'I' for Inactive)
DOCKED: REMARK    1  A    between atoms: C_6  and  C_10 
DOCKED: REMARK    2  A    between atoms: C_10  and  C_11 
DOCKED: REMARK    3  A    between atoms: C_11  and  C_12 
DOCKED: REMARK    4  A    between atoms: C_12  and  O_14 
DOCKED: REMARK    5  A    between atoms: C_17  and  C_20 
DOCKED: REMARK    6  A    between atoms: C_24  and  C_27 
DOCKED: REMARK    7  A    between atoms: C_31  and  C_34 
DOCKED: REMARK    8  A    between atoms: C_34  and  C_35 
DOCKED: REMARK    9  A    between atoms: C_35  and  C_36 
DOCKED: REMARK   10  A    between atoms: C_36  and  O_38 
DOCKED: USER                              x       y       z     vdW  Elec       q    Type
DOCKED: USER                           _______ _______ _______ _____ _____    ______ ____
DOCKED: ROOT
DOCKED: ATOM      1  C   UNL d   1     -10.319 -17.145  -5.716 -0.14 +0.03    +0.064 A 
DOCKED: ATOM      2  C   UNL d   1     -12.648 -13.064  -5.021 -0.21 +0.01    +0.064 A 
DOCKED: ATOM      3  C   UNL d   1     -14.489 -13.253  -9.456 -0.26 +0.01    +0.064 C 
DOCKED: ATOM      4  C   UNL d   1     -12.480 -17.693 -10.013 -0.13 +0.02    +0.064 A 
DOCKED: ATOM      5  C   UNL d   1     -10.804 -16.021  -5.164 -0.10 +0.03    +0.066 A 
DOCKED: ATOM      6  C   UNL d   1     -10.487 -15.582  -3.876 -0.07 -0.01    -0.021 A 
DOCKED: ATOM      7  C   UNL d   1     -11.194 -14.423  -3.657 -0.07 -0.01    -0.025 A 
DOCKED: ATOM      8  C   UNL d   1     -11.886 -14.160  -4.837 -0.10 +0.02    +0.066 A 
DOCKED: ATOM      9  C   UNL d   1     -11.206 -13.647  -2.358 -0.19 +0.02    +0.051 C 
DOCKED: ATOM     10  C   UNL d   1     -13.379 -12.724  -6.242 -0.23 +0.01    +0.066 A 
DOCKED: ATOM     11  C   UNL d   1     -14.020 -11.495  -6.438 -0.26 -0.00    -0.021 A 
DOCKED: ATOM     12  C   UNL d   1     -14.541 -11.523  -7.718 -0.19 -0.00    +0.000 A 
DOCKED: ATOM     13  C   UNL d   1     -14.192 -12.800  -8.238 -0.22 +0.00    +0.070 A 
DOCKED: ATOM     14  C   UNL d   1     -14.107 -10.333  -5.455 -0.37 +0.00    +0.052 C 
DOCKED: ATOM     15  C   UNL d   1     -14.184 -14.551 -10.007 -0.20 +0.01    +0.066 A 
DOCKED: ATOM     16  C   UNL d   1     -14.664 -15.024 -11.228 -0.20 -0.01    -0.021 A 
DOCKED: ATOM     17  C   UNL d   1     -14.105 -16.289 -11.408 -0.18 +0.00    +0.000 A 
DOCKED: ATOM     18  C   UNL d   1     -13.314 -16.495 -10.269 -0.15 +0.02    +0.070 A 
DOCKED: ATOM     19  C   UNL d   1     -15.646 -14.258 -12.078 -0.01 +0.04    +0.052 C 
DOCKED: ATOM     20  C   UNL d   1     -11.744 -17.942  -8.913 -0.15 +0.02    +0.066 A 
DOCKED: ATOM     21  C   UNL d   1     -10.964 -19.082  -8.736 -0.12 -0.01    -0.025 A 
DOCKED: ATOM     22  C   UNL d   1     -10.320 -18.930  -7.529 -0.13 -0.01    -0.021 A 
DOCKED: ATOM     23  C   UNL d   1     -10.746 -17.706  -7.003 -0.16 +0.03    +0.066 A 
DOCKED: ATOM     24  C   UNL d   1     -10.843 -20.257  -9.671 -0.08 +0.02    +0.051 C 
DOCKED: ATOM     25  N   UNL d   1     -11.697 -15.180  -5.741 -0.11 -0.07    -0.248 N 
DOCKED: ATOM     26  N   UNL d   1     -13.488 -13.526  -7.332 -0.17 -0.02    -0.248 N 
DOCKED: ATOM     27  N   UNL d   1     -13.433 -15.462  -9.396 -0.01 -0.02    -0.248 N 
DOCKED: ATOM     28  N   UNL d   1     -11.646 -17.130  -7.827 -0.13 -0.07    -0.248 N 
DOCKED: ATOM     29 FE   UNL d   1     -12.562 -15.342  -7.583 -0.05 +0.00    +0.000 Fe
DOCKED: ATOM     30  O   UNL d   1     -13.560 -15.521  -6.403 -0.11 +0.00    +0.000 OA
DOCKED: ATOM     31  O   UNL d   1     -13.685 -16.438  -7.678 -0.11 +0.00    +0.000 OA
DOCKED: ENDROOT
DOCKED: BRANCH   6  32
DOCKED: ATOM     32  C   UNL d   1      -9.659 -16.292  -2.836 -0.08 +0.03    +0.052 C 
DOCKED: BRANCH  32  33
DOCKED: ATOM     33  C   UNL d   1      -8.159 -16.139  -3.066 -0.12 +0.12    +0.115 C 
DOCKED: BRANCH  33  34
DOCKED: ATOM     34  C   UNL d   1      -7.442 -15.606  -1.851 -0.02 +0.19    +0.139 C 
DOCKED: ATOM     35  O   UNL d   1      -6.906 -14.510  -1.899 -0.40 -1.22    -0.650 OA
DOCKED: BRANCH  34  36
DOCKED: ATOM     36  O   UNL d   1      -7.354 -16.327  -0.714 -0.00 -0.88    -0.776 OA
DOCKED: ATOM     37  H   UNL d   1      -7.909 -17.099  -0.554 +0.02 +0.14    +0.167 HD
DOCKED: ENDBRANCH  34  36
DOCKED: ENDBRANCH  33  34
DOCKED: ENDBRANCH  32  33
DOCKED: ENDBRANCH   6  32
DOCKED: BRANCH  22  38
DOCKED: ATOM     38  C   UNL d   1      -9.398 -19.938  -6.893 -0.09 +0.03    +0.052 C 
DOCKED: BRANCH  38  39
DOCKED: ATOM     39  C   UNL d   1      -8.143 -19.292  -6.309 -0.13 +0.10    +0.115 C 
DOCKED: BRANCH  39  40
DOCKED: ATOM     40  C   UNL d   1      -6.876 -19.870  -6.887 -0.02 +0.21    +0.139 C 
DOCKED: ATOM     41  O   UNL d   1      -5.806 -19.322  -6.671 -0.05 -1.15    -0.650 OA
DOCKED: BRANCH  40  42
DOCKED: ATOM     42  O   UNL d   1      -6.894 -21.013  -7.599 -0.56 -1.38    -0.776 OA
DOCKED: ATOM     43  H   UNL d   1      -7.384 -21.788  -7.297 +0.01 +0.17    +0.167 HD
DOCKED: ENDBRANCH  40  42
DOCKED: ENDBRANCH  39  40
DOCKED: ENDBRANCH  38  39
DOCKED: ENDBRANCH  22  38
DOCKED: BRANCH  12  44
DOCKED: ATOM     44  C   UNL d   1     -15.307 -10.354  -8.300 -0.28 +0.00    +0.004 C 
DOCKED: ATOM     45  C   UNL d   1     -14.832  -9.345  -9.029 -0.40 -0.00    +0.012 C 
DOCKED: ENDBRANCH  12  44
DOCKED: BRANCH  17  46
DOCKED: ATOM     46  C   UNL d   1     -14.296 -17.308 -12.500 -0.13 +0.00    +0.004 C 
DOCKED: ATOM     47  C   UNL d   1     -13.389 -17.770 -13.370 -0.14 +0.01    +0.012 C 
DOCKED: ENDBRANCH  17  46
DOCKED: TORSDOF 10
DOCKED: TER
DOCKED: ENDMDL
________________________________________________________________________________


	BEGINNING GENETIC ALGORITHM DOCKING 19 of 100
Run: 19 Seed: 1799272016 92918287 [ Run 19 of 100 GA/GALS ]
Beginning LAMARCKIAN GENETIC ALGORITHM (LGA), with a maximum of 25000000 energy evaluations.

Final-Value: -17.694


	FINAL GENETIC ALGORITHM DOCKED STATE
	_______________________________________________


Detailed state:  trans -4.686 -8.578 -3.182 quatxyzw 0.120774 0.442898 0.720305 -0.520016 center 8.287 34.468 -0.670 ntor 10 84.8409 -76.9379 27.5965 -15.7420 74.8290 -176.9760 40.4395 -71.0753 49.2309 89.6902
State:	 -4.686  -8.578  -3.182   0.141  0.519  0.843 -117.333     84.84  -76.94   27.60  -15.74   74.83 -176.98   40.44  -71.08   49.23   89.69

DOCKED: MODEL       19
DOCKED: USER    Run = 19
DOCKED: USER    DPF = D:/Protein_go_brrr/autodock/final/AncA/heme_O2/dock.dpf
DOCKED: USER  
DOCKED: USER    Estimated Free Energy of Binding    =  -14.74 kcal/mol  [=(1)+(2)+(3)-(4)]
DOCKED: USER    Estimated Inhibition Constant, Ki   =   15.70 pM (picomolar)  [Temperature = 298.15 K]
DOCKED: USER    
DOCKED: USER    (1) Final Intermolecular Energy     =  -17.72 kcal/mol
DOCKED: USER        vdW + Hbond + desolv Energy     =  -14.42 kcal/mol
DOCKED: USER        Electrostatic Energy            =   -3.30 kcal/mol
DOCKED: USER    (2) Final Total Internal Energy     =   +0.03 kcal/mol
DOCKED: USER    (3) Torsional Free Energy           =   +2.98 kcal/mol
DOCKED: USER    (4) Unbound System's Energy  [=(2)] =   +0.03 kcal/mol
DOCKED: USER    
DOCKED: USER    
DOCKED: USER    NEWDPF move heme_O2_opt.pdbqt
DOCKED: USER    NEWDPF about 8.287000 34.468000 -0.670000
DOCKED: USER    NEWDPF tran0 -4.686222 -8.577580 -3.182305
DOCKED: USER    NEWDPF quaternion0 0.120774 0.442898 0.720305 -0.520016
DOCKED: USER    NEWDPF axisangle0 0.141396 0.518521 0.843293 -117.333403
DOCKED: USER    NEWDPF quat0 0.141396 0.518521 0.843293 -117.333403
DOCKED: USER    NEWDPF dihe0 84.84 -76.94 27.60 -15.74 74.83 -176.98 40.44 -71.08 49.23 89.69 
DOCKED: USER  keepresnum = 1 
DOCKED: USER  
DOCKED: REMARK  10 active torsions:
DOCKED: REMARK  status: ('A' for Active; 'I' for Inactive)
DOCKED: REMARK    1  A    between atoms: C_6  and  C_10 
DOCKED: REMARK    2  A    between atoms: C_10  and  C_11 
DOCKED: REMARK    3  A    between atoms: C_11  and  C_12 
DOCKED: REMARK    4  A    between atoms: C_12  and  O_14 
DOCKED: REMARK    5  A    between atoms: C_17  and  C_20 
DOCKED: REMARK    6  A    between atoms: C_24  and  C_27 
DOCKED: REMARK    7  A    between atoms: C_31  and  C_34 
DOCKED: REMARK    8  A    between atoms: C_34  and  C_35 
DOCKED: REMARK    9  A    between atoms: C_35  and  C_36 
DOCKED: REMARK   10  A    between atoms: C_36  and  O_38 
DOCKED: USER                              x       y       z     vdW  Elec       q    Type
DOCKED: USER                           _______ _______ _______ _____ _____    ______ ____
DOCKED: ROOT
DOCKED: ATOM      1  C   UNL d   1      -4.776 -10.629  -2.649 -0.34 +0.05    +0.064 A 
DOCKED: ATOM      2  C   UNL d   1      -1.178  -7.541  -2.924 -0.36 +0.02    +0.064 A 
DOCKED: ATOM      3  C   UNL d   1      -4.153  -4.062  -4.387 -0.34 +0.01    +0.064 C 
DOCKED: ATOM      4  C   UNL d   1      -7.935  -7.099  -3.649 -0.40 +0.02    +0.064 A 
DOCKED: ATOM      5  C   UNL d   1      -3.555 -10.072  -2.603 -0.35 +0.04    +0.066 A 
DOCKED: ATOM      6  C   UNL d   1      -2.394 -10.762  -2.244 -0.32 -0.01    -0.021 A 
DOCKED: ATOM      7  C   UNL d   1      -1.358  -9.858  -2.282 -0.33 -0.01    -0.025 A 
DOCKED: ATOM      8  C   UNL d   1      -1.907  -8.653  -2.709 -0.39 +0.02    +0.066 A 
DOCKED: ATOM      9  C   UNL d   1       0.072 -10.164  -1.891 -0.20 +0.02    +0.051 C 
DOCKED: ATOM     10  C   UNL d   1      -1.694  -6.254  -3.394 -0.43 +0.01    +0.066 A 
DOCKED: ATOM     11  C   UNL d   1      -0.872  -5.182  -3.757 -0.46 -0.00    -0.021 A 
DOCKED: ATOM     12  C   UNL d   1      -1.711  -4.175  -4.199 -0.34 +0.00    +0.000 A 
DOCKED: ATOM     13  C   UNL d   1      -3.027  -4.698  -4.065 -0.39 +0.01    +0.070 A 
DOCKED: ATOM     14  C   UNL d   1       0.650  -5.129  -3.711 -0.57 +0.01    +0.052 C 
DOCKED: ATOM     15  C   UNL d   1      -5.505  -4.543  -4.234 -0.37 +0.01    +0.066 A 
DOCKED: ATOM     16  C   UNL d   1      -6.647  -3.768  -4.435 -0.48 -0.00    -0.021 A 
DOCKED: ATOM     17  C   UNL d   1      -7.738  -4.613  -4.230 -0.48 +0.00    +0.000 A 
DOCKED: ATOM     18  C   UNL d   1      -7.172  -5.856  -3.916 -0.40 +0.02    +0.070 A 
DOCKED: ATOM     19  C   UNL d   1      -6.597  -2.294  -4.748 -0.56 +0.00    +0.052 C 
DOCKED: ATOM     20  C   UNL d   1      -7.426  -8.297  -3.304 -0.36 +0.02    +0.066 A 
DOCKED: ATOM     21  C   UNL d   1      -8.194  -9.437  -3.081 -0.28 -0.01    -0.025 A 
DOCKED: ATOM     22  C   UNL d   1      -7.309 -10.459  -2.822 +0.14 -0.01    -0.021 A 
DOCKED: ATOM     23  C   UNL d   1      -6.029  -9.899  -2.878 +0.02 +0.04    +0.066 A 
DOCKED: ATOM     24  C   UNL d   1      -9.697  -9.544  -3.112 -0.49 +0.01    +0.051 C 
DOCKED: ATOM     25  N   UNL d   1      -3.271  -8.769  -2.843 -0.21 -0.10    -0.248 N 
DOCKED: ATOM     26  N   UNL d   1      -3.008  -5.962  -3.570 -0.26 -0.05    -0.248 N 
DOCKED: ATOM     27  N   UNL d   1      -5.819  -5.777  -3.850 -0.22 -0.08    -0.248 N 
DOCKED: ATOM     28  N   UNL d   1      -6.107  -8.575  -3.126 -0.09 -0.13    -0.248 N 
DOCKED: ATOM     29 FE   UNL d   1      -4.571  -7.276  -3.347 -0.09 +0.00    +0.000 Fe
DOCKED: ATOM     30  O   UNL d   1      -3.937  -7.108  -1.935 -0.35 +0.00    +0.000 OA
DOCKED: ATOM     31  O   UNL d   1      -5.458  -6.759  -2.156 -0.64 +0.00    +0.000 OA
DOCKED: ENDROOT
DOCKED: BRANCH   6  32
DOCKED: ATOM     32  C   UNL d   1      -2.278 -12.182  -1.752 -0.31 +0.05    +0.052 C 
DOCKED: BRANCH  32  33
DOCKED: ATOM     33  C   UNL d   1      -1.172 -12.964  -2.454 -0.21 +0.11    +0.115 C 
DOCKED: BRANCH  33  34
DOCKED: ATOM     34  C   UNL d   1      -1.562 -14.397  -2.719 -0.08 +0.20    +0.139 C 
DOCKED: ATOM     35  O   UNL d   1      -1.558 -15.203  -1.803 -0.03 -0.83    -0.650 OA
DOCKED: BRANCH  34  36
DOCKED: ATOM     36  O   UNL d   1      -1.889 -14.819  -3.958 +0.00 -1.39    -0.776 OA
DOCKED: ATOM     37  H   UNL d   1      -1.222 -15.100  -4.595 +0.05 +0.19    +0.167 HD
DOCKED: ENDBRANCH  34  36
DOCKED: ENDBRANCH  33  34
DOCKED: ENDBRANCH  32  33
DOCKED: ENDBRANCH   6  32
DOCKED: BRANCH  22  38
DOCKED: ATOM     38  C   UNL d   1      -7.682 -11.877  -2.477 -0.26 +0.04    +0.052 C 
DOCKED: BRANCH  38  39
DOCKED: ATOM     39  C   UNL d   1      -6.490 -12.686  -1.970 -0.22 +0.16    +0.115 C 
DOCKED: BRANCH  39  40
DOCKED: ATOM     40  C   UNL d   1      -6.565 -12.956  -0.488 -0.24 +0.18    +0.139 C 
DOCKED: ATOM     41  O   UNL d   1      -7.087 -12.138   0.252 -0.12 -0.70    -0.650 OA
DOCKED: BRANCH  40  42
DOCKED: ATOM     42  O   UNL d   1      -6.111 -14.113   0.032 -0.28 -1.51    -0.776 OA
DOCKED: ATOM     43  H   UNL d   1      -6.598 -14.939  -0.074 +0.03 +0.29    +0.167 HD
DOCKED: ENDBRANCH  40  42
DOCKED: ENDBRANCH  39  40
DOCKED: ENDBRANCH  38  39
DOCKED: ENDBRANCH  22  38
DOCKED: BRANCH  12  44
DOCKED: ATOM     44  C   UNL d   1      -1.181  -2.844  -4.689 -0.50 +0.00    +0.004 C 
DOCKED: ATOM     45  C   UNL d   1      -1.819  -1.676  -4.737 -0.65 +0.00    +0.012 C 
DOCKED: ENDBRANCH  12  44
DOCKED: BRANCH  17  46
DOCKED: ATOM     46  C   UNL d   1      -9.218  -4.337  -4.247 -0.60 +0.00    +0.004 C 
DOCKED: ATOM     47  C   UNL d   1      -9.846  -3.168  -4.064 -0.70 +0.00    +0.012 C 
DOCKED: ENDBRANCH  17  46
DOCKED: TORSDOF 10
DOCKED: TER
DOCKED: ENDMDL
________________________________________________________________________________


	BEGINNING GENETIC ALGORITHM DOCKING 20 of 100
Run: 20 Seed: 1775225945 1648292688 [ Run 20 of 100 GA/GALS ]
Beginning LAMARCKIAN GENETIC ALGORITHM (LGA), with a maximum of 25000000 energy evaluations.

Final-Value: -13.165


	FINAL GENETIC ALGORITHM DOCKED STATE
	_______________________________________________


Detailed state:  trans -11.458 -13.566 -1.576 quatxyzw -0.376491 -0.694723 0.605710 0.093432 center 8.287 34.468 -0.670 ntor 10 179.8022 8.6963 -47.8877 -37.1189 62.9991 98.1804 -74.8671 15.1107 -161.2727 -179.8537
State:	-11.458 -13.566  -1.576  -0.378 -0.698  0.608 169.278    179.80    8.70  -47.89  -37.12   63.00   98.18  -74.87   15.11 -161.27 -179.85

DOCKED: MODEL       20
DOCKED: USER    Run = 20
DOCKED: USER    DPF = D:/Protein_go_brrr/autodock/final/AncA/heme_O2/dock.dpf
DOCKED: USER  
DOCKED: USER    Estimated Free Energy of Binding    =   -8.01 kcal/mol  [=(1)+(2)+(3)-(4)]
DOCKED: USER    Estimated Inhibition Constant, Ki   =    1.34 uM (micromolar)  [Temperature = 298.15 K]
DOCKED: USER    
DOCKED: USER    (1) Final Intermolecular Energy     =  -11.00 kcal/mol
DOCKED: USER        vdW + Hbond + desolv Energy     =   -7.42 kcal/mol
DOCKED: USER        Electrostatic Energy            =   -3.57 kcal/mol
DOCKED: USER    (2) Final Total Internal Energy     =   -2.17 kcal/mol
DOCKED: USER    (3) Torsional Free Energy           =   +2.98 kcal/mol
DOCKED: USER    (4) Unbound System's Energy  [=(2)] =   -2.17 kcal/mol
DOCKED: USER    
DOCKED: USER    
DOCKED: USER    NEWDPF move heme_O2_opt.pdbqt
DOCKED: USER    NEWDPF about 8.287000 34.468000 -0.670000
DOCKED: USER    NEWDPF tran0 -11.457591 -13.566388 -1.576116
DOCKED: USER    NEWDPF quaternion0 -0.376491 -0.694723 0.605710 0.093432
DOCKED: USER    NEWDPF axisangle0 -0.378145 -0.697775 0.608372 169.277831
DOCKED: USER    NEWDPF quat0 -0.378145 -0.697775 0.608372 169.277831
DOCKED: USER    NEWDPF dihe0 179.80 8.70 -47.89 -37.12 63.00 98.18 -74.87 15.11 -161.27 -179.85 
DOCKED: USER  keepresnum = 1 
DOCKED: USER  
DOCKED: REMARK  10 active torsions:
DOCKED: REMARK  status: ('A' for Active; 'I' for Inactive)
DOCKED: REMARK    1  A    between atoms: C_6  and  C_10 
DOCKED: REMARK    2  A    between atoms: C_10  and  C_11 
DOCKED: REMARK    3  A    between atoms: C_11  and  C_12 
DOCKED: REMARK    4  A    between atoms: C_12  and  O_14 
DOCKED: REMARK    5  A    between atoms: C_17  and  C_20 
DOCKED: REMARK    6  A    between atoms: C_24  and  C_27 
DOCKED: REMARK    7  A    between atoms: C_31  and  C_34 
DOCKED: REMARK    8  A    between atoms: C_34  and  C_35 
DOCKED: REMARK    9  A    between atoms: C_35  and  C_36 
DOCKED: REMARK   10  A    between atoms: C_36  and  O_38 
DOCKED: USER                              x       y       z     vdW  Elec       q    Type
DOCKED: USER                           _______ _______ _______ _____ _____    ______ ____
DOCKED: ROOT
DOCKED: ATOM      1  C   UNL d   1      -9.506 -13.614  -0.746 -0.16 +0.04    +0.064 A 
DOCKED: ATOM      2  C   UNL d   1     -13.272 -16.466  -0.253 -0.11 +0.01    +0.064 A 
DOCKED: ATOM      3  C   UNL d   1     -15.874 -13.690  -3.189 -0.18 +0.01    +0.064 C 
DOCKED: ATOM      4  C   UNL d   1     -11.861 -11.013  -4.081 -0.33 +0.00    +0.064 A 
DOCKED: ATOM      5  C   UNL d   1     -10.318 -14.617  -0.374 -0.11 +0.03    +0.066 A 
DOCKED: ATOM      6  C   UNL d   1      -9.948 -15.638   0.507 -0.07 -0.01    -0.021 A 
DOCKED: ATOM      7  C   UNL d   1     -11.023 -16.488   0.616 -0.06 -0.01    -0.025 A 
DOCKED: ATOM      8  C   UNL d   1     -12.037 -15.937  -0.162 -0.10 +0.02    +0.066 A 
DOCKED: ATOM      9  C   UNL d   1     -11.032 -17.773   1.414 -0.01 +0.02    +0.051 C 
DOCKED: ATOM     10  C   UNL d   1     -14.383 -15.921  -1.035 -0.13 +0.01    +0.066 A 
DOCKED: ATOM     11  C   UNL d   1     -15.690 -16.417  -0.965 -0.11 -0.00    -0.021 A 
DOCKED: ATOM     12  C   UNL d   1     -16.459 -15.618  -1.791 -0.12 +0.00    +0.000 A 
DOCKED: ATOM     13  C   UNL d   1     -15.555 -14.666  -2.340 -0.12 +0.01    +0.070 A 
DOCKED: ATOM     14  C   UNL d   1     -16.189 -17.586  -0.124 -0.06 +0.01    +0.052 C 
DOCKED: ATOM     15  C   UNL d   1     -14.984 -12.729  -3.795 -0.18 +0.01    +0.066 A 
DOCKED: ATOM     16  C   UNL d   1     -15.350 -11.837  -4.802 -0.22 -0.00    -0.021 A 
DOCKED: ATOM     17  C   UNL d   1     -14.222 -11.063  -5.073 -0.31 +0.00    +0.000 A 
DOCKED: ATOM     18  C   UNL d   1     -13.239 -11.547  -4.198 -0.26 +0.00    +0.070 A 
DOCKED: ATOM     19  C   UNL d   1     -16.713 -11.839  -5.447 -0.13 +0.00    +0.052 C 
DOCKED: ATOM     20  C   UNL d   1     -10.881 -11.481  -3.284 -0.28 +0.01    +0.066 A 
DOCKED: ATOM     21  C   UNL d   1      -9.608 -10.924  -3.204 -0.26 -0.01    -0.025 A 
DOCKED: ATOM     22  C   UNL d   1      -8.932 -11.636  -2.239 -0.27 -0.01    -0.021 A 
DOCKED: ATOM     23  C   UNL d   1      -9.815 -12.616  -1.776 -0.22 +0.03    +0.066 A 
DOCKED: ATOM     24  C   UNL d   1      -9.063  -9.774  -4.011 -0.19 +0.02    +0.051 C 
DOCKED: ATOM     25  N   UNL d   1     -11.580 -14.820  -0.823 -0.04 -0.07    -0.248 N 
DOCKED: ATOM     26  N   UNL d   1     -14.294 -14.861  -1.878 -0.12 -0.03    -0.248 N 
DOCKED: ATOM     27  N   UNL d   1     -13.696 -12.607  -3.484 -0.13 -0.02    -0.248 N 
DOCKED: ATOM     28  N   UNL d   1     -10.984 -12.547  -2.447 -0.13 -0.07    -0.248 N 
DOCKED: ATOM     29 FE   UNL d   1     -12.628 -13.694  -2.167 -0.06 +0.00    +0.000 Fe
DOCKED: ATOM     30  O   UNL d   1     -12.261 -15.114  -2.688 -0.14 +0.00    +0.000 OA
DOCKED: ATOM     31  O   UNL d   1     -12.173 -13.878  -3.661 -0.21 +0.00    +0.000 OA
DOCKED: ENDROOT
DOCKED: BRANCH   6  32
DOCKED: ATOM     32  C   UNL d   1      -8.592 -15.884   1.116 -0.06 +0.04    +0.052 C 
DOCKED: BRANCH  32  33
DOCKED: ATOM     33  C   UNL d   1      -7.613 -16.530   0.141 -0.04 +0.12    +0.115 C 
DOCKED: BRANCH  33  34
DOCKED: ATOM     34  C   UNL d   1      -6.616 -15.542  -0.413 -0.11 +0.22    +0.139 C 
DOCKED: ATOM     35  O   UNL d   1      -6.893 -14.905  -1.417 -0.43 -1.13    -0.650 OA
DOCKED: BRANCH  34  36
DOCKED: ATOM     36  O   UNL d   1      -5.409 -15.364   0.161 -0.54 -1.76    -0.776 OA
DOCKED: ATOM     37  H   UNL d   1      -4.766 -14.734  -0.185 +0.02 +0.39    +0.167 HD
DOCKED: ENDBRANCH  34  36
DOCKED: ENDBRANCH  33  34
DOCKED: ENDBRANCH  32  33
DOCKED: ENDBRANCH   6  32
DOCKED: BRANCH  22  38
DOCKED: ATOM     38  C   UNL d   1      -7.496 -11.422  -1.834 -0.09 +0.04    +0.052 C 
DOCKED: BRANCH  38  39
DOCKED: ATOM     39  C   UNL d   1      -6.513 -12.029  -2.834 -0.01 +0.13    +0.115 C 
DOCKED: BRANCH  39  40
DOCKED: ATOM     40  C   UNL d   1      -5.112 -12.118  -2.282 -0.16 +0.21    +0.139 C 
DOCKED: ATOM     41  O   UNL d   1      -4.210 -11.492  -2.815 -0.22 -0.79    -0.650 OA
DOCKED: BRANCH  40  42
DOCKED: ATOM     42  O   UNL d   1      -4.844 -12.840  -1.177 -0.06 -1.34    -0.776 OA
DOCKED: ATOM     43  H   UNL d   1      -5.493 -13.446  -0.800 +0.04 +0.31    +0.167 HD
DOCKED: ENDBRANCH  40  42
DOCKED: ENDBRANCH  39  40
DOCKED: ENDBRANCH  38  39
DOCKED: ENDBRANCH  22  38
DOCKED: BRANCH  12  44
DOCKED: ATOM     44  C   UNL d   1     -17.945 -15.843  -1.970 -0.09 +0.00    +0.004 C 
DOCKED: ATOM     45  C   UNL d   1     -18.930 -14.955  -1.835 -0.11 +0.00    +0.012 C 
DOCKED: ENDBRANCH  12  44
DOCKED: BRANCH  17  46
DOCKED: ATOM     46  C   UNL d   1     -13.986  -9.983  -6.095 -0.46 +0.00    +0.004 C 
DOCKED: ATOM     47  C   UNL d   1     -14.340  -9.972  -7.386 -0.30 -0.00    +0.012 C 
DOCKED: ENDBRANCH  17  46
DOCKED: TORSDOF 10
DOCKED: TER
DOCKED: ENDMDL
________________________________________________________________________________


	BEGINNING GENETIC ALGORITHM DOCKING 21 of 100
Run: 21 Seed: 470756841 97113128 [ Run 21 of 100 GA/GALS ]
Beginning LAMARCKIAN GENETIC ALGORITHM (LGA), with a maximum of 25000000 energy evaluations.

Final-Value: -11.143


	FINAL GENETIC ALGORITHM DOCKED STATE
	_______________________________________________


Detailed state:  trans -11.993 -15.932 -7.471 quatxyzw -0.428555 0.131690 0.871494 -0.198737 center 8.287 34.468 -0.670 ntor 10 -52.0379 87.3117 -49.4900 148.3493 70.4517 -106.8745 -84.1522 29.5890 0.3934 25.0504
State:	-11.993 -15.932  -7.471  -0.437  0.134  0.889 -157.074    -52.04   87.31  -49.49  148.35   70.45 -106.87  -84.15   29.59    0.39   25.05

DOCKED: MODEL       21
DOCKED: USER    Run = 21
DOCKED: USER    DPF = D:/Protein_go_brrr/autodock/final/AncA/heme_O2/dock.dpf
DOCKED: USER  
DOCKED: USER    Estimated Free Energy of Binding    =   -7.52 kcal/mol  [=(1)+(2)+(3)-(4)]
DOCKED: USER    Estimated Inhibition Constant, Ki   =    3.09 uM (micromolar)  [Temperature = 298.15 K]
DOCKED: USER    
DOCKED: USER    (1) Final Intermolecular Energy     =  -10.50 kcal/mol
DOCKED: USER        vdW + Hbond + desolv Energy     =   -7.26 kcal/mol
DOCKED: USER        Electrostatic Energy            =   -3.24 kcal/mol
DOCKED: USER    (2) Final Total Internal Energy     =   -0.64 kcal/mol
DOCKED: USER    (3) Torsional Free Energy           =   +2.98 kcal/mol
DOCKED: USER    (4) Unbound System's Energy  [=(2)] =   -0.64 kcal/mol
DOCKED: USER    
DOCKED: USER    
DOCKED: USER    NEWDPF move heme_O2_opt.pdbqt
DOCKED: USER    NEWDPF about 8.287000 34.468000 -0.670000
DOCKED: USER    NEWDPF tran0 -11.992603 -15.932500 -7.470873
DOCKED: USER    NEWDPF quaternion0 -0.428555 0.131690 0.871494 -0.198737
DOCKED: USER    NEWDPF axisangle0 -0.437277 0.134370 0.889232 -157.073739
DOCKED: USER    NEWDPF quat0 -0.437277 0.134370 0.889232 -157.073739
DOCKED: USER    NEWDPF dihe0 -52.04 87.31 -49.49 148.35 70.45 -106.87 -84.15 29.59 0.39 25.05 
DOCKED: USER  keepresnum = 1 
DOCKED: USER  
DOCKED: REMARK  10 active torsions:
DOCKED: REMARK  status: ('A' for Active; 'I' for Inactive)
DOCKED: REMARK    1  A    between atoms: C_6  and  C_10 
DOCKED: REMARK    2  A    between atoms: C_10  and  C_11 
DOCKED: REMARK    3  A    between atoms: C_11  and  C_12 
DOCKED: REMARK    4  A    between atoms: C_12  and  O_14 
DOCKED: REMARK    5  A    between atoms: C_17  and  C_20 
DOCKED: REMARK    6  A    between atoms: C_24  and  C_27 
DOCKED: REMARK    7  A    between atoms: C_31  and  C_34 
DOCKED: REMARK    8  A    between atoms: C_34  and  C_35 
DOCKED: REMARK    9  A    between atoms: C_35  and  C_36 
DOCKED: REMARK   10  A    between atoms: C_36  and  O_38 
DOCKED: USER                              x       y       z     vdW  Elec       q    Type
DOCKED: USER                           _______ _______ _______ _____ _____    ______ ____
DOCKED: ROOT
DOCKED: ATOM      1  C   UNL d   1     -10.678 -17.223  -6.419 -0.16 +0.03    +0.064 A 
DOCKED: ATOM      2  C   UNL d   1     -12.651 -13.049  -5.303 -0.22 +0.01    +0.064 A 
DOCKED: ATOM      3  C   UNL d   1     -14.837 -12.835  -9.577 -0.25 +0.01    +0.064 C 
DOCKED: ATOM      4  C   UNL d   1     -13.197 -17.354 -10.551 -0.12 +0.02    +0.064 A 
DOCKED: ATOM      5  C   UNL d   1     -11.038 -16.106  -5.766 -0.15 +0.02    +0.066 A 
DOCKED: ATOM      6  C   UNL d   1     -10.592 -15.771  -4.484 -0.09 -0.01    -0.021 A 
DOCKED: ATOM      7  C   UNL d   1     -11.197 -14.584  -4.142 +0.05 -0.01    -0.025 A 
DOCKED: ATOM      8  C   UNL d   1     -11.958 -14.202  -5.244 -0.10 +0.02    +0.066 A 
DOCKED: ATOM      9  C   UNL d   1     -11.053 -13.893  -2.804 -0.18 +0.02    +0.051 C 
DOCKED: ATOM     10  C   UNL d   1     -13.448 -12.584  -6.439 -0.23 +0.00    +0.066 A 
DOCKED: ATOM     11  C   UNL d   1     -14.014 -11.306  -6.511 -0.28 -0.00    -0.021 A 
DOCKED: ATOM     12  C   UNL d   1     -14.633 -11.219  -7.744 -0.20 -0.00    +0.000 A 
DOCKED: ATOM     13  C   UNL d   1     -14.416 -12.481  -8.363 -0.20 +0.00    +0.070 A 
DOCKED: ATOM     14  C   UNL d   1     -13.943 -10.206  -5.459 -0.39 +0.00    +0.052 C 
DOCKED: ATOM     15  C   UNL d   1     -14.668 -14.113 -10.225 -0.20 +0.02    +0.066 A 
DOCKED: ATOM     16  C   UNL d   1     -15.273 -14.475 -11.428 -0.15 -0.01    -0.021 A 
DOCKED: ATOM     17  C   UNL d   1     -14.821 -15.761 -11.726 -0.17 +0.00    +0.000 A 
DOCKED: ATOM     18  C   UNL d   1     -13.961 -16.090 -10.669 -0.15 +0.02    +0.070 A 
DOCKED: ATOM     19  C   UNL d   1     -16.261 -13.594 -12.150 -0.07 +0.04    +0.052 C 
DOCKED: ATOM     20  C   UNL d   1     -12.397 -17.720  -9.530 -0.13 +0.02    +0.066 A 
DOCKED: ATOM     21  C   UNL d   1     -11.689 -18.917  -9.484 -0.11 -0.01    -0.025 A 
DOCKED: ATOM     22  C   UNL d   1     -10.945 -18.885  -8.326 -0.13 -0.01    -0.021 A 
DOCKED: ATOM     23  C   UNL d   1     -11.241 -17.672  -7.698 -0.16 +0.02    +0.066 A 
DOCKED: ATOM     24  C   UNL d   1     -11.724 -20.037 -10.491 -0.05 +0.02    +0.051 C 
DOCKED: ATOM     25  N   UNL d   1     -11.911 -15.173  -6.218 -0.15 -0.06    -0.248 N 
DOCKED: ATOM     26  N   UNL d   1     -13.698 -13.307  -7.560 -0.16 -0.01    -0.248 N 
DOCKED: ATOM     27  N   UNL d   1     -13.939 -15.109  -9.730 -0.08 -0.04    -0.248 N 
DOCKED: ATOM     28  N   UNL d   1     -12.159 -16.987  -8.411 -0.09 -0.05    -0.248 N 
DOCKED: ATOM     29 FE   UNL d   1     -12.925 -15.161  -7.991 -0.05 +0.00    +0.000 Fe
DOCKED: ATOM     30  O   UNL d   1     -13.839 -15.348  -6.746 -0.11 +0.00    +0.000 OA
DOCKED: ATOM     31  O   UNL d   1     -14.127 -16.172  -8.057 -0.10 +0.00    +0.000 OA
DOCKED: ENDROOT
DOCKED: BRANCH   6  32
DOCKED: ATOM     32  C   UNL d   1      -9.740 -16.598  -3.557 -0.09 +0.03    +0.052 C 
DOCKED: BRANCH  32  33
DOCKED: ATOM     33  C   UNL d   1      -8.247 -16.451  -3.836 -0.15 +0.11    +0.115 C 
DOCKED: BRANCH  33  34
DOCKED: ATOM     34  C   UNL d   1      -7.604 -15.387  -2.981 -0.04 +0.20    +0.139 C 
DOCKED: ATOM     35  O   UNL d   1      -7.709 -14.213  -3.299 -0.03 -0.87    -0.650 OA
DOCKED: BRANCH  34  36
DOCKED: ATOM     36  O   UNL d   1      -6.888 -15.705  -1.883 -0.55 -1.41    -0.776 OA
DOCKED: ATOM     37  H   UNL d   1      -7.238 -16.282  -1.194 +0.02 +0.21    +0.167 HD
DOCKED: ENDBRANCH  34  36
DOCKED: ENDBRANCH  33  34
DOCKED: ENDBRANCH  32  33
DOCKED: ENDBRANCH   6  32
DOCKED: BRANCH  22  38
DOCKED: ATOM     38  C   UNL d   1     -10.050 -19.990  -7.826 -0.10 +0.03    +0.052 C 
DOCKED: BRANCH  38  39
DOCKED: ATOM     39  C   UNL d   1      -8.636 -19.501  -7.522 -0.11 +0.10    +0.115 C 
DOCKED: BRANCH  39  40
DOCKED: ATOM     40  C   UNL d   1      -7.602 -20.586  -7.691 -0.01 +0.19    +0.139 C 
DOCKED: ATOM     41  O   UNL d   1      -7.713 -21.392  -8.600 -0.29 -0.82    -0.650 OA
DOCKED: BRANCH  40  42
DOCKED: ATOM     42  O   UNL d   1      -6.524 -20.651  -6.886 -0.48 -1.23    -0.776 OA
DOCKED: ATOM     43  H   UNL d   1      -6.538 -21.157  -6.064 +0.01 +0.16    +0.167 HD
DOCKED: ENDBRANCH  40  42
DOCKED: ENDBRANCH  39  40
DOCKED: ENDBRANCH  38  39
DOCKED: ENDBRANCH  22  38
DOCKED: BRANCH  12  44
DOCKED: ATOM     44  C   UNL d   1     -15.357  -9.967  -8.193 -0.30 -0.00    +0.004 C 
DOCKED: ATOM     45  C   UNL d   1     -15.171  -9.271  -9.313 -0.36 -0.00    +0.012 C 
DOCKED: ENDBRANCH  12  44
DOCKED: BRANCH  17  46
DOCKED: ATOM     46  C   UNL d   1     -15.167 -16.694 -12.855 -0.11 +0.00    +0.004 C 
DOCKED: ATOM     47  C   UNL d   1     -14.354 -17.518 -13.528 -0.09 +0.01    +0.012 C 
DOCKED: ENDBRANCH  17  46
DOCKED: TORSDOF 10
DOCKED: TER
DOCKED: ENDMDL
________________________________________________________________________________


	BEGINNING GENETIC ALGORITHM DOCKING 22 of 100
Run: 22 Seed: 1500182232 889732805 [ Run 22 of 100 GA/GALS ]
Beginning LAMARCKIAN GENETIC ALGORITHM (LGA), with a maximum of 25000000 energy evaluations.

Final-Value: -10.878


	FINAL GENETIC ALGORITHM DOCKED STATE
	_______________________________________________


Detailed state:  trans -11.238 -17.106 -5.898 quatxyzw 0.464004 0.873013 0.065455 -0.135143 center 8.287 34.468 -0.670 ntor 10 30.8158 130.7862 28.5956 -67.9910 126.7443 -46.4730 110.1275 -72.2947 -144.7855 159.5503
State:	-11.238 -17.106  -5.898   0.468  0.881  0.066 -164.466     30.82  130.79   28.60  -67.99  126.74  -46.47  110.13  -72.29 -144.79  159.55

DOCKED: MODEL       22
DOCKED: USER    Run = 22
DOCKED: USER    DPF = D:/Protein_go_brrr/autodock/final/AncA/heme_O2/dock.dpf
DOCKED: USER  
DOCKED: USER    Estimated Free Energy of Binding    =   -7.14 kcal/mol  [=(1)+(2)+(3)-(4)]
DOCKED: USER    Estimated Inhibition Constant, Ki   =    5.86 uM (micromolar)  [Temperature = 298.15 K]
DOCKED: USER    
DOCKED: USER    (1) Final Intermolecular Energy     =  -10.12 kcal/mol
DOCKED: USER        vdW + Hbond + desolv Energy     =   -6.21 kcal/mol
DOCKED: USER        Electrostatic Energy            =   -3.91 kcal/mol
DOCKED: USER    (2) Final Total Internal Energy     =   -0.76 kcal/mol
DOCKED: USER    (3) Torsional Free Energy           =   +2.98 kcal/mol
DOCKED: USER    (4) Unbound System's Energy  [=(2)] =   -0.76 kcal/mol
DOCKED: USER    
DOCKED: USER    
DOCKED: USER    NEWDPF move heme_O2_opt.pdbqt
DOCKED: USER    NEWDPF about 8.287000 34.468000 -0.670000
DOCKED: USER    NEWDPF tran0 -11.237609 -17.106315 -5.898477
DOCKED: USER    NEWDPF quaternion0 0.464004 0.873013 0.065455 -0.135143
DOCKED: USER    NEWDPF axisangle0 0.468300 0.881096 0.066061 -164.466235
DOCKED: USER    NEWDPF quat0 0.468300 0.881096 0.066061 -164.466235
DOCKED: USER    NEWDPF dihe0 30.82 130.79 28.60 -67.99 126.74 -46.47 110.13 -72.29 -144.79 159.55 
DOCKED: USER  keepresnum = 1 
DOCKED: USER  
DOCKED: REMARK  10 active torsions:
DOCKED: REMARK  status: ('A' for Active; 'I' for Inactive)
DOCKED: REMARK    1  A    between atoms: C_6  and  C_10 
DOCKED: REMARK    2  A    between atoms: C_10  and  C_11 
DOCKED: REMARK    3  A    between atoms: C_11  and  C_12 
DOCKED: REMARK    4  A    between atoms: C_12  and  O_14 
DOCKED: REMARK    5  A    between atoms: C_17  and  C_20 
DOCKED: REMARK    6  A    between atoms: C_24  and  C_27 
DOCKED: REMARK    7  A    between atoms: C_31  and  C_34 
DOCKED: REMARK    8  A    between atoms: C_34  and  C_35 
DOCKED: REMARK    9  A    between atoms: C_35  and  C_36 
DOCKED: REMARK   10  A    between atoms: C_36  and  O_38 
DOCKED: USER                              x       y       z     vdW  Elec       q    Type
DOCKED: USER                           _______ _______ _______ _____ _____    ______ ____
DOCKED: ROOT
DOCKED: ATOM      1  C   UNL d   1     -10.001 -18.308  -4.663 -0.04 +0.03    +0.064 A 
DOCKED: ATOM      2  C   UNL d   1     -11.689 -18.906  -9.062 -0.09 +0.02    +0.064 A 
DOCKED: ATOM      3  C   UNL d   1     -14.019 -14.709  -8.838 -0.18 +0.01    +0.064 C 
DOCKED: ATOM      4  C   UNL d   1     -11.903 -13.859  -4.495 -0.11 +0.02    +0.064 A 
DOCKED: ATOM      5  C   UNL d   1     -10.269 -18.812  -5.878 -0.06 +0.03    +0.066 A 
DOCKED: ATOM      6  C   UNL d   1      -9.795 -20.045  -6.336 -0.05 -0.01    -0.021 A 
DOCKED: ATOM      7  C   UNL d   1     -10.247 -20.200  -7.625 -0.07 -0.01    -0.025 A 
DOCKED: ATOM      8  C   UNL d   1     -11.025 -19.079  -7.903 -0.09 +0.03    +0.066 A 
DOCKED: ATOM      9  C   UNL d   1      -9.906 -21.364  -8.529 -0.05 +0.03    +0.051 C 
DOCKED: ATOM     10  C   UNL d   1     -12.537 -17.763  -9.402 -0.12 +0.02    +0.066 A 
DOCKED: ATOM     11  C   UNL d   1     -13.333 -17.710 -10.551 -0.10 -0.01    -0.021 A 
DOCKED: ATOM     12  C   UNL d   1     -14.027 -16.515 -10.496 -0.13 +0.00    +0.000 A 
DOCKED: ATOM     13  C   UNL d   1     -13.596 -15.887  -9.295 -0.05 +0.01    +0.070 A 
DOCKED: ATOM     14  C   UNL d   1     -13.448 -18.768 -11.643 -0.05 +0.02    +0.052 C 
DOCKED: ATOM     15  C   UNL d   1     -13.582 -14.023  -7.646 -0.19 +0.00    +0.066 A 
DOCKED: ATOM     16  C   UNL d   1     -13.941 -12.718  -7.308 -0.22 -0.00    -0.021 A 
DOCKED: ATOM     17  C   UNL d   1     -13.348 -12.454  -6.073 -0.27 +0.00    +0.000 A 
DOCKED: ATOM     18  C   UNL d   1     -12.664 -13.633  -5.746 -0.21 +0.01    +0.070 A 
DOCKED: ATOM     19  C   UNL d   1     -14.763 -11.832  -8.209 -0.24 +0.00    +0.052 C 
DOCKED: ATOM     20  C   UNL d   1     -11.200 -14.961  -4.168 -0.06 +0.02    +0.066 A 
DOCKED: ATOM     21  C   UNL d   1     -10.516 -15.123  -2.966 -0.10 -0.01    -0.025 A 
DOCKED: ATOM     22  C   UNL d   1      -9.991 -16.395  -2.985 -0.07 -0.01    -0.021 A 
DOCKED: ATOM     23  C   UNL d   1     -10.360 -16.958  -4.211 -0.07 +0.03    +0.066 A 
DOCKED: ATOM     24  C   UNL d   1     -10.369 -14.113  -1.858 -0.18 +0.02    +0.051 C 
DOCKED: ATOM     25  N   UNL d   1     -10.984 -18.194  -6.850 -0.06 -0.10    -0.248 N 
DOCKED: ATOM     26  N   UNL d   1     -12.686 -16.651  -8.638 -0.08 -0.04    -0.248 N 
DOCKED: ATOM     27  N   UNL d   1     -12.755 -14.547  -6.745 -0.15 -0.03    -0.248 N 
DOCKED: ATOM     28  N   UNL d   1     -11.056 -16.067  -4.945 -0.07 -0.09    -0.248 N 
DOCKED: ATOM     29 FE   UNL d   1     -11.866 -16.354  -6.778 -0.03 +0.00    +0.000 Fe
DOCKED: ATOM     30  O   UNL d   1     -10.672 -16.439  -7.773 -0.31 +0.00    +0.000 OA
DOCKED: ATOM     31  O   UNL d   1     -10.862 -15.149  -6.889 -0.33 +0.00    +0.000 OA
DOCKED: ENDROOT
DOCKED: BRANCH   6  32
DOCKED: ATOM     32  C   UNL d   1      -8.841 -20.982  -5.642 -0.03 +0.03    +0.052 C 
DOCKED: BRANCH  32  33
DOCKED: ATOM     33  C   UNL d   1      -7.477 -20.351  -5.379 -0.06 +0.09    +0.115 C 
DOCKED: BRANCH  33  34
DOCKED: ATOM     34  C   UNL d   1      -6.667 -20.185  -6.640 +0.04 +0.20    +0.139 C 
DOCKED: ATOM     35  O   UNL d   1      -6.893 -20.902  -7.602 -0.57 -1.20    -0.650 OA
DOCKED: BRANCH  34  36
DOCKED: ATOM     36  O   UNL d   1      -5.675 -19.275  -6.724 +0.01 -1.43    -0.776 OA
DOCKED: ATOM     37  H   UNL d   1      -5.149 -19.021  -5.957 +0.03 +0.23    +0.167 HD
DOCKED: ENDBRANCH  34  36
DOCKED: ENDBRANCH  33  34
DOCKED: ENDBRANCH  32  33
DOCKED: ENDBRANCH   6  32
DOCKED: BRANCH  22  38
DOCKED: ATOM     38  C   UNL d   1      -9.129 -17.006  -1.910 -0.03 +0.03    +0.052 C 
DOCKED: BRANCH  38  39
DOCKED: ATOM     39  C   UNL d   1      -7.641 -16.934  -2.246 -0.07 +0.12    +0.115 C 
DOCKED: BRANCH  39  40
DOCKED: ATOM     40  C   UNL d   1      -6.914 -15.902  -1.421 -0.01 +0.22    +0.139 C 
DOCKED: ATOM     41  O   UNL d   1      -6.293 -16.248  -0.428 -0.11 -0.97    -0.650 OA
DOCKED: BRANCH  40  42
DOCKED: ATOM     42  O   UNL d   1      -6.892 -14.606  -1.789 -0.38 -1.44    -0.776 OA
DOCKED: ATOM     43  H   UNL d   1      -7.066 -13.899  -1.156 +0.05 +0.23    +0.167 HD
DOCKED: ENDBRANCH  40  42
DOCKED: ENDBRANCH  39  40
DOCKED: ENDBRANCH  38  39
DOCKED: ENDBRANCH  22  38
DOCKED: BRANCH  12  44
DOCKED: ATOM     44  C   UNL d   1     -15.006 -16.104 -11.575 -0.15 +0.00    +0.004 C 
DOCKED: ATOM     45  C   UNL d   1     -15.396 -14.872 -11.900 -0.17 +0.01    +0.012 C 
DOCKED: ENDBRANCH  12  44
DOCKED: BRANCH  17  46
DOCKED: ATOM     46  C   UNL d   1     -13.327 -11.203  -5.235 -0.40 +0.00    +0.004 C 
DOCKED: ATOM     47  C   UNL d   1     -12.622 -10.082  -5.437 -0.52 +0.00    +0.012 C 
DOCKED: ENDBRANCH  17  46
DOCKED: TORSDOF 10
DOCKED: TER
DOCKED: ENDMDL
________________________________________________________________________________


	BEGINNING GENETIC ALGORITHM DOCKING 23 of 100
Run: 23 Seed: 881237434 968300732 [ Run 23 of 100 GA/GALS ]
Beginning LAMARCKIAN GENETIC ALGORITHM (LGA), with a maximum of 25000000 energy evaluations.

Final-Value: -11.388


	FINAL GENETIC ALGORITHM DOCKED STATE
	_______________________________________________


Detailed state:  trans -11.652 -14.816 1.906 quatxyzw 0.275704 0.371012 -0.840094 -0.283866 center 8.287 34.468 -0.670 ntor 10 -129.6548 -82.5452 -52.6343 129.9727 -79.5304 157.3708 63.3401 86.6366 -18.2391 -132.3300
State:	-11.652 -14.816   1.906   0.288  0.387 -0.876 -147.018   -129.65  -82.55  -52.63  129.97  -79.53  157.37   63.34   86.64  -18.24 -132.33

DOCKED: MODEL       23
DOCKED: USER    Run = 23
DOCKED: USER    DPF = D:/Protein_go_brrr/autodock/final/AncA/heme_O2/dock.dpf
DOCKED: USER  
DOCKED: USER    Estimated Free Energy of Binding    =   -8.16 kcal/mol  [=(1)+(2)+(3)-(4)]
DOCKED: USER    Estimated Inhibition Constant, Ki   =    1.05 uM (micromolar)  [Temperature = 298.15 K]
DOCKED: USER    
DOCKED: USER    (1) Final Intermolecular Energy     =  -11.14 kcal/mol
DOCKED: USER        vdW + Hbond + desolv Energy     =   -7.22 kcal/mol
DOCKED: USER        Electrostatic Energy            =   -3.92 kcal/mol
DOCKED: USER    (2) Final Total Internal Energy     =   -0.25 kcal/mol
DOCKED: USER    (3) Torsional Free Energy           =   +2.98 kcal/mol
DOCKED: USER    (4) Unbound System's Energy  [=(2)] =   -0.25 kcal/mol
DOCKED: USER    
DOCKED: USER    
DOCKED: USER    NEWDPF move heme_O2_opt.pdbqt
DOCKED: USER    NEWDPF about 8.287000 34.468000 -0.670000
DOCKED: USER    NEWDPF tran0 -11.652367 -14.816243 1.905721
DOCKED: USER    NEWDPF quaternion0 0.275704 0.371012 -0.840094 -0.283866
DOCKED: USER    NEWDPF axisangle0 0.287532 0.386928 -0.876135 -147.017822
DOCKED: USER    NEWDPF quat0 0.287532 0.386928 -0.876135 -147.017822
DOCKED: USER    NEWDPF dihe0 -129.65 -82.55 -52.63 129.97 -79.53 157.37 63.34 86.64 -18.24 -132.33 
DOCKED: USER  keepresnum = 1 
DOCKED: USER  
DOCKED: REMARK  10 active torsions:
DOCKED: REMARK  status: ('A' for Active; 'I' for Inactive)
DOCKED: REMARK    1  A    between atoms: C_6  and  C_10 
DOCKED: REMARK    2  A    between atoms: C_10  and  C_11 
DOCKED: REMARK    3  A    between atoms: C_11  and  C_12 
DOCKED: REMARK    4  A    between atoms: C_12  and  O_14 
DOCKED: REMARK    5  A    between atoms: C_17  and  C_20 
DOCKED: REMARK    6  A    between atoms: C_24  and  C_27 
DOCKED: REMARK    7  A    between atoms: C_31  and  C_34 
DOCKED: REMARK    8  A    between atoms: C_34  and  C_35 
DOCKED: REMARK    9  A    between atoms: C_35  and  C_36 
DOCKED: REMARK   10  A    between atoms: C_36  and  O_38 
DOCKED: USER                              x       y       z     vdW  Elec       q    Type
DOCKED: USER                           _______ _______ _______ _____ _____    ______ ____
DOCKED: ROOT
DOCKED: ATOM      1  C   UNL d   1      -9.756 -14.022   2.427 -0.19 +0.04    +0.064 A 
DOCKED: ATOM      2  C   UNL d   1     -13.358 -15.697   5.031 -0.15 +0.02    +0.064 A 
DOCKED: ATOM      3  C   UNL d   1     -15.947 -16.544   1.072 -0.13 +0.01    +0.064 C 
DOCKED: ATOM      4  C   UNL d   1     -12.064 -15.270  -1.642 -0.12 +0.02    +0.064 A 
DOCKED: ATOM      5  C   UNL d   1     -10.523 -14.410   3.458 -0.20 +0.03    +0.066 A 
DOCKED: ATOM      6  C   UNL d   1     -10.144 -14.306   4.799 -0.23 -0.01    -0.021 A 
DOCKED: ATOM      7  C   UNL d   1     -11.168 -14.831   5.552 -0.19 -0.01    -0.025 A 
DOCKED: ATOM      8  C   UNL d   1     -12.166 -15.196   4.653 -0.15 +0.02    +0.066 A 
DOCKED: ATOM      9  C   UNL d   1     -11.144 -14.986   7.057 -0.19 +0.02    +0.051 C 
DOCKED: ATOM     10  C   UNL d   1     -14.451 -16.077   4.135 -0.17 +0.01    +0.066 A 
DOCKED: ATOM     11  C   UNL d   1     -15.726 -16.436   4.587 -0.13 -0.00    -0.021 A 
DOCKED: ATOM     12  C   UNL d   1     -16.492 -16.667   3.460 -0.13 +0.00    +0.000 A 
DOCKED: ATOM     13  C   UNL d   1     -15.619 -16.442   2.360 -0.15 +0.01    +0.070 A 
DOCKED: ATOM     14  C   UNL d   1     -16.200 -16.529   6.033 -0.10 +0.00    +0.052 C 
DOCKED: ATOM     15  C   UNL d   1     -15.084 -16.359  -0.069 -0.11 +0.01    +0.066 A 
DOCKED: ATOM     16  C   UNL d   1     -15.444 -16.641  -1.387 -0.09 -0.00    -0.021 A 
DOCKED: ATOM     17  C   UNL d   1     -14.352 -16.286  -2.179 -0.09 +0.00    +0.000 A 
DOCKED: ATOM     18  C   UNL d   1     -13.395 -15.806  -1.273 -0.13 +0.01    +0.070 A 
DOCKED: ATOM     19  C   UNL d   1     -16.763 -17.268  -1.763 -0.04 +0.01    +0.052 C 
DOCKED: ATOM     20  C   UNL d   1     -11.107 -14.842  -0.796 -0.09 +0.02    +0.066 A 
DOCKED: ATOM     21  C   UNL d   1      -9.878 -14.330  -1.204 -0.14 -0.01    -0.025 A 
DOCKED: ATOM     22  C   UNL d   1      -9.218 -13.944  -0.059 -0.15 -0.01    -0.021 A 
DOCKED: ATOM     23  C   UNL d   1     -10.064 -14.253   1.011 -0.13 +0.04    +0.066 A 
DOCKED: ATOM     24  C   UNL d   1      -9.359 -14.218  -2.614 -0.14 +0.03    +0.051 C 
DOCKED: ATOM     25  N   UNL d   1     -11.741 -14.997   3.359 -0.14 -0.09    -0.248 N 
DOCKED: ATOM     26  N   UNL d   1     -14.378 -16.088   2.780 -0.12 -0.05    -0.248 N 
DOCKED: ATOM     27  N   UNL d   1     -13.828 -15.928   0.008 -0.07 -0.05    -0.248 N 
DOCKED: ATOM     28  N   UNL d   1     -11.192 -14.840   0.561 -0.04 -0.10    -0.248 N 
DOCKED: ATOM     29 FE   UNL d   1     -12.775 -15.460   1.660 -0.05 +0.00    +0.000 Fe
DOCKED: ATOM     30  O   UNL d   1     -12.288 -16.705   2.458 -0.10 +0.00    +0.000 OA
DOCKED: ATOM     31  O   UNL d   1     -12.220 -16.711   0.884 -0.10 +0.00    +0.000 OA
DOCKED: ENDROOT
DOCKED: BRANCH   6  32
DOCKED: ATOM     32  C   UNL d   1      -8.814 -13.859   5.350 -0.30 +0.03    +0.052 C 
DOCKED: BRANCH  32  33
DOCKED: ATOM     33  C   UNL d   1      -8.514 -12.393   5.055 -0.45 +0.06    +0.115 C 
DOCKED: BRANCH  33  34
DOCKED: ATOM     34  C   UNL d   1      -7.270 -12.217   4.220 -0.42 +0.14    +0.139 C 
DOCKED: ATOM     35  O   UNL d   1      -7.310 -11.522   3.217 -0.34 -0.67    -0.650 OA
DOCKED: BRANCH  34  36
DOCKED: ATOM     36  O   UNL d   1      -6.115 -12.836   4.539 -0.31 -1.43    -0.776 OA
DOCKED: ATOM     37  H   UNL d   1      -5.279 -12.358   4.603 +0.03 +0.24    +0.167 HD
DOCKED: ENDBRANCH  34  36
DOCKED: ENDBRANCH  33  34
DOCKED: ENDBRANCH  32  33
DOCKED: ENDBRANCH   6  32
DOCKED: BRANCH  22  38
DOCKED: ATOM     38  C   UNL d   1      -7.825 -13.371   0.002 -0.22 +0.05    +0.052 C 
DOCKED: BRANCH  38  39
DOCKED: ATOM     39  C   UNL d   1      -6.932 -13.893  -1.122 -0.18 +0.17    +0.115 C 
DOCKED: BRANCH  39  40
DOCKED: ATOM     40  C   UNL d   1      -6.112 -15.087  -0.699 +0.06 +0.27    +0.139 C 
DOCKED: ATOM     41  O   UNL d   1      -5.352 -14.993   0.252 -0.58 -1.61    -0.650 OA
DOCKED: BRANCH  40  42
DOCKED: ATOM     42  O   UNL d   1      -6.240 -16.274  -1.321 -0.32 -1.37    -0.776 OA
DOCKED: ATOM     43  H   UNL d   1      -6.967 -16.875  -1.118 +0.02 +0.19    +0.167 HD
DOCKED: ENDBRANCH  40  42
DOCKED: ENDBRANCH  39  40
DOCKED: ENDBRANCH  38  39
DOCKED: ENDBRANCH  22  38
DOCKED: BRANCH  12  44
DOCKED: ATOM     44  C   UNL d   1     -17.948 -17.074   3.547 -0.07 +0.00    +0.004 C 
DOCKED: ATOM     45  C   UNL d   1     -19.003 -16.461   3.011 -0.09 +0.00    +0.012 C 
DOCKED: ENDBRANCH  12  44
DOCKED: BRANCH  17  46
DOCKED: ATOM     46  C   UNL d   1     -14.124 -16.412  -3.662 -0.05 +0.00    +0.004 C 
DOCKED: ATOM     47  C   UNL d   1     -13.822 -15.447  -4.539 -0.07 +0.00    +0.012 C 
DOCKED: ENDBRANCH  17  46
DOCKED: TORSDOF 10
DOCKED: TER
DOCKED: ENDMDL
________________________________________________________________________________


	BEGINNING GENETIC ALGORITHM DOCKING 24 of 100
Run: 24 Seed: 315426667 1058842161 [ Run 24 of 100 GA/GALS ]
Beginning LAMARCKIAN GENETIC ALGORITHM (LGA), with a maximum of 25000000 energy evaluations.

Final-Value: -9.655


	FINAL GENETIC ALGORITHM DOCKED STATE
	_______________________________________________


Detailed state:  trans -4.486 1.894 -15.212 quatxyzw 0.079595 -0.983327 0.160847 0.029329 center 8.287 34.468 -0.670 ntor 10 34.4920 57.7121 -28.8818 43.3158 -81.9401 133.3865 48.1335 -69.7687 -164.5975 179.8886
State:	 -4.486   1.894 -15.212   0.080 -0.984  0.161 176.639     34.49   57.71  -28.88   43.32  -81.94  133.39   48.13  -69.77 -164.60  179.89

DOCKED: MODEL       24
DOCKED: USER    Run = 24
DOCKED: USER    DPF = D:/Protein_go_brrr/autodock/final/AncA/heme_O2/dock.dpf
DOCKED: USER  
DOCKED: USER    Estimated Free Energy of Binding    =   -6.02 kcal/mol  [=(1)+(2)+(3)-(4)]
DOCKED: USER    Estimated Inhibition Constant, Ki   =   38.49 uM (micromolar)  [Temperature = 298.15 K]
DOCKED: USER    
DOCKED: USER    (1) Final Intermolecular Energy     =   -9.01 kcal/mol
DOCKED: USER        vdW + Hbond + desolv Energy     =   -7.14 kcal/mol
DOCKED: USER        Electrostatic Energy            =   -1.87 kcal/mol
DOCKED: USER    (2) Final Total Internal Energy     =   -0.65 kcal/mol
DOCKED: USER    (3) Torsional Free Energy           =   +2.98 kcal/mol
DOCKED: USER    (4) Unbound System's Energy  [=(2)] =   -0.65 kcal/mol
DOCKED: USER    
DOCKED: USER    
DOCKED: USER    NEWDPF move heme_O2_opt.pdbqt
DOCKED: USER    NEWDPF about 8.287000 34.468000 -0.670000
DOCKED: USER    NEWDPF tran0 -4.485624 1.893529 -15.211606
DOCKED: USER    NEWDPF quaternion0 0.079595 -0.983327 0.160847 0.029329
DOCKED: USER    NEWDPF axisangle0 0.079629 -0.983751 0.160916 176.638709
DOCKED: USER    NEWDPF quat0 0.079629 -0.983751 0.160916 176.638709
DOCKED: USER    NEWDPF dihe0 34.49 57.71 -28.88 43.32 -81.94 133.39 48.13 -69.77 -164.60 179.89 
DOCKED: USER  keepresnum = 1 
DOCKED: USER  
DOCKED: REMARK  10 active torsions:
DOCKED: REMARK  status: ('A' for Active; 'I' for Inactive)
DOCKED: REMARK    1  A    between atoms: C_6  and  C_10 
DOCKED: REMARK    2  A    between atoms: C_10  and  C_11 
DOCKED: REMARK    3  A    between atoms: C_11  and  C_12 
DOCKED: REMARK    4  A    between atoms: C_12  and  O_14 
DOCKED: REMARK    5  A    between atoms: C_17  and  C_20 
DOCKED: REMARK    6  A    between atoms: C_24  and  C_27 
DOCKED: REMARK    7  A    between atoms: C_31  and  C_34 
DOCKED: REMARK    8  A    between atoms: C_34  and  C_35 
DOCKED: REMARK    9  A    between atoms: C_35  and  C_36 
DOCKED: REMARK   10  A    between atoms: C_36  and  O_38 
DOCKED: USER                              x       y       z     vdW  Elec       q    Type
DOCKED: USER                           _______ _______ _______ _____ _____    ______ ____
DOCKED: ROOT
DOCKED: ATOM      1  C   UNL d   1      -2.798   3.016 -14.588 -0.08 +0.00    +0.064 A 
DOCKED: ATOM      2  C   UNL d   1      -3.246  -0.885 -17.259 -0.15 -0.00    +0.064 A 
DOCKED: ATOM      3  C   UNL d   1      -8.017  -0.840 -16.688 -0.17 -0.02    +0.064 C 
DOCKED: ATOM      4  C   UNL d   1      -7.613   3.446 -14.335 -0.16 +0.00    +0.064 A 
DOCKED: ATOM      5  C   UNL d   1      -2.530   1.953 -15.362 -0.11 +0.00    +0.066 A 
DOCKED: ATOM      6  C   UNL d   1      -1.243   1.568 -15.747 -0.19 +0.00    -0.021 A 
DOCKED: ATOM      7  C   UNL d   1      -1.374   0.464 -16.556 -0.20 -0.00    -0.025 A 
DOCKED: ATOM      8  C   UNL d   1      -2.736   0.175 -16.604 -0.15 -0.00    +0.066 A 
DOCKED: ATOM      9  C   UNL d   1      -0.231  -0.237 -17.257 -0.19 +0.00    +0.051 C 
DOCKED: ATOM     10  C   UNL d   1      -4.661  -1.252 -17.326 -0.19 -0.00    +0.066 A 
DOCKED: ATOM     11  C   UNL d   1      -5.120  -2.452 -17.881 -0.27 +0.00    -0.021 A 
DOCKED: ATOM     12  C   UNL d   1      -6.492  -2.465 -17.710 -0.25 -0.00    +0.000 A 
DOCKED: ATOM     13  C   UNL d   1      -6.801  -1.240 -17.056 -0.12 -0.01    +0.070 A 
DOCKED: ATOM     14  C   UNL d   1      -4.282  -3.551 -18.523 -0.35 -0.01    +0.052 C 
DOCKED: ATOM     15  C   UNL d   1      -8.376   0.407 -16.057 -0.24 -0.02    +0.066 A 
DOCKED: ATOM     16  C   UNL d   1      -9.685   0.839 -15.845 -0.24 +0.01    -0.021 A 
DOCKED: ATOM     17  C   UNL d   1      -9.595   2.059 -15.176 -0.21 -0.00    +0.000 A 
DOCKED: ATOM     18  C   UNL d   1      -8.219   2.283 -15.026 -0.22 -0.01    +0.070 A 
DOCKED: ATOM     19  C   UNL d   1     -10.891   0.082 -16.343 -0.13 -0.05    +0.052 C 
DOCKED: ATOM     20  C   UNL d   1      -6.299   3.713 -14.211 -0.18 +0.01    +0.066 A 
DOCKED: ATOM     21  C   UNL d   1      -5.787   4.816 -13.533 -0.19 -0.01    -0.025 A 
DOCKED: ATOM     22  C   UNL d   1      -4.416   4.696 -13.571 -0.13 -0.00    -0.021 A 
DOCKED: ATOM     23  C   UNL d   1      -4.141   3.528 -14.290 -0.08 +0.01    +0.066 A 
DOCKED: ATOM     24  C   UNL d   1      -6.567   5.930 -12.885 -0.17 +0.02    +0.051 C 
DOCKED: ATOM     25  N   UNL d   1      -3.452   1.131 -15.922 -0.06 +0.00    -0.248 N 
DOCKED: ATOM     26  N   UNL d   1      -5.682  -0.506 -16.831 -0.10 +0.02    -0.248 N 
DOCKED: ATOM     27  N   UNL d   1      -7.494   1.308 -15.632 -0.15 +0.04    -0.248 N 
DOCKED: ATOM     28  N   UNL d   1      -5.287   2.958 -14.716 -0.06 -0.01    -0.248 N 
DOCKED: ATOM     29 FE   UNL d   1      -5.486   1.239 -15.766 -0.04 -0.00    +0.000 Fe
DOCKED: ATOM     30  O   UNL d   1      -4.949   1.539 -17.196 -0.07 -0.00    +0.000 OA
DOCKED: ATOM     31  O   UNL d   1      -6.141   2.390 -16.615 -0.07 -0.00    +0.000 OA
DOCKED: ENDROOT
DOCKED: BRANCH   6  32
DOCKED: ATOM     32  C   UNL d   1       0.054   2.288 -15.480 +0.06 -0.01    +0.052 C 
DOCKED: BRANCH  32  33
DOCKED: ATOM     33  C   UNL d   1       0.303   3.438 -16.450 -0.10 +0.00    +0.115 C 
DOCKED: BRANCH  33  34
DOCKED: ATOM     34  C   UNL d   1       1.712   3.440 -16.990 -0.09 +0.01    +0.139 C 
DOCKED: ATOM     35  O   UNL d   1       1.896   3.473 -18.196 +0.01 -0.10    -0.650 OA
DOCKED: BRANCH  34  36
DOCKED: ATOM     36  O   UNL d   1       2.780   3.378 -16.168 +0.04 -0.13    -0.776 OA
DOCKED: ATOM     37  H   UNL d   1       2.766   2.869 -15.349 -0.49 -0.03    +0.167 HD
DOCKED: ENDBRANCH  34  36
DOCKED: ENDBRANCH  33  34
DOCKED: ENDBRANCH  32  33
DOCKED: ENDBRANCH   6  32
DOCKED: BRANCH  22  38
DOCKED: ATOM     38  C   UNL d   1      -3.431   5.685 -13.003 -0.13 +0.02    +0.052 C 
DOCKED: BRANCH  38  39
DOCKED: ATOM     39  C   UNL d   1      -3.248   6.905 -13.902 -0.08 +0.05    +0.115 C 
DOCKED: BRANCH  39  40
DOCKED: ATOM     40  C   UNL d   1      -3.860   8.152 -13.313 -0.01 +0.14    +0.139 C 
DOCKED: ATOM     41  O   UNL d   1      -5.056   8.358 -13.439 -0.13 -0.65    -0.650 OA
DOCKED: BRANCH  40  42
DOCKED: ATOM     42  O   UNL d   1      -3.117   9.022 -12.602 -0.32 -1.29    -0.776 OA
DOCKED: ATOM     43  H   UNL d   1      -2.358   9.474 -12.991 +0.01 +0.14    +0.167 HD
DOCKED: ENDBRANCH  40  42
DOCKED: ENDBRANCH  39  40
DOCKED: ENDBRANCH  38  39
DOCKED: ENDBRANCH  22  38
DOCKED: BRANCH  12  44
DOCKED: ATOM     44  C   UNL d   1      -7.349  -3.621 -18.181 -0.28 -0.00    +0.004 C 
DOCKED: ATOM     45  C   UNL d   1      -8.464  -4.094 -17.625 -0.31 -0.00    +0.012 C 
DOCKED: ENDBRANCH  12  44
DOCKED: BRANCH  17  46
DOCKED: ATOM     46  C   UNL d   1     -10.662   3.025 -14.734 -0.22 -0.00    +0.004 C 
DOCKED: ATOM     47  C   UNL d   1     -11.884   2.750 -14.261 -0.22 -0.01    +0.012 C 
DOCKED: ENDBRANCH  17  46
DOCKED: TORSDOF 10
DOCKED: TER
DOCKED: ENDMDL
________________________________________________________________________________


	BEGINNING GENETIC ALGORITHM DOCKING 25 of 100
Run: 25 Seed: 2046459012 953344423 [ Run 25 of 100 GA/GALS ]
Beginning LAMARCKIAN GENETIC ALGORITHM (LGA), with a maximum of 25000000 energy evaluations.

Final-Value: -12.202


	FINAL GENETIC ALGORITHM DOCKED STATE
	_______________________________________________


Detailed state:  trans -0.334 -15.252 -2.823 quatxyzw 0.841722 0.214239 0.437780 -0.232280 center 8.287 34.468 -0.670 ntor 10 -49.3018 -24.1890 -22.8941 70.4950 -156.7864 -56.6330 32.4859 117.6137 173.3264 -0.5848
State:	 -0.334 -15.252  -2.823   0.865  0.220  0.450 -153.137    -49.30  -24.19  -22.89   70.50 -156.79  -56.63   32.49  117.61  173.33   -0.58

DOCKED: MODEL       25
DOCKED: USER    Run = 25
DOCKED: USER    DPF = D:/Protein_go_brrr/autodock/final/AncA/heme_O2/dock.dpf
DOCKED: USER  
DOCKED: USER    Estimated Free Energy of Binding    =   -8.47 kcal/mol  [=(1)+(2)+(3)-(4)]
DOCKED: USER    Estimated Inhibition Constant, Ki   =  620.10 nM (nanomolar)  [Temperature = 298.15 K]
DOCKED: USER    
DOCKED: USER    (1) Final Intermolecular Energy     =  -11.45 kcal/mol
DOCKED: USER        vdW + Hbond + desolv Energy     =   -7.34 kcal/mol
DOCKED: USER        Electrostatic Energy            =   -4.11 kcal/mol
DOCKED: USER    (2) Final Total Internal Energy     =   -0.75 kcal/mol
DOCKED: USER    (3) Torsional Free Energy           =   +2.98 kcal/mol
DOCKED: USER    (4) Unbound System's Energy  [=(2)] =   -0.75 kcal/mol
DOCKED: USER    
DOCKED: USER    
DOCKED: USER    NEWDPF move heme_O2_opt.pdbqt
DOCKED: USER    NEWDPF about 8.287000 34.468000 -0.670000
DOCKED: USER    NEWDPF tran0 -0.333934 -15.251774 -2.823008
DOCKED: USER    NEWDPF quaternion0 0.841722 0.214239 0.437780 -0.232280
DOCKED: USER    NEWDPF axisangle0 0.865392 0.220263 0.450090 -153.137352
DOCKED: USER    NEWDPF quat0 0.865392 0.220263 0.450090 -153.137352
DOCKED: USER    NEWDPF dihe0 -49.30 -24.19 -22.89 70.50 -156.79 -56.63 32.49 117.61 173.33 -0.58 
DOCKED: USER  keepresnum = 1 
DOCKED: USER  
DOCKED: REMARK  10 active torsions:
DOCKED: REMARK  status: ('A' for Active; 'I' for Inactive)
DOCKED: REMARK    1  A    between atoms: C_6  and  C_10 
DOCKED: REMARK    2  A    between atoms: C_10  and  C_11 
DOCKED: REMARK    3  A    between atoms: C_11  and  C_12 
DOCKED: REMARK    4  A    between atoms: C_12  and  O_14 
DOCKED: REMARK    5  A    between atoms: C_17  and  C_20 
DOCKED: REMARK    6  A    between atoms: C_24  and  C_27 
DOCKED: REMARK    7  A    between atoms: C_31  and  C_34 
DOCKED: REMARK    8  A    between atoms: C_34  and  C_35 
DOCKED: REMARK    9  A    between atoms: C_35  and  C_36 
DOCKED: REMARK   10  A    between atoms: C_36  and  O_38 
DOCKED: USER                              x       y       z     vdW  Elec       q    Type
DOCKED: USER                           _______ _______ _______ _____ _____    ______ ____
DOCKED: ROOT
DOCKED: ATOM      1  C   UNL d   1      -1.890 -16.626  -3.260 -0.03 +0.09    +0.064 A 
DOCKED: ATOM      2  C   UNL d   1       1.399 -14.535  -5.975 -0.29 +0.03    +0.064 A 
DOCKED: ATOM      3  C   UNL d   1       3.146 -12.152  -2.184 -0.21 +0.02    +0.064 C 
DOCKED: ATOM      4  C   UNL d   1       0.074 -14.659   0.704 -0.10 +0.04    +0.064 A 
DOCKED: ATOM      5  C   UNL d   1      -1.137 -16.253  -4.307 -0.13 +0.07    +0.066 A 
DOCKED: ATOM      6  C   UNL d   1      -1.336 -16.705  -5.615 -0.17 -0.02    -0.021 A 
DOCKED: ATOM      7  C   UNL d   1      -0.357 -16.134  -6.394 -0.27 -0.02    -0.025 A 
DOCKED: ATOM      8  C   UNL d   1       0.383 -15.310  -5.550 -0.24 +0.04    +0.066 A 
DOCKED: ATOM      9  C   UNL d   1      -0.153 -16.410  -7.868 -0.22 +0.03    +0.051 C 
DOCKED: ATOM     10  C   UNL d   1       2.196 -13.634  -5.141 -0.26 +0.03    +0.066 A 
DOCKED: ATOM     11  C   UNL d   1       3.130 -12.730  -5.660 -0.36 -0.01    -0.021 A 
DOCKED: ATOM     12  C   UNL d   1       3.632 -12.021  -4.584 -0.31 +0.00    +0.000 A 
DOCKED: ATOM     13  C   UNL d   1       2.970 -12.553  -3.443 -0.17 +0.02    +0.070 A 
DOCKED: ATOM     14  C   UNL d   1       3.507 -12.532  -7.124 -0.19 +0.02    +0.052 C 
DOCKED: ATOM     15  C   UNL d   1       2.522 -12.688  -0.999 -0.13 +0.02    +0.066 A 
DOCKED: ATOM     16  C   UNL d   1       2.870 -12.337   0.305 -0.21 -0.01    -0.021 A 
DOCKED: ATOM     17  C   UNL d   1       2.008 -13.040   1.147 -0.18 +0.00    +0.000 A 
DOCKED: ATOM     18  C   UNL d   1       1.186 -13.776   0.281 -0.11 +0.03    +0.070 A 
DOCKED: ATOM     19  C   UNL d   1       4.017 -11.414   0.630 -0.25 +0.01    +0.052 C 
DOCKED: ATOM     20  C   UNL d   1      -0.705 -15.412  -0.096 -0.08 +0.05    +0.066 A 
DOCKED: ATOM     21  C   UNL d   1      -1.750 -16.212   0.359 -0.09 -0.02    -0.025 A 
DOCKED: ATOM     22  C   UNL d   1      -2.338 -16.759  -0.759 -0.08 -0.02    -0.021 A 
DOCKED: ATOM     23  C   UNL d   1      -1.616 -16.285  -1.859 -0.07 +0.08    +0.066 A 
DOCKED: ATOM     24  C   UNL d   1      -2.163 -16.445   1.789 -0.01 +0.06    +0.051 C 
DOCKED: ATOM     25  N   UNL d   1      -0.057 -15.435  -4.252 -0.08 -0.19    -0.248 N 
DOCKED: ATOM     26  N   UNL d   1       2.102 -13.537  -3.791 -0.08 -0.10    -0.248 N 
DOCKED: ATOM     27  N   UNL d   1       1.561 -13.608  -1.013 -0.04 -0.10    -0.248 N 
DOCKED: ATOM     28  N   UNL d   1      -0.596 -15.503  -1.448 -0.04 -0.21    -0.248 N 
DOCKED: ATOM     29 FE   UNL d   1       0.744 -14.526  -2.608 -0.02 +0.00    +0.000 Fe
DOCKED: ATOM     30  O   UNL d   1       1.660 -15.620  -3.230 -0.06 +0.00    +0.000 OA
DOCKED: ATOM     31  O   UNL d   1       1.552 -15.490  -1.664 -0.04 +0.00    +0.000 OA
DOCKED: ENDROOT
DOCKED: BRANCH   6  32
DOCKED: ATOM     32  C   UNL d   1      -2.320 -17.741  -6.094 -0.19 +0.06    +0.052 C 
DOCKED: BRANCH  32  33
DOCKED: ATOM     33  C   UNL d   1      -1.669 -19.092  -6.372 -0.08 +0.10    +0.115 C 
DOCKED: BRANCH  33  34
DOCKED: ATOM     34  C   UNL d   1      -2.375 -19.856  -7.465 -0.02 +0.19    +0.139 C 
DOCKED: ATOM     35  O   UNL d   1      -2.584 -19.317  -8.540 -0.30 -1.32    -0.650 OA
DOCKED: BRANCH  34  36
DOCKED: ATOM     36  O   UNL d   1      -2.809 -21.119  -7.272 -0.00 -0.97    -0.776 OA
DOCKED: ATOM     37  H   UNL d   1      -2.242 -21.802  -6.897 +0.01 +0.14    +0.167 HD
DOCKED: ENDBRANCH  34  36
DOCKED: ENDBRANCH  33  34
DOCKED: ENDBRANCH  32  33
DOCKED: ENDBRANCH   6  32
DOCKED: BRANCH  22  38
DOCKED: ATOM     38  C   UNL d   1      -3.488 -17.732  -0.759 -0.06 +0.06    +0.052 C 
DOCKED: BRANCH  38  39
DOCKED: ATOM     39  C   UNL d   1      -4.820 -17.060  -1.087 -0.07 +0.18    +0.115 C 
DOCKED: BRANCH  39  40
DOCKED: ATOM     40  C   UNL d   1      -5.220 -16.038  -0.052 -0.00 +0.27    +0.139 C 
DOCKED: ATOM     41  O   UNL d   1      -4.836 -14.884  -0.159 -0.43 -1.52    -0.650 OA
DOCKED: BRANCH  40  42
DOCKED: ATOM     42  O   UNL d   1      -6.039 -16.364   0.966 -0.22 -1.44    -0.776 OA
DOCKED: ATOM     43  H   UNL d   1      -6.627 -17.127   0.917 +0.01 +0.20    +0.167 HD
DOCKED: ENDBRANCH  40  42
DOCKED: ENDBRANCH  39  40
DOCKED: ENDBRANCH  38  39
DOCKED: ENDBRANCH  22  38
DOCKED: BRANCH  12  44
DOCKED: ATOM     44  C   UNL d   1       4.672 -10.934  -4.753 -0.48 +0.00    +0.004 C 
DOCKED: ATOM     45  C   UNL d   1       4.883  -9.874  -3.973 -0.40 +0.00    +0.012 C 
DOCKED: ENDBRANCH  12  44
DOCKED: BRANCH  17  46
DOCKED: ATOM     46  C   UNL d   1       1.937 -13.116   2.648 -0.22 +0.00    +0.004 C 
DOCKED: ATOM     47  C   UNL d   1       1.667 -12.133   3.516 -0.37 +0.00    +0.012 C 
DOCKED: ENDBRANCH  17  46
DOCKED: TORSDOF 10
DOCKED: TER
DOCKED: ENDMDL
________________________________________________________________________________


	BEGINNING GENETIC ALGORITHM DOCKING 26 of 100
Run: 26 Seed: 831194411 818084469 [ Run 26 of 100 GA/GALS ]
Beginning LAMARCKIAN GENETIC ALGORITHM (LGA), with a maximum of 25000000 energy evaluations.

Final-Value: -18.621


	FINAL GENETIC ALGORITHM DOCKED STATE
	_______________________________________________


Detailed state:  trans -4.733 -8.562 -3.195 quatxyzw 0.124731 0.435330 0.713990 -0.533993 center 8.287 34.468 -0.670 ntor 10 108.7647 -76.3538 26.3945 -19.9480 70.9790 11.7381 20.3712 64.1621 54.2950 149.5398
State:	 -4.733  -8.562  -3.195   0.148  0.515  0.844 -115.449    108.76  -76.35   26.39  -19.95   70.98   11.74   20.37   64.16   54.30  149.54

DOCKED: MODEL       26
DOCKED: USER    Run = 26
DOCKED: USER    DPF = D:/Protein_go_brrr/autodock/final/AncA/heme_O2/dock.dpf
DOCKED: USER  
DOCKED: USER    Estimated Free Energy of Binding    =  -15.36 kcal/mol  [=(1)+(2)+(3)-(4)]
DOCKED: USER    Estimated Inhibition Constant, Ki   =    5.49 pM (picomolar)  [Temperature = 298.15 K]
DOCKED: USER    
DOCKED: USER    (1) Final Intermolecular Energy     =  -18.35 kcal/mol
DOCKED: USER        vdW + Hbond + desolv Energy     =  -14.41 kcal/mol
DOCKED: USER        Electrostatic Energy            =   -3.94 kcal/mol
DOCKED: USER    (2) Final Total Internal Energy     =   -0.28 kcal/mol
DOCKED: USER    (3) Torsional Free Energy           =   +2.98 kcal/mol
DOCKED: USER    (4) Unbound System's Energy  [=(2)] =   -0.28 kcal/mol
DOCKED: USER    
DOCKED: USER    
DOCKED: USER    NEWDPF move heme_O2_opt.pdbqt
DOCKED: USER    NEWDPF about 8.287000 34.468000 -0.670000
DOCKED: USER    NEWDPF tran0 -4.733407 -8.562114 -3.194991
DOCKED: USER    NEWDPF quaternion0 0.124731 0.435330 0.713990 -0.533993
DOCKED: USER    NEWDPF axisangle0 0.147526 0.514885 0.844470 -115.448738
DOCKED: USER    NEWDPF quat0 0.147526 0.514885 0.844470 -115.448738
DOCKED: USER    NEWDPF dihe0 108.76 -76.35 26.39 -19.95 70.98 11.74 20.37 64.16 54.30 149.54 
DOCKED: USER  keepresnum = 1 
DOCKED: USER  
DOCKED: REMARK  10 active torsions:
DOCKED: REMARK  status: ('A' for Active; 'I' for Inactive)
DOCKED: REMARK    1  A    between atoms: C_6  and  C_10 
DOCKED: REMARK    2  A    between atoms: C_10  and  C_11 
DOCKED: REMARK    3  A    between atoms: C_11  and  C_12 
DOCKED: REMARK    4  A    between atoms: C_12  and  O_14 
DOCKED: REMARK    5  A    between atoms: C_17  and  C_20 
DOCKED: REMARK    6  A    between atoms: C_24  and  C_27 
DOCKED: REMARK    7  A    between atoms: C_31  and  C_34 
DOCKED: REMARK    8  A    between atoms: C_34  and  C_35 
DOCKED: REMARK    9  A    between atoms: C_35  and  C_36 
DOCKED: REMARK   10  A    between atoms: C_36  and  O_38 
DOCKED: USER                              x       y       z     vdW  Elec       q    Type
DOCKED: USER                           _______ _______ _______ _____ _____    ______ ____
DOCKED: ROOT
DOCKED: ATOM      1  C   UNL d   1      -4.896 -10.612  -2.676 -0.33 +0.05    +0.064 A 
DOCKED: ATOM      2  C   UNL d   1      -1.197  -7.640  -2.885 -0.35 +0.02    +0.064 A 
DOCKED: ATOM      3  C   UNL d   1      -4.041  -4.059  -4.364 -0.34 +0.01    +0.064 C 
DOCKED: ATOM      4  C   UNL d   1      -7.927  -6.977  -3.694 -0.40 +0.02    +0.064 A 
DOCKED: ATOM      5  C   UNL d   1      -3.658 -10.096  -2.610 -0.35 +0.04    +0.066 A 
DOCKED: ATOM      6  C   UNL d   1      -2.524 -10.825  -2.241 -0.33 -0.01    -0.021 A 
DOCKED: ATOM      7  C   UNL d   1      -1.460  -9.954  -2.259 -0.33 -0.01    -0.025 A 
DOCKED: ATOM      8  C   UNL d   1      -1.965  -8.729  -2.686 -0.38 +0.02    +0.066 A 
DOCKED: ATOM      9  C   UNL d   1      -0.046 -10.307  -1.852 -0.25 +0.02    +0.051 C 
DOCKED: ATOM     10  C   UNL d   1      -1.666  -6.335  -3.353 -0.44 +0.01    +0.066 A 
DOCKED: ATOM     11  C   UNL d   1      -0.806  -5.287  -3.699 -0.47 -0.00    -0.021 A 
DOCKED: ATOM     12  C   UNL d   1      -1.606  -4.252  -4.145 -0.35 +0.00    +0.000 A 
DOCKED: ATOM     13  C   UNL d   1      -2.940  -4.733  -4.032 -0.39 +0.01    +0.070 A 
DOCKED: ATOM     14  C   UNL d   1       0.717  -5.284  -3.633 -0.53 +0.01    +0.052 C 
DOCKED: ATOM     15  C   UNL d   1      -5.409  -4.497  -4.232 -0.36 +0.01    +0.066 A 
DOCKED: ATOM     16  C   UNL d   1      -6.523  -3.685  -4.443 -0.47 -0.00    -0.021 A 
DOCKED: ATOM     17  C   UNL d   1      -7.643  -4.495  -4.257 -0.49 +0.00    +0.000 A 
DOCKED: ATOM     18  C   UNL d   1      -7.121  -5.758  -3.944 -0.41 +0.02    +0.070 A 
DOCKED: ATOM     19  C   UNL d   1      -6.421  -2.211  -4.746 -0.55 +0.00    +0.052 C 
DOCKED: ATOM     20  C   UNL d   1      -7.461  -8.193  -3.350 -0.38 +0.02    +0.066 A 
DOCKED: ATOM     21  C   UNL d   1      -8.268  -9.309  -3.145 -0.34 -0.01    -0.025 A 
DOCKED: ATOM     22  C   UNL d   1      -7.419 -10.360  -2.881 +0.15 -0.01    -0.021 A 
DOCKED: ATOM     23  C   UNL d   1      -6.122  -9.841  -2.916 +0.05 +0.04    +0.066 A 
DOCKED: ATOM     24  C   UNL d   1      -9.773  -9.368  -3.195 -0.51 +0.01    +0.051 C 
DOCKED: ATOM     25  N   UNL d   1      -3.330  -8.800  -2.839 -0.20 -0.10    -0.248 N 
DOCKED: ATOM     26  N   UNL d   1      -2.967  -5.999  -3.545 -0.26 -0.06    -0.248 N 
DOCKED: ATOM     27  N   UNL d   1      -5.767  -5.723  -3.860 -0.24 -0.07    -0.248 N 
DOCKED: ATOM     28  N   UNL d   1      -6.154  -8.514  -3.157 -0.11 -0.13    -0.248 N 
DOCKED: ATOM     29 FE   UNL d   1      -4.574  -7.264  -3.350 -0.09 +0.00    +0.000 Fe
DOCKED: ATOM     30  O   UNL d   1      -3.954  -7.124  -1.929 -0.37 +0.00    +0.000 OA
DOCKED: ATOM     31  O   UNL d   1      -5.460  -6.726  -2.167 -0.68 +0.00    +0.000 OA
DOCKED: ENDROOT
DOCKED: BRANCH   6  32
DOCKED: ATOM     32  C   UNL d   1      -2.461 -12.250  -1.756 -0.31 +0.06    +0.052 C 
DOCKED: BRANCH  32  33
DOCKED: ATOM     33  C   UNL d   1      -1.295 -13.029  -2.357 -0.21 +0.11    +0.115 C 
DOCKED: BRANCH  33  34
DOCKED: ATOM     34  C   UNL d   1      -1.475 -14.521  -2.231 -0.12 +0.18    +0.139 C 
DOCKED: ATOM     35  O   UNL d   1      -1.220 -15.073  -1.172 +0.01 -0.66    -0.650 OA
DOCKED: BRANCH  34  36
DOCKED: ATOM     36  O   UNL d   1      -1.886 -15.271  -3.275 -0.17 -1.45    -0.776 OA
DOCKED: ATOM     37  H   UNL d   1      -1.294 -15.880  -3.731 +0.03 +0.21    +0.167 HD
DOCKED: ENDBRANCH  34  36
DOCKED: ENDBRANCH  33  34
DOCKED: ENDBRANCH  32  33
DOCKED: ENDBRANCH   6  32
DOCKED: BRANCH  22  38
DOCKED: ATOM     38  C   UNL d   1      -7.842 -11.768  -2.549 -0.26 +0.04    +0.052 C 
DOCKED: BRANCH  38  39
DOCKED: ATOM     39  C   UNL d   1      -7.598 -12.119  -1.083 -0.19 +0.10    +0.115 C 
DOCKED: BRANCH  39  40
DOCKED: ATOM     40  C   UNL d   1      -6.602 -13.240  -0.917 -0.21 +0.19    +0.139 C 
DOCKED: ATOM     41  O   UNL d   1      -5.982 -13.350   0.128 -0.16 -1.13    -0.650 OA
DOCKED: BRANCH  40  42
DOCKED: ATOM     42  O   UNL d   1      -6.420 -14.158  -1.886 +0.04 -1.81    -0.776 OA
DOCKED: ATOM     43  H   UNL d   1      -7.073 -14.847  -2.059 +0.03 +0.31    +0.167 HD
DOCKED: ENDBRANCH  40  42
DOCKED: ENDBRANCH  39  40
DOCKED: ENDBRANCH  38  39
DOCKED: ENDBRANCH  22  38
DOCKED: BRANCH  12  44
DOCKED: ATOM     44  C   UNL d   1      -1.027  -2.935  -4.620 -0.47 +0.00    +0.004 C 
DOCKED: ATOM     45  C   UNL d   1      -1.634  -1.751  -4.690 -0.63 +0.00    +0.012 C 
DOCKED: ENDBRANCH  12  44
DOCKED: BRANCH  17  46
DOCKED: ATOM     46  C   UNL d   1      -9.113  -4.173  -4.291 -0.61 +0.00    +0.004 C 
DOCKED: ATOM     47  C   UNL d   1      -9.711  -3.002  -4.034 -0.69 +0.00    +0.012 C 
DOCKED: ENDBRANCH  17  46
DOCKED: TORSDOF 10
DOCKED: TER
DOCKED: ENDMDL
________________________________________________________________________________


	BEGINNING GENETIC ALGORITHM DOCKING 27 of 100
Run: 27 Seed: 693647067 450133982 [ Run 27 of 100 GA/GALS ]
Beginning LAMARCKIAN GENETIC ALGORITHM (LGA), with a maximum of 25000000 energy evaluations.

Final-Value: -13.619


	FINAL GENETIC ALGORITHM DOCKED STATE
	_______________________________________________


Detailed state:  trans -6.614 -10.233 -2.201 quatxyzw 0.951937 0.189339 -0.017030 0.240158 center 8.287 34.468 -0.670 ntor 10 76.9127 8.7962 58.2076 -127.7529 -51.8297 109.0016 60.0363 -149.3088 161.7957 -9.7698
State:	 -6.614 -10.233  -2.201   0.981  0.195 -0.018 152.208     76.91    8.80   58.21 -127.75  -51.83  109.00   60.04 -149.31  161.80   -9.77

DOCKED: MODEL       27
DOCKED: USER    Run = 27
DOCKED: USER    DPF = D:/Protein_go_brrr/autodock/final/AncA/heme_O2/dock.dpf
DOCKED: USER  
DOCKED: USER    Estimated Free Energy of Binding    =   -9.99 kcal/mol  [=(1)+(2)+(3)-(4)]
DOCKED: USER    Estimated Inhibition Constant, Ki   =   47.89 nM (nanomolar)  [Temperature = 298.15 K]
DOCKED: USER    
DOCKED: USER    (1) Final Intermolecular Energy     =  -12.97 kcal/mol
DOCKED: USER        vdW + Hbond + desolv Energy     =  -11.63 kcal/mol
DOCKED: USER        Electrostatic Energy            =   -1.34 kcal/mol
DOCKED: USER    (2) Final Total Internal Energy     =   -0.65 kcal/mol
DOCKED: USER    (3) Torsional Free Energy           =   +2.98 kcal/mol
DOCKED: USER    (4) Unbound System's Energy  [=(2)] =   -0.65 kcal/mol
DOCKED: USER    
DOCKED: USER    
DOCKED: USER    NEWDPF move heme_O2_opt.pdbqt
DOCKED: USER    NEWDPF about 8.287000 34.468000 -0.670000
DOCKED: USER    NEWDPF tran0 -6.614103 -10.232914 -2.200731
DOCKED: USER    NEWDPF quaternion0 0.951937 0.189339 -0.017030 0.240158
DOCKED: USER    NEWDPF axisangle0 0.980637 0.195047 -0.017543 152.208232
DOCKED: USER    NEWDPF quat0 0.980637 0.195047 -0.017543 152.208232
DOCKED: USER    NEWDPF dihe0 76.91 8.80 58.21 -127.75 -51.83 109.00 60.04 -149.31 161.80 -9.77 
DOCKED: USER  keepresnum = 1 
DOCKED: USER  
DOCKED: REMARK  10 active torsions:
DOCKED: REMARK  status: ('A' for Active; 'I' for Inactive)
DOCKED: REMARK    1  A    between atoms: C_6  and  C_10 
DOCKED: REMARK    2  A    between atoms: C_10  and  C_11 
DOCKED: REMARK    3  A    between atoms: C_11  and  C_12 
DOCKED: REMARK    4  A    between atoms: C_12  and  O_14 
DOCKED: REMARK    5  A    between atoms: C_17  and  C_20 
DOCKED: REMARK    6  A    between atoms: C_24  and  C_27 
DOCKED: REMARK    7  A    between atoms: C_31  and  C_34 
DOCKED: REMARK    8  A    between atoms: C_34  and  C_35 
DOCKED: REMARK    9  A    between atoms: C_35  and  C_36 
DOCKED: REMARK   10  A    between atoms: C_36  and  O_38 
DOCKED: USER                              x       y       z     vdW  Elec       q    Type
DOCKED: USER                           _______ _______ _______ _____ _____    ______ ____
DOCKED: ROOT
DOCKED: ATOM      1  C   UNL d   1      -8.038 -11.772  -1.882 -0.21 +0.04    +0.064 A 
DOCKED: ATOM      2  C   UNL d   1      -8.366  -7.451  -3.826 -0.41 +0.02    +0.064 A 
DOCKED: ATOM      3  C   UNL d   1      -3.712  -6.612  -2.971 -0.36 +0.02    +0.064 C 
DOCKED: ATOM      4  C   UNL d   1      -3.250 -11.237  -1.402 -0.31 +0.06    +0.064 A 
DOCKED: ATOM      5  C   UNL d   1      -8.507 -10.666  -2.482 -0.24 +0.03    +0.066 A 
DOCKED: ATOM      6  C   UNL d   1      -9.836 -10.493  -2.877 -0.38 -0.01    -0.021 A 
DOCKED: ATOM      7  C   UNL d   1      -9.923  -9.260  -3.479 -0.48 -0.01    -0.025 A 
DOCKED: ATOM      8  C   UNL d   1      -8.654  -8.693  -3.392 -0.41 +0.02    +0.066 A 
DOCKED: ATOM      9  C   UNL d   1     -11.171  -8.697  -4.123 -0.28 +0.01    +0.051 C 
DOCKED: ATOM     10  C   UNL d   1      -7.061  -6.795  -3.741 -0.35 +0.02    +0.066 A 
DOCKED: ATOM     11  C   UNL d   1      -6.855  -5.447  -4.057 -0.44 -0.01    -0.021 A 
DOCKED: ATOM     12  C   UNL d   1      -5.523  -5.181  -3.800 -0.42 +0.00    +0.000 A 
DOCKED: ATOM     13  C   UNL d   1      -4.976  -6.413  -3.343 -0.18 +0.03    +0.070 A 
DOCKED: ATOM     14  C   UNL d   1      -7.892  -4.448  -4.556 -0.52 +0.01    +0.052 C 
DOCKED: ATOM     15  C   UNL d   1      -3.112  -7.851  -2.537 -0.40 +0.02    +0.066 A 
DOCKED: ATOM     16  C   UNL d   1      -1.746  -8.033  -2.318 -0.46 -0.01    -0.021 A 
DOCKED: ATOM     17  C   UNL d   1      -1.591  -9.345  -1.871 -0.46 +0.00    +0.000 A 
DOCKED: ATOM     18  C   UNL d   1      -2.890  -9.871  -1.848 -0.38 +0.04    +0.070 A 
DOCKED: ATOM     19  C   UNL d   1      -0.718  -6.968  -2.605 -0.34 +0.01    +0.052 C 
DOCKED: ATOM     20  C   UNL d   1      -4.480 -11.788  -1.408 -0.28 +0.08    +0.066 A 
DOCKED: ATOM     21  C   UNL d   1      -4.761 -13.075  -0.958 -0.12 -0.05    -0.025 A 
DOCKED: ATOM     22  C   UNL d   1      -6.125 -13.235  -1.062 -0.22 -0.03    -0.021 A 
DOCKED: ATOM     23  C   UNL d   1      -6.625 -12.041  -1.591 -0.14 +0.07    +0.066 A 
DOCKED: ATOM     24  C   UNL d   1      -3.778 -14.101  -0.458 -0.14 +0.10    +0.051 C 
DOCKED: ATOM     25  N   UNL d   1      -7.768  -9.586  -2.837 -0.10 -0.10    -0.248 N 
DOCKED: ATOM     26  N   UNL d   1      -5.918  -7.390  -3.315 +0.02 -0.14    -0.248 N 
DOCKED: ATOM     27  N   UNL d   1      -3.791  -8.975  -2.326 -0.26 -0.11    -0.248 N 
DOCKED: ATOM     28  N   UNL d   1      -5.617 -11.180  -1.841 +0.02 -0.23    -0.248 N 
DOCKED: ATOM     29 FE   UNL d   1      -5.763  -9.299  -2.573 -0.08 +0.00    +0.000 Fe
DOCKED: ATOM     30  O   UNL d   1      -6.186  -9.444  -4.064 -0.11 +0.00    +0.000 OA
DOCKED: ATOM     31  O   UNL d   1      -4.855 -10.120  -3.560 -0.39 +0.00    +0.000 OA
DOCKED: ENDROOT
DOCKED: BRANCH   6  32
DOCKED: ATOM     32  C   UNL d   1     -10.955 -11.501  -2.817 -0.32 +0.01    +0.052 C 
DOCKED: BRANCH  32  33
DOCKED: ATOM     33  C   UNL d   1     -11.458 -11.911  -4.198 -0.00 +0.02    +0.115 C 
DOCKED: BRANCH  33  34
DOCKED: ATOM     34  C   UNL d   1     -12.931 -11.642  -4.377 -0.29 +0.01    +0.139 C 
DOCKED: ATOM     35  O   UNL d   1     -13.389 -11.516  -5.502 -0.00 -0.03    -0.650 OA
DOCKED: BRANCH  34  36
DOCKED: ATOM     36  O   UNL d   1     -13.756 -11.510  -3.318 +0.14 +0.05    -0.776 OA
DOCKED: ATOM     37  H   UNL d   1     -13.787 -10.703  -2.792 -0.35 -0.07    +0.167 HD
DOCKED: ENDBRANCH  34  36
DOCKED: ENDBRANCH  33  34
DOCKED: ENDBRANCH  32  33
DOCKED: ENDBRANCH   6  32
DOCKED: BRANCH  22  38
DOCKED: ATOM     38  C   UNL d   1      -6.889 -14.490  -0.732 -0.16 +0.08    +0.052 C 
DOCKED: BRANCH  38  39
DOCKED: ATOM     39  C   UNL d   1      -7.388 -14.505   0.712 -0.07 +0.17    +0.115 C 
DOCKED: BRANCH  39  40
DOCKED: ATOM     40  C   UNL d   1      -7.657 -13.119   1.243 -0.23 +0.18    +0.139 C 
DOCKED: ATOM     41  O   UNL d   1      -6.890 -12.620   2.050 -0.50 -1.15    -0.650 OA
DOCKED: BRANCH  40  42
DOCKED: ATOM     42  O   UNL d   1      -8.705 -12.397   0.803 -0.17 -0.61    -0.776 OA
DOCKED: ATOM     43  H   UNL d   1      -9.402 -12.794   0.267 +0.07 +0.11    +0.167 HD
DOCKED: ENDBRANCH  40  42
DOCKED: ENDBRANCH  39  40
DOCKED: ENDBRANCH  38  39
DOCKED: ENDBRANCH  22  38
DOCKED: BRANCH  12  44
DOCKED: ATOM     44  C   UNL d   1      -4.921  -3.809  -4.015 -0.02 +0.00    +0.004 C 
DOCKED: ATOM     45  C   UNL d   1      -3.848  -3.489  -4.738 -0.43 +0.00    +0.012 C 
DOCKED: ENDBRANCH  12  44
DOCKED: BRANCH  17  46
DOCKED: ATOM     46  C   UNL d   1      -0.354 -10.133  -1.531 -0.10 +0.00    +0.004 C 
DOCKED: ATOM     47  C   UNL d   1      -0.046 -11.387  -1.888 -0.36 +0.01    +0.012 C 
DOCKED: ENDBRANCH  17  46
DOCKED: TORSDOF 10
DOCKED: TER
DOCKED: ENDMDL
________________________________________________________________________________


	BEGINNING GENETIC ALGORITHM DOCKING 28 of 100
Run: 28 Seed: 1928892071 1966618470 [ Run 28 of 100 GA/GALS ]
Beginning LAMARCKIAN GENETIC ALGORITHM (LGA), with a maximum of 25000000 energy evaluations.

Final-Value: -12.264


	FINAL GENETIC ALGORITHM DOCKED STATE
	_______________________________________________


Detailed state:  trans -11.310 -13.847 -1.015 quatxyzw -0.480644 -0.674624 0.544309 0.132633 center 8.287 34.468 -0.670 ntor 10 -69.9476 164.7898 -50.6267 -171.5996 -171.8706 -53.7642 41.9891 107.2886 -118.2118 176.9235
State:	-11.310 -13.847  -1.015  -0.485 -0.681  0.549 164.756    -69.95  164.79  -50.63 -171.60 -171.87  -53.76   41.99  107.29 -118.21  176.92

DOCKED: MODEL       28
DOCKED: USER    Run = 28
DOCKED: USER    DPF = D:/Protein_go_brrr/autodock/final/AncA/heme_O2/dock.dpf
DOCKED: USER  
DOCKED: USER    Estimated Free Energy of Binding    =   -7.81 kcal/mol  [=(1)+(2)+(3)-(4)]
DOCKED: USER    Estimated Inhibition Constant, Ki   =    1.90 uM (micromolar)  [Temperature = 298.15 K]
DOCKED: USER    
DOCKED: USER    (1) Final Intermolecular Energy     =  -10.79 kcal/mol
DOCKED: USER        vdW + Hbond + desolv Energy     =   -7.47 kcal/mol
DOCKED: USER        Electrostatic Energy            =   -3.31 kcal/mol
DOCKED: USER    (2) Final Total Internal Energy     =   -1.48 kcal/mol
DOCKED: USER    (3) Torsional Free Energy           =   +2.98 kcal/mol
DOCKED: USER    (4) Unbound System's Energy  [=(2)] =   -1.48 kcal/mol
DOCKED: USER    
DOCKED: USER    
DOCKED: USER    NEWDPF move heme_O2_opt.pdbqt
DOCKED: USER    NEWDPF about 8.287000 34.468000 -0.670000
DOCKED: USER    NEWDPF tran0 -11.309866 -13.846861 -1.014616
DOCKED: USER    NEWDPF quaternion0 -0.480644 -0.674624 0.544309 0.132633
DOCKED: USER    NEWDPF axisangle0 -0.484928 -0.680637 0.549161 164.756440
DOCKED: USER    NEWDPF quat0 -0.484928 -0.680637 0.549161 164.756440
DOCKED: USER    NEWDPF dihe0 -69.95 164.79 -50.63 -171.60 -171.87 -53.76 41.99 107.29 -118.21 176.92 
DOCKED: USER  keepresnum = 1 
DOCKED: USER  
DOCKED: REMARK  10 active torsions:
DOCKED: REMARK  status: ('A' for Active; 'I' for Inactive)
DOCKED: REMARK    1  A    between atoms: C_6  and  C_10 
DOCKED: REMARK    2  A    between atoms: C_10  and  C_11 
DOCKED: REMARK    3  A    between atoms: C_11  and  C_12 
DOCKED: REMARK    4  A    between atoms: C_12  and  O_14 
DOCKED: REMARK    5  A    between atoms: C_17  and  C_20 
DOCKED: REMARK    6  A    between atoms: C_24  and  C_27 
DOCKED: REMARK    7  A    between atoms: C_31  and  C_34 
DOCKED: REMARK    8  A    between atoms: C_34  and  C_35 
DOCKED: REMARK    9  A    between atoms: C_35  and  C_36 
DOCKED: REMARK   10  A    between atoms: C_36  and  O_38 
DOCKED: USER                              x       y       z     vdW  Elec       q    Type
DOCKED: USER                           _______ _______ _______ _____ _____    ______ ____
DOCKED: ROOT
DOCKED: ATOM      1  C   UNL d   1      -9.617 -14.133   0.231 -0.14 +0.04    +0.064 A 
DOCKED: ATOM      2  C   UNL d   1     -13.646 -16.587  -0.319 -0.11 +0.01    +0.064 A 
DOCKED: ATOM      3  C   UNL d   1     -15.225 -13.439  -3.589 -0.19 +0.01    +0.064 C 
DOCKED: ATOM      4  C   UNL d   1     -10.881 -11.169  -3.383 -0.30 +0.01    +0.064 A 
DOCKED: ATOM      5  C   UNL d   1     -10.583 -15.058   0.347 -0.11 +0.03    +0.066 A 
DOCKED: ATOM      6  C   UNL d   1     -10.525 -16.146   1.223 -0.06 -0.01    -0.021 A 
DOCKED: ATOM      7  C   UNL d   1     -11.671 -16.881   1.034 -0.06 -0.01    -0.025 A 
DOCKED: ATOM      8  C   UNL d   1     -12.421 -16.196   0.081 -0.09 +0.02    +0.066 A 
DOCKED: ATOM      9  C   UNL d   1     -11.986 -18.188   1.727 -0.02 +0.01    +0.051 C 
DOCKED: ATOM     10  C   UNL d   1     -14.489 -15.897  -1.297 -0.13 +0.01    +0.066 A 
DOCKED: ATOM     11  C   UNL d   1     -15.818 -16.254  -1.555 -0.10 -0.00    -0.021 A 
DOCKED: ATOM     12  C   UNL d   1     -16.296 -15.347  -2.482 -0.12 +0.00    +0.000 A 
DOCKED: ATOM     13  C   UNL d   1     -15.204 -14.476  -2.752 -0.15 +0.01    +0.070 A 
DOCKED: ATOM     14  C   UNL d   1     -16.606 -17.396  -0.923 -0.06 +0.01    +0.052 C 
DOCKED: ATOM     15  C   UNL d   1     -14.132 -12.555  -3.917 -0.19 +0.00    +0.066 A 
DOCKED: ATOM     16  C   UNL d   1     -14.170 -11.591  -4.923 -0.27 -0.00    -0.021 A 
DOCKED: ATOM     17  C   UNL d   1     -12.942 -10.931  -4.883 -0.37 +0.00    +0.000 A 
DOCKED: ATOM     18  C   UNL d   1     -12.238 -11.550  -3.841 -0.26 +0.01    +0.070 A 
DOCKED: ATOM     19  C   UNL d   1     -15.341 -11.423  -5.858 -0.21 +0.00    +0.052 C 
DOCKED: ATOM     20  C   UNL d   1     -10.160 -11.769  -2.415 -0.27 +0.02    +0.066 A 
DOCKED: ATOM     21  C   UNL d   1      -8.893 -11.354  -2.015 -0.29 -0.01    -0.025 A 
DOCKED: ATOM     22  C   UNL d   1      -8.529 -12.170  -0.968 -0.26 -0.01    -0.021 A 
DOCKED: ATOM     23  C   UNL d   1      -9.584 -13.068  -0.779 -0.19 +0.04    +0.066 A 
DOCKED: ATOM     24  C   UNL d   1      -8.071 -10.238  -2.604 -0.23 +0.02    +0.051 C 
DOCKED: ATOM     25  N   UNL d   1     -11.721 -15.109  -0.389 -0.09 -0.07    -0.248 N 
DOCKED: ATOM     26  N   UNL d   1     -14.108 -14.821  -2.030 -0.12 -0.03    -0.248 N 
DOCKED: ATOM     27  N   UNL d   1     -12.946 -12.582  -3.316 -0.13 -0.02    -0.248 N 
DOCKED: ATOM     28  N   UNL d   1     -10.554 -12.850  -1.690 -0.10 -0.10    -0.248 N 
DOCKED: ATOM     29 FE   UNL d   1     -12.319 -13.827  -1.861 -0.06 +0.00    +0.000 Fe
DOCKED: ATOM     30  O   UNL d   1     -11.977 -15.256  -2.373 -0.14 +0.00    +0.000 OA
DOCKED: ATOM     31  O   UNL d   1     -11.550 -13.999  -3.222 -0.21 +0.00    +0.000 OA
DOCKED: ENDROOT
DOCKED: BRANCH   6  32
DOCKED: ATOM     32  C   UNL d   1      -9.376 -16.558   2.107 -0.03 +0.03    +0.052 C 
DOCKED: BRANCH  32  33
DOCKED: ATOM     33  C   UNL d   1      -8.014 -16.274   1.480 -0.05 +0.12    +0.115 C 
DOCKED: BRANCH  33  34
DOCKED: ATOM     34  C   UNL d   1      -7.021 -17.380   1.737 -0.03 +0.15    +0.139 C 
DOCKED: ATOM     35  O   UNL d   1      -7.396 -18.541   1.737 +0.02 -0.43    -0.650 OA
DOCKED: BRANCH  34  36
DOCKED: ATOM     36  O   UNL d   1      -5.724 -17.113   1.997 -0.03 -1.30    -0.776 OA
DOCKED: ATOM     37  H   UNL d   1      -5.128 -16.767   1.322 +0.01 +0.33    +0.167 HD
DOCKED: ENDBRANCH  34  36
DOCKED: ENDBRANCH  33  34
DOCKED: ENDBRANCH  32  33
DOCKED: ENDBRANCH   6  32
DOCKED: BRANCH  22  38
DOCKED: ATOM     38  C   UNL d   1      -7.212 -12.126  -0.237 -0.01 +0.05    +0.052 C 
DOCKED: BRANCH  38  39
DOCKED: ATOM     39  C   UNL d   1      -6.105 -12.862  -0.987 -0.25 +0.16    +0.115 C 
DOCKED: BRANCH  39  40
DOCKED: ATOM     40  C   UNL d   1      -6.255 -14.361  -0.910 -0.02 +0.27    +0.139 C 
DOCKED: ATOM     41  O   UNL d   1      -6.890 -14.951  -1.769 -0.50 -1.24    -0.650 OA
DOCKED: BRANCH  40  42
DOCKED: ATOM     42  O   UNL d   1      -5.655 -15.071   0.065 -0.51 -1.75    -0.776 OA
DOCKED: ATOM     43  H   UNL d   1      -5.883 -15.994   0.230 +0.02 +0.30    +0.167 HD
DOCKED: ENDBRANCH  40  42
DOCKED: ENDBRANCH  39  40
DOCKED: ENDBRANCH  38  39
DOCKED: ENDBRANCH  22  38
DOCKED: BRANCH  12  44
DOCKED: ATOM     44  C   UNL d   1     -17.715 -15.406  -3.006 -0.07 +0.00    +0.004 C 
DOCKED: ATOM     45  C   UNL d   1     -18.633 -14.440  -2.998 -0.10 +0.00    +0.012 C 
DOCKED: ENDBRANCH  12  44
DOCKED: BRANCH  17  46
DOCKED: ATOM     46  C   UNL d   1     -12.376  -9.843  -5.756 -0.48 +0.00    +0.004 C 
DOCKED: ATOM     47  C   UNL d   1     -11.168  -9.269  -5.686 -0.42 +0.00    +0.012 C 
DOCKED: ENDBRANCH  17  46
DOCKED: TORSDOF 10
DOCKED: TER
DOCKED: ENDMDL
________________________________________________________________________________


	BEGINNING GENETIC ALGORITHM DOCKING 29 of 100
Run: 29 Seed: 1904553949 592974712 [ Run 29 of 100 GA/GALS ]
Beginning LAMARCKIAN GENETIC ALGORITHM (LGA), with a maximum of 25000000 energy evaluations.

Final-Value: -11.792


	FINAL GENETIC ALGORITHM DOCKED STATE
	_______________________________________________


Detailed state:  trans -12.501 -15.285 1.525 quatxyzw -0.219946 -0.333509 0.888089 0.227360 center 8.287 34.468 -0.670 ntor 10 -179.0017 -11.5837 -56.7769 123.6552 -107.4176 131.1694 85.3973 -10.7444 -5.4328 125.6366
State:	-12.501 -15.285   1.525  -0.226 -0.342  0.912 153.717   -179.00  -11.58  -56.78  123.66 -107.42  131.17   85.40  -10.74   -5.43  125.64

DOCKED: MODEL       29
DOCKED: USER    Run = 29
DOCKED: USER    DPF = D:/Protein_go_brrr/autodock/final/AncA/heme_O2/dock.dpf
DOCKED: USER  
DOCKED: USER    Estimated Free Energy of Binding    =   -7.15 kcal/mol  [=(1)+(2)+(3)-(4)]
DOCKED: USER    Estimated Inhibition Constant, Ki   =    5.77 uM (micromolar)  [Temperature = 298.15 K]
DOCKED: USER    
DOCKED: USER    (1) Final Intermolecular Energy     =  -10.13 kcal/mol
DOCKED: USER        vdW + Hbond + desolv Energy     =   -6.37 kcal/mol
DOCKED: USER        Electrostatic Energy            =   -3.76 kcal/mol
DOCKED: USER    (2) Final Total Internal Energy     =   -1.66 kcal/mol
DOCKED: USER    (3) Torsional Free Energy           =   +2.98 kcal/mol
DOCKED: USER    (4) Unbound System's Energy  [=(2)] =   -1.66 kcal/mol
DOCKED: USER    
DOCKED: USER    
DOCKED: USER    NEWDPF move heme_O2_opt.pdbqt
DOCKED: USER    NEWDPF about 8.287000 34.468000 -0.670000
DOCKED: USER    NEWDPF tran0 -12.501426 -15.285008 1.524657
DOCKED: USER    NEWDPF quaternion0 -0.219946 -0.333509 0.888089 0.227360
DOCKED: USER    NEWDPF axisangle0 -0.225861 -0.342478 0.911973 153.716568
DOCKED: USER    NEWDPF quat0 -0.225861 -0.342478 0.911973 153.716568
DOCKED: USER    NEWDPF dihe0 -179.00 -11.58 -56.78 123.66 -107.42 131.17 85.40 -10.74 -5.43 125.64 
DOCKED: USER  keepresnum = 1 
DOCKED: USER  
DOCKED: REMARK  10 active torsions:
DOCKED: REMARK  status: ('A' for Active; 'I' for Inactive)
DOCKED: REMARK    1  A    between atoms: C_6  and  C_10 
DOCKED: REMARK    2  A    between atoms: C_10  and  C_11 
DOCKED: REMARK    3  A    between atoms: C_11  and  C_12 
DOCKED: REMARK    4  A    between atoms: C_12  and  O_14 
DOCKED: REMARK    5  A    between atoms: C_17  and  C_20 
DOCKED: REMARK    6  A    between atoms: C_24  and  C_27 
DOCKED: REMARK    7  A    between atoms: C_31  and  C_34 
DOCKED: REMARK    8  A    between atoms: C_34  and  C_35 
DOCKED: REMARK    9  A    between atoms: C_35  and  C_36 
DOCKED: REMARK   10  A    between atoms: C_36  and  O_38 
DOCKED: USER                              x       y       z     vdW  Elec       q    Type
DOCKED: USER                           _______ _______ _______ _____ _____    ______ ____
DOCKED: ROOT
DOCKED: ATOM      1  C   UNL d   1     -10.483 -14.656   1.698 -0.15 +0.03    +0.064 A 
DOCKED: ATOM      2  C   UNL d   1     -13.810 -15.686   4.927 -0.16 +0.01    +0.064 A 
DOCKED: ATOM      3  C   UNL d   1     -17.015 -16.608   1.466 -0.12 +0.01    +0.064 C 
DOCKED: ATOM      4  C   UNL d   1     -13.465 -16.014  -1.867 -0.11 +0.01    +0.064 A 
DOCKED: ATOM      5  C   UNL d   1     -11.126 -14.863   2.858 -0.17 +0.03    +0.066 A 
DOCKED: ATOM      6  C   UNL d   1     -10.548 -14.678   4.117 -0.20 -0.01    -0.021 A 
DOCKED: ATOM      7  C   UNL d   1     -11.496 -15.018   5.053 -0.18 -0.01    -0.025 A 
DOCKED: ATOM      8  C   UNL d   1     -12.644 -15.354   4.340 -0.19 +0.02    +0.066 A 
DOCKED: ATOM      9  C   UNL d   1     -11.269 -15.037   6.549 -0.16 +0.02    +0.051 C 
DOCKED: ATOM     10  C   UNL d   1     -15.053 -16.027   4.233 -0.18 +0.01    +0.066 A 
DOCKED: ATOM     11  C   UNL d   1     -16.277 -16.204   4.888 -0.14 -0.00    -0.021 A 
DOCKED: ATOM     12  C   UNL d   1     -17.217 -16.453   3.905 -0.12 +0.00    +0.000 A 
DOCKED: ATOM     13  C   UNL d   1     -16.495 -16.425   2.680 -0.14 +0.01    +0.070 A 
DOCKED: ATOM     14  C   UNL d   1     -16.543 -16.112   6.386 -0.12 +0.00    +0.052 C 
DOCKED: ATOM     15  C   UNL d   1     -16.313 -16.623   0.205 -0.10 +0.01    +0.066 A 
DOCKED: ATOM     16  C   UNL d   1     -16.885 -16.983  -1.014 -0.06 -0.00    -0.021 A 
DOCKED: ATOM     17  C   UNL d   1     -15.891 -16.822  -1.979 -0.06 +0.00    +0.000 A 
DOCKED: ATOM     18  C   UNL d   1     -14.773 -16.368  -1.267 -0.11 +0.01    +0.070 A 
DOCKED: ATOM     19  C   UNL d   1     -18.298 -17.496  -1.140 -0.03 +0.01    +0.052 C 
DOCKED: ATOM     20  C   UNL d   1     -12.358 -15.617  -1.208 -0.12 +0.02    +0.066 A 
DOCKED: ATOM     21  C   UNL d   1     -11.159 -15.280  -1.830 -0.11 -0.01    -0.025 A 
DOCKED: ATOM     22  C   UNL d   1     -10.306 -14.864  -0.832 -0.12 -0.01    -0.021 A 
DOCKED: ATOM     23  C   UNL d   1     -11.014 -14.981   0.369 -0.11 +0.03    +0.066 A 
DOCKED: ATOM     24  C   UNL d   1     -10.842 -15.354  -3.301 -0.11 +0.02    +0.051 C 
DOCKED: ATOM     25  N   UNL d   1     -12.395 -15.322   2.988 -0.10 -0.07    -0.248 N 
DOCKED: ATOM     26  N   UNL d   1     -15.178 -16.170   2.889 -0.12 -0.04    -0.248 N 
DOCKED: ATOM     27  N   UNL d   1     -15.024 -16.325   0.066 -0.09 -0.05    -0.248 N 
DOCKED: ATOM     28  N   UNL d   1     -12.246 -15.481   0.140 +0.02 -0.06    -0.248 N 
DOCKED: ATOM     29 FE   UNL d   1     -13.703 -15.824   1.502 -0.04 +0.00    +0.000 Fe
DOCKED: ATOM     30  O   UNL d   1     -13.225 -17.035   2.355 -0.10 +0.00    +0.000 OA
DOCKED: ATOM     31  O   UNL d   1     -13.386 -17.193   0.795 -0.09 +0.00    +0.000 OA
DOCKED: ENDROOT
DOCKED: BRANCH   6  32
DOCKED: ATOM     32  C   UNL d   1      -9.116 -14.329   4.433 -0.21 +0.04    +0.052 C 
DOCKED: BRANCH  32  33
DOCKED: ATOM     33  C   UNL d   1      -8.811 -12.847   4.235 -0.37 +0.08    +0.115 C 
DOCKED: BRANCH  33  34
DOCKED: ATOM     34  C   UNL d   1      -8.187 -12.563   2.891 -0.32 +0.14    +0.139 C 
DOCKED: ATOM     35  O   UNL d   1      -8.874 -12.101   1.994 -0.30 -0.49    -0.650 OA
DOCKED: BRANCH  34  36
DOCKED: ATOM     36  O   UNL d   1      -6.889 -12.835   2.646 -0.42 -1.59    -0.776 OA
DOCKED: ATOM     37  H   UNL d   1      -6.478 -12.640   1.796 +0.05 +0.32    +0.167 HD
DOCKED: ENDBRANCH  34  36
DOCKED: ENDBRANCH  33  34
DOCKED: ENDBRANCH  32  33
DOCKED: ENDBRANCH   6  32
DOCKED: BRANCH  22  38
DOCKED: ATOM     38  C   UNL d   1      -8.872 -14.442  -1.021 -0.13 +0.04    +0.052 C 
DOCKED: BRANCH  38  39
DOCKED: ATOM     39  C   UNL d   1      -7.933 -15.105  -0.015 -0.09 +0.12    +0.115 C 
DOCKED: BRANCH  39  40
DOCKED: ATOM     40  C   UNL d   1      -6.480 -14.916  -0.373 -0.12 +0.24    +0.139 C 
DOCKED: ATOM     41  O   UNL d   1      -5.948 -15.675  -1.168 -0.46 -1.37    -0.650 OA
DOCKED: BRANCH  40  42
DOCKED: ATOM     42  O   UNL d   1      -5.767 -13.890   0.130 -0.26 -1.59    -0.776 OA
DOCKED: ATOM     43  H   UNL d   1      -6.188 -13.180   0.629 +0.04 +0.30    +0.167 HD
DOCKED: ENDBRANCH  40  42
DOCKED: ENDBRANCH  39  40
DOCKED: ENDBRANCH  38  39
DOCKED: ENDBRANCH  22  38
DOCKED: BRANCH  12  44
DOCKED: ATOM     44  C   UNL d   1     -18.677 -16.690   4.231 -0.07 +0.00    +0.004 C 
DOCKED: ATOM     45  C   UNL d   1     -19.730 -15.973   3.840 -0.08 +0.00    +0.012 C 
DOCKED: ENDBRANCH  12  44
DOCKED: BRANCH  17  46
DOCKED: ATOM     46  C   UNL d   1     -15.894 -17.108  -3.457 -0.02 +0.00    +0.004 C 
DOCKED: ATOM     47  C   UNL d   1     -15.747 -16.242  -4.469 -0.02 +0.00    +0.012 C 
DOCKED: ENDBRANCH  17  46
DOCKED: TORSDOF 10
DOCKED: TER
DOCKED: ENDMDL
________________________________________________________________________________


	BEGINNING GENETIC ALGORITHM DOCKING 30 of 100
Run: 30 Seed: 951740474 944893268 [ Run 30 of 100 GA/GALS ]
Beginning LAMARCKIAN GENETIC ALGORITHM (LGA), with a maximum of 25000000 energy evaluations.

Final-Value: -14.942


	FINAL GENETIC ALGORITHM DOCKED STATE
	_______________________________________________


Detailed state:  trans -4.990 -10.845 -1.838 quatxyzw 0.817917 0.486850 -0.232456 0.199886 center 8.287 34.468 -0.670 ntor 10 -163.2274 -139.6972 42.7960 2.1145 -12.4854 180.0000 -56.3476 37.7062 154.5788 161.2870
State:	 -4.990 -10.845  -1.838   0.835  0.497 -0.237 156.939   -163.23 -139.70   42.80    2.11  -12.49  180.00  -56.35   37.71  154.58  161.29

DOCKED: MODEL       30
DOCKED: USER    Run = 30
DOCKED: USER    DPF = D:/Protein_go_brrr/autodock/final/AncA/heme_O2/dock.dpf
DOCKED: USER  
DOCKED: USER    Estimated Free Energy of Binding    =  -10.63 kcal/mol  [=(1)+(2)+(3)-(4)]
DOCKED: USER    Estimated Inhibition Constant, Ki   =   16.02 nM (nanomolar)  [Temperature = 298.15 K]
DOCKED: USER    
DOCKED: USER    (1) Final Intermolecular Energy     =  -13.62 kcal/mol
DOCKED: USER        vdW + Hbond + desolv Energy     =  -10.82 kcal/mol
DOCKED: USER        Electrostatic Energy            =   -2.80 kcal/mol
DOCKED: USER    (2) Final Total Internal Energy     =   -1.32 kcal/mol
DOCKED: USER    (3) Torsional Free Energy           =   +2.98 kcal/mol
DOCKED: USER    (4) Unbound System's Energy  [=(2)] =   -1.32 kcal/mol
DOCKED: USER    
DOCKED: USER    
DOCKED: USER    NEWDPF move heme_O2_opt.pdbqt
DOCKED: USER    NEWDPF about 8.287000 34.468000 -0.670000
DOCKED: USER    NEWDPF tran0 -4.990170 -10.845419 -1.837968
DOCKED: USER    NEWDPF quaternion0 0.817917 0.486850 -0.232456 0.199886
DOCKED: USER    NEWDPF axisangle0 0.834763 0.496877 -0.237243 156.939410
DOCKED: USER    NEWDPF quat0 0.834763 0.496877 -0.237243 156.939410
DOCKED: USER    NEWDPF dihe0 -163.23 -139.70 42.80 2.11 -12.49 180.00 -56.35 37.71 154.58 161.29 
DOCKED: USER  keepresnum = 1 
DOCKED: USER  
DOCKED: REMARK  10 active torsions:
DOCKED: REMARK  status: ('A' for Active; 'I' for Inactive)
DOCKED: REMARK    1  A    between atoms: C_6  and  C_10 
DOCKED: REMARK    2  A    between atoms: C_10  and  C_11 
DOCKED: REMARK    3  A    between atoms: C_11  and  C_12 
DOCKED: REMARK    4  A    between atoms: C_12  and  O_14 
DOCKED: REMARK    5  A    between atoms: C_17  and  C_20 
DOCKED: REMARK    6  A    between atoms: C_24  and  C_27 
DOCKED: REMARK    7  A    between atoms: C_31  and  C_34 
DOCKED: REMARK    8  A    between atoms: C_34  and  C_35 
DOCKED: REMARK    9  A    between atoms: C_35  and  C_36 
DOCKED: REMARK   10  A    between atoms: C_36  and  O_38 
DOCKED: USER                              x       y       z     vdW  Elec       q    Type
DOCKED: USER                           _______ _______ _______ _____ _____    ______ ____
DOCKED: ROOT
DOCKED: ATOM      1  C   UNL d   1      -4.888 -12.858  -1.174 -0.21 +0.11    +0.064 A 
DOCKED: ATOM      2  C   UNL d   1      -8.447 -10.223  -2.894 -0.20 +0.03    +0.064 A 
DOCKED: ATOM      3  C   UNL d   1      -5.550  -6.410  -3.299 -0.34 +0.03    +0.064 C 
DOCKED: ATOM      4  C   UNL d   1      -1.769  -9.244  -1.982 -0.42 +0.02    +0.064 A 
DOCKED: ATOM      5  C   UNL d   1      -6.092 -12.453  -1.611 -0.22 +0.09    +0.066 A 
DOCKED: ATOM      6  C   UNL d   1      -7.230 -13.264  -1.633 -0.21 -0.03    -0.021 A 
DOCKED: ATOM      7  C   UNL d   1      -8.250 -12.516  -2.171 -0.22 -0.02    -0.025 A 
DOCKED: ATOM      8  C   UNL d   1      -7.720 -11.252  -2.418 -0.12 +0.04    +0.066 A 
DOCKED: ATOM      9  C   UNL d   1      -9.646 -13.029  -2.450 -0.19 +0.03    +0.051 C 
DOCKED: ATOM     10  C   UNL d   1      -7.951  -8.870  -3.151 -0.27 +0.02    +0.066 A 
DOCKED: ATOM     11  C   UNL d   1      -8.784  -7.797  -3.489 -0.42 -0.01    -0.021 A 
DOCKED: ATOM     12  C   UNL d   1      -7.969  -6.685  -3.592 -0.42 +0.00    +0.000 A 
DOCKED: ATOM     13  C   UNL d   1      -6.655  -7.155  -3.317 -0.29 +0.03    +0.070 A 
DOCKED: ATOM     14  C   UNL d   1     -10.296  -7.827  -3.678 -0.43 +0.01    +0.052 C 
DOCKED: ATOM     15  C   UNL d   1      -4.198  -6.854  -3.060 -0.13 +0.03    +0.066 A 
DOCKED: ATOM     16  C   UNL d   1      -3.065  -6.056  -3.217 -0.40 -0.00    -0.021 A 
DOCKED: ATOM     17  C   UNL d   1      -1.974  -6.843  -2.848 -0.47 +0.00    +0.000 A 
DOCKED: ATOM     18  C   UNL d   1      -2.532  -8.078  -2.487 -0.41 +0.02    +0.070 A 
DOCKED: ATOM     19  C   UNL d   1      -3.118  -4.647  -3.752 -0.43 +0.01    +0.052 C 
DOCKED: ATOM     20  C   UNL d   1      -2.266 -10.456  -1.668 -0.34 +0.04    +0.066 A 
DOCKED: ATOM     21  C   UNL d   1      -1.501 -11.511  -1.179 -0.30 -0.02    -0.025 A 
DOCKED: ATOM     22  C   UNL d   1      -2.377 -12.540  -0.918 -0.16 -0.02    -0.021 A 
DOCKED: ATOM     23  C   UNL d   1      -3.648 -12.079  -1.275 -0.27 +0.08    +0.066 A 
DOCKED: ATOM     24  C   UNL d   1      -0.008 -11.537  -0.976 -0.32 +0.02    +0.051 C 
DOCKED: ATOM     25  N   UNL d   1      -6.374 -11.234  -2.133 +0.01 -0.21    -0.248 N 
DOCKED: ATOM     26  N   UNL d   1      -6.653  -8.486  -3.054 -0.08 -0.11    -0.248 N 
DOCKED: ATOM     27  N   UNL d   1      -3.873  -8.090  -2.694 -0.23 -0.10    -0.248 N 
DOCKED: ATOM     28  N   UNL d   1      -3.570 -10.828  -1.772 -0.21 -0.20    -0.248 N 
DOCKED: ATOM     29 FE   UNL d   1      -5.098  -9.664  -2.409 -0.08 +0.00    +0.000 Fe
DOCKED: ATOM     30  O   UNL d   1      -5.607 -10.301  -3.735 -0.20 +0.00    +0.000 OA
DOCKED: ATOM     31  O   UNL d   1      -4.105  -9.840  -3.616 +0.07 +0.00    +0.000 OA
DOCKED: ENDROOT
DOCKED: BRANCH   6  32
DOCKED: ATOM     32  C   UNL d   1      -7.326 -14.729  -1.292 -0.11 +0.07    +0.052 C 
DOCKED: BRANCH  32  33
DOCKED: ATOM     33  C   UNL d   1      -7.857 -15.572  -2.447 -0.11 +0.14    +0.115 C 
DOCKED: BRANCH  33  34
DOCKED: ATOM     34  C   UNL d   1      -6.890 -16.652  -2.864 +0.09 +0.22    +0.139 C 
DOCKED: ATOM     35  O   UNL d   1      -7.027 -17.202  -3.945 -0.01 -0.81    -0.650 OA
DOCKED: BRANCH  34  36
DOCKED: ATOM     36  O   UNL d   1      -5.886 -17.047  -2.053 -0.11 -1.32    -0.776 OA
DOCKED: ATOM     37  H   UNL d   1      -5.130 -17.547  -2.383 +0.01 +0.27    +0.167 HD
DOCKED: ENDBRANCH  34  36
DOCKED: ENDBRANCH  33  34
DOCKED: ENDBRANCH  32  33
DOCKED: ENDBRANCH   6  32
DOCKED: BRANCH  22  38
DOCKED: ATOM     38  C   UNL d   1      -1.999 -13.909  -0.414 -0.15 +0.06    +0.052 C 
DOCKED: BRANCH  38  39
DOCKED: ATOM     39  C   UNL d   1      -1.876 -14.931  -1.543 -0.14 +0.16    +0.115 C 
DOCKED: BRANCH  39  40
DOCKED: ATOM     40  C   UNL d   1      -2.366 -16.298  -1.138 -0.09 +0.18    +0.139 C 
DOCKED: ATOM     41  O   UNL d   1      -2.190 -16.692   0.004 -0.00 -0.67    -0.650 OA
DOCKED: BRANCH  40  42
DOCKED: ATOM     42  O   UNL d   1      -3.044 -17.079  -2.002 -0.19 -1.24    -0.776 OA
DOCKED: ATOM     43  H   UNL d   1      -3.826 -17.572  -1.730 +0.01 +0.24    +0.167 HD
DOCKED: ENDBRANCH  40  42
DOCKED: ENDBRANCH  39  40
DOCKED: ENDBRANCH  38  39
DOCKED: ENDBRANCH  22  38
DOCKED: BRANCH  12  44
DOCKED: ATOM     44  C   UNL d   1      -8.518  -5.316  -3.940 -0.50 +0.00    +0.004 C 
DOCKED: ATOM     45  C   UNL d   1      -7.965  -4.386  -4.717 -0.56 +0.00    +0.012 C 
DOCKED: ENDBRANCH  12  44
DOCKED: BRANCH  17  46
DOCKED: ATOM     46  C   UNL d   1      -0.497  -6.554  -2.863 -0.47 +0.00    +0.004 C 
DOCKED: ATOM     47  C   UNL d   1       0.130  -5.465  -3.326 -0.60 +0.00    +0.012 C 
DOCKED: ENDBRANCH  17  46
DOCKED: TORSDOF 10
DOCKED: TER
DOCKED: ENDMDL
________________________________________________________________________________


	BEGINNING GENETIC ALGORITHM DOCKING 31 of 100
Run: 31 Seed: 1155820347 1527129318 [ Run 31 of 100 GA/GALS ]
Beginning LAMARCKIAN GENETIC ALGORITHM (LGA), with a maximum of 25000000 energy evaluations.

Final-Value: -12.375


	FINAL GENETIC ALGORITHM DOCKED STATE
	_______________________________________________


Detailed state:  trans -5.947 -11.804 -1.526 quatxyzw -0.930890 -0.259534 0.066765 -0.248250 center 8.287 34.468 -0.670 ntor 10 -63.9012 -30.6903 55.0854 -94.1170 -0.3961 25.9631 65.4470 102.1822 -8.5949 -168.0931
State:	 -5.947 -11.804  -1.526  -0.961 -0.268  0.069 -151.252    -63.90  -30.69   55.09  -94.12   -0.40   25.96   65.45  102.18   -8.59 -168.09

DOCKED: MODEL       31
DOCKED: USER    Run = 31
DOCKED: USER    DPF = D:/Protein_go_brrr/autodock/final/AncA/heme_O2/dock.dpf
DOCKED: USER  
DOCKED: USER    Estimated Free Energy of Binding    =   -7.60 kcal/mol  [=(1)+(2)+(3)-(4)]
DOCKED: USER    Estimated Inhibition Constant, Ki   =    2.69 uM (micromolar)  [Temperature = 298.15 K]
DOCKED: USER    
DOCKED: USER    (1) Final Intermolecular Energy     =  -10.58 kcal/mol
DOCKED: USER        vdW + Hbond + desolv Energy     =   -8.29 kcal/mol
DOCKED: USER        Electrostatic Energy            =   -2.30 kcal/mol
DOCKED: USER    (2) Final Total Internal Energy     =   -1.79 kcal/mol
DOCKED: USER    (3) Torsional Free Energy           =   +2.98 kcal/mol
DOCKED: USER    (4) Unbound System's Energy  [=(2)] =   -1.79 kcal/mol
DOCKED: USER    
DOCKED: USER    
DOCKED: USER    NEWDPF move heme_O2_opt.pdbqt
DOCKED: USER    NEWDPF about 8.287000 34.468000 -0.670000
DOCKED: USER    NEWDPF tran0 -5.947403 -11.803700 -1.525941
DOCKED: USER    NEWDPF quaternion0 -0.930890 -0.259534 0.066765 -0.248250
DOCKED: USER    NEWDPF axisangle0 -0.960973 -0.267921 0.068923 -151.252048
DOCKED: USER    NEWDPF quat0 -0.960973 -0.267921 0.068923 -151.252048
DOCKED: USER    NEWDPF dihe0 -63.90 -30.69 55.09 -94.12 -0.40 25.96 65.45 102.18 -8.59 -168.09 
DOCKED: USER  keepresnum = 1 
DOCKED: USER  
DOCKED: REMARK  10 active torsions:
DOCKED: REMARK  status: ('A' for Active; 'I' for Inactive)
DOCKED: REMARK    1  A    between atoms: C_6  and  C_10 
DOCKED: REMARK    2  A    between atoms: C_10  and  C_11 
DOCKED: REMARK    3  A    between atoms: C_11  and  C_12 
DOCKED: REMARK    4  A    between atoms: C_12  and  O_14 
DOCKED: REMARK    5  A    between atoms: C_17  and  C_20 
DOCKED: REMARK    6  A    between atoms: C_24  and  C_27 
DOCKED: REMARK    7  A    between atoms: C_31  and  C_34 
DOCKED: REMARK    8  A    between atoms: C_34  and  C_35 
DOCKED: REMARK    9  A    between atoms: C_35  and  C_36 
DOCKED: REMARK   10  A    between atoms: C_36  and  O_38 
DOCKED: USER                              x       y       z     vdW  Elec       q    Type
DOCKED: USER                           _______ _______ _______ _____ _____    ______ ____
DOCKED: ROOT
DOCKED: ATOM      1  C   UNL d   1      -7.075 -13.558  -1.139 -0.19 +0.08    +0.064 A 
DOCKED: ATOM      2  C   UNL d   1      -8.235  -9.343  -2.996 -0.26 +0.02    +0.064 A 
DOCKED: ATOM      3  C   UNL d   1      -3.736  -7.751  -2.427 -0.39 +0.02    +0.064 C 
DOCKED: ATOM      4  C   UNL d   1      -2.420 -12.243  -0.958 -0.14 +0.07    +0.064 A 
DOCKED: ATOM      5  C   UNL d   1      -7.757 -12.542  -1.692 -0.22 +0.06    +0.066 A 
DOCKED: ATOM      6  C   UNL d   1      -9.120 -12.589  -1.999 -0.22 -0.01    -0.021 A 
DOCKED: ATOM      7  C   UNL d   1      -9.448 -11.385  -2.577 -0.30 -0.01    -0.025 A 
DOCKED: ATOM      8  C   UNL d   1      -8.286 -10.617  -2.563 -0.23 +0.03    +0.066 A 
DOCKED: ATOM      9  C   UNL d   1     -10.811 -11.033  -3.131 -0.38 +0.01    +0.051 C 
DOCKED: ATOM     10  C   UNL d   1      -7.052  -8.481  -2.985 +0.18 +0.03    +0.066 A 
DOCKED: ATOM     11  C   UNL d   1      -7.092  -7.116  -3.294 -0.39 -0.01    -0.021 A 
DOCKED: ATOM     12  C   UNL d   1      -5.808  -6.635  -3.118 -0.13 +0.00    +0.000 A 
DOCKED: ATOM     13  C   UNL d   1      -5.037  -7.761  -2.715 +0.23 +0.04    +0.070 A 
DOCKED: ATOM     14  C   UNL d   1      -8.310  -6.300  -3.712 -0.42 +0.01    +0.052 C 
DOCKED: ATOM     15  C   UNL d   1      -2.913  -8.875  -2.050 -0.42 +0.03    +0.066 A 
DOCKED: ATOM     16  C   UNL d   1      -1.525  -8.831  -1.922 -0.47 -0.01    -0.021 A 
DOCKED: ATOM     17  C   UNL d   1      -1.127 -10.101  -1.504 -0.33 +0.00    +0.000 A 
DOCKED: ATOM     18  C   UNL d   1      -2.319 -10.834  -1.406 -0.30 +0.05    +0.070 A 
DOCKED: ATOM     19  C   UNL d   1      -0.707  -7.610  -2.259 -0.02 +0.01    +0.052 C 
DOCKED: ATOM     20  C   UNL d   1      -3.540 -12.988  -0.893 -0.06 +0.11    +0.066 A 
DOCKED: ATOM     21  C   UNL d   1      -3.576 -14.306  -0.445 -0.13 -0.05    -0.025 A 
DOCKED: ATOM     22  C   UNL d   1      -4.898 -14.688  -0.464 -0.13 -0.05    -0.021 A 
DOCKED: ATOM     23  C   UNL d   1      -5.621 -13.591  -0.942 -0.08 +0.13    +0.066 A 
DOCKED: ATOM     24  C   UNL d   1      -2.407 -15.158  -0.024 -0.13 +0.07    +0.051 C 
DOCKED: ATOM     25  N   UNL d   1      -7.230 -11.354  -2.078 -0.07 -0.18    -0.248 N 
DOCKED: ATOM     26  N   UNL d   1      -5.802  -8.881  -2.642 -0.02 -0.12    -0.248 N 
DOCKED: ATOM     27  N   UNL d   1      -3.383 -10.097  -1.813 -0.24 -0.15    -0.248 N 
DOCKED: ATOM     28  N   UNL d   1      -4.787 -12.575  -1.244 -0.17 -0.40    -0.248 N 
DOCKED: ATOM     29 FE   UNL d   1      -5.288 -10.741  -1.938 -0.07 +0.00    +0.000 Fe
DOCKED: ATOM     30  O   UNL d   1      -5.777 -10.948  -3.401 -0.19 +0.00    +0.000 OA
DOCKED: ATOM     31  O   UNL d   1      -4.323 -11.397  -2.993 -0.56 +0.00    +0.000 OA
DOCKED: ENDROOT
DOCKED: BRANCH   6  32
DOCKED: ATOM     32  C   UNL d   1     -10.052 -13.768  -1.882 -0.19 +0.03    +0.052 C 
DOCKED: BRANCH  32  33
DOCKED: ATOM     33  C   UNL d   1     -10.453 -14.066  -0.441 -0.08 +0.06    +0.115 C 
DOCKED: BRANCH  33  34
DOCKED: ATOM     34  C   UNL d   1      -9.978 -15.422   0.019 -0.07 +0.08    +0.139 C 
DOCKED: ATOM     35  O   UNL d   1     -10.608 -16.023   0.874 +0.02 -0.29    -0.650 OA
DOCKED: BRANCH  34  36
DOCKED: ATOM     36  O   UNL d   1      -8.851 -15.977  -0.474 +0.07 -0.57    -0.776 OA
DOCKED: ATOM     37  H   UNL d   1      -8.763 -16.213  -1.404 +0.03 +0.13    +0.167 HD
DOCKED: ENDBRANCH  34  36
DOCKED: ENDBRANCH  33  34
DOCKED: ENDBRANCH  32  33
DOCKED: ENDBRANCH   6  32
DOCKED: BRANCH  22  38
DOCKED: ATOM     38  C   UNL d   1      -5.423 -16.054  -0.104 -0.03 +0.10    +0.052 C 
DOCKED: BRANCH  38  39
DOCKED: ATOM     39  C   UNL d   1      -4.964 -17.131  -1.084 -0.08 +0.17    +0.115 C 
DOCKED: BRANCH  39  40
DOCKED: ATOM     40  C   UNL d   1      -5.769 -17.129  -2.360 +0.18 +0.25    +0.139 C 
DOCKED: ATOM     41  O   UNL d   1      -5.410 -17.814  -3.304 -0.00 -0.96    -0.650 OA
DOCKED: BRANCH  40  42
DOCKED: ATOM     42  O   UNL d   1      -6.911 -16.422  -2.462 -0.34 -1.27    -0.776 OA
DOCKED: ATOM     43  H   UNL d   1      -7.457 -16.232  -1.690 +0.02 +0.20    +0.167 HD
DOCKED: ENDBRANCH  40  42
DOCKED: ENDBRANCH  39  40
DOCKED: ENDBRANCH  38  39
DOCKED: ENDBRANCH  22  38
DOCKED: BRANCH  12  44
DOCKED: ATOM     44  C   UNL d   1      -5.455  -5.181  -3.352 -0.48 +0.00    +0.004 C 
DOCKED: ATOM     45  C   UNL d   1      -4.463  -4.688  -4.092 -0.47 +0.00    +0.012 C 
DOCKED: ENDBRANCH  12  44
DOCKED: BRANCH  17  46
DOCKED: ATOM     46  C   UNL d   1       0.242 -10.675  -1.256 -0.28 +0.00    +0.004 C 
DOCKED: ATOM     47  C   UNL d   1       0.964 -11.472  -2.055 -0.33 +0.00    +0.012 C 
DOCKED: ENDBRANCH  17  46
DOCKED: TORSDOF 10
DOCKED: TER
DOCKED: ENDMDL
________________________________________________________________________________


	BEGINNING GENETIC ALGORITHM DOCKING 32 of 100
Run: 32 Seed: 518101159 1926918114 [ Run 32 of 100 GA/GALS ]
Beginning LAMARCKIAN GENETIC ALGORITHM (LGA), with a maximum of 25000000 energy evaluations.

Final-Value: -19.549


	FINAL GENETIC ALGORITHM DOCKED STATE
	_______________________________________________


Detailed state:  trans -4.607 -8.605 -3.220 quatxyzw 0.112374 0.436165 0.734299 -0.507875 center 8.287 34.468 -0.670 ntor 10 105.7099 -144.4452 20.1803 -12.5631 172.0571 -124.9040 -22.2645 18.6880 -140.8581 138.2119
State:	 -4.607  -8.605  -3.220   0.130  0.506  0.852 -118.955    105.71 -144.45   20.18  -12.56  172.06 -124.90  -22.26   18.69 -140.86  138.21

DOCKED: MODEL       32
DOCKED: USER    Run = 32
DOCKED: USER    DPF = D:/Protein_go_brrr/autodock/final/AncA/heme_O2/dock.dpf
DOCKED: USER  
DOCKED: USER    Estimated Free Energy of Binding    =  -15.16 kcal/mol  [=(1)+(2)+(3)-(4)]
DOCKED: USER    Estimated Inhibition Constant, Ki   =    7.67 pM (picomolar)  [Temperature = 298.15 K]
DOCKED: USER    
DOCKED: USER    (1) Final Intermolecular Energy     =  -18.15 kcal/mol
DOCKED: USER        vdW + Hbond + desolv Energy     =  -14.16 kcal/mol
DOCKED: USER        Electrostatic Energy            =   -3.99 kcal/mol
DOCKED: USER    (2) Final Total Internal Energy     =   -1.40 kcal/mol
DOCKED: USER    (3) Torsional Free Energy           =   +2.98 kcal/mol
DOCKED: USER    (4) Unbound System's Energy  [=(2)] =   -1.40 kcal/mol
DOCKED: USER    
DOCKED: USER    
DOCKED: USER    NEWDPF move heme_O2_opt.pdbqt
DOCKED: USER    NEWDPF about 8.287000 34.468000 -0.670000
DOCKED: USER    NEWDPF tran0 -4.606561 -8.605018 -3.220040
DOCKED: USER    NEWDPF quaternion0 0.112374 0.436165 0.734299 -0.507875
DOCKED: USER    NEWDPF axisangle0 0.130451 0.506326 0.852418 -118.955238
DOCKED: USER    NEWDPF quat0 0.130451 0.506326 0.852418 -118.955238
DOCKED: USER    NEWDPF dihe0 105.71 -144.45 20.18 -12.56 172.06 -124.90 -22.26 18.69 -140.86 138.21 
DOCKED: USER  keepresnum = 1 
DOCKED: USER  
DOCKED: REMARK  10 active torsions:
DOCKED: REMARK  status: ('A' for Active; 'I' for Inactive)
DOCKED: REMARK    1  A    between atoms: C_6  and  C_10 
DOCKED: REMARK    2  A    between atoms: C_10  and  C_11 
DOCKED: REMARK    3  A    between atoms: C_11  and  C_12 
DOCKED: REMARK    4  A    between atoms: C_12  and  O_14 
DOCKED: REMARK    5  A    between atoms: C_17  and  C_20 
DOCKED: REMARK    6  A    between atoms: C_24  and  C_27 
DOCKED: REMARK    7  A    between atoms: C_31  and  C_34 
DOCKED: REMARK    8  A    between atoms: C_34  and  C_35 
DOCKED: REMARK    9  A    between atoms: C_35  and  C_36 
DOCKED: REMARK   10  A    between atoms: C_36  and  O_38 
DOCKED: USER                              x       y       z     vdW  Elec       q    Type
DOCKED: USER                           _______ _______ _______ _____ _____    ______ ____
DOCKED: ROOT
DOCKED: ATOM      1  C   UNL d   1      -4.625 -10.667  -2.721 -0.35 +0.05    +0.064 A 
DOCKED: ATOM      2  C   UNL d   1      -1.143  -7.441  -2.903 -0.35 +0.02    +0.064 A 
DOCKED: ATOM      3  C   UNL d   1      -4.232  -4.053  -4.346 -0.32 +0.01    +0.064 C 
DOCKED: ATOM      4  C   UNL d   1      -7.904  -7.242  -3.702 -0.41 +0.02    +0.064 A 
DOCKED: ATOM      5  C   UNL d   1      -3.426 -10.065  -2.651 -0.34 +0.04    +0.066 A 
DOCKED: ATOM      6  C   UNL d   1      -2.244 -10.717  -2.290 -0.30 -0.01    -0.021 A 
DOCKED: ATOM      7  C   UNL d   1      -1.242  -9.774  -2.300 -0.33 -0.01    -0.025 A 
DOCKED: ATOM      8  C   UNL d   1      -1.832  -8.583  -2.714 -0.38 +0.02    +0.066 A 
DOCKED: ATOM      9  C   UNL d   1       0.193 -10.031  -1.897 -0.09 +0.01    +0.051 C 
DOCKED: ATOM     10  C   UNL d   1      -1.703  -6.167  -3.358 -0.43 +0.01    +0.066 A 
DOCKED: ATOM     11  C   UNL d   1      -0.918  -5.059  -3.694 -0.46 -0.00    -0.021 A 
DOCKED: ATOM     12  C   UNL d   1      -1.789  -4.077  -4.130 -0.39 +0.00    +0.000 A 
DOCKED: ATOM     13  C   UNL d   1      -3.086  -4.652  -4.021 -0.38 +0.01    +0.070 A 
DOCKED: ATOM     14  C   UNL d   1       0.601  -4.949  -3.629 -0.59 +0.01    +0.052 C 
DOCKED: ATOM     15  C   UNL d   1      -5.566  -4.587  -4.217 -0.37 +0.01    +0.066 A 
DOCKED: ATOM     16  C   UNL d   1      -6.734  -3.853  -4.419 -0.48 -0.00    -0.021 A 
DOCKED: ATOM     17  C   UNL d   1      -7.795  -4.741  -4.240 -0.48 +0.00    +0.000 A 
DOCKED: ATOM     18  C   UNL d   1      -7.186  -5.968  -3.940 -0.40 +0.02    +0.070 A 
DOCKED: ATOM     19  C   UNL d   1      -6.736  -2.373  -4.707 -0.56 +0.00    +0.052 C 
DOCKED: ATOM     20  C   UNL d   1      -7.353  -8.426  -3.370 -0.36 +0.03    +0.066 A 
DOCKED: ATOM     21  C   UNL d   1      -8.080  -9.597  -3.175 -0.25 -0.01    -0.025 A 
DOCKED: ATOM     22  C   UNL d   1      -7.160 -10.590  -2.922 +0.27 -0.01    -0.021 A 
DOCKED: ATOM     23  C   UNL d   1      -5.902  -9.981  -2.953 -0.09 +0.04    +0.066 A 
DOCKED: ATOM     24  C   UNL d   1      -9.577  -9.761  -3.225 -0.46 +0.01    +0.051 C 
DOCKED: ATOM     25  N   UNL d   1      -3.189  -8.748  -2.867 -0.20 -0.10    -0.248 N 
DOCKED: ATOM     26  N   UNL d   1      -3.024  -5.922  -3.546 -0.26 -0.05    -0.248 N 
DOCKED: ATOM     27  N   UNL d   1      -5.837  -5.839  -3.856 -0.19 -0.08    -0.248 N 
DOCKED: ATOM     28  N   UNL d   1      -6.027  -8.657  -3.181 -0.09 -0.13    -0.248 N 
DOCKED: ATOM     29 FE   UNL d   1      -4.539  -7.297  -3.362 -0.09 +0.00    +0.000 Fe
DOCKED: ATOM     30  O   UNL d   1      -3.928  -7.129  -1.941 -0.37 +0.00    +0.000 OA
DOCKED: ATOM     31  O   UNL d   1      -5.458  -6.835  -2.174 -0.59 +0.00    +0.000 OA
DOCKED: ENDROOT
DOCKED: BRANCH   6  32
DOCKED: ATOM     32  C   UNL d   1      -2.080 -12.139  -1.819 -0.31 +0.05    +0.052 C 
DOCKED: BRANCH  32  33
DOCKED: ATOM     33  C   UNL d   1      -2.921 -12.455  -0.586 +0.07 +0.14    +0.115 C 
DOCKED: BRANCH  33  34
DOCKED: ATOM     34  C   UNL d   1      -3.232 -13.926  -0.463 -0.08 +0.23    +0.139 C 
DOCKED: ATOM     35  O   UNL d   1      -2.530 -14.741  -1.041 -0.03 -1.04    -0.650 OA
DOCKED: BRANCH  34  36
DOCKED: ATOM     36  O   UNL d   1      -4.288 -14.365   0.252 -0.13 -1.78    -0.776 OA
DOCKED: ATOM     37  H   UNL d   1      -5.087 -14.702  -0.171 +0.02 +0.38    +0.167 HD
DOCKED: ENDBRANCH  34  36
DOCKED: ENDBRANCH  33  34
DOCKED: ENDBRANCH  32  33
DOCKED: ENDBRANCH   6  32
DOCKED: BRANCH  22  38
DOCKED: ATOM     38  C   UNL d   1      -7.483 -12.027  -2.604 -0.26 +0.04    +0.052 C 
DOCKED: BRANCH  38  39
DOCKED: ATOM     39  C   UNL d   1      -6.961 -12.451  -1.233 -0.22 +0.12    +0.115 C 
DOCKED: BRANCH  39  40
DOCKED: ATOM     40  C   UNL d   1      -6.897 -13.950  -1.079 -0.17 +0.21    +0.139 C 
DOCKED: ATOM     41  O   UNL d   1      -6.889 -14.661  -2.071 -0.37 -1.30    -0.650 OA
DOCKED: BRANCH  40  42
DOCKED: ATOM     42  O   UNL d   1      -6.796 -14.521   0.137 -0.14 -1.27    -0.776 OA
DOCKED: ATOM     43  H   UNL d   1      -6.247 -15.301   0.284 +0.02 +0.33    +0.167 HD
DOCKED: ENDBRANCH  40  42
DOCKED: ENDBRANCH  39  40
DOCKED: ENDBRANCH  38  39
DOCKED: ENDBRANCH  22  38
DOCKED: BRANCH  12  44
DOCKED: ATOM     44  C   UNL d   1      -1.304  -2.719  -4.592 -0.52 +0.00    +0.004 C 
DOCKED: ATOM     45  C   UNL d   1      -2.019  -1.607  -4.757 -0.65 +0.00    +0.012 C 
DOCKED: ENDBRANCH  12  44
DOCKED: BRANCH  17  46
DOCKED: ATOM     46  C   UNL d   1      -9.284  -4.522  -4.271 -0.58 +0.00    +0.004 C 
DOCKED: ATOM     47  C   UNL d   1      -9.955  -3.371  -4.134 -0.70 +0.00    +0.012 C 
DOCKED: ENDBRANCH  17  46
DOCKED: TORSDOF 10
DOCKED: TER
DOCKED: ENDMDL
________________________________________________________________________________


	BEGINNING GENETIC ALGORITHM DOCKING 33 of 100
Run: 33 Seed: 1898750540 275833487 [ Run 33 of 100 GA/GALS ]
Beginning LAMARCKIAN GENETIC ALGORITHM (LGA), with a maximum of 25000000 energy evaluations.

Final-Value: -19.475


	FINAL GENETIC ALGORITHM DOCKED STATE
	_______________________________________________


Detailed state:  trans -4.728 -8.539 -3.175 quatxyzw 0.120347 0.428410 0.712787 -0.542139 center 8.287 34.468 -0.670 ntor 10 44.0550 108.3654 86.9820 -24.0073 131.4630 120.3568 7.4543 6.1322 -105.0641 135.5014
State:	 -4.728  -8.539  -3.175   0.143  0.510  0.848 -114.341     44.06  108.37   86.98  -24.01  131.46  120.36    7.45    6.13 -105.06  135.50

DOCKED: MODEL       33
DOCKED: USER    Run = 33
DOCKED: USER    DPF = D:/Protein_go_brrr/autodock/final/AncA/heme_O2/dock.dpf
DOCKED: USER  
DOCKED: USER    Estimated Free Energy of Binding    =  -15.24 kcal/mol  [=(1)+(2)+(3)-(4)]
DOCKED: USER    Estimated Inhibition Constant, Ki   =    6.78 pM (picomolar)  [Temperature = 298.15 K]
DOCKED: USER    
DOCKED: USER    (1) Final Intermolecular Energy     =  -18.22 kcal/mol
DOCKED: USER        vdW + Hbond + desolv Energy     =  -14.73 kcal/mol
DOCKED: USER        Electrostatic Energy            =   -3.49 kcal/mol
DOCKED: USER    (2) Final Total Internal Energy     =   -1.26 kcal/mol
DOCKED: USER    (3) Torsional Free Energy           =   +2.98 kcal/mol
DOCKED: USER    (4) Unbound System's Energy  [=(2)] =   -1.26 kcal/mol
DOCKED: USER    
DOCKED: USER    
DOCKED: USER    NEWDPF move heme_O2_opt.pdbqt
DOCKED: USER    NEWDPF about 8.287000 34.468000 -0.670000
DOCKED: USER    NEWDPF tran0 -4.727719 -8.539365 -3.175296
DOCKED: USER    NEWDPF quaternion0 0.120347 0.428410 0.712787 -0.542139
DOCKED: USER    NEWDPF axisangle0 0.143221 0.509837 0.848265 -114.341219
DOCKED: USER    NEWDPF quat0 0.143221 0.509837 0.848265 -114.341219
DOCKED: USER    NEWDPF dihe0 44.06 108.37 86.98 -24.01 131.46 120.36 7.45 6.13 -105.06 135.50 
DOCKED: USER  keepresnum = 1 
DOCKED: USER  
DOCKED: REMARK  10 active torsions:
DOCKED: REMARK  status: ('A' for Active; 'I' for Inactive)
DOCKED: REMARK    1  A    between atoms: C_6  and  C_10 
DOCKED: REMARK    2  A    between atoms: C_10  and  C_11 
DOCKED: REMARK    3  A    between atoms: C_11  and  C_12 
DOCKED: REMARK    4  A    between atoms: C_12  and  O_14 
DOCKED: REMARK    5  A    between atoms: C_17  and  C_20 
DOCKED: REMARK    6  A    between atoms: C_24  and  C_27 
DOCKED: REMARK    7  A    between atoms: C_31  and  C_34 
DOCKED: REMARK    8  A    between atoms: C_34  and  C_35 
DOCKED: REMARK    9  A    between atoms: C_35  and  C_36 
DOCKED: REMARK   10  A    between atoms: C_36  and  O_38 
DOCKED: USER                              x       y       z     vdW  Elec       q    Type
DOCKED: USER                           _______ _______ _______ _____ _____    ______ ____
DOCKED: ROOT
DOCKED: ATOM      1  C   UNL d   1      -4.923 -10.589  -2.664 -0.33 +0.05    +0.064 A 
DOCKED: ATOM      2  C   UNL d   1      -1.189  -7.656  -2.791 -0.38 +0.02    +0.064 A 
DOCKED: ATOM      3  C   UNL d   1      -3.963  -4.042  -4.320 -0.33 +0.01    +0.064 C 
DOCKED: ATOM      4  C   UNL d   1      -7.893  -6.919  -3.736 -0.40 +0.02    +0.064 A 
DOCKED: ATOM      5  C   UNL d   1      -3.682 -10.086  -2.572 -0.35 +0.04    +0.066 A 
DOCKED: ATOM      6  C   UNL d   1      -2.563 -10.828  -2.182 -0.33 -0.01    -0.021 A 
DOCKED: ATOM      7  C   UNL d   1      -1.489  -9.969  -2.176 -0.35 -0.01    -0.025 A 
DOCKED: ATOM      8  C   UNL d   1      -1.972  -8.737  -2.610 -0.41 +0.02    +0.066 A 
DOCKED: ATOM      9  C   UNL d   1      -0.088 -10.338  -1.741 -0.19 +0.02    +0.051 C 
DOCKED: ATOM     10  C   UNL d   1      -1.634  -6.345  -3.266 -0.44 +0.01    +0.066 A 
DOCKED: ATOM     11  C   UNL d   1      -0.755  -5.306  -3.592 -0.48 -0.00    -0.021 A 
DOCKED: ATOM     12  C   UNL d   1      -1.535  -4.261  -4.052 -0.41 +0.00    +0.000 A 
DOCKED: ATOM     13  C   UNL d   1      -2.876  -4.728  -3.967 -0.38 +0.01    +0.070 A 
DOCKED: ATOM     14  C   UNL d   1       0.766  -5.319  -3.494 -0.50 +0.01    +0.052 C 
DOCKED: ATOM     15  C   UNL d   1      -5.338  -4.465  -4.217 -0.36 +0.01    +0.066 A 
DOCKED: ATOM     16  C   UNL d   1      -6.439  -3.641  -4.449 -0.47 -0.00    -0.021 A 
DOCKED: ATOM     17  C   UNL d   1      -7.571  -4.439  -4.287 -0.49 +0.00    +0.000 A 
DOCKED: ATOM     18  C   UNL d   1      -7.069  -5.708  -3.967 -0.41 +0.02    +0.070 A 
DOCKED: ATOM     19  C   UNL d   1      -6.315  -2.167  -4.746 -0.55 +0.00    +0.052 C 
DOCKED: ATOM     20  C   UNL d   1      -7.447  -8.140  -3.385 -0.38 +0.02    +0.066 A 
DOCKED: ATOM     21  C   UNL d   1      -8.270  -9.248  -3.199 -0.37 -0.01    -0.025 A 
DOCKED: ATOM     22  C   UNL d   1      -7.439 -10.309  -2.920 +0.16 -0.01    -0.021 A 
DOCKED: ATOM     23  C   UNL d   1      -6.135  -9.804  -2.928 +0.06 +0.04    +0.066 A 
DOCKED: ATOM     24  C   UNL d   1      -9.774  -9.290  -3.280 -0.51 +0.01    +0.051 C 
DOCKED: ATOM     25  N   UNL d   1      -3.335  -8.794  -2.791 -0.21 -0.10    -0.248 N 
DOCKED: ATOM     26  N   UNL d   1      -2.927  -5.995  -3.483 -0.26 -0.06    -0.248 N 
DOCKED: ATOM     27  N   UNL d   1      -5.717  -5.688  -3.855 -0.25 -0.07    -0.248 N 
DOCKED: ATOM     28  N   UNL d   1      -6.148  -8.476  -3.167 -0.11 -0.13    -0.248 N 
DOCKED: ATOM     29 FE   UNL d   1      -4.551  -7.243  -3.324 -0.09 +0.00    +0.000 Fe
DOCKED: ATOM     30  O   UNL d   1      -3.959  -7.113  -1.891 -0.35 +0.00    +0.000 OA
DOCKED: ATOM     31  O   UNL d   1      -5.455  -6.698  -2.158 -0.69 +0.00    +0.000 OA
DOCKED: ENDROOT
DOCKED: BRANCH   6  32
DOCKED: ATOM     32  C   UNL d   1      -2.525 -12.254  -1.698 -0.31 +0.06    +0.052 C 
DOCKED: BRANCH  32  33
DOCKED: ATOM     33  C   UNL d   1      -3.873 -12.738  -1.172 -0.24 +0.19    +0.115 C 
DOCKED: BRANCH  33  34
DOCKED: ATOM     34  C   UNL d   1      -3.795 -14.121  -0.576 -0.02 +0.27    +0.139 C 
DOCKED: ATOM     35  O   UNL d   1      -2.859 -14.851  -0.864 -0.03 -1.12    -0.650 OA
DOCKED: BRANCH  34  36
DOCKED: ATOM     36  O   UNL d   1      -4.754 -14.586   0.252 -0.35 -1.93    -0.776 OA
DOCKED: ATOM     37  H   UNL d   1      -5.692 -14.465   0.064 +0.03 +0.37    +0.167 HD
DOCKED: ENDBRANCH  34  36
DOCKED: ENDBRANCH  33  34
DOCKED: ENDBRANCH  32  33
DOCKED: ENDBRANCH   6  32
DOCKED: BRANCH  22  38
DOCKED: ATOM     38  C   UNL d   1      -7.884 -11.713  -2.600 -0.27 +0.04    +0.052 C 
DOCKED: BRANCH  38  39
DOCKED: ATOM     39  C   UNL d   1      -7.371 -12.191  -1.244 -0.21 +0.10    +0.115 C 
DOCKED: BRANCH  39  40
DOCKED: ATOM     40  C   UNL d   1      -7.713 -13.635  -0.975 -0.17 +0.15    +0.139 C 
DOCKED: ATOM     41  O   UNL d   1      -8.715 -13.912  -0.335 +0.04 -0.52    -0.650 OA
DOCKED: BRANCH  40  42
DOCKED: ATOM     42  O   UNL d   1      -6.958 -14.633  -1.472 -0.31 -1.31    -0.776 OA
DOCKED: ATOM     43  H   UNL d   1      -6.418 -15.192  -0.900 +0.03 +0.31    +0.167 HD
DOCKED: ENDBRANCH  40  42
DOCKED: ENDBRANCH  39  40
DOCKED: ENDBRANCH  38  39
DOCKED: ENDBRANCH  22  38
DOCKED: BRANCH  12  44
DOCKED: ATOM     44  C   UNL d   1      -0.932  -2.950  -4.512 -0.48 +0.00    +0.004 C 
DOCKED: ATOM     45  C   UNL d   1      -0.802  -1.821  -3.818 -0.59 +0.00    +0.012 C 
DOCKED: ENDBRANCH  12  44
DOCKED: BRANCH  17  46
DOCKED: ATOM     46  C   UNL d   1      -9.036  -4.100  -4.351 -0.61 +0.00    +0.004 C 
DOCKED: ATOM     47  C   UNL d   1      -9.634  -2.945  -4.033 -0.69 +0.00    +0.012 C 
DOCKED: ENDBRANCH  17  46
DOCKED: TORSDOF 10
DOCKED: TER
DOCKED: ENDMDL
________________________________________________________________________________


	BEGINNING GENETIC ALGORITHM DOCKING 34 of 100
Run: 34 Seed: 316865740 496444625 [ Run 34 of 100 GA/GALS ]
Beginning LAMARCKIAN GENETIC ALGORITHM (LGA), with a maximum of 25000000 energy evaluations.

Final-Value: -11.679


	FINAL GENETIC ALGORITHM DOCKED STATE
	_______________________________________________


Detailed state:  trans -9.951 -14.393 -3.839 quatxyzw -0.553961 0.291428 0.771179 0.116099 center 8.287 34.468 -0.670 ntor 10 -162.7632 15.9584 -14.6208 117.3859 -147.6400 73.8691 -75.7244 16.9451 -148.1858 -167.8311
State:	 -9.951 -14.393  -3.839  -0.558  0.293  0.776 166.666   -162.76   15.96  -14.62  117.39 -147.64   73.87  -75.72   16.95 -148.19 -167.83

DOCKED: MODEL       34
DOCKED: USER    Run = 34
DOCKED: USER    DPF = D:/Protein_go_brrr/autodock/final/AncA/heme_O2/dock.dpf
DOCKED: USER  
DOCKED: USER    Estimated Free Energy of Binding    =   -6.55 kcal/mol  [=(1)+(2)+(3)-(4)]
DOCKED: USER    Estimated Inhibition Constant, Ki   =   15.72 uM (micromolar)  [Temperature = 298.15 K]
DOCKED: USER    
DOCKED: USER    (1) Final Intermolecular Energy     =   -9.54 kcal/mol
DOCKED: USER        vdW + Hbond + desolv Energy     =   -6.60 kcal/mol
DOCKED: USER        Electrostatic Energy            =   -2.94 kcal/mol
DOCKED: USER    (2) Final Total Internal Energy     =   -2.14 kcal/mol
DOCKED: USER    (3) Torsional Free Energy           =   +2.98 kcal/mol
DOCKED: USER    (4) Unbound System's Energy  [=(2)] =   -2.14 kcal/mol
DOCKED: USER    
DOCKED: USER    
DOCKED: USER    NEWDPF move heme_O2_opt.pdbqt
DOCKED: USER    NEWDPF about 8.287000 34.468000 -0.670000
DOCKED: USER    NEWDPF tran0 -9.950695 -14.393052 -3.839379
DOCKED: USER    NEWDPF quaternion0 -0.553961 0.291428 0.771179 0.116099
DOCKED: USER    NEWDPF axisangle0 -0.557733 0.293412 0.776430 166.665979
DOCKED: USER    NEWDPF quat0 -0.557733 0.293412 0.776430 166.665979
DOCKED: USER    NEWDPF dihe0 -162.76 15.96 -14.62 117.39 -147.64 73.87 -75.72 16.95 -148.19 -167.83 
DOCKED: USER  keepresnum = 1 
DOCKED: USER  
DOCKED: REMARK  10 active torsions:
DOCKED: REMARK  status: ('A' for Active; 'I' for Inactive)
DOCKED: REMARK    1  A    between atoms: C_6  and  C_10 
DOCKED: REMARK    2  A    between atoms: C_10  and  C_11 
DOCKED: REMARK    3  A    between atoms: C_11  and  C_12 
DOCKED: REMARK    4  A    between atoms: C_12  and  O_14 
DOCKED: REMARK    5  A    between atoms: C_17  and  C_20 
DOCKED: REMARK    6  A    between atoms: C_24  and  C_27 
DOCKED: REMARK    7  A    between atoms: C_31  and  C_34 
DOCKED: REMARK    8  A    between atoms: C_34  and  C_35 
DOCKED: REMARK    9  A    between atoms: C_35  and  C_36 
DOCKED: REMARK   10  A    between atoms: C_36  and  O_38 
DOCKED: USER                              x       y       z     vdW  Elec       q    Type
DOCKED: USER                           _______ _______ _______ _____ _____    ______ ____
DOCKED: ROOT
DOCKED: ATOM      1  C   UNL d   1      -8.628 -14.195  -2.193 -0.13 +0.05    +0.064 A 
DOCKED: ATOM      2  C   UNL d   1     -12.076 -11.405  -3.892 -0.30 +0.01    +0.064 A 
DOCKED: ATOM      3  C   UNL d   1     -12.959 -14.508  -7.453 -0.12 +0.00    +0.064 C 
DOCKED: ATOM      4  C   UNL d   1      -9.739 -17.612  -5.438 -0.11 +0.03    +0.064 A 
DOCKED: ATOM      5  C   UNL d   1      -9.495 -13.183  -2.364 -0.14 +0.04    +0.066 A 
DOCKED: ATOM      6  C   UNL d   1      -9.550 -12.053  -1.543 -0.29 -0.01    -0.021 A 
DOCKED: ATOM      7  C   UNL d   1     -10.576 -11.265  -2.008 -0.25 -0.01    -0.025 A 
DOCKED: ATOM      8  C   UNL d   1     -11.089 -11.913  -3.129 -0.24 +0.02    +0.066 A 
DOCKED: ATOM      9  C   UNL d   1     -11.036  -9.974  -1.366 -0.32 +0.01    +0.051 C 
DOCKED: ATOM     10  C   UNL d   1     -12.639 -12.027  -5.091 -0.29 +0.01    +0.066 A 
DOCKED: ATOM     11  C   UNL d   1     -13.547 -11.382  -5.938 -0.32 -0.00    -0.021 A 
DOCKED: ATOM     12  C   UNL d   1     -13.800 -12.254  -6.981 -0.24 +0.00    +0.000 A 
DOCKED: ATOM     13  C   UNL d   1     -13.024 -13.412  -6.698 -0.24 +0.01    +0.070 A 
DOCKED: ATOM     14  C   UNL d   1     -14.128  -9.982  -5.774 -0.39 +0.00    +0.052 C 
DOCKED: ATOM     15  C   UNL d   1     -12.214 -15.714  -7.184 -0.10 +0.01    +0.066 A 
DOCKED: ATOM     16  C   UNL d   1     -12.316 -16.889  -7.929 -0.13 -0.00    -0.021 A 
DOCKED: ATOM     17  C   UNL d   1     -11.407 -17.789  -7.372 -0.15 +0.00    +0.000 A 
DOCKED: ATOM     18  C   UNL d   1     -10.810 -17.086  -6.317 -0.16 +0.03    +0.070 A 
DOCKED: ATOM     19  C   UNL d   1     -13.300 -17.065  -9.058 -0.12 +0.01    +0.052 C 
DOCKED: ATOM     20  C   UNL d   1      -9.174 -16.980  -4.390 -0.11 +0.04    +0.066 A 
DOCKED: ATOM     21  C   UNL d   1      -8.157 -17.520  -3.609 -0.09 -0.02    -0.025 A 
DOCKED: ATOM     22  C   UNL d   1      -7.809 -16.550  -2.697 -0.10 -0.02    -0.021 A 
DOCKED: ATOM     23  C   UNL d   1      -8.643 -15.456  -2.944 -0.11 +0.06    +0.066 A 
DOCKED: ATOM     24  C   UNL d   1      -7.549 -18.895  -3.725 -0.05 +0.04    +0.051 C 
DOCKED: ATOM     25  N   UNL d   1     -10.465 -13.126  -3.308 +0.04 -0.10    -0.248 N 
DOCKED: ATOM     26  N   UNL d   1     -12.324 -13.267  -5.545 -0.12 -0.05    -0.248 N 
DOCKED: ATOM     27  N   UNL d   1     -11.364 -15.855  -6.171 -0.14 -0.08    -0.248 N 
DOCKED: ATOM     28  N   UNL d   1      -9.502 -15.738  -3.945 -0.07 -0.15    -0.248 N 
DOCKED: ATOM     29 FE   UNL d   1     -10.904 -14.514  -4.741 -0.04 +0.00    +0.000 Fe
DOCKED: ATOM     30  O   UNL d   1     -12.010 -14.358  -3.657 -0.17 +0.00    +0.000 OA
DOCKED: ATOM     31  O   UNL d   1     -11.645 -15.791  -4.200 -0.11 +0.00    +0.000 OA
DOCKED: ENDROOT
DOCKED: BRANCH   6  32
DOCKED: ATOM     32  C   UNL d   1      -8.761 -11.784  -0.288 -0.14 +0.03    +0.052 C 
DOCKED: BRANCH  32  33
DOCKED: ATOM     33  C   UNL d   1      -9.083 -12.766   0.835 -0.28 +0.08    +0.115 C 
DOCKED: BRANCH  33  34
DOCKED: ATOM     34  C   UNL d   1      -8.026 -13.831   0.989 -0.18 +0.16    +0.139 C 
DOCKED: ATOM     35  O   UNL d   1      -6.883 -13.509   1.272 -0.04 -1.23    -0.650 OA
DOCKED: BRANCH  34  36
DOCKED: ATOM     36  O   UNL d   1      -8.308 -15.135   0.792 +0.07 -0.77    -0.776 OA
DOCKED: ATOM     37  H   UNL d   1      -7.732 -15.837   1.119 +0.03 +0.20    +0.167 HD
DOCKED: ENDBRANCH  34  36
DOCKED: ENDBRANCH  33  34
DOCKED: ENDBRANCH  32  33
DOCKED: ENDBRANCH   6  32
DOCKED: BRANCH  22  38
DOCKED: ATOM     38  C   UNL d   1      -6.776 -16.697  -1.609 -0.04 +0.07    +0.052 C 
DOCKED: BRANCH  38  39
DOCKED: ATOM     39  C   UNL d   1      -7.180 -17.728  -0.558 -0.02 +0.10    +0.115 C 
DOCKED: BRANCH  39  40
DOCKED: ATOM     40  C   UNL d   1      -6.365 -17.613   0.706 -0.03 +0.15    +0.139 C 
DOCKED: ATOM     41  O   UNL d   1      -6.019 -18.623   1.298 +0.01 -0.51    -0.650 OA
DOCKED: BRANCH  40  42
DOCKED: ATOM     42  O   UNL d   1      -5.964 -16.413   1.168 -0.13 -1.51    -0.776 OA
DOCKED: ATOM     43  H   UNL d   1      -6.388 -15.595   0.883 +0.02 +0.36    +0.167 HD
DOCKED: ENDBRANCH  40  42
DOCKED: ENDBRANCH  39  40
DOCKED: ENDBRANCH  38  39
DOCKED: ENDBRANCH  22  38
DOCKED: BRANCH  12  44
DOCKED: ATOM     44  C   UNL d   1     -14.740 -11.900  -8.115 -0.25 +0.00    +0.004 C 
DOCKED: ATOM     45  C   UNL d   1     -14.815 -12.460  -9.321 -0.27 +0.00    +0.012 C 
DOCKED: ENDBRANCH  12  44
DOCKED: BRANCH  17  46
DOCKED: ATOM     46  C   UNL d   1     -11.109 -19.227  -7.705 -0.09 +0.00    +0.004 C 
DOCKED: ATOM     47  C   UNL d   1     -10.004 -19.736  -8.264 -0.14 +0.01    +0.012 C 
DOCKED: ENDBRANCH  17  46
DOCKED: TORSDOF 10
DOCKED: TER
DOCKED: ENDMDL
________________________________________________________________________________


	BEGINNING GENETIC ALGORITHM DOCKING 35 of 100
Run: 35 Seed: 91328116 1906800792 [ Run 35 of 100 GA/GALS ]
Beginning LAMARCKIAN GENETIC ALGORITHM (LGA), with a maximum of 25000000 energy evaluations.

Final-Value: -18.863


	FINAL GENETIC ALGORITHM DOCKED STATE
	_______________________________________________


Detailed state:  trans -5.480 -8.112 -3.368 quatxyzw -0.125074 -0.378605 -0.693635 0.599904 center 8.287 34.468 -0.670 ntor 10 -55.7139 -159.4877 30.2239 -131.3174 -119.2714 152.5909 -8.7401 58.1323 -142.2096 171.0916
State:	 -5.480  -8.112  -3.368  -0.156 -0.473 -0.867 106.274    -55.71 -159.49   30.22 -131.32 -119.27  152.59   -8.74   58.13 -142.21  171.09

DOCKED: MODEL       35
DOCKED: USER    Run = 35
DOCKED: USER    DPF = D:/Protein_go_brrr/autodock/final/AncA/heme_O2/dock.dpf
DOCKED: USER  
DOCKED: USER    Estimated Free Energy of Binding    =  -13.75 kcal/mol  [=(1)+(2)+(3)-(4)]
DOCKED: USER    Estimated Inhibition Constant, Ki   =   82.79 pM (picomolar)  [Temperature = 298.15 K]
DOCKED: USER    
DOCKED: USER    (1) Final Intermolecular Energy     =  -16.74 kcal/mol
DOCKED: USER        vdW + Hbond + desolv Energy     =  -13.52 kcal/mol
DOCKED: USER        Electrostatic Energy            =   -3.22 kcal/mol
DOCKED: USER    (2) Final Total Internal Energy     =   -2.13 kcal/mol
DOCKED: USER    (3) Torsional Free Energy           =   +2.98 kcal/mol
DOCKED: USER    (4) Unbound System's Energy  [=(2)] =   -2.13 kcal/mol
DOCKED: USER    
DOCKED: USER    
DOCKED: USER    NEWDPF move heme_O2_opt.pdbqt
DOCKED: USER    NEWDPF about 8.287000 34.468000 -0.670000
DOCKED: USER    NEWDPF tran0 -5.479850 -8.111930 -3.367535
DOCKED: USER    NEWDPF quaternion0 -0.125074 -0.378605 -0.693635 0.599904
DOCKED: USER    NEWDPF axisangle0 -0.156328 -0.473214 -0.866966 106.273908
DOCKED: USER    NEWDPF quat0 -0.156328 -0.473214 -0.866966 106.273908
DOCKED: USER    NEWDPF dihe0 -55.71 -159.49 30.22 -131.32 -119.27 152.59 -8.74 58.13 -142.21 171.09 
DOCKED: USER  keepresnum = 1 
DOCKED: USER  
DOCKED: REMARK  10 active torsions:
DOCKED: REMARK  status: ('A' for Active; 'I' for Inactive)
DOCKED: REMARK    1  A    between atoms: C_6  and  C_10 
DOCKED: REMARK    2  A    between atoms: C_10  and  C_11 
DOCKED: REMARK    3  A    between atoms: C_11  and  C_12 
DOCKED: REMARK    4  A    between atoms: C_12  and  O_14 
DOCKED: REMARK    5  A    between atoms: C_17  and  C_20 
DOCKED: REMARK    6  A    between atoms: C_24  and  C_27 
DOCKED: REMARK    7  A    between atoms: C_31  and  C_34 
DOCKED: REMARK    8  A    between atoms: C_34  and  C_35 
DOCKED: REMARK    9  A    between atoms: C_35  and  C_36 
DOCKED: REMARK   10  A    between atoms: C_36  and  O_38 
DOCKED: USER                              x       y       z     vdW  Elec       q    Type
DOCKED: USER                           _______ _______ _______ _____ _____    ______ ____
DOCKED: ROOT
DOCKED: ATOM      1  C   UNL d   1      -5.961 -10.142  -2.982 -0.09 +0.04    +0.064 A 
DOCKED: ATOM      2  C   UNL d   1      -1.915  -7.679  -2.625 -0.45 +0.02    +0.064 A 
DOCKED: ATOM      3  C   UNL d   1      -4.090  -3.698  -4.208 -0.11 +0.01    +0.064 C 
DOCKED: ATOM      4  C   UNL d   1      -8.367  -6.099  -4.125 -0.41 +0.01    +0.064 A 
DOCKED: ATOM      5  C   UNL d   1      -4.683  -9.796  -2.754 -0.30 +0.04    +0.066 A 
DOCKED: ATOM      6  C   UNL d   1      -3.701 -10.683  -2.303 -0.36 -0.02    -0.021 A 
DOCKED: ATOM      7  C   UNL d   1      -2.539  -9.961  -2.158 -0.39 -0.01    -0.025 A 
DOCKED: ATOM      8  C   UNL d   1      -2.832  -8.664  -2.570 -0.40 +0.03    +0.066 A 
DOCKED: ATOM      9  C   UNL d   1      -1.238 -10.515  -1.619 -0.39 +0.02    +0.051 C 
DOCKED: ATOM     10  C   UNL d   1      -2.157  -6.306  -3.069 -0.40 +0.02    +0.066 A 
DOCKED: ATOM     11  C   UNL d   1      -1.136  -5.369  -3.262 -0.47 -0.00    -0.021 A 
DOCKED: ATOM     12  C   UNL d   1      -1.741  -4.219  -3.736 -0.43 +0.00    +0.000 A 
DOCKED: ATOM     13  C   UNL d   1      -3.130  -4.524  -3.795 -0.35 +0.01    +0.070 A 
DOCKED: ATOM     14  C   UNL d   1       0.357  -5.569  -3.031 -0.45 +0.01    +0.052 C 
DOCKED: ATOM     15  C   UNL d   1      -5.510  -3.955  -4.250 -0.28 +0.01    +0.066 A 
DOCKED: ATOM     16  C   UNL d   1      -6.479  -2.995  -4.536 -0.49 -0.00    -0.021 A 
DOCKED: ATOM     17  C   UNL d   1      -7.707  -3.657  -4.517 -0.54 +0.00    +0.000 A 
DOCKED: ATOM     18  C   UNL d   1      -7.390  -4.989  -4.219 -0.41 +0.01    +0.070 A 
DOCKED: ATOM     19  C   UNL d   1      -6.157  -1.537  -4.746 +0.74 -0.00    +0.052 C 
DOCKED: ATOM     20  C   UNL d   1      -8.102  -7.379  -3.798 -0.41 +0.02    +0.066 A 
DOCKED: ATOM     21  C   UNL d   1      -9.063  -8.385  -3.743 -0.46 -0.01    -0.025 A 
DOCKED: ATOM     22  C   UNL d   1      -8.391  -9.550  -3.446 -0.20 -0.01    -0.021 A 
DOCKED: ATOM     23  C   UNL d   1      -7.042  -9.206  -3.311 -0.30 +0.03    +0.066 A 
DOCKED: ATOM     24  C   UNL d   1     -10.547  -8.242  -3.960 -0.35 +0.01    +0.051 C 
DOCKED: ATOM     25  N   UNL d   1      -4.168  -8.548  -2.874 -0.12 -0.11    -0.248 N 
DOCKED: ATOM     26  N   UNL d   1      -3.374  -5.794  -3.383 -0.25 -0.06    -0.248 N 
DOCKED: ATOM     27  N   UNL d   1      -6.061  -5.137  -3.986 -0.25 -0.06    -0.248 N 
DOCKED: ATOM     28  N   UNL d   1      -6.878  -7.878  -3.482 -0.22 -0.11    -0.248 N 
DOCKED: ATOM     29 FE   UNL d   1      -5.140  -6.841  -3.434 -0.09 +0.00    +0.000 Fe
DOCKED: ATOM     30  O   UNL d   1      -4.675  -6.841  -1.948 -0.58 +0.00    +0.000 OA
DOCKED: ATOM     31  O   UNL d   1      -6.080  -6.238  -2.326 +0.06 +0.00    +0.000 OA
DOCKED: ENDROOT
DOCKED: BRANCH   6  32
DOCKED: ATOM     32  C   UNL d   1      -3.875 -12.122  -1.892 -0.29 +0.08    +0.052 C 
DOCKED: BRANCH  32  33
DOCKED: ATOM     33  C   UNL d   1      -4.873 -12.296  -0.752 -0.25 +0.16    +0.115 C 
DOCKED: BRANCH  33  34
DOCKED: ATOM     34  C   UNL d   1      -5.241 -13.741  -0.523 -0.15 +0.27    +0.139 C 
DOCKED: ATOM     35  O   UNL d   1      -4.583 -14.416   0.252 -0.29 -1.57    -0.650 OA
DOCKED: BRANCH  34  36
DOCKED: ATOM     36  O   UNL d   1      -6.268 -14.318  -1.181 -0.29 -1.54    -0.776 OA
DOCKED: ATOM     37  H   UNL d   1      -7.160 -13.952  -1.157 +0.05 +0.23    +0.167 HD
DOCKED: ENDBRANCH  34  36
DOCKED: ENDBRANCH  33  34
DOCKED: ENDBRANCH  32  33
DOCKED: ENDBRANCH   6  32
DOCKED: BRANCH  22  38
DOCKED: ATOM     38  C   UNL d   1      -9.025 -10.901  -3.239 -0.18 +0.02    +0.052 C 
DOCKED: BRANCH  38  39
DOCKED: ATOM     39  C   UNL d   1      -9.476 -11.118  -1.796 -0.34 +0.04    +0.115 C 
DOCKED: BRANCH  39  40
DOCKED: ATOM     40  C   UNL d   1      -8.853 -12.343  -1.176 -0.24 +0.09    +0.139 C 
DOCKED: ATOM     41  O   UNL d   1      -9.088 -13.446  -1.643 +0.03 -0.43    -0.650 OA
DOCKED: BRANCH  40  42
DOCKED: ATOM     42  O   UNL d   1      -7.996 -12.240  -0.141 -0.02 -0.65    -0.776 OA
DOCKED: ATOM     43  H   UNL d   1      -7.352 -12.931   0.052 +0.06 +0.19    +0.167 HD
DOCKED: ENDBRANCH  40  42
DOCKED: ENDBRANCH  39  40
DOCKED: ENDBRANCH  38  39
DOCKED: ENDBRANCH  22  38
DOCKED: BRANCH  12  44
DOCKED: ATOM     44  C   UNL d   1      -0.949  -2.974  -4.073 -0.52 +0.00    +0.004 C 
DOCKED: ATOM     45  C   UNL d   1      -1.372  -1.710  -4.076 -0.61 +0.00    +0.012 C 
DOCKED: ENDBRANCH  12  44
DOCKED: BRANCH  17  46
DOCKED: ATOM     46  C   UNL d   1      -9.111  -3.141  -4.694 -0.64 +0.00    +0.004 C 
DOCKED: ATOM     47  C   UNL d   1     -10.208  -3.473  -4.003 -0.69 +0.00    +0.012 C 
DOCKED: ENDBRANCH  17  46
DOCKED: TORSDOF 10
DOCKED: TER
DOCKED: ENDMDL
________________________________________________________________________________


	BEGINNING GENETIC ALGORITHM DOCKING 36 of 100
Run: 36 Seed: 1553717406 2112116822 [ Run 36 of 100 GA/GALS ]
Beginning LAMARCKIAN GENETIC ALGORITHM (LGA), with a maximum of 25000000 energy evaluations.

Final-Value: -12.456


	FINAL GENETIC ALGORITHM DOCKED STATE
	_______________________________________________


Detailed state:  trans 0.325 -15.514 -2.185 quatxyzw -0.419663 0.018131 0.390092 -0.819380 center 8.287 34.468 -0.670 ntor 10 100.7574 -12.0097 -47.3323 113.7352 126.9641 146.1543 107.0466 -33.8414 -142.2160 170.2358
State:	  0.325 -15.514  -2.185  -0.732  0.032  0.680 -69.955    100.76  -12.01  -47.33  113.74  126.96  146.15  107.05  -33.84 -142.22  170.24

DOCKED: MODEL       36
DOCKED: USER    Run = 36
DOCKED: USER    DPF = D:/Protein_go_brrr/autodock/final/AncA/heme_O2/dock.dpf
DOCKED: USER  
DOCKED: USER    Estimated Free Energy of Binding    =   -8.75 kcal/mol  [=(1)+(2)+(3)-(4)]
DOCKED: USER    Estimated Inhibition Constant, Ki   =  385.66 nM (nanomolar)  [Temperature = 298.15 K]
DOCKED: USER    
DOCKED: USER    (1) Final Intermolecular Energy     =  -11.73 kcal/mol
DOCKED: USER        vdW + Hbond + desolv Energy     =   -7.37 kcal/mol
DOCKED: USER        Electrostatic Energy            =   -4.37 kcal/mol
DOCKED: USER    (2) Final Total Internal Energy     =   -0.72 kcal/mol
DOCKED: USER    (3) Torsional Free Energy           =   +2.98 kcal/mol
DOCKED: USER    (4) Unbound System's Energy  [=(2)] =   -0.72 kcal/mol
DOCKED: USER    
DOCKED: USER    
DOCKED: USER    NEWDPF move heme_O2_opt.pdbqt
DOCKED: USER    NEWDPF about 8.287000 34.468000 -0.670000
DOCKED: USER    NEWDPF tran0 0.325018 -15.514040 -2.185374
DOCKED: USER    NEWDPF quaternion0 -0.419663 0.018131 0.390092 -0.819380
DOCKED: USER    NEWDPF axisangle0 -0.732074 0.031629 0.680490 -69.954511
DOCKED: USER    NEWDPF quat0 -0.732074 0.031629 0.680490 -69.954511
DOCKED: USER    NEWDPF dihe0 100.76 -12.01 -47.33 113.74 126.96 146.15 107.05 -33.84 -142.22 170.24 
DOCKED: USER  keepresnum = 1 
DOCKED: USER  
DOCKED: REMARK  10 active torsions:
DOCKED: REMARK  status: ('A' for Active; 'I' for Inactive)
DOCKED: REMARK    1  A    between atoms: C_6  and  C_10 
DOCKED: REMARK    2  A    between atoms: C_10  and  C_11 
DOCKED: REMARK    3  A    between atoms: C_11  and  C_12 
DOCKED: REMARK    4  A    between atoms: C_12  and  O_14 
DOCKED: REMARK    5  A    between atoms: C_17  and  C_20 
DOCKED: REMARK    6  A    between atoms: C_24  and  C_27 
DOCKED: REMARK    7  A    between atoms: C_31  and  C_34 
DOCKED: REMARK    8  A    between atoms: C_34  and  C_35 
DOCKED: REMARK    9  A    between atoms: C_35  and  C_36 
DOCKED: REMARK   10  A    between atoms: C_36  and  O_38 
DOCKED: USER                              x       y       z     vdW  Elec       q    Type
DOCKED: USER                           _______ _______ _______ _____ _____    ______ ____
DOCKED: ROOT
DOCKED: ATOM      1  C   UNL d   1      -1.130 -17.036  -2.441 -0.05 +0.06    +0.064 A 
DOCKED: ATOM      2  C   UNL d   1       0.367 -14.637   1.375 -0.11 +0.04    +0.064 A 
DOCKED: ATOM      3  C   UNL d   1       3.534 -12.194  -1.289 -0.20 +0.01    +0.064 C 
DOCKED: ATOM      4  C   UNL d   1       1.670 -14.313  -5.301 -0.25 +0.03    +0.064 A 
DOCKED: ATOM      5  C   UNL d   1      -0.983 -16.581  -1.186 -0.04 +0.06    +0.066 A 
DOCKED: ATOM      6  C   UNL d   1      -1.709 -17.057  -0.090 -0.05 -0.02    -0.021 A 
DOCKED: ATOM      7  C   UNL d   1      -1.307 -16.333   1.008 -0.08 -0.02    -0.025 A 
DOCKED: ATOM      8  C   UNL d   1      -0.312 -15.469   0.562 -0.08 +0.05    +0.066 A 
DOCKED: ATOM      9  C   UNL d   1      -1.893 -16.470   2.396 -0.02 +0.05    +0.051 C 
DOCKED: ATOM     10  C   UNL d   1       1.437 -13.724   0.970 -0.12 +0.03    +0.066 A 
DOCKED: ATOM     11  C   UNL d   1       2.219 -13.003   1.879 -0.17 -0.01    -0.021 A 
DOCKED: ATOM     12  C   UNL d   1       3.150 -12.306   1.131 -0.21 +0.00    +0.000 A 
DOCKED: ATOM     13  C   UNL d   1       2.869 -12.639  -0.223 -0.14 +0.02    +0.070 A 
DOCKED: ATOM     14  C   UNL d   1       2.102 -13.001   3.398 -0.21 +0.02    +0.052 C 
DOCKED: ATOM     15  C   UNL d   1       3.259 -12.479  -2.676 -0.15 +0.02    +0.066 A 
DOCKED: ATOM     16  C   UNL d   1       3.887 -11.853  -3.752 -0.26 -0.00    -0.021 A 
DOCKED: ATOM     17  C   UNL d   1       3.371 -12.441  -4.907 -0.30 +0.00    +0.000 A 
DOCKED: ATOM     18  C   UNL d   1       2.455 -13.395  -4.443 -0.20 +0.03    +0.070 A 
DOCKED: ATOM     19  C   UNL d   1       4.873 -10.724  -3.585 -0.36 +0.01    +0.052 C 
DOCKED: ATOM     20  C   UNL d   1       0.752 -15.210  -4.892 -0.17 +0.04    +0.066 A 
DOCKED: ATOM     21  C   UNL d   1       0.056 -16.060  -5.747 -0.22 -0.02    -0.025 A 
DOCKED: ATOM     22  C   UNL d   1      -0.726 -16.862  -4.947 -0.13 -0.02    -0.021 A 
DOCKED: ATOM     23  C   UNL d   1      -0.492 -16.457  -3.629 -0.08 +0.06    +0.066 A 
DOCKED: ATOM     24  C   UNL d   1       0.132 -16.103  -7.251 -0.21 +0.03    +0.051 C 
DOCKED: ATOM     25  N   UNL d   1      -0.159 -15.576  -0.801 -0.02 -0.17    -0.248 N 
DOCKED: ATOM     26  N   UNL d   1       1.822 -13.499  -0.312 -0.04 -0.10    -0.248 N 
DOCKED: ATOM     27  N   UNL d   1       2.345 -13.353  -3.091 -0.06 -0.09    -0.248 N 
DOCKED: ATOM     28  N   UNL d   1       0.373 -15.423  -3.604 -0.05 -0.17    -0.248 N 
DOCKED: ATOM     29 FE   UNL d   1       1.094 -14.466  -1.972 -0.02 +0.00    +0.000 Fe
DOCKED: ATOM     30  O   UNL d   1      -0.097 -13.656  -1.382 -0.15 +0.00    +0.000 OA
DOCKED: ATOM     31  O   UNL d   1       0.367 -13.394  -2.864 -0.19 +0.00    +0.000 OA
DOCKED: ENDROOT
DOCKED: BRANCH   6  32
DOCKED: ATOM     32  C   UNL d   1      -2.836 -18.057  -0.094 -0.03 +0.04    +0.052 C 
DOCKED: BRANCH  32  33
DOCKED: ATOM     33  C   UNL d   1      -4.009 -17.625  -0.969 -0.06 +0.14    +0.115 C 
DOCKED: BRANCH  33  34
DOCKED: ATOM     34  C   UNL d   1      -4.835 -16.538  -0.328 -0.10 +0.23    +0.139 C 
DOCKED: ATOM     35  O   UNL d   1      -4.827 -16.411   0.886 -0.23 -1.33    -0.650 OA
DOCKED: BRANCH  34  36
DOCKED: ATOM     36  O   UNL d   1      -5.608 -15.714  -1.066 -0.32 -1.73    -0.776 OA
DOCKED: ATOM     37  H   UNL d   1      -6.561 -15.840  -1.140 +0.02 +0.28    +0.167 HD
DOCKED: ENDBRANCH  34  36
DOCKED: ENDBRANCH  33  34
DOCKED: ENDBRANCH  32  33
DOCKED: ENDBRANCH   6  32
DOCKED: BRANCH  22  38
DOCKED: ATOM     38  C   UNL d   1      -1.692 -17.913  -5.432 -0.13 +0.05    +0.052 C 
DOCKED: BRANCH  38  39
DOCKED: ATOM     39  C   UNL d   1      -3.080 -17.342  -5.714 -0.00 +0.16    +0.115 C 
DOCKED: BRANCH  39  40
DOCKED: ATOM     40  C   UNL d   1      -3.751 -18.012  -6.887 -0.20 +0.22    +0.139 C 
DOCKED: ATOM     41  O   UNL d   1      -3.321 -17.834  -8.015 -0.52 -1.14    -0.650 OA
DOCKED: BRANCH  40  42
DOCKED: ATOM     42  O   UNL d   1      -4.791 -18.850  -6.707 -0.02 -1.44    -0.776 OA
DOCKED: ATOM     43  H   UNL d   1      -5.052 -19.149  -5.828 +0.03 +0.22    +0.167 HD
DOCKED: ENDBRANCH  40  42
DOCKED: ENDBRANCH  39  40
DOCKED: ENDBRANCH  38  39
DOCKED: ENDBRANCH  22  38
DOCKED: BRANCH  12  44
DOCKED: ATOM     44  C   UNL d   1       4.189 -11.410   1.772 -0.24 +0.00    +0.004 C 
DOCKED: ATOM     45  C   UNL d   1       5.508 -11.419   1.581 -0.22 +0.00    +0.012 C 
DOCKED: ENDBRANCH  12  44
DOCKED: BRANCH  17  46
DOCKED: ATOM     46  C   UNL d   1       3.620 -12.145  -6.362 -0.49 +0.00    +0.004 C 
DOCKED: ATOM     47  C   UNL d   1       4.320 -12.867  -7.247 -0.49 +0.00    +0.012 C 
DOCKED: ENDBRANCH  17  46
DOCKED: TORSDOF 10
DOCKED: TER
DOCKED: ENDMDL
________________________________________________________________________________


	BEGINNING GENETIC ALGORITHM DOCKING 37 of 100
Run: 37 Seed: 1326771861 726625883 [ Run 37 of 100 GA/GALS ]
Beginning LAMARCKIAN GENETIC ALGORITHM (LGA), with a maximum of 25000000 energy evaluations.

Final-Value: -10.607


	FINAL GENETIC ALGORITHM DOCKED STATE
	_______________________________________________


Detailed state:  trans -12.356 -15.557 1.379 quatxyzw -0.226686 -0.304329 0.906795 0.183631 center 8.287 34.468 -0.670 ntor 10 81.6561 -20.5399 -64.9158 123.1803 -90.6351 -161.3611 -47.8032 15.6539 172.8779 144.5329
State:	-12.356 -15.557   1.379  -0.231 -0.310  0.922 158.837     81.66  -20.54  -64.92  123.18  -90.64 -161.36  -47.80   15.65  172.88  144.53

DOCKED: MODEL       37
DOCKED: USER    Run = 37
DOCKED: USER    DPF = D:/Protein_go_brrr/autodock/final/AncA/heme_O2/dock.dpf
DOCKED: USER  
DOCKED: USER    Estimated Free Energy of Binding    =   -6.08 kcal/mol  [=(1)+(2)+(3)-(4)]
DOCKED: USER    Estimated Inhibition Constant, Ki   =   35.21 uM (micromolar)  [Temperature = 298.15 K]
DOCKED: USER    
DOCKED: USER    (1) Final Intermolecular Energy     =   -9.06 kcal/mol
DOCKED: USER        vdW + Hbond + desolv Energy     =   -5.03 kcal/mol
DOCKED: USER        Electrostatic Energy            =   -4.03 kcal/mol
DOCKED: USER    (2) Final Total Internal Energy     =   -1.55 kcal/mol
DOCKED: USER    (3) Torsional Free Energy           =   +2.98 kcal/mol
DOCKED: USER    (4) Unbound System's Energy  [=(2)] =   -1.55 kcal/mol
DOCKED: USER    
DOCKED: USER    
DOCKED: USER    NEWDPF move heme_O2_opt.pdbqt
DOCKED: USER    NEWDPF about 8.287000 34.468000 -0.670000
DOCKED: USER    NEWDPF tran0 -12.356447 -15.556993 1.379218
DOCKED: USER    NEWDPF quaternion0 -0.226686 -0.304329 0.906795 0.183631
DOCKED: USER    NEWDPF axisangle0 -0.230608 -0.309594 0.922481 158.837288
DOCKED: USER    NEWDPF quat0 -0.230608 -0.309594 0.922481 158.837288
DOCKED: USER    NEWDPF dihe0 81.66 -20.54 -64.92 123.18 -90.64 -161.36 -47.80 15.65 172.88 144.53 
DOCKED: USER  keepresnum = 1 
DOCKED: USER  
DOCKED: REMARK  10 active torsions:
DOCKED: REMARK  status: ('A' for Active; 'I' for Inactive)
DOCKED: REMARK    1  A    between atoms: C_6  and  C_10 
DOCKED: REMARK    2  A    between atoms: C_10  and  C_11 
DOCKED: REMARK    3  A    between atoms: C_11  and  C_12 
DOCKED: REMARK    4  A    between atoms: C_12  and  O_14 
DOCKED: REMARK    5  A    between atoms: C_17  and  C_20 
DOCKED: REMARK    6  A    between atoms: C_24  and  C_27 
DOCKED: REMARK    7  A    between atoms: C_31  and  C_34 
DOCKED: REMARK    8  A    between atoms: C_34  and  C_35 
DOCKED: REMARK    9  A    between atoms: C_35  and  C_36 
DOCKED: REMARK   10  A    between atoms: C_36  and  O_38 
DOCKED: USER                              x       y       z     vdW  Elec       q    Type
DOCKED: USER                           _______ _______ _______ _____ _____    ______ ____
DOCKED: ROOT
DOCKED: ATOM      1  C   UNL d   1     -10.282 -15.134   1.505 -0.11 +0.03    +0.064 A 
DOCKED: ATOM      2  C   UNL d   1     -13.651 -15.680   4.808 -0.17 +0.01    +0.064 A 
DOCKED: ATOM      3  C   UNL d   1     -16.983 -16.407   1.422 -0.13 +0.01    +0.064 C 
DOCKED: ATOM      4  C   UNL d   1     -13.438 -16.322  -1.968 -0.08 +0.01    +0.064 A 
DOCKED: ATOM      5  C   UNL d   1     -10.926 -15.225   2.680 -0.13 +0.03    +0.066 A 
DOCKED: ATOM      6  C   UNL d   1     -10.314 -15.049   3.924 -0.15 -0.01    -0.021 A 
DOCKED: ATOM      7  C   UNL d   1     -11.279 -15.250   4.883 -0.17 -0.01    -0.025 A 
DOCKED: ATOM      8  C   UNL d   1     -12.465 -15.495   4.196 -0.17 +0.02    +0.066 A 
DOCKED: ATOM      9  C   UNL d   1     -11.034 -15.230   6.376 -0.17 +0.02    +0.051 C 
DOCKED: ATOM     10  C   UNL d   1     -14.932 -15.918   4.142 -0.19 +0.01    +0.066 A 
DOCKED: ATOM     11  C   UNL d   1     -16.158 -15.940   4.816 -0.16 -0.00    -0.021 A 
DOCKED: ATOM     12  C   UNL d   1     -17.133 -16.130   3.854 -0.15 +0.00    +0.000 A 
DOCKED: ATOM     13  C   UNL d   1     -16.429 -16.228   2.621 -0.11 +0.01    +0.070 A 
DOCKED: ATOM     14  C   UNL d   1     -16.392 -15.759   6.311 -0.16 +0.00    +0.052 C 
DOCKED: ATOM     15  C   UNL d   1     -16.304 -16.546   0.156 -0.10 +0.01    +0.066 A 
DOCKED: ATOM     16  C   UNL d   1     -16.928 -16.895  -1.041 -0.07 -0.00    -0.021 A 
DOCKED: ATOM     17  C   UNL d   1     -15.937 -16.878  -2.022 -0.06 +0.00    +0.000 A 
DOCKED: ATOM     18  C   UNL d   1     -14.767 -16.513  -1.341 -0.10 +0.01    +0.070 A 
DOCKED: ATOM     19  C   UNL d   1     -18.388 -17.263  -1.131 -0.04 +0.01    +0.052 C 
DOCKED: ATOM     20  C   UNL d   1     -12.287 -16.014  -1.338 -0.10 +0.02    +0.066 A 
DOCKED: ATOM     21  C   UNL d   1     -11.069 -15.829  -1.985 -0.08 -0.01    -0.025 A 
DOCKED: ATOM     22  C   UNL d   1     -10.164 -15.464  -1.015 -0.08 -0.01    -0.021 A 
DOCKED: ATOM     23  C   UNL d   1     -10.862 -15.457   0.197 -0.09 +0.03    +0.066 A 
DOCKED: ATOM     24  C   UNL d   1     -10.782 -15.997  -3.455 -0.09 +0.02    +0.051 C 
DOCKED: ATOM     25  N   UNL d   1     -12.234 -15.544   2.841 -0.09 -0.07    -0.248 N 
DOCKED: ATOM     26  N   UNL d   1     -15.091 -16.102   2.806 -0.13 -0.04    -0.248 N 
DOCKED: ATOM     27  N   UNL d   1     -14.994 -16.389  -0.008 -0.09 -0.05    -0.248 N 
DOCKED: ATOM     28  N   UNL d   1     -12.142 -15.836   0.001 -0.09 -0.07    -0.248 N 
DOCKED: ATOM     29 FE   UNL d   1     -13.607 -15.969   1.392 -0.04 +0.00    +0.000 Fe
DOCKED: ATOM     30  O   UNL d   1     -13.245 -17.187   2.290 -0.09 +0.00    +0.000 OA
DOCKED: ATOM     31  O   UNL d   1     -13.444 -17.391   0.741 -0.08 +0.00    +0.000 OA
DOCKED: ENDROOT
DOCKED: BRANCH   6  32
DOCKED: ATOM     32  C   UNL d   1      -8.849 -14.837   4.211 -0.15 +0.04    +0.052 C 
DOCKED: BRANCH  32  33
DOCKED: ATOM     33  C   UNL d   1      -8.161 -16.092   4.739 -0.07 +0.09    +0.115 C 
DOCKED: BRANCH  33  34
DOCKED: ATOM     34  C   UNL d   1      -6.890 -16.409   3.991 +0.08 +0.21    +0.139 C 
DOCKED: ATOM     35  O   UNL d   1      -5.825 -16.421   4.589 -0.32 -1.25    -0.650 OA
DOCKED: BRANCH  34  36
DOCKED: ATOM     36  O   UNL d   1      -6.896 -16.653   2.664 +0.02 -1.20    -0.776 OA
DOCKED: ATOM     37  H   UNL d   1      -6.901 -15.941   2.014 +0.01 +0.32    +0.167 HD
DOCKED: ENDBRANCH  34  36
DOCKED: ENDBRANCH  33  34
DOCKED: ENDBRANCH  32  33
DOCKED: ENDBRANCH   6  32
DOCKED: BRANCH  22  38
DOCKED: ATOM     38  C   UNL d   1      -8.697 -15.200  -1.236 -0.09 +0.04    +0.052 C 
DOCKED: BRANCH  38  39
DOCKED: ATOM     39  C   UNL d   1      -7.809 -16.235  -0.547 -0.05 +0.11    +0.115 C 
DOCKED: BRANCH  39  40
DOCKED: ATOM     40  C   UNL d   1      -6.369 -15.796  -0.465 -0.10 +0.22    +0.139 C 
DOCKED: ATOM     41  O   UNL d   1      -5.971 -14.886  -1.175 -0.38 -1.48    -0.650 OA
DOCKED: BRANCH  40  42
DOCKED: ATOM     42  O   UNL d   1      -5.519 -16.357   0.417 -0.25 -1.41    -0.776 OA
DOCKED: ATOM     43  H   UNL d   1      -5.839 -16.857   1.177 +0.01 +0.28    +0.167 HD
DOCKED: ENDBRANCH  40  42
DOCKED: ENDBRANCH  39  40
DOCKED: ENDBRANCH  38  39
DOCKED: ENDBRANCH  22  38
DOCKED: BRANCH  12  44
DOCKED: ATOM     44  C   UNL d   1     -18.604 -16.202   4.204 -0.11 +0.00    +0.004 C 
DOCKED: ATOM     45  C   UNL d   1     -19.558 -15.316   3.918 -0.13 +0.00    +0.012 C 
DOCKED: ENDBRANCH  12  44
DOCKED: BRANCH  17  46
DOCKED: ATOM     46  C   UNL d   1     -15.990 -17.223  -3.487 -0.02 +0.00    +0.004 C 
DOCKED: ATOM     47  C   UNL d   1     -15.777 -16.417  -4.536 -0.02 +0.00    +0.012 C 
DOCKED: ENDBRANCH  17  46
DOCKED: TORSDOF 10
DOCKED: TER
DOCKED: ENDMDL
________________________________________________________________________________


	BEGINNING GENETIC ALGORITHM DOCKING 38 of 100
Run: 38 Seed: 1258749068 79972831 [ Run 38 of 100 GA/GALS ]
Beginning LAMARCKIAN GENETIC ALGORITHM (LGA), with a maximum of 25000000 energy evaluations.

Final-Value: -10.475


	FINAL GENETIC ALGORITHM DOCKED STATE
	_______________________________________________


Detailed state:  trans -9.731 -17.771 -5.140 quatxyzw -0.375033 -0.914843 -0.113884 0.097177 center 8.287 34.468 -0.670 ntor 10 9.8248 4.2096 77.5875 -89.8370 24.6835 100.8989 -129.3093 -68.9822 173.4654 163.5437
State:	 -9.731 -17.771  -5.140  -0.377 -0.919 -0.114 168.847      9.82    4.21   77.59  -89.84   24.68  100.90 -129.31  -68.98  173.47  163.54

DOCKED: MODEL       38
DOCKED: USER    Run = 38
DOCKED: USER    DPF = D:/Protein_go_brrr/autodock/final/AncA/heme_O2/dock.dpf
DOCKED: USER  
DOCKED: USER    Estimated Free Energy of Binding    =   -6.70 kcal/mol  [=(1)+(2)+(3)-(4)]
DOCKED: USER    Estimated Inhibition Constant, Ki   =   12.22 uM (micromolar)  [Temperature = 298.15 K]
DOCKED: USER    
DOCKED: USER    (1) Final Intermolecular Energy     =   -9.69 kcal/mol
DOCKED: USER        vdW + Hbond + desolv Energy     =   -5.60 kcal/mol
DOCKED: USER        Electrostatic Energy            =   -4.08 kcal/mol
DOCKED: USER    (2) Final Total Internal Energy     =   -0.79 kcal/mol
DOCKED: USER    (3) Torsional Free Energy           =   +2.98 kcal/mol
DOCKED: USER    (4) Unbound System's Energy  [=(2)] =   -0.79 kcal/mol
DOCKED: USER    
DOCKED: USER    
DOCKED: USER    NEWDPF move heme_O2_opt.pdbqt
DOCKED: USER    NEWDPF about 8.287000 34.468000 -0.670000
DOCKED: USER    NEWDPF tran0 -9.731162 -17.770958 -5.140338
DOCKED: USER    NEWDPF quaternion0 -0.375033 -0.914843 -0.113884 0.097177
DOCKED: USER    NEWDPF axisangle0 -0.376817 -0.919193 -0.114426 168.846781
DOCKED: USER    NEWDPF quat0 -0.376817 -0.919193 -0.114426 168.846781
DOCKED: USER    NEWDPF dihe0 9.82 4.21 77.59 -89.84 24.68 100.90 -129.31 -68.98 173.47 163.54 
DOCKED: USER  keepresnum = 1 
DOCKED: USER  
DOCKED: REMARK  10 active torsions:
DOCKED: REMARK  status: ('A' for Active; 'I' for Inactive)
DOCKED: REMARK    1  A    between atoms: C_6  and  C_10 
DOCKED: REMARK    2  A    between atoms: C_10  and  C_11 
DOCKED: REMARK    3  A    between atoms: C_11  and  C_12 
DOCKED: REMARK    4  A    between atoms: C_12  and  O_14 
DOCKED: REMARK    5  A    between atoms: C_17  and  C_20 
DOCKED: REMARK    6  A    between atoms: C_24  and  C_27 
DOCKED: REMARK    7  A    between atoms: C_31  and  C_34 
DOCKED: REMARK    8  A    between atoms: C_34  and  C_35 
DOCKED: REMARK    9  A    between atoms: C_35  and  C_36 
DOCKED: REMARK   10  A    between atoms: C_36  and  O_38 
DOCKED: USER                              x       y       z     vdW  Elec       q    Type
DOCKED: USER                           _______ _______ _______ _____ _____    ______ ____
DOCKED: ROOT
DOCKED: ATOM      1  C   UNL d   1      -8.233 -18.787  -4.034 -0.04 +0.04    +0.064 A 
DOCKED: ATOM      2  C   UNL d   1      -9.891 -19.342  -8.451 -0.14 +0.04    +0.064 A 
DOCKED: ATOM      3  C   UNL d   1     -13.042 -15.769  -7.815 -0.08 +0.01    +0.064 C 
DOCKED: ATOM      4  C   UNL d   1     -11.020 -14.873  -3.437 -0.08 +0.02    +0.064 A 
DOCKED: ATOM      5  C   UNL d   1      -8.426 -19.228  -5.288 -0.06 +0.04    +0.066 A 
DOCKED: ATOM      6  C   UNL d   1      -7.718 -20.288  -5.862 -0.08 -0.02    -0.021 A 
DOCKED: ATOM      7  C   UNL d   1      -8.167 -20.421  -7.155 -0.11 -0.02    -0.025 A 
DOCKED: ATOM      8  C   UNL d   1      -9.170 -19.471  -7.320 -0.13 +0.05    +0.066 A 
DOCKED: ATOM      9  C   UNL d   1      -7.616 -21.404  -8.165 -0.08 +0.06    +0.051 C 
DOCKED: ATOM     10  C   UNL d   1     -10.970 -18.379  -8.674 -0.16 +0.03    +0.066 A 
DOCKED: ATOM     11  C   UNL d   1     -11.794 -18.396  -9.805 -0.14 -0.01    -0.021 A 
DOCKED: ATOM     12  C   UNL d   1     -12.721 -17.384  -9.632 -0.15 +0.00    +0.000 A 
DOCKED: ATOM     13  C   UNL d   1     -12.395 -16.786  -8.383 -0.05 +0.01    +0.070 A 
DOCKED: ATOM     14  C   UNL d   1     -11.718 -19.354 -10.988 -0.09 +0.02    +0.052 C 
DOCKED: ATOM     15  C   UNL d   1     -12.722 -15.113  -6.571 -0.17 +0.01    +0.066 A 
DOCKED: ATOM     16  C   UNL d   1     -13.336 -13.949  -6.110 -0.18 -0.00    -0.021 A 
DOCKED: ATOM     17  C   UNL d   1     -12.775 -13.674  -4.863 -0.18 +0.00    +0.000 A 
DOCKED: ATOM     18  C   UNL d   1     -11.850 -14.705  -4.653 -0.09 +0.02    +0.070 A 
DOCKED: ATOM     19  C   UNL d   1     -14.353 -13.181  -6.917 -0.17 +0.00    +0.052 C 
DOCKED: ATOM     20  C   UNL d   1     -10.092 -15.826  -3.221 -0.08 +0.03    +0.066 A 
DOCKED: ATOM     21  C   UNL d   1      -9.353 -15.944  -2.047 -0.07 -0.02    -0.025 A 
DOCKED: ATOM     22  C   UNL d   1      -8.574 -17.070  -2.188 -0.05 -0.02    -0.021 A 
DOCKED: ATOM     23  C   UNL d   1      -8.853 -17.589  -3.456 -0.06 +0.04    +0.066 A 
DOCKED: ATOM     24  C   UNL d   1      -9.387 -15.026  -0.852 -0.10 +0.03    +0.051 C 
DOCKED: ATOM     25  N   UNL d   1      -9.284 -18.693  -6.191 -0.06 -0.15    -0.248 N 
DOCKED: ATOM     26  N   UNL d   1     -11.326 -17.395  -7.810 -0.13 -0.08    -0.248 N 
DOCKED: ATOM     27  N   UNL d   1     -11.777 -15.527  -5.731 -0.10 -0.07    -0.248 N 
DOCKED: ATOM     28  N   UNL d   1      -9.743 -16.804  -4.098 -0.05 -0.13    -0.248 N 
DOCKED: ATOM     29 FE   UNL d   1     -10.530 -17.095  -5.940 -0.03 +0.00    +0.000 Fe
DOCKED: ATOM     30  O   UNL d   1      -9.375 -16.838  -6.952 -0.33 +0.00    +0.000 OA
DOCKED: ATOM     31  O   UNL d   1      -9.805 -15.699  -5.951 -0.22 +0.00    +0.000 OA
DOCKED: ENDROOT
DOCKED: BRANCH   6  32
DOCKED: ATOM     32  C   UNL d   1      -6.568 -21.059  -5.268 -0.05 +0.04    +0.052 C 
DOCKED: BRANCH  32  33
DOCKED: ATOM     33  C   UNL d   1      -5.217 -20.642  -5.840 -0.08 +0.13    +0.115 C 
DOCKED: BRANCH  33  34
DOCKED: ATOM     34  C   UNL d   1      -5.033 -19.144  -5.848 -0.15 +0.19    +0.139 C 
DOCKED: ATOM     35  O   UNL d   1      -4.733 -18.578  -6.887 -0.14 -1.24    -0.650 OA
DOCKED: BRANCH  34  36
DOCKED: ATOM     36  O   UNL d   1      -5.165 -18.414  -4.722 +0.01 -0.96    -0.776 OA
DOCKED: ATOM     37  H   UNL d   1      -5.239 -18.824  -3.852 +0.02 +0.18    +0.167 HD
DOCKED: ENDBRANCH  34  36
DOCKED: ENDBRANCH  33  34
DOCKED: ENDBRANCH  32  33
DOCKED: ENDBRANCH   6  32
DOCKED: BRANCH  22  38
DOCKED: ATOM     38  C   UNL d   1      -7.571 -17.575  -1.184 -0.03 +0.04    +0.052 C 
DOCKED: BRANCH  38  39
DOCKED: ATOM     39  C   UNL d   1      -6.156 -17.080  -1.474 -0.05 +0.16    +0.115 C 
DOCKED: BRANCH  39  40
DOCKED: ATOM     40  C   UNL d   1      -5.678 -16.073  -0.458 -0.11 +0.24    +0.139 C 
DOCKED: ATOM     41  O   UNL d   1      -5.463 -14.922  -0.800 -0.34 -1.54    -0.650 OA
DOCKED: BRANCH  40  42
DOCKED: ATOM     42  O   UNL d   1      -5.531 -16.409   0.839 -0.26 -1.53    -0.776 OA
DOCKED: ATOM     43  H   UNL d   1      -5.630 -17.321   1.138 +0.01 +0.23    +0.167 HD
DOCKED: ENDBRANCH  40  42
DOCKED: ENDBRANCH  39  40
DOCKED: ENDBRANCH  38  39
DOCKED: ENDBRANCH  22  38
DOCKED: BRANCH  12  44
DOCKED: ATOM     44  C   UNL d   1     -13.798 -17.097 -10.658 -0.13 +0.00    +0.004 C 
DOCKED: ATOM     45  C   UNL d   1     -13.868 -16.071 -11.505 -0.24 +0.01    +0.012 C 
DOCKED: ENDBRANCH  12  44
DOCKED: BRANCH  17  46
DOCKED: ATOM     46  C   UNL d   1     -12.991 -12.525  -3.914 -0.28 +0.00    +0.004 C 
DOCKED: ATOM     47  C   UNL d   1     -12.260 -11.411  -3.781 -0.33 +0.00    +0.012 C 
DOCKED: ENDBRANCH  17  46
DOCKED: TORSDOF 10
DOCKED: TER
DOCKED: ENDMDL
________________________________________________________________________________


	BEGINNING GENETIC ALGORITHM DOCKING 39 of 100
Run: 39 Seed: 807312836 1330719267 [ Run 39 of 100 GA/GALS ]
Beginning LAMARCKIAN GENETIC ALGORITHM (LGA), with a maximum of 25000000 energy evaluations.

Final-Value: -12.319


	FINAL GENETIC ALGORITHM DOCKED STATE
	_______________________________________________


Detailed state:  trans -0.421 -15.407 -1.822 quatxyzw -0.358413 -0.064677 0.343965 -0.865474 center 8.287 34.468 -0.670 ntor 10 -41.0535 -19.9676 117.1536 146.8841 -92.5989 -109.9978 133.0425 13.6737 -160.3254 -52.0589
State:	 -0.421 -15.407  -1.822  -0.715 -0.129  0.687 -60.126    -41.05  -19.97  117.15  146.88  -92.60 -110.00  133.04   13.67 -160.33  -52.06

DOCKED: MODEL       39
DOCKED: USER    Run = 39
DOCKED: USER    DPF = D:/Protein_go_brrr/autodock/final/AncA/heme_O2/dock.dpf
DOCKED: USER  
DOCKED: USER    Estimated Free Energy of Binding    =   -8.74 kcal/mol  [=(1)+(2)+(3)-(4)]
DOCKED: USER    Estimated Inhibition Constant, Ki   =  394.40 nM (nanomolar)  [Temperature = 298.15 K]
DOCKED: USER    
DOCKED: USER    (1) Final Intermolecular Energy     =  -11.72 kcal/mol
DOCKED: USER        vdW + Hbond + desolv Energy     =   -7.64 kcal/mol
DOCKED: USER        Electrostatic Energy            =   -4.08 kcal/mol
DOCKED: USER    (2) Final Total Internal Energy     =   -0.60 kcal/mol
DOCKED: USER    (3) Torsional Free Energy           =   +2.98 kcal/mol
DOCKED: USER    (4) Unbound System's Energy  [=(2)] =   -0.60 kcal/mol
DOCKED: USER    
DOCKED: USER    
DOCKED: USER    NEWDPF move heme_O2_opt.pdbqt
DOCKED: USER    NEWDPF about 8.287000 34.468000 -0.670000
DOCKED: USER    NEWDPF tran0 -0.421179 -15.406722 -1.822406
DOCKED: USER    NEWDPF quaternion0 -0.358413 -0.064677 0.343965 -0.865474
DOCKED: USER    NEWDPF axisangle0 -0.715461 -0.129108 0.686620 -60.126244
DOCKED: USER    NEWDPF quat0 -0.715461 -0.129108 0.686620 -60.126244
DOCKED: USER    NEWDPF dihe0 -41.05 -19.97 117.15 146.88 -92.60 -110.00 133.04 13.67 -160.33 -52.06 
DOCKED: USER  keepresnum = 1 
DOCKED: USER  
DOCKED: REMARK  10 active torsions:
DOCKED: REMARK  status: ('A' for Active; 'I' for Inactive)
DOCKED: REMARK    1  A    between atoms: C_6  and  C_10 
DOCKED: REMARK    2  A    between atoms: C_10  and  C_11 
DOCKED: REMARK    3  A    between atoms: C_11  and  C_12 
DOCKED: REMARK    4  A    between atoms: C_12  and  O_14 
DOCKED: REMARK    5  A    between atoms: C_17  and  C_20 
DOCKED: REMARK    6  A    between atoms: C_24  and  C_27 
DOCKED: REMARK    7  A    between atoms: C_31  and  C_34 
DOCKED: REMARK    8  A    between atoms: C_34  and  C_35 
DOCKED: REMARK    9  A    between atoms: C_35  and  C_36 
DOCKED: REMARK   10  A    between atoms: C_36  and  O_38 
DOCKED: USER                              x       y       z     vdW  Elec       q    Type
DOCKED: USER                           _______ _______ _______ _____ _____    ______ ____
DOCKED: ROOT
DOCKED: ATOM      1  C   UNL d   1      -1.877 -16.763  -2.559 -0.07 +0.08    +0.064 A 
DOCKED: ATOM      2  C   UNL d   1      -0.821 -15.255   1.820 -0.02 +0.06    +0.064 A 
DOCKED: ATOM      3  C   UNL d   1       2.743 -12.517   0.118 -0.20 +0.02    +0.064 C 
DOCKED: ATOM      4  C   UNL d   1       1.359 -13.692  -4.440 -0.21 +0.03    +0.064 A 
DOCKED: ATOM      5  C   UNL d   1      -1.882 -16.574  -1.229 -0.07 +0.07    +0.066 A 
DOCKED: ATOM      6  C   UNL d   1      -2.760 -17.215  -0.351 -0.07 -0.02    -0.021 A 
DOCKED: ATOM      7  C   UNL d   1      -2.485 -16.747   0.912 -0.08 -0.03    -0.025 A 
DOCKED: ATOM      8  C   UNL d   1      -1.413 -15.869   0.777 -0.09 +0.06    +0.066 A 
DOCKED: ATOM      9  C   UNL d   1      -3.252 -17.122   2.161 -0.04 +0.07    +0.051 C 
DOCKED: ATOM     10  C   UNL d   1       0.320 -14.342   1.743 -0.13 +0.04    +0.066 A 
DOCKED: ATOM     11  C   UNL d   1       0.998 -13.861   2.868 -0.17 -0.01    -0.021 A 
DOCKED: ATOM     12  C   UNL d   1       2.040 -13.084   2.398 -0.19 +0.00    +0.000 A 
DOCKED: ATOM     13  C   UNL d   1       1.929 -13.126   0.980 -0.15 +0.03    +0.070 A 
DOCKED: ATOM     14  C   UNL d   1       0.681 -14.152   4.331 -0.18 +0.03    +0.052 C 
DOCKED: ATOM     15  C   UNL d   1       2.644 -12.507  -1.322 -0.15 +0.02    +0.066 A 
DOCKED: ATOM     16  C   UNL d   1       3.428 -11.717  -2.162 -0.24 -0.00    -0.021 A 
DOCKED: ATOM     17  C   UNL d   1       3.051 -12.035  -3.467 -0.25 +0.00    +0.000 A 
DOCKED: ATOM     18  C   UNL d   1       2.053 -13.008  -3.323 -0.16 +0.03    +0.070 A 
DOCKED: ATOM     19  C   UNL d   1       4.418 -10.701  -1.649 -0.20 +0.01    +0.052 C 
DOCKED: ATOM     20  C   UNL d   1       0.368 -14.598  -4.337 -0.18 +0.04    +0.066 A 
DOCKED: ATOM     21  C   UNL d   1      -0.235 -15.222  -5.426 -0.28 -0.02    -0.025 A 
DOCKED: ATOM     22  C   UNL d   1      -1.141 -16.121  -4.908 -0.17 -0.02    -0.021 A 
DOCKED: ATOM     23  C   UNL d   1      -1.070 -15.998  -3.517 -0.12 +0.07    +0.066 A 
DOCKED: ATOM     24  C   UNL d   1       0.037 -14.971  -6.886 -0.31 +0.03    +0.051 C 
DOCKED: ATOM     25  N   UNL d   1      -1.085 -15.713  -0.550 -0.04 -0.22    -0.248 N 
DOCKED: ATOM     26  N   UNL d   1       0.877 -13.890   0.591 -0.07 -0.12    -0.248 N 
DOCKED: ATOM     27  N   UNL d   1       1.766 -13.227  -2.014 -0.05 -0.10    -0.248 N 
DOCKED: ATOM     28  N   UNL d   1      -0.184 -15.040  -3.175 -0.07 -0.20    -0.248 N 
DOCKED: ATOM     29 FE   UNL d   1       0.345 -14.467  -1.307 -0.02 +0.00    +0.000 Fe
DOCKED: ATOM     30  O   UNL d   1      -0.888 -13.723  -0.716 -0.20 +0.00    +0.000 OA
DOCKED: ATOM     31  O   UNL d   1      -0.225 -13.201  -2.046 -0.19 +0.00    +0.000 OA
DOCKED: ENDROOT
DOCKED: BRANCH   6  32
DOCKED: ATOM     32  C   UNL d   1      -3.908 -18.129  -0.697 -0.04 +0.05    +0.052 C 
DOCKED: BRANCH  32  33
DOCKED: ATOM     33  C   UNL d   1      -5.130 -17.376  -1.213 -0.06 +0.16    +0.115 C 
DOCKED: BRANCH  33  34
DOCKED: ATOM     34  C   UNL d   1      -5.510 -16.218  -0.324 -0.09 +0.24    +0.139 C 
DOCKED: ATOM     35  O   UNL d   1      -5.456 -15.079  -0.761 -0.37 -1.51    -0.650 OA
DOCKED: BRANCH  34  36
DOCKED: ATOM     36  O   UNL d   1      -5.883 -16.409   0.958 -0.25 -1.46    -0.776 OA
DOCKED: ATOM     37  H   UNL d   1      -6.455 -17.139   1.221 +0.01 +0.21    +0.167 HD
DOCKED: ENDBRANCH  34  36
DOCKED: ENDBRANCH  33  34
DOCKED: ENDBRANCH  32  33
DOCKED: ENDBRANCH   6  32
DOCKED: BRANCH  22  38
DOCKED: ATOM     38  C   UNL d   1      -2.066 -16.998  -5.712 -0.09 +0.06    +0.052 C 
DOCKED: BRANCH  38  39
DOCKED: ATOM     39  C   UNL d   1      -1.333 -17.762  -6.812 -0.16 +0.10    +0.115 C 
DOCKED: BRANCH  39  40
DOCKED: ATOM     40  C   UNL d   1      -2.279 -18.398  -7.800 -0.12 +0.18    +0.139 C 
DOCKED: ATOM     41  O   UNL d   1      -3.322 -17.835  -8.089 -0.51 -1.16    -0.650 OA
DOCKED: BRANCH  40  42
DOCKED: ATOM     42  O   UNL d   1      -1.969 -19.558  -8.411 -0.16 -1.04    -0.776 OA
DOCKED: ATOM     43  H   UNL d   1      -1.063 -19.889  -8.436 +0.04 +0.15    +0.167 HD
DOCKED: ENDBRANCH  40  42
DOCKED: ENDBRANCH  39  40
DOCKED: ENDBRANCH  38  39
DOCKED: ENDBRANCH  22  38
DOCKED: BRANCH  12  44
DOCKED: ATOM     44  C   UNL d   1       3.012 -12.393   3.331 -0.23 +0.00    +0.004 C 
DOCKED: ATOM     45  C   UNL d   1       2.766 -11.391   4.175 -0.36 +0.00    +0.012 C 
DOCKED: ENDBRANCH  12  44
DOCKED: BRANCH  17  46
DOCKED: ATOM     46  C   UNL d   1       3.498 -11.472  -4.790 -0.42 +0.00    +0.004 C 
DOCKED: ATOM     47  C   UNL d   1       3.735 -12.129  -5.932 -0.49 +0.00    +0.012 C 
DOCKED: ENDBRANCH  17  46
DOCKED: TORSDOF 10
DOCKED: TER
DOCKED: ENDMDL
________________________________________________________________________________


	BEGINNING GENETIC ALGORITHM DOCKING 40 of 100
Run: 40 Seed: 1179348872 1300611712 [ Run 40 of 100 GA/GALS ]
Beginning LAMARCKIAN GENETIC ALGORITHM (LGA), with a maximum of 25000000 energy evaluations.

Final-Value: -18.230


	FINAL GENETIC ALGORITHM DOCKED STATE
	_______________________________________________


Detailed state:  trans -4.650 -8.630 -3.189 quatxyzw 0.115196 0.443352 0.725501 -0.513631 center 8.287 34.468 -0.670 ntor 10 -77.8670 -66.0539 34.1459 -14.9723 -70.5724 5.4349 32.7710 64.4075 32.1490 -177.5255
State:	 -4.650  -8.630  -3.189   0.134  0.517  0.846 -118.188    -77.87  -66.05   34.15  -14.97  -70.57    5.43   32.77   64.41   32.15 -177.53

DOCKED: MODEL       40
DOCKED: USER    Run = 40
DOCKED: USER    DPF = D:/Protein_go_brrr/autodock/final/AncA/heme_O2/dock.dpf
DOCKED: USER  
DOCKED: USER    Estimated Free Energy of Binding    =  -14.93 kcal/mol  [=(1)+(2)+(3)-(4)]
DOCKED: USER    Estimated Inhibition Constant, Ki   =   11.45 pM (picomolar)  [Temperature = 298.15 K]
DOCKED: USER    
DOCKED: USER    (1) Final Intermolecular Energy     =  -17.91 kcal/mol
DOCKED: USER        vdW + Hbond + desolv Energy     =  -14.36 kcal/mol
DOCKED: USER        Electrostatic Energy            =   -3.55 kcal/mol
DOCKED: USER    (2) Final Total Internal Energy     =   -0.32 kcal/mol
DOCKED: USER    (3) Torsional Free Energy           =   +2.98 kcal/mol
DOCKED: USER    (4) Unbound System's Energy  [=(2)] =   -0.32 kcal/mol
DOCKED: USER    
DOCKED: USER    
DOCKED: USER    NEWDPF move heme_O2_opt.pdbqt
DOCKED: USER    NEWDPF about 8.287000 34.468000 -0.670000
DOCKED: USER    NEWDPF tran0 -4.649779 -8.630026 -3.188702
DOCKED: USER    NEWDPF quaternion0 0.115196 0.443352 0.725501 -0.513631
DOCKED: USER    NEWDPF axisangle0 0.134259 0.516721 0.845561 -118.187988
DOCKED: USER    NEWDPF quat0 0.134259 0.516721 0.845561 -118.187988
DOCKED: USER    NEWDPF dihe0 -77.87 -66.05 34.15 -14.97 -70.57 5.43 32.77 64.41 32.15 -177.53 
DOCKED: USER  keepresnum = 1 
DOCKED: USER  
DOCKED: REMARK  10 active torsions:
DOCKED: REMARK  status: ('A' for Active; 'I' for Inactive)
DOCKED: REMARK    1  A    between atoms: C_6  and  C_10 
DOCKED: REMARK    2  A    between atoms: C_10  and  C_11 
DOCKED: REMARK    3  A    between atoms: C_11  and  C_12 
DOCKED: REMARK    4  A    between atoms: C_12  and  O_14 
DOCKED: REMARK    5  A    between atoms: C_17  and  C_20 
DOCKED: REMARK    6  A    between atoms: C_24  and  C_27 
DOCKED: REMARK    7  A    between atoms: C_31  and  C_34 
DOCKED: REMARK    8  A    between atoms: C_34  and  C_35 
DOCKED: REMARK    9  A    between atoms: C_35  and  C_36 
DOCKED: REMARK   10  A    between atoms: C_36  and  O_38 
DOCKED: USER                              x       y       z     vdW  Elec       q    Type
DOCKED: USER                           _______ _______ _______ _____ _____    ______ ____
DOCKED: ROOT
DOCKED: ATOM      1  C   UNL d   1      -4.701 -10.682  -2.655 -0.34 +0.05    +0.064 A 
DOCKED: ATOM      2  C   UNL d   1      -1.163  -7.525  -2.920 -0.34 +0.02    +0.064 A 
DOCKED: ATOM      3  C   UNL d   1      -4.202  -4.105  -4.393 -0.35 +0.01    +0.064 C 
DOCKED: ATOM      4  C   UNL d   1      -7.926  -7.215  -3.666 -0.40 +0.02    +0.064 A 
DOCKED: ATOM      5  C   UNL d   1      -3.491 -10.102  -2.605 -0.35 +0.04    +0.066 A 
DOCKED: ATOM      6  C   UNL d   1      -2.318 -10.769  -2.243 -0.31 -0.01    -0.021 A 
DOCKED: ATOM      7  C   UNL d   1      -1.300  -9.845  -2.277 -0.33 -0.01    -0.025 A 
DOCKED: ATOM      8  C   UNL d   1      -1.871  -8.650  -2.706 -0.38 +0.02    +0.066 A 
DOCKED: ATOM      9  C   UNL d   1       0.134 -10.122  -1.881 -0.14 +0.01    +0.051 C 
DOCKED: ATOM     10  C   UNL d   1      -1.703  -6.249  -3.391 -0.43 +0.01    +0.066 A 
DOCKED: ATOM     11  C   UNL d   1      -0.902  -5.160  -3.753 -0.46 -0.00    -0.021 A 
DOCKED: ATOM     12  C   UNL d   1      -1.759  -4.170  -4.197 -0.35 +0.00    +0.000 A 
DOCKED: ATOM     13  C   UNL d   1      -3.065  -4.719  -4.068 -0.39 +0.01    +0.070 A 
DOCKED: ATOM     14  C   UNL d   1       0.620  -5.078  -3.701 -0.58 +0.01    +0.052 C 
DOCKED: ATOM     15  C   UNL d   1      -5.545  -4.613  -4.245 -0.37 +0.01    +0.066 A 
DOCKED: ATOM     16  C   UNL d   1      -6.701  -3.860  -4.450 -0.48 -0.00    -0.021 A 
DOCKED: ATOM     17  C   UNL d   1      -7.776  -4.726  -4.247 -0.48 +0.00    +0.000 A 
DOCKED: ATOM     18  C   UNL d   1      -7.187  -5.959  -3.932 -0.40 +0.02    +0.070 A 
DOCKED: ATOM     19  C   UNL d   1      -6.678  -2.385  -4.763 -0.56 +0.00    +0.052 C 
DOCKED: ATOM     20  C   UNL d   1      -7.394  -8.403  -3.319 -0.37 +0.03    +0.066 A 
DOCKED: ATOM     21  C   UNL d   1      -8.140  -9.558  -3.099 -0.25 -0.01    -0.025 A 
DOCKED: ATOM     22  C   UNL d   1      -7.236 -10.562  -2.836 +0.17 -0.01    -0.021 A 
DOCKED: ATOM     23  C   UNL d   1      -5.967  -9.977  -2.888 -0.04 +0.04    +0.066 A 
DOCKED: ATOM     24  C   UNL d   1      -9.640  -9.695  -3.134 -0.48 +0.01    +0.051 C 
DOCKED: ATOM     25  N   UNL d   1      -3.233  -8.793  -2.845 -0.21 -0.10    -0.248 N 
DOCKED: ATOM     26  N   UNL d   1      -3.022  -5.982  -3.572 -0.26 -0.06    -0.248 N 
DOCKED: ATOM     27  N   UNL d   1      -5.835  -5.852  -3.861 -0.19 -0.08    -0.248 N 
DOCKED: ATOM     28  N   UNL d   1      -6.071  -8.655  -3.137 -0.09 -0.13    -0.248 N 
DOCKED: ATOM     29 FE   UNL d   1      -4.559  -7.326  -3.354 -0.09 +0.00    +0.000 Fe
DOCKED: ATOM     30  O   UNL d   1      -3.934  -7.145  -1.940 -0.38 +0.00    +0.000 OA
DOCKED: ATOM     31  O   UNL d   1      -5.460  -6.827  -2.165 -0.58 +0.00    +0.000 OA
DOCKED: ENDROOT
DOCKED: BRANCH   6  32
DOCKED: ATOM     32  C   UNL d   1      -2.176 -12.186  -1.749 -0.31 +0.05    +0.052 C 
DOCKED: BRANCH  32  33
DOCKED: ATOM     33  C   UNL d   1      -1.366 -13.065  -2.697 -0.19 +0.12    +0.115 C 
DOCKED: BRANCH  33  34
DOCKED: ATOM     34  C   UNL d   1      -1.801 -14.509  -2.655 -0.02 +0.23    +0.139 C 
DOCKED: ATOM     35  O   UNL d   1      -1.889 -15.143  -3.695 -0.14 -1.20    -0.650 OA
DOCKED: BRANCH  34  36
DOCKED: ATOM     36  O   UNL d   1      -2.125 -15.113  -1.493 +0.01 -1.20    -0.776 OA
DOCKED: ATOM     37  H   UNL d   1      -1.454 -15.419  -0.872 +0.03 +0.18    +0.167 HD
DOCKED: ENDBRANCH  34  36
DOCKED: ENDBRANCH  33  34
DOCKED: ENDBRANCH  32  33
DOCKED: ENDBRANCH   6  32
DOCKED: BRANCH  22  38
DOCKED: ATOM     38  C   UNL d   1      -7.582 -11.988  -2.492 -0.26 +0.04    +0.052 C 
DOCKED: BRANCH  38  39
DOCKED: ATOM     39  C   UNL d   1      -8.085 -12.134  -1.057 -0.23 +0.08    +0.115 C 
DOCKED: BRANCH  39  40
DOCKED: ATOM     40  C   UNL d   1      -7.178 -12.996  -0.214 -0.22 +0.16    +0.139 C 
DOCKED: ATOM     41  O   UNL d   1      -7.092 -12.792   0.986 -0.30 -0.90    -0.650 OA
DOCKED: BRANCH  40  42
DOCKED: ATOM     42  O   UNL d   1      -6.497 -14.025  -0.754 -0.11 -1.29    -0.776 OA
DOCKED: ATOM     43  H   UNL d   1      -6.951 -14.783  -1.140 +0.03 +0.26    +0.167 HD
DOCKED: ENDBRANCH  40  42
DOCKED: ENDBRANCH  39  40
DOCKED: ENDBRANCH  38  39
DOCKED: ENDBRANCH  22  38
DOCKED: BRANCH  12  44
DOCKED: ATOM     44  C   UNL d   1      -1.253  -2.829  -4.686 -0.50 +0.00    +0.004 C 
DOCKED: ATOM     45  C   UNL d   1      -1.871  -1.650  -4.627 -0.64 +0.00    +0.012 C 
DOCKED: ENDBRANCH  12  44
DOCKED: BRANCH  17  46
DOCKED: ATOM     46  C   UNL d   1      -9.261  -4.480  -4.269 -0.59 +0.00    +0.004 C 
DOCKED: ATOM     47  C   UNL d   1      -9.911  -3.321  -4.102 -0.70 +0.00    +0.012 C 
DOCKED: ENDBRANCH  17  46
DOCKED: TORSDOF 10
DOCKED: TER
DOCKED: ENDMDL
________________________________________________________________________________


	BEGINNING GENETIC ALGORITHM DOCKING 41 of 100
Run: 41 Seed: 78829707 1685953696 [ Run 41 of 100 GA/GALS ]
Beginning LAMARCKIAN GENETIC ALGORITHM (LGA), with a maximum of 25000000 energy evaluations.

Final-Value: -12.892


	FINAL GENETIC ALGORITHM DOCKED STATE
	_______________________________________________


Detailed state:  trans -11.451 -13.804 -1.075 quatxyzw 0.467054 0.664979 -0.571040 -0.116520 center 8.287 34.468 -0.670 ntor 10 164.0701 23.8818 -56.4424 179.1763 -140.1461 -150.4310 -73.4260 -44.2499 -174.2200 110.7472
State:	-11.451 -13.804  -1.075   0.470  0.670 -0.575 -166.617    164.07   23.88  -56.44  179.18 -140.15 -150.43  -73.43  -44.25 -174.22  110.75

DOCKED: MODEL       41
DOCKED: USER    Run = 41
DOCKED: USER    DPF = D:/Protein_go_brrr/autodock/final/AncA/heme_O2/dock.dpf
DOCKED: USER  
DOCKED: USER    Estimated Free Energy of Binding    =   -8.06 kcal/mol  [=(1)+(2)+(3)-(4)]
DOCKED: USER    Estimated Inhibition Constant, Ki   =    1.24 uM (micromolar)  [Temperature = 298.15 K]
DOCKED: USER    
DOCKED: USER    (1) Final Intermolecular Energy     =  -11.04 kcal/mol
DOCKED: USER        vdW + Hbond + desolv Energy     =   -7.21 kcal/mol
DOCKED: USER        Electrostatic Energy            =   -3.83 kcal/mol
DOCKED: USER    (2) Final Total Internal Energy     =   -1.85 kcal/mol
DOCKED: USER    (3) Torsional Free Energy           =   +2.98 kcal/mol
DOCKED: USER    (4) Unbound System's Energy  [=(2)] =   -1.85 kcal/mol
DOCKED: USER    
DOCKED: USER    
DOCKED: USER    NEWDPF move heme_O2_opt.pdbqt
DOCKED: USER    NEWDPF about 8.287000 34.468000 -0.670000
DOCKED: USER    NEWDPF tran0 -11.450945 -13.804233 -1.074574
DOCKED: USER    NEWDPF quaternion0 0.467054 0.664979 -0.571040 -0.116520
DOCKED: USER    NEWDPF axisangle0 0.470257 0.669540 -0.574956 -166.617393
DOCKED: USER    NEWDPF quat0 0.470257 0.669540 -0.574956 -166.617393
DOCKED: USER    NEWDPF dihe0 164.07 23.88 -56.44 179.18 -140.15 -150.43 -73.43 -44.25 -174.22 110.75 
DOCKED: USER  keepresnum = 1 
DOCKED: USER  
DOCKED: REMARK  10 active torsions:
DOCKED: REMARK  status: ('A' for Active; 'I' for Inactive)
DOCKED: REMARK    1  A    between atoms: C_6  and  C_10 
DOCKED: REMARK    2  A    between atoms: C_10  and  C_11 
DOCKED: REMARK    3  A    between atoms: C_11  and  C_12 
DOCKED: REMARK    4  A    between atoms: C_12  and  O_14 
DOCKED: REMARK    5  A    between atoms: C_17  and  C_20 
DOCKED: REMARK    6  A    between atoms: C_24  and  C_27 
DOCKED: REMARK    7  A    between atoms: C_31  and  C_34 
DOCKED: REMARK    8  A    between atoms: C_34  and  C_35 
DOCKED: REMARK    9  A    between atoms: C_35  and  C_36 
DOCKED: REMARK   10  A    between atoms: C_36  and  O_38 
DOCKED: USER                              x       y       z     vdW  Elec       q    Type
DOCKED: USER                           _______ _______ _______ _____ _____    ______ ____
DOCKED: ROOT
DOCKED: ATOM      1  C   UNL d   1      -9.691 -14.076   0.078 -0.14 +0.04    +0.064 A 
DOCKED: ATOM      2  C   UNL d   1     -13.781 -16.480  -0.146 -0.12 +0.01    +0.064 A 
DOCKED: ATOM      3  C   UNL d   1     -15.507 -13.420  -3.425 -0.20 +0.01    +0.064 C 
DOCKED: ATOM      4  C   UNL d   1     -11.126 -11.217  -3.556 -0.31 +0.01    +0.064 A 
DOCKED: ATOM      5  C   UNL d   1     -10.662 -14.980   0.283 -0.11 +0.03    +0.066 A 
DOCKED: ATOM      6  C   UNL d   1     -10.567 -16.038   1.192 -0.07 -0.01    -0.021 A 
DOCKED: ATOM      7  C   UNL d   1     -11.733 -16.760   1.097 -0.06 -0.01    -0.025 A 
DOCKED: ATOM      8  C   UNL d   1     -12.528 -16.095   0.167 -0.09 +0.02    +0.066 A 
DOCKED: ATOM      9  C   UNL d   1     -12.024 -18.038   1.853 -0.02 +0.01    +0.051 C 
DOCKED: ATOM     10  C   UNL d   1     -14.671 -15.810  -1.095 -0.13 +0.01    +0.066 A 
DOCKED: ATOM     11  C   UNL d   1     -16.017 -16.154  -1.261 -0.11 -0.00    -0.021 A 
DOCKED: ATOM     12  C   UNL d   1     -16.537 -15.271  -2.190 -0.13 +0.00    +0.000 A 
DOCKED: ATOM     13  C   UNL d   1     -15.451 -14.428  -2.555 -0.15 +0.01    +0.070 A 
DOCKED: ATOM     14  C   UNL d   1     -16.783 -17.260  -0.544 -0.07 +0.01    +0.052 C 
DOCKED: ATOM     15  C   UNL d   1     -14.423 -12.566  -3.848 -0.18 +0.00    +0.066 A 
DOCKED: ATOM     16  C   UNL d   1     -14.507 -11.636  -4.883 -0.26 -0.00    -0.021 A 
DOCKED: ATOM     17  C   UNL d   1     -13.269 -10.996  -4.940 -0.34 +0.00    +0.000 A 
DOCKED: ATOM     18  C   UNL d   1     -12.513 -11.590  -3.920 -0.26 +0.00    +0.070 A 
DOCKED: ATOM     19  C   UNL d   1     -15.730 -11.481  -5.753 -0.19 +0.00    +0.052 C 
DOCKED: ATOM     20  C   UNL d   1     -10.357 -11.795  -2.613 -0.27 +0.02    +0.066 A 
DOCKED: ATOM     21  C   UNL d   1      -9.063 -11.388  -2.303 -0.30 -0.01    -0.025 A 
DOCKED: ATOM     22  C   UNL d   1      -8.648 -12.173  -1.252 -0.26 -0.01    -0.021 A 
DOCKED: ATOM     23  C   UNL d   1      -9.703 -13.047  -0.969 -0.20 +0.04    +0.066 A 
DOCKED: ATOM     24  C   UNL d   1      -8.261 -10.306  -2.979 -0.16 +0.02    +0.051 C 
DOCKED: ATOM     25  N   UNL d   1     -11.842 -15.037  -0.381 -0.09 -0.07    -0.248 N 
DOCKED: ATOM     26  N   UNL d   1     -14.319 -14.766  -1.888 -0.12 -0.03    -0.248 N 
DOCKED: ATOM     27  N   UNL d   1     -13.204 -12.592  -3.317 -0.12 -0.02    -0.248 N 
DOCKED: ATOM     28  N   UNL d   1     -10.722 -12.844  -1.829 -0.09 -0.09    -0.248 N 
DOCKED: ATOM     29 FE   UNL d   1     -12.508 -13.796  -1.860 -0.06 +0.00    +0.000 Fe
DOCKED: ATOM     30  O   UNL d   1     -12.218 -15.248  -2.341 -0.15 +0.00    +0.000 OA
DOCKED: ATOM     31  O   UNL d   1     -11.825 -14.028  -3.257 -0.21 +0.00    +0.000 OA
DOCKED: ENDROOT
DOCKED: BRANCH   6  32
DOCKED: ATOM     32  C   UNL d   1      -9.373 -16.439   2.020 -0.03 +0.03    +0.052 C 
DOCKED: BRANCH  32  33
DOCKED: ATOM     33  C   UNL d   1      -8.474 -17.449   1.313 -0.00 +0.08    +0.115 C 
DOCKED: BRANCH  33  34
DOCKED: ATOM     34  C   UNL d   1      -7.210 -16.820   0.781 -0.04 +0.15    +0.139 C 
DOCKED: ATOM     35  O   UNL d   1      -6.359 -16.423   1.562 -0.03 -1.23    -0.650 OA
DOCKED: BRANCH  34  36
DOCKED: ATOM     36  O   UNL d   1      -7.007 -16.659  -0.543 +0.00 -0.90    -0.776 OA
DOCKED: ATOM     37  H   UNL d   1      -6.324 -16.072  -0.887 +0.02 +0.28    +0.167 HD
DOCKED: ENDBRANCH  34  36
DOCKED: ENDBRANCH  33  34
DOCKED: ENDBRANCH  32  33
DOCKED: ENDBRANCH   6  32
DOCKED: BRANCH  22  38
DOCKED: ATOM     38  C   UNL d   1      -7.289 -12.126  -0.602 -0.15 +0.05    +0.052 C 
DOCKED: BRANCH  38  39
DOCKED: ATOM     39  C   UNL d   1      -6.837 -13.494  -0.097 -0.22 +0.16    +0.115 C 
DOCKED: BRANCH  39  40
DOCKED: ATOM     40  C   UNL d   1      -5.406 -13.799  -0.461 -0.20 +0.27    +0.139 C 
DOCKED: ATOM     41  O   UNL d   1      -4.787 -13.032  -1.182 -0.09 -1.22    -0.650 OA
DOCKED: BRANCH  40  42
DOCKED: ATOM     42  O   UNL d   1      -4.776 -14.880   0.038 -0.41 -1.88    -0.776 OA
DOCKED: ATOM     43  H   UNL d   1      -5.263 -15.668   0.309 +0.02 +0.38    +0.167 HD
DOCKED: ENDBRANCH  40  42
DOCKED: ENDBRANCH  39  40
DOCKED: ENDBRANCH  38  39
DOCKED: ENDBRANCH  22  38
DOCKED: BRANCH  12  44
DOCKED: ATOM     44  C   UNL d   1     -17.986 -15.324  -2.627 -0.08 +0.00    +0.004 C 
DOCKED: ATOM     45  C   UNL d   1     -18.915 -14.377  -2.500 -0.12 +0.00    +0.012 C 
DOCKED: ENDBRANCH  12  44
DOCKED: BRANCH  17  46
DOCKED: ATOM     46  C   UNL d   1     -12.741  -9.947  -5.882 -0.49 -0.00    +0.004 C 
DOCKED: ATOM     47  C   UNL d   1     -11.588  -9.270  -5.806 -0.44 +0.00    +0.012 C 
DOCKED: ENDBRANCH  17  46
DOCKED: TORSDOF 10
DOCKED: TER
DOCKED: ENDMDL
________________________________________________________________________________


	BEGINNING GENETIC ALGORITHM DOCKING 42 of 100
Run: 42 Seed: 2055618695 913140305 [ Run 42 of 100 GA/GALS ]
Beginning LAMARCKIAN GENETIC ALGORITHM (LGA), with a maximum of 25000000 energy evaluations.

Final-Value: -12.234


	FINAL GENETIC ALGORITHM DOCKED STATE
	_______________________________________________


Detailed state:  trans -0.448 -15.393 -2.628 quatxyzw -0.819693 -0.223735 -0.480376 0.217451 center 8.287 34.468 -0.670 ntor 10 51.3563 -37.6897 142.3819 62.6101 17.2486 -24.0050 -15.7211 132.7795 -39.1829 -2.3158
State:	 -0.448 -15.393  -2.628  -0.840 -0.229 -0.492 154.881     51.36  -37.69  142.38   62.61   17.25  -24.00  -15.72  132.78  -39.18   -2.32

DOCKED: MODEL       42
DOCKED: USER    Run = 42
DOCKED: USER    DPF = D:/Protein_go_brrr/autodock/final/AncA/heme_O2/dock.dpf
DOCKED: USER  
DOCKED: USER    Estimated Free Energy of Binding    =   -8.76 kcal/mol  [=(1)+(2)+(3)-(4)]
DOCKED: USER    Estimated Inhibition Constant, Ki   =  377.85 nM (nanomolar)  [Temperature = 298.15 K]
DOCKED: USER    
DOCKED: USER    (1) Final Intermolecular Energy     =  -11.75 kcal/mol
DOCKED: USER        vdW + Hbond + desolv Energy     =   -7.28 kcal/mol
DOCKED: USER        Electrostatic Energy            =   -4.46 kcal/mol
DOCKED: USER    (2) Final Total Internal Energy     =   -0.49 kcal/mol
DOCKED: USER    (3) Torsional Free Energy           =   +2.98 kcal/mol
DOCKED: USER    (4) Unbound System's Energy  [=(2)] =   -0.49 kcal/mol
DOCKED: USER    
DOCKED: USER    
DOCKED: USER    NEWDPF move heme_O2_opt.pdbqt
DOCKED: USER    NEWDPF about 8.287000 34.468000 -0.670000
DOCKED: USER    NEWDPF tran0 -0.448313 -15.393220 -2.627570
DOCKED: USER    NEWDPF quaternion0 -0.819693 -0.223735 -0.480376 0.217451
DOCKED: USER    NEWDPF axisangle0 -0.839788 -0.229220 -0.492153 154.881276
DOCKED: USER    NEWDPF quat0 -0.839788 -0.229220 -0.492153 154.881276
DOCKED: USER    NEWDPF dihe0 51.36 -37.69 142.38 62.61 17.25 -24.00 -15.72 132.78 -39.18 -2.32 
DOCKED: USER  keepresnum = 1 
DOCKED: USER  
DOCKED: REMARK  10 active torsions:
DOCKED: REMARK  status: ('A' for Active; 'I' for Inactive)
DOCKED: REMARK    1  A    between atoms: C_6  and  C_10 
DOCKED: REMARK    2  A    between atoms: C_10  and  C_11 
DOCKED: REMARK    3  A    between atoms: C_11  and  C_12 
DOCKED: REMARK    4  A    between atoms: C_12  and  O_14 
DOCKED: REMARK    5  A    between atoms: C_17  and  C_20 
DOCKED: REMARK    6  A    between atoms: C_24  and  C_27 
DOCKED: REMARK    7  A    between atoms: C_31  and  C_34 
DOCKED: REMARK    8  A    between atoms: C_34  and  C_35 
DOCKED: REMARK    9  A    between atoms: C_35  and  C_36 
DOCKED: REMARK   10  A    between atoms: C_36  and  O_38 
DOCKED: USER                              x       y       z     vdW  Elec       q    Type
DOCKED: USER                           _______ _______ _______ _____ _____    ______ ____
DOCKED: ROOT
DOCKED: ATOM      1  C   UNL d   1      -1.881 -16.841  -3.219 -0.06 +0.09    +0.064 A 
DOCKED: ATOM      2  C   UNL d   1       1.484 -14.493  -5.612 -0.27 +0.03    +0.064 A 
DOCKED: ATOM      3  C   UNL d   1       2.780 -12.118  -1.641 -0.22 +0.02    +0.064 C 
DOCKED: ATOM      4  C   UNL d   1      -0.357 -14.874   0.934 -0.11 +0.05    +0.064 A 
DOCKED: ATOM      5  C   UNL d   1      -1.070 -16.398  -4.194 -0.12 +0.07    +0.066 A 
DOCKED: ATOM      6  C   UNL d   1      -1.138 -16.825  -5.523 -0.17 -0.02    -0.021 A 
DOCKED: ATOM      7  C   UNL d   1      -0.136 -16.178  -6.208 -0.25 -0.02    -0.025 A 
DOCKED: ATOM      8  C   UNL d   1       0.485 -15.337  -5.288 -0.21 +0.04    +0.066 A 
DOCKED: ATOM      9  C   UNL d   1       0.201 -16.403  -7.665 -0.21 +0.03    +0.051 C 
DOCKED: ATOM     10  C   UNL d   1       2.158 -13.572  -4.697 -0.22 +0.03    +0.066 A 
DOCKED: ATOM     11  C   UNL d   1       3.075 -12.602  -5.118 -0.31 -0.01    -0.021 A 
DOCKED: ATOM     12  C   UNL d   1       3.447 -11.895  -3.990 -0.28 +0.00    +0.000 A 
DOCKED: ATOM     13  C   UNL d   1       2.729 -12.494  -2.918 -0.16 +0.02    +0.070 A 
DOCKED: ATOM     14  C   UNL d   1       3.555 -12.343  -6.542 -0.44 +0.01    +0.052 C 
DOCKED: ATOM     15  C   UNL d   1       2.097 -12.721  -0.522 -0.15 +0.02    +0.066 A 
DOCKED: ATOM     16  C   UNL d   1       2.319 -12.385   0.814 -0.23 -0.01    -0.021 A 
DOCKED: ATOM     17  C   UNL d   1       1.436 -13.159   1.567 -0.20 +0.00    +0.000 A 
DOCKED: ATOM     18  C   UNL d   1       0.731 -13.917   0.621 -0.12 +0.04    +0.070 A 
DOCKED: ATOM     19  C   UNL d   1       3.380 -11.407   1.251 -0.29 +0.01    +0.052 C 
DOCKED: ATOM     20  C   UNL d   1      -1.024 -15.648   0.056 -0.09 +0.06    +0.066 A 
DOCKED: ATOM     21  C   UNL d   1      -2.053 -16.518   0.408 -0.09 -0.03    -0.025 A 
DOCKED: ATOM     22  C   UNL d   1      -2.517 -17.067  -0.766 -0.07 -0.02    -0.021 A 
DOCKED: ATOM     23  C   UNL d   1      -1.740 -16.523  -1.793 -0.07 +0.08    +0.066 A 
DOCKED: ATOM     24  C   UNL d   1      -2.564 -16.813   1.794 -0.01 +0.06    +0.051 C 
DOCKED: ATOM     25  N   UNL d   1      -0.049 -15.521  -4.034 -0.07 -0.19    -0.248 N 
DOCKED: ATOM     26  N   UNL d   1       1.951 -13.517  -3.357 -0.07 -0.10    -0.248 N 
DOCKED: ATOM     27  N   UNL d   1       1.197 -13.693  -0.634 -0.04 -0.11    -0.248 N 
DOCKED: ATOM     28  N   UNL d   1      -0.804 -15.696  -1.284 -0.04 -0.22    -0.248 N 
DOCKED: ATOM     29 FE   UNL d   1       0.565 -14.613  -2.310 -0.02 +0.00    +0.000 Fe
DOCKED: ATOM     30  O   UNL d   1       1.590 -15.636  -2.880 -0.06 +0.00    +0.000 OA
DOCKED: ATOM     31  O   UNL d   1       1.350 -15.555  -1.326 -0.04 +0.00    +0.000 OA
DOCKED: ENDROOT
DOCKED: BRANCH   6  32
DOCKED: ATOM     32  C   UNL d   1      -2.018 -17.902  -6.103 -0.17 +0.05    +0.052 C 
DOCKED: BRANCH  32  33
DOCKED: ATOM     33  C   UNL d   1      -3.459 -17.818  -5.610 -0.17 +0.15    +0.115 C 
DOCKED: BRANCH  33  34
DOCKED: ATOM     34  C   UNL d   1      -4.413 -18.589  -6.489 -0.08 +0.23    +0.139 C 
DOCKED: ATOM     35  O   UNL d   1      -5.463 -18.073  -6.838 +0.03 -1.08    -0.650 OA
DOCKED: BRANCH  34  36
DOCKED: ATOM     36  O   UNL d   1      -4.146 -19.853  -6.878 -0.02 -1.52    -0.776 OA
DOCKED: ATOM     37  H   UNL d   1      -3.906 -20.541  -6.247 +0.01 +0.21    +0.167 HD
DOCKED: ENDBRANCH  34  36
DOCKED: ENDBRANCH  33  34
DOCKED: ENDBRANCH  32  33
DOCKED: ENDBRANCH   6  32
DOCKED: BRANCH  22  38
DOCKED: ATOM     38  C   UNL d   1      -3.604 -18.104  -0.881 -0.04 +0.05    +0.052 C 
DOCKED: BRANCH  38  39
DOCKED: ATOM     39  C   UNL d   1      -4.953 -17.495  -1.260 -0.06 +0.16    +0.115 C 
DOCKED: BRANCH  39  40
DOCKED: ATOM     40  C   UNL d   1      -5.302 -16.298  -0.412 -0.10 +0.24    +0.139 C 
DOCKED: ATOM     41  O   UNL d   1      -5.491 -15.214  -0.941 -0.31 -1.55    -0.650 OA
DOCKED: BRANCH  40  42
DOCKED: ATOM     42  O   UNL d   1      -5.462 -16.412   0.921 -0.26 -1.58    -0.776 OA
DOCKED: ATOM     43  H   UNL d   1      -5.846 -17.204   1.317 +0.01 +0.24    +0.167 HD
DOCKED: ENDBRANCH  40  42
DOCKED: ENDBRANCH  39  40
DOCKED: ENDBRANCH  38  39
DOCKED: ENDBRANCH  22  38
DOCKED: BRANCH  12  44
DOCKED: ATOM     44  C   UNL d   1       4.431 -10.746  -4.050 -0.45 +0.00    +0.004 C 
DOCKED: ATOM     45  C   UNL d   1       5.564 -10.674  -4.747 -0.39 -0.00    +0.012 C 
DOCKED: ENDBRANCH  12  44
DOCKED: BRANCH  17  46
DOCKED: ATOM     46  C   UNL d   1       1.250 -13.280   3.056 -0.24 +0.00    +0.004 C 
DOCKED: ATOM     47  C   UNL d   1       0.995 -12.308   3.941 -0.36 +0.01    +0.012 C 
DOCKED: ENDBRANCH  17  46
DOCKED: TORSDOF 10
DOCKED: TER
DOCKED: ENDMDL
________________________________________________________________________________


	BEGINNING GENETIC ALGORITHM DOCKING 43 of 100
Run: 43 Seed: 1896652839 1835156179 [ Run 43 of 100 GA/GALS ]
Beginning LAMARCKIAN GENETIC ALGORITHM (LGA), with a maximum of 25000000 energy evaluations.

Final-Value: -12.179


	FINAL GENETIC ALGORITHM DOCKED STATE
	_______________________________________________


Detailed state:  trans 0.094 -14.885 -2.231 quatxyzw -0.878510 -0.199404 -0.380882 0.208295 center 8.287 34.468 -0.670 ntor 10 -5.0489 49.4666 -41.9319 107.1026 173.4986 89.6169 39.0428 -97.8639 173.4112 -27.0321
State:	  0.094 -14.885  -2.231  -0.898 -0.204 -0.389 155.955     -5.05   49.47  -41.93  107.10  173.50   89.62   39.04  -97.86  173.41  -27.03

DOCKED: MODEL       43
DOCKED: USER    Run = 43
DOCKED: USER    DPF = D:/Protein_go_brrr/autodock/final/AncA/heme_O2/dock.dpf
DOCKED: USER  
DOCKED: USER    Estimated Free Energy of Binding    =   -8.54 kcal/mol  [=(1)+(2)+(3)-(4)]
DOCKED: USER    Estimated Inhibition Constant, Ki   =  549.04 nM (nanomolar)  [Temperature = 298.15 K]
DOCKED: USER    
DOCKED: USER    (1) Final Intermolecular Energy     =  -11.52 kcal/mol
DOCKED: USER        vdW + Hbond + desolv Energy     =   -7.25 kcal/mol
DOCKED: USER        Electrostatic Energy            =   -4.28 kcal/mol
DOCKED: USER    (2) Final Total Internal Energy     =   -0.66 kcal/mol
DOCKED: USER    (3) Torsional Free Energy           =   +2.98 kcal/mol
DOCKED: USER    (4) Unbound System's Energy  [=(2)] =   -0.66 kcal/mol
DOCKED: USER    
DOCKED: USER    
DOCKED: USER    NEWDPF move heme_O2_opt.pdbqt
DOCKED: USER    NEWDPF about 8.287000 34.468000 -0.670000
DOCKED: USER    NEWDPF tran0 0.094184 -14.884654 -2.230552
DOCKED: USER    NEWDPF quaternion0 -0.878510 -0.199404 -0.380882 0.208295
DOCKED: USER    NEWDPF axisangle0 -0.898211 -0.203876 -0.389424 155.955107
DOCKED: USER    NEWDPF quat0 -0.898211 -0.203876 -0.389424 155.955107
DOCKED: USER    NEWDPF dihe0 -5.05 49.47 -41.93 107.10 173.50 89.62 39.04 -97.86 173.41 -27.03 
DOCKED: USER  keepresnum = 1 
DOCKED: USER  
DOCKED: REMARK  10 active torsions:
DOCKED: REMARK  status: ('A' for Active; 'I' for Inactive)
DOCKED: REMARK    1  A    between atoms: C_6  and  C_10 
DOCKED: REMARK    2  A    between atoms: C_10  and  C_11 
DOCKED: REMARK    3  A    between atoms: C_11  and  C_12 
DOCKED: REMARK    4  A    between atoms: C_12  and  O_14 
DOCKED: REMARK    5  A    between atoms: C_17  and  C_20 
DOCKED: REMARK    6  A    between atoms: C_24  and  C_27 
DOCKED: REMARK    7  A    between atoms: C_31  and  C_34 
DOCKED: REMARK    8  A    between atoms: C_34  and  C_35 
DOCKED: REMARK    9  A    between atoms: C_35  and  C_36 
DOCKED: REMARK   10  A    between atoms: C_36  and  O_38 
DOCKED: USER                              x       y       z     vdW  Elec       q    Type
DOCKED: USER                           _______ _______ _______ _____ _____    ______ ____
DOCKED: ROOT
DOCKED: ATOM      1  C   UNL d   1      -1.571 -16.167  -2.516 -0.06 +0.08    +0.064 A 
DOCKED: ATOM      2  C   UNL d   1       1.436 -14.089  -5.550 -0.28 +0.03    +0.064 A 
DOCKED: ATOM      3  C   UNL d   1       3.775 -11.972  -1.925 -0.23 +0.01    +0.064 C 
DOCKED: ATOM      4  C   UNL d   1       0.986 -14.484   1.234 -0.09 +0.03    +0.064 A 
DOCKED: ATOM      5  C   UNL d   1      -0.943 -15.776  -3.637 -0.13 +0.07    +0.066 A 
DOCKED: ATOM      6  C   UNL d   1      -1.332 -16.155  -4.925 -0.10 -0.02    -0.021 A 
DOCKED: ATOM      7  C   UNL d   1      -0.436 -15.589  -5.802 -0.28 -0.02    -0.025 A 
DOCKED: ATOM      8  C   UNL d   1       0.447 -14.841  -5.028 -0.22 +0.04    +0.066 A 
DOCKED: ATOM      9  C   UNL d   1      -0.439 -15.802  -7.300 -0.26 +0.03    +0.051 C 
DOCKED: ATOM     10  C   UNL d   1       2.378 -13.266  -4.791 -0.24 +0.03    +0.066 A 
DOCKED: ATOM     11  C   UNL d   1       3.279 -12.378  -5.390 -0.35 -0.01    -0.021 A 
DOCKED: ATOM     12  C   UNL d   1       3.951 -11.745  -4.360 -0.32 +0.00    +0.000 A 
DOCKED: ATOM     13  C   UNL d   1       3.418 -12.303  -3.165 -0.18 +0.02    +0.070 A 
DOCKED: ATOM     14  C   UNL d   1       3.473 -12.125  -6.880 -0.34 +0.01    +0.052 C 
DOCKED: ATOM     15  C   UNL d   1       3.285 -12.539  -0.691 -0.14 +0.02    +0.066 A 
DOCKED: ATOM     16  C   UNL d   1       3.816 -12.267   0.569 -0.18 -0.00    -0.021 A 
DOCKED: ATOM     17  C   UNL d   1       3.037 -12.973   1.486 -0.14 +0.00    +0.000 A 
DOCKED: ATOM     18  C   UNL d   1       2.075 -13.629   0.706 -0.09 +0.03    +0.070 A 
DOCKED: ATOM     19  C   UNL d   1       5.040 -11.411   0.779 -0.24 +0.01    +0.052 C 
DOCKED: ATOM     20  C   UNL d   1       0.073 -15.163   0.512 -0.08 +0.04    +0.066 A 
DOCKED: ATOM     21  C   UNL d   1      -0.941 -15.938   1.067 -0.09 -0.02    -0.025 A 
DOCKED: ATOM     22  C   UNL d   1      -1.696 -16.403   0.014 -0.08 -0.02    -0.021 A 
DOCKED: ATOM     23  C   UNL d   1      -1.101 -15.908  -1.151 -0.07 +0.06    +0.066 A 
DOCKED: ATOM     24  C   UNL d   1      -1.176 -16.223   2.527 -0.08 +0.04    +0.051 C 
DOCKED: ATOM     25  N   UNL d   1       0.174 -15.009  -3.690 -0.07 -0.18    -0.248 N 
DOCKED: ATOM     26  N   UNL d   1       2.465 -13.231  -3.437 -0.07 -0.09    -0.248 N 
DOCKED: ATOM     27  N   UNL d   1       2.287 -13.415  -0.618 -0.04 -0.09    -0.248 N 
DOCKED: ATOM     28  N   UNL d   1       0.001 -15.191  -0.845 -0.03 -0.17    -0.248 N 
DOCKED: ATOM     29 FE   UNL d   1       1.225 -14.217  -2.129 -0.02 +0.00    +0.000 Fe
DOCKED: ATOM     30  O   UNL d   1       1.998 -15.318  -2.913 -0.06 +0.00    +0.000 OA
DOCKED: ATOM     31  O   UNL d   1       2.100 -15.260  -1.342 -0.04 +0.00    +0.000 OA
DOCKED: ENDROOT
DOCKED: BRANCH   6  32
DOCKED: ATOM     32  C   UNL d   1      -2.420 -17.122  -5.314 -0.13 +0.07    +0.052 C 
DOCKED: BRANCH  32  33
DOCKED: ATOM     33  C   UNL d   1      -1.878 -18.486  -5.732 -0.09 +0.11    +0.115 C 
DOCKED: BRANCH  33  34
DOCKED: ATOM     34  C   UNL d   1      -2.666 -19.095  -6.865 -0.12 +0.18    +0.139 C 
DOCKED: ATOM     35  O   UNL d   1      -3.321 -18.374  -7.600 -0.54 -1.26    -0.650 OA
DOCKED: BRANCH  34  36
DOCKED: ATOM     36  O   UNL d   1      -2.686 -20.429  -7.070 -0.05 -1.00    -0.776 OA
DOCKED: ATOM     37  H   UNL d   1      -2.148 -21.034  -6.547 +0.01 +0.14    +0.167 HD
DOCKED: ENDBRANCH  34  36
DOCKED: ENDBRANCH  33  34
DOCKED: ENDBRANCH  32  33
DOCKED: ENDBRANCH   6  32
DOCKED: BRANCH  22  38
DOCKED: ATOM     38  C   UNL d   1      -2.883 -17.325   0.123 -0.07 +0.05    +0.052 C 
DOCKED: BRANCH  38  39
DOCKED: ATOM     39  C   UNL d   1      -4.129 -16.611   0.643 +0.01 +0.19    +0.115 C 
DOCKED: BRANCH  39  40
DOCKED: ATOM     40  C   UNL d   1      -4.847 -15.844  -0.439 -0.11 +0.27    +0.139 C 
DOCKED: ATOM     41  O   UNL d   1      -5.087 -14.657  -0.283 -0.40 -1.45    -0.650 OA
DOCKED: BRANCH  40  42
DOCKED: ATOM     42  O   UNL d   1      -5.185 -16.433  -1.602 +0.05 -1.78    -0.776 OA
DOCKED: ATOM     43  H   UNL d   1      -5.679 -17.261  -1.623 +0.01 +0.25    +0.167 HD
DOCKED: ENDBRANCH  40  42
DOCKED: ENDBRANCH  39  40
DOCKED: ENDBRANCH  38  39
DOCKED: ENDBRANCH  22  38
DOCKED: BRANCH  12  44
DOCKED: ATOM     44  C   UNL d   1       5.013 -10.697  -4.618 -0.49 +0.00    +0.004 C 
DOCKED: ATOM     45  C   UNL d   1       5.152  -9.510  -4.028 -0.35 +0.00    +0.012 C 
DOCKED: ENDBRANCH  12  44
DOCKED: BRANCH  17  46
DOCKED: ATOM     46  C   UNL d   1       3.159 -13.119   2.980 -0.14 +0.00    +0.004 C 
DOCKED: ATOM     47  C   UNL d   1       2.469 -12.480   3.934 -0.26 +0.00    +0.012 C 
DOCKED: ENDBRANCH  17  46
DOCKED: TORSDOF 10
DOCKED: TER
DOCKED: ENDMDL
________________________________________________________________________________


	BEGINNING GENETIC ALGORITHM DOCKING 44 of 100
Run: 44 Seed: 60901668 588191639 [ Run 44 of 100 GA/GALS ]
Beginning LAMARCKIAN GENETIC ALGORITHM (LGA), with a maximum of 25000000 energy evaluations.

Final-Value: -12.389


	FINAL GENETIC ALGORITHM DOCKED STATE
	_______________________________________________


Detailed state:  trans -0.209 -15.135 -2.288 quatxyzw -0.864026 -0.214369 -0.400825 0.216435 center 8.287 34.468 -0.670 ntor 10 -41.0108 -135.8200 -44.7341 97.3109 160.7442 -109.3084 62.1254 -95.8824 150.0141 -38.6983
State:	 -0.209 -15.135  -2.288  -0.885 -0.220 -0.411 155.001    -41.01 -135.82  -44.73   97.31  160.74 -109.31   62.13  -95.88  150.01  -38.70

DOCKED: MODEL       44
DOCKED: USER    Run = 44
DOCKED: USER    DPF = D:/Protein_go_brrr/autodock/final/AncA/heme_O2/dock.dpf
DOCKED: USER  
DOCKED: USER    Estimated Free Energy of Binding    =   -8.89 kcal/mol  [=(1)+(2)+(3)-(4)]
DOCKED: USER    Estimated Inhibition Constant, Ki   =  306.26 nM (nanomolar)  [Temperature = 298.15 K]
DOCKED: USER    
DOCKED: USER    (1) Final Intermolecular Energy     =  -11.87 kcal/mol
DOCKED: USER        vdW + Hbond + desolv Energy     =   -7.57 kcal/mol
DOCKED: USER        Electrostatic Energy            =   -4.30 kcal/mol
DOCKED: USER    (2) Final Total Internal Energy     =   -0.52 kcal/mol
DOCKED: USER    (3) Torsional Free Energy           =   +2.98 kcal/mol
DOCKED: USER    (4) Unbound System's Energy  [=(2)] =   -0.52 kcal/mol
DOCKED: USER    
DOCKED: USER    
DOCKED: USER    NEWDPF move heme_O2_opt.pdbqt
DOCKED: USER    NEWDPF about 8.287000 34.468000 -0.670000
DOCKED: USER    NEWDPF tran0 -0.209099 -15.135342 -2.288427
DOCKED: USER    NEWDPF quaternion0 -0.864026 -0.214369 -0.400825 0.216435
DOCKED: USER    NEWDPF axisangle0 -0.885003 -0.219573 -0.410556 155.000507
DOCKED: USER    NEWDPF quat0 -0.885003 -0.219573 -0.410556 155.000507
DOCKED: USER    NEWDPF dihe0 -41.01 -135.82 -44.73 97.31 160.74 -109.31 62.13 -95.88 150.01 -38.70 
DOCKED: USER  keepresnum = 1 
DOCKED: USER  
DOCKED: REMARK  10 active torsions:
DOCKED: REMARK  status: ('A' for Active; 'I' for Inactive)
DOCKED: REMARK    1  A    between atoms: C_6  and  C_10 
DOCKED: REMARK    2  A    between atoms: C_10  and  C_11 
DOCKED: REMARK    3  A    between atoms: C_11  and  C_12 
DOCKED: REMARK    4  A    between atoms: C_12  and  O_14 
DOCKED: REMARK    5  A    between atoms: C_17  and  C_20 
DOCKED: REMARK    6  A    between atoms: C_24  and  C_27 
DOCKED: REMARK    7  A    between atoms: C_31  and  C_34 
DOCKED: REMARK    8  A    between atoms: C_34  and  C_35 
DOCKED: REMARK    9  A    between atoms: C_35  and  C_36 
DOCKED: REMARK   10  A    between atoms: C_36  and  O_38 
DOCKED: USER                              x       y       z     vdW  Elec       q    Type
DOCKED: USER                           _______ _______ _______ _____ _____    ______ ____
DOCKED: ROOT
DOCKED: ATOM      1  C   UNL d   1      -1.816 -16.481  -2.614 -0.06 +0.09    +0.064 A 
DOCKED: ATOM      2  C   UNL d   1       1.248 -14.370  -5.566 -0.28 +0.03    +0.064 A 
DOCKED: ATOM      3  C   UNL d   1       3.355 -12.091  -1.897 -0.21 +0.02    +0.064 C 
DOCKED: ATOM      4  C   UNL d   1       0.517 -14.624   1.200 -0.10 +0.04    +0.064 A 
DOCKED: ATOM      5  C   UNL d   1      -1.154 -16.094  -3.716 -0.12 +0.07    +0.066 A 
DOCKED: ATOM      6  C   UNL d   1      -1.473 -16.516  -5.010 -0.13 -0.02    -0.021 A 
DOCKED: ATOM      7  C   UNL d   1      -0.560 -15.940  -5.861 -0.25 -0.02    -0.025 A 
DOCKED: ATOM      8  C   UNL d   1       0.263 -15.143  -5.069 -0.21 +0.04    +0.066 A 
DOCKED: ATOM      9  C   UNL d   1      -0.490 -16.187  -7.352 -0.31 +0.03    +0.051 C 
DOCKED: ATOM     10  C   UNL d   1       2.128 -13.497  -4.788 -0.23 +0.03    +0.066 A 
DOCKED: ATOM     11  C   UNL d   1       3.024 -12.593  -5.369 -0.33 -0.01    -0.021 A 
DOCKED: ATOM     12  C   UNL d   1       3.629 -11.914  -4.328 -0.30 +0.00    +0.000 A 
DOCKED: ATOM     13  C   UNL d   1       3.063 -12.463  -3.143 -0.17 +0.02    +0.070 A 
DOCKED: ATOM     14  C   UNL d   1       3.274 -12.368  -6.856 -0.29 +0.02    +0.052 C 
DOCKED: ATOM     15  C   UNL d   1       2.831 -12.645  -0.672 -0.14 +0.02    +0.066 A 
DOCKED: ATOM     16  C   UNL d   1       3.298 -12.326   0.603 -0.19 -0.01    -0.021 A 
DOCKED: ATOM     17  C   UNL d   1       2.504 -13.037   1.503 -0.16 +0.00    +0.000 A 
DOCKED: ATOM     18  C   UNL d   1       1.599 -13.745   0.698 -0.10 +0.03    +0.070 A 
DOCKED: ATOM     19  C   UNL d   1       4.482 -11.424   0.844 -0.22 +0.01    +0.052 C 
DOCKED: ATOM     20  C   UNL d   1      -0.340 -15.351   0.457 -0.08 +0.05    +0.066 A 
DOCKED: ATOM     21  C   UNL d   1      -1.351 -16.147   0.986 -0.09 -0.02    -0.025 A 
DOCKED: ATOM     22  C   UNL d   1      -2.043 -16.663  -0.086 -0.08 -0.02    -0.021 A 
DOCKED: ATOM     23  C   UNL d   1      -1.415 -16.174  -1.236 -0.07 +0.07    +0.066 A 
DOCKED: ATOM     24  C   UNL d   1      -1.640 -16.407   2.442 -0.04 +0.05    +0.051 C 
DOCKED: ATOM     25  N   UNL d   1      -0.062 -15.291  -3.740 -0.07 -0.19    -0.248 N 
DOCKED: ATOM     26  N   UNL d   1       2.155 -13.429  -3.433 -0.07 -0.10    -0.248 N 
DOCKED: ATOM     27  N   UNL d   1       1.861 -13.553  -0.620 -0.04 -0.10    -0.248 N 
DOCKED: ATOM     28  N   UNL d   1      -0.352 -15.413  -0.901 -0.03 -0.18    -0.248 N 
DOCKED: ATOM     29 FE   UNL d   1       0.893 -14.427  -2.155 -0.02 +0.00    +0.000 Fe
DOCKED: ATOM     30  O   UNL d   1       1.736 -15.518  -2.878 -0.06 +0.00    +0.000 OA
DOCKED: ATOM     31  O   UNL d   1       1.768 -15.421  -1.306 -0.04 +0.00    +0.000 OA
DOCKED: ENDROOT
DOCKED: BRANCH   6  32
DOCKED: ATOM     32  C   UNL d   1      -2.510 -17.529  -5.420 -0.15 +0.06    +0.052 C 
DOCKED: BRANCH  32  33
DOCKED: ATOM     33  C   UNL d   1      -1.938 -18.640  -6.296 -0.11 +0.11    +0.115 C 
DOCKED: BRANCH  33  34
DOCKED: ATOM     34  C   UNL d   1      -2.600 -18.704  -7.650 -0.05 +0.21    +0.139 C 
DOCKED: ATOM     35  O   UNL d   1      -3.356 -17.809  -7.995 -0.49 -1.14    -0.650 OA
DOCKED: BRANCH  34  36
DOCKED: ATOM     36  O   UNL d   1      -2.399 -19.746  -8.483 -0.14 -1.40    -0.776 OA
DOCKED: ATOM     37  H   UNL d   1      -1.531 -20.149  -8.597 +0.03 +0.18    +0.167 HD
DOCKED: ENDBRANCH  34  36
DOCKED: ENDBRANCH  33  34
DOCKED: ENDBRANCH  32  33
DOCKED: ENDBRANCH   6  32
DOCKED: BRANCH  22  38
DOCKED: ATOM     38  C   UNL d   1      -3.202 -17.623  -0.004 -0.06 +0.05    +0.052 C 
DOCKED: BRANCH  38  39
DOCKED: ATOM     39  C   UNL d   1      -4.410 -17.017   0.708 -0.04 +0.17    +0.115 C 
DOCKED: BRANCH  39  40
DOCKED: ATOM     40  C   UNL d   1      -5.256 -16.171  -0.210 -0.06 +0.25    +0.139 C 
DOCKED: ATOM     41  O   UNL d   1      -5.389 -16.493  -1.380 -0.18 -1.32    -0.650 OA
DOCKED: BRANCH  40  42
DOCKED: ATOM     42  O   UNL d   1      -5.912 -15.089   0.250 -0.52 -1.69    -0.776 OA
DOCKED: ATOM     43  H   UNL d   1      -6.839 -14.930   0.032 +0.03 +0.27    +0.167 HD
DOCKED: ENDBRANCH  40  42
DOCKED: ENDBRANCH  39  40
DOCKED: ENDBRANCH  38  39
DOCKED: ENDBRANCH  22  38
DOCKED: BRANCH  12  44
DOCKED: ATOM     44  C   UNL d   1       4.665 -10.835  -4.565 -0.48 +0.00    +0.004 C 
DOCKED: ATOM     45  C   UNL d   1       4.710  -9.612  -4.038 -0.38 +0.00    +0.012 C 
DOCKED: ENDBRANCH  12  44
DOCKED: BRANCH  17  46
DOCKED: ATOM     46  C   UNL d   1       2.565 -13.145   3.003 -0.17 +0.00    +0.004 C 
DOCKED: ATOM     47  C   UNL d   1       1.944 -12.385   3.914 -0.32 +0.00    +0.012 C 
DOCKED: ENDBRANCH  17  46
DOCKED: TORSDOF 10
DOCKED: TER
DOCKED: ENDMDL
________________________________________________________________________________


	BEGINNING GENETIC ALGORITHM DOCKING 45 of 100
Run: 45 Seed: 1057413009 605247273 [ Run 45 of 100 GA/GALS ]
Beginning LAMARCKIAN GENETIC ALGORITHM (LGA), with a maximum of 25000000 energy evaluations.

Final-Value: -10.929


	FINAL GENETIC ALGORITHM DOCKED STATE
	_______________________________________________


Detailed state:  trans -12.332 -14.329 -1.255 quatxyzw -0.644499 -0.595170 0.479006 0.030777 center 8.287 34.468 -0.670 ntor 10 26.6270 -78.6711 -3.2852 134.9991 52.9939 -142.5163 -55.1341 -49.6422 -140.6488 180.0000
State:	-12.332 -14.329  -1.255  -0.645 -0.595  0.479 176.473     26.63  -78.67   -3.29  135.00   52.99 -142.52  -55.13  -49.64 -140.65  180.00

DOCKED: MODEL       45
DOCKED: USER    Run = 45
DOCKED: USER    DPF = D:/Protein_go_brrr/autodock/final/AncA/heme_O2/dock.dpf
DOCKED: USER  
DOCKED: USER    Estimated Free Energy of Binding    =   -7.26 kcal/mol  [=(1)+(2)+(3)-(4)]
DOCKED: USER    Estimated Inhibition Constant, Ki   =    4.79 uM (micromolar)  [Temperature = 298.15 K]
DOCKED: USER    
DOCKED: USER    (1) Final Intermolecular Energy     =  -10.24 kcal/mol
DOCKED: USER        vdW + Hbond + desolv Energy     =   -7.14 kcal/mol
DOCKED: USER        Electrostatic Energy            =   -3.10 kcal/mol
DOCKED: USER    (2) Final Total Internal Energy     =   -0.69 kcal/mol
DOCKED: USER    (3) Torsional Free Energy           =   +2.98 kcal/mol
DOCKED: USER    (4) Unbound System's Energy  [=(2)] =   -0.69 kcal/mol
DOCKED: USER    
DOCKED: USER    
DOCKED: USER    NEWDPF move heme_O2_opt.pdbqt
DOCKED: USER    NEWDPF about 8.287000 34.468000 -0.670000
DOCKED: USER    NEWDPF tran0 -12.331584 -14.328741 -1.254770
DOCKED: USER    NEWDPF quaternion0 -0.644499 -0.595170 0.479006 0.030777
DOCKED: USER    NEWDPF axisangle0 -0.644805 -0.595452 0.479233 176.472673
DOCKED: USER    NEWDPF quat0 -0.644805 -0.595452 0.479233 176.472673
DOCKED: USER    NEWDPF dihe0 26.63 -78.67 -3.29 135.00 52.99 -142.52 -55.13 -49.64 -140.65 180.00 
DOCKED: USER  keepresnum = 1 
DOCKED: USER  
DOCKED: REMARK  10 active torsions:
DOCKED: REMARK  status: ('A' for Active; 'I' for Inactive)
DOCKED: REMARK    1  A    between atoms: C_6  and  C_10 
DOCKED: REMARK    2  A    between atoms: C_10  and  C_11 
DOCKED: REMARK    3  A    between atoms: C_11  and  C_12 
DOCKED: REMARK    4  A    between atoms: C_12  and  O_14 
DOCKED: REMARK    5  A    between atoms: C_17  and  C_20 
DOCKED: REMARK    6  A    between atoms: C_24  and  C_27 
DOCKED: REMARK    7  A    between atoms: C_31  and  C_34 
DOCKED: REMARK    8  A    between atoms: C_34  and  C_35 
DOCKED: REMARK    9  A    between atoms: C_35  and  C_36 
DOCKED: REMARK   10  A    between atoms: C_36  and  O_38 
DOCKED: USER                              x       y       z     vdW  Elec       q    Type
DOCKED: USER                           _______ _______ _______ _____ _____    ______ ____
DOCKED: ROOT
DOCKED: ATOM      1  C   UNL d   1     -11.074 -15.395   0.080 -0.10 +0.02    +0.064 A 
DOCKED: ATOM      2  C   UNL d   1     -15.597 -15.999  -1.240 -0.12 +0.01    +0.064 A 
DOCKED: ATOM      3  C   UNL d   1     -15.379 -12.131  -4.084 -0.26 +0.00    +0.064 C 
DOCKED: ATOM      4  C   UNL d   1     -10.586 -11.778  -3.101 -0.19 +0.02    +0.064 A 
DOCKED: ATOM      5  C   UNL d   1     -12.322 -15.876  -0.048 -0.09 +0.02    +0.066 A 
DOCKED: ATOM      6  C   UNL d   1     -12.805 -16.993   0.639 -0.08 -0.01    -0.021 A 
DOCKED: ATOM      7  C   UNL d   1     -14.100 -17.195   0.225 -0.09 -0.01    -0.025 A 
DOCKED: ATOM      8  C   UNL d   1     -14.389 -16.166  -0.668 -0.11 +0.01    +0.066 A 
DOCKED: ATOM      9  C   UNL d   1     -14.980 -18.346   0.662 -0.04 +0.01    +0.051 C 
DOCKED: ATOM     10  C   UNL d   1     -15.965 -14.927  -2.166 -0.14 +0.01    +0.066 A 
DOCKED: ATOM     11  C   UNL d   1     -17.276 -14.705  -2.603 -0.13 -0.00    -0.021 A 
DOCKED: ATOM     12  C   UNL d   1     -17.237 -13.582  -3.410 -0.15 +0.00    +0.000 A 
DOCKED: ATOM     13  C   UNL d   1     -15.872 -13.182  -3.430 -0.18 +0.01    +0.070 A 
DOCKED: ATOM     14  C   UNL d   1     -18.518 -15.512  -2.244 -0.07 +0.01    +0.052 C 
DOCKED: ATOM     15  C   UNL d   1     -14.000 -11.713  -4.158 -0.24 +0.00    +0.066 A 
DOCKED: ATOM     16  C   UNL d   1     -13.525 -10.701  -4.991 -0.32 +0.00    -0.021 A 
DOCKED: ATOM     17  C   UNL d   1     -12.160 -10.583  -4.729 -0.41 +0.00    +0.000 A 
DOCKED: ATOM     18  C   UNL d   1     -11.902 -11.543  -3.741 -0.29 +0.01    +0.070 A 
DOCKED: ATOM     19  C   UNL d   1     -14.394  -9.982  -5.992 -0.40 +0.00    +0.052 C 
DOCKED: ATOM     20  C   UNL d   1     -10.295 -12.719  -2.182 -0.21 +0.03    +0.066 A 
DOCKED: ATOM     21  C   UNL d   1      -9.040 -12.881  -1.601 -0.22 -0.02    -0.025 A 
DOCKED: ATOM     22  C   UNL d   1      -9.167 -13.889  -0.673 -0.15 -0.01    -0.021 A 
DOCKED: ATOM     23  C   UNL d   1     -10.496 -14.319  -0.734 -0.12 +0.03    +0.066 A 
DOCKED: ATOM     24  C   UNL d   1      -7.782 -12.115  -1.920 -0.28 +0.04    +0.051 C 
DOCKED: ATOM     25  N   UNL d   1     -13.272 -15.393  -0.886 -0.04 -0.04    -0.248 N 
DOCKED: ATOM     26  N   UNL d   1     -15.105 -14.008  -2.675 -0.13 -0.02    -0.248 N 
DOCKED: ATOM     27  N   UNL d   1     -13.014 -12.270  -3.461 -0.13 -0.02    -0.248 N 
DOCKED: ATOM     28  N   UNL d   1     -11.167 -13.636  -1.684 -0.08 -0.08    -0.248 N 
DOCKED: ATOM     29 FE   UNL d   1     -13.121 -13.819  -2.178 -0.06 +0.00    +0.000 Fe
DOCKED: ATOM     30  O   UNL d   1     -13.264 -15.199  -2.883 -0.14 +0.00    +0.000 OA
DOCKED: ATOM     31  O   UNL d   1     -12.278 -14.120  -3.470 -0.19 +0.00    +0.000 OA
DOCKED: ENDROOT
DOCKED: BRANCH   6  32
DOCKED: ATOM     32  C   UNL d   1     -12.039 -17.920   1.547 -0.03 +0.01    +0.052 C 
DOCKED: BRANCH  32  33
DOCKED: ATOM     33  C   UNL d   1     -10.829 -18.551   0.865 +0.00 +0.04    +0.115 C 
DOCKED: BRANCH  33  34
DOCKED: ATOM     34  C   UNL d   1      -9.541 -18.261   1.596 +0.01 +0.06    +0.139 C 
DOCKED: ATOM     35  O   UNL d   1      -8.821 -17.353   1.214 +0.03 -0.41    -0.650 OA
DOCKED: BRANCH  34  36
DOCKED: ATOM     36  O   UNL d   1      -9.149 -19.005   2.651 +0.01 -0.32    -0.776 OA
DOCKED: ATOM     37  H   UNL d   1      -9.419 -19.924   2.758 +0.00 +0.05    +0.167 HD
DOCKED: ENDBRANCH  34  36
DOCKED: ENDBRANCH  33  34
DOCKED: ENDBRANCH  32  33
DOCKED: ENDBRANCH   6  32
DOCKED: BRANCH  22  38
DOCKED: ATOM     38  C   UNL d   1      -8.054 -14.447   0.176 -0.14 +0.05    +0.052 C 
DOCKED: BRANCH  38  39
DOCKED: ATOM     39  C   UNL d   1      -7.157 -15.409  -0.599 -0.10 +0.16    +0.115 C 
DOCKED: BRANCH  39  40
DOCKED: ATOM     40  C   UNL d   1      -5.693 -15.071  -0.461 -0.13 +0.28    +0.139 C 
DOCKED: ATOM     41  O   UNL d   1      -5.351 -14.138   0.248 -0.38 -1.53    -0.650 OA
DOCKED: BRANCH  40  42
DOCKED: ATOM     42  O   UNL d   1      -4.747 -15.815  -1.066 -0.02 -1.81    -0.776 OA
DOCKED: ATOM     43  H   UNL d   1      -4.488 -16.679  -0.724 +0.01 +0.28    +0.167 HD
DOCKED: ENDBRANCH  40  42
DOCKED: ENDBRANCH  39  40
DOCKED: ENDBRANCH  38  39
DOCKED: ENDBRANCH  22  38
DOCKED: BRANCH  12  44
DOCKED: ATOM     44  C   UNL d   1     -18.481 -13.022  -4.068 -0.12 +0.00    +0.004 C 
DOCKED: ATOM     45  C   UNL d   1     -18.605 -11.881  -4.745 -0.13 +0.00    +0.012 C 
DOCKED: ENDBRANCH  12  44
DOCKED: BRANCH  17  46
DOCKED: ATOM     46  C   UNL d   1     -11.105  -9.709  -5.354 -0.53 +0.00    +0.004 C 
DOCKED: ATOM     47  C   UNL d   1     -10.233  -8.897  -4.744 -0.48 +0.00    +0.012 C 
DOCKED: ENDBRANCH  17  46
DOCKED: TORSDOF 10
DOCKED: TER
DOCKED: ENDMDL
________________________________________________________________________________


	BEGINNING GENETIC ALGORITHM DOCKING 46 of 100
Run: 46 Seed: 732064264 26539524 [ Run 46 of 100 GA/GALS ]
Beginning LAMARCKIAN GENETIC ALGORITHM (LGA), with a maximum of 25000000 energy evaluations.

Final-Value: -11.101


	FINAL GENETIC ALGORITHM DOCKED STATE
	_______________________________________________


Detailed state:  trans 0.994 -14.275 0.615 quatxyzw -0.396711 0.251490 0.385075 -0.794412 center 8.287 34.468 -0.670 ntor 10 -105.6240 57.1428 -17.0460 41.2190 -55.7288 96.4762 48.2655 -76.2198 -22.0556 119.3473
State:	  0.994 -14.275   0.615  -0.653  0.414  0.634 -74.800   -105.62   57.14  -17.05   41.22  -55.73   96.48   48.27  -76.22  -22.06  119.35

DOCKED: MODEL       46
DOCKED: USER    Run = 46
DOCKED: USER    DPF = D:/Protein_go_brrr/autodock/final/AncA/heme_O2/dock.dpf
DOCKED: USER  
DOCKED: USER    Estimated Free Energy of Binding    =   -7.62 kcal/mol  [=(1)+(2)+(3)-(4)]
DOCKED: USER    Estimated Inhibition Constant, Ki   =    2.61 uM (micromolar)  [Temperature = 298.15 K]
DOCKED: USER    
DOCKED: USER    (1) Final Intermolecular Energy     =  -10.60 kcal/mol
DOCKED: USER        vdW + Hbond + desolv Energy     =   -6.89 kcal/mol
DOCKED: USER        Electrostatic Energy            =   -3.71 kcal/mol
DOCKED: USER    (2) Final Total Internal Energy     =   -0.50 kcal/mol
DOCKED: USER    (3) Torsional Free Energy           =   +2.98 kcal/mol
DOCKED: USER    (4) Unbound System's Energy  [=(2)] =   -0.50 kcal/mol
DOCKED: USER    
DOCKED: USER    
DOCKED: USER    NEWDPF move heme_O2_opt.pdbqt
DOCKED: USER    NEWDPF about 8.287000 34.468000 -0.670000
DOCKED: USER    NEWDPF tran0 0.993794 -14.274747 0.614522
DOCKED: USER    NEWDPF quaternion0 -0.396711 0.251490 0.385075 -0.794412
DOCKED: USER    NEWDPF axisangle0 -0.653153 0.414057 0.633994 -74.800489
DOCKED: USER    NEWDPF quat0 -0.653153 0.414057 0.633994 -74.800489
DOCKED: USER    NEWDPF dihe0 -105.62 57.14 -17.05 41.22 -55.73 96.48 48.27 -76.22 -22.06 119.35 
DOCKED: USER  keepresnum = 1 
DOCKED: USER  
DOCKED: REMARK  10 active torsions:
DOCKED: REMARK  status: ('A' for Active; 'I' for Inactive)
DOCKED: REMARK    1  A    between atoms: C_6  and  C_10 
DOCKED: REMARK    2  A    between atoms: C_10  and  C_11 
DOCKED: REMARK    3  A    between atoms: C_11  and  C_12 
DOCKED: REMARK    4  A    between atoms: C_12  and  O_14 
DOCKED: REMARK    5  A    between atoms: C_17  and  C_20 
DOCKED: REMARK    6  A    between atoms: C_24  and  C_27 
DOCKED: REMARK    7  A    between atoms: C_31  and  C_34 
DOCKED: REMARK    8  A    between atoms: C_34  and  C_35 
DOCKED: REMARK    9  A    between atoms: C_35  and  C_36 
DOCKED: REMARK   10  A    between atoms: C_36  and  O_38 
DOCKED: USER                              x       y       z     vdW  Elec       q    Type
DOCKED: USER                           _______ _______ _______ _____ _____    ______ ____
DOCKED: ROOT
DOCKED: ATOM      1  C   UNL d   1      -0.649 -15.471   1.223 -0.09 +0.05    +0.064 A 
DOCKED: ATOM      2  C   UNL d   1       2.590 -12.992   3.657 -0.15 +0.02    +0.064 A 
DOCKED: ATOM      3  C   UNL d   1       4.744 -11.630  -0.418 -0.27 +0.01    +0.064 C 
DOCKED: ATOM      4  C   UNL d   1       1.136 -13.785  -2.949 -0.12 +0.03    +0.064 A 
DOCKED: ATOM      5  C   UNL d   1       0.055 -14.906   2.217 -0.10 +0.04    +0.066 A 
DOCKED: ATOM      6  C   UNL d   1      -0.232 -15.077   3.575 -0.12 -0.01    -0.021 A 
DOCKED: ATOM      7  C   UNL d   1       0.679 -14.324   4.279 -0.15 -0.01    -0.025 A 
DOCKED: ATOM      8  C   UNL d   1       1.527 -13.754   3.334 -0.14 +0.03    +0.066 A 
DOCKED: ATOM      9  C   UNL d   1       0.687 -14.160   5.783 -0.18 +0.03    +0.051 C 
DOCKED: ATOM     10  C   UNL d   1       3.529 -12.385   2.711 -0.15 +0.02    +0.066 A 
DOCKED: ATOM     11  C   UNL d   1       4.707 -11.741   3.104 -0.14 -0.01    -0.021 A 
DOCKED: ATOM     12  C   UNL d   1       5.351 -11.357   1.942 -0.15 +0.00    +0.000 A 
DOCKED: ATOM     13  C   UNL d   1       4.504 -11.787   0.884 -0.16 +0.01    +0.070 A 
DOCKED: ATOM     14  C   UNL d   1       5.211 -11.525   4.526 -0.12 +0.02    +0.052 C 
DOCKED: ATOM     15  C   UNL d   1       3.896 -12.020  -1.519 -0.19 +0.01    +0.066 A 
DOCKED: ATOM     16  C   UNL d   1       4.125 -11.681  -2.852 -0.25 -0.00    -0.021 A 
DOCKED: ATOM     17  C   UNL d   1       3.108 -12.284  -3.592 -0.23 +0.00    +0.000 A 
DOCKED: ATOM     18  C   UNL d   1       2.326 -12.956  -2.643 -0.13 +0.02    +0.070 A 
DOCKED: ATOM     19  C   UNL d   1       5.250 -10.776  -3.289 -0.25 +0.01    +0.052 C 
DOCKED: ATOM     20  C   UNL d   1       0.338 -14.407  -2.060 -0.08 +0.04    +0.066 A 
DOCKED: ATOM     21  C   UNL d   1      -0.759 -15.189  -2.409 -0.11 -0.02    -0.025 A 
DOCKED: ATOM     22  C   UNL d   1      -1.264 -15.700  -1.235 -0.09 -0.02    -0.021 A 
DOCKED: ATOM     23  C   UNL d   1      -0.463 -15.194  -0.206 -0.08 +0.05    +0.066 A 
DOCKED: ATOM     24  C   UNL d   1      -1.301 -15.434  -3.794 -0.10 +0.07    +0.051 C 
DOCKED: ATOM     25  N   UNL d   1       1.103 -14.060   2.062 -0.08 -0.12    -0.248 N 
DOCKED: ATOM     26  N   UNL d   1       3.396 -12.408   1.361 -0.10 -0.07    -0.248 N 
DOCKED: ATOM     27  N   UNL d   1       2.775 -12.723  -1.383 -0.06 -0.07    -0.248 N 
DOCKED: ATOM     28  N   UNL d   1       0.482 -14.373  -0.708 -0.04 -0.14    -0.248 N 
DOCKED: ATOM     29 FE   UNL d   1       1.929 -13.396   0.316 -0.03 +0.00    +0.000 Fe
DOCKED: ATOM     30  O   UNL d   1       1.209 -12.284   1.133 -0.33 +0.00    +0.000 OA
DOCKED: ATOM     31  O   UNL d   1       1.071 -12.314  -0.436 -0.27 +0.00    +0.000 OA
DOCKED: ENDROOT
DOCKED: BRANCH   6  32
DOCKED: ATOM     32  C   UNL d   1      -1.400 -15.806   4.187 +0.11 +0.05    +0.052 C 
DOCKED: BRANCH  32  33
DOCKED: ATOM     33  C   UNL d   1      -1.423 -17.290   3.832 -0.06 +0.08    +0.115 C 
DOCKED: BRANCH  33  34
DOCKED: ATOM     34  C   UNL d   1      -2.793 -17.758   3.407 -0.06 +0.12    +0.139 C 
DOCKED: ATOM     35  O   UNL d   1      -2.897 -18.715   2.656 +0.01 -0.44    -0.650 OA
DOCKED: BRANCH  34  36
DOCKED: ATOM     36  O   UNL d   1      -3.911 -17.124   3.815 -0.32 -1.20    -0.776 OA
DOCKED: ATOM     37  H   UNL d   1      -4.491 -17.495   4.491 +0.01 +0.20    +0.167 HD
DOCKED: ENDBRANCH  34  36
DOCKED: ENDBRANCH  33  34
DOCKED: ENDBRANCH  32  33
DOCKED: ENDBRANCH   6  32
DOCKED: BRANCH  22  38
DOCKED: ATOM     38  C   UNL d   1      -2.486 -16.572  -1.110 -0.10 +0.07    +0.052 C 
DOCKED: BRANCH  38  39
DOCKED: ATOM     39  C   UNL d   1      -3.352 -16.192   0.089 -0.12 +0.17    +0.115 C 
DOCKED: BRANCH  39  40
DOCKED: ATOM     40  C   UNL d   1      -4.574 -15.403  -0.311 +0.02 +0.29    +0.139 C 
DOCKED: ATOM     41  O   UNL d   1      -4.730 -14.270   0.115 -0.30 -1.56    -0.650 OA
DOCKED: BRANCH  40  42
DOCKED: ATOM     42  O   UNL d   1      -5.477 -15.908  -1.174 -0.28 -1.73    -0.776 OA
DOCKED: ATOM     43  H   UNL d   1      -5.952 -16.726  -0.986 +0.02 +0.25    +0.167 HD
DOCKED: ENDBRANCH  40  42
DOCKED: ENDBRANCH  39  40
DOCKED: ENDBRANCH  38  39
DOCKED: ENDBRANCH  22  38
DOCKED: BRANCH  12  44
DOCKED: ATOM     44  C   UNL d   1       6.680 -10.630   1.962 -0.24 +0.00    +0.004 C 
DOCKED: ATOM     45  C   UNL d   1       7.582 -10.547   0.985 -0.32 +0.00    +0.012 C 
DOCKED: ENDBRANCH  12  44
DOCKED: BRANCH  17  46
DOCKED: ATOM     46  C   UNL d   1       2.793 -12.231  -5.063 -0.32 +0.00    +0.004 C 
DOCKED: ATOM     47  C   UNL d   1       3.647 -12.155  -6.092 -0.49 +0.00    +0.012 C 
DOCKED: ENDBRANCH  17  46
DOCKED: TORSDOF 10
DOCKED: TER
DOCKED: ENDMDL
________________________________________________________________________________


	BEGINNING GENETIC ALGORITHM DOCKING 47 of 100
Run: 47 Seed: 1784635062 1963217616 [ Run 47 of 100 GA/GALS ]
Beginning LAMARCKIAN GENETIC ALGORITHM (LGA), with a maximum of 25000000 energy evaluations.

Final-Value: -11.938


	FINAL GENETIC ALGORITHM DOCKED STATE
	_______________________________________________


Detailed state:  trans -4.517 -15.170 -0.855 quatxyzw 0.039701 -0.534372 -0.823537 0.186164 center 8.287 34.468 -0.670 ntor 10 143.0943 -5.3144 28.5212 -92.9932 -177.4876 -65.9239 -85.8558 -176.0446 -179.4754 163.1430
State:	 -4.517 -15.170  -0.855   0.040 -0.544 -0.838 158.542    143.09   -5.31   28.52  -92.99 -177.49  -65.92  -85.86 -176.04 -179.48  163.14

DOCKED: MODEL       47
DOCKED: USER    Run = 47
DOCKED: USER    DPF = D:/Protein_go_brrr/autodock/final/AncA/heme_O2/dock.dpf
DOCKED: USER  
DOCKED: USER    Estimated Free Energy of Binding    =   -6.59 kcal/mol  [=(1)+(2)+(3)-(4)]
DOCKED: USER    Estimated Inhibition Constant, Ki   =   14.82 uM (micromolar)  [Temperature = 298.15 K]
DOCKED: USER    
DOCKED: USER    (1) Final Intermolecular Energy     =   -9.57 kcal/mol
DOCKED: USER        vdW + Hbond + desolv Energy     =   -6.70 kcal/mol
DOCKED: USER        Electrostatic Energy            =   -2.87 kcal/mol
DOCKED: USER    (2) Final Total Internal Energy     =   -2.37 kcal/mol
DOCKED: USER    (3) Torsional Free Energy           =   +2.98 kcal/mol
DOCKED: USER    (4) Unbound System's Energy  [=(2)] =   -2.37 kcal/mol
DOCKED: USER    
DOCKED: USER    
DOCKED: USER    NEWDPF move heme_O2_opt.pdbqt
DOCKED: USER    NEWDPF about 8.287000 34.468000 -0.670000
DOCKED: USER    NEWDPF tran0 -4.516615 -15.169745 -0.855007
DOCKED: USER    NEWDPF quaternion0 0.039701 -0.534372 -0.823537 0.186164
DOCKED: USER    NEWDPF axisangle0 0.040407 -0.543880 -0.838190 158.541994
DOCKED: USER    NEWDPF quat0 0.040407 -0.543880 -0.838190 158.541994
DOCKED: USER    NEWDPF dihe0 143.09 -5.31 28.52 -92.99 -177.49 -65.92 -85.86 -176.04 -179.48 163.14 
DOCKED: USER  keepresnum = 1 
DOCKED: USER  
DOCKED: REMARK  10 active torsions:
DOCKED: REMARK  status: ('A' for Active; 'I' for Inactive)
DOCKED: REMARK    1  A    between atoms: C_6  and  C_10 
DOCKED: REMARK    2  A    between atoms: C_10  and  C_11 
DOCKED: REMARK    3  A    between atoms: C_11  and  C_12 
DOCKED: REMARK    4  A    between atoms: C_12  and  O_14 
DOCKED: REMARK    5  A    between atoms: C_17  and  C_20 
DOCKED: REMARK    6  A    between atoms: C_24  and  C_27 
DOCKED: REMARK    7  A    between atoms: C_31  and  C_34 
DOCKED: REMARK    8  A    between atoms: C_34  and  C_35 
DOCKED: REMARK    9  A    between atoms: C_35  and  C_36 
DOCKED: REMARK   10  A    between atoms: C_36  and  O_38 
DOCKED: USER                              x       y       z     vdW  Elec       q    Type
DOCKED: USER                           _______ _______ _______ _____ _____    ______ ____
DOCKED: ROOT
DOCKED: ATOM      1  C   UNL d   1      -3.099 -16.596  -0.180 -0.10 +0.08    +0.064 A 
DOCKED: ATOM      2  C   UNL d   1      -2.742 -11.988  -1.273 -0.27 +0.07    +0.064 A 
DOCKED: ATOM      3  C   UNL d   1      -7.403 -11.806  -2.429 -0.25 +0.05    +0.064 C 
DOCKED: ATOM      4  C   UNL d   1      -7.890 -16.426  -0.853 -0.04 +0.06    +0.064 A 
DOCKED: ATOM      5  C   UNL d   1      -2.622 -15.357  -0.381 -0.14 +0.09    +0.066 A 
DOCKED: ATOM      6  C   UNL d   1      -1.288 -14.990  -0.183 -0.13 -0.02    -0.021 A 
DOCKED: ATOM      7  C   UNL d   1      -1.192 -13.646  -0.457 -0.18 -0.02    -0.025 A 
DOCKED: ATOM      8  C   UNL d   1      -2.461 -13.239  -0.862 -0.15 +0.09    +0.066 A 
DOCKED: ATOM      9  C   UNL d   1       0.064 -12.817  -0.298 -0.23 +0.03    +0.051 C 
DOCKED: ATOM     10  C   UNL d   1      -4.047 -11.508  -1.730 -0.30 +0.07    +0.066 A 
DOCKED: ATOM     11  C   UNL d   1      -4.246 -10.246  -2.299 -0.34 -0.01    -0.021 A 
DOCKED: ATOM     12  C   UNL d   1      -5.581 -10.181  -2.656 -0.21 +0.00    +0.000 A 
DOCKED: ATOM     13  C   UNL d   1      -6.135 -11.431  -2.264 -0.20 +0.07    +0.070 A 
DOCKED: ATOM     14  C   UNL d   1      -3.202  -9.157  -2.519 -0.45 +0.02    +0.052 C 
DOCKED: ATOM     15  C   UNL d   1      -8.011 -13.047  -2.015 -0.19 +0.06    +0.066 A 
DOCKED: ATOM     16  C   UNL d   1      -9.378 -13.314  -2.067 -0.17 -0.01    -0.021 A 
DOCKED: ATOM     17  C   UNL d   1      -9.541 -14.626  -1.622 -0.12 +0.00    +0.000 A 
DOCKED: ATOM     18  C   UNL d   1      -8.243 -15.067  -1.329 -0.09 +0.07    +0.070 A 
DOCKED: ATOM     19  C   UNL d   1     -10.402 -12.287  -2.480 -0.28 +0.02    +0.052 C 
DOCKED: ATOM     20  C   UNL d   1      -6.662 -16.869  -0.522 -0.06 +0.08    +0.066 A 
DOCKED: ATOM     21  C   UNL d   1      -6.388 -18.165  -0.096 -0.02 -0.02    -0.025 A 
DOCKED: ATOM     22  C   UNL d   1      -5.024 -18.240   0.074 -0.03 -0.02    -0.021 A 
DOCKED: ATOM     23  C   UNL d   1      -4.516 -16.975  -0.238 -0.09 +0.09    +0.066 A 
DOCKED: ATOM     24  C   UNL d   1      -7.379 -19.276   0.139 +0.01 +0.03    +0.051 C 
DOCKED: ATOM     25  N   UNL d   1      -3.355 -14.279  -0.752 -0.11 -0.48    -0.248 N 
DOCKED: ATOM     26  N   UNL d   1      -5.196 -12.231  -1.698 -0.17 -0.36    -0.248 N 
DOCKED: ATOM     27  N   UNL d   1      -7.336 -14.073  -1.502 -0.10 -0.34    -0.248 N 
DOCKED: ATOM     28  N   UNL d   1      -5.520 -16.132  -0.556 -0.07 -0.45    -0.248 N 
DOCKED: ATOM     29 FE   UNL d   1      -5.362 -14.196  -1.123 -0.04 +0.00    +0.000 Fe
DOCKED: ATOM     30  O   UNL d   1      -4.923 -13.406   0.145 -0.22 +0.00    +0.000 OA
DOCKED: ATOM     31  O   UNL d   1      -6.261 -14.238   0.167 -0.56 +0.00    +0.000 OA
DOCKED: ENDROOT
DOCKED: BRANCH   6  32
DOCKED: ATOM     32  C   UNL d   1      -0.172 -15.835   0.375 -0.07 +0.03    +0.052 C 
DOCKED: BRANCH  32  33
DOCKED: ATOM     33  C   UNL d   1       0.038 -15.625   1.872 -0.09 +0.07    +0.115 C 
DOCKED: BRANCH  33  34
DOCKED: ATOM     34  C   UNL d   1      -0.756 -16.600   2.706 -0.07 +0.10    +0.139 C 
DOCKED: ATOM     35  O   UNL d   1      -0.979 -17.721   2.276 +0.01 -0.39    -0.650 OA
DOCKED: BRANCH  34  36
DOCKED: ATOM     36  O   UNL d   1      -1.254 -16.252   3.910 +0.02 -0.62    -0.776 OA
DOCKED: ATOM     37  H   UNL d   1      -2.111 -16.568   4.220 +0.02 +0.16    +0.167 HD
DOCKED: ENDBRANCH  34  36
DOCKED: ENDBRANCH  33  34
DOCKED: ENDBRANCH  32  33
DOCKED: ENDBRANCH   6  32
DOCKED: BRANCH  22  38
DOCKED: ATOM     38  C   UNL d   1      -4.265 -19.443   0.571 -0.00 +0.03    +0.052 C 
DOCKED: BRANCH  38  39
DOCKED: ATOM     39  C   UNL d   1      -4.012 -19.391   2.076 -0.01 +0.07    +0.115 C 
DOCKED: BRANCH  39  40
DOCKED: ATOM     40  C   UNL d   1      -4.639 -18.181   2.724 -0.04 +0.15    +0.139 C 
DOCKED: ATOM     41  O   UNL d   1      -5.835 -18.174   2.965 -0.05 -0.64    -0.650 OA
DOCKED: BRANCH  40  42
DOCKED: ATOM     42  O   UNL d   1      -3.890 -17.123   3.091 -0.15 -1.29    -0.776 OA
DOCKED: ATOM     43  H   UNL d   1      -2.932 -17.122   2.985 +0.00 +0.20    +0.167 HD
DOCKED: ENDBRANCH  40  42
DOCKED: ENDBRANCH  39  40
DOCKED: ENDBRANCH  38  39
DOCKED: ENDBRANCH  22  38
DOCKED: BRANCH  12  44
DOCKED: ATOM     44  C   UNL d   1      -6.178  -8.956  -3.317 -0.28 +0.00    +0.004 C 
DOCKED: ATOM     45  C   UNL d   1      -7.451  -8.564  -3.317 -0.46 +0.00    +0.012 C 
DOCKED: ENDBRANCH  12  44
DOCKED: BRANCH  17  46
DOCKED: ATOM     46  C   UNL d   1     -10.784 -15.448  -1.402 -0.12 +0.00    +0.004 C 
DOCKED: ATOM     47  C   UNL d   1     -11.419 -15.697  -0.250 -0.13 +0.00    +0.012 C 
DOCKED: ENDBRANCH  17  46
DOCKED: TORSDOF 10
DOCKED: TER
DOCKED: ENDMDL
________________________________________________________________________________


	BEGINNING GENETIC ALGORITHM DOCKING 48 of 100
Run: 48 Seed: 128071578 636979567 [ Run 48 of 100 GA/GALS ]
Beginning LAMARCKIAN GENETIC ALGORITHM (LGA), with a maximum of 25000000 energy evaluations.

Final-Value: -11.447


	FINAL GENETIC ALGORITHM DOCKED STATE
	_______________________________________________


Detailed state:  trans -8.562 -17.640 -4.000 quatxyzw -0.089475 -0.920040 0.059746 0.376765 center 8.287 34.468 -0.670 ntor 10 100.1568 73.8298 65.4390 -131.2833 143.3674 -34.2963 -60.0570 77.6209 -149.5326 -169.8834
State:	 -8.562 -17.640  -4.000  -0.097 -0.993  0.064 135.733    100.16   73.83   65.44 -131.28  143.37  -34.30  -60.06   77.62 -149.53 -169.88

DOCKED: MODEL       48
DOCKED: USER    Run = 48
DOCKED: USER    DPF = D:/Protein_go_brrr/autodock/final/AncA/heme_O2/dock.dpf
DOCKED: USER  
DOCKED: USER    Estimated Free Energy of Binding    =   -6.08 kcal/mol  [=(1)+(2)+(3)-(4)]
DOCKED: USER    Estimated Inhibition Constant, Ki   =   35.23 uM (micromolar)  [Temperature = 298.15 K]
DOCKED: USER    
DOCKED: USER    (1) Final Intermolecular Energy     =   -9.06 kcal/mol
DOCKED: USER        vdW + Hbond + desolv Energy     =   -5.07 kcal/mol
DOCKED: USER        Electrostatic Energy            =   -3.99 kcal/mol
DOCKED: USER    (2) Final Total Internal Energy     =   -2.39 kcal/mol
DOCKED: USER    (3) Torsional Free Energy           =   +2.98 kcal/mol
DOCKED: USER    (4) Unbound System's Energy  [=(2)] =   -2.39 kcal/mol
DOCKED: USER    
DOCKED: USER    
DOCKED: USER    NEWDPF move heme_O2_opt.pdbqt
DOCKED: USER    NEWDPF about 8.287000 34.468000 -0.670000
DOCKED: USER    NEWDPF tran0 -8.562452 -17.639762 -4.000191
DOCKED: USER    NEWDPF quaternion0 -0.089475 -0.920040 0.059746 0.376765
DOCKED: USER    NEWDPF axisangle0 -0.096593 -0.993232 0.064499 135.733156
DOCKED: USER    NEWDPF quat0 -0.096593 -0.993232 0.064499 135.733156
DOCKED: USER    NEWDPF dihe0 100.16 73.83 65.44 -131.28 143.37 -34.30 -60.06 77.62 -149.53 -169.88 
DOCKED: USER  keepresnum = 1 
DOCKED: USER  
DOCKED: REMARK  10 active torsions:
DOCKED: REMARK  status: ('A' for Active; 'I' for Inactive)
DOCKED: REMARK    1  A    between atoms: C_6  and  C_10 
DOCKED: REMARK    2  A    between atoms: C_10  and  C_11 
DOCKED: REMARK    3  A    between atoms: C_11  and  C_12 
DOCKED: REMARK    4  A    between atoms: C_12  and  O_14 
DOCKED: REMARK    5  A    between atoms: C_17  and  C_20 
DOCKED: REMARK    6  A    between atoms: C_24  and  C_27 
DOCKED: REMARK    7  A    between atoms: C_31  and  C_34 
DOCKED: REMARK    8  A    between atoms: C_34  and  C_35 
DOCKED: REMARK    9  A    between atoms: C_35  and  C_36 
DOCKED: REMARK   10  A    between atoms: C_36  and  O_38 
DOCKED: USER                              x       y       z     vdW  Elec       q    Type
DOCKED: USER                           _______ _______ _______ _____ _____    ______ ____
DOCKED: ROOT
DOCKED: ATOM      1  C   UNL d   1      -7.673 -17.134  -2.142 -0.06 +0.06    +0.064 A 
DOCKED: ATOM      2  C   UNL d   1      -6.537 -20.314  -5.482 -0.07 +0.06    +0.064 A 
DOCKED: ATOM      3  C   UNL d   1     -10.344 -19.038  -8.123 -0.15 +0.03    +0.064 C 
DOCKED: ATOM      4  C   UNL d   1     -11.253 -15.433  -4.923 -0.07 +0.02    +0.064 A 
DOCKED: ATOM      5  C   UNL d   1      -7.053 -18.102  -2.836 -0.06 +0.06    +0.066 A 
DOCKED: ATOM      6  C   UNL d   1      -5.903 -18.765  -2.397 -0.04 -0.02    -0.021 A 
DOCKED: ATOM      7  C   UNL d   1      -5.549 -19.656  -3.383 -0.03 -0.02    -0.025 A 
DOCKED: ATOM      8  C   UNL d   1      -6.519 -19.546  -4.375 -0.05 +0.05    +0.066 A 
DOCKED: ATOM      9  C   UNL d   1      -4.316 -20.533  -3.354 -0.01 +0.03    +0.051 C 
DOCKED: ATOM     10  C   UNL d   1      -7.541 -20.261  -6.546 -0.10 +0.07    +0.066 A 
DOCKED: ATOM     11  C   UNL d   1      -7.605 -21.190  -7.590 -0.09 -0.02    -0.021 A 
DOCKED: ATOM     12  C   UNL d   1      -8.707 -20.850  -8.352 -0.11 +0.00    +0.000 A 
DOCKED: ATOM     13  C   UNL d   1      -9.258 -19.699  -7.723 -0.12 +0.05    +0.070 A 
DOCKED: ATOM     14  C   UNL d   1      -6.671 -22.370  -7.834 -0.02 +0.06    +0.052 C 
DOCKED: ATOM     15  C   UNL d   1     -10.912 -17.849  -7.535 -0.17 +0.03    +0.066 A 
DOCKED: ATOM     16  C   UNL d   1     -11.953 -17.110  -8.095 -0.17 -0.01    -0.021 A 
DOCKED: ATOM     17  C   UNL d   1     -12.229 -16.076  -7.201 -0.14 +0.00    +0.000 A 
DOCKED: ATOM     18  C   UNL d   1     -11.325 -16.266  -6.146 -0.17 +0.02    +0.070 A 
DOCKED: ATOM     19  C   UNL d   1     -12.547 -17.420  -9.446 -0.16 +0.01    +0.052 C 
DOCKED: ATOM     20  C   UNL d   1     -10.371 -15.561  -3.913 -0.04 +0.03    +0.066 A 
DOCKED: ATOM     21  C   UNL d   1     -10.363 -14.756  -2.776 -0.10 -0.01    -0.025 A 
DOCKED: ATOM     22  C   UNL d   1      -9.367 -15.244  -1.961 -0.09 -0.01    -0.021 A 
DOCKED: ATOM     23  C   UNL d   1      -8.789 -16.321  -2.640 -0.08 +0.05    +0.066 A 
DOCKED: ATOM     24  C   UNL d   1     -11.259 -13.580  -2.486 -0.20 +0.02    +0.051 C 
DOCKED: ATOM     25  N   UNL d   1      -7.408 -18.543  -4.067 -0.04 -0.20    -0.248 N 
DOCKED: ATOM     26  N   UNL d   1      -8.539 -19.345  -6.627 -0.09 -0.20    -0.248 N 
DOCKED: ATOM     27  N   UNL d   1     -10.484 -17.301  -6.401 -0.11 -0.11    -0.248 N 
DOCKED: ATOM     28  N   UNL d   1      -9.373 -16.482  -3.846 -0.06 -0.16    -0.248 N 
DOCKED: ATOM     29 FE   UNL d   1      -8.961 -17.901  -5.228 -0.03 +0.00    +0.000 Fe
DOCKED: ATOM     30  O   UNL d   1      -7.559 -17.552  -5.806 -0.26 +0.00    +0.000 OA
DOCKED: ATOM     31  O   UNL d   1      -8.728 -16.502  -5.906 -0.32 +0.00    +0.000 OA
DOCKED: ENDROOT
DOCKED: BRANCH   6  32
DOCKED: ATOM     32  C   UNL d   1      -5.088 -18.480  -1.162 -0.03 +0.05    +0.052 C 
DOCKED: BRANCH  32  33
DOCKED: ATOM     33  C   UNL d   1      -4.404 -17.117  -1.206 -0.07 +0.18    +0.115 C 
DOCKED: BRANCH  33  34
DOCKED: ATOM     34  C   UNL d   1      -4.876 -16.202  -0.103 -0.05 +0.26    +0.139 C 
DOCKED: ATOM     35  O   UNL d   1      -5.811 -16.541   0.604 -0.22 -1.10    -0.650 OA
DOCKED: BRANCH  34  36
DOCKED: ATOM     36  O   UNL d   1      -4.303 -14.998   0.104 -0.32 -1.77    -0.776 OA
DOCKED: ATOM     37  H   UNL d   1      -4.706 -14.180  -0.209 +0.03 +0.37    +0.167 HD
DOCKED: ENDBRANCH  34  36
DOCKED: ENDBRANCH  33  34
DOCKED: ENDBRANCH  32  33
DOCKED: ENDBRANCH   6  32
DOCKED: BRANCH  22  38
DOCKED: ATOM     38  C   UNL d   1      -8.956 -14.662  -0.633 -0.11 +0.04    +0.052 C 
DOCKED: BRANCH  38  39
DOCKED: ATOM     39  C   UNL d   1      -8.298 -13.291  -0.776 -0.18 +0.10    +0.115 C 
DOCKED: BRANCH  39  40
DOCKED: ATOM     40  C   UNL d   1      -6.799 -13.352  -0.622 -0.21 +0.19    +0.139 C 
DOCKED: ATOM     41  O   UNL d   1      -6.082 -13.161  -1.591 -0.02 -1.14    -0.650 OA
DOCKED: BRANCH  40  42
DOCKED: ATOM     42  O   UNL d   1      -6.231 -13.563   0.581 -0.05 -1.54    -0.776 OA
DOCKED: ATOM     43  H   UNL d   1      -6.210 -14.441   0.982 +0.04 +0.47    +0.167 HD
DOCKED: ENDBRANCH  40  42
DOCKED: ENDBRANCH  39  40
DOCKED: ENDBRANCH  38  39
DOCKED: ENDBRANCH  22  38
DOCKED: BRANCH  12  44
DOCKED: ATOM     44  C   UNL d   1      -9.110 -21.640  -9.580 -0.09 +0.00    +0.004 C 
DOCKED: ATOM     45  C   UNL d   1      -9.193 -21.211 -10.839 -0.10 +0.01    +0.012 C 
DOCKED: ENDBRANCH  12  44
DOCKED: BRANCH  17  46
DOCKED: ATOM     46  C   UNL d   1     -13.202 -14.930  -7.284 -0.19 +0.00    +0.004 C 
DOCKED: ATOM     47  C   UNL d   1     -13.008 -13.652  -6.936 -0.29 +0.00    +0.012 C 
DOCKED: ENDBRANCH  17  46
DOCKED: TORSDOF 10
DOCKED: TER
DOCKED: ENDMDL
________________________________________________________________________________


	BEGINNING GENETIC ALGORITHM DOCKING 49 of 100
Run: 49 Seed: 750752671 1839473050 [ Run 49 of 100 GA/GALS ]
Beginning LAMARCKIAN GENETIC ALGORITHM (LGA), with a maximum of 25000000 energy evaluations.

Final-Value: -12.652


	FINAL GENETIC ALGORITHM DOCKED STATE
	_______________________________________________


Detailed state:  trans -0.193 -15.694 -2.488 quatxyzw -0.431991 -0.023110 0.397009 -0.809465 center 8.287 34.468 -0.670 ntor 10 -25.1381 103.2810 -52.9021 117.8417 33.6542 98.6107 -112.7782 52.5535 158.5128 -174.1431
State:	 -0.193 -15.694  -2.488  -0.736 -0.039  0.676 -71.913    -25.14  103.28  -52.90  117.84   33.65   98.61 -112.78   52.55  158.51 -174.14

DOCKED: MODEL       49
DOCKED: USER    Run = 49
DOCKED: USER    DPF = D:/Protein_go_brrr/autodock/final/AncA/heme_O2/dock.dpf
DOCKED: USER  
DOCKED: USER    Estimated Free Energy of Binding    =   -8.09 kcal/mol  [=(1)+(2)+(3)-(4)]
DOCKED: USER    Estimated Inhibition Constant, Ki   =    1.18 uM (micromolar)  [Temperature = 298.15 K]
DOCKED: USER    
DOCKED: USER    (1) Final Intermolecular Energy     =  -11.07 kcal/mol
DOCKED: USER        vdW + Hbond + desolv Energy     =   -7.07 kcal/mol
DOCKED: USER        Electrostatic Energy            =   -4.00 kcal/mol
DOCKED: USER    (2) Final Total Internal Energy     =   -1.58 kcal/mol
DOCKED: USER    (3) Torsional Free Energy           =   +2.98 kcal/mol
DOCKED: USER    (4) Unbound System's Energy  [=(2)] =   -1.58 kcal/mol
DOCKED: USER    
DOCKED: USER    
DOCKED: USER    NEWDPF move heme_O2_opt.pdbqt
DOCKED: USER    NEWDPF about 8.287000 34.468000 -0.670000
DOCKED: USER    NEWDPF tran0 -0.193380 -15.693594 -2.488199
DOCKED: USER    NEWDPF quaternion0 -0.431991 -0.023110 0.397009 -0.809465
DOCKED: USER    NEWDPF axisangle0 -0.735720 -0.039358 0.676142 -71.912579
DOCKED: USER    NEWDPF quat0 -0.735720 -0.039358 0.676142 -71.912579
DOCKED: USER    NEWDPF dihe0 -25.14 103.28 -52.90 117.84 33.65 98.61 -112.78 52.55 158.51 -174.14 
DOCKED: USER  keepresnum = 1 
DOCKED: USER  
DOCKED: REMARK  10 active torsions:
DOCKED: REMARK  status: ('A' for Active; 'I' for Inactive)
DOCKED: REMARK    1  A    between atoms: C_6  and  C_10 
DOCKED: REMARK    2  A    between atoms: C_10  and  C_11 
DOCKED: REMARK    3  A    between atoms: C_11  and  C_12 
DOCKED: REMARK    4  A    between atoms: C_12  and  O_14 
DOCKED: REMARK    5  A    between atoms: C_17  and  C_20 
DOCKED: REMARK    6  A    between atoms: C_24  and  C_27 
DOCKED: REMARK    7  A    between atoms: C_31  and  C_34 
DOCKED: REMARK    8  A    between atoms: C_34  and  C_35 
DOCKED: REMARK    9  A    between atoms: C_35  and  C_36 
DOCKED: REMARK   10  A    between atoms: C_36  and  O_38 
DOCKED: USER                              x       y       z     vdW  Elec       q    Type
DOCKED: USER                           _______ _______ _______ _____ _____    ______ ____
DOCKED: ROOT
DOCKED: ATOM      1  C   UNL d   1      -1.542 -17.290  -2.849 -0.06 +0.07    +0.064 A 
DOCKED: ATOM      2  C   UNL d   1      -0.451 -14.836   1.068 -0.11 +0.05    +0.064 A 
DOCKED: ATOM      3  C   UNL d   1       2.759 -12.211  -1.359 -0.21 +0.02    +0.064 C 
DOCKED: ATOM      4  C   UNL d   1       1.302 -14.404  -5.498 -0.28 +0.03    +0.064 A 
DOCKED: ATOM      5  C   UNL d   1      -1.509 -16.836  -1.586 -0.05 +0.07    +0.066 A 
DOCKED: ATOM      6  C   UNL d   1      -2.284 -17.357  -0.546 -0.05 -0.02    -0.021 A 
DOCKED: ATOM      7  C   UNL d   1      -2.001 -16.618   0.579 -0.08 -0.02    -0.025 A 
DOCKED: ATOM      8  C   UNL d   1      -1.025 -15.698   0.207 -0.09 +0.06    +0.066 A 
DOCKED: ATOM      9  C   UNL d   1      -2.675 -16.794   1.922 +0.07 +0.06    +0.051 C 
DOCKED: ATOM     10  C   UNL d   1       0.593 -13.865   0.741 -0.13 +0.04    +0.066 A 
DOCKED: ATOM     11  C   UNL d   1       1.269 -13.108   1.705 -0.20 -0.01    -0.021 A 
DOCKED: ATOM     12  C   UNL d   1       2.212 -12.358   1.026 -0.25 +0.00    +0.000 A 
DOCKED: ATOM     13  C   UNL d   1       2.045 -12.697  -0.345 -0.15 +0.02    +0.070 A 
DOCKED: ATOM     14  C   UNL d   1       1.044 -13.121   3.213 -0.25 +0.02    +0.052 C 
DOCKED: ATOM     15  C   UNL d   1       2.599 -12.502  -2.763 -0.16 +0.02    +0.066 A 
DOCKED: ATOM     16  C   UNL d   1       3.267 -11.837  -3.791 -0.27 -0.01    -0.021 A 
DOCKED: ATOM     17  C   UNL d   1       2.867 -12.445  -4.980 -0.30 +0.00    +0.000 A 
DOCKED: ATOM     18  C   UNL d   1       1.974 -13.450  -4.584 -0.22 +0.03    +0.070 A 
DOCKED: ATOM     19  C   UNL d   1       4.176 -10.657  -3.552 -0.38 +0.01    +0.052 C 
DOCKED: ATOM     20  C   UNL d   1       0.407 -15.351  -5.157 -0.20 +0.04    +0.066 A 
DOCKED: ATOM     21  C   UNL d   1      -0.179 -16.233  -6.061 -0.23 -0.02    -0.025 A 
DOCKED: ATOM     22  C   UNL d   1      -0.972 -17.080  -5.320 -0.14 -0.02    -0.021 A 
DOCKED: ATOM     23  C   UNL d   1      -0.854 -16.671  -3.988 -0.10 +0.06    +0.066 A 
DOCKED: ATOM     24  C   UNL d   1       0.005 -16.263  -7.556 -0.22 +0.03    +0.051 C 
DOCKED: ATOM     25  N   UNL d   1      -0.770 -15.790  -1.142 -0.03 -0.21    -0.248 N 
DOCKED: ATOM     26  N   UNL d   1       1.055 -13.611  -0.510 -0.05 -0.12    -0.248 N 
DOCKED: ATOM     27  N   UNL d   1       1.765 -13.421  -3.243 -0.07 -0.10    -0.248 N 
DOCKED: ATOM     28  N   UNL d   1      -0.050 -15.592  -3.899 -0.06 -0.19    -0.248 N 
DOCKED: ATOM     29 FE   UNL d   1       0.500 -14.607  -2.218 -0.02 +0.00    +0.000 Fe
DOCKED: ATOM     30  O   UNL d   1      -0.772 -13.866  -1.713 -0.17 +0.00    +0.000 OA
DOCKED: ATOM     31  O   UNL d   1      -0.219 -13.571  -3.158 -0.21 +0.00    +0.000 OA
DOCKED: ENDROOT
DOCKED: BRANCH   6  32
DOCKED: ATOM     32  C   UNL d   1      -3.352 -18.416  -0.632 -0.03 +0.04    +0.052 C 
DOCKED: BRANCH  32  33
DOCKED: ATOM     33  C   UNL d   1      -4.730 -17.902  -0.227 -0.05 +0.12    +0.115 C 
DOCKED: BRANCH  33  34
DOCKED: ATOM     34  C   UNL d   1      -5.251 -16.846  -1.170 -0.03 +0.23    +0.139 C 
DOCKED: ATOM     35  O   UNL d   1      -5.461 -15.717  -0.755 -0.34 -1.38    -0.650 OA
DOCKED: BRANCH  34  36
DOCKED: ATOM     36  O   UNL d   1      -5.518 -17.127  -2.462 -0.03 -1.48    -0.776 OA
DOCKED: ATOM     37  H   UNL d   1      -5.087 -17.853  -2.927 +0.01 +0.24    +0.167 HD
DOCKED: ENDBRANCH  34  36
DOCKED: ENDBRANCH  33  34
DOCKED: ENDBRANCH  32  33
DOCKED: ENDBRANCH   6  32
DOCKED: BRANCH  22  38
DOCKED: ATOM     38  C   UNL d   1      -1.842 -18.179  -5.875 -0.13 +0.05    +0.052 C 
DOCKED: BRANCH  38  39
DOCKED: ATOM     39  C   UNL d   1      -3.072 -17.636  -6.599 -0.19 +0.15    +0.115 C 
DOCKED: BRANCH  39  40
DOCKED: ATOM     40  C   UNL d   1      -4.352 -18.271  -6.115 -0.20 +0.20    +0.139 C 
DOCKED: ATOM     41  O   UNL d   1      -5.028 -18.936  -6.884 -0.01 -1.29    -0.650 OA
DOCKED: BRANCH  40  42
DOCKED: ATOM     42  O   UNL d   1      -4.741 -18.162  -4.830 +0.00 -1.06    -0.776 OA
DOCKED: ATOM     43  H   UNL d   1      -5.467 -17.582  -4.570 +0.03 +0.26    +0.167 HD
DOCKED: ENDBRANCH  40  42
DOCKED: ENDBRANCH  39  40
DOCKED: ENDBRANCH  38  39
DOCKED: ENDBRANCH  22  38
DOCKED: BRANCH  12  44
DOCKED: ATOM     44  C   UNL d   1       3.152 -11.410   1.742 -0.35 +0.00    +0.004 C 
DOCKED: ATOM     45  C   UNL d   1       4.484 -11.411   1.725 -0.22 +0.00    +0.012 C 
DOCKED: ENDBRANCH  12  44
DOCKED: BRANCH  17  46
DOCKED: ATOM     46  C   UNL d   1       3.202 -12.127  -6.414 -0.34 +0.00    +0.004 C 
DOCKED: ATOM     47  C   UNL d   1       3.940 -12.845  -7.270 -0.52 +0.00    +0.012 C 
DOCKED: ENDBRANCH  17  46
DOCKED: TORSDOF 10
DOCKED: TER
DOCKED: ENDMDL
________________________________________________________________________________


	BEGINNING GENETIC ALGORITHM DOCKING 50 of 100
Run: 50 Seed: 1971984836 1658224300 [ Run 50 of 100 GA/GALS ]
Beginning LAMARCKIAN GENETIC ALGORITHM (LGA), with a maximum of 25000000 energy evaluations.

Final-Value: -11.405


	FINAL GENETIC ALGORITHM DOCKED STATE
	_______________________________________________


Detailed state:  trans -0.513 -16.346 -0.136 quatxyzw 0.453471 -0.028129 -0.458798 0.763595 center 8.287 34.468 -0.670 ntor 10 -13.5272 8.2008 -86.4858 58.2843 77.8739 -94.9849 138.7953 -138.3937 -150.2459 141.4767
State:	 -0.513 -16.346  -0.136   0.702 -0.044 -0.711 80.436    -13.53    8.20  -86.49   58.28   77.87  -94.98  138.80 -138.39 -150.25  141.48

DOCKED: MODEL       50
DOCKED: USER    Run = 50
DOCKED: USER    DPF = D:/Protein_go_brrr/autodock/final/AncA/heme_O2/dock.dpf
DOCKED: USER  
DOCKED: USER    Estimated Free Energy of Binding    =   -6.48 kcal/mol  [=(1)+(2)+(3)-(4)]
DOCKED: USER    Estimated Inhibition Constant, Ki   =   17.93 uM (micromolar)  [Temperature = 298.15 K]
DOCKED: USER    
DOCKED: USER    (1) Final Intermolecular Energy     =   -9.46 kcal/mol
DOCKED: USER        vdW + Hbond + desolv Energy     =   -4.94 kcal/mol
DOCKED: USER        Electrostatic Energy            =   -4.52 kcal/mol
DOCKED: USER    (2) Final Total Internal Energy     =   -1.95 kcal/mol
DOCKED: USER    (3) Torsional Free Energy           =   +2.98 kcal/mol
DOCKED: USER    (4) Unbound System's Energy  [=(2)] =   -1.95 kcal/mol
DOCKED: USER    
DOCKED: USER    
DOCKED: USER    NEWDPF move heme_O2_opt.pdbqt
DOCKED: USER    NEWDPF about 8.287000 34.468000 -0.670000
DOCKED: USER    NEWDPF tran0 -0.512809 -16.345689 -0.135900
DOCKED: USER    NEWDPF quaternion0 0.453471 -0.028129 -0.458798 0.763595
DOCKED: USER    NEWDPF axisangle0 0.702299 -0.043564 -0.710548 80.435621
DOCKED: USER    NEWDPF quat0 0.702299 -0.043564 -0.710548 80.435621
DOCKED: USER    NEWDPF dihe0 -13.53 8.20 -86.49 58.28 77.87 -94.98 138.80 -138.39 -150.25 141.48 
DOCKED: USER  keepresnum = 1 
DOCKED: USER  
DOCKED: REMARK  10 active torsions:
DOCKED: REMARK  status: ('A' for Active; 'I' for Inactive)
DOCKED: REMARK    1  A    between atoms: C_6  and  C_10 
DOCKED: REMARK    2  A    between atoms: C_10  and  C_11 
DOCKED: REMARK    3  A    between atoms: C_11  and  C_12 
DOCKED: REMARK    4  A    between atoms: C_12  and  O_14 
DOCKED: REMARK    5  A    between atoms: C_17  and  C_20 
DOCKED: REMARK    6  A    between atoms: C_24  and  C_27 
DOCKED: REMARK    7  A    between atoms: C_31  and  C_34 
DOCKED: REMARK    8  A    between atoms: C_34  and  C_35 
DOCKED: REMARK    9  A    between atoms: C_35  and  C_36 
DOCKED: REMARK   10  A    between atoms: C_36  and  O_38 
DOCKED: USER                              x       y       z     vdW  Elec       q    Type
DOCKED: USER                           _______ _______ _______ _____ _____    ______ ____
DOCKED: ROOT
DOCKED: ATOM      1  C   UNL d   1      -1.731 -18.082  -0.149 -0.01 +0.05    +0.064 A 
DOCKED: ATOM      2  C   UNL d   1      -0.456 -15.083   3.307 -0.11 +0.05    +0.064 A 
DOCKED: ATOM      3  C   UNL d   1       2.193 -12.515   0.227 -0.22 +0.02    +0.064 C 
DOCKED: ATOM      4  C   UNL d   1       0.505 -15.314  -3.431 -0.08 +0.04    +0.064 A 
DOCKED: ATOM      5  C   UNL d   1      -1.602 -17.475   1.042 -0.04 +0.05    +0.066 A 
DOCKED: ATOM      6  C   UNL d   1      -2.202 -17.927   2.221 -0.05 -0.02    -0.021 A 
DOCKED: ATOM      7  C   UNL d   1      -1.869 -17.035   3.213 -0.06 -0.02    -0.025 A 
DOCKED: ATOM      8  C   UNL d   1      -1.035 -16.089   2.624 -0.05 +0.05    +0.066 A 
DOCKED: ATOM      9  C   UNL d   1      -2.369 -17.101   4.640 -0.08 +0.04    +0.051 C 
DOCKED: ATOM     10  C   UNL d   1       0.446 -14.075   2.748 -0.11 +0.04    +0.066 A 
DOCKED: ATOM     11  C   UNL d   1       1.148 -13.152   3.531 -0.23 -0.01    -0.021 A 
DOCKED: ATOM     12  C   UNL d   1       1.931 -12.414   2.663 -0.28 +0.00    +0.000 A 
DOCKED: ATOM     13  C   UNL d   1       1.647 -12.932   1.369 -0.18 +0.03    +0.070 A 
DOCKED: ATOM     14  C   UNL d   1       1.094 -12.998   5.047 -0.29 +0.03    +0.052 C 
DOCKED: ATOM     15  C   UNL d   1       1.906 -12.989  -1.106 -0.11 +0.02    +0.066 A 
DOCKED: ATOM     16  C   UNL d   1       2.388 -12.401  -2.275 -0.18 -0.01    -0.021 A 
DOCKED: ATOM     17  C   UNL d   1       1.919 -13.182  -3.331 -0.18 +0.00    +0.000 A 
DOCKED: ATOM     18  C   UNL d   1       1.178 -14.203  -2.719 -0.08 +0.04    +0.070 A 
DOCKED: ATOM     19  C   UNL d   1       3.198 -11.130  -2.282 -0.16 +0.01    +0.052 C 
DOCKED: ATOM     20  C   UNL d   1      -0.249 -16.284  -2.879 -0.06 +0.05    +0.066 A 
DOCKED: ATOM     21  C   UNL d   1      -0.843 -17.316  -3.600 -0.06 -0.02    -0.025 A 
DOCKED: ATOM     22  C   UNL d   1      -1.462 -18.130  -2.678 -0.03 -0.02    -0.021 A 
DOCKED: ATOM     23  C   UNL d   1      -1.237 -17.552  -1.425 -0.02 +0.05    +0.066 A 
DOCKED: ATOM     24  C   UNL d   1      -0.825 -17.514  -5.094 -0.11 +0.04    +0.051 C 
DOCKED: ATOM     25  N   UNL d   1      -0.924 -16.324   1.273 -0.05 -0.19    -0.248 N 
DOCKED: ATOM     26  N   UNL d   1       0.739 -13.939   1.430 -0.09 -0.13    -0.248 N 
DOCKED: ATOM     27  N   UNL d   1       1.118 -14.027  -1.374 -0.03 -0.12    -0.248 N 
DOCKED: ATOM     28  N   UNL d   1      -0.538 -16.406  -1.556 -0.02 -0.19    -0.248 N 
DOCKED: ATOM     29 FE   UNL d   1       0.097 -15.180  -0.076 -0.02 +0.00    +0.000 Fe
DOCKED: ATOM     30  O   UNL d   1      -1.177 -14.491   0.495 -0.19 +0.00    +0.000 OA
DOCKED: ATOM     31  O   UNL d   1      -0.820 -14.331  -1.031 -0.14 +0.00    +0.000 OA
DOCKED: ENDROOT
DOCKED: BRANCH   6  32
DOCKED: ATOM     32  C   UNL d   1      -3.164 -19.075   2.385 -0.02 +0.03    +0.052 C 
DOCKED: BRANCH  32  33
DOCKED: ATOM     33  C   UNL d   1      -4.503 -18.829   1.696 -0.02 +0.09    +0.115 C 
DOCKED: BRANCH  33  34
DOCKED: ATOM     34  C   UNL d   1      -5.020 -17.430   1.926 +0.09 +0.21    +0.139 C 
DOCKED: ATOM     35  O   UNL d   1      -5.464 -17.123   3.021 -0.22 -1.26    -0.650 OA
DOCKED: BRANCH  34  36
DOCKED: ATOM     36  O   UNL d   1      -5.029 -16.512   0.937 -0.20 -1.53    -0.776 OA
DOCKED: ATOM     37  H   UNL d   1      -4.545 -16.643   0.114 +0.01 +0.27    +0.167 HD
DOCKED: ENDBRANCH  34  36
DOCKED: ENDBRANCH  33  34
DOCKED: ENDBRANCH  32  33
DOCKED: ENDBRANCH   6  32
DOCKED: BRANCH  22  38
DOCKED: ATOM     38  C   UNL d   1      -2.277 -19.357  -2.996 -0.01 +0.04    +0.052 C 
DOCKED: BRANCH  38  39
DOCKED: ATOM     39  C   UNL d   1      -3.739 -19.209  -2.578 -0.02 +0.10    +0.115 C 
DOCKED: BRANCH  39  40
DOCKED: ATOM     40  C   UNL d   1      -4.286 -17.835  -2.872 -0.04 +0.21    +0.139 C 
DOCKED: ATOM     41  O   UNL d   1      -4.132 -17.345  -3.979 +0.12 -1.38    -0.650 OA
DOCKED: BRANCH  40  42
DOCKED: ATOM     42  O   UNL d   1      -4.990 -17.154  -1.947 -0.04 -1.40    -0.776 OA
DOCKED: ATOM     43  H   UNL d   1      -5.034 -17.448  -1.029 +0.01 +0.22    +0.167 HD
DOCKED: ENDBRANCH  40  42
DOCKED: ENDBRANCH  39  40
DOCKED: ENDBRANCH  38  39
DOCKED: ENDBRANCH  22  38
DOCKED: BRANCH  12  44
DOCKED: ATOM     44  C   UNL d   1       2.848 -11.310   3.148 -0.32 +0.00    +0.004 C 
DOCKED: ATOM     45  C   UNL d   1       4.119 -11.413   3.535 -0.23 +0.00    +0.012 C 
DOCKED: ENDBRANCH  12  44
DOCKED: BRANCH  17  46
DOCKED: ATOM     46  C   UNL d   1       2.060 -13.016  -4.821 -0.31 +0.00    +0.004 C 
DOCKED: ATOM     47  C   UNL d   1       3.178 -12.820  -5.531 -0.40 +0.00    +0.012 C 
DOCKED: ENDBRANCH  17  46
DOCKED: TORSDOF 10
DOCKED: TER
DOCKED: ENDMDL
________________________________________________________________________________


	BEGINNING GENETIC ALGORITHM DOCKING 51 of 100
Run: 51 Seed: 1962735870 1049194217 [ Run 51 of 100 GA/GALS ]
Beginning LAMARCKIAN GENETIC ALGORITHM (LGA), with a maximum of 25000000 energy evaluations.

Final-Value: -12.625


	FINAL GENETIC ALGORITHM DOCKED STATE
	_______________________________________________


Detailed state:  trans -0.046 -15.613 -2.186 quatxyzw -0.431286 -0.010128 0.388491 -0.814226 center 8.287 34.468 -0.670 ntor 10 -49.7768 -58.3542 -49.4735 113.0468 -73.0553 61.5598 120.2374 -59.6597 -149.5193 -178.5625
State:	 -0.046 -15.613  -2.186  -0.743 -0.017  0.669 -70.978    -49.78  -58.35  -49.47  113.05  -73.06   61.56  120.24  -59.66 -149.52 -178.56

DOCKED: MODEL       51
DOCKED: USER    Run = 51
DOCKED: USER    DPF = D:/Protein_go_brrr/autodock/final/AncA/heme_O2/dock.dpf
DOCKED: USER  
DOCKED: USER    Estimated Free Energy of Binding    =   -8.84 kcal/mol  [=(1)+(2)+(3)-(4)]
DOCKED: USER    Estimated Inhibition Constant, Ki   =  333.72 nM (nanomolar)  [Temperature = 298.15 K]
DOCKED: USER    
DOCKED: USER    (1) Final Intermolecular Energy     =  -11.82 kcal/mol
DOCKED: USER        vdW + Hbond + desolv Energy     =   -7.50 kcal/mol
DOCKED: USER        Electrostatic Energy            =   -4.32 kcal/mol
DOCKED: USER    (2) Final Total Internal Energy     =   -0.81 kcal/mol
DOCKED: USER    (3) Torsional Free Energy           =   +2.98 kcal/mol
DOCKED: USER    (4) Unbound System's Energy  [=(2)] =   -0.81 kcal/mol
DOCKED: USER    
DOCKED: USER    
DOCKED: USER    NEWDPF move heme_O2_opt.pdbqt
DOCKED: USER    NEWDPF about 8.287000 34.468000 -0.670000
DOCKED: USER    NEWDPF tran0 -0.045981 -15.613440 -2.186417
DOCKED: USER    NEWDPF quaternion0 -0.431286 -0.010128 0.388491 -0.814226
DOCKED: USER    NEWDPF axisangle0 -0.742895 -0.017446 0.669180 -70.978161
DOCKED: USER    NEWDPF quat0 -0.742895 -0.017446 0.669180 -70.978161
DOCKED: USER    NEWDPF dihe0 -49.78 -58.35 -49.47 113.05 -73.06 61.56 120.24 -59.66 -149.52 -178.56 
DOCKED: USER  keepresnum = 1 
DOCKED: USER  
DOCKED: REMARK  10 active torsions:
DOCKED: REMARK  status: ('A' for Active; 'I' for Inactive)
DOCKED: REMARK    1  A    between atoms: C_6  and  C_10 
DOCKED: REMARK    2  A    between atoms: C_10  and  C_11 
DOCKED: REMARK    3  A    between atoms: C_11  and  C_12 
DOCKED: REMARK    4  A    between atoms: C_12  and  O_14 
DOCKED: REMARK    5  A    between atoms: C_17  and  C_20 
DOCKED: REMARK    6  A    between atoms: C_24  and  C_27 
DOCKED: REMARK    7  A    between atoms: C_31  and  C_34 
DOCKED: REMARK    8  A    between atoms: C_34  and  C_35 
DOCKED: REMARK    9  A    between atoms: C_35  and  C_36 
DOCKED: REMARK   10  A    between atoms: C_36  and  O_38 
DOCKED: USER                              x       y       z     vdW  Elec       q    Type
DOCKED: USER                           _______ _______ _______ _____ _____    ______ ____
DOCKED: ROOT
DOCKED: ATOM      1  C   UNL d   1      -1.445 -17.172  -2.520 -0.06 +0.06    +0.064 A 
DOCKED: ATOM      2  C   UNL d   1      -0.227 -14.733   1.369 -0.10 +0.05    +0.064 A 
DOCKED: ATOM      3  C   UNL d   1       3.022 -12.212  -1.117 -0.21 +0.02    +0.064 C 
DOCKED: ATOM      4  C   UNL d   1       1.442 -14.381  -5.224 -0.25 +0.03    +0.064 A 
DOCKED: ATOM      5  C   UNL d   1      -1.381 -16.713  -1.260 -0.05 +0.06    +0.066 A 
DOCKED: ATOM      6  C   UNL d   1      -2.155 -17.207  -0.206 -0.05 -0.02    -0.021 A 
DOCKED: ATOM      7  C   UNL d   1      -1.835 -16.472   0.911 -0.09 -0.02    -0.025 A 
DOCKED: ATOM      8  C   UNL d   1      -0.838 -15.582   0.520 -0.09 +0.05    +0.066 A 
DOCKED: ATOM      9  C   UNL d   1      -2.494 -16.623   2.265 +0.19 +0.06    +0.051 C 
DOCKED: ATOM     10  C   UNL d   1       0.840 -13.793   1.023 -0.13 +0.03    +0.066 A 
DOCKED: ATOM     11  C   UNL d   1       1.551 -13.053   1.973 -0.20 -0.01    -0.021 A 
DOCKED: ATOM     12  C   UNL d   1       2.505 -12.332   1.277 -0.25 +0.00    +0.000 A 
DOCKED: ATOM     13  C   UNL d   1       2.308 -12.673  -0.090 -0.15 +0.02    +0.070 A 
DOCKED: ATOM     14  C   UNL d   1       1.348 -13.052   3.483 -0.25 +0.02    +0.052 C 
DOCKED: ATOM     15  C   UNL d   1       2.832 -12.505  -2.517 -0.15 +0.02    +0.066 A 
DOCKED: ATOM     16  C   UNL d   1       3.505 -11.864  -3.557 -0.25 -0.00    -0.021 A 
DOCKED: ATOM     17  C   UNL d   1       3.070 -12.465  -4.738 -0.29 +0.00    +0.000 A 
DOCKED: ATOM     18  C   UNL d   1       2.154 -13.442  -4.324 -0.19 +0.03    +0.070 A 
DOCKED: ATOM     19  C   UNL d   1       4.451 -10.710  -3.337 -0.40 +0.01    +0.052 C 
DOCKED: ATOM     20  C   UNL d   1       0.525 -15.300  -4.865 -0.17 +0.04    +0.066 A 
DOCKED: ATOM     21  C   UNL d   1      -0.099 -16.169  -5.756 -0.21 -0.02    -0.025 A 
DOCKED: ATOM     22  C   UNL d   1      -0.905 -16.990  -5.000 -0.13 -0.02    -0.021 A 
DOCKED: ATOM     23  C   UNL d   1      -0.756 -16.578  -3.672 -0.09 +0.06    +0.066 A 
DOCKED: ATOM     24  C   UNL d   1       0.063 -16.211  -7.253 -0.24 +0.03    +0.051 C 
DOCKED: ATOM     25  N   UNL d   1      -0.605 -15.687  -0.832 -0.03 -0.20    -0.248 N 
DOCKED: ATOM     26  N   UNL d   1       1.291 -13.559  -0.236 -0.05 -0.11    -0.248 N 
DOCKED: ATOM     27  N   UNL d   1       1.966 -13.402  -2.981 -0.06 -0.10    -0.248 N 
DOCKED: ATOM     28  N   UNL d   1       0.080 -15.522  -3.600 -0.05 -0.18    -0.248 N 
DOCKED: ATOM     29 FE   UNL d   1       0.682 -14.546  -1.932 -0.02 +0.00    +0.000 Fe
DOCKED: ATOM     30  O   UNL d   1      -0.560 -13.766  -1.412 -0.16 +0.00    +0.000 OA
DOCKED: ATOM     31  O   UNL d   1      -0.020 -13.494  -2.866 -0.19 +0.00    +0.000 OA
DOCKED: ENDROOT
DOCKED: BRANCH   6  32
DOCKED: ATOM     32  C   UNL d   1      -3.254 -18.235  -0.272 -0.03 +0.05    +0.052 C 
DOCKED: BRANCH  32  33
DOCKED: ATOM     33  C   UNL d   1      -4.464 -17.759  -1.070 -0.06 +0.14    +0.115 C 
DOCKED: BRANCH  33  34
DOCKED: ATOM     34  C   UNL d   1      -5.116 -16.545  -0.457 -0.10 +0.23    +0.139 C 
DOCKED: ATOM     35  O   UNL d   1      -5.458 -15.617  -1.173 -0.29 -1.57    -0.650 OA
DOCKED: BRANCH  34  36
DOCKED: ATOM     36  O   UNL d   1      -5.305 -16.445   0.875 -0.24 -1.54    -0.776 OA
DOCKED: ATOM     37  H   UNL d   1      -5.711 -17.154   1.388 +0.00 +0.25    +0.167 HD
DOCKED: ENDBRANCH  34  36
DOCKED: ENDBRANCH  33  34
DOCKED: ENDBRANCH  32  33
DOCKED: ENDBRANCH   6  32
DOCKED: BRANCH  22  38
DOCKED: ATOM     38  C   UNL d   1      -1.814 -18.065  -5.537 -0.13 +0.05    +0.052 C 
DOCKED: BRANCH  38  39
DOCKED: ATOM     39  C   UNL d   1      -3.091 -17.494  -6.150 -0.10 +0.15    +0.115 C 
DOCKED: BRANCH  39  40
DOCKED: ATOM     40  C   UNL d   1      -3.230 -17.835  -7.613 -0.18 +0.22    +0.139 C 
DOCKED: ATOM     41  O   UNL d   1      -3.881 -17.108  -8.345 -0.10 -1.01    -0.650 OA
DOCKED: BRANCH  40  42
DOCKED: ATOM     42  O   UNL d   1      -2.604 -18.904  -8.141 -0.46 -1.38    -0.776 OA
DOCKED: ATOM     43  H   UNL d   1      -1.649 -19.019  -8.063 +0.04 +0.18    +0.167 HD
DOCKED: ENDBRANCH  40  42
DOCKED: ENDBRANCH  39  40
DOCKED: ENDBRANCH  38  39
DOCKED: ENDBRANCH  22  38
DOCKED: BRANCH  12  44
DOCKED: ATOM     44  C   UNL d   1       3.482 -11.410   1.974 -0.30 +0.00    +0.004 C 
DOCKED: ATOM     45  C   UNL d   1       4.812 -11.410   1.889 -0.21 +0.00    +0.012 C 
DOCKED: ENDBRANCH  12  44
DOCKED: BRANCH  17  46
DOCKED: ATOM     46  C   UNL d   1       3.393 -12.164  -6.177 -0.45 +0.00    +0.004 C 
DOCKED: ATOM     47  C   UNL d   1       4.170 -12.862  -7.016 -0.51 +0.00    +0.012 C 
DOCKED: ENDBRANCH  17  46
DOCKED: TORSDOF 10
DOCKED: TER
DOCKED: ENDMDL
________________________________________________________________________________


	BEGINNING GENETIC ALGORITHM DOCKING 52 of 100
Run: 52 Seed: 733411197 1574963668 [ Run 52 of 100 GA/GALS ]
Beginning LAMARCKIAN GENETIC ALGORITHM (LGA), with a maximum of 25000000 energy evaluations.

Final-Value: -12.490


	FINAL GENETIC ALGORITHM DOCKED STATE
	_______________________________________________


Detailed state:  trans -0.409 -15.548 -1.367 quatxyzw 0.349237 0.022532 -0.374918 0.858465 center 8.287 34.468 -0.670 ntor 10 23.2649 -11.9910 113.6552 16.8479 57.4241 -101.8457 -129.7003 28.5366 178.7733 -41.6793
State:	 -0.409 -15.548  -1.367   0.681  0.044 -0.731 61.711     23.26  -11.99  113.66   16.85   57.42 -101.85 -129.70   28.54  178.77  -41.68

DOCKED: MODEL       52
DOCKED: USER    Run = 52
DOCKED: USER    DPF = D:/Protein_go_brrr/autodock/final/AncA/heme_O2/dock.dpf
DOCKED: USER  
DOCKED: USER    Estimated Free Energy of Binding    =   -8.87 kcal/mol  [=(1)+(2)+(3)-(4)]
DOCKED: USER    Estimated Inhibition Constant, Ki   =  316.57 nM (nanomolar)  [Temperature = 298.15 K]
DOCKED: USER    
DOCKED: USER    (1) Final Intermolecular Energy     =  -11.85 kcal/mol
DOCKED: USER        vdW + Hbond + desolv Energy     =   -7.30 kcal/mol
DOCKED: USER        Electrostatic Energy            =   -4.55 kcal/mol
DOCKED: USER    (2) Final Total Internal Energy     =   -0.64 kcal/mol
DOCKED: USER    (3) Torsional Free Energy           =   +2.98 kcal/mol
DOCKED: USER    (4) Unbound System's Energy  [=(2)] =   -0.64 kcal/mol
DOCKED: USER    
DOCKED: USER    
DOCKED: USER    NEWDPF move heme_O2_opt.pdbqt
DOCKED: USER    NEWDPF about 8.287000 34.468000 -0.670000
DOCKED: USER    NEWDPF tran0 -0.408548 -15.547924 -1.367446
DOCKED: USER    NEWDPF quaternion0 0.349237 0.022532 -0.374918 0.858465
DOCKED: USER    NEWDPF axisangle0 0.680944 0.043932 -0.731017 61.710700
DOCKED: USER    NEWDPF quat0 0.680944 0.043932 -0.731017 61.710700
DOCKED: USER    NEWDPF dihe0 23.26 -11.99 113.66 16.85 57.42 -101.85 -129.70 28.54 178.77 -41.68 
DOCKED: USER  keepresnum = 1 
DOCKED: USER  
DOCKED: REMARK  10 active torsions:
DOCKED: REMARK  status: ('A' for Active; 'I' for Inactive)
DOCKED: REMARK    1  A    between atoms: C_6  and  C_10 
DOCKED: REMARK    2  A    between atoms: C_10  and  C_11 
DOCKED: REMARK    3  A    between atoms: C_11  and  C_12 
DOCKED: REMARK    4  A    between atoms: C_12  and  O_14 
DOCKED: REMARK    5  A    between atoms: C_17  and  C_20 
DOCKED: REMARK    6  A    between atoms: C_24  and  C_27 
DOCKED: REMARK    7  A    between atoms: C_31  and  C_34 
DOCKED: REMARK    8  A    between atoms: C_34  and  C_35 
DOCKED: REMARK    9  A    between atoms: C_35  and  C_36 
DOCKED: REMARK   10  A    between atoms: C_36  and  O_38 
DOCKED: USER                              x       y       z     vdW  Elec       q    Type
DOCKED: USER                           _______ _______ _______ _____ _____    ______ ____
DOCKED: ROOT
DOCKED: ATOM      1  C   UNL d   1      -1.889 -16.961  -1.925 -0.06 +0.07    +0.064 A 
DOCKED: ATOM      2  C   UNL d   1      -0.447 -15.322   2.293 -0.10 +0.05    +0.064 A 
DOCKED: ATOM      3  C   UNL d   1       2.845 -12.526   0.184 -0.19 +0.02    +0.064 C 
DOCKED: ATOM      4  C   UNL d   1       1.048 -13.846  -4.186 -0.18 +0.03    +0.064 A 
DOCKED: ATOM      5  C   UNL d   1      -1.766 -16.742  -0.606 -0.06 +0.06    +0.066 A 
DOCKED: ATOM      6  C   UNL d   1      -2.533 -17.387   0.369 -0.06 -0.02    -0.021 A 
DOCKED: ATOM      7  C   UNL d   1      -2.146 -16.881   1.588 -0.06 -0.03    -0.025 A 
DOCKED: ATOM      8  C   UNL d   1      -1.120 -15.976   1.327 -0.08 +0.06    +0.066 A 
DOCKED: ATOM      9  C   UNL d   1      -2.773 -17.248   2.915 -0.06 +0.06    +0.051 C 
DOCKED: ATOM     10  C   UNL d   1       0.653 -14.379   2.082 -0.12 +0.04    +0.066 A 
DOCKED: ATOM     11  C   UNL d   1       1.425 -13.852   3.124 -0.15 -0.01    -0.021 A 
DOCKED: ATOM     12  C   UNL d   1       2.391 -13.058   2.535 -0.17 +0.00    +0.000 A 
DOCKED: ATOM     13  C   UNL d   1       2.140 -13.136   1.137 -0.14 +0.02    +0.070 A 
DOCKED: ATOM     14  C   UNL d   1       1.265 -14.118   4.616 -0.16 +0.03    +0.052 C 
DOCKED: ATOM     15  C   UNL d   1       2.602 -12.552  -1.238 -0.14 +0.02    +0.066 A 
DOCKED: ATOM     16  C   UNL d   1       3.274 -11.760  -2.169 -0.23 -0.00    -0.021 A 
DOCKED: ATOM     17  C   UNL d   1       2.777 -12.119  -3.423 -0.24 +0.00    +0.000 A 
DOCKED: ATOM     18  C   UNL d   1       1.829 -13.117  -3.158 -0.15 +0.03    +0.070 A 
DOCKED: ATOM     19  C   UNL d   1       4.278 -10.705  -1.780 -0.17 +0.01    +0.052 C 
DOCKED: ATOM     20  C   UNL d   1       0.100 -14.777  -3.965 -0.15 +0.05    +0.066 A 
DOCKED: ATOM     21  C   UNL d   1      -0.590 -15.443  -4.974 -0.21 -0.02    -0.025 A 
DOCKED: ATOM     22  C   UNL d   1      -1.411 -16.354  -4.349 -0.11 -0.03    -0.021 A 
DOCKED: ATOM     23  C   UNL d   1      -1.205 -16.197  -2.975 -0.09 +0.07    +0.066 A 
DOCKED: ATOM     24  C   UNL d   1      -0.473 -15.219  -6.460 -0.38 +0.03    +0.051 C 
DOCKED: ATOM     25  N   UNL d   1      -0.932 -15.843  -0.029 -0.05 -0.21    -0.248 N 
DOCKED: ATOM     26  N   UNL d   1       1.078 -13.938   0.871 -0.07 -0.12    -0.248 N 
DOCKED: ATOM     27  N   UNL d   1       1.682 -13.313  -1.823 -0.05 -0.10    -0.248 N 
DOCKED: ATOM     28  N   UNL d   1      -0.319 -15.206  -2.745 -0.05 -0.21    -0.248 N 
DOCKED: ATOM     29 FE   UNL d   1       0.376 -14.575  -0.952 -0.02 +0.00    +0.000 Fe
DOCKED: ATOM     30  O   UNL d   1      -0.813 -13.853  -0.254 -0.20 +0.00    +0.000 OA
DOCKED: ATOM     31  O   UNL d   1      -0.303 -13.343  -1.655 -0.18 +0.00    +0.000 OA
DOCKED: ENDROOT
DOCKED: BRANCH   6  32
DOCKED: ATOM     32  C   UNL d   1      -3.680 -18.340   0.159 -0.03 +0.05    +0.052 C 
DOCKED: BRANCH  32  33
DOCKED: ATOM     33  C   UNL d   1      -5.042 -17.659   0.258 -0.05 +0.13    +0.115 C 
DOCKED: BRANCH  33  34
DOCKED: ATOM     34  C   UNL d   1      -5.112 -16.392  -0.558 -0.09 +0.24    +0.139 C 
DOCKED: ATOM     35  O   UNL d   1      -4.863 -15.320  -0.030 -0.45 -1.47    -0.650 OA
DOCKED: BRANCH  34  36
DOCKED: ATOM     36  O   UNL d   1      -5.472 -16.412  -1.858 -0.00 -1.92    -0.776 OA
DOCKED: ATOM     37  H   UNL d   1      -6.003 -17.126  -2.231 +0.01 +0.27    +0.167 HD
DOCKED: ENDBRANCH  34  36
DOCKED: ENDBRANCH  33  34
DOCKED: ENDBRANCH  32  33
DOCKED: ENDBRANCH   6  32
DOCKED: BRANCH  22  38
DOCKED: ATOM     38  C   UNL d   1      -2.385 -17.276  -5.038 -0.13 +0.07    +0.052 C 
DOCKED: BRANCH  38  39
DOCKED: ATOM     39  C   UNL d   1      -1.696 -18.225  -6.015 -0.11 +0.10    +0.115 C 
DOCKED: BRANCH  39  40
DOCKED: ATOM     40  C   UNL d   1      -2.605 -18.655  -7.139 -0.13 +0.19    +0.139 C 
DOCKED: ATOM     41  O   UNL d   1      -3.327 -17.835  -7.683 -0.54 -1.07    -0.650 OA
DOCKED: BRANCH  40  42
DOCKED: ATOM     42  O   UNL d   1      -2.601 -19.924  -7.591 -0.29 -1.22    -0.776 OA
DOCKED: ATOM     43  H   UNL d   1      -1.932 -20.559  -7.306 +0.02 +0.17    +0.167 HD
DOCKED: ENDBRANCH  40  42
DOCKED: ENDBRANCH  39  40
DOCKED: ENDBRANCH  38  39
DOCKED: ENDBRANCH  22  38
DOCKED: BRANCH  12  44
DOCKED: ATOM     44  C   UNL d   1       3.430 -12.317   3.351 -0.20 +0.00    +0.004 C 
DOCKED: ATOM     45  C   UNL d   1       3.249 -11.263   4.145 -0.31 +0.00    +0.012 C 
DOCKED: ENDBRANCH  12  44
DOCKED: BRANCH  17  46
DOCKED: ATOM     46  C   UNL d   1       3.073 -11.575  -4.795 -0.39 +0.00    +0.004 C 
DOCKED: ATOM     47  C   UNL d   1       4.039 -10.721  -5.158 -0.52 +0.00    +0.012 C 
DOCKED: ENDBRANCH  17  46
DOCKED: TORSDOF 10
DOCKED: TER
DOCKED: ENDMDL
________________________________________________________________________________


	BEGINNING GENETIC ALGORITHM DOCKING 53 of 100
Run: 53 Seed: 912469657 1824738639 [ Run 53 of 100 GA/GALS ]
Beginning LAMARCKIAN GENETIC ALGORITHM (LGA), with a maximum of 25000000 energy evaluations.

Final-Value: -10.723


	FINAL GENETIC ALGORITHM DOCKED STATE
	_______________________________________________


Detailed state:  trans -0.099 -14.944 -0.098 quatxyzw 0.871515 0.335255 0.078396 -0.349170 center 8.287 34.468 -0.670 ntor 10 -124.8477 62.2675 59.1670 -36.9156 -165.4488 -153.1926 -131.7725 64.9046 -13.7667 140.9479
State:	 -0.099 -14.944  -0.098   0.930  0.358  0.084 -139.127   -124.85   62.27   59.17  -36.92 -165.45 -153.19 -131.77   64.90  -13.77  140.95

DOCKED: MODEL       53
DOCKED: USER    Run = 53
DOCKED: USER    DPF = D:/Protein_go_brrr/autodock/final/AncA/heme_O2/dock.dpf
DOCKED: USER  
DOCKED: USER    Estimated Free Energy of Binding    =   -6.95 kcal/mol  [=(1)+(2)+(3)-(4)]
DOCKED: USER    Estimated Inhibition Constant, Ki   =    8.10 uM (micromolar)  [Temperature = 298.15 K]
DOCKED: USER    
DOCKED: USER    (1) Final Intermolecular Energy     =   -9.93 kcal/mol
DOCKED: USER        vdW + Hbond + desolv Energy     =   -6.33 kcal/mol
DOCKED: USER        Electrostatic Energy            =   -3.60 kcal/mol
DOCKED: USER    (2) Final Total Internal Energy     =   -0.79 kcal/mol
DOCKED: USER    (3) Torsional Free Energy           =   +2.98 kcal/mol
DOCKED: USER    (4) Unbound System's Energy  [=(2)] =   -0.79 kcal/mol
DOCKED: USER    
DOCKED: USER    
DOCKED: USER    NEWDPF move heme_O2_opt.pdbqt
DOCKED: USER    NEWDPF about 8.287000 34.468000 -0.670000
DOCKED: USER    NEWDPF tran0 -0.099168 -14.943570 -0.097519
DOCKED: USER    NEWDPF quaternion0 0.871515 0.335255 0.078396 -0.349170
DOCKED: USER    NEWDPF axisangle0 0.930053 0.357774 0.083662 -139.126846
DOCKED: USER    NEWDPF quat0 0.930053 0.357774 0.083662 -139.126846
DOCKED: USER    NEWDPF dihe0 -124.85 62.27 59.17 -36.92 -165.45 -153.19 -131.77 64.90 -13.77 140.95 
DOCKED: USER  keepresnum = 1 
DOCKED: USER  
DOCKED: REMARK  10 active torsions:
DOCKED: REMARK  status: ('A' for Active; 'I' for Inactive)
DOCKED: REMARK    1  A    between atoms: C_6  and  C_10 
DOCKED: REMARK    2  A    between atoms: C_10  and  C_11 
DOCKED: REMARK    3  A    between atoms: C_11  and  C_12 
DOCKED: REMARK    4  A    between atoms: C_12  and  O_14 
DOCKED: REMARK    5  A    between atoms: C_17  and  C_20 
DOCKED: REMARK    6  A    between atoms: C_24  and  C_27 
DOCKED: REMARK    7  A    between atoms: C_31  and  C_34 
DOCKED: REMARK    8  A    between atoms: C_34  and  C_35 
DOCKED: REMARK    9  A    between atoms: C_35  and  C_36 
DOCKED: REMARK   10  A    between atoms: C_36  and  O_38 
DOCKED: USER                              x       y       z     vdW  Elec       q    Type
DOCKED: USER                           _______ _______ _______ _____ _____    ______ ____
DOCKED: ROOT
DOCKED: ATOM      1  C   UNL d   1      -1.504 -16.014   1.078 -0.07 +0.06    +0.064 A 
DOCKED: ATOM      2  C   UNL d   1      -0.677 -15.875  -3.597 -0.11 +0.06    +0.064 A 
DOCKED: ATOM      3  C   UNL d   1       2.835 -12.655  -2.974 -0.18 +0.02    +0.064 C 
DOCKED: ATOM      4  C   UNL d   1       2.315 -13.147   1.879 -0.14 +0.02    +0.064 A 
DOCKED: ATOM      5  C   UNL d   1      -1.564 -16.240  -0.244 -0.07 +0.06    +0.066 A 
DOCKED: ATOM      6  C   UNL d   1      -2.481 -17.105  -0.849 -0.07 -0.02    -0.021 A 
DOCKED: ATOM      7  C   UNL d   1      -2.214 -17.099  -2.198 -0.05 -0.03    -0.025 A 
DOCKED: ATOM      8  C   UNL d   1      -1.173 -16.193  -2.386 -0.08 +0.07    +0.066 A 
DOCKED: ATOM      9  C   UNL d   1      -2.923 -17.955  -3.225 -0.08 +0.06    +0.051 C 
DOCKED: ATOM     10  C   UNL d   1       0.398 -14.917  -3.859 -0.13 +0.04    +0.066 A 
DOCKED: ATOM     11  C   UNL d   1       0.763 -14.502  -5.144 -0.27 -0.01    -0.021 A 
DOCKED: ATOM     12  C   UNL d   1       1.762 -13.560  -4.985 -0.29 +0.00    +0.000 A 
DOCKED: ATOM     13  C   UNL d   1       1.963 -13.460  -3.580 -0.14 +0.03    +0.070 A 
DOCKED: ATOM     14  C   UNL d   1       0.165 -14.964  -6.468 -0.35 +0.03    +0.052 C 
DOCKED: ATOM     15  C   UNL d   1       3.093 -12.550  -1.558 -0.14 +0.02    +0.066 A 
DOCKED: ATOM     16  C   UNL d   1       4.133 -11.809  -0.997 -0.23 -0.00    -0.021 A 
DOCKED: ATOM     17  C   UNL d   1       4.005 -11.935   0.386 -0.21 +0.00    +0.000 A 
DOCKED: ATOM     18  C   UNL d   1       2.881 -12.753   0.568 -0.14 +0.02    +0.070 A 
DOCKED: ATOM     19  C   UNL d   1       5.177 -11.100  -1.823 -0.24 +0.00    +0.052 C 
DOCKED: ATOM     20  C   UNL d   1       1.265 -13.965   2.089 -0.13 +0.03    +0.066 A 
DOCKED: ATOM     21  C   UNL d   1       0.766 -14.286   3.348 -0.14 -0.01    -0.025 A 
DOCKED: ATOM     22  C   UNL d   1      -0.339 -15.080   3.138 -0.11 -0.02    -0.021 A 
DOCKED: ATOM     23  C   UNL d   1      -0.463 -15.230   1.754 -0.10 +0.05    +0.066 A 
DOCKED: ATOM     24  C   UNL d   1       1.317 -13.860   4.684 -0.18 +0.02    +0.051 C 
DOCKED: ATOM     25  N   UNL d   1      -0.730 -15.714  -1.175 -0.03 -0.21    -0.248 N 
DOCKED: ATOM     26  N   UNL d   1       1.132 -14.292  -2.903 -0.04 -0.13    -0.248 N 
DOCKED: ATOM     27  N   UNL d   1       2.386 -13.177  -0.623 -0.05 -0.08    -0.248 N 
DOCKED: ATOM     28  N   UNL d   1       0.540 -14.587   1.121 -0.07 -0.14    -0.248 N 
DOCKED: ATOM     29 FE   UNL d   1       0.836 -14.439  -0.875 -0.02 +0.00    +0.000 Fe
DOCKED: ATOM     30  O   UNL d   1       1.263 -15.856  -1.358 -0.03 +0.00    +0.000 OA
DOCKED: ATOM     31  O   UNL d   1       2.114 -15.116  -0.258 -0.04 +0.00    +0.000 OA
DOCKED: ENDROOT
DOCKED: BRANCH   6  32
DOCKED: ATOM     32  C   UNL d   1      -3.480 -18.009  -0.175 -0.04 +0.05    +0.052 C 
DOCKED: BRANCH  32  33
DOCKED: ATOM     33  C   UNL d   1      -4.622 -17.243   0.485 -0.07 +0.15    +0.115 C 
DOCKED: BRANCH  33  34
DOCKED: ATOM     34  C   UNL d   1      -5.188 -16.169  -0.411 -0.10 +0.25    +0.139 C 
DOCKED: ATOM     35  O   UNL d   1      -5.392 -16.413  -1.589 -0.09 -1.47    -0.650 OA
DOCKED: BRANCH  34  36
DOCKED: ATOM     36  O   UNL d   1      -5.451 -14.931   0.055 -0.53 -1.84    -0.776 OA
DOCKED: ATOM     37  H   UNL d   1      -6.323 -14.528  -0.027 +0.03 +0.31    +0.167 HD
DOCKED: ENDBRANCH  34  36
DOCKED: ENDBRANCH  33  34
DOCKED: ENDBRANCH  32  33
DOCKED: ENDBRANCH   6  32
DOCKED: BRANCH  22  38
DOCKED: ATOM     38  C   UNL d   1      -1.185 -15.710   4.214 -0.08 +0.04    +0.052 C 
DOCKED: BRANCH  38  39
DOCKED: ATOM     39  C   UNL d   1      -1.150 -17.236   4.164 -0.05 +0.07    +0.115 C 
DOCKED: BRANCH  39  40
DOCKED: ATOM     40  C   UNL d   1      -2.500 -17.835   3.858 -0.05 +0.11    +0.139 C 
DOCKED: ATOM     41  O   UNL d   1      -3.489 -17.120   3.839 -0.20 -0.88    -0.650 OA
DOCKED: BRANCH  40  42
DOCKED: ATOM     42  O   UNL d   1      -2.629 -19.140   3.553 +0.02 -0.42    -0.776 OA
DOCKED: ATOM     43  H   UNL d   1      -2.428 -19.831   4.195 +0.00 +0.07    +0.167 HD
DOCKED: ENDBRANCH  40  42
DOCKED: ENDBRANCH  39  40
DOCKED: ENDBRANCH  38  39
DOCKED: ENDBRANCH  22  38
DOCKED: BRANCH  12  44
DOCKED: ATOM     44  C   UNL d   1       2.411 -12.869  -6.166 -0.27 +0.00    +0.004 C 
DOCKED: ATOM     45  C   UNL d   1       3.709 -12.802  -6.464 -0.50 +0.00    +0.012 C 
DOCKED: ENDBRANCH  12  44
DOCKED: BRANCH  17  46
DOCKED: ATOM     46  C   UNL d   1       4.862 -11.414   1.509 -0.23 +0.00    +0.004 C 
DOCKED: ATOM     47  C   UNL d   1       6.198 -11.413   1.601 -0.23 +0.00    +0.012 C 
DOCKED: ENDBRANCH  17  46
DOCKED: TORSDOF 10
DOCKED: TER
DOCKED: ENDMDL
________________________________________________________________________________


	BEGINNING GENETIC ALGORITHM DOCKING 54 of 100
Run: 54 Seed: 1267042117 1900632658 [ Run 54 of 100 GA/GALS ]
Beginning LAMARCKIAN GENETIC ALGORITHM (LGA), with a maximum of 25000000 energy evaluations.

Final-Value: -11.843


	FINAL GENETIC ALGORITHM DOCKED STATE
	_______________________________________________


Detailed state:  trans -0.521 -15.619 -2.425 quatxyzw -0.833608 -0.247852 -0.434187 0.234839 center 8.287 34.468 -0.670 ntor 10 -42.4562 11.7119 -10.4023 54.4734 46.9562 -159.5240 51.3459 104.1704 25.9400 41.3305
State:	 -0.521 -15.619  -2.425  -0.858 -0.255 -0.447 152.836    -42.46   11.71  -10.40   54.47   46.96 -159.52   51.35  104.17   25.94   41.33

DOCKED: MODEL       54
DOCKED: USER    Run = 54
DOCKED: USER    DPF = D:/Protein_go_brrr/autodock/final/AncA/heme_O2/dock.dpf
DOCKED: USER  
DOCKED: USER    Estimated Free Energy of Binding    =   -7.55 kcal/mol  [=(1)+(2)+(3)-(4)]
DOCKED: USER    Estimated Inhibition Constant, Ki   =    2.93 uM (micromolar)  [Temperature = 298.15 K]
DOCKED: USER    
DOCKED: USER    (1) Final Intermolecular Energy     =  -10.53 kcal/mol
DOCKED: USER        vdW + Hbond + desolv Energy     =   -6.87 kcal/mol
DOCKED: USER        Electrostatic Energy            =   -3.66 kcal/mol
DOCKED: USER    (2) Final Total Internal Energy     =   -1.31 kcal/mol
DOCKED: USER    (3) Torsional Free Energy           =   +2.98 kcal/mol
DOCKED: USER    (4) Unbound System's Energy  [=(2)] =   -1.31 kcal/mol
DOCKED: USER    
DOCKED: USER    
DOCKED: USER    NEWDPF move heme_O2_opt.pdbqt
DOCKED: USER    NEWDPF about 8.287000 34.468000 -0.670000
DOCKED: USER    NEWDPF tran0 -0.520740 -15.618582 -2.424608
DOCKED: USER    NEWDPF quaternion0 -0.833608 -0.247852 -0.434187 0.234839
DOCKED: USER    NEWDPF axisangle0 -0.857591 -0.254983 -0.446679 152.835690
DOCKED: USER    NEWDPF quat0 -0.857591 -0.254983 -0.446679 152.835690
DOCKED: USER    NEWDPF dihe0 -42.46 11.71 -10.40 54.47 46.96 -159.52 51.35 104.17 25.94 41.33 
DOCKED: USER  keepresnum = 1 
DOCKED: USER  
DOCKED: REMARK  10 active torsions:
DOCKED: REMARK  status: ('A' for Active; 'I' for Inactive)
DOCKED: REMARK    1  A    between atoms: C_6  and  C_10 
DOCKED: REMARK    2  A    between atoms: C_10  and  C_11 
DOCKED: REMARK    3  A    between atoms: C_11  and  C_12 
DOCKED: REMARK    4  A    between atoms: C_12  and  O_14 
DOCKED: REMARK    5  A    between atoms: C_17  and  C_20 
DOCKED: REMARK    6  A    between atoms: C_24  and  C_27 
DOCKED: REMARK    7  A    between atoms: C_31  and  C_34 
DOCKED: REMARK    8  A    between atoms: C_34  and  C_35 
DOCKED: REMARK    9  A    between atoms: C_35  and  C_36 
DOCKED: REMARK   10  A    between atoms: C_36  and  O_38 
DOCKED: USER                              x       y       z     vdW  Elec       q    Type
DOCKED: USER                           _______ _______ _______ _____ _____    ______ ____
DOCKED: ROOT
DOCKED: ATOM      1  C   UNL d   1      -2.002 -17.093  -2.785 -0.04 +0.08    +0.064 A 
DOCKED: ATOM      2  C   UNL d   1       1.130 -14.930  -5.626 -0.25 +0.03    +0.064 A 
DOCKED: ATOM      3  C   UNL d   1       2.786 -12.306  -1.957 -0.19 +0.02    +0.064 C 
DOCKED: ATOM      4  C   UNL d   1      -0.103 -14.866   1.071 -0.10 +0.04    +0.064 A 
DOCKED: ATOM      5  C   UNL d   1      -1.284 -16.720  -3.857 -0.10 +0.07    +0.066 A 
DOCKED: ATOM      6  C   UNL d   1      -1.473 -17.234  -5.143 -0.14 -0.02    -0.021 A 
DOCKED: ATOM      7  C   UNL d   1      -0.538 -16.641  -5.958 -0.19 -0.02    -0.025 A 
DOCKED: ATOM      8  C   UNL d   1       0.165 -15.745  -5.157 -0.17 +0.05    +0.066 A 
DOCKED: ATOM      9  C   UNL d   1      -0.337 -16.963  -7.423 -0.28 +0.03    +0.051 C 
DOCKED: ATOM     10  C   UNL d   1       1.886 -13.955  -4.840 -0.22 +0.03    +0.066 A 
DOCKED: ATOM     11  C   UNL d   1       2.760 -13.021  -5.407 -0.32 -0.01    -0.021 A 
DOCKED: ATOM     12  C   UNL d   1       3.234 -12.243  -4.367 -0.28 +0.00    +0.000 A 
DOCKED: ATOM     13  C   UNL d   1       2.618 -12.766  -3.197 -0.16 +0.02    +0.070 A 
DOCKED: ATOM     14  C   UNL d   1       3.108 -12.860  -6.883 -0.41 +0.02    +0.052 C 
DOCKED: ATOM     15  C   UNL d   1       2.208 -12.829  -0.742 -0.13 +0.02    +0.066 A 
DOCKED: ATOM     16  C   UNL d   1       2.552 -12.408   0.542 -0.21 -0.01    -0.021 A 
DOCKED: ATOM     17  C   UNL d   1       1.741 -13.125   1.422 -0.19 +0.00    +0.000 A 
DOCKED: ATOM     18  C   UNL d   1       0.952 -13.939   0.598 -0.11 +0.03    +0.070 A 
DOCKED: ATOM     19  C   UNL d   1       3.650 -11.411   0.814 -0.27 +0.01    +0.052 C 
DOCKED: ATOM     20  C   UNL d   1      -0.848 -15.692   0.312 -0.08 +0.05    +0.066 A 
DOCKED: ATOM     21  C   UNL d   1      -1.841 -16.530   0.813 -0.09 -0.02    -0.025 A 
DOCKED: ATOM     22  C   UNL d   1      -2.411 -17.152  -0.275 -0.06 -0.02    -0.021 A 
DOCKED: ATOM     23  C   UNL d   1      -1.731 -16.683  -1.403 -0.06 +0.07    +0.066 A 
DOCKED: ATOM     24  C   UNL d   1      -2.223 -16.729   2.257 +0.05 +0.06    +0.051 C 
DOCKED: ATOM     25  N   UNL d   1      -0.252 -15.842  -3.850 -0.06 -0.20    -0.248 N 
DOCKED: ATOM     26  N   UNL d   1       1.802 -13.810  -3.493 -0.07 -0.11    -0.248 N 
DOCKED: ATOM     27  N   UNL d   1       1.301 -13.801  -0.707 -0.04 -0.11    -0.248 N 
DOCKED: ATOM     28  N   UNL d   1      -0.752 -15.829  -1.038 -0.03 -0.21    -0.248 N 
DOCKED: ATOM     29 FE   UNL d   1       0.517 -14.826  -2.254 -0.02 +0.00    +0.000 Fe
DOCKED: ATOM     30  O   UNL d   1       1.485 -15.891  -2.846 -0.05 +0.00    +0.000 OA
DOCKED: ATOM     31  O   UNL d   1       1.389 -15.705  -1.285 -0.04 +0.00    +0.000 OA
DOCKED: ENDROOT
DOCKED: BRANCH   6  32
DOCKED: ATOM     32  C   UNL d   1      -2.404 -18.341  -5.567 -0.13 +0.05    +0.052 C 
DOCKED: BRANCH  32  33
DOCKED: ATOM     33  C   UNL d   1      -3.578 -17.841  -6.402 -0.23 +0.16    +0.115 C 
DOCKED: BRANCH  33  34
DOCKED: ATOM     34  C   UNL d   1      -4.902 -18.367  -5.906 -0.19 +0.20    +0.139 C 
DOCKED: ATOM     35  O   UNL d   1      -5.460 -19.267  -6.514 -0.01 -1.13    -0.650 OA
DOCKED: BRANCH  34  36
DOCKED: ATOM     36  O   UNL d   1      -5.502 -17.846  -4.816 +0.01 -1.08    -0.776 OA
DOCKED: ATOM     37  H   UNL d   1      -5.008 -17.620  -4.019 +0.02 +0.29    +0.167 HD
DOCKED: ENDBRANCH  34  36
DOCKED: ENDBRANCH  33  34
DOCKED: ENDBRANCH  32  33
DOCKED: ENDBRANCH   6  32
DOCKED: BRANCH  22  38
DOCKED: ATOM     38  C   UNL d   1      -3.504 -18.188  -0.221 -0.04 +0.05    +0.052 C 
DOCKED: BRANCH  38  39
DOCKED: ATOM     39  C   UNL d   1      -4.493 -18.051  -1.377 -0.05 +0.13    +0.115 C 
DOCKED: BRANCH  39  40
DOCKED: ATOM     40  C   UNL d   1      -5.463 -16.914  -1.174 -0.04 +0.22    +0.139 C 
DOCKED: ATOM     41  O   UNL d   1      -5.580 -16.406  -0.070 -0.22 -1.08    -0.650 OA
DOCKED: BRANCH  40  42
DOCKED: ATOM     42  O   UNL d   1      -6.170 -16.410  -2.204 -0.21 -1.71    -0.776 OA
DOCKED: ATOM     43  H   UNL d   1      -6.239 -16.878  -3.045 +0.02 +0.32    +0.167 HD
DOCKED: ENDBRANCH  40  42
DOCKED: ENDBRANCH  39  40
DOCKED: ENDBRANCH  38  39
DOCKED: ENDBRANCH  22  38
DOCKED: BRANCH  12  44
DOCKED: ATOM     44  C   UNL d   1       4.210 -11.107  -4.593 -0.45 +0.00    +0.004 C 
DOCKED: ATOM     45  C   UNL d   1       4.533 -10.126  -3.751 -0.43 +0.00    +0.012 C 
DOCKED: ENDBRANCH  12  44
DOCKED: BRANCH  17  46
DOCKED: ATOM     46  C   UNL d   1       1.693 -13.146   2.927 -0.23 +0.00    +0.004 C 
DOCKED: ATOM     47  C   UNL d   1       1.669 -12.105   3.769 -0.38 +0.00    +0.012 C 
DOCKED: ENDBRANCH  17  46
DOCKED: TORSDOF 10
DOCKED: TER
DOCKED: ENDMDL
________________________________________________________________________________


	BEGINNING GENETIC ALGORITHM DOCKING 55 of 100
Run: 55 Seed: 1354512504 1302266124 [ Run 55 of 100 GA/GALS ]
Beginning LAMARCKIAN GENETIC ALGORITHM (LGA), with a maximum of 25000000 energy evaluations.

Final-Value: -12.448


	FINAL GENETIC ALGORITHM DOCKED STATE
	_______________________________________________


Detailed state:  trans -0.268 -15.417 -1.793 quatxyzw -0.348651 -0.006969 0.368264 -0.861844 center 8.287 34.468 -0.670 ntor 10 -22.4242 -25.0386 130.9415 119.0353 -123.1339 -58.6357 125.2073 23.0414 -154.4175 -27.3718
State:	 -0.268 -15.417  -1.793  -0.687 -0.014  0.726 -60.951    -22.42  -25.04  130.94  119.04 -123.13  -58.64  125.21   23.04 -154.42  -27.37

DOCKED: MODEL       55
DOCKED: USER    Run = 55
DOCKED: USER    DPF = D:/Protein_go_brrr/autodock/final/AncA/heme_O2/dock.dpf
DOCKED: USER  
DOCKED: USER    Estimated Free Energy of Binding    =   -8.73 kcal/mol  [=(1)+(2)+(3)-(4)]
DOCKED: USER    Estimated Inhibition Constant, Ki   =  396.54 nM (nanomolar)  [Temperature = 298.15 K]
DOCKED: USER    
DOCKED: USER    (1) Final Intermolecular Energy     =  -11.72 kcal/mol
DOCKED: USER        vdW + Hbond + desolv Energy     =   -7.50 kcal/mol
DOCKED: USER        Electrostatic Energy            =   -4.22 kcal/mol
DOCKED: USER    (2) Final Total Internal Energy     =   -0.73 kcal/mol
DOCKED: USER    (3) Torsional Free Energy           =   +2.98 kcal/mol
DOCKED: USER    (4) Unbound System's Energy  [=(2)] =   -0.73 kcal/mol
DOCKED: USER    
DOCKED: USER    
DOCKED: USER    NEWDPF move heme_O2_opt.pdbqt
DOCKED: USER    NEWDPF about 8.287000 34.468000 -0.670000
DOCKED: USER    NEWDPF tran0 -0.268442 -15.417421 -1.793139
DOCKED: USER    NEWDPF quaternion0 -0.348651 -0.006969 0.368264 -0.861844
DOCKED: USER    NEWDPF axisangle0 -0.687440 -0.013741 0.726111 -60.951461
DOCKED: USER    NEWDPF quat0 -0.687440 -0.013741 0.726111 -60.951461
DOCKED: USER    NEWDPF dihe0 -22.42 -25.04 130.94 119.04 -123.13 -58.64 125.21 23.04 -154.42 -27.37 
DOCKED: USER  keepresnum = 1 
DOCKED: USER  
DOCKED: REMARK  10 active torsions:
DOCKED: REMARK  status: ('A' for Active; 'I' for Inactive)
DOCKED: REMARK    1  A    between atoms: C_6  and  C_10 
DOCKED: REMARK    2  A    between atoms: C_10  and  C_11 
DOCKED: REMARK    3  A    between atoms: C_11  and  C_12 
DOCKED: REMARK    4  A    between atoms: C_12  and  O_14 
DOCKED: REMARK    5  A    between atoms: C_17  and  C_20 
DOCKED: REMARK    6  A    between atoms: C_24  and  C_27 
DOCKED: REMARK    7  A    between atoms: C_31  and  C_34 
DOCKED: REMARK    8  A    between atoms: C_34  and  C_35 
DOCKED: REMARK    9  A    between atoms: C_35  and  C_36 
DOCKED: REMARK   10  A    between atoms: C_36  and  O_38 
DOCKED: USER                              x       y       z     vdW  Elec       q    Type
DOCKED: USER                           _______ _______ _______ _____ _____    ______ ____
DOCKED: ROOT
DOCKED: ATOM      1  C   UNL d   1      -1.795 -16.798  -2.306 -0.06 +0.08    +0.064 A 
DOCKED: ATOM      2  C   UNL d   1      -0.218 -15.162   1.865 -0.10 +0.04    +0.064 A 
DOCKED: ATOM      3  C   UNL d   1       3.093 -12.465  -0.340 -0.19 +0.02    +0.064 C 
DOCKED: ATOM      4  C   UNL d   1       1.165 -13.774  -4.658 -0.22 +0.03    +0.064 A 
DOCKED: ATOM      5  C   UNL d   1      -1.637 -16.572  -0.992 -0.06 +0.07    +0.066 A 
DOCKED: ATOM      6  C   UNL d   1      -2.397 -17.189   0.006 -0.06 -0.02    -0.021 A 
DOCKED: ATOM      7  C   UNL d   1      -1.971 -16.684   1.212 -0.08 -0.02    -0.025 A 
DOCKED: ATOM      8  C   UNL d   1      -0.929 -15.807   0.921 -0.09 +0.05    +0.066 A 
DOCKED: ATOM      9  C   UNL d   1      -2.576 -17.025   2.556 +0.00 +0.06    +0.051 C 
DOCKED: ATOM     10  C   UNL d   1       0.900 -14.248   1.622 -0.12 +0.03    +0.066 A 
DOCKED: ATOM     11  C   UNL d   1       1.708 -13.733   2.641 -0.14 -0.01    -0.021 A 
DOCKED: ATOM     12  C   UNL d   1       2.680 -12.968   2.024 -0.16 +0.00    +0.000 A 
DOCKED: ATOM     13  C   UNL d   1       2.395 -13.051   0.633 -0.12 +0.02    +0.070 A 
DOCKED: ATOM     14  C   UNL d   1       1.576 -13.984   4.139 -0.15 +0.02    +0.052 C 
DOCKED: ATOM     15  C   UNL d   1       2.817 -12.496  -1.757 -0.14 +0.02    +0.066 A 
DOCKED: ATOM     16  C   UNL d   1       3.487 -11.729  -2.709 -0.24 -0.00    -0.021 A 
DOCKED: ATOM     17  C   UNL d   1       2.954 -12.085  -3.948 -0.27 +0.00    +0.000 A 
DOCKED: ATOM     18  C   UNL d   1       1.987 -13.057  -3.654 -0.17 +0.03    +0.070 A 
DOCKED: ATOM     19  C   UNL d   1       4.526 -10.696  -2.351 -0.31 +0.01    +0.052 C 
DOCKED: ATOM     20  C   UNL d   1       0.200 -14.680  -4.408 -0.18 +0.05    +0.066 A 
DOCKED: ATOM     21  C   UNL d   1      -0.529 -15.336  -5.396 -0.26 -0.02    -0.025 A 
DOCKED: ATOM     22  C   UNL d   1      -1.358 -16.222  -4.745 -0.11 -0.02    -0.021 A 
DOCKED: ATOM     23  C   UNL d   1      -1.117 -16.059  -3.377 -0.11 +0.07    +0.066 A 
DOCKED: ATOM     24  C   UNL d   1      -0.441 -15.127  -6.885 -0.38 +0.03    +0.051 C 
DOCKED: ATOM     25  N   UNL d   1      -0.768 -15.689  -0.441 -0.04 -0.20    -0.248 N 
DOCKED: ATOM     26  N   UNL d   1       1.308 -13.828   0.398 -0.06 -0.11    -0.248 N 
DOCKED: ATOM     27  N   UNL d   1       1.865 -13.239  -2.315 -0.06 -0.10    -0.248 N 
DOCKED: ATOM     28  N   UNL d   1      -0.202 -15.089  -3.175 -0.07 -0.20    -0.248 N 
DOCKED: ATOM     29 FE   UNL d   1       0.549 -14.461  -1.403 -0.02 +0.00    +0.000 Fe
DOCKED: ATOM     30  O   UNL d   1      -0.606 -13.704  -0.685 -0.19 +0.00    +0.000 OA
DOCKED: ATOM     31  O   UNL d   1      -0.115 -13.218  -2.101 -0.18 +0.00    +0.000 OA
DOCKED: ENDROOT
DOCKED: BRANCH   6  32
DOCKED: ATOM     32  C   UNL d   1      -3.573 -18.116  -0.170 -0.04 +0.05    +0.052 C 
DOCKED: BRANCH  32  33
DOCKED: ATOM     33  C   UNL d   1      -4.816 -17.402  -0.691 -0.07 +0.15    +0.115 C 
DOCKED: BRANCH  33  34
DOCKED: ATOM     34  C   UNL d   1      -5.239 -16.260   0.199 -0.02 +0.25    +0.139 C 
DOCKED: ATOM     35  O   UNL d   1      -4.739 -15.157   0.044 -0.46 -1.53    -0.650 OA
DOCKED: BRANCH  34  36
DOCKED: ATOM     36  O   UNL d   1      -6.142 -16.434   1.186 -0.15 -1.44    -0.776 OA
DOCKED: ATOM     37  H   UNL d   1      -6.773 -17.163   1.179 +0.01 +0.19    +0.167 HD
DOCKED: ENDBRANCH  34  36
DOCKED: ENDBRANCH  33  34
DOCKED: ENDBRANCH  32  33
DOCKED: ENDBRANCH   6  32
DOCKED: BRANCH  22  38
DOCKED: ATOM     38  C   UNL d   1      -2.370 -17.124  -5.403 -0.14 +0.06    +0.052 C 
DOCKED: BRANCH  38  39
DOCKED: ATOM     39  C   UNL d   1      -1.718 -18.311  -6.109 -0.11 +0.10    +0.115 C 
DOCKED: BRANCH  39  40
DOCKED: ATOM     40  C   UNL d   1      -2.603 -18.903  -7.177 -0.10 +0.19    +0.139 C 
DOCKED: ATOM     41  O   UNL d   1      -2.590 -18.435  -8.304 -0.53 -1.07    -0.650 OA
DOCKED: BRANCH  40  42
DOCKED: ATOM     42  O   UNL d   1      -3.376 -19.978  -6.924 -0.14 -1.28    -0.776 OA
DOCKED: ATOM     43  H   UNL d   1      -3.174 -20.585  -6.202 +0.02 +0.18    +0.167 HD
DOCKED: ENDBRANCH  40  42
DOCKED: ENDBRANCH  39  40
DOCKED: ENDBRANCH  38  39
DOCKED: ENDBRANCH  22  38
DOCKED: BRANCH  12  44
DOCKED: ATOM     44  C   UNL d   1       3.755 -12.247   2.810 -0.19 +0.00    +0.004 C 
DOCKED: ATOM     45  C   UNL d   1       3.598 -11.401   3.827 -0.28 +0.00    +0.012 C 
DOCKED: ENDBRANCH  12  44
DOCKED: BRANCH  17  46
DOCKED: ATOM     46  C   UNL d   1       3.231 -11.559  -5.331 -0.41 +0.00    +0.004 C 
DOCKED: ATOM     47  C   UNL d   1       3.818 -12.191  -6.355 -0.55 +0.00    +0.012 C 
DOCKED: ENDBRANCH  17  46
DOCKED: TORSDOF 10
DOCKED: TER
DOCKED: ENDMDL
________________________________________________________________________________


	BEGINNING GENETIC ALGORITHM DOCKING 56 of 100
Run: 56 Seed: 1720685161 2129294679 [ Run 56 of 100 GA/GALS ]
Beginning LAMARCKIAN GENETIC ALGORITHM (LGA), with a maximum of 25000000 energy evaluations.

Final-Value: -12.805


	FINAL GENETIC ALGORITHM DOCKED STATE
	_______________________________________________


Detailed state:  trans -0.380 -15.501 -1.793 quatxyzw 0.358597 0.025850 -0.368948 0.857098 center 8.287 34.468 -0.670 ntor 10 -46.6494 -13.5969 122.2626 119.3735 -76.9785 -99.1216 123.5311 26.5780 -146.0491 -46.1330
State:	 -0.380 -15.501  -1.793   0.696  0.050 -0.716 62.015    -46.65  -13.60  122.26  119.37  -76.98  -99.12  123.53   26.58 -146.05  -46.13

DOCKED: MODEL       56
DOCKED: USER    Run = 56
DOCKED: USER    DPF = D:/Protein_go_brrr/autodock/final/AncA/heme_O2/dock.dpf
DOCKED: USER  
DOCKED: USER    Estimated Free Energy of Binding    =   -9.13 kcal/mol  [=(1)+(2)+(3)-(4)]
DOCKED: USER    Estimated Inhibition Constant, Ki   =  201.89 nM (nanomolar)  [Temperature = 298.15 K]
DOCKED: USER    
DOCKED: USER    (1) Final Intermolecular Energy     =  -12.12 kcal/mol
DOCKED: USER        vdW + Hbond + desolv Energy     =   -7.69 kcal/mol
DOCKED: USER        Electrostatic Energy            =   -4.42 kcal/mol
DOCKED: USER    (2) Final Total Internal Energy     =   -0.69 kcal/mol
DOCKED: USER    (3) Torsional Free Energy           =   +2.98 kcal/mol
DOCKED: USER    (4) Unbound System's Energy  [=(2)] =   -0.69 kcal/mol
DOCKED: USER    
DOCKED: USER    
DOCKED: USER    NEWDPF move heme_O2_opt.pdbqt
DOCKED: USER    NEWDPF about 8.287000 34.468000 -0.670000
DOCKED: USER    NEWDPF tran0 -0.379658 -15.501364 -1.792823
DOCKED: USER    NEWDPF quaternion0 0.358597 0.025850 -0.368948 0.857098
DOCKED: USER    NEWDPF axisangle0 0.696098 0.050180 -0.716191 62.015326
DOCKED: USER    NEWDPF quat0 0.696098 0.050180 -0.716191 62.015326
DOCKED: USER    NEWDPF dihe0 -46.65 -13.60 122.26 119.37 -76.98 -99.12 123.53 26.58 -146.05 -46.13 
DOCKED: USER  keepresnum = 1 
DOCKED: USER  
DOCKED: REMARK  10 active torsions:
DOCKED: REMARK  status: ('A' for Active; 'I' for Inactive)
DOCKED: REMARK    1  A    between atoms: C_6  and  C_10 
DOCKED: REMARK    2  A    between atoms: C_10  and  C_11 
DOCKED: REMARK    3  A    between atoms: C_11  and  C_12 
DOCKED: REMARK    4  A    between atoms: C_12  and  O_14 
DOCKED: REMARK    5  A    between atoms: C_17  and  C_20 
DOCKED: REMARK    6  A    between atoms: C_24  and  C_27 
DOCKED: REMARK    7  A    between atoms: C_31  and  C_34 
DOCKED: REMARK    8  A    between atoms: C_34  and  C_35 
DOCKED: REMARK    9  A    between atoms: C_35  and  C_36 
DOCKED: REMARK   10  A    between atoms: C_36  and  O_38 
DOCKED: USER                              x       y       z     vdW  Elec       q    Type
DOCKED: USER                           _______ _______ _______ _____ _____    ______ ____
DOCKED: ROOT
DOCKED: ATOM      1  C   UNL d   1      -1.860 -16.912  -2.356 -0.06 +0.08    +0.064 A 
DOCKED: ATOM      2  C   UNL d   1      -0.478 -15.222   1.863 -0.10 +0.05    +0.064 A 
DOCKED: ATOM      3  C   UNL d   1       2.869 -12.481  -0.229 -0.19 +0.02    +0.064 C 
DOCKED: ATOM      4  C   UNL d   1       1.137 -13.851  -4.610 -0.22 +0.03    +0.064 A 
DOCKED: ATOM      5  C   UNL d   1      -1.759 -16.675  -1.038 -0.06 +0.07    +0.066 A 
DOCKED: ATOM      6  C   UNL d   1      -2.546 -17.300  -0.067 -0.06 -0.02    -0.021 A 
DOCKED: ATOM      7  C   UNL d   1      -2.177 -16.779   1.151 -0.07 -0.03    -0.025 A 
DOCKED: ATOM      8  C   UNL d   1      -1.140 -15.886   0.895 -0.09 +0.06    +0.066 A 
DOCKED: ATOM      9  C   UNL d   1      -2.829 -17.122   2.473 -0.06 +0.06    +0.051 C 
DOCKED: ATOM     10  C   UNL d   1       0.632 -14.291   1.657 -0.12 +0.04    +0.066 A 
DOCKED: ATOM     11  C   UNL d   1       1.390 -13.755   2.704 -0.15 -0.01    -0.021 A 
DOCKED: ATOM     12  C   UNL d   1       2.372 -12.976   2.121 -0.17 +0.00    +0.000 A 
DOCKED: ATOM     13  C   UNL d   1       2.144 -13.073   0.720 -0.14 +0.02    +0.070 A 
DOCKED: ATOM     14  C   UNL d   1       1.203 -13.998   4.197 -0.17 +0.03    +0.052 C 
DOCKED: ATOM     15  C   UNL d   1       2.650 -12.525  -1.655 -0.14 +0.02    +0.066 A 
DOCKED: ATOM     16  C   UNL d   1       3.344 -11.752  -2.586 -0.24 -0.01    -0.021 A 
DOCKED: ATOM     17  C   UNL d   1       2.866 -12.125  -3.842 -0.26 +0.00    +0.000 A 
DOCKED: ATOM     18  C   UNL d   1       1.906 -13.112  -3.580 -0.17 +0.03    +0.070 A 
DOCKED: ATOM     19  C   UNL d   1       4.349 -10.699  -2.194 -0.25 +0.01    +0.052 C 
DOCKED: ATOM     20  C   UNL d   1       0.178 -14.772  -4.392 -0.18 +0.05    +0.066 A 
DOCKED: ATOM     21  C   UNL d   1      -0.499 -15.447  -5.403 -0.25 -0.02    -0.025 A 
DOCKED: ATOM     22  C   UNL d   1      -1.338 -16.343  -4.780 -0.14 -0.02    -0.021 A 
DOCKED: ATOM     23  C   UNL d   1      -1.154 -16.168  -3.405 -0.11 +0.07    +0.066 A 
DOCKED: ATOM     24  C   UNL d   1      -0.356 -15.245  -6.890 -0.37 +0.03    +0.051 C 
DOCKED: ATOM     25  N   UNL d   1      -0.928 -15.774  -0.459 -0.04 -0.21    -0.248 N 
DOCKED: ATOM     26  N   UNL d   1       1.081 -13.871   0.447 -0.06 -0.12    -0.248 N 
DOCKED: ATOM     27  N   UNL d   1       1.734 -13.288  -2.245 -0.05 -0.10    -0.248 N 
DOCKED: ATOM     28  N   UNL d   1      -0.264 -15.180  -3.173 -0.07 -0.21    -0.248 N 
DOCKED: ATOM     29 FE   UNL d   1       0.405 -14.528  -1.378 -0.02 +0.00    +0.000 Fe
DOCKED: ATOM     30  O   UNL d   1      -0.790 -13.787  -0.711 -0.19 +0.00    +0.000 OA
DOCKED: ATOM     31  O   UNL d   1      -0.253 -13.302  -2.110 -0.18 +0.00    +0.000 OA
DOCKED: ENDROOT
DOCKED: BRANCH   6  32
DOCKED: ATOM     32  C   UNL d   1      -3.698 -18.248  -0.282 -0.03 +0.05    +0.052 C 
DOCKED: BRANCH  32  33
DOCKED: ATOM     33  C   UNL d   1      -4.857 -17.610  -1.041 -0.06 +0.15    +0.115 C 
DOCKED: BRANCH  33  34
DOCKED: ATOM     34  C   UNL d   1      -5.407 -16.395  -0.335 -0.10 +0.23    +0.139 C 
DOCKED: ATOM     35  O   UNL d   1      -5.597 -15.366  -0.964 -0.33 -1.49    -0.650 OA
DOCKED: BRANCH  34  36
DOCKED: ATOM     36  O   UNL d   1      -5.671 -16.410   0.988 -0.24 -1.54    -0.776 OA
DOCKED: ATOM     37  H   UNL d   1      -6.147 -17.137   1.406 +0.01 +0.23    +0.167 HD
DOCKED: ENDBRANCH  34  36
DOCKED: ENDBRANCH  33  34
DOCKED: ENDBRANCH  32  33
DOCKED: ENDBRANCH   6  32
DOCKED: BRANCH  22  38
DOCKED: ATOM     38  C   UNL d   1      -2.306 -17.267  -5.471 -0.15 +0.06    +0.052 C 
DOCKED: BRANCH  38  39
DOCKED: ATOM     39  C   UNL d   1      -1.622 -18.161  -6.503 -0.13 +0.10    +0.115 C 
DOCKED: BRANCH  39  40
DOCKED: ATOM     40  C   UNL d   1      -2.566 -18.616  -7.588 -0.11 +0.20    +0.139 C 
DOCKED: ATOM     41  O   UNL d   1      -3.320 -17.812  -8.111 -0.50 -1.15    -0.650 OA
DOCKED: BRANCH  40  42
DOCKED: ATOM     42  O   UNL d   1      -2.558 -19.889  -8.029 -0.22 -1.38    -0.776 OA
DOCKED: ATOM     43  H   UNL d   1      -1.856 -20.504  -7.783 +0.02 +0.18    +0.167 HD
DOCKED: ENDBRANCH  40  42
DOCKED: ENDBRANCH  39  40
DOCKED: ENDBRANCH  38  39
DOCKED: ENDBRANCH  22  38
DOCKED: BRANCH  12  44
DOCKED: ATOM     44  C   UNL d   1       3.403 -12.231   2.943 -0.22 +0.00    +0.004 C 
DOCKED: ATOM     45  C   UNL d   1       3.194 -11.267   3.838 -0.31 +0.00    +0.012 C 
DOCKED: ENDBRANCH  12  44
DOCKED: BRANCH  17  46
DOCKED: ATOM     46  C   UNL d   1       3.188 -11.603  -5.217 -0.40 +0.00    +0.004 C 
DOCKED: ATOM     47  C   UNL d   1       3.821 -12.233  -6.215 -0.53 +0.00    +0.012 C 
DOCKED: ENDBRANCH  17  46
DOCKED: TORSDOF 10
DOCKED: TER
DOCKED: ENDMDL
________________________________________________________________________________


	BEGINNING GENETIC ALGORITHM DOCKING 57 of 100
Run: 57 Seed: 1116129852 622954528 [ Run 57 of 100 GA/GALS ]
Beginning LAMARCKIAN GENETIC ALGORITHM (LGA), with a maximum of 25000000 energy evaluations.

Final-Value: -11.320


	FINAL GENETIC ALGORITHM DOCKED STATE
	_______________________________________________


Detailed state:  trans -11.098 -15.020 -2.819 quatxyzw -0.415029 0.534887 0.735480 0.026741 center 8.287 34.468 -0.670 ntor 10 -105.5157 -95.5584 -62.8882 -104.5584 11.5295 -33.6669 101.1052 -45.3446 19.8504 15.8947
State:	-11.098 -15.020  -2.819  -0.415  0.535  0.736 176.935   -105.52  -95.56  -62.89 -104.56   11.53  -33.67  101.11  -45.34   19.85   15.89

DOCKED: MODEL       57
DOCKED: USER    Run = 57
DOCKED: USER    DPF = D:/Protein_go_brrr/autodock/final/AncA/heme_O2/dock.dpf
DOCKED: USER  
DOCKED: USER    Estimated Free Energy of Binding    =   -6.42 kcal/mol  [=(1)+(2)+(3)-(4)]
DOCKED: USER    Estimated Inhibition Constant, Ki   =   19.58 uM (micromolar)  [Temperature = 298.15 K]
DOCKED: USER    
DOCKED: USER    (1) Final Intermolecular Energy     =   -9.41 kcal/mol
DOCKED: USER        vdW + Hbond + desolv Energy     =   -5.68 kcal/mol
DOCKED: USER        Electrostatic Energy            =   -3.72 kcal/mol
DOCKED: USER    (2) Final Total Internal Energy     =   -1.91 kcal/mol
DOCKED: USER    (3) Torsional Free Energy           =   +2.98 kcal/mol
DOCKED: USER    (4) Unbound System's Energy  [=(2)] =   -1.91 kcal/mol
DOCKED: USER    
DOCKED: USER    
DOCKED: USER    NEWDPF move heme_O2_opt.pdbqt
DOCKED: USER    NEWDPF about 8.287000 34.468000 -0.670000
DOCKED: USER    NEWDPF tran0 -11.097826 -15.020321 -2.818707
DOCKED: USER    NEWDPF quaternion0 -0.415029 0.534887 0.735480 0.026741
DOCKED: USER    NEWDPF axisangle0 -0.415177 0.535079 0.735743 176.935286
DOCKED: USER    NEWDPF quat0 -0.415177 0.535079 0.735743 176.935286
DOCKED: USER    NEWDPF dihe0 -105.52 -95.56 -62.89 -104.56 11.53 -33.67 101.11 -45.34 19.85 15.89 
DOCKED: USER  keepresnum = 1 
DOCKED: USER  
DOCKED: REMARK  10 active torsions:
DOCKED: REMARK  status: ('A' for Active; 'I' for Inactive)
DOCKED: REMARK    1  A    between atoms: C_6  and  C_10 
DOCKED: REMARK    2  A    between atoms: C_10  and  C_11 
DOCKED: REMARK    3  A    between atoms: C_11  and  C_12 
DOCKED: REMARK    4  A    between atoms: C_12  and  O_14 
DOCKED: REMARK    5  A    between atoms: C_17  and  C_20 
DOCKED: REMARK    6  A    between atoms: C_24  and  C_27 
DOCKED: REMARK    7  A    between atoms: C_31  and  C_34 
DOCKED: REMARK    8  A    between atoms: C_34  and  C_35 
DOCKED: REMARK    9  A    between atoms: C_35  and  C_36 
DOCKED: REMARK   10  A    between atoms: C_36  and  O_38 
DOCKED: USER                              x       y       z     vdW  Elec       q    Type
DOCKED: USER                           _______ _______ _______ _____ _____    ______ ____
DOCKED: ROOT
DOCKED: ATOM      1  C   UNL d   1      -9.607 -14.985  -1.310 -0.08 +0.04    +0.064 A 
DOCKED: ATOM      2  C   UNL d   1     -11.641 -11.556  -3.891 -0.27 +0.01    +0.064 A 
DOCKED: ATOM      3  C   UNL d   1     -14.319 -14.783  -6.238 -0.08 +0.01    +0.064 C 
DOCKED: ATOM      4  C   UNL d   1     -12.581 -18.271  -3.258 -0.01 +0.02    +0.064 A 
DOCKED: ATOM      5  C   UNL d   1      -9.943 -13.789  -1.819 -0.15 +0.03    +0.066 A 
DOCKED: ATOM      6  C   UNL d   1      -9.368 -12.579  -1.421 -0.25 -0.01    -0.021 A 
DOCKED: ATOM      7  C   UNL d   1      -9.987 -11.581  -2.136 -0.31 -0.01    -0.025 A 
DOCKED: ATOM      8  C   UNL d   1     -10.889 -12.213  -2.988 -0.18 +0.02    +0.066 A 
DOCKED: ATOM      9  C   UNL d   1      -9.723 -10.101  -1.965 -0.47 +0.01    +0.051 C 
DOCKED: ATOM     10  C   UNL d   1     -12.587 -12.166  -4.826 -0.27 +0.01    +0.066 A 
DOCKED: ATOM     11  C   UNL d   1     -13.220 -11.457  -5.853 -0.33 -0.00    -0.021 A 
DOCKED: ATOM     12  C   UNL d   1     -13.983 -12.375  -6.552 -0.22 +0.00    +0.000 A 
DOCKED: ATOM     13  C   UNL d   1     -13.777 -13.616  -5.890 -0.14 +0.01    +0.070 A 
DOCKED: ATOM     14  C   UNL d   1     -13.082  -9.973  -6.171 -0.46 -0.00    +0.052 C 
DOCKED: ATOM     15  C   UNL d   1     -14.164 -16.055  -5.573 -0.03 +0.01    +0.066 A 
DOCKED: ATOM     16  C   UNL d   1     -14.886 -17.205  -5.888 -0.01 -0.00    -0.021 A 
DOCKED: ATOM     17  C   UNL d   1     -14.408 -18.213  -5.051 -0.01 +0.00    +0.000 A 
DOCKED: ATOM     18  C   UNL d   1     -13.415 -17.594  -4.278 -0.01 +0.02    +0.070 A 
DOCKED: ATOM     19  C   UNL d   1     -15.994 -17.226  -6.911 -0.01 +0.01    +0.052 C 
DOCKED: ATOM     20  C   UNL d   1     -11.651 -17.698  -2.470 -0.01 +0.02    +0.066 A 
DOCKED: ATOM     21  C   UNL d   1     -10.884 -18.392  -1.538 -0.01 -0.01    -0.025 A 
DOCKED: ATOM     22  C   UNL d   1     -10.012 -17.476  -0.993 -0.01 -0.01    -0.021 A 
DOCKED: ATOM     23  C   UNL d   1     -10.293 -16.249  -1.601 -0.04 +0.03    +0.066 A 
DOCKED: ATOM     24  C   UNL d   1     -10.980 -19.853  -1.183 +0.00 +0.02    +0.051 C 
DOCKED: ATOM     25  N   UNL d   1     -10.908 -13.567  -2.745 -0.11 -0.09    -0.248 N 
DOCKED: ATOM     26  N   UNL d   1     -12.930 -13.480  -4.838 -0.10 -0.04    -0.248 N 
DOCKED: ATOM     27  N   UNL d   1     -13.333 -16.267  -4.557 -0.02 -0.06    -0.248 N 
DOCKED: ATOM     28  N   UNL d   1     -11.320 -16.380  -2.466 -0.02 -0.09    -0.248 N 
DOCKED: ATOM     29 FE   UNL d   1     -12.121 -14.942  -3.644 -0.03 +0.00    +0.000 Fe
DOCKED: ATOM     30  O   UNL d   1     -12.874 -13.968  -2.691 -0.24 +0.00    +0.000 OA
DOCKED: ATOM     31  O   UNL d   1     -13.271 -15.492  -2.723 -0.13 +0.00    +0.000 OA
DOCKED: ENDROOT
DOCKED: BRANCH   6  32
DOCKED: ATOM     32  C   UNL d   1      -8.373 -12.350  -0.312 -0.26 +0.04    +0.052 C 
DOCKED: BRANCH  32  33
DOCKED: ATOM     33  C   UNL d   1      -6.954 -12.127  -0.826 -0.13 +0.11    +0.115 C 
DOCKED: BRANCH  33  34
DOCKED: ATOM     34  C   UNL d   1      -6.252 -13.421  -1.157 -0.19 +0.23    +0.139 C 
DOCKED: ATOM     35  O   UNL d   1      -5.075 -13.560  -0.863 -0.08 -1.32    -0.650 OA
DOCKED: BRANCH  34  36
DOCKED: ATOM     36  O   UNL d   1      -6.889 -14.423  -1.797 -0.34 -1.42    -0.776 OA
DOCKED: ATOM     37  H   UNL d   1      -7.177 -15.221  -1.339 +0.03 +0.25    +0.167 HD
DOCKED: ENDBRANCH  34  36
DOCKED: ENDBRANCH  33  34
DOCKED: ENDBRANCH  32  33
DOCKED: ENDBRANCH   6  32
DOCKED: BRANCH  22  38
DOCKED: ATOM     38  C   UNL d   1      -9.011 -17.758   0.099 +0.00 +0.03    +0.052 C 
DOCKED: BRANCH  38  39
DOCKED: ATOM     39  C   UNL d   1      -7.572 -17.536  -0.360 -0.01 +0.09    +0.115 C 
DOCKED: BRANCH  39  40
DOCKED: ATOM     40  C   UNL d   1      -6.766 -16.739   0.635 -0.05 +0.18    +0.139 C 
DOCKED: ATOM     41  O   UNL d   1      -5.867 -17.280   1.259 -0.04 -0.89    -0.650 OA
DOCKED: BRANCH  40  42
DOCKED: ATOM     42  O   UNL d   1      -6.986 -15.422   0.814 -0.14 -1.30    -0.776 OA
DOCKED: ATOM     43  H   UNL d   1      -6.488 -14.756   0.325 +0.03 +0.32    +0.167 HD
DOCKED: ENDBRANCH  40  42
DOCKED: ENDBRANCH  39  40
DOCKED: ENDBRANCH  38  39
DOCKED: ENDBRANCH  22  38
DOCKED: BRANCH  12  44
DOCKED: ATOM     44  C   UNL d   1     -14.816 -11.978  -7.754 -0.23 +0.00    +0.004 C 
DOCKED: ATOM     45  C   UNL d   1     -14.637 -12.331  -9.026 -0.28 +0.00    +0.012 C 
DOCKED: ENDBRANCH  12  44
DOCKED: BRANCH  17  46
DOCKED: ATOM     46  C   UNL d   1     -14.837 -19.646  -4.885 -0.00 +0.00    +0.004 C 
DOCKED: ATOM     47  C   UNL d   1     -15.447 -20.212  -3.835 +0.00 +0.00    +0.012 C 
DOCKED: ENDBRANCH  17  46
DOCKED: TORSDOF 10
DOCKED: TER
DOCKED: ENDMDL
________________________________________________________________________________


	BEGINNING GENETIC ALGORITHM DOCKING 58 of 100
Run: 58 Seed: 159258243 639725986 [ Run 58 of 100 GA/GALS ]
Beginning LAMARCKIAN GENETIC ALGORITHM (LGA), with a maximum of 25000000 energy evaluations.

Final-Value: -11.652


	FINAL GENETIC ALGORITHM DOCKED STATE
	_______________________________________________


Detailed state:  trans -11.257 -14.386 -1.207 quatxyzw -0.751725 -0.595354 0.282521 0.025395 center 8.287 34.468 -0.670 ntor 10 139.5208 -3.3615 -26.2012 48.3094 -147.2243 -48.0816 -111.1431 180.0000 -171.0463 -179.9784
State:	-11.257 -14.386  -1.207  -0.752 -0.596  0.283 177.090    139.52   -3.36  -26.20   48.31 -147.22  -48.08 -111.14  180.00 -171.05 -179.98

DOCKED: MODEL       58
DOCKED: USER    Run = 58
DOCKED: USER    DPF = D:/Protein_go_brrr/autodock/final/AncA/heme_O2/dock.dpf
DOCKED: USER  
DOCKED: USER    Estimated Free Energy of Binding    =   -6.38 kcal/mol  [=(1)+(2)+(3)-(4)]
DOCKED: USER    Estimated Inhibition Constant, Ki   =   21.21 uM (micromolar)  [Temperature = 298.15 K]
DOCKED: USER    
DOCKED: USER    (1) Final Intermolecular Energy     =   -9.36 kcal/mol
DOCKED: USER        vdW + Hbond + desolv Energy     =   -7.20 kcal/mol
DOCKED: USER        Electrostatic Energy            =   -2.16 kcal/mol
DOCKED: USER    (2) Final Total Internal Energy     =   -2.29 kcal/mol
DOCKED: USER    (3) Torsional Free Energy           =   +2.98 kcal/mol
DOCKED: USER    (4) Unbound System's Energy  [=(2)] =   -2.29 kcal/mol
DOCKED: USER    
DOCKED: USER    
DOCKED: USER    NEWDPF move heme_O2_opt.pdbqt
DOCKED: USER    NEWDPF about 8.287000 34.468000 -0.670000
DOCKED: USER    NEWDPF tran0 -11.257144 -14.386408 -1.206713
DOCKED: USER    NEWDPF quaternion0 -0.751725 -0.595354 0.282521 0.025395
DOCKED: USER    NEWDPF axisangle0 -0.751968 -0.595546 0.282612 177.089603
DOCKED: USER    NEWDPF quat0 -0.751968 -0.595546 0.282612 177.089603
DOCKED: USER    NEWDPF dihe0 139.52 -3.36 -26.20 48.31 -147.22 -48.08 -111.14 180.00 -171.05 -179.98 
DOCKED: USER  keepresnum = 1 
DOCKED: USER  
DOCKED: REMARK  10 active torsions:
DOCKED: REMARK  status: ('A' for Active; 'I' for Inactive)
DOCKED: REMARK    1  A    between atoms: C_6  and  C_10 
DOCKED: REMARK    2  A    between atoms: C_10  and  C_11 
DOCKED: REMARK    3  A    between atoms: C_11  and  C_12 
DOCKED: REMARK    4  A    between atoms: C_12  and  O_14 
DOCKED: REMARK    5  A    between atoms: C_17  and  C_20 
DOCKED: REMARK    6  A    between atoms: C_24  and  C_27 
DOCKED: REMARK    7  A    between atoms: C_31  and  C_34 
DOCKED: REMARK    8  A    between atoms: C_34  and  C_35 
DOCKED: REMARK    9  A    between atoms: C_35  and  C_36 
DOCKED: REMARK   10  A    between atoms: C_36  and  O_38 
DOCKED: USER                              x       y       z     vdW  Elec       q    Type
DOCKED: USER                           _______ _______ _______ _____ _____    ______ ____
DOCKED: ROOT
DOCKED: ATOM      1  C   UNL d   1     -10.640 -15.908   0.136 -0.07 +0.03    +0.064 A 
DOCKED: ATOM      2  C   UNL d   1     -14.428 -15.472  -2.696 -0.11 +0.01    +0.064 A 
DOCKED: ATOM      3  C   UNL d   1     -12.927 -11.158  -4.192 -0.08 -0.00    +0.064 C 
DOCKED: ATOM      4  C   UNL d   1      -8.785 -11.806  -1.645 -0.25 +0.04    +0.064 A 
DOCKED: ATOM      5  C   UNL d   1     -11.792 -16.142  -0.514 -0.09 +0.02    +0.066 A 
DOCKED: ATOM      6  C   UNL d   1     -12.569 -17.291  -0.340 -0.05 -0.01    -0.021 A 
DOCKED: ATOM      7  C   UNL d   1     -13.644 -17.185  -1.191 -0.06 -0.01    -0.025 A 
DOCKED: ATOM      8  C   UNL d   1     -13.519 -15.953  -1.826 -0.11 +0.01    +0.066 A 
DOCKED: ATOM      9  C   UNL d   1     -14.704 -18.248  -1.383 -0.03 +0.01    +0.051 C 
DOCKED: ATOM     10  C   UNL d   1     -14.363 -14.177  -3.376 -0.15 +0.01    +0.066 A 
DOCKED: ATOM     11  C   UNL d   1     -15.412 -13.656  -4.141 -0.12 -0.00    -0.021 A 
DOCKED: ATOM     12  C   UNL d   1     -15.005 -12.405  -4.567 -0.20 +0.00    +0.000 A 
DOCKED: ATOM     13  C   UNL d   1     -13.697 -12.235  -4.035 -0.24 +0.00    +0.070 A 
DOCKED: ATOM     14  C   UNL d   1     -16.757 -14.313  -4.432 -0.06 +0.01    +0.052 C 
DOCKED: ATOM     15  C   UNL d   1     -11.585 -10.962  -3.701 -0.28 +0.01    +0.066 A 
DOCKED: ATOM     16  C   UNL d   1     -10.770  -9.881  -4.037 -0.46 -0.00    -0.021 A 
DOCKED: ATOM     17  C   UNL d   1      -9.583 -10.045  -3.323 -0.41 +0.00    +0.000 A 
DOCKED: ATOM     18  C   UNL d   1      -9.766 -11.228  -2.593 -0.30 +0.02    +0.070 A 
DOCKED: ATOM     19  C   UNL d   1     -11.171  -8.830  -5.041 -0.29 +0.01    +0.052 C 
DOCKED: ATOM     20  C   UNL d   1      -8.910 -12.961  -0.962 -0.20 +0.04    +0.066 A 
DOCKED: ATOM     21  C   UNL d   1      -7.960 -13.446  -0.069 -0.19 -0.03    -0.025 A 
DOCKED: ATOM     22  C   UNL d   1      -8.483 -14.600   0.469 -0.11 -0.02    -0.021 A 
DOCKED: ATOM     23  C   UNL d   1      -9.732 -14.787  -0.133 -0.10 +0.04    +0.066 A 
DOCKED: ATOM     24  C   UNL d   1      -6.618 -12.841   0.253 -0.28 +0.07    +0.051 C 
DOCKED: ATOM     25  N   UNL d   1     -12.344 -15.340  -1.457 -0.10 -0.06    -0.248 N 
DOCKED: ATOM     26  N   UNL d   1     -13.312 -13.320  -3.316 -0.13 -0.03    -0.248 N 
DOCKED: ATOM     27  N   UNL d   1     -10.956 -11.810  -2.892 -0.18 -0.06    -0.248 N 
DOCKED: ATOM     28  N   UNL d   1      -9.968 -13.812  -1.035 -0.10 -0.13    -0.248 N 
DOCKED: ATOM     29 FE   UNL d   1     -11.626 -13.565  -2.168 -0.05 +0.00    +0.000 Fe
DOCKED: ATOM     30  O   UNL d   1     -11.611 -14.715  -3.218 -0.16 +0.00    +0.000 OA
DOCKED: ATOM     31  O   UNL d   1     -10.403 -13.706  -3.147 -0.15 +0.00    +0.000 OA
DOCKED: ENDROOT
DOCKED: BRANCH   6  32
DOCKED: ATOM     32  C   UNL d   1     -12.247 -18.506   0.491 -0.02 +0.01    +0.052 C 
DOCKED: BRANCH  32  33
DOCKED: ATOM     33  C   UNL d   1     -11.430 -19.545  -0.270 -0.00 +0.03    +0.115 C 
DOCKED: BRANCH  33  34
DOCKED: ATOM     34  C   UNL d   1     -10.044 -19.052  -0.606 +0.00 +0.05    +0.139 C 
DOCKED: ATOM     35  O   UNL d   1      -9.272 -18.762   0.294 +0.02 -0.29    -0.650 OA
DOCKED: BRANCH  34  36
DOCKED: ATOM     36  O   UNL d   1      -9.643 -18.897  -1.885 +0.02 -0.34    -0.776 OA
DOCKED: ATOM     37  H   UNL d   1      -9.108 -18.146  -2.165 +0.01 +0.09    +0.167 HD
DOCKED: ENDBRANCH  34  36
DOCKED: ENDBRANCH  33  34
DOCKED: ENDBRANCH  32  33
DOCKED: ENDBRANCH   6  32
DOCKED: BRANCH  22  38
DOCKED: ATOM     38  C   UNL d   1      -7.790 -15.503   1.456 -0.08 +0.07    +0.052 C 
DOCKED: BRANCH  38  39
DOCKED: ATOM     39  C   UNL d   1      -6.749 -16.401   0.792 -0.04 +0.17    +0.115 C 
DOCKED: BRANCH  39  40
DOCKED: ATOM     40  C   UNL d   1      -6.678 -16.195  -0.701 -0.07 +0.20    +0.139 C 
DOCKED: ATOM     41  O   UNL d   1      -5.833 -15.451  -1.171 -0.40 -1.46    -0.650 OA
DOCKED: BRANCH  40  42
DOCKED: ATOM     42  O   UNL d   1      -7.501 -16.860  -1.535 -0.01 -0.80    -0.776 OA
DOCKED: ATOM     43  H   UNL d   1      -8.152 -17.491  -1.205 +0.02 +0.12    +0.167 HD
DOCKED: ENDBRANCH  40  42
DOCKED: ENDBRANCH  39  40
DOCKED: ENDBRANCH  38  39
DOCKED: ENDBRANCH  22  38
DOCKED: BRANCH  12  44
DOCKED: ATOM     44  C   UNL d   1     -15.888 -11.521  -5.422 -0.22 +0.00    +0.004 C 
DOCKED: ATOM     45  C   UNL d   1     -15.930 -10.189  -5.452 -0.36 -0.00    +0.012 C 
DOCKED: ENDBRANCH  12  44
DOCKED: BRANCH  17  46
DOCKED: ATOM     46  C   UNL d   1      -8.313  -9.236  -3.318 -0.47 +0.00    +0.004 C 
DOCKED: ATOM     47  C   UNL d   1      -8.180  -7.903  -3.331 -0.51 +0.00    +0.012 C 
DOCKED: ENDBRANCH  17  46
DOCKED: TORSDOF 10
DOCKED: TER
DOCKED: ENDMDL
________________________________________________________________________________


	BEGINNING GENETIC ALGORITHM DOCKING 59 of 100
Run: 59 Seed: 540702929 1543237615 [ Run 59 of 100 GA/GALS ]
Beginning LAMARCKIAN GENETIC ALGORITHM (LGA), with a maximum of 25000000 energy evaluations.

Final-Value: -12.115


	FINAL GENETIC ALGORITHM DOCKED STATE
	_______________________________________________


Detailed state:  trans -0.119 -15.104 -2.538 quatxyzw -0.852346 -0.206290 -0.425704 0.222995 center 8.287 34.468 -0.670 ntor 10 -4.5368 -49.7488 -47.3617 94.5086 176.1007 -24.5576 18.2571 105.1588 -180.0000 12.8178
State:	 -0.119 -15.104  -2.538  -0.874 -0.212 -0.437 154.230     -4.54  -49.75  -47.36   94.51  176.10  -24.56   18.26  105.16 -180.00   12.82

DOCKED: MODEL       59
DOCKED: USER    Run = 59
DOCKED: USER    DPF = D:/Protein_go_brrr/autodock/final/AncA/heme_O2/dock.dpf
DOCKED: USER  
DOCKED: USER    Estimated Free Energy of Binding    =   -8.42 kcal/mol  [=(1)+(2)+(3)-(4)]
DOCKED: USER    Estimated Inhibition Constant, Ki   =  678.43 nM (nanomolar)  [Temperature = 298.15 K]
DOCKED: USER    
DOCKED: USER    (1) Final Intermolecular Energy     =  -11.40 kcal/mol
DOCKED: USER        vdW + Hbond + desolv Energy     =   -7.20 kcal/mol
DOCKED: USER        Electrostatic Energy            =   -4.19 kcal/mol
DOCKED: USER    (2) Final Total Internal Energy     =   -0.72 kcal/mol
DOCKED: USER    (3) Torsional Free Energy           =   +2.98 kcal/mol
DOCKED: USER    (4) Unbound System's Energy  [=(2)] =   -0.72 kcal/mol
DOCKED: USER    
DOCKED: USER    
DOCKED: USER    NEWDPF move heme_O2_opt.pdbqt
DOCKED: USER    NEWDPF about 8.287000 34.468000 -0.670000
DOCKED: USER    NEWDPF tran0 -0.119006 -15.103931 -2.537856
DOCKED: USER    NEWDPF quaternion0 -0.852346 -0.206290 -0.425704 0.222995
DOCKED: USER    NEWDPF axisangle0 -0.874363 -0.211618 -0.436700 154.229936
DOCKED: USER    NEWDPF quat0 -0.874363 -0.211618 -0.436700 154.229936
DOCKED: USER    NEWDPF dihe0 -4.54 -49.75 -47.36 94.51 176.10 -24.56 18.26 105.16 -180.00 12.82 
DOCKED: USER  keepresnum = 1 
DOCKED: USER  
DOCKED: REMARK  10 active torsions:
DOCKED: REMARK  status: ('A' for Active; 'I' for Inactive)
DOCKED: REMARK    1  A    between atoms: C_6  and  C_10 
DOCKED: REMARK    2  A    between atoms: C_10  and  C_11 
DOCKED: REMARK    3  A    between atoms: C_11  and  C_12 
DOCKED: REMARK    4  A    between atoms: C_12  and  O_14 
DOCKED: REMARK    5  A    between atoms: C_17  and  C_20 
DOCKED: REMARK    6  A    between atoms: C_24  and  C_27 
DOCKED: REMARK    7  A    between atoms: C_31  and  C_34 
DOCKED: REMARK    8  A    between atoms: C_34  and  C_35 
DOCKED: REMARK    9  A    between atoms: C_35  and  C_36 
DOCKED: REMARK   10  A    between atoms: C_36  and  O_38 
DOCKED: USER                              x       y       z     vdW  Elec       q    Type
DOCKED: USER                           _______ _______ _______ _____ _____    ______ ____
DOCKED: ROOT
DOCKED: ATOM      1  C   UNL d   1      -1.709 -16.444  -2.958 -0.05 +0.09    +0.064 A 
DOCKED: ATOM      2  C   UNL d   1       1.530 -14.342  -5.724 -0.29 +0.03    +0.064 A 
DOCKED: ATOM      3  C   UNL d   1       3.426 -12.072  -1.936 -0.21 +0.01    +0.064 C 
DOCKED: ATOM      4  C   UNL d   1       0.403 -14.597   0.988 -0.10 +0.04    +0.064 A 
DOCKED: ATOM      5  C   UNL d   1      -0.981 -16.059  -4.019 -0.13 +0.07    +0.066 A 
DOCKED: ATOM      6  C   UNL d   1      -1.226 -16.478  -5.330 -0.18 -0.02    -0.021 A 
DOCKED: ATOM      7  C   UNL d   1      -0.262 -15.905  -6.125 -0.27 -0.02    -0.025 A 
DOCKED: ATOM      8  C   UNL d   1       0.515 -15.112  -5.286 -0.23 +0.04    +0.066 A 
DOCKED: ATOM      9  C   UNL d   1      -0.106 -16.151  -7.610 -0.17 +0.03    +0.051 C 
DOCKED: ATOM     10  C   UNL d   1       2.367 -13.473  -4.895 -0.24 +0.03    +0.066 A 
DOCKED: ATOM     11  C   UNL d   1       3.298 -12.571  -5.421 -0.34 -0.01    -0.021 A 
DOCKED: ATOM     12  C   UNL d   1       3.843 -11.894  -4.346 -0.30 +0.00    +0.000 A 
DOCKED: ATOM     13  C   UNL d   1       3.207 -12.442  -3.197 -0.17 +0.02    +0.070 A 
DOCKED: ATOM     14  C   UNL d   1       3.635 -12.346  -6.891 -0.47 +0.01    +0.052 C 
DOCKED: ATOM     15  C   UNL d   1       2.830 -12.625  -0.744 -0.14 +0.02    +0.066 A 
DOCKED: ATOM     16  C   UNL d   1       3.222 -12.309   0.556 -0.20 -0.01    -0.021 A 
DOCKED: ATOM     17  C   UNL d   1       2.374 -13.018   1.407 -0.16 +0.00    +0.000 A 
DOCKED: ATOM     18  C   UNL d   1       1.516 -13.722   0.551 -0.10 +0.03    +0.070 A 
DOCKED: ATOM     19  C   UNL d   1       4.393 -11.411   0.867 -0.22 +0.01    +0.052 C 
DOCKED: ATOM     20  C   UNL d   1      -0.411 -15.320   0.195 -0.08 +0.05    +0.066 A 
DOCKED: ATOM     21  C   UNL d   1      -1.454 -16.114   0.664 -0.09 -0.02    -0.025 A 
DOCKED: ATOM     22  C   UNL d   1      -2.084 -16.627  -0.448 -0.08 -0.02    -0.021 A 
DOCKED: ATOM     23  C   UNL d   1      -1.388 -16.139  -1.559 -0.07 +0.07    +0.066 A 
DOCKED: ATOM     24  C   UNL d   1      -1.829 -16.373   2.100 -0.01 +0.05    +0.051 C 
DOCKED: ATOM     25  N   UNL d   1       0.112 -15.259  -3.979 -0.07 -0.18    -0.248 N 
DOCKED: ATOM     26  N   UNL d   1       2.314 -13.405  -3.540 -0.07 -0.09    -0.248 N 
DOCKED: ATOM     27  N   UNL d   1       1.855 -13.530  -0.750 -0.04 -0.10    -0.248 N 
DOCKED: ATOM     28  N   UNL d   1      -0.344 -15.382  -1.162 -0.03 -0.19    -0.248 N 
DOCKED: ATOM     29 FE   UNL d   1       0.976 -14.400  -2.340 -0.02 +0.00    +0.000 Fe
DOCKED: ATOM     30  O   UNL d   1       1.856 -15.493  -3.013 -0.06 +0.00    +0.000 OA
DOCKED: ATOM     31  O   UNL d   1       1.796 -15.397  -1.442 -0.04 +0.00    +0.000 OA
DOCKED: ENDROOT
DOCKED: BRANCH   6  32
DOCKED: ATOM     32  C   UNL d   1      -2.240 -17.488  -5.801 -0.17 +0.06    +0.052 C 
DOCKED: BRANCH  32  33
DOCKED: ATOM     33  C   UNL d   1      -1.650 -18.884  -5.974 -0.07 +0.10    +0.115 C 
DOCKED: BRANCH  33  34
DOCKED: ATOM     34  C   UNL d   1      -2.537 -19.786  -6.796 -0.08 +0.17    +0.139 C 
DOCKED: ATOM     35  O   UNL d   1      -3.316 -19.297  -7.599 -0.19 -1.55    -0.650 OA
DOCKED: BRANCH  34  36
DOCKED: ATOM     36  O   UNL d   1      -2.510 -21.126  -6.646 +0.01 -0.74    -0.776 OA
DOCKED: ATOM     37  H   UNL d   1      -1.885 -21.562  -6.055 +0.01 +0.11    +0.167 HD
DOCKED: ENDBRANCH  34  36
DOCKED: ENDBRANCH  33  34
DOCKED: ENDBRANCH  32  33
DOCKED: ENDBRANCH   6  32
DOCKED: BRANCH  22  38
DOCKED: ATOM     38  C   UNL d   1      -3.249 -17.582  -0.435 -0.06 +0.06    +0.052 C 
DOCKED: BRANCH  38  39
DOCKED: ATOM     39  C   UNL d   1      -4.516 -16.963  -1.022 -0.06 +0.18    +0.115 C 
DOCKED: BRANCH  39  40
DOCKED: ATOM     40  C   UNL d   1      -5.179 -15.998  -0.071 +0.00 +0.27    +0.139 C 
DOCKED: ATOM     41  O   UNL d   1      -5.327 -14.831  -0.398 -0.46 -1.41    -0.650 OA
DOCKED: BRANCH  40  42
DOCKED: ATOM     42  O   UNL d   1      -5.659 -16.410   1.118 -0.12 -1.61    -0.776 OA
DOCKED: ATOM     43  H   UNL d   1      -6.204 -17.203   1.194 +0.01 +0.22    +0.167 HD
DOCKED: ENDBRANCH  40  42
DOCKED: ENDBRANCH  39  40
DOCKED: ENDBRANCH  38  39
DOCKED: ENDBRANCH  22  38
DOCKED: BRANCH  12  44
DOCKED: ATOM     44  C   UNL d   1       4.895 -10.819  -4.522 -0.47 +0.00    +0.004 C 
DOCKED: ATOM     45  C   UNL d   1       4.890  -9.581  -4.031 -0.37 +0.00    +0.012 C 
DOCKED: ENDBRANCH  12  44
DOCKED: BRANCH  17  46
DOCKED: ATOM     46  C   UNL d   1       2.347 -13.127   2.909 -0.19 +0.00    +0.004 C 
DOCKED: ATOM     47  C   UNL d   1       1.717 -12.334   3.786 -0.35 +0.00    +0.012 C 
DOCKED: ENDBRANCH  17  46
DOCKED: TORSDOF 10
DOCKED: TER
DOCKED: ENDMDL
________________________________________________________________________________


	BEGINNING GENETIC ALGORITHM DOCKING 60 of 100
Run: 60 Seed: 1379914133 1272088645 [ Run 60 of 100 GA/GALS ]
Beginning LAMARCKIAN GENETIC ALGORITHM (LGA), with a maximum of 25000000 energy evaluations.

Final-Value: -12.432


	FINAL GENETIC ALGORITHM DOCKED STATE
	_______________________________________________


Detailed state:  trans 0.074 -15.527 -1.998 quatxyzw 0.407994 -0.036942 -0.403469 0.818162 center 8.287 34.468 -0.670 ntor 10 -131.3868 -49.3683 -47.5532 111.2185 -161.0494 88.3796 -127.8106 -60.6974 171.4012 -163.2889
State:	  0.074 -15.527  -1.998   0.710 -0.064 -0.702 70.198   -131.39  -49.37  -47.55  111.22 -161.05   88.38 -127.81  -60.70  171.40 -163.29

DOCKED: MODEL       60
DOCKED: USER    Run = 60
DOCKED: USER    DPF = D:/Protein_go_brrr/autodock/final/AncA/heme_O2/dock.dpf
DOCKED: USER  
DOCKED: USER    Estimated Free Energy of Binding    =   -8.69 kcal/mol  [=(1)+(2)+(3)-(4)]
DOCKED: USER    Estimated Inhibition Constant, Ki   =  428.81 nM (nanomolar)  [Temperature = 298.15 K]
DOCKED: USER    
DOCKED: USER    (1) Final Intermolecular Energy     =  -11.67 kcal/mol
DOCKED: USER        vdW + Hbond + desolv Energy     =   -6.97 kcal/mol
DOCKED: USER        Electrostatic Energy            =   -4.70 kcal/mol
DOCKED: USER    (2) Final Total Internal Energy     =   -0.76 kcal/mol
DOCKED: USER    (3) Torsional Free Energy           =   +2.98 kcal/mol
DOCKED: USER    (4) Unbound System's Energy  [=(2)] =   -0.76 kcal/mol
DOCKED: USER    
DOCKED: USER    
DOCKED: USER    NEWDPF move heme_O2_opt.pdbqt
DOCKED: USER    NEWDPF about 8.287000 34.468000 -0.670000
DOCKED: USER    NEWDPF tran0 0.073982 -15.527389 -1.998355
DOCKED: USER    NEWDPF quaternion0 0.407994 -0.036942 -0.403469 0.818162
DOCKED: USER    NEWDPF axisangle0 0.709569 -0.064249 -0.701700 70.197522
DOCKED: USER    NEWDPF quat0 0.709569 -0.064249 -0.701700 70.197522
DOCKED: USER    NEWDPF dihe0 -131.39 -49.37 -47.55 111.22 -161.05 88.38 -127.81 -60.70 171.40 -163.29 
DOCKED: USER  keepresnum = 1 
DOCKED: USER  
DOCKED: REMARK  10 active torsions:
DOCKED: REMARK  status: ('A' for Active; 'I' for Inactive)
DOCKED: REMARK    1  A    between atoms: C_6  and  C_10 
DOCKED: REMARK    2  A    between atoms: C_10  and  C_11 
DOCKED: REMARK    3  A    between atoms: C_11  and  C_12 
DOCKED: REMARK    4  A    between atoms: C_12  and  O_14 
DOCKED: REMARK    5  A    between atoms: C_17  and  C_20 
DOCKED: REMARK    6  A    between atoms: C_24  and  C_27 
DOCKED: REMARK    7  A    between atoms: C_31  and  C_34 
DOCKED: REMARK    8  A    between atoms: C_34  and  C_35 
DOCKED: REMARK    9  A    between atoms: C_35  and  C_36 
DOCKED: REMARK   10  A    between atoms: C_36  and  O_38 
DOCKED: USER                              x       y       z     vdW  Elec       q    Type
DOCKED: USER                           _______ _______ _______ _____ _____    ______ ____
DOCKED: ROOT
DOCKED: ATOM      1  C   UNL d   1      -1.383 -17.058  -2.185 -0.05 +0.06    +0.064 A 
DOCKED: ATOM      2  C   UNL d   1       0.293 -14.664   1.559 -0.11 +0.04    +0.064 A 
DOCKED: ATOM      3  C   UNL d   1       3.303 -12.189  -1.254 -0.21 +0.01    +0.064 C 
DOCKED: ATOM      4  C   UNL d   1       1.250 -14.306  -5.174 -0.25 +0.03    +0.064 A 
DOCKED: ATOM      5  C   UNL d   1      -1.174 -16.607  -0.937 -0.04 +0.06    +0.066 A 
DOCKED: ATOM      6  C   UNL d   1      -1.840 -17.092   0.192 -0.05 -0.02    -0.021 A 
DOCKED: ATOM      7  C   UNL d   1      -1.387 -16.370   1.271 -0.08 -0.02    -0.025 A 
DOCKED: ATOM      8  C   UNL d   1      -0.421 -15.496   0.778 -0.08 +0.05    +0.066 A 
DOCKED: ATOM      9  C   UNL d   1      -1.900 -16.515   2.687 -0.00 +0.05    +0.051 C 
DOCKED: ATOM     10  C   UNL d   1       1.334 -13.742   1.103 -0.12 +0.03    +0.066 A 
DOCKED: ATOM     11  C   UNL d   1       2.157 -13.019   1.974 -0.17 -0.01    -0.021 A 
DOCKED: ATOM     12  C   UNL d   1       3.044 -12.313   1.182 -0.21 +0.00    +0.000 A 
DOCKED: ATOM     13  C   UNL d   1       2.696 -12.643  -0.157 -0.15 +0.02    +0.070 A 
DOCKED: ATOM     14  C   UNL d   1       2.118 -13.023   3.497 -0.21 +0.02    +0.052 C 
DOCKED: ATOM     15  C   UNL d   1       2.959 -12.471  -2.626 -0.15 +0.02    +0.066 A 
DOCKED: ATOM     16  C   UNL d   1       3.527 -11.837  -3.730 -0.26 -0.00    -0.021 A 
DOCKED: ATOM     17  C   UNL d   1       2.957 -12.423  -4.860 -0.30 +0.00    +0.000 A 
DOCKED: ATOM     18  C   UNL d   1       2.072 -13.386  -4.353 -0.20 +0.03    +0.070 A 
DOCKED: ATOM     19  C   UNL d   1       4.513 -10.702  -3.609 -0.41 +0.01    +0.052 C 
DOCKED: ATOM     20  C   UNL d   1       0.360 -15.210  -4.722 -0.17 +0.04    +0.066 A 
DOCKED: ATOM     21  C   UNL d   1      -0.373 -16.062  -5.543 -0.21 -0.02    -0.025 A 
DOCKED: ATOM     22  C   UNL d   1      -1.109 -16.872  -4.708 -0.13 -0.02    -0.021 A 
DOCKED: ATOM     23  C   UNL d   1      -0.810 -16.471  -3.402 -0.09 +0.06    +0.066 A 
DOCKED: ATOM     24  C   UNL d   1      -0.374 -16.099  -7.050 -0.32 +0.03    +0.051 C 
DOCKED: ATOM     25  N   UNL d   1      -0.338 -15.598  -0.592 -0.03 -0.18    -0.248 N 
DOCKED: ATOM     26  N   UNL d   1       1.651 -13.509  -0.196 -0.05 -0.10    -0.248 N 
DOCKED: ATOM     27  N   UNL d   1       2.031 -13.349  -2.997 -0.06 -0.10    -0.248 N 
DOCKED: ATOM     28  N   UNL d   1       0.049 -15.430  -3.417 -0.05 -0.19    -0.248 N 
DOCKED: ATOM     29 FE   UNL d   1       0.846 -14.475  -1.820 -0.02 +0.00    +0.000 Fe
DOCKED: ATOM     30  O   UNL d   1      -0.319 -13.675  -1.166 -0.16 +0.00    +0.000 OA
DOCKED: ATOM     31  O   UNL d   1       0.067 -13.405  -2.670 -0.18 +0.00    +0.000 OA
DOCKED: ENDROOT
DOCKED: BRANCH   6  32
DOCKED: ATOM     32  C   UNL d   1      -2.959 -18.100   0.241 -0.03 +0.04    +0.052 C 
DOCKED: BRANCH  32  33
DOCKED: ATOM     33  C   UNL d   1      -4.319 -17.462   0.507 -0.07 +0.14    +0.115 C 
DOCKED: BRANCH  33  34
DOCKED: ATOM     34  C   UNL d   1      -4.597 -16.296  -0.410 -0.11 +0.24    +0.139 C 
DOCKED: ATOM     35  O   UNL d   1      -4.409 -16.415  -1.610 +0.26 -1.53    -0.650 OA
DOCKED: BRANCH  34  36
DOCKED: ATOM     36  O   UNL d   1      -5.024 -15.110   0.071 -0.47 -1.84    -0.776 OA
DOCKED: ATOM     37  H   UNL d   1      -5.782 -14.649  -0.307 +0.03 +0.34    +0.167 HD
DOCKED: ENDBRANCH  34  36
DOCKED: ENDBRANCH  33  34
DOCKED: ENDBRANCH  32  33
DOCKED: ENDBRANCH   6  32
DOCKED: BRANCH  22  38
DOCKED: ATOM     38  C   UNL d   1      -2.091 -17.927  -5.147 -0.13 +0.05    +0.052 C 
DOCKED: BRANCH  38  39
DOCKED: ATOM     39  C   UNL d   1      -3.249 -17.344  -5.954 +0.01 +0.16    +0.115 C 
DOCKED: BRANCH  39  40
DOCKED: ATOM     40  C   UNL d   1      -3.304 -17.889  -7.359 -0.15 +0.22    +0.139 C 
DOCKED: ATOM     41  O   UNL d   1      -3.341 -17.120  -8.306 -0.23 -0.89    -0.650 OA
DOCKED: BRANCH  40  42
DOCKED: ATOM     42  O   UNL d   1      -3.263 -19.215  -7.594 -0.21 -1.79    -0.776 OA
DOCKED: ATOM     43  H   UNL d   1      -2.617 -19.784  -7.159 +0.02 +0.23    +0.167 HD
DOCKED: ENDBRANCH  40  42
DOCKED: ENDBRANCH  39  40
DOCKED: ENDBRANCH  38  39
DOCKED: ENDBRANCH  22  38
DOCKED: BRANCH  12  44
DOCKED: ATOM     44  C   UNL d   1       4.108 -11.412   1.773 -0.25 +0.00    +0.004 C 
DOCKED: ATOM     45  C   UNL d   1       5.416 -11.414   1.518 -0.23 +0.00    +0.012 C 
DOCKED: ENDBRANCH  12  44
DOCKED: BRANCH  17  46
DOCKED: ATOM     46  C   UNL d   1       3.128 -12.121  -6.324 -0.34 +0.00    +0.004 C 
DOCKED: ATOM     47  C   UNL d   1       3.825 -12.810  -7.237 -0.54 +0.00    +0.012 C 
DOCKED: ENDBRANCH  17  46
DOCKED: TORSDOF 10
DOCKED: TER
DOCKED: ENDMDL
________________________________________________________________________________


	BEGINNING GENETIC ALGORITHM DOCKING 61 of 100
Run: 61 Seed: 1726938772 1791017822 [ Run 61 of 100 GA/GALS ]
Beginning LAMARCKIAN GENETIC ALGORITHM (LGA), with a maximum of 25000000 energy evaluations.

Final-Value: -11.921


	FINAL GENETIC ALGORITHM DOCKED STATE
	_______________________________________________


Detailed state:  trans -0.292 -15.775 -2.529 quatxyzw -0.419836 -0.058857 0.382624 -0.820897 center 8.287 34.468 -0.670 ntor 10 -100.5625 -115.0003 -27.5118 135.9876 17.9179 167.6066 -87.9279 37.8691 161.3824 175.0161
State:	 -0.292 -15.775  -2.529  -0.735 -0.103  0.670 -69.651   -100.56 -115.00  -27.51  135.99   17.92  167.61  -87.93   37.87  161.38  175.02

DOCKED: MODEL       61
DOCKED: USER    Run = 61
DOCKED: USER    DPF = D:/Protein_go_brrr/autodock/final/AncA/heme_O2/dock.dpf
DOCKED: USER  
DOCKED: USER    Estimated Free Energy of Binding    =   -7.41 kcal/mol  [=(1)+(2)+(3)-(4)]
DOCKED: USER    Estimated Inhibition Constant, Ki   =    3.71 uM (micromolar)  [Temperature = 298.15 K]
DOCKED: USER    
DOCKED: USER    (1) Final Intermolecular Energy     =  -10.39 kcal/mol
DOCKED: USER        vdW + Hbond + desolv Energy     =   -6.90 kcal/mol
DOCKED: USER        Electrostatic Energy            =   -3.49 kcal/mol
DOCKED: USER    (2) Final Total Internal Energy     =   -1.53 kcal/mol
DOCKED: USER    (3) Torsional Free Energy           =   +2.98 kcal/mol
DOCKED: USER    (4) Unbound System's Energy  [=(2)] =   -1.53 kcal/mol
DOCKED: USER    
DOCKED: USER    
DOCKED: USER    NEWDPF move heme_O2_opt.pdbqt
DOCKED: USER    NEWDPF about 8.287000 34.468000 -0.670000
DOCKED: USER    NEWDPF tran0 -0.292150 -15.775488 -2.529409
DOCKED: USER    NEWDPF quaternion0 -0.419836 -0.058857 0.382624 -0.820897
DOCKED: USER    NEWDPF axisangle0 -0.735166 -0.103063 0.670006 -69.650571
DOCKED: USER    NEWDPF quat0 -0.735166 -0.103063 0.670006 -69.650571
DOCKED: USER    NEWDPF dihe0 -100.56 -115.00 -27.51 135.99 17.92 167.61 -87.93 37.87 161.38 175.02 
DOCKED: USER  keepresnum = 1 
DOCKED: USER  
DOCKED: REMARK  10 active torsions:
DOCKED: REMARK  status: ('A' for Active; 'I' for Inactive)
DOCKED: REMARK    1  A    between atoms: C_6  and  C_10 
DOCKED: REMARK    2  A    between atoms: C_10  and  C_11 
DOCKED: REMARK    3  A    between atoms: C_11  and  C_12 
DOCKED: REMARK    4  A    between atoms: C_12  and  O_14 
DOCKED: REMARK    5  A    between atoms: C_17  and  C_20 
DOCKED: REMARK    6  A    between atoms: C_24  and  C_27 
DOCKED: REMARK    7  A    between atoms: C_31  and  C_34 
DOCKED: REMARK    8  A    between atoms: C_34  and  C_35 
DOCKED: REMARK    9  A    between atoms: C_35  and  C_36 
DOCKED: REMARK   10  A    between atoms: C_36  and  O_38 
DOCKED: USER                              x       y       z     vdW  Elec       q    Type
DOCKED: USER                           _______ _______ _______ _____ _____    ______ ____
DOCKED: ROOT
DOCKED: ATOM      1  C   UNL d   1      -1.616 -17.345  -3.064 -0.07 +0.07    +0.064 A 
DOCKED: ATOM      2  C   UNL d   1      -0.764 -15.127   1.049 -0.10 +0.05    +0.064 A 
DOCKED: ATOM      3  C   UNL d   1       2.585 -12.372  -1.023 -0.20 +0.02    +0.064 C 
DOCKED: ATOM      4  C   UNL d   1       1.380 -14.316  -5.364 -0.27 +0.03    +0.064 A 
DOCKED: ATOM      5  C   UNL d   1      -1.659 -16.965  -1.776 -0.05 +0.07    +0.066 A 
DOCKED: ATOM      6  C   UNL d   1      -2.494 -17.544  -0.817 -0.05 -0.02    -0.021 A 
DOCKED: ATOM      7  C   UNL d   1      -2.280 -16.873   0.364 -0.07 -0.03    -0.025 A 
DOCKED: ATOM      8  C   UNL d   1      -1.284 -15.936   0.106 -0.08 +0.06    +0.066 A 
DOCKED: ATOM      9  C   UNL d   1      -3.033 -17.126   1.652 -0.08 +0.06    +0.051 C 
DOCKED: ATOM     10  C   UNL d   1       0.298 -14.141   0.843 -0.13 +0.04    +0.066 A 
DOCKED: ATOM     11  C   UNL d   1       0.914 -13.444   1.888 -0.17 -0.01    -0.021 A 
DOCKED: ATOM     12  C   UNL d   1       1.895 -12.657   1.313 -0.23 +0.00    +0.000 A 
DOCKED: ATOM     13  C   UNL d   1       1.811 -12.916  -0.084 -0.14 +0.03    +0.070 A 
DOCKED: ATOM     14  C   UNL d   1       0.599 -13.544   3.376 -0.15 +0.03    +0.052 C 
DOCKED: ATOM     15  C   UNL d   1       2.509 -12.581  -2.449 -0.15 +0.02    +0.066 A 
DOCKED: ATOM     16  C   UNL d   1       3.237 -11.858  -3.394 -0.25 -0.01    -0.021 A 
DOCKED: ATOM     17  C   UNL d   1       2.910 -12.394  -4.639 -0.29 +0.00    +0.000 A 
DOCKED: ATOM     18  C   UNL d   1       1.995 -13.419  -4.357 -0.20 +0.03    +0.070 A 
DOCKED: ATOM     19  C   UNL d   1       4.129 -10.697  -3.032 -0.34 +0.01    +0.052 C 
DOCKED: ATOM     20  C   UNL d   1       0.467 -15.279  -5.133 -0.20 +0.04    +0.066 A 
DOCKED: ATOM     21  C   UNL d   1      -0.063 -16.105  -6.120 -0.25 -0.02    -0.025 A 
DOCKED: ATOM     22  C   UNL d   1      -0.898 -16.992  -5.479 -0.15 -0.02    -0.021 A 
DOCKED: ATOM     23  C   UNL d   1      -0.860 -16.662  -4.121 -0.10 +0.06    +0.066 A 
DOCKED: ATOM     24  C   UNL d   1       0.211 -16.048  -7.600 -0.06 +0.03    +0.051 C 
DOCKED: ATOM     25  N   UNL d   1      -0.948 -15.949  -1.228 -0.03 -0.22    -0.248 N 
DOCKED: ATOM     26  N   UNL d   1       0.834 -13.816  -0.361 -0.05 -0.13    -0.248 N 
DOCKED: ATOM     27  N   UNL d   1       1.707 -13.468  -3.031 -0.07 -0.11    -0.248 N 
DOCKED: ATOM     28  N   UNL d   1      -0.064 -15.591  -3.921 -0.07 -0.19    -0.248 N 
DOCKED: ATOM     29 FE   UNL d   1       0.383 -14.708  -2.155 -0.02 +0.00    +0.000 Fe
DOCKED: ATOM     30  O   UNL d   1      -0.917 -13.995  -1.684 -0.17 +0.00    +0.000 OA
DOCKED: ATOM     31  O   UNL d   1      -0.279 -13.617  -3.074 -0.21 +0.00    +0.000 OA
DOCKED: ENDROOT
DOCKED: BRANCH   6  32
DOCKED: ATOM     32  C   UNL d   1      -3.555 -18.593  -1.029 -0.02 +0.04    +0.052 C 
DOCKED: BRANCH  32  33
DOCKED: ATOM     33  C   UNL d   1      -4.962 -18.079  -0.744 -0.04 +0.12    +0.115 C 
DOCKED: BRANCH  33  34
DOCKED: ATOM     34  C   UNL d   1      -5.617 -17.487  -1.968 -0.01 +0.20    +0.139 C 
DOCKED: ATOM     35  O   UNL d   1      -6.181 -16.408  -1.888 -0.40 -1.31    -0.650 OA
DOCKED: BRANCH  34  36
DOCKED: ATOM     36  O   UNL d   1      -5.618 -18.138  -3.150 +0.01 -0.97    -0.776 OA
DOCKED: ATOM     37  H   UNL d   1      -5.000 -17.917  -3.855 +0.02 +0.25    +0.167 HD
DOCKED: ENDBRANCH  34  36
DOCKED: ENDBRANCH  33  34
DOCKED: ENDBRANCH  32  33
DOCKED: ENDBRANCH   6  32
DOCKED: BRANCH  22  38
DOCKED: ATOM     38  C   UNL d   1      -1.732 -18.054  -6.148 -0.15 +0.05    +0.052 C 
DOCKED: BRANCH  38  39
DOCKED: ATOM     39  C   UNL d   1      -3.052 -17.504  -6.685 -0.17 +0.15    +0.115 C 
DOCKED: BRANCH  39  40
DOCKED: ATOM     40  C   UNL d   1      -4.188 -18.484  -6.534 -0.12 +0.22    +0.139 C 
DOCKED: ATOM     41  O   UNL d   1      -4.038 -19.645  -6.881 -0.12 -1.26    -0.650 OA
DOCKED: BRANCH  40  42
DOCKED: ATOM     42  O   UNL d   1      -5.356 -18.115  -5.974 -0.02 -1.10    -0.776 OA
DOCKED: ATOM     43  H   UNL d   1      -5.640 -18.466  -5.121 +0.03 +0.20    +0.167 HD
DOCKED: ENDBRANCH  40  42
DOCKED: ENDBRANCH  39  40
DOCKED: ENDBRANCH  38  39
DOCKED: ENDBRANCH  22  38
DOCKED: BRANCH  12  44
DOCKED: ATOM     44  C   UNL d   1       2.789 -11.756   2.138 -0.34 +0.00    +0.004 C 
DOCKED: ATOM     45  C   UNL d   1       4.055 -11.417   1.897 -0.24 +0.00    +0.012 C 
DOCKED: ENDBRANCH  12  44
DOCKED: BRANCH  17  46
DOCKED: ATOM     46  C   UNL d   1       3.330 -11.995  -6.028 -0.39 +0.00    +0.004 C 
DOCKED: ATOM     47  C   UNL d   1       3.829 -12.771  -6.998 -0.56 +0.00    +0.012 C 
DOCKED: ENDBRANCH  17  46
DOCKED: TORSDOF 10
DOCKED: TER
DOCKED: ENDMDL
________________________________________________________________________________


	BEGINNING GENETIC ALGORITHM DOCKING 62 of 100
Run: 62 Seed: 753583895 684299549 [ Run 62 of 100 GA/GALS ]
Beginning LAMARCKIAN GENETIC ALGORITHM (LGA), with a maximum of 25000000 energy evaluations.

Final-Value: -12.138


	FINAL GENETIC ALGORITHM DOCKED STATE
	_______________________________________________


Detailed state:  trans -0.319 -15.173 -2.464 quatxyzw -0.856272 -0.214559 -0.425700 0.198852 center 8.287 34.468 -0.670 ntor 10 -45.7696 132.2397 112.4239 89.1827 -153.1009 172.6246 34.0309 106.6177 176.8013 23.2661
State:	 -0.319 -15.173  -2.464  -0.874 -0.219 -0.434 157.060    -45.77  132.24  112.42   89.18 -153.10  172.62   34.03  106.62  176.80   23.27

DOCKED: MODEL       62
DOCKED: USER    Run = 62
DOCKED: USER    DPF = D:/Protein_go_brrr/autodock/final/AncA/heme_O2/dock.dpf
DOCKED: USER  
DOCKED: USER    Estimated Free Energy of Binding    =   -8.47 kcal/mol  [=(1)+(2)+(3)-(4)]
DOCKED: USER    Estimated Inhibition Constant, Ki   =  616.44 nM (nanomolar)  [Temperature = 298.15 K]
DOCKED: USER    
DOCKED: USER    (1) Final Intermolecular Energy     =  -11.46 kcal/mol
DOCKED: USER        vdW + Hbond + desolv Energy     =   -7.32 kcal/mol
DOCKED: USER        Electrostatic Energy            =   -4.13 kcal/mol
DOCKED: USER    (2) Final Total Internal Energy     =   -0.68 kcal/mol
DOCKED: USER    (3) Torsional Free Energy           =   +2.98 kcal/mol
DOCKED: USER    (4) Unbound System's Energy  [=(2)] =   -0.68 kcal/mol
DOCKED: USER    
DOCKED: USER    
DOCKED: USER    NEWDPF move heme_O2_opt.pdbqt
DOCKED: USER    NEWDPF about 8.287000 34.468000 -0.670000
DOCKED: USER    NEWDPF tran0 -0.318893 -15.172904 -2.464330
DOCKED: USER    NEWDPF quaternion0 -0.856272 -0.214559 -0.425700 0.198852
DOCKED: USER    NEWDPF axisangle0 -0.873721 -0.218931 -0.434375 157.060337
DOCKED: USER    NEWDPF quat0 -0.873721 -0.218931 -0.434375 157.060337
DOCKED: USER    NEWDPF dihe0 -45.77 132.24 112.42 89.18 -153.10 172.62 34.03 106.62 176.80 23.27 
DOCKED: USER  keepresnum = 1 
DOCKED: USER  
DOCKED: REMARK  10 active torsions:
DOCKED: REMARK  status: ('A' for Active; 'I' for Inactive)
DOCKED: REMARK    1  A    between atoms: C_6  and  C_10 
DOCKED: REMARK    2  A    between atoms: C_10  and  C_11 
DOCKED: REMARK    3  A    between atoms: C_11  and  C_12 
DOCKED: REMARK    4  A    between atoms: C_12  and  O_14 
DOCKED: REMARK    5  A    between atoms: C_17  and  C_20 
DOCKED: REMARK    6  A    between atoms: C_24  and  C_27 
DOCKED: REMARK    7  A    between atoms: C_31  and  C_34 
DOCKED: REMARK    8  A    between atoms: C_34  and  C_35 
DOCKED: REMARK    9  A    between atoms: C_35  and  C_36 
DOCKED: REMARK   10  A    between atoms: C_36  and  O_38 
DOCKED: USER                              x       y       z     vdW  Elec       q    Type
DOCKED: USER                           _______ _______ _______ _____ _____    ______ ____
DOCKED: ROOT
DOCKED: ATOM      1  C   UNL d   1      -1.871 -16.549  -2.906 -0.05 +0.09    +0.064 A 
DOCKED: ATOM      2  C   UNL d   1       1.248 -14.244  -5.647 -0.29 +0.03    +0.064 A 
DOCKED: ATOM      3  C   UNL d   1       3.135 -12.048  -1.811 -0.22 +0.02    +0.064 C 
DOCKED: ATOM      4  C   UNL d   1       0.248 -14.775   1.069 -0.10 +0.04    +0.064 A 
DOCKED: ATOM      5  C   UNL d   1      -1.176 -16.103  -3.965 -0.13 +0.07    +0.066 A 
DOCKED: ATOM      6  C   UNL d   1      -1.429 -16.483  -5.285 -0.14 -0.02    -0.021 A 
DOCKED: ATOM      7  C   UNL d   1      -0.499 -15.850  -6.075 -0.28 -0.02    -0.025 A 
DOCKED: ATOM      8  C   UNL d   1       0.267 -15.062  -5.221 -0.24 +0.04    +0.066 A 
DOCKED: ATOM      9  C   UNL d   1      -0.361 -16.038  -7.570 -0.22 +0.03    +0.051 C 
DOCKED: ATOM     10  C   UNL d   1       2.070 -13.377  -4.801 -0.24 +0.03    +0.066 A 
DOCKED: ATOM     11  C   UNL d   1       2.962 -12.427  -5.310 -0.31 -0.01    -0.021 A 
DOCKED: ATOM     12  C   UNL d   1       3.503 -11.771  -4.220 -0.31 +0.00    +0.000 A 
DOCKED: ATOM     13  C   UNL d   1       2.906 -12.380  -3.082 -0.18 +0.02    +0.070 A 
DOCKED: ATOM     14  C   UNL d   1       3.266 -12.138  -6.776 -0.23 +0.02    +0.052 C 
DOCKED: ATOM     15  C   UNL d   1       2.578 -12.663  -0.631 -0.14 +0.02    +0.066 A 
DOCKED: ATOM     16  C   UNL d   1       2.982 -12.380   0.674 -0.20 -0.01    -0.021 A 
DOCKED: ATOM     17  C   UNL d   1       2.174 -13.147   1.512 -0.16 +0.00    +0.000 A 
DOCKED: ATOM     18  C   UNL d   1       1.324 -13.848   0.645 -0.10 +0.03    +0.070 A 
DOCKED: ATOM     19  C   UNL d   1       4.129 -11.455   0.997 -0.23 +0.01    +0.052 C 
DOCKED: ATOM     20  C   UNL d   1      -0.556 -15.496   0.263 -0.08 +0.05    +0.066 A 
DOCKED: ATOM     21  C   UNL d   1      -1.564 -16.340   0.720 -0.08 -0.02    -0.025 A 
DOCKED: ATOM     22  C   UNL d   1      -2.196 -16.834  -0.399 -0.07 -0.02    -0.021 A 
DOCKED: ATOM     23  C   UNL d   1      -1.536 -16.284  -1.502 -0.07 +0.07    +0.066 A 
DOCKED: ATOM     24  C   UNL d   1      -1.904 -16.663   2.152 -0.05 +0.05    +0.051 C 
DOCKED: ATOM     25  N   UNL d   1      -0.108 -15.269  -3.913 -0.08 -0.20    -0.248 N 
DOCKED: ATOM     26  N   UNL d   1       2.039 -13.359  -3.444 -0.08 -0.10    -0.248 N 
DOCKED: ATOM     27  N   UNL d   1       1.634 -13.599  -0.653 -0.04 -0.10    -0.248 N 
DOCKED: ATOM     28  N   UNL d   1      -0.511 -15.507  -1.096 -0.03 -0.20    -0.248 N 
DOCKED: ATOM     29 FE   UNL d   1       0.756 -14.440  -2.259 -0.02 +0.00    +0.000 Fe
DOCKED: ATOM     30  O   UNL d   1       1.659 -15.479  -2.985 -0.06 +0.00    +0.000 OA
DOCKED: ATOM     31  O   UNL d   1       1.624 -15.441  -1.411 -0.04 +0.00    +0.000 OA
DOCKED: ENDROOT
DOCKED: BRANCH   6  32
DOCKED: ATOM     32  C   UNL d   1      -2.418 -17.509  -5.777 -0.17 +0.06    +0.052 C 
DOCKED: BRANCH  32  33
DOCKED: ATOM     33  C   UNL d   1      -1.771 -18.856  -6.083 -0.08 +0.10    +0.115 C 
DOCKED: BRANCH  33  34
DOCKED: ATOM     34  C   UNL d   1      -2.463 -19.583  -7.210 -0.04 +0.19    +0.139 C 
DOCKED: ATOM     35  O   UNL d   1      -2.588 -19.035  -8.294 -0.46 -1.22    -0.650 OA
DOCKED: BRANCH  34  36
DOCKED: ATOM     36  O   UNL d   1      -2.973 -20.820  -7.041 -0.01 -1.02    -0.776 OA
DOCKED: ATOM     37  H   UNL d   1      -2.482 -21.519  -6.593 +0.01 +0.14    +0.167 HD
DOCKED: ENDBRANCH  34  36
DOCKED: ENDBRANCH  33  34
DOCKED: ENDBRANCH  32  33
DOCKED: ENDBRANCH   6  32
DOCKED: BRANCH  22  38
DOCKED: ATOM     38  C   UNL d   1      -3.329 -17.827  -0.402 -0.05 +0.05    +0.052 C 
DOCKED: BRANCH  38  39
DOCKED: ATOM     39  C   UNL d   1      -4.546 -17.320  -1.172 -0.07 +0.16    +0.115 C 
DOCKED: BRANCH  39  40
DOCKED: ATOM     40  C   UNL d   1      -5.310 -16.264  -0.413 -0.10 +0.24    +0.139 C 
DOCKED: ATOM     41  O   UNL d   1      -5.514 -16.406   0.782 -0.27 -1.27    -0.650 OA
DOCKED: BRANCH  40  42
DOCKED: ATOM     42  O   UNL d   1      -5.729 -15.137  -1.020 -0.31 -1.80    -0.776 OA
DOCKED: ATOM     43  H   UNL d   1      -6.621 -14.795  -0.887 +0.03 +0.29    +0.167 HD
DOCKED: ENDBRANCH  40  42
DOCKED: ENDBRANCH  39  40
DOCKED: ENDBRANCH  38  39
DOCKED: ENDBRANCH  22  38
DOCKED: BRANCH  12  44
DOCKED: ATOM     44  C   UNL d   1       4.516 -10.656  -4.374 -0.49 +0.00    +0.004 C 
DOCKED: ATOM     45  C   UNL d   1       5.792 -10.754  -4.746 -0.33 -0.00    +0.012 C 
DOCKED: ENDBRANCH  12  44
DOCKED: BRANCH  17  46
DOCKED: ATOM     46  C   UNL d   1       2.176 -13.310   3.009 -0.18 +0.00    +0.004 C 
DOCKED: ATOM     47  C   UNL d   1       1.617 -12.515   3.930 -0.33 +0.00    +0.012 C 
DOCKED: ENDBRANCH  17  46
DOCKED: TORSDOF 10
DOCKED: TER
DOCKED: ENDMDL
________________________________________________________________________________


	BEGINNING GENETIC ALGORITHM DOCKING 63 of 100
Run: 63 Seed: 1911207380 1442443999 [ Run 63 of 100 GA/GALS ]
Beginning LAMARCKIAN GENETIC ALGORITHM (LGA), with a maximum of 25000000 energy evaluations.

Final-Value: -10.905


	FINAL GENETIC ALGORITHM DOCKED STATE
	_______________________________________________


Detailed state:  trans -12.353 -14.341 -1.182 quatxyzw 0.654709 0.580343 -0.483625 -0.025772 center 8.287 34.468 -0.670 ntor 10 -31.4427 -78.2950 0.7415 140.5658 -89.0339 -139.6572 93.9722 -54.8399 -2.8666 -176.7529
State:	-12.353 -14.341  -1.182   0.655  0.581 -0.484 -177.046    -31.44  -78.29    0.74  140.57  -89.03 -139.66   93.97  -54.84   -2.87 -176.75

DOCKED: MODEL       63
DOCKED: USER    Run = 63
DOCKED: USER    DPF = D:/Protein_go_brrr/autodock/final/AncA/heme_O2/dock.dpf
DOCKED: USER  
DOCKED: USER    Estimated Free Energy of Binding    =   -7.22 kcal/mol  [=(1)+(2)+(3)-(4)]
DOCKED: USER    Estimated Inhibition Constant, Ki   =    5.09 uM (micromolar)  [Temperature = 298.15 K]
DOCKED: USER    
DOCKED: USER    (1) Final Intermolecular Energy     =  -10.20 kcal/mol
DOCKED: USER        vdW + Hbond + desolv Energy     =   -7.11 kcal/mol
DOCKED: USER        Electrostatic Energy            =   -3.10 kcal/mol
DOCKED: USER    (2) Final Total Internal Energy     =   -0.70 kcal/mol
DOCKED: USER    (3) Torsional Free Energy           =   +2.98 kcal/mol
DOCKED: USER    (4) Unbound System's Energy  [=(2)] =   -0.70 kcal/mol
DOCKED: USER    
DOCKED: USER    
DOCKED: USER    NEWDPF move heme_O2_opt.pdbqt
DOCKED: USER    NEWDPF about 8.287000 34.468000 -0.670000
DOCKED: USER    NEWDPF tran0 -12.352519 -14.340910 -1.182058
DOCKED: USER    NEWDPF quaternion0 0.654709 0.580343 -0.483625 -0.025772
DOCKED: USER    NEWDPF axisangle0 0.654927 0.580536 -0.483786 -177.046443
DOCKED: USER    NEWDPF quat0 0.654927 0.580536 -0.483786 -177.046443
DOCKED: USER    NEWDPF dihe0 -31.44 -78.29 0.74 140.57 -89.03 -139.66 93.97 -54.84 -2.87 -176.75 
DOCKED: USER  keepresnum = 1 
DOCKED: USER  
DOCKED: REMARK  10 active torsions:
DOCKED: REMARK  status: ('A' for Active; 'I' for Inactive)
DOCKED: REMARK    1  A    between atoms: C_6  and  C_10 
DOCKED: REMARK    2  A    between atoms: C_10  and  C_11 
DOCKED: REMARK    3  A    between atoms: C_11  and  C_12 
DOCKED: REMARK    4  A    between atoms: C_12  and  O_14 
DOCKED: REMARK    5  A    between atoms: C_17  and  C_20 
DOCKED: REMARK    6  A    between atoms: C_24  and  C_27 
DOCKED: REMARK    7  A    between atoms: C_31  and  C_34 
DOCKED: REMARK    8  A    between atoms: C_34  and  C_35 
DOCKED: REMARK    9  A    between atoms: C_35  and  C_36 
DOCKED: REMARK   10  A    between atoms: C_36  and  O_38 
DOCKED: USER                              x       y       z     vdW  Elec       q    Type
DOCKED: USER                           _______ _______ _______ _____ _____    ______ ____
DOCKED: ROOT
DOCKED: ATOM      1  C   UNL d   1     -11.133 -15.435   0.165 -0.10 +0.02    +0.064 A 
DOCKED: ATOM      2  C   UNL d   1     -15.676 -15.891  -1.143 -0.12 +0.01    +0.064 A 
DOCKED: ATOM      3  C   UNL d   1     -15.323 -12.069  -4.036 -0.28 +0.00    +0.064 C 
DOCKED: ATOM      4  C   UNL d   1     -10.518 -11.879  -3.062 -0.17 +0.02    +0.064 A 
DOCKED: ATOM      5  C   UNL d   1     -12.397 -15.872   0.044 -0.09 +0.02    +0.066 A 
DOCKED: ATOM      6  C   UNL d   1     -12.919 -16.962   0.746 -0.08 -0.01    -0.021 A 
DOCKED: ATOM      7  C   UNL d   1     -14.222 -17.122   0.336 -0.09 -0.01    -0.025 A 
DOCKED: ATOM      8  C   UNL d   1     -14.474 -16.095  -0.570 -0.11 +0.01    +0.066 A 
DOCKED: ATOM      9  C   UNL d   1     -15.142 -18.234   0.788 -0.04 +0.01    +0.051 C 
DOCKED: ATOM     10  C   UNL d   1     -16.007 -14.818  -2.082 -0.13 +0.01    +0.066 A 
DOCKED: ATOM     11  C   UNL d   1     -17.309 -14.554  -2.521 -0.14 -0.00    -0.021 A 
DOCKED: ATOM     12  C   UNL d   1     -17.231 -13.444  -3.341 -0.17 +0.00    +0.000 A 
DOCKED: ATOM     13  C   UNL d   1     -15.852 -13.094  -3.368 -0.19 +0.01    +0.070 A 
DOCKED: ATOM     14  C   UNL d   1     -18.579 -15.311  -2.150 -0.08 +0.01    +0.052 C 
DOCKED: ATOM     15  C   UNL d   1     -13.929 -11.703  -4.116 -0.24 +0.00    +0.066 A 
DOCKED: ATOM     16  C   UNL d   1     -13.418 -10.719  -4.963 -0.32 +0.00    -0.021 A 
DOCKED: ATOM     17  C   UNL d   1     -12.050 -10.648  -4.704 -0.42 +0.00    +0.000 A 
DOCKED: ATOM     18  C   UNL d   1     -11.826 -11.604  -3.703 -0.28 +0.01    +0.070 A 
DOCKED: ATOM     19  C   UNL d   1     -14.263  -9.983  -5.972 -0.41 +0.00    +0.052 C 
DOCKED: ATOM     20  C   UNL d   1     -10.260 -12.818  -2.131 -0.20 +0.03    +0.066 A 
DOCKED: ATOM     21  C   UNL d   1      -9.011 -13.018  -1.550 -0.21 -0.02    -0.025 A 
DOCKED: ATOM     22  C   UNL d   1      -9.173 -14.009  -0.609 -0.14 -0.01    -0.021 A 
DOCKED: ATOM     23  C   UNL d   1     -10.517 -14.391  -0.663 -0.11 +0.03    +0.066 A 
DOCKED: ATOM     24  C   UNL d   1      -7.726 -12.302  -1.880 -0.28 +0.04    +0.051 C 
DOCKED: ATOM     25  N   UNL d   1     -13.331 -15.365  -0.798 -0.01 -0.04    -0.248 N 
DOCKED: ATOM     26  N   UNL d   1     -15.114 -13.938  -2.603 -0.13 -0.02    -0.248 N 
DOCKED: ATOM     27  N   UNL d   1     -12.963 -12.286  -3.413 -0.13 -0.02    -0.248 N 
DOCKED: ATOM     28  N   UNL d   1     -11.164 -13.696  -1.621 -0.07 -0.08    -0.248 N 
DOCKED: ATOM     29 FE   UNL d   1     -13.124 -13.814  -2.111 -0.06 +0.00    +0.000 Fe
DOCKED: ATOM     30  O   UNL d   1     -13.318 -15.197  -2.798 -0.15 +0.00    +0.000 OA
DOCKED: ATOM     31  O   UNL d   1     -12.294 -14.162  -3.400 -0.19 +0.00    +0.000 OA
DOCKED: ENDROOT
DOCKED: BRANCH   6  32
DOCKED: ATOM     32  C   UNL d   1     -12.186 -17.905   1.665 -0.03 +0.01    +0.052 C 
DOCKED: BRANCH  32  33
DOCKED: ATOM     33  C   UNL d   1     -11.999 -17.338   3.069 -0.04 +0.03    +0.115 C 
DOCKED: BRANCH  33  34
DOCKED: ATOM     34  C   UNL d   1     -10.735 -16.524   3.197 -0.04 +0.05    +0.139 C 
DOCKED: ATOM     35  O   UNL d   1     -10.804 -15.348   3.514 +0.04 -0.28    -0.650 OA
DOCKED: BRANCH  34  36
DOCKED: ATOM     36  O   UNL d   1      -9.524 -17.061   2.940 +0.05 -0.40    -0.776 OA
DOCKED: ATOM     37  H   UNL d   1      -9.335 -17.994   3.098 +0.01 +0.08    +0.167 HD
DOCKED: ENDBRANCH  34  36
DOCKED: ENDBRANCH  33  34
DOCKED: ENDBRANCH  32  33
DOCKED: ENDBRANCH   6  32
DOCKED: BRANCH  22  38
DOCKED: ATOM     38  C   UNL d   1      -8.080 -14.596   0.246 -0.13 +0.05    +0.052 C 
DOCKED: BRANCH  38  39
DOCKED: ATOM     39  C   UNL d   1      -7.171 -15.540  -0.539 -0.10 +0.15    +0.115 C 
DOCKED: BRANCH  39  40
DOCKED: ATOM     40  C   UNL d   1      -5.719 -15.138  -0.462 -0.13 +0.28    +0.139 C 
DOCKED: ATOM     41  O   UNL d   1      -5.385 -14.207   0.252 -0.41 -1.55    -0.650 OA
DOCKED: BRANCH  40  42
DOCKED: ATOM     42  O   UNL d   1      -4.771 -15.824  -1.130 -0.01 -1.84    -0.776 OA
DOCKED: ATOM     43  H   UNL d   1      -4.461 -16.684  -0.825 +0.01 +0.28    +0.167 HD
DOCKED: ENDBRANCH  40  42
DOCKED: ENDBRANCH  39  40
DOCKED: ENDBRANCH  38  39
DOCKED: ENDBRANCH  22  38
DOCKED: BRANCH  12  44
DOCKED: ATOM     44  C   UNL d   1     -18.454 -12.847  -4.005 -0.13 +0.00    +0.004 C 
DOCKED: ATOM     45  C   UNL d   1     -18.524 -11.750  -4.758 -0.14 +0.00    +0.012 C 
DOCKED: ENDBRANCH  12  44
DOCKED: BRANCH  17  46
DOCKED: ATOM     46  C   UNL d   1     -10.965  -9.821  -5.341 -0.46 +0.00    +0.004 C 
DOCKED: ATOM     47  C   UNL d   1     -10.000  -9.113  -4.739 -0.48 +0.00    +0.012 C 
DOCKED: ENDBRANCH  17  46
DOCKED: TORSDOF 10
DOCKED: TER
DOCKED: ENDMDL
________________________________________________________________________________


	BEGINNING GENETIC ALGORITHM DOCKING 64 of 100
Run: 64 Seed: 2143995391 1545925392 [ Run 64 of 100 GA/GALS ]
Beginning LAMARCKIAN GENETIC ALGORITHM (LGA), with a maximum of 25000000 energy evaluations.

Final-Value: -12.626


	FINAL GENETIC ALGORITHM DOCKED STATE
	_______________________________________________


Detailed state:  trans -0.343 -15.490 -1.795 quatxyzw 0.362261 0.038605 -0.362466 0.857843 center 8.287 34.468 -0.670 ntor 10 101.1210 -13.1916 118.3074 130.3927 123.4986 -79.9605 118.8245 18.9581 -144.9216 -59.8158
State:	 -0.343 -15.490  -1.795   0.705  0.075 -0.705 61.849    101.12  -13.19  118.31  130.39  123.50  -79.96  118.82   18.96 -144.92  -59.82

DOCKED: MODEL       64
DOCKED: USER    Run = 64
DOCKED: USER    DPF = D:/Protein_go_brrr/autodock/final/AncA/heme_O2/dock.dpf
DOCKED: USER  
DOCKED: USER    Estimated Free Energy of Binding    =   -9.12 kcal/mol  [=(1)+(2)+(3)-(4)]
DOCKED: USER    Estimated Inhibition Constant, Ki   =  206.72 nM (nanomolar)  [Temperature = 298.15 K]
DOCKED: USER    
DOCKED: USER    (1) Final Intermolecular Energy     =  -12.10 kcal/mol
DOCKED: USER        vdW + Hbond + desolv Energy     =   -7.84 kcal/mol
DOCKED: USER        Electrostatic Energy            =   -4.26 kcal/mol
DOCKED: USER    (2) Final Total Internal Energy     =   -0.52 kcal/mol
DOCKED: USER    (3) Torsional Free Energy           =   +2.98 kcal/mol
DOCKED: USER    (4) Unbound System's Energy  [=(2)] =   -0.52 kcal/mol
DOCKED: USER    
DOCKED: USER    
DOCKED: USER    NEWDPF move heme_O2_opt.pdbqt
DOCKED: USER    NEWDPF about 8.287000 34.468000 -0.670000
DOCKED: USER    NEWDPF tran0 -0.343321 -15.489734 -1.795453
DOCKED: USER    NEWDPF quaternion0 0.362261 0.038605 -0.362466 0.857843
DOCKED: USER    NEWDPF axisangle0 0.704910 0.075120 -0.705308 61.849464
DOCKED: USER    NEWDPF quat0 0.704910 0.075120 -0.705308 61.849464
DOCKED: USER    NEWDPF dihe0 101.12 -13.19 118.31 130.39 123.50 -79.96 118.82 18.96 -144.92 -59.82 
DOCKED: USER  keepresnum = 1 
DOCKED: USER  
DOCKED: REMARK  10 active torsions:
DOCKED: REMARK  status: ('A' for Active; 'I' for Inactive)
DOCKED: REMARK    1  A    between atoms: C_6  and  C_10 
DOCKED: REMARK    2  A    between atoms: C_10  and  C_11 
DOCKED: REMARK    3  A    between atoms: C_11  and  C_12 
DOCKED: REMARK    4  A    between atoms: C_12  and  O_14 
DOCKED: REMARK    5  A    between atoms: C_17  and  C_20 
DOCKED: REMARK    6  A    between atoms: C_24  and  C_27 
DOCKED: REMARK    7  A    between atoms: C_31  and  C_34 
DOCKED: REMARK    8  A    between atoms: C_34  and  C_35 
DOCKED: REMARK    9  A    between atoms: C_35  and  C_36 
DOCKED: REMARK   10  A    between atoms: C_36  and  O_38 
DOCKED: USER                              x       y       z     vdW  Elec       q    Type
DOCKED: USER                           _______ _______ _______ _____ _____    ______ ____
DOCKED: ROOT
DOCKED: ATOM      1  C   UNL d   1      -1.811 -16.894  -2.407 -0.06 +0.08    +0.064 A 
DOCKED: ATOM      2  C   UNL d   1      -0.548 -15.225   1.857 -0.08 +0.05    +0.064 A 
DOCKED: ATOM      3  C   UNL d   1       2.866 -12.484  -0.126 -0.19 +0.02    +0.064 C 
DOCKED: ATOM      4  C   UNL d   1       1.259 -13.832  -4.560 -0.21 +0.03    +0.064 A 
DOCKED: ATOM      5  C   UNL d   1      -1.747 -16.662  -1.086 -0.06 +0.07    +0.066 A 
DOCKED: ATOM      6  C   UNL d   1      -2.564 -17.289  -0.141 -0.06 -0.02    -0.021 A 
DOCKED: ATOM      7  C   UNL d   1      -2.229 -16.774   1.090 -0.07 -0.03    -0.025 A 
DOCKED: ATOM      8  C   UNL d   1      -1.183 -15.883   0.868 -0.09 +0.06    +0.066 A 
DOCKED: ATOM      9  C   UNL d   1      -2.920 -17.121   2.391 -0.05 +0.06    +0.051 C 
DOCKED: ATOM     10  C   UNL d   1       0.570 -14.295   1.688 -0.12 +0.04    +0.066 A 
DOCKED: ATOM     11  C   UNL d   1       1.299 -13.766   2.758 -0.16 -0.01    -0.021 A 
DOCKED: ATOM     12  C   UNL d   1       2.300 -12.987   2.207 -0.18 +0.00    +0.000 A 
DOCKED: ATOM     13  C   UNL d   1       2.113 -13.078   0.799 -0.14 +0.02    +0.070 A 
DOCKED: ATOM     14  C   UNL d   1       1.068 -14.015   4.244 -0.18 +0.03    +0.052 C 
DOCKED: ATOM     15  C   UNL d   1       2.689 -12.523  -1.557 -0.14 +0.02    +0.066 A 
DOCKED: ATOM     16  C   UNL d   1       3.411 -11.748  -2.464 -0.24 -0.00    -0.021 A 
DOCKED: ATOM     17  C   UNL d   1       2.970 -12.114  -3.735 -0.25 +0.00    +0.000 A 
DOCKED: ATOM     18  C   UNL d   1       1.999 -13.100  -3.505 -0.16 +0.03    +0.070 A 
DOCKED: ATOM     19  C   UNL d   1       4.408 -10.699  -2.039 -0.24 +0.01    +0.052 C 
DOCKED: ATOM     20  C   UNL d   1       0.292 -14.751  -4.374 -0.17 +0.04    +0.066 A 
DOCKED: ATOM     21  C   UNL d   1      -0.357 -15.421  -5.408 -0.26 -0.02    -0.025 A 
DOCKED: ATOM     22  C   UNL d   1      -1.216 -16.317  -4.812 -0.16 -0.02    -0.021 A 
DOCKED: ATOM     23  C   UNL d   1      -1.072 -16.148  -3.432 -0.11 +0.07    +0.066 A 
DOCKED: ATOM     24  C   UNL d   1      -0.170 -15.213  -6.888 -0.35 +0.03    +0.051 C 
DOCKED: ATOM     25  N   UNL d   1      -0.931 -15.766  -0.479 -0.04 -0.21    -0.248 N 
DOCKED: ATOM     26  N   UNL d   1       1.056 -13.872   0.493 -0.07 -0.12    -0.248 N 
DOCKED: ATOM     27  N   UNL d   1       1.789 -13.281  -2.177 -0.05 -0.10    -0.248 N 
DOCKED: ATOM     28  N   UNL d   1      -0.187 -15.164  -3.171 -0.06 -0.20    -0.248 N 
DOCKED: ATOM     29 FE   UNL d   1       0.432 -14.521  -1.354 -0.02 +0.00    +0.000 Fe
DOCKED: ATOM     30  O   UNL d   1      -0.781 -13.779  -0.719 -0.19 +0.00    +0.000 OA
DOCKED: ATOM     31  O   UNL d   1      -0.201 -13.289  -2.100 -0.18 +0.00    +0.000 OA
DOCKED: ENDROOT
DOCKED: BRANCH   6  32
DOCKED: ATOM     32  C   UNL d   1      -3.711 -18.233  -0.393 -0.03 +0.05    +0.052 C 
DOCKED: BRANCH  32  33
DOCKED: ATOM     33  C   UNL d   1      -4.834 -17.597  -1.207 -0.06 +0.15    +0.115 C 
DOCKED: BRANCH  33  34
DOCKED: ATOM     34  C   UNL d   1      -5.482 -16.441  -0.486 -0.10 +0.23    +0.139 C 
DOCKED: ATOM     35  O   UNL d   1      -5.480 -16.412   0.734 -0.29 -1.26    -0.650 OA
DOCKED: BRANCH  34  36
DOCKED: ATOM     36  O   UNL d   1      -6.092 -15.444  -1.161 -0.46 -1.62    -0.776 OA
DOCKED: ATOM     37  H   UNL d   1      -7.051 -15.400  -1.249 +0.03 +0.25    +0.167 HD
DOCKED: ENDBRANCH  34  36
DOCKED: ENDBRANCH  33  34
DOCKED: ENDBRANCH  32  33
DOCKED: ENDBRANCH   6  32
DOCKED: BRANCH  22  38
DOCKED: ATOM     38  C   UNL d   1      -2.167 -17.236  -5.535 -0.16 +0.06    +0.052 C 
DOCKED: BRANCH  38  39
DOCKED: ATOM     39  C   UNL d   1      -1.531 -17.880  -6.765 -0.16 +0.10    +0.115 C 
DOCKED: BRANCH  39  40
DOCKED: ATOM     40  C   UNL d   1      -2.557 -18.441  -7.718 -0.10 +0.20    +0.139 C 
DOCKED: ATOM     41  O   UNL d   1      -3.336 -17.690  -8.281 -0.43 -1.14    -0.650 OA
DOCKED: BRANCH  40  42
DOCKED: ATOM     42  O   UNL d   1      -2.598 -19.758  -7.999 -0.27 -1.40    -0.776 OA
DOCKED: ATOM     43  H   UNL d   1      -1.891 -20.355  -7.725 +0.02 +0.18    +0.167 HD
DOCKED: ENDBRANCH  40  42
DOCKED: ENDBRANCH  39  40
DOCKED: ENDBRANCH  38  39
DOCKED: ENDBRANCH  22  38
DOCKED: BRANCH  12  44
DOCKED: ATOM     44  C   UNL d   1       3.308 -12.249   3.062 -0.22 +0.00    +0.004 C 
DOCKED: ATOM     45  C   UNL d   1       3.085 -11.238   3.902 -0.32 +0.00    +0.012 C 
DOCKED: ENDBRANCH  12  44
DOCKED: BRANCH  17  46
DOCKED: ATOM     46  C   UNL d   1       3.333 -11.588  -5.098 -0.41 +0.00    +0.004 C 
DOCKED: ATOM     47  C   UNL d   1       3.811 -12.267  -6.149 -0.51 +0.00    +0.012 C 
DOCKED: ENDBRANCH  17  46
DOCKED: TORSDOF 10
DOCKED: TER
DOCKED: ENDMDL
________________________________________________________________________________


	BEGINNING GENETIC ALGORITHM DOCKING 65 of 100
Run: 65 Seed: 708797877 1698197830 [ Run 65 of 100 GA/GALS ]
Beginning LAMARCKIAN GENETIC ALGORITHM (LGA), with a maximum of 25000000 energy evaluations.

Final-Value: -10.740


	FINAL GENETIC ALGORITHM DOCKED STATE
	_______________________________________________


Detailed state:  trans -9.607 -17.441 -4.860 quatxyzw -0.235094 -0.939491 -0.045981 0.244893 center 8.287 34.468 -0.670 ntor 10 75.4365 139.7931 63.0039 -104.2116 172.2718 88.8533 116.0367 63.5793 -136.8806 177.8193
State:	 -9.607 -17.441  -4.860  -0.242 -0.969 -0.047 151.649     75.44  139.79   63.00 -104.21  172.27   88.85  116.04   63.58 -136.88  177.82

DOCKED: MODEL       65
DOCKED: USER    Run = 65
DOCKED: USER    DPF = D:/Protein_go_brrr/autodock/final/AncA/heme_O2/dock.dpf
DOCKED: USER  
DOCKED: USER    Estimated Free Energy of Binding    =   -7.26 kcal/mol  [=(1)+(2)+(3)-(4)]
DOCKED: USER    Estimated Inhibition Constant, Ki   =    4.79 uM (micromolar)  [Temperature = 298.15 K]
DOCKED: USER    
DOCKED: USER    (1) Final Intermolecular Energy     =  -10.24 kcal/mol
DOCKED: USER        vdW + Hbond + desolv Energy     =   -6.00 kcal/mol
DOCKED: USER        Electrostatic Energy            =   -4.24 kcal/mol
DOCKED: USER    (2) Final Total Internal Energy     =   -0.50 kcal/mol
DOCKED: USER    (3) Torsional Free Energy           =   +2.98 kcal/mol
DOCKED: USER    (4) Unbound System's Energy  [=(2)] =   -0.50 kcal/mol
DOCKED: USER    
DOCKED: USER    
DOCKED: USER    NEWDPF move heme_O2_opt.pdbqt
DOCKED: USER    NEWDPF about 8.287000 34.468000 -0.670000
DOCKED: USER    NEWDPF tran0 -9.607038 -17.440701 -4.859758
DOCKED: USER    NEWDPF quaternion0 -0.235094 -0.939491 -0.045981 0.244893
DOCKED: USER    NEWDPF axisangle0 -0.242478 -0.968997 -0.047425 151.648998
DOCKED: USER    NEWDPF quat0 -0.242478 -0.968997 -0.047425 151.648998
DOCKED: USER    NEWDPF dihe0 75.44 139.79 63.00 -104.21 172.27 88.85 116.04 63.58 -136.88 177.82 
DOCKED: USER  keepresnum = 1 
DOCKED: USER  
DOCKED: REMARK  10 active torsions:
DOCKED: REMARK  status: ('A' for Active; 'I' for Inactive)
DOCKED: REMARK    1  A    between atoms: C_6  and  C_10 
DOCKED: REMARK    2  A    between atoms: C_10  and  C_11 
DOCKED: REMARK    3  A    between atoms: C_11  and  C_12 
DOCKED: REMARK    4  A    between atoms: C_12  and  O_14 
DOCKED: REMARK    5  A    between atoms: C_17  and  C_20 
DOCKED: REMARK    6  A    between atoms: C_24  and  C_27 
DOCKED: REMARK    7  A    between atoms: C_31  and  C_34 
DOCKED: REMARK    8  A    between atoms: C_34  and  C_35 
DOCKED: REMARK    9  A    between atoms: C_35  and  C_36 
DOCKED: REMARK   10  A    between atoms: C_36  and  O_38 
DOCKED: USER                              x       y       z     vdW  Elec       q    Type
DOCKED: USER                           _______ _______ _______ _____ _____    ______ ____
DOCKED: ROOT
DOCKED: ATOM      1  C   UNL d   1      -8.301 -17.753  -3.218 -0.06 +0.05    +0.064 A 
DOCKED: ATOM      2  C   UNL d   1      -8.563 -19.728  -7.529 -0.11 +0.06    +0.064 A 
DOCKED: ATOM      3  C   UNL d   1     -12.385 -17.033  -8.633 -0.12 +0.01    +0.064 C 
DOCKED: ATOM      4  C   UNL d   1     -11.834 -14.653  -4.379 -0.09 +0.02    +0.064 A 
DOCKED: ATOM      5  C   UNL d   1      -8.059 -18.509  -4.301 -0.06 +0.05    +0.066 A 
DOCKED: ATOM      6  C   UNL d   1      -7.035 -19.457  -4.381 -0.05 -0.02    -0.021 A 
DOCKED: ATOM      7  C   UNL d   1      -7.083 -19.998  -5.644 -0.09 -0.02    -0.025 A 
DOCKED: ATOM      8  C   UNL d   1      -8.165 -19.401  -6.285 -0.11 +0.05    +0.066 A 
DOCKED: ATOM      9  C   UNL d   1      -6.103 -21.015  -6.188 -0.08 +0.06    +0.051 C 
DOCKED: ATOM     10  C   UNL d   1      -9.703 -19.153  -8.244 -0.15 +0.04    +0.066 A 
DOCKED: ATOM     11  C   UNL d   1     -10.171 -19.643  -9.468 -0.14 -0.01    -0.021 A 
DOCKED: ATOM     12  C   UNL d   1     -11.284 -18.891  -9.795 -0.14 +0.00    +0.000 A 
DOCKED: ATOM     13  C   UNL d   1     -11.428 -17.955  -8.733 -0.16 +0.02    +0.070 A 
DOCKED: ATOM     14  C   UNL d   1      -9.596 -20.799 -10.279 -0.11 +0.03    +0.052 C 
DOCKED: ATOM     15  C   UNL d   1     -12.545 -16.045  -7.594 -0.13 +0.01    +0.066 A 
DOCKED: ATOM     16  C   UNL d   1     -13.470 -15.002  -7.630 -0.16 -0.00    -0.021 A 
DOCKED: ATOM     17  C   UNL d   1     -13.331 -14.309  -6.428 -0.19 +0.00    +0.000 A 
DOCKED: ATOM     18  C   UNL d   1     -12.319 -14.992  -5.738 -0.15 +0.02    +0.070 A 
DOCKED: ATOM     19  C   UNL d   1     -14.356 -14.729  -8.820 -0.16 +0.01    +0.052 C 
DOCKED: ATOM     20  C   UNL d   1     -10.836 -15.259  -3.707 -0.06 +0.03    +0.066 A 
DOCKED: ATOM     21  C   UNL d   1     -10.435 -14.907  -2.421 -0.11 -0.01    -0.025 A 
DOCKED: ATOM     22  C   UNL d   1      -9.448 -15.797  -2.063 -0.07 -0.01    -0.021 A 
DOCKED: ATOM     23  C   UNL d   1      -9.270 -16.652  -3.155 -0.07 +0.04    +0.066 A 
DOCKED: ATOM     24  C   UNL d   1     -10.965 -13.776  -1.578 -0.07 +0.02    +0.051 C 
DOCKED: ATOM     25  N   UNL d   1      -8.726 -18.437  -5.479 -0.06 -0.17    -0.248 N 
DOCKED: ATOM     26  N   UNL d   1     -10.459 -18.118  -7.796 -0.13 -0.12    -0.248 N 
DOCKED: ATOM     27  N   UNL d   1     -11.803 -15.996  -6.492 -0.13 -0.06    -0.248 N 
DOCKED: ATOM     28  N   UNL d   1     -10.084 -16.293  -4.169 -0.06 -0.13    -0.248 N 
DOCKED: ATOM     29 FE   UNL d   1     -10.272 -17.197  -5.970 -0.03 +0.00    +0.000 Fe
DOCKED: ATOM     30  O   UNL d   1      -8.957 -16.898  -6.746 -0.35 +0.00    +0.000 OA
DOCKED: ATOM     31  O   UNL d   1      -9.849 -15.705  -6.233 -0.27 +0.00    +0.000 OA
DOCKED: ENDROOT
DOCKED: BRANCH   6  32
DOCKED: ATOM     32  C   UNL d   1      -5.964 -19.747  -3.362 -0.03 +0.04    +0.052 C 
DOCKED: BRANCH  32  33
DOCKED: ATOM     33  C   UNL d   1      -5.198 -18.499  -2.936 -0.07 +0.13    +0.115 C 
DOCKED: BRANCH  33  34
DOCKED: ATOM     34  C   UNL d   1      -4.382 -17.913  -4.061 -0.06 +0.21    +0.139 C 
DOCKED: ATOM     35  O   UNL d   1      -4.673 -18.175  -5.217 -0.04 -0.89    -0.650 OA
DOCKED: BRANCH  34  36
DOCKED: ATOM     36  O   UNL d   1      -3.315 -17.123  -3.820 -0.34 -1.66    -0.776 OA
DOCKED: ATOM     37  H   UNL d   1      -2.471 -17.482  -3.521 +0.02 +0.23    +0.167 HD
DOCKED: ENDBRANCH  34  36
DOCKED: ENDBRANCH  33  34
DOCKED: ENDBRANCH  32  33
DOCKED: ENDBRANCH   6  32
DOCKED: BRANCH  22  38
DOCKED: ATOM     38  C   UNL d   1      -8.678 -15.781  -0.768 -0.06 +0.04    +0.052 C 
DOCKED: BRANCH  38  39
DOCKED: ATOM     39  C   UNL d   1      -7.550 -14.752  -0.774 -0.12 +0.14    +0.115 C 
DOCKED: BRANCH  39  40
DOCKED: ATOM     40  C   UNL d   1      -6.190 -15.386  -0.625 -0.04 +0.26    +0.139 C 
DOCKED: ATOM     41  O   UNL d   1      -5.434 -15.000   0.252 -0.59 -1.60    -0.650 OA
DOCKED: BRANCH  40  42
DOCKED: ATOM     42  O   UNL d   1      -5.810 -16.410  -1.413 -0.26 -1.51    -0.776 OA
DOCKED: ATOM     43  H   UNL d   1      -4.904 -16.491  -1.734 +0.01 +0.40    +0.167 HD
DOCKED: ENDBRANCH  40  42
DOCKED: ENDBRANCH  39  40
DOCKED: ENDBRANCH  38  39
DOCKED: ENDBRANCH  22  38
DOCKED: BRANCH  12  44
DOCKED: ATOM     44  C   UNL d   1     -12.076 -19.135 -11.062 -0.09 +0.00    +0.004 C 
DOCKED: ATOM     45  C   UNL d   1     -12.322 -18.278 -12.052 -0.14 +0.00    +0.012 C 
DOCKED: ENDBRANCH  12  44
DOCKED: BRANCH  17  46
DOCKED: ATOM     46  C   UNL d   1     -14.010 -13.065  -5.919 -0.19 +0.00    +0.004 C 
DOCKED: ATOM     47  C   UNL d   1     -13.477 -11.853  -5.721 -0.33 +0.00    +0.012 C 
DOCKED: ENDBRANCH  17  46
DOCKED: TORSDOF 10
DOCKED: TER
DOCKED: ENDMDL
________________________________________________________________________________


	BEGINNING GENETIC ALGORITHM DOCKING 66 of 100
Run: 66 Seed: 469716456 75757014 [ Run 66 of 100 GA/GALS ]
Beginning LAMARCKIAN GENETIC ALGORITHM (LGA), with a maximum of 25000000 energy evaluations.

Final-Value: -18.346


	FINAL GENETIC ALGORITHM DOCKED STATE
	_______________________________________________


Detailed state:  trans -4.638 -8.603 -3.203 quatxyzw -0.114715 -0.440808 -0.728195 0.512114 center 8.287 34.468 -0.670 ntor 10 162.7487 -94.8022 25.0135 -18.7720 99.5235 5.1576 -14.7526 63.7877 7.7356 169.5786
State:	 -4.638  -8.603  -3.203  -0.134 -0.513 -0.848 118.391    162.75  -94.80   25.01  -18.77   99.52    5.16  -14.75   63.79    7.74  169.58

DOCKED: MODEL       66
DOCKED: USER    Run = 66
DOCKED: USER    DPF = D:/Protein_go_brrr/autodock/final/AncA/heme_O2/dock.dpf
DOCKED: USER  
DOCKED: USER    Estimated Free Energy of Binding    =  -14.90 kcal/mol  [=(1)+(2)+(3)-(4)]
DOCKED: USER    Estimated Inhibition Constant, Ki   =   11.90 pM (picomolar)  [Temperature = 298.15 K]
DOCKED: USER    
DOCKED: USER    (1) Final Intermolecular Energy     =  -17.89 kcal/mol
DOCKED: USER        vdW + Hbond + desolv Energy     =  -14.54 kcal/mol
DOCKED: USER        Electrostatic Energy            =   -3.35 kcal/mol
DOCKED: USER    (2) Final Total Internal Energy     =   -0.46 kcal/mol
DOCKED: USER    (3) Torsional Free Energy           =   +2.98 kcal/mol
DOCKED: USER    (4) Unbound System's Energy  [=(2)] =   -0.46 kcal/mol
DOCKED: USER    
DOCKED: USER    
DOCKED: USER    NEWDPF move heme_O2_opt.pdbqt
DOCKED: USER    NEWDPF about 8.287000 34.468000 -0.670000
DOCKED: USER    NEWDPF tran0 -4.638259 -8.603387 -3.202592
DOCKED: USER    NEWDPF quaternion0 -0.114715 -0.440808 -0.728195 0.512114
DOCKED: USER    NEWDPF axisangle0 -0.133557 -0.513213 -0.847806 118.390532
DOCKED: USER    NEWDPF quat0 -0.133557 -0.513213 -0.847806 118.390532
DOCKED: USER    NEWDPF dihe0 162.75 -94.80 25.01 -18.77 99.52 5.16 -14.75 63.79 7.74 169.58 
DOCKED: USER  keepresnum = 1 
DOCKED: USER  
DOCKED: REMARK  10 active torsions:
DOCKED: REMARK  status: ('A' for Active; 'I' for Inactive)
DOCKED: REMARK    1  A    between atoms: C_6  and  C_10 
DOCKED: REMARK    2  A    between atoms: C_10  and  C_11 
DOCKED: REMARK    3  A    between atoms: C_11  and  C_12 
DOCKED: REMARK    4  A    between atoms: C_12  and  O_14 
DOCKED: REMARK    5  A    between atoms: C_17  and  C_20 
DOCKED: REMARK    6  A    between atoms: C_24  and  C_27 
DOCKED: REMARK    7  A    between atoms: C_31  and  C_34 
DOCKED: REMARK    8  A    between atoms: C_34  and  C_35 
DOCKED: REMARK    9  A    between atoms: C_35  and  C_36 
DOCKED: REMARK   10  A    between atoms: C_36  and  O_38 
DOCKED: USER                              x       y       z     vdW  Elec       q    Type
DOCKED: USER                           _______ _______ _______ _____ _____    ______ ____
DOCKED: ROOT
DOCKED: ATOM      1  C   UNL d   1      -4.681 -10.659  -2.682 -0.34 +0.05    +0.064 A 
DOCKED: ATOM      2  C   UNL d   1      -1.158  -7.483  -2.918 -0.35 +0.02    +0.064 A 
DOCKED: ATOM      3  C   UNL d   1      -4.209  -4.070  -4.379 -0.33 +0.01    +0.064 C 
DOCKED: ATOM      4  C   UNL d   1      -7.920  -7.202  -3.680 -0.40 +0.02    +0.064 A 
DOCKED: ATOM      5  C   UNL d   1      -3.474 -10.073  -2.625 -0.34 +0.04    +0.066 A 
DOCKED: ATOM      6  C   UNL d   1      -2.298 -10.737  -2.263 -0.31 -0.01    -0.021 A 
DOCKED: ATOM      7  C   UNL d   1      -1.285  -9.808  -2.289 -0.33 -0.01    -0.025 A 
DOCKED: ATOM      8  C   UNL d   1      -1.861  -8.613  -2.713 -0.38 +0.02    +0.066 A 
DOCKED: ATOM      9  C   UNL d   1       0.150 -10.080  -1.892 -0.13 +0.01    +0.051 C 
DOCKED: ATOM     10  C   UNL d   1      -1.703  -6.207  -3.383 -0.43 +0.01    +0.066 A 
DOCKED: ATOM     11  C   UNL d   1      -0.905  -5.112  -3.736 -0.46 -0.00    -0.021 A 
DOCKED: ATOM     12  C   UNL d   1      -1.766  -4.124  -4.177 -0.36 +0.00    +0.000 A 
DOCKED: ATOM     13  C   UNL d   1      -3.070  -4.680  -4.054 -0.39 +0.01    +0.070 A 
DOCKED: ATOM     14  C   UNL d   1       0.615  -5.023  -3.681 -0.59 +0.01    +0.052 C 
DOCKED: ATOM     15  C   UNL d   1      -5.550  -4.584  -4.237 -0.37 +0.01    +0.066 A 
DOCKED: ATOM     16  C   UNL d   1      -6.709  -3.836  -4.441 -0.48 -0.00    -0.021 A 
DOCKED: ATOM     17  C   UNL d   1      -7.780  -4.708  -4.246 -0.48 +0.00    +0.000 A 
DOCKED: ATOM     18  C   UNL d   1      -7.186  -5.940  -3.936 -0.40 +0.02    +0.070 A 
DOCKED: ATOM     19  C   UNL d   1      -6.693  -2.359  -4.745 -0.57 +0.00    +0.052 C 
DOCKED: ATOM     20  C   UNL d   1      -7.383  -8.389  -3.338 -0.37 +0.03    +0.066 A 
DOCKED: ATOM     21  C   UNL d   1      -8.125  -9.548  -3.127 -0.25 -0.01    -0.025 A 
DOCKED: ATOM     22  C   UNL d   1      -7.216 -10.550  -2.868 +0.20 -0.01    -0.021 A 
DOCKED: ATOM     23  C   UNL d   1      -5.950  -9.959  -2.913 -0.05 +0.04    +0.066 A 
DOCKED: ATOM     24  C   UNL d   1      -9.624  -9.692  -3.167 -0.47 +0.01    +0.051 C 
DOCKED: ATOM     25  N   UNL d   1      -3.221  -8.762  -2.857 -0.21 -0.10    -0.248 N 
DOCKED: ATOM     26  N   UNL d   1      -3.022  -5.945  -3.566 -0.26 -0.05    -0.248 N 
DOCKED: ATOM     27  N   UNL d   1      -5.835  -5.828  -3.862 -0.20 -0.08    -0.248 N 
DOCKED: ATOM     28  N   UNL d   1      -6.059  -8.636  -3.155 -0.09 -0.13    -0.248 N 
DOCKED: ATOM     29 FE   UNL d   1      -4.554  -7.298  -3.359 -0.09 +0.00    +0.000 Fe
DOCKED: ATOM     30  O   UNL d   1      -3.933  -7.123  -1.943 -0.37 +0.00    +0.000 OA
DOCKED: ATOM     31  O   UNL d   1      -5.460  -6.811  -2.170 -0.61 +0.00    +0.000 OA
DOCKED: ENDROOT
DOCKED: BRANCH   6  32
DOCKED: ATOM     32  C   UNL d   1      -2.151 -12.156  -1.778 -0.31 +0.05    +0.052 C 
DOCKED: BRANCH  32  33
DOCKED: ATOM     33  C   UNL d   1      -1.888 -13.145  -2.909 -0.17 +0.16    +0.115 C 
DOCKED: BRANCH  33  34
DOCKED: ATOM     34  C   UNL d   1      -1.343 -14.459  -2.409 -0.13 +0.17    +0.139 C 
DOCKED: ATOM     35  O   UNL d   1      -0.377 -14.468  -1.663 +0.03 -0.51    -0.650 OA
DOCKED: BRANCH  34  36
DOCKED: ATOM     36  O   UNL d   1      -1.884 -15.635  -2.791 -0.28 -1.34    -0.776 OA
DOCKED: ATOM     37  H   UNL d   1      -1.416 -16.472  -2.682 +0.02 +0.20    +0.167 HD
DOCKED: ENDBRANCH  34  36
DOCKED: ENDBRANCH  33  34
DOCKED: ENDBRANCH  32  33
DOCKED: ENDBRANCH   6  32
DOCKED: BRANCH  22  38
DOCKED: ATOM     38  C   UNL d   1      -7.556 -11.979  -2.533 -0.26 +0.04    +0.052 C 
DOCKED: BRANCH  38  39
DOCKED: ATOM     39  C   UNL d   1      -7.757 -12.194  -1.034 -0.21 +0.09    +0.115 C 
DOCKED: BRANCH  39  40
DOCKED: ATOM     40  C   UNL d   1      -6.750 -13.152  -0.449 -0.22 +0.18    +0.139 C 
DOCKED: ATOM     41  O   UNL d   1      -6.400 -13.028   0.713 -0.11 -1.09    -0.650 OA
DOCKED: BRANCH  40  42
DOCKED: ATOM     42  O   UNL d   1      -6.266 -14.180  -1.173 -0.25 -1.50    -0.776 OA
DOCKED: ATOM     43  H   UNL d   1      -6.679 -15.051  -1.153 +0.03 +0.30    +0.167 HD
DOCKED: ENDBRANCH  40  42
DOCKED: ENDBRANCH  39  40
DOCKED: ENDBRANCH  38  39
DOCKED: ENDBRANCH  22  38
DOCKED: BRANCH  12  44
DOCKED: ATOM     44  C   UNL d   1      -1.265  -2.778  -4.657 -0.51 +0.00    +0.004 C 
DOCKED: ATOM     45  C   UNL d   1      -1.946  -1.635  -4.746 -0.65 +0.00    +0.012 C 
DOCKED: ENDBRANCH  12  44
DOCKED: BRANCH  17  46
DOCKED: ATOM     46  C   UNL d   1      -9.266  -4.469  -4.270 -0.59 +0.00    +0.004 C 
DOCKED: ATOM     47  C   UNL d   1      -9.926  -3.329  -4.030 -0.70 +0.00    +0.012 C 
DOCKED: ENDBRANCH  17  46
DOCKED: TORSDOF 10
DOCKED: TER
DOCKED: ENDMDL
________________________________________________________________________________


	BEGINNING GENETIC ALGORITHM DOCKING 67 of 100
Run: 67 Seed: 298443176 1945691244 [ Run 67 of 100 GA/GALS ]
Beginning LAMARCKIAN GENETIC ALGORITHM (LGA), with a maximum of 25000000 energy evaluations.

Final-Value: -12.289


	FINAL GENETIC ALGORITHM DOCKED STATE
	_______________________________________________


Detailed state:  trans -0.309 -15.725 -1.853 quatxyzw 0.408583 0.042747 -0.385181 0.826358 center 8.287 34.468 -0.670 ntor 10 -33.1565 -71.3184 -39.9455 125.4425 -80.2567 -178.7898 137.9420 -11.2691 -155.0691 178.0006
State:	 -0.309 -15.725  -1.853   0.726  0.076 -0.684 68.547    -33.16  -71.32  -39.95  125.44  -80.26 -178.79  137.94  -11.27 -155.07  178.00

DOCKED: MODEL       67
DOCKED: USER    Run = 67
DOCKED: USER    DPF = D:/Protein_go_brrr/autodock/final/AncA/heme_O2/dock.dpf
DOCKED: USER  
DOCKED: USER    Estimated Free Energy of Binding    =   -8.60 kcal/mol  [=(1)+(2)+(3)-(4)]
DOCKED: USER    Estimated Inhibition Constant, Ki   =  500.65 nM (nanomolar)  [Temperature = 298.15 K]
DOCKED: USER    
DOCKED: USER    (1) Final Intermolecular Energy     =  -11.58 kcal/mol
DOCKED: USER        vdW + Hbond + desolv Energy     =   -6.81 kcal/mol
DOCKED: USER        Electrostatic Energy            =   -4.77 kcal/mol
DOCKED: USER    (2) Final Total Internal Energy     =   -0.71 kcal/mol
DOCKED: USER    (3) Torsional Free Energy           =   +2.98 kcal/mol
DOCKED: USER    (4) Unbound System's Energy  [=(2)] =   -0.71 kcal/mol
DOCKED: USER    
DOCKED: USER    
DOCKED: USER    NEWDPF move heme_O2_opt.pdbqt
DOCKED: USER    NEWDPF about 8.287000 34.468000 -0.670000
DOCKED: USER    NEWDPF tran0 -0.308843 -15.725063 -1.853222
DOCKED: USER    NEWDPF quaternion0 0.408583 0.042747 -0.385181 0.826358
DOCKED: USER    NEWDPF axisangle0 0.725538 0.075907 -0.683983 68.547110
DOCKED: USER    NEWDPF quat0 0.725538 0.075907 -0.683983 68.547110
DOCKED: USER    NEWDPF dihe0 -33.16 -71.32 -39.95 125.44 -80.26 -178.79 137.94 -11.27 -155.07 178.00 
DOCKED: USER  keepresnum = 1 
DOCKED: USER  
DOCKED: REMARK  10 active torsions:
DOCKED: REMARK  status: ('A' for Active; 'I' for Inactive)
DOCKED: REMARK    1  A    between atoms: C_6  and  C_10 
DOCKED: REMARK    2  A    between atoms: C_10  and  C_11 
DOCKED: REMARK    3  A    between atoms: C_11  and  C_12 
DOCKED: REMARK    4  A    between atoms: C_12  and  O_14 
DOCKED: REMARK    5  A    between atoms: C_17  and  C_20 
DOCKED: REMARK    6  A    between atoms: C_24  and  C_27 
DOCKED: REMARK    7  A    between atoms: C_31  and  C_34 
DOCKED: REMARK    8  A    between atoms: C_34  and  C_35 
DOCKED: REMARK    9  A    between atoms: C_35  and  C_36 
DOCKED: REMARK   10  A    between atoms: C_36  and  O_38 
DOCKED: USER                              x       y       z     vdW  Elec       q    Type
DOCKED: USER                           _______ _______ _______ _____ _____    ______ ____
DOCKED: ROOT
DOCKED: ATOM      1  C   UNL d   1      -1.671 -17.272  -2.353 -0.05 +0.07    +0.064 A 
DOCKED: ATOM      2  C   UNL d   1      -0.637 -15.109   1.747 -0.06 +0.05    +0.064 A 
DOCKED: ATOM      3  C   UNL d   1       2.665 -12.373  -0.423 -0.21 +0.02    +0.064 C 
DOCKED: ATOM      4  C   UNL d   1       1.273 -14.255  -4.734 -0.21 +0.03    +0.064 A 
DOCKED: ATOM      5  C   UNL d   1      -1.660 -16.906  -1.061 -0.05 +0.06    +0.066 A 
DOCKED: ATOM      6  C   UNL d   1      -2.467 -17.485  -0.077 -0.05 -0.02    -0.021 A 
DOCKED: ATOM      7  C   UNL d   1      -2.199 -16.830   1.103 -0.07 -0.03    -0.025 A 
DOCKED: ATOM      8  C   UNL d   1      -1.202 -15.902   0.816 -0.09 +0.06    +0.066 A 
DOCKED: ATOM      9  C   UNL d   1      -2.907 -17.087   2.415 -0.00 +0.06    +0.051 C 
DOCKED: ATOM     10  C   UNL d   1       0.428 -14.134   1.511 -0.12 +0.04    +0.066 A 
DOCKED: ATOM     11  C   UNL d   1       1.092 -13.455   2.539 -0.19 -0.01    -0.021 A 
DOCKED: ATOM     12  C   UNL d   1       2.060 -12.675   1.935 -0.23 +0.00    +0.000 A 
DOCKED: ATOM     13  C   UNL d   1       1.920 -12.917   0.540 -0.16 +0.03    +0.070 A 
DOCKED: ATOM     14  C   UNL d   1       0.832 -13.568   4.037 -0.22 +0.03    +0.052 C 
DOCKED: ATOM     15  C   UNL d   1       2.532 -12.565  -1.847 -0.14 +0.02    +0.066 A 
DOCKED: ATOM     16  C   UNL d   1       3.234 -11.842  -2.811 -0.23 -0.01    -0.021 A 
DOCKED: ATOM     17  C   UNL d   1       2.853 -12.360  -4.048 -0.25 +0.00    +0.000 A 
DOCKED: ATOM     18  C   UNL d   1       1.937 -13.377  -3.742 -0.16 +0.03    +0.070 A 
DOCKED: ATOM     19  C   UNL d   1       4.153 -10.695  -2.471 -0.24 +0.01    +0.052 C 
DOCKED: ATOM     20  C   UNL d   1       0.358 -15.210  -4.478 -0.15 +0.04    +0.066 A 
DOCKED: ATOM     21  C   UNL d   1      -0.219 -16.019  -5.453 -0.20 -0.02    -0.025 A 
DOCKED: ATOM     22  C   UNL d   1      -1.041 -16.903  -4.790 -0.13 -0.02    -0.021 A 
DOCKED: ATOM     23  C   UNL d   1      -0.948 -16.588  -3.431 -0.09 +0.07    +0.066 A 
DOCKED: ATOM     24  C   UNL d   1      -0.001 -15.949  -6.942 -0.32 +0.03    +0.051 C 
DOCKED: ATOM     25  N   UNL d   1      -0.917 -15.904  -0.530 -0.03 -0.21    -0.248 N 
DOCKED: ATOM     26  N   UNL d   1       0.922 -13.802   0.291 -0.07 -0.12    -0.248 N 
DOCKED: ATOM     27  N   UNL d   1       1.698 -13.436  -2.407 -0.05 -0.10    -0.248 N 
DOCKED: ATOM     28  N   UNL d   1      -0.131 -15.529  -3.250 -0.05 -0.20    -0.248 N 
DOCKED: ATOM     29 FE   UNL d   1       0.393 -14.670  -1.494 -0.02 +0.00    +0.000 Fe
DOCKED: ATOM     30  O   UNL d   1      -0.880 -13.946  -0.967 -0.17 +0.00    +0.000 OA
DOCKED: ATOM     31  O   UNL d   1      -0.290 -13.561  -2.376 -0.18 +0.00    +0.000 OA
DOCKED: ENDROOT
DOCKED: BRANCH   6  32
DOCKED: ATOM     32  C   UNL d   1      -3.547 -18.519  -0.259 -0.02 +0.04    +0.052 C 
DOCKED: BRANCH  32  33
DOCKED: ATOM     33  C   UNL d   1      -4.789 -17.963  -0.948 -0.05 +0.13    +0.115 C 
DOCKED: BRANCH  33  34
DOCKED: ATOM     34  C   UNL d   1      -5.198 -16.619  -0.400 -0.10 +0.22    +0.139 C 
DOCKED: ATOM     35  O   UNL d   1      -5.394 -15.689  -1.167 -0.27 -1.55    -0.650 OA
DOCKED: BRANCH  34  36
DOCKED: ATOM     36  O   UNL d   1      -5.325 -16.409   0.926 -0.25 -1.59    -0.776 OA
DOCKED: ATOM     37  H   UNL d   1      -5.622 -17.102   1.527 +0.00 +0.27    +0.167 HD
DOCKED: ENDBRANCH  34  36
DOCKED: ENDBRANCH  33  34
DOCKED: ENDBRANCH  32  33
DOCKED: ENDBRANCH   6  32
DOCKED: BRANCH  22  38
DOCKED: ATOM     38  C   UNL d   1      -1.913 -17.947  -5.438 -0.13 +0.05    +0.052 C 
DOCKED: BRANCH  38  39
DOCKED: ATOM     39  C   UNL d   1      -3.214 -17.362  -5.983 -0.01 +0.16    +0.115 C 
DOCKED: BRANCH  39  40
DOCKED: ATOM     40  C   UNL d   1      -3.945 -18.324  -6.885 -0.12 +0.24    +0.139 C 
DOCKED: ATOM     41  O   UNL d   1      -3.312 -19.089  -7.596 -0.28 -1.49    -0.650 OA
DOCKED: BRANCH  40  42
DOCKED: ATOM     42  O   UNL d   1      -5.290 -18.393  -6.885 +0.03 -1.39    -0.776 OA
DOCKED: ATOM     43  H   UNL d   1      -5.778 -18.738  -6.127 +0.03 +0.23    +0.167 HD
DOCKED: ENDBRANCH  40  42
DOCKED: ENDBRANCH  39  40
DOCKED: ENDBRANCH  38  39
DOCKED: ENDBRANCH  22  38
DOCKED: BRANCH  12  44
DOCKED: ATOM     44  C   UNL d   1       2.996 -11.793   2.734 -0.31 +0.00    +0.004 C 
DOCKED: ATOM     45  C   UNL d   1       4.312 -11.644   2.581 -0.21 +0.00    +0.012 C 
DOCKED: ENDBRANCH  12  44
DOCKED: BRANCH  17  46
DOCKED: ATOM     46  C   UNL d   1       3.225 -11.951  -5.448 -0.42 +0.00    +0.004 C 
DOCKED: ATOM     47  C   UNL d   1       3.854 -12.674  -6.383 -0.50 +0.00    +0.012 C 
DOCKED: ENDBRANCH  17  46
DOCKED: TORSDOF 10
DOCKED: TER
DOCKED: ENDMDL
________________________________________________________________________________


	BEGINNING GENETIC ALGORITHM DOCKING 68 of 100
Run: 68 Seed: 592376182 1477525628 [ Run 68 of 100 GA/GALS ]
Beginning LAMARCKIAN GENETIC ALGORITHM (LGA), with a maximum of 25000000 energy evaluations.

Final-Value: -15.247


	FINAL GENETIC ALGORITHM DOCKED STATE
	_______________________________________________


Detailed state:  trans -4.900 -10.814 -1.796 quatxyzw -0.815725 -0.488738 0.240600 -0.194525 center 8.287 34.468 -0.670 ntor 10 66.0490 20.1702 42.4170 8.6624 -115.1474 -67.6617 -178.4230 63.0506 15.4269 121.8994
State:	 -4.900 -10.814  -1.796  -0.832 -0.498  0.245 -157.566     66.05   20.17   42.42    8.66 -115.15  -67.66 -178.42   63.05   15.43  121.90

DOCKED: MODEL       68
DOCKED: USER    Run = 68
DOCKED: USER    DPF = D:/Protein_go_brrr/autodock/final/AncA/heme_O2/dock.dpf
DOCKED: USER  
DOCKED: USER    Estimated Free Energy of Binding    =  -11.70 kcal/mol  [=(1)+(2)+(3)-(4)]
DOCKED: USER    Estimated Inhibition Constant, Ki   =    2.65 nM (nanomolar)  [Temperature = 298.15 K]
DOCKED: USER    
DOCKED: USER    (1) Final Intermolecular Energy     =  -14.68 kcal/mol
DOCKED: USER        vdW + Hbond + desolv Energy     =  -11.67 kcal/mol
DOCKED: USER        Electrostatic Energy            =   -3.01 kcal/mol
DOCKED: USER    (2) Final Total Internal Energy     =   -0.56 kcal/mol
DOCKED: USER    (3) Torsional Free Energy           =   +2.98 kcal/mol
DOCKED: USER    (4) Unbound System's Energy  [=(2)] =   -0.56 kcal/mol
DOCKED: USER    
DOCKED: USER    
DOCKED: USER    NEWDPF move heme_O2_opt.pdbqt
DOCKED: USER    NEWDPF about 8.287000 34.468000 -0.670000
DOCKED: USER    NEWDPF tran0 -4.900383 -10.813837 -1.795791
DOCKED: USER    NEWDPF quaternion0 -0.815725 -0.488738 0.240600 -0.194525
DOCKED: USER    NEWDPF axisangle0 -0.831610 -0.498256 0.245286 -157.566025
DOCKED: USER    NEWDPF quat0 -0.831610 -0.498256 0.245286 -157.566025
DOCKED: USER    NEWDPF dihe0 66.05 20.17 42.42 8.66 -115.15 -67.66 -178.42 63.05 15.43 121.90 
DOCKED: USER  keepresnum = 1 
DOCKED: USER  
DOCKED: REMARK  10 active torsions:
DOCKED: REMARK  status: ('A' for Active; 'I' for Inactive)
DOCKED: REMARK    1  A    between atoms: C_6  and  C_10 
DOCKED: REMARK    2  A    between atoms: C_10  and  C_11 
DOCKED: REMARK    3  A    between atoms: C_11  and  C_12 
DOCKED: REMARK    4  A    between atoms: C_12  and  O_14 
DOCKED: REMARK    5  A    between atoms: C_17  and  C_20 
DOCKED: REMARK    6  A    between atoms: C_24  and  C_27 
DOCKED: REMARK    7  A    between atoms: C_31  and  C_34 
DOCKED: REMARK    8  A    between atoms: C_34  and  C_35 
DOCKED: REMARK    9  A    between atoms: C_35  and  C_36 
DOCKED: REMARK   10  A    between atoms: C_36  and  O_38 
DOCKED: USER                              x       y       z     vdW  Elec       q    Type
DOCKED: USER                           _______ _______ _______ _____ _____    ______ ____
DOCKED: ROOT
DOCKED: ATOM      1  C   UNL d   1      -4.771 -12.815  -1.103 -0.21 +0.11    +0.064 A 
DOCKED: ATOM      2  C   UNL d   1      -8.372 -10.245  -2.831 -0.20 +0.03    +0.064 A 
DOCKED: ATOM      3  C   UNL d   1      -5.522  -6.407  -3.318 -0.34 +0.03    +0.064 C 
DOCKED: ATOM      4  C   UNL d   1      -1.698  -9.180  -1.990 -0.42 +0.02    +0.064 A 
DOCKED: ATOM      5  C   UNL d   1      -5.982 -12.429  -1.535 -0.21 +0.09    +0.066 A 
DOCKED: ATOM      6  C   UNL d   1      -7.112 -13.254  -1.536 -0.21 -0.03    -0.021 A 
DOCKED: ATOM      7  C   UNL d   1      -8.145 -12.524  -2.077 -0.23 -0.02    -0.025 A 
DOCKED: ATOM      8  C   UNL d   1      -7.630 -11.259  -2.346 -0.07 +0.04    +0.066 A 
DOCKED: ATOM      9  C   UNL d   1      -9.537 -13.057  -2.336 -0.19 +0.03    +0.051 C 
DOCKED: ATOM     10  C   UNL d   1      -7.894  -8.891  -3.113 -0.23 +0.02    +0.066 A 
DOCKED: ATOM     11  C   UNL d   1      -8.741  -7.832  -3.460 -0.43 -0.01    -0.021 A 
DOCKED: ATOM     12  C   UNL d   1      -7.940  -6.713  -3.587 -0.42 +0.00    +0.000 A 
DOCKED: ATOM     13  C   UNL d   1      -6.618  -7.164  -3.316 -0.27 +0.03    +0.070 A 
DOCKED: ATOM     14  C   UNL d   1     -10.254  -7.881  -3.635 -0.44 +0.01    +0.052 C 
DOCKED: ATOM     15  C   UNL d   1      -4.163  -6.832  -3.084 -0.14 +0.02    +0.066 A 
DOCKED: ATOM     16  C   UNL d   1      -3.040  -6.025  -3.262 -0.41 -0.00    -0.021 A 
DOCKED: ATOM     17  C   UNL d   1      -1.937  -6.795  -2.890 -0.47 +0.00    +0.000 A 
DOCKED: ATOM     18  C   UNL d   1      -2.478  -8.030  -2.506 -0.41 +0.02    +0.070 A 
DOCKED: ATOM     19  C   UNL d   1      -3.113  -4.625  -3.818 -0.43 +0.01    +0.052 C 
DOCKED: ATOM     20  C   UNL d   1      -2.180 -10.392  -1.654 -0.34 +0.04    +0.066 A 
DOCKED: ATOM     21  C   UNL d   1      -1.399 -11.431  -1.157 -0.28 -0.02    -0.025 A 
DOCKED: ATOM     22  C   UNL d   1      -2.261 -12.466  -0.873 -0.14 -0.02    -0.021 A 
DOCKED: ATOM     23  C   UNL d   1      -3.540 -12.024  -1.226 -0.28 +0.08    +0.066 A 
DOCKED: ATOM     24  C   UNL d   1       0.096 -11.438  -0.965 -0.33 +0.02    +0.051 C 
DOCKED: ATOM     25  N   UNL d   1      -6.282 -11.222  -2.073 +0.03 -0.21    -0.248 N 
DOCKED: ATOM     26  N   UNL d   1      -6.599  -8.491  -3.033 -0.07 -0.12    -0.248 N 
DOCKED: ATOM     27  N   UNL d   1      -3.821  -8.060  -2.702 -0.23 -0.10    -0.248 N 
DOCKED: ATOM     28  N   UNL d   1      -3.480 -10.780  -1.742 -0.21 -0.19    -0.248 N 
DOCKED: ATOM     29 FE   UNL d   1      -5.026  -9.642  -2.384 -0.08 +0.00    +0.000 Fe
DOCKED: ATOM     30  O   UNL d   1      -5.539 -10.304  -3.696 -0.29 +0.00    +0.000 OA
DOCKED: ATOM     31  O   UNL d   1      -4.041  -9.826  -3.596 +0.08 +0.00    +0.000 OA
DOCKED: ENDROOT
DOCKED: BRANCH   6  32
DOCKED: ATOM     32  C   UNL d   1      -7.189 -14.714  -1.173 -0.14 +0.08    +0.052 C 
DOCKED: BRANCH  32  33
DOCKED: ATOM     33  C   UNL d   1      -7.698 -14.945   0.247 -0.10 +0.14    +0.115 C 
DOCKED: BRANCH  33  34
DOCKED: ATOM     34  C   UNL d   1      -7.994 -13.654   0.969 -0.19 +0.16    +0.139 C 
DOCKED: ATOM     35  O   UNL d   1      -9.127 -13.201   0.955 -0.12 -0.49    -0.650 OA
DOCKED: BRANCH  34  36
DOCKED: ATOM     36  O   UNL d   1      -7.024 -12.968   1.610 -0.29 -1.31    -0.776 OA
DOCKED: ATOM     37  H   UNL d   1      -6.294 -12.553   1.137 +0.05 +0.28    +0.167 HD
DOCKED: ENDBRANCH  34  36
DOCKED: ENDBRANCH  33  34
DOCKED: ENDBRANCH  32  33
DOCKED: ENDBRANCH   6  32
DOCKED: BRANCH  22  38
DOCKED: ATOM     38  C   UNL d   1      -1.864 -13.823  -0.352 -0.12 +0.06    +0.052 C 
DOCKED: BRANCH  38  39
DOCKED: ATOM     39  C   UNL d   1      -2.596 -14.957  -1.065 -0.14 +0.19    +0.115 C 
DOCKED: BRANCH  39  40
DOCKED: ATOM     40  C   UNL d   1      -3.457 -15.767  -0.128 -0.12 +0.24    +0.139 C 
DOCKED: ATOM     41  O   UNL d   1      -4.530 -15.323   0.246 -0.45 -1.48    -0.650 OA
DOCKED: BRANCH  40  42
DOCKED: ATOM     42  O   UNL d   1      -3.085 -17.001   0.267 +0.00 -0.90    -0.776 OA
DOCKED: ATOM     43  H   UNL d   1      -2.162 -17.279   0.249 +0.02 +0.15    +0.167 HD
DOCKED: ENDBRANCH  40  42
DOCKED: ENDBRANCH  39  40
DOCKED: ENDBRANCH  38  39
DOCKED: ENDBRANCH  22  38
DOCKED: BRANCH  12  44
DOCKED: ATOM     44  C   UNL d   1      -8.506  -5.356  -3.950 -0.50 +0.00    +0.004 C 
DOCKED: ATOM     45  C   UNL d   1      -7.967  -4.428  -4.740 -0.56 +0.00    +0.012 C 
DOCKED: ENDBRANCH  12  44
DOCKED: BRANCH  17  46
DOCKED: ATOM     46  C   UNL d   1      -0.463  -6.490  -2.922 -0.50 +0.00    +0.004 C 
DOCKED: ATOM     47  C   UNL d   1       0.140  -5.354  -3.296 -0.60 +0.00    +0.012 C 
DOCKED: ENDBRANCH  17  46
DOCKED: TORSDOF 10
DOCKED: TER
DOCKED: ENDMDL
________________________________________________________________________________


	BEGINNING GENETIC ALGORITHM DOCKING 69 of 100
Run: 69 Seed: 1867538953 537187145 [ Run 69 of 100 GA/GALS ]
Beginning LAMARCKIAN GENETIC ALGORITHM (LGA), with a maximum of 25000000 energy evaluations.

Final-Value: -12.003


	FINAL GENETIC ALGORITHM DOCKED STATE
	_______________________________________________


Detailed state:  trans -5.372 -12.781 -1.264 quatxyzw -0.890243 -0.368582 0.168053 -0.208262 center 8.287 34.468 -0.670 ntor 10 25.4369 -116.4427 -61.4818 -131.6292 48.3276 -117.3444 -149.0663 -50.7866 -169.4800 -37.2772
State:	 -5.372 -12.781  -1.264  -0.910 -0.377  0.172 -155.959     25.44 -116.44  -61.48 -131.63   48.33 -117.34 -149.07  -50.79 -169.48  -37.28

DOCKED: MODEL       69
DOCKED: USER    Run = 69
DOCKED: USER    DPF = D:/Protein_go_brrr/autodock/final/AncA/heme_O2/dock.dpf
DOCKED: USER  
DOCKED: USER    Estimated Free Energy of Binding    =   -8.39 kcal/mol  [=(1)+(2)+(3)-(4)]
DOCKED: USER    Estimated Inhibition Constant, Ki   =  706.06 nM (nanomolar)  [Temperature = 298.15 K]
DOCKED: USER    
DOCKED: USER    (1) Final Intermolecular Energy     =  -11.37 kcal/mol
DOCKED: USER        vdW + Hbond + desolv Energy     =   -7.92 kcal/mol
DOCKED: USER        Electrostatic Energy            =   -3.45 kcal/mol
DOCKED: USER    (2) Final Total Internal Energy     =   -0.63 kcal/mol
DOCKED: USER    (3) Torsional Free Energy           =   +2.98 kcal/mol
DOCKED: USER    (4) Unbound System's Energy  [=(2)] =   -0.63 kcal/mol
DOCKED: USER    
DOCKED: USER    
DOCKED: USER    NEWDPF move heme_O2_opt.pdbqt
DOCKED: USER    NEWDPF about 8.287000 34.468000 -0.670000
DOCKED: USER    NEWDPF tran0 -5.372184 -12.780623 -1.263771
DOCKED: USER    NEWDPF quaternion0 -0.890243 -0.368582 0.168053 -0.208262
DOCKED: USER    NEWDPF axisangle0 -0.910201 -0.376845 0.171821 -155.958939
DOCKED: USER    NEWDPF quat0 -0.910201 -0.376845 0.171821 -155.958939
DOCKED: USER    NEWDPF dihe0 25.44 -116.44 -61.48 -131.63 48.33 -117.34 -149.07 -50.79 -169.48 -37.28 
DOCKED: USER  keepresnum = 1 
DOCKED: USER  
DOCKED: REMARK  10 active torsions:
DOCKED: REMARK  status: ('A' for Active; 'I' for Inactive)
DOCKED: REMARK    1  A    between atoms: C_6  and  C_10 
DOCKED: REMARK    2  A    between atoms: C_10  and  C_11 
DOCKED: REMARK    3  A    between atoms: C_11  and  C_12 
DOCKED: REMARK    4  A    between atoms: C_12  and  O_14 
DOCKED: REMARK    5  A    between atoms: C_17  and  C_20 
DOCKED: REMARK    6  A    between atoms: C_24  and  C_27 
DOCKED: REMARK    7  A    between atoms: C_31  and  C_34 
DOCKED: REMARK    8  A    between atoms: C_34  and  C_35 
DOCKED: REMARK    9  A    between atoms: C_35  and  C_36 
DOCKED: REMARK   10  A    between atoms: C_36  and  O_38 
DOCKED: USER                              x       y       z     vdW  Elec       q    Type
DOCKED: USER                           _______ _______ _______ _____ _____    ______ ____
DOCKED: ROOT
DOCKED: ATOM      1  C   UNL d   1      -5.913 -14.722  -0.604 +0.03 +0.13    +0.064 A 
DOCKED: ATOM      2  C   UNL d   1      -8.401 -11.204  -2.602 -0.25 +0.03    +0.064 A 
DOCKED: ATOM      3  C   UNL d   1      -4.499  -8.403  -2.745 -0.07 +0.03    +0.064 C 
DOCKED: ATOM      4  C   UNL d   1      -1.824 -12.184  -1.130 -0.23 +0.06    +0.064 A 
DOCKED: ATOM      5  C   UNL d   1      -6.908 -13.995  -1.137 -0.16 +0.10    +0.066 A 
DOCKED: ATOM      6  C   UNL d   1      -8.227 -14.442  -1.259 -0.12 -0.02    -0.021 A 
DOCKED: ATOM      7  C   UNL d   1      -8.939 -13.441  -1.877 -0.18 -0.02    -0.025 A 
DOCKED: ATOM      8  C   UNL d   1      -8.046 -12.390  -2.072 -0.22 +0.05    +0.066 A 
DOCKED: ATOM      9  C   UNL d   1     -10.396 -13.533  -2.274 -0.20 +0.02    +0.051 C 
DOCKED: ATOM     10  C   UNL d   1      -7.515 -10.058  -2.810 +0.09 +0.03    +0.066 A 
DOCKED: ATOM     11  C   UNL d   1      -7.969  -8.797  -3.211 -0.35 -0.01    -0.021 A 
DOCKED: ATOM     12  C   UNL d   1      -6.861  -7.970  -3.241 -0.25 +0.00    +0.000 A 
DOCKED: ATOM     13  C   UNL d   1      -5.767  -8.796  -2.859 +0.28 +0.04    +0.070 A 
DOCKED: ATOM     14  C   UNL d   1      -9.404  -8.391  -3.526 -0.51 +0.01    +0.052 C 
DOCKED: ATOM     15  C   UNL d   1      -3.358  -9.214  -2.396 -0.38 +0.03    +0.066 A 
DOCKED: ATOM     16  C   UNL d   1      -2.033  -8.783  -2.454 -0.45 -0.01    -0.021 A 
DOCKED: ATOM     17  C   UNL d   1      -1.252  -9.845  -1.998 -0.41 +0.00    +0.000 A 
DOCKED: ATOM     18  C   UNL d   1      -2.172 -10.858  -1.691 -0.31 +0.05    +0.070 A 
DOCKED: ATOM     19  C   UNL d   1      -1.632  -7.429  -2.984 -0.47 +0.01    +0.052 C 
DOCKED: ATOM     20  C   UNL d   1      -2.676 -13.194  -0.864 -0.13 +0.09    +0.066 A 
DOCKED: ATOM     21  C   UNL d   1      -2.292 -14.416  -0.319 -0.11 -0.03    -0.025 A 
DOCKED: ATOM     22  C   UNL d   1      -3.448 -15.141  -0.136 -0.06 -0.04    -0.021 A 
DOCKED: ATOM     23  C   UNL d   1      -4.497 -14.339  -0.596 +0.14 +0.15    +0.066 A 
DOCKED: ATOM     24  C   UNL d   1      -0.893 -14.869   0.009 -0.13 +0.04    +0.051 C 
DOCKED: ATOM     25  N   UNL d   1      -6.780 -12.757  -1.675 -0.16 -0.31    -0.248 N 
DOCKED: ATOM     26  N   UNL d   1      -6.173 -10.065  -2.603 -0.04 -0.15    -0.248 N 
DOCKED: ATOM     27  N   UNL d   1      -3.438 -10.484  -2.009 -0.22 -0.17    -0.248 N 
DOCKED: ATOM     28  N   UNL d   1      -4.018 -13.174  -1.080 -0.12 -0.47    -0.248 N 
DOCKED: ATOM     29 FE   UNL d   1      -5.085 -11.630  -1.836 -0.06 +0.00    +0.000 Fe
DOCKED: ATOM     30  O   UNL d   1      -5.647 -12.118  -3.203 -0.45 +0.00    +0.000 OA
DOCKED: ATOM     31  O   UNL d   1      -4.091 -12.110  -2.956 -0.84 +0.00    +0.000 OA
DOCKED: ENDROOT
DOCKED: BRANCH   6  32
DOCKED: ATOM     32  C   UNL d   1      -8.771 -15.809  -0.934 -0.06 +0.04    +0.052 C 
DOCKED: BRANCH  32  33
DOCKED: ATOM     33  C   UNL d   1      -8.620 -16.796  -2.088 -0.05 +0.09    +0.115 C 
DOCKED: BRANCH  33  34
DOCKED: ATOM     34  C   UNL d   1      -7.433 -16.481  -2.963 -0.04 +0.18    +0.139 C 
DOCKED: ATOM     35  O   UNL d   1      -7.605 -15.935  -4.041 +0.00 -0.85    -0.650 OA
DOCKED: BRANCH  34  36
DOCKED: ATOM     36  O   UNL d   1      -6.179 -16.815  -2.593 -0.09 -1.54    -0.776 OA
DOCKED: ATOM     37  H   UNL d   1      -6.001 -17.547  -1.992 +0.01 +0.22    +0.167 HD
DOCKED: ENDBRANCH  34  36
DOCKED: ENDBRANCH  33  34
DOCKED: ENDBRANCH  32  33
DOCKED: ENDBRANCH   6  32
DOCKED: BRANCH  22  38
DOCKED: ATOM     38  C   UNL d   1      -3.526 -16.551   0.390 -0.10 +0.08    +0.052 C 
DOCKED: BRANCH  38  39
DOCKED: ATOM     39  C   UNL d   1      -3.053 -16.658   1.839 +0.31 +0.17    +0.115 C 
DOCKED: BRANCH  39  40
DOCKED: ATOM     40  C   UNL d   1      -4.057 -17.356   2.722 +0.18 +0.21    +0.139 C 
DOCKED: ATOM     41  O   UNL d   1      -4.826 -18.172   2.239 -0.03 -0.69    -0.650 OA
DOCKED: BRANCH  40  42
DOCKED: ATOM     42  O   UNL d   1      -4.088 -17.134   4.050 -0.38 -1.18    -0.776 OA
DOCKED: ATOM     43  H   UNL d   1      -3.865 -17.827   4.683 +0.01 +0.15    +0.167 HD
DOCKED: ENDBRANCH  40  42
DOCKED: ENDBRANCH  39  40
DOCKED: ENDBRANCH  38  39
DOCKED: ENDBRANCH  22  38
DOCKED: BRANCH  12  44
DOCKED: ATOM     44  C   UNL d   1      -6.959  -6.509  -3.626 -0.49 +0.00    +0.004 C 
DOCKED: ATOM     45  C   UNL d   1      -6.736  -5.443  -2.858 -0.50 +0.00    +0.012 C 
DOCKED: ENDBRANCH  12  44
DOCKED: BRANCH  17  46
DOCKED: ATOM     46  C   UNL d   1       0.241  -9.997  -1.888 -0.08 +0.00    +0.004 C 
DOCKED: ATOM     47  C   UNL d   1       0.989 -11.067  -2.187 -0.28 +0.00    +0.012 C 
DOCKED: ENDBRANCH  17  46
DOCKED: TORSDOF 10
DOCKED: TER
DOCKED: ENDMDL
________________________________________________________________________________


	BEGINNING GENETIC ALGORITHM DOCKING 70 of 100
Run: 70 Seed: 1192408648 1684856883 [ Run 70 of 100 GA/GALS ]
Beginning LAMARCKIAN GENETIC ALGORITHM (LGA), with a maximum of 25000000 energy evaluations.

Final-Value: -11.801


	FINAL GENETIC ALGORITHM DOCKED STATE
	_______________________________________________


Detailed state:  trans -11.173 -14.887 -1.867 quatxyzw -0.354032 -0.811492 0.443639 0.139021 center 8.287 34.468 -0.670 ntor 10 -174.6266 89.5578 -40.9153 -114.0881 59.7799 42.7214 -97.9969 43.8288 -171.3803 -179.6198
State:	-11.173 -14.887  -1.867  -0.358 -0.819  0.448 164.018   -174.63   89.56  -40.92 -114.09   59.78   42.72  -98.00   43.83 -171.38 -179.62

DOCKED: MODEL       70
DOCKED: USER    Run = 70
DOCKED: USER    DPF = D:/Protein_go_brrr/autodock/final/AncA/heme_O2/dock.dpf
DOCKED: USER  
DOCKED: USER    Estimated Free Energy of Binding    =   -6.93 kcal/mol  [=(1)+(2)+(3)-(4)]
DOCKED: USER    Estimated Inhibition Constant, Ki   =    8.25 uM (micromolar)  [Temperature = 298.15 K]
DOCKED: USER    
DOCKED: USER    (1) Final Intermolecular Energy     =   -9.92 kcal/mol
DOCKED: USER        vdW + Hbond + desolv Energy     =   -5.87 kcal/mol
DOCKED: USER        Electrostatic Energy            =   -4.05 kcal/mol
DOCKED: USER    (2) Final Total Internal Energy     =   -1.88 kcal/mol
DOCKED: USER    (3) Torsional Free Energy           =   +2.98 kcal/mol
DOCKED: USER    (4) Unbound System's Energy  [=(2)] =   -1.88 kcal/mol
DOCKED: USER    
DOCKED: USER    
DOCKED: USER    NEWDPF move heme_O2_opt.pdbqt
DOCKED: USER    NEWDPF about 8.287000 34.468000 -0.670000
DOCKED: USER    NEWDPF tran0 -11.173266 -14.887089 -1.866578
DOCKED: USER    NEWDPF quaternion0 -0.354032 -0.811492 0.443639 0.139021
DOCKED: USER    NEWDPF axisangle0 -0.357504 -0.819449 0.447989 164.017657
DOCKED: USER    NEWDPF quat0 -0.357504 -0.819449 0.447989 164.017657
DOCKED: USER    NEWDPF dihe0 -174.63 89.56 -40.92 -114.09 59.78 42.72 -98.00 43.83 -171.38 -179.62 
DOCKED: USER  keepresnum = 1 
DOCKED: USER  
DOCKED: REMARK  10 active torsions:
DOCKED: REMARK  status: ('A' for Active; 'I' for Inactive)
DOCKED: REMARK    1  A    between atoms: C_6  and  C_10 
DOCKED: REMARK    2  A    between atoms: C_10  and  C_11 
DOCKED: REMARK    3  A    between atoms: C_11  and  C_12 
DOCKED: REMARK    4  A    between atoms: C_12  and  O_14 
DOCKED: REMARK    5  A    between atoms: C_17  and  C_20 
DOCKED: REMARK    6  A    between atoms: C_24  and  C_27 
DOCKED: REMARK    7  A    between atoms: C_31  and  C_34 
DOCKED: REMARK    8  A    between atoms: C_34  and  C_35 
DOCKED: REMARK    9  A    between atoms: C_35  and  C_36 
DOCKED: REMARK   10  A    between atoms: C_36  and  O_38 
DOCKED: USER                              x       y       z     vdW  Elec       q    Type
DOCKED: USER                           _______ _______ _______ _____ _____    ______ ____
DOCKED: ROOT
DOCKED: ATOM      1  C   UNL d   1      -9.353 -14.862  -0.777 -0.08 +0.04    +0.064 A 
DOCKED: ATOM      2  C   UNL d   1     -12.420 -18.336  -1.821 -0.01 +0.02    +0.064 A 
DOCKED: ATOM      3  C   UNL d   1     -15.268 -15.247  -4.154 -0.05 +0.01    +0.064 C 
DOCKED: ATOM      4  C   UNL d   1     -11.883 -11.757  -3.496 -0.27 +0.01    +0.064 A 
DOCKED: ATOM      5  C   UNL d   1      -9.954 -16.059  -0.872 -0.04 +0.03    +0.066 A 
DOCKED: ATOM      6  C   UNL d   1      -9.456 -17.233  -0.299 -0.00 -0.01    -0.021 A 
DOCKED: ATOM      7  C   UNL d   1     -10.320 -18.247  -0.637 -0.00 -0.01    -0.025 A 
DOCKED: ATOM      8  C   UNL d   1     -11.348 -17.657  -1.367 -0.01 +0.02    +0.066 A 
DOCKED: ATOM      9  C   UNL d   1     -10.123 -19.706  -0.286 +0.00 +0.02    +0.051 C 
DOCKED: ATOM     10  C   UNL d   1     -13.540 -17.767  -2.572 -0.02 +0.01    +0.066 A 
DOCKED: ATOM     11  C   UNL d   1     -14.704 -18.482  -2.876 -0.01 -0.00    -0.021 A 
DOCKED: ATOM     12  C   UNL d   1     -15.545 -17.603  -3.533 -0.01 +0.00    +0.000 A 
DOCKED: ATOM     13  C   UNL d   1     -14.826 -16.378  -3.605 -0.03 +0.01    +0.070 A 
DOCKED: ATOM     14  C   UNL d   1     -15.012 -19.934  -2.531 -0.00 +0.01    +0.052 C 
DOCKED: ATOM     15  C   UNL d   1     -14.558 -13.996  -4.277 -0.10 +0.01    +0.066 A 
DOCKED: ATOM     16  C   UNL d   1     -15.011 -12.898  -5.007 -0.12 -0.00    -0.021 A 
DOCKED: ATOM     17  C   UNL d   1     -14.062 -11.891  -4.835 -0.26 +0.00    +0.000 A 
DOCKED: ATOM     18  C   UNL d   1     -13.088 -12.457  -4.000 -0.23 +0.01    +0.070 A 
DOCKED: ATOM     19  C   UNL d   1     -16.268 -12.927  -5.840 -0.07 +0.01    +0.052 C 
DOCKED: ATOM     20  C   UNL d   1     -10.908 -12.283  -2.730 -0.20 +0.02    +0.066 A 
DOCKED: ATOM     21  C   UNL d   1      -9.805 -11.568  -2.271 -0.31 -0.01    -0.025 A 
DOCKED: ATOM     22  C   UNL d   1      -9.087 -12.429  -1.472 -0.25 -0.01    -0.021 A 
DOCKED: ATOM     23  C   UNL d   1      -9.772 -13.648  -1.488 -0.16 +0.04    +0.066 A 
DOCKED: ATOM     24  C   UNL d   1      -9.452 -10.136  -2.583 -0.44 +0.02    +0.051 C 
DOCKED: ATOM     25  N   UNL d   1     -11.088 -16.321  -1.567 -0.02 -0.09    -0.248 N 
DOCKED: ATOM     26  N   UNL d   1     -13.605 -16.488  -3.021 -0.02 -0.05    -0.248 N 
DOCKED: ATOM     27  N   UNL d   1     -13.368 -13.758  -3.733 -0.10 -0.04    -0.248 N 
DOCKED: ATOM     28  N   UNL d   1     -10.854 -13.568  -2.290 -0.12 -0.09    -0.248 N 
DOCKED: ATOM     29 FE   UNL d   1     -12.221 -15.015  -2.655 -0.03 +0.00    +0.000 Fe
DOCKED: ATOM     30  O   UNL d   1     -11.497 -16.089  -3.518 -0.09 +0.00    +0.000 OA
DOCKED: ATOM     31  O   UNL d   1     -11.590 -14.604  -4.035 -0.16 +0.00    +0.000 OA
DOCKED: ENDROOT
DOCKED: BRANCH   6  32
DOCKED: ATOM     32  C   UNL d   1      -8.147 -17.424   0.422 -0.01 +0.04    +0.052 C 
DOCKED: BRANCH  32  33
DOCKED: ATOM     33  C   UNL d   1      -6.996 -17.765  -0.519 -0.02 +0.10    +0.115 C 
DOCKED: BRANCH  33  34
DOCKED: ATOM     34  C   UNL d   1      -6.440 -16.546  -1.213 -0.05 +0.21    +0.139 C 
DOCKED: ATOM     35  O   UNL d   1      -6.894 -16.209  -2.295 -0.40 -1.12    -0.650 OA
DOCKED: BRANCH  34  36
DOCKED: ATOM     36  O   UNL d   1      -5.429 -15.832  -0.678 -0.29 -1.57    -0.776 OA
DOCKED: ATOM     37  H   UNL d   1      -5.121 -15.008  -1.072 +0.02 +0.43    +0.167 HD
DOCKED: ENDBRANCH  34  36
DOCKED: ENDBRANCH  33  34
DOCKED: ENDBRANCH  32  33
DOCKED: ENDBRANCH   6  32
DOCKED: BRANCH  22  38
DOCKED: ATOM     38  C   UNL d   1      -7.783 -12.112  -0.788 -0.18 +0.04    +0.052 C 
DOCKED: BRANCH  38  39
DOCKED: ATOM     39  C   UNL d   1      -6.596 -12.158  -1.748 -0.26 +0.13    +0.115 C 
DOCKED: BRANCH  39  40
DOCKED: ATOM     40  C   UNL d   1      -5.396 -12.845  -1.147 -0.24 +0.23    +0.139 C 
DOCKED: ATOM     41  O   UNL d   1      -4.332 -12.840  -1.745 -0.21 -1.38    -0.650 OA
DOCKED: BRANCH  40  42
DOCKED: ATOM     42  O   UNL d   1      -5.461 -13.425   0.068 -0.14 -1.49    -0.776 OA
DOCKED: ATOM     43  H   UNL d   1      -5.684 -14.358   0.170 +0.03 +0.38    +0.167 HD
DOCKED: ENDBRANCH  40  42
DOCKED: ENDBRANCH  39  40
DOCKED: ENDBRANCH  38  39
DOCKED: ENDBRANCH  22  38
DOCKED: BRANCH  12  44
DOCKED: ATOM     44  C   UNL d   1     -16.919 -18.016  -4.019 -0.01 +0.00    +0.004 C 
DOCKED: ATOM     45  C   UNL d   1     -18.066 -17.350  -3.893 -0.01 +0.00    +0.012 C 
DOCKED: ENDBRANCH  12  44
DOCKED: BRANCH  17  46
DOCKED: ATOM     46  C   UNL d   1     -13.972 -10.507  -5.421 -0.40 +0.00    +0.004 C 
DOCKED: ATOM     47  C   UNL d   1     -12.993  -9.987  -6.173 -0.50 -0.00    +0.012 C 
DOCKED: ENDBRANCH  17  46
DOCKED: TORSDOF 10
DOCKED: TER
DOCKED: ENDMDL
________________________________________________________________________________


	BEGINNING GENETIC ALGORITHM DOCKING 71 of 100
Run: 71 Seed: 1873735852 1293615935 [ Run 71 of 100 GA/GALS ]
Beginning LAMARCKIAN GENETIC ALGORITHM (LGA), with a maximum of 25000000 energy evaluations.

Final-Value: -12.227


	FINAL GENETIC ALGORITHM DOCKED STATE
	_______________________________________________


Detailed state:  trans -0.169 -15.848 -1.832 quatxyzw 0.423042 0.027701 -0.407697 0.808734 center 8.287 34.468 -0.670 ntor 10 2.4354 -32.2470 -43.5527 121.0536 46.9249 58.8129 -154.9357 -55.3733 179.1814 154.6909
State:	 -0.169 -15.848  -1.832   0.719  0.047 -0.693 72.055      2.44  -32.25  -43.55  121.05   46.92   58.81 -154.94  -55.37  179.18  154.69

DOCKED: MODEL       71
DOCKED: USER    Run = 71
DOCKED: USER    DPF = D:/Protein_go_brrr/autodock/final/AncA/heme_O2/dock.dpf
DOCKED: USER  
DOCKED: USER    Estimated Free Energy of Binding    =   -8.47 kcal/mol  [=(1)+(2)+(3)-(4)]
DOCKED: USER    Estimated Inhibition Constant, Ki   =  614.38 nM (nanomolar)  [Temperature = 298.15 K]
DOCKED: USER    
DOCKED: USER    (1) Final Intermolecular Energy     =  -11.46 kcal/mol
DOCKED: USER        vdW + Hbond + desolv Energy     =   -6.64 kcal/mol
DOCKED: USER        Electrostatic Energy            =   -4.82 kcal/mol
DOCKED: USER    (2) Final Total Internal Energy     =   -0.77 kcal/mol
DOCKED: USER    (3) Torsional Free Energy           =   +2.98 kcal/mol
DOCKED: USER    (4) Unbound System's Energy  [=(2)] =   -0.77 kcal/mol
DOCKED: USER    
DOCKED: USER    
DOCKED: USER    NEWDPF move heme_O2_opt.pdbqt
DOCKED: USER    NEWDPF about 8.287000 34.468000 -0.670000
DOCKED: USER    NEWDPF tran0 -0.168980 -15.847882 -1.832143
DOCKED: USER    NEWDPF quaternion0 0.423042 0.027701 -0.407697 0.808734
DOCKED: USER    NEWDPF axisangle0 0.719246 0.047097 -0.693158 72.055084
DOCKED: USER    NEWDPF quat0 0.719246 0.047097 -0.693158 72.055084
DOCKED: USER    NEWDPF dihe0 2.44 -32.25 -43.55 121.05 46.92 58.81 -154.94 -55.37 179.18 154.69 
DOCKED: USER  keepresnum = 1 
DOCKED: USER  
DOCKED: REMARK  10 active torsions:
DOCKED: REMARK  status: ('A' for Active; 'I' for Inactive)
DOCKED: REMARK    1  A    between atoms: C_6  and  C_10 
DOCKED: REMARK    2  A    between atoms: C_10  and  C_11 
DOCKED: REMARK    3  A    between atoms: C_11  and  C_12 
DOCKED: REMARK    4  A    between atoms: C_12  and  O_14 
DOCKED: REMARK    5  A    between atoms: C_17  and  C_20 
DOCKED: REMARK    6  A    between atoms: C_24  and  C_27 
DOCKED: REMARK    7  A    between atoms: C_31  and  C_34 
DOCKED: REMARK    8  A    between atoms: C_34  and  C_35 
DOCKED: REMARK    9  A    between atoms: C_35  and  C_36 
DOCKED: REMARK   10  A    between atoms: C_36  and  O_38 
DOCKED: USER                              x       y       z     vdW  Elec       q    Type
DOCKED: USER                           _______ _______ _______ _____ _____    ______ ____
DOCKED: ROOT
DOCKED: ATOM      1  C   UNL d   1      -1.486 -17.468  -2.209 -0.04 +0.06    +0.064 A 
DOCKED: ATOM      2  C   UNL d   1      -0.413 -15.057   1.741 -0.11 +0.05    +0.064 A 
DOCKED: ATOM      3  C   UNL d   1       2.716 -12.319  -0.670 -0.21 +0.02    +0.064 C 
DOCKED: ATOM      4  C   UNL d   1       1.270 -14.474  -4.833 -0.20 +0.03    +0.064 A 
DOCKED: ATOM      5  C   UNL d   1      -1.451 -17.034  -0.938 -0.04 +0.06    +0.066 A 
DOCKED: ATOM      6  C   UNL d   1      -2.205 -17.590   0.099 -0.04 -0.02    -0.021 A 
DOCKED: ATOM      7  C   UNL d   1      -1.928 -16.865   1.235 -0.07 -0.02    -0.025 A 
DOCKED: ATOM      8  C   UNL d   1      -0.975 -15.917   0.869 -0.08 +0.05    +0.066 A 
DOCKED: ATOM      9  C   UNL d   1      -2.585 -17.078   2.580 -0.04 +0.06    +0.051 C 
DOCKED: ATOM     10  C   UNL d   1       0.606 -14.057   1.421 -0.12 +0.04    +0.066 A 
DOCKED: ATOM     11  C   UNL d   1       1.274 -13.302   2.392 -0.19 -0.01    -0.021 A 
DOCKED: ATOM     12  C   UNL d   1       2.193 -12.519   1.718 -0.24 +0.00    +0.000 A 
DOCKED: ATOM     13  C   UNL d   1       2.022 -12.839   0.343 -0.15 +0.02    +0.070 A 
DOCKED: ATOM     14  C   UNL d   1       1.063 -13.345   3.901 -0.25 +0.03    +0.052 C 
DOCKED: ATOM     15  C   UNL d   1       2.549 -12.591  -2.077 -0.14 +0.02    +0.066 A 
DOCKED: ATOM     16  C   UNL d   1       3.193 -11.893  -3.098 -0.23 -0.01    -0.021 A 
DOCKED: ATOM     17  C   UNL d   1       2.796 -12.490  -4.295 -0.26 +0.00    +0.000 A 
DOCKED: ATOM     18  C   UNL d   1       1.929 -13.521  -3.908 -0.16 +0.03    +0.070 A 
DOCKED: ATOM     19  C   UNL d   1       4.078 -10.698  -2.847 -0.30 +0.01    +0.052 C 
DOCKED: ATOM     20  C   UNL d   1       0.400 -15.447  -4.500 -0.13 +0.04    +0.066 A 
DOCKED: ATOM     21  C   UNL d   1      -0.175 -16.326  -5.413 -0.17 -0.02    -0.025 A 
DOCKED: ATOM     22  C   UNL d   1      -0.942 -17.204  -4.680 -0.11 -0.02    -0.021 A 
DOCKED: ATOM     23  C   UNL d   1      -0.821 -16.815  -3.343 -0.07 +0.06    +0.066 A 
DOCKED: ATOM     24  C   UNL d   1      -0.004 -16.327  -6.910 -0.31 +0.03    +0.051 C 
DOCKED: ATOM     25  N   UNL d   1      -0.731 -15.980  -0.483 -0.03 -0.19    -0.248 N 
DOCKED: ATOM     26  N   UNL d   1       1.051 -13.772   0.171 -0.06 -0.12    -0.248 N 
DOCKED: ATOM     27  N   UNL d   1       1.732 -13.520  -2.565 -0.05 -0.10    -0.248 N 
DOCKED: ATOM     28  N   UNL d   1      -0.040 -15.719  -3.242 -0.04 -0.19    -0.248 N 
DOCKED: ATOM     29 FE   UNL d   1       0.503 -14.751  -1.550 -0.02 +0.00    +0.000 Fe
DOCKED: ATOM     30  O   UNL d   1      -0.781 -14.047  -1.021 -0.16 +0.00    +0.000 OA
DOCKED: ATOM     31  O   UNL d   1      -0.248 -13.715  -2.465 -0.17 +0.00    +0.000 OA
DOCKED: ENDROOT
DOCKED: BRANCH   6  32
DOCKED: ATOM     32  C   UNL d   1      -3.250 -18.671   0.004 -0.02 +0.04    +0.052 C 
DOCKED: BRANCH  32  33
DOCKED: ATOM     33  C   UNL d   1      -4.670 -18.118  -0.067 -0.04 +0.11    +0.115 C 
DOCKED: BRANCH  33  34
DOCKED: ATOM     34  C   UNL d   1      -4.709 -16.697  -0.571 -0.09 +0.22    +0.139 C 
DOCKED: ATOM     35  O   UNL d   1      -4.894 -15.782   0.216 -0.49 -1.38    -0.650 OA
DOCKED: BRANCH  34  36
DOCKED: ATOM     36  O   UNL d   1      -4.571 -16.412  -1.883 +0.53 -2.05    -0.776 OA
DOCKED: ATOM     37  H   UNL d   1      -4.481 -17.103  -2.549 +0.01 +0.37    +0.167 HD
DOCKED: ENDBRANCH  34  36
DOCKED: ENDBRANCH  33  34
DOCKED: ENDBRANCH  32  33
DOCKED: ENDBRANCH   6  32
DOCKED: BRANCH  22  38
DOCKED: ATOM     38  C   UNL d   1      -1.793 -18.311  -5.246 -0.10 +0.05    +0.052 C 
DOCKED: BRANCH  38  39
DOCKED: ATOM     39  C   UNL d   1      -3.279 -17.960  -5.251 -0.15 +0.15    +0.115 C 
DOCKED: BRANCH  39  40
DOCKED: ATOM     40  C   UNL d   1      -3.889 -18.054  -6.627 -0.19 +0.21    +0.139 C 
DOCKED: ATOM     41  O   UNL d   1      -4.899 -17.420  -6.887 -0.06 -1.03    -0.650 OA
DOCKED: BRANCH  40  42
DOCKED: ATOM     42  O   UNL d   1      -3.308 -18.787  -7.597 -0.39 -1.66    -0.776 OA
DOCKED: ATOM     43  H   UNL d   1      -2.354 -18.921  -7.625 +0.04 +0.23    +0.167 HD
DOCKED: ENDBRANCH  40  42
DOCKED: ENDBRANCH  39  40
DOCKED: ENDBRANCH  38  39
DOCKED: ENDBRANCH  22  38
DOCKED: BRANCH  12  44
DOCKED: ATOM     44  C   UNL d   1       3.119 -11.563   2.441 -0.33 +0.00    +0.004 C 
DOCKED: ATOM     45  C   UNL d   1       4.434 -11.421   2.284 -0.22 +0.00    +0.012 C 
DOCKED: ENDBRANCH  12  44
DOCKED: BRANCH  17  46
DOCKED: ATOM     46  C   UNL d   1       3.110 -12.141  -5.725 -0.41 +0.00    +0.004 C 
DOCKED: ATOM     47  C   UNL d   1       3.808 -12.855  -6.618 -0.52 +0.00    +0.012 C 
DOCKED: ENDBRANCH  17  46
DOCKED: TORSDOF 10
DOCKED: TER
DOCKED: ENDMDL
________________________________________________________________________________


	BEGINNING GENETIC ALGORITHM DOCKING 72 of 100
Run: 72 Seed: 103063712 1030173052 [ Run 72 of 100 GA/GALS ]
Beginning LAMARCKIAN GENETIC ALGORITHM (LGA), with a maximum of 25000000 energy evaluations.

Final-Value: -11.988


	FINAL GENETIC ALGORITHM DOCKED STATE
	_______________________________________________


Detailed state:  trans -11.286 -14.751 -2.112 quatxyzw 0.412618 0.810942 -0.353623 -0.216959 center 8.287 34.468 -0.670 ntor 10 115.7628 68.6566 42.5012 -124.7634 -118.1636 -59.8473 -63.3698 -31.0924 -155.9473 14.1738
State:	-11.286 -14.751  -2.112   0.423  0.831 -0.362 -154.939    115.76   68.66   42.50 -124.76 -118.16  -59.85  -63.37  -31.09 -155.95   14.17

DOCKED: MODEL       72
DOCKED: USER    Run = 72
DOCKED: USER    DPF = D:/Protein_go_brrr/autodock/final/AncA/heme_O2/dock.dpf
DOCKED: USER  
DOCKED: USER    Estimated Free Energy of Binding    =   -6.85 kcal/mol  [=(1)+(2)+(3)-(4)]
DOCKED: USER    Estimated Inhibition Constant, Ki   =    9.56 uM (micromolar)  [Temperature = 298.15 K]
DOCKED: USER    
DOCKED: USER    (1) Final Intermolecular Energy     =   -9.83 kcal/mol
DOCKED: USER        vdW + Hbond + desolv Energy     =   -6.10 kcal/mol
DOCKED: USER        Electrostatic Energy            =   -3.73 kcal/mol
DOCKED: USER    (2) Final Total Internal Energy     =   -2.16 kcal/mol
DOCKED: USER    (3) Torsional Free Energy           =   +2.98 kcal/mol
DOCKED: USER    (4) Unbound System's Energy  [=(2)] =   -2.16 kcal/mol
DOCKED: USER    
DOCKED: USER    
DOCKED: USER    NEWDPF move heme_O2_opt.pdbqt
DOCKED: USER    NEWDPF about 8.287000 34.468000 -0.670000
DOCKED: USER    NEWDPF tran0 -11.286172 -14.750690 -2.112016
DOCKED: USER    NEWDPF quaternion0 0.412618 0.810942 -0.353623 -0.216959
DOCKED: USER    NEWDPF axisangle0 0.422686 0.830729 -0.362251 -154.939072
DOCKED: USER    NEWDPF quat0 0.422686 0.830729 -0.362251 -154.939072
DOCKED: USER    NEWDPF dihe0 115.76 68.66 42.50 -124.76 -118.16 -59.85 -63.37 -31.09 -155.95 14.17 
DOCKED: USER  keepresnum = 1 
DOCKED: USER  
DOCKED: REMARK  10 active torsions:
DOCKED: REMARK  status: ('A' for Active; 'I' for Inactive)
DOCKED: REMARK    1  A    between atoms: C_6  and  C_10 
DOCKED: REMARK    2  A    between atoms: C_10  and  C_11 
DOCKED: REMARK    3  A    between atoms: C_11  and  C_12 
DOCKED: REMARK    4  A    between atoms: C_12  and  O_14 
DOCKED: REMARK    5  A    between atoms: C_17  and  C_20 
DOCKED: REMARK    6  A    between atoms: C_24  and  C_27 
DOCKED: REMARK    7  A    between atoms: C_31  and  C_34 
DOCKED: REMARK    8  A    between atoms: C_34  and  C_35 
DOCKED: REMARK    9  A    between atoms: C_35  and  C_36 
DOCKED: REMARK   10  A    between atoms: C_36  and  O_38 
DOCKED: USER                              x       y       z     vdW  Elec       q    Type
DOCKED: USER                           _______ _______ _______ _____ _____    ______ ____
DOCKED: ROOT
DOCKED: ATOM      1  C   UNL d   1      -9.782 -14.867  -0.621 -0.09 +0.04    +0.064 A 
DOCKED: ATOM      2  C   UNL d   1     -12.467 -18.167  -2.733 -0.01 +0.02    +0.064 A 
DOCKED: ATOM      3  C   UNL d   1     -14.707 -14.808  -5.340 -0.05 +0.01    +0.064 C 
DOCKED: ATOM      4  C   UNL d   1     -11.620 -11.456  -3.524 -0.29 +0.01    +0.064 A 
DOCKED: ATOM      5  C   UNL d   1     -10.328 -16.038  -0.984 -0.05 +0.03    +0.066 A 
DOCKED: ATOM      6  C   UNL d   1      -9.969 -17.273  -0.436 -0.01 -0.01    -0.021 A 
DOCKED: ATOM      7  C   UNL d   1     -10.714 -18.234  -1.077 -0.00 -0.01    -0.025 A 
DOCKED: ATOM      8  C   UNL d   1     -11.544 -17.555  -1.966 -0.02 +0.02    +0.066 A 
DOCKED: ATOM      9  C   UNL d   1     -10.590 -19.724  -0.845 +0.00 +0.02    +0.051 C 
DOCKED: ATOM     10  C   UNL d   1     -13.380 -17.506  -3.666 -0.01 +0.02    +0.066 A 
DOCKED: ATOM     11  C   UNL d   1     -14.428 -18.168  -4.315 -0.01 -0.00    -0.021 A 
DOCKED: ATOM     12  C   UNL d   1     -15.097 -17.213  -5.058 -0.01 +0.00    +0.000 A 
DOCKED: ATOM     13  C   UNL d   1     -14.396 -15.997  -4.824 -0.03 +0.01    +0.070 A 
DOCKED: ATOM     14  C   UNL d   1     -14.793 -19.644  -4.210 -0.00 +0.01    +0.052 C 
DOCKED: ATOM     15  C   UNL d   1     -14.002 -13.562  -5.156 -0.11 +0.01    +0.066 A 
DOCKED: ATOM     16  C   UNL d   1     -14.280 -12.387  -5.854 -0.18 -0.00    -0.021 A 
DOCKED: ATOM     17  C   UNL d   1     -13.411 -11.417  -5.353 -0.34 +0.00    +0.000 A 
DOCKED: ATOM     18  C   UNL d   1     -12.660 -12.082  -4.373 -0.27 +0.01    +0.070 A 
DOCKED: ATOM     19  C   UNL d   1     -15.300 -12.309  -6.962 -0.13 +0.00    +0.052 C 
DOCKED: ATOM     20  C   UNL d   1     -10.852 -12.074  -2.606 -0.23 +0.02    +0.066 A 
DOCKED: ATOM     21  C   UNL d   1      -9.900 -11.427  -1.822 -0.33 -0.01    -0.025 A 
DOCKED: ATOM     22  C   UNL d   1      -9.385 -12.378  -0.970 -0.27 -0.01    -0.021 A 
DOCKED: ATOM     23  C   UNL d   1     -10.032 -13.579  -1.279 -0.16 +0.03    +0.066 A 
DOCKED: ATOM     24  C   UNL d   1      -9.499  -9.976  -1.886 -0.42 +0.01    +0.051 C 
DOCKED: ATOM     25  N   UNL d   1     -11.259 -16.209  -1.954 -0.03 -0.09    -0.248 N 
DOCKED: ATOM     26  N   UNL d   1     -13.350 -16.186  -3.980 -0.02 -0.05    -0.248 N 
DOCKED: ATOM     27  N   UNL d   1     -12.981 -13.400  -4.320 -0.10 -0.04    -0.248 N 
DOCKED: ATOM     28  N   UNL d   1     -10.890 -13.399  -2.304 -0.12 -0.09    -0.248 N 
DOCKED: ATOM     29 FE   UNL d   1     -12.112 -14.780  -3.138 -0.03 +0.00    +0.000 Fe
DOCKED: ATOM     30  O   UNL d   1     -11.190 -15.767  -3.911 -0.12 +0.00    +0.000 OA
DOCKED: ATOM     31  O   UNL d   1     -11.172 -14.234  -4.274 -0.08 +0.00    +0.000 OA
DOCKED: ENDROOT
DOCKED: BRANCH   6  32
DOCKED: ATOM     32  C   UNL d   1      -8.869 -17.558   0.555 -0.00 +0.03    +0.052 C 
DOCKED: BRANCH  32  33
DOCKED: ATOM     33  C   UNL d   1      -7.476 -17.443  -0.057 -0.02 +0.10    +0.115 C 
DOCKED: BRANCH  33  34
DOCKED: ATOM     34  C   UNL d   1      -6.680 -16.307   0.534 -0.02 +0.20    +0.139 C 
DOCKED: ATOM     35  O   UNL d   1      -5.969 -16.509   1.505 +0.04 -1.33    -0.650 OA
DOCKED: BRANCH  34  36
DOCKED: ATOM     36  O   UNL d   1      -6.757 -15.057   0.031 -0.18 -1.27    -0.776 OA
DOCKED: ATOM     37  H   UNL d   1      -7.107 -14.320   0.544 +0.04 +0.27    +0.167 HD
DOCKED: ENDBRANCH  34  36
DOCKED: ENDBRANCH  33  34
DOCKED: ENDBRANCH  32  33
DOCKED: ENDBRANCH   6  32
DOCKED: BRANCH  22  38
DOCKED: ATOM     38  C   UNL d   1      -8.287 -12.153   0.037 -0.24 +0.04    +0.052 C 
DOCKED: BRANCH  38  39
DOCKED: ATOM     39  C   UNL d   1      -8.766 -12.352   1.473 -0.22 +0.09    +0.115 C 
DOCKED: BRANCH  39  40
DOCKED: ATOM     40  C   UNL d   1      -7.682 -12.893   2.372 -0.28 +0.19    +0.139 C 
DOCKED: ATOM     41  O   UNL d   1      -6.888 -12.126   2.894 -0.80 -0.97    -0.650 OA
DOCKED: BRANCH  40  42
DOCKED: ATOM     42  O   UNL d   1      -7.604 -14.208   2.654 -0.04 -1.37    -0.776 OA
DOCKED: ATOM     43  H   UNL d   1      -7.324 -14.850   1.991 +0.04 +0.33    +0.167 HD
DOCKED: ENDBRANCH  40  42
DOCKED: ENDBRANCH  39  40
DOCKED: ENDBRANCH  38  39
DOCKED: ENDBRANCH  22  38
DOCKED: BRANCH  12  44
DOCKED: ATOM     44  C   UNL d   1     -16.309 -17.553  -5.900 -0.00 +0.00    +0.004 C 
DOCKED: ATOM     45  C   UNL d   1     -16.635 -17.069  -7.098 -0.00 +0.00    +0.012 C 
DOCKED: ENDBRANCH  12  44
DOCKED: BRANCH  17  46
DOCKED: ATOM     46  C   UNL d   1     -13.200  -9.981  -5.750 -0.49 -0.00    +0.004 C 
DOCKED: ATOM     47  C   UNL d   1     -12.044  -9.351  -5.998 -0.42 +0.00    +0.012 C 
DOCKED: ENDBRANCH  17  46
DOCKED: TORSDOF 10
DOCKED: TER
DOCKED: ENDMDL
________________________________________________________________________________


	BEGINNING GENETIC ALGORITHM DOCKING 73 of 100
Run: 73 Seed: 1440345433 2062191742 [ Run 73 of 100 GA/GALS ]
Beginning LAMARCKIAN GENETIC ALGORITHM (LGA), with a maximum of 25000000 energy evaluations.

Final-Value: -10.563


	FINAL GENETIC ALGORITHM DOCKED STATE
	_______________________________________________


Detailed state:  trans -5.927 -0.280 -16.175 quatxyzw 0.452700 -0.746460 0.056670 0.484404 center 8.287 34.468 -0.670 ntor 10 -2.8462 -156.7517 -1.0462 98.3736 -100.6636 -18.9648 -12.5114 106.6901 -179.0671 -180.0000
State:	 -5.927  -0.280 -16.175   0.517 -0.853  0.065 122.053     -2.85 -156.75   -1.05   98.37 -100.66  -18.96  -12.51  106.69 -179.07 -180.00

DOCKED: MODEL       73
DOCKED: USER    Run = 73
DOCKED: USER    DPF = D:/Protein_go_brrr/autodock/final/AncA/heme_O2/dock.dpf
DOCKED: USER  
DOCKED: USER    Estimated Free Energy of Binding    =   -5.89 kcal/mol  [=(1)+(2)+(3)-(4)]
DOCKED: USER    Estimated Inhibition Constant, Ki   =   48.30 uM (micromolar)  [Temperature = 298.15 K]
DOCKED: USER    
DOCKED: USER    (1) Final Intermolecular Energy     =   -8.87 kcal/mol
DOCKED: USER        vdW + Hbond + desolv Energy     =   -8.11 kcal/mol
DOCKED: USER        Electrostatic Energy            =   -0.76 kcal/mol
DOCKED: USER    (2) Final Total Internal Energy     =   -1.69 kcal/mol
DOCKED: USER    (3) Torsional Free Energy           =   +2.98 kcal/mol
DOCKED: USER    (4) Unbound System's Energy  [=(2)] =   -1.69 kcal/mol
DOCKED: USER    
DOCKED: USER    
DOCKED: USER    NEWDPF move heme_O2_opt.pdbqt
DOCKED: USER    NEWDPF about 8.287000 34.468000 -0.670000
DOCKED: USER    NEWDPF tran0 -5.927427 -0.280245 -16.174722
DOCKED: USER    NEWDPF quaternion0 0.452700 -0.746460 0.056670 0.484404
DOCKED: USER    NEWDPF axisangle0 0.517464 -0.853250 0.064778 122.053088
DOCKED: USER    NEWDPF quat0 0.517464 -0.853250 0.064778 122.053088
DOCKED: USER    NEWDPF dihe0 -2.85 -156.75 -1.05 98.37 -100.66 -18.96 -12.51 106.69 -179.07 -180.00 
DOCKED: USER  keepresnum = 1 
DOCKED: USER  
DOCKED: REMARK  10 active torsions:
DOCKED: REMARK  status: ('A' for Active; 'I' for Inactive)
DOCKED: REMARK    1  A    between atoms: C_6  and  C_10 
DOCKED: REMARK    2  A    between atoms: C_10  and  C_11 
DOCKED: REMARK    3  A    between atoms: C_11  and  C_12 
DOCKED: REMARK    4  A    between atoms: C_12  and  O_14 
DOCKED: REMARK    5  A    between atoms: C_17  and  C_20 
DOCKED: REMARK    6  A    between atoms: C_24  and  C_27 
DOCKED: REMARK    7  A    between atoms: C_31  and  C_34 
DOCKED: REMARK    8  A    between atoms: C_34  and  C_35 
DOCKED: REMARK    9  A    between atoms: C_35  and  C_36 
DOCKED: REMARK   10  A    between atoms: C_36  and  O_38 
DOCKED: USER                              x       y       z     vdW  Elec       q    Type
DOCKED: USER                           _______ _______ _______ _____ _____    ______ ____
DOCKED: ROOT
DOCKED: ATOM      1  C   UNL d   1      -6.695   1.154 -14.814 -0.19 -0.01    +0.064 A 
DOCKED: ATOM      2  C   UNL d   1      -2.273   0.016 -16.120 -0.21 -0.00    +0.064 A 
DOCKED: ATOM      3  C   UNL d   1      -3.923  -3.411 -19.057 -0.30 -0.01    +0.064 C 
DOCKED: ATOM      4  C   UNL d   1      -8.497  -1.929 -18.082 -0.12 -0.01    +0.064 A 
DOCKED: ATOM      5  C   UNL d   1      -5.357   1.126 -14.931 -0.18 -0.00    +0.066 A 
DOCKED: ATOM      6  C   UNL d   1      -4.491   1.958 -14.216 -0.22 +0.00    -0.021 A 
DOCKED: ATOM      7  C   UNL d   1      -3.213   1.659 -14.626 -0.18 +0.00    -0.025 A 
DOCKED: ATOM      8  C   UNL d   1      -3.330   0.619 -15.544 -0.18 -0.00    +0.066 A 
DOCKED: ATOM      9  C   UNL d   1      -1.965   2.377 -14.161 -0.23 +0.00    +0.051 C 
DOCKED: ATOM     10  C   UNL d   1      -2.332  -1.094 -17.072 -0.08 +0.00    +0.066 A 
DOCKED: ATOM     11  C   UNL d   1      -1.201  -1.790 -17.514 -0.25 +0.00    -0.021 A 
DOCKED: ATOM     12  C   UNL d   1      -1.658  -2.794 -18.348 -0.29 -0.00    +0.000 A 
DOCKED: ATOM     13  C   UNL d   1      -3.072  -2.642 -18.378 -0.23 -0.01    +0.070 A 
DOCKED: ATOM     14  C   UNL d   1       0.251  -1.526 -17.135 -0.32 -0.00    +0.052 C 
DOCKED: ATOM     15  C   UNL d   1      -5.357  -3.269 -19.141 -0.21 -0.01    +0.066 A 
DOCKED: ATOM     16  C   UNL d   1      -6.175  -4.004 -19.999 -0.25 +0.01    -0.021 A 
DOCKED: ATOM     17  C   UNL d   1      -7.484  -3.598 -19.739 -0.18 -0.00    +0.000 A 
DOCKED: ATOM     18  C   UNL d   1      -7.365  -2.634 -18.728 -0.14 -0.01    +0.070 A 
DOCKED: ATOM     19  C   UNL d   1      -5.636  -4.977 -21.017 -0.18 -0.04    +0.052 C 
DOCKED: ATOM     20  C   UNL d   1      -8.416  -0.969 -17.140 -0.16 -0.02    +0.066 A 
DOCKED: ATOM     21  C   UNL d   1      -9.519  -0.354 -16.556 -0.22 +0.01    -0.025 A 
DOCKED: ATOM     22  C   UNL d   1      -9.026   0.508 -15.603 -0.31 +0.01    -0.021 A 
DOCKED: ATOM     23  C   UNL d   1      -7.632   0.400 -15.654 -0.21 -0.02    +0.066 A 
DOCKED: ATOM     24  C   UNL d   1     -10.971  -0.574 -16.893 -0.14 -0.04    +0.051 C 
DOCKED: ATOM     25  N   UNL d   1      -4.655   0.336 -15.780 -0.12 +0.01    -0.248 N 
DOCKED: ATOM     26  N   UNL d   1      -3.473  -1.603 -17.602 -0.13 +0.01    -0.248 N 
DOCKED: ATOM     27  N   UNL d   1      -6.062  -2.394 -18.430 -0.11 +0.03    -0.248 N 
DOCKED: ATOM     28  N   UNL d   1      -7.265  -0.466 -16.620 -0.11 +0.04    -0.248 N 
DOCKED: ATOM     29 FE   UNL d   1      -5.384  -1.032 -17.110 -0.05 -0.00    +0.000 Fe
DOCKED: ATOM     30  O   UNL d   1      -4.719   0.205 -17.781 -0.10 -0.00    +0.000 OA
DOCKED: ATOM     31  O   UNL d   1      -6.037  -0.402 -18.395 -0.09 -0.00    +0.000 OA
DOCKED: ENDROOT
DOCKED: BRANCH   6  32
DOCKED: ATOM     32  C   UNL d   1      -4.853   3.087 -13.286 -0.27 +0.00    +0.052 C 
DOCKED: BRANCH  32  33
DOCKED: ATOM     33  C   UNL d   1      -4.850   4.447 -13.976 -0.11 +0.02    +0.115 C 
DOCKED: BRANCH  33  34
DOCKED: ATOM     34  C   UNL d   1      -5.545   5.508 -13.158 -0.17 +0.05    +0.139 C 
DOCKED: ATOM     35  O   UNL d   1      -4.885   6.384 -12.621 +0.02 -0.46    -0.650 OA
DOCKED: BRANCH  34  36
DOCKED: ATOM     36  O   UNL d   1      -6.882   5.497 -12.982 -0.33 -0.29    -0.776 OA
DOCKED: ATOM     37  H   UNL d   1      -7.447   4.836 -13.399 +0.05 +0.08    +0.167 HD
DOCKED: ENDBRANCH  34  36
DOCKED: ENDBRANCH  33  34
DOCKED: ENDBRANCH  32  33
DOCKED: ENDBRANCH   6  32
DOCKED: BRANCH  22  38
DOCKED: ATOM     38  C   UNL d   1      -9.849   1.430 -14.741 -0.23 -0.04    +0.052 C 
DOCKED: BRANCH  38  39
DOCKED: ATOM     39  C   UNL d   1     -10.304   2.678 -15.493 -0.16 -0.04    +0.115 C 
DOCKED: BRANCH  39  40
DOCKED: ATOM     40  C   UNL d   1      -9.184   3.667 -15.698 -0.12 -0.01    +0.139 C 
DOCKED: ATOM     41  O   UNL d   1      -8.926   4.065 -16.823 +0.03 +0.03    -0.650 OA
DOCKED: BRANCH  40  42
DOCKED: ATOM     42  O   UNL d   1      -8.493   4.162 -14.654 -0.20 -0.05    -0.776 OA
DOCKED: ATOM     43  H   UNL d   1      -8.057   5.022 -14.699 +0.03 +0.02    +0.167 HD
DOCKED: ENDBRANCH  40  42
DOCKED: ENDBRANCH  39  40
DOCKED: ENDBRANCH  38  39
DOCKED: ENDBRANCH  22  38
DOCKED: BRANCH  12  44
DOCKED: ATOM     44  C   UNL d   1      -0.717  -3.772 -19.019 -0.31 -0.00    +0.004 C 
DOCKED: ATOM     45  C   UNL d   1      -1.031  -4.835 -19.759 -0.35 -0.00    +0.012 C 
DOCKED: ENDBRANCH  12  44
DOCKED: BRANCH  17  46
DOCKED: ATOM     46  C   UNL d   1      -8.786  -3.988 -20.386 -0.15 -0.00    +0.004 C 
DOCKED: ATOM     47  C   UNL d   1      -9.626  -4.969 -20.031 -0.16 -0.01    +0.012 C 
DOCKED: ENDBRANCH  17  46
DOCKED: TORSDOF 10
DOCKED: TER
DOCKED: ENDMDL
________________________________________________________________________________


	BEGINNING GENETIC ALGORITHM DOCKING 74 of 100
Run: 74 Seed: 1723771807 478777408 [ Run 74 of 100 GA/GALS ]
Beginning LAMARCKIAN GENETIC ALGORITHM (LGA), with a maximum of 25000000 energy evaluations.

Final-Value: -12.258


	FINAL GENETIC ALGORITHM DOCKED STATE
	_______________________________________________


Detailed state:  trans 0.237 -15.407 -2.465 quatxyzw -0.420062 0.002011 0.376936 -0.825508 center 8.287 34.468 -0.670 ntor 10 89.3867 37.1096 -46.1963 131.1615 159.0385 -92.1112 105.0214 -60.3264 -141.9566 -158.4038
State:	  0.237 -15.407  -2.465  -0.744  0.004  0.668 -68.720     89.39   37.11  -46.20  131.16  159.04  -92.11  105.02  -60.33 -141.96 -158.40

DOCKED: MODEL       74
DOCKED: USER    Run = 74
DOCKED: USER    DPF = D:/Protein_go_brrr/autodock/final/AncA/heme_O2/dock.dpf
DOCKED: USER  
DOCKED: USER    Estimated Free Energy of Binding    =   -8.57 kcal/mol  [=(1)+(2)+(3)-(4)]
DOCKED: USER    Estimated Inhibition Constant, Ki   =  518.25 nM (nanomolar)  [Temperature = 298.15 K]
DOCKED: USER    
DOCKED: USER    (1) Final Intermolecular Energy     =  -11.56 kcal/mol
DOCKED: USER        vdW + Hbond + desolv Energy     =   -7.86 kcal/mol
DOCKED: USER        Electrostatic Energy            =   -3.70 kcal/mol
DOCKED: USER    (2) Final Total Internal Energy     =   -0.70 kcal/mol
DOCKED: USER    (3) Torsional Free Energy           =   +2.98 kcal/mol
DOCKED: USER    (4) Unbound System's Energy  [=(2)] =   -0.70 kcal/mol
DOCKED: USER    
DOCKED: USER    
DOCKED: USER    NEWDPF move heme_O2_opt.pdbqt
DOCKED: USER    NEWDPF about 8.287000 34.468000 -0.670000
DOCKED: USER    NEWDPF tran0 0.236909 -15.406507 -2.464812
DOCKED: USER    NEWDPF quaternion0 -0.420062 0.002011 0.376936 -0.825508
DOCKED: USER    NEWDPF axisangle0 -0.744275 0.003563 0.667864 -68.719932
DOCKED: USER    NEWDPF quat0 -0.744275 0.003563 0.667864 -68.719932
DOCKED: USER    NEWDPF dihe0 89.39 37.11 -46.20 131.16 159.04 -92.11 105.02 -60.33 -141.96 -158.40 
DOCKED: USER  keepresnum = 1 
DOCKED: USER  
DOCKED: REMARK  10 active torsions:
DOCKED: REMARK  status: ('A' for Active; 'I' for Inactive)
DOCKED: REMARK    1  A    between atoms: C_6  and  C_10 
DOCKED: REMARK    2  A    between atoms: C_10  and  C_11 
DOCKED: REMARK    3  A    between atoms: C_11  and  C_12 
DOCKED: REMARK    4  A    between atoms: C_12  and  O_14 
DOCKED: REMARK    5  A    between atoms: C_17  and  C_20 
DOCKED: REMARK    6  A    between atoms: C_24  and  C_27 
DOCKED: REMARK    7  A    between atoms: C_31  and  C_34 
DOCKED: REMARK    8  A    between atoms: C_34  and  C_35 
DOCKED: REMARK    9  A    between atoms: C_35  and  C_36 
DOCKED: REMARK   10  A    between atoms: C_36  and  O_38 
DOCKED: USER                              x       y       z     vdW  Elec       q    Type
DOCKED: USER                           _______ _______ _______ _____ _____    ______ ____
DOCKED: ROOT
DOCKED: ATOM      1  C   UNL d   1      -1.227 -16.905  -2.801 -0.07 +0.06    +0.064 A 
DOCKED: ATOM      2  C   UNL d   1       0.155 -14.589   1.109 -0.11 +0.04    +0.064 A 
DOCKED: ATOM      3  C   UNL d   1       3.451 -12.144  -1.392 -0.21 +0.01    +0.064 C 
DOCKED: ATOM      4  C   UNL d   1       1.715 -14.173  -5.507 -0.28 +0.03    +0.064 A 
DOCKED: ATOM      5  C   UNL d   1      -1.121 -16.473  -1.534 -0.05 +0.06    +0.066 A 
DOCKED: ATOM      6  C   UNL d   1      -1.895 -16.957  -0.475 -0.05 -0.02    -0.021 A 
DOCKED: ATOM      7  C   UNL d   1      -1.526 -16.257   0.650 -0.09 -0.02    -0.025 A 
DOCKED: ATOM      8  C   UNL d   1      -0.503 -15.398   0.256 -0.08 +0.05    +0.066 A 
DOCKED: ATOM      9  C   UNL d   1      -2.165 -16.408   2.013 +0.06 +0.06    +0.051 C 
DOCKED: ATOM     10  C   UNL d   1       1.250 -13.683   0.760 -0.12 +0.03    +0.066 A 
DOCKED: ATOM     11  C   UNL d   1       2.006 -12.988   1.710 -0.18 -0.01    -0.021 A 
DOCKED: ATOM     12  C   UNL d   1       2.974 -12.291   1.009 -0.22 +0.00    +0.000 A 
DOCKED: ATOM     13  C   UNL d   1       2.740 -12.598  -0.360 -0.15 +0.02    +0.070 A 
DOCKED: ATOM     14  C   UNL d   1       1.831 -13.009   3.224 -0.23 +0.02    +0.052 C 
DOCKED: ATOM     15  C   UNL d   1       3.225 -12.403  -2.793 -0.16 +0.02    +0.066 A 
DOCKED: ATOM     16  C   UNL d   1       3.902 -11.768  -3.834 -0.27 -0.00    -0.021 A 
DOCKED: ATOM     17  C   UNL d   1       3.423 -12.329  -5.017 -0.32 +0.00    +0.000 A 
DOCKED: ATOM     18  C   UNL d   1       2.478 -13.279  -4.604 -0.22 +0.03    +0.070 A 
DOCKED: ATOM     19  C   UNL d   1       4.895 -10.655  -3.610 -0.35 +0.01    +0.052 C 
DOCKED: ATOM     20  C   UNL d   1       0.770 -15.064  -5.148 -0.21 +0.04    +0.066 A 
DOCKED: ATOM     21  C   UNL d   1       0.097 -15.891  -6.042 -0.26 -0.02    -0.025 A 
DOCKED: ATOM     22  C   UNL d   1      -0.725 -16.695  -5.286 -0.15 -0.02    -0.021 A 
DOCKED: ATOM     23  C   UNL d   1      -0.536 -16.315  -3.954 -0.10 +0.06    +0.066 A 
DOCKED: ATOM     24  C   UNL d   1       0.230 -15.910  -7.543 -0.01 +0.03    +0.051 C 
DOCKED: ATOM     25  N   UNL d   1      -0.300 -15.485  -1.101 -0.03 -0.18    -0.248 N 
DOCKED: ATOM     26  N   UNL d   1       1.686 -13.442  -0.503 -0.05 -0.10    -0.248 N 
DOCKED: ATOM     27  N   UNL d   1       2.317 -13.257  -3.256 -0.07 -0.09    -0.248 N 
DOCKED: ATOM     28  N   UNL d   1       0.340 -15.293  -3.878 -0.06 -0.17    -0.248 N 
DOCKED: ATOM     29 FE   UNL d   1       1.010 -14.372  -2.205 -0.02 +0.00    +0.000 Fe
DOCKED: ATOM     30  O   UNL d   1      -0.192 -13.556  -1.646 -0.16 +0.00    +0.000 OA
DOCKED: ATOM     31  O   UNL d   1       0.331 -13.277  -3.106 -0.21 +0.00    +0.000 OA
DOCKED: ENDROOT
DOCKED: BRANCH   6  32
DOCKED: ATOM     32  C   UNL d   1      -3.033 -17.942  -0.538 -0.04 +0.05    +0.052 C 
DOCKED: BRANCH  32  33
DOCKED: ATOM     33  C   UNL d   1      -4.163 -17.483  -1.454 -0.04 +0.16    +0.115 C 
DOCKED: BRANCH  33  34
DOCKED: ATOM     34  C   UNL d   1      -5.030 -16.428  -0.814 -0.03 +0.25    +0.139 C 
DOCKED: ATOM     35  O   UNL d   1      -4.696 -15.938   0.253 -0.43 -1.32    -0.650 OA
DOCKED: BRANCH  34  36
DOCKED: ATOM     36  O   UNL d   1      -6.188 -16.029  -1.381 -0.25 -1.54    -0.776 OA
DOCKED: ATOM     37  H   UNL d   1      -7.027 -16.462  -1.187 +0.02 +0.21    +0.167 HD
DOCKED: ENDBRANCH  34  36
DOCKED: ENDBRANCH  33  34
DOCKED: ENDBRANCH  32  33
DOCKED: ENDBRANCH   6  32
DOCKED: BRANCH  22  38
DOCKED: ATOM     38  C   UNL d   1      -1.684 -17.725  -5.825 -0.15 +0.05    +0.052 C 
DOCKED: BRANCH  38  39
DOCKED: ATOM     39  C   UNL d   1      -2.681 -17.129  -6.817 -0.20 +0.13    +0.115 C 
DOCKED: BRANCH  39  40
DOCKED: ATOM     40  C   UNL d   1      -2.564 -17.741  -8.191 -0.24 +0.18    +0.139 C 
DOCKED: ATOM     41  O   UNL d   1      -2.603 -18.954  -8.319 -0.48 -1.22    -0.650 OA
DOCKED: BRANCH  40  42
DOCKED: ATOM     42  O   UNL d   1      -2.467 -16.969  -9.290 -0.03 -0.68    -0.776 OA
DOCKED: ATOM     43  H   UNL d   1      -1.936 -16.163  -9.296 -0.06 +0.08    +0.167 HD
DOCKED: ENDBRANCH  40  42
DOCKED: ENDBRANCH  39  40
DOCKED: ENDBRANCH  38  39
DOCKED: ENDBRANCH  22  38
DOCKED: BRANCH  12  44
DOCKED: ATOM     44  C   UNL d   1       3.998 -11.419   1.705 -0.25 +0.00    +0.004 C 
DOCKED: ATOM     45  C   UNL d   1       5.321 -11.427   1.549 -0.22 +0.00    +0.012 C 
DOCKED: ENDBRANCH  12  44
DOCKED: BRANCH  17  46
DOCKED: ATOM     46  C   UNL d   1       3.730 -12.013  -6.456 -0.51 +0.00    +0.004 C 
DOCKED: ATOM     47  C   UNL d   1       4.169 -12.843  -7.412 -0.51 +0.00    +0.012 C 
DOCKED: ENDBRANCH  17  46
DOCKED: TORSDOF 10
DOCKED: TER
DOCKED: ENDMDL
________________________________________________________________________________


	BEGINNING GENETIC ALGORITHM DOCKING 75 of 100
Run: 75 Seed: 73807314 256089545 [ Run 75 of 100 GA/GALS ]
Beginning LAMARCKIAN GENETIC ALGORITHM (LGA), with a maximum of 25000000 energy evaluations.

Final-Value: -14.279


	FINAL GENETIC ALGORITHM DOCKED STATE
	_______________________________________________


Detailed state:  trans -4.747 -11.143 -1.427 quatxyzw -0.804897 -0.496685 0.283176 -0.158924 center 8.287 34.468 -0.670 ntor 10 -88.7050 12.1530 32.3494 26.0948 -89.5763 -53.8144 -52.4510 125.2129 -140.8936 -179.5359
State:	 -4.747 -11.143  -1.427  -0.815 -0.503  0.287 -161.711    -88.71   12.15   32.35   26.09  -89.58  -53.81  -52.45  125.21 -140.89 -179.54

DOCKED: MODEL       75
DOCKED: USER    Run = 75
DOCKED: USER    DPF = D:/Protein_go_brrr/autodock/final/AncA/heme_O2/dock.dpf
DOCKED: USER  
DOCKED: USER    Estimated Free Energy of Binding    =   -9.45 kcal/mol  [=(1)+(2)+(3)-(4)]
DOCKED: USER    Estimated Inhibition Constant, Ki   =  118.62 nM (nanomolar)  [Temperature = 298.15 K]
DOCKED: USER    
DOCKED: USER    (1) Final Intermolecular Energy     =  -12.43 kcal/mol
DOCKED: USER        vdW + Hbond + desolv Energy     =   -8.90 kcal/mol
DOCKED: USER        Electrostatic Energy            =   -3.53 kcal/mol
DOCKED: USER    (2) Final Total Internal Energy     =   -1.85 kcal/mol
DOCKED: USER    (3) Torsional Free Energy           =   +2.98 kcal/mol
DOCKED: USER    (4) Unbound System's Energy  [=(2)] =   -1.85 kcal/mol
DOCKED: USER    
DOCKED: USER    
DOCKED: USER    NEWDPF move heme_O2_opt.pdbqt
DOCKED: USER    NEWDPF about 8.287000 34.468000 -0.670000
DOCKED: USER    NEWDPF tran0 -4.746836 -11.143312 -1.426537
DOCKED: USER    NEWDPF quaternion0 -0.804897 -0.496685 0.283176 -0.158924
DOCKED: USER    NEWDPF axisangle0 -0.815258 -0.503079 0.286821 -161.711134
DOCKED: USER    NEWDPF quat0 -0.815258 -0.503079 0.286821 -161.711134
DOCKED: USER    NEWDPF dihe0 -88.71 12.15 32.35 26.09 -89.58 -53.81 -52.45 125.21 -140.89 -179.54 
DOCKED: USER  keepresnum = 1 
DOCKED: USER  
DOCKED: REMARK  10 active torsions:
DOCKED: REMARK  status: ('A' for Active; 'I' for Inactive)
DOCKED: REMARK    1  A    between atoms: C_6  and  C_10 
DOCKED: REMARK    2  A    between atoms: C_10  and  C_11 
DOCKED: REMARK    3  A    between atoms: C_11  and  C_12 
DOCKED: REMARK    4  A    between atoms: C_12  and  O_14 
DOCKED: REMARK    5  A    between atoms: C_17  and  C_20 
DOCKED: REMARK    6  A    between atoms: C_24  and  C_27 
DOCKED: REMARK    7  A    between atoms: C_31  and  C_34 
DOCKED: REMARK    8  A    between atoms: C_34  and  C_35 
DOCKED: REMARK    9  A    between atoms: C_35  and  C_36 
DOCKED: REMARK   10  A    between atoms: C_36  and  O_38 
DOCKED: USER                              x       y       z     vdW  Elec       q    Type
DOCKED: USER                           _______ _______ _______ _____ _____    ______ ____
DOCKED: ROOT
DOCKED: ATOM      1  C   UNL d   1      -4.476 -13.061  -0.561 -0.08 +0.11    +0.064 A 
DOCKED: ATOM      2  C   UNL d   1      -8.279 -10.866  -2.372 -0.17 +0.03    +0.064 A 
DOCKED: ATOM      3  C   UNL d   1      -5.678  -6.938  -3.316 +0.24 +0.03    +0.064 C 
DOCKED: ATOM      4  C   UNL d   1      -1.655  -9.359  -1.894 -0.42 +0.02    +0.064 A 
DOCKED: ATOM      5  C   UNL d   1      -5.722 -12.785  -0.978 -0.24 +0.10    +0.066 A 
DOCKED: ATOM      6  C   UNL d   1      -6.800 -13.667  -0.861 -0.20 -0.03    -0.021 A 
DOCKED: ATOM      7  C   UNL d   1      -7.893 -13.050  -1.424 -0.21 -0.02    -0.025 A 
DOCKED: ATOM      8  C   UNL d   1      -7.463 -11.788  -1.827 -0.13 +0.05    +0.066 A 
DOCKED: ATOM      9  C   UNL d   1      -9.259 -13.680  -1.579 -0.18 +0.03    +0.051 C 
DOCKED: ATOM     10  C   UNL d   1      -7.892  -9.519  -2.793 -0.00 +0.03    +0.066 A 
DOCKED: ATOM     11  C   UNL d   1      -8.811  -8.546  -3.201 -0.43 -0.01    -0.021 A 
DOCKED: ATOM     12  C   UNL d   1      -8.082  -7.400  -3.460 -0.44 +0.00    +0.000 A 
DOCKED: ATOM     13  C   UNL d   1      -6.727  -7.751  -3.202 -0.07 +0.03    +0.070 A 
DOCKED: ATOM     14  C   UNL d   1     -10.324  -8.695  -3.312 -0.56 +0.01    +0.052 C 
DOCKED: ATOM     15  C   UNL d   1      -4.289  -7.263  -3.098 +0.24 +0.03    +0.066 A 
DOCKED: ATOM     16  C   UNL d   1      -3.222  -6.415  -3.392 -0.40 -0.01    -0.021 A 
DOCKED: ATOM     17  C   UNL d   1      -2.065  -7.084  -2.996 -0.47 +0.00    +0.000 A 
DOCKED: ATOM     18  C   UNL d   1      -2.518  -8.307  -2.481 -0.41 +0.02    +0.070 A 
DOCKED: ATOM     19  C   UNL d   1      -3.397  -5.078  -4.069 -0.46 +0.01    +0.052 C 
DOCKED: ATOM     20  C   UNL d   1      -2.053 -10.560  -1.431 -0.32 +0.04    +0.066 A 
DOCKED: ATOM     21  C   UNL d   1      -1.195 -11.504  -0.872 -0.05 -0.02    -0.025 A 
DOCKED: ATOM     22  C   UNL d   1      -1.985 -12.554  -0.462 -0.04 -0.02    -0.021 A 
DOCKED: ATOM     23  C   UNL d   1      -3.299 -12.219  -0.803 -0.03 +0.08    +0.066 A 
DOCKED: ATOM     24  C   UNL d   1       0.303 -11.410  -0.740 -0.32 +0.02    +0.051 C 
DOCKED: ATOM     25  N   UNL d   1      -6.111 -11.651  -1.611 -0.04 -0.25    -0.248 N 
DOCKED: ATOM     26  N   UNL d   1      -6.620  -9.043  -2.801 +0.10 -0.12    -0.248 N 
DOCKED: ATOM     27  N   UNL d   1      -3.863  -8.429  -2.620 -0.25 -0.10    -0.248 N 
DOCKED: ATOM     28  N   UNL d   1      -3.330 -11.026  -1.432 -0.22 -0.21    -0.248 N 
DOCKED: ATOM     29 FE   UNL d   1      -4.961 -10.040  -2.113 -0.08 +0.00    +0.000 Fe
DOCKED: ATOM     30  O   UNL d   1      -5.478 -10.848  -3.338 -0.43 +0.00    +0.000 OA
DOCKED: ATOM     31  O   UNL d   1      -4.009 -10.280  -3.341 -0.43 +0.00    +0.000 OA
DOCKED: ENDROOT
DOCKED: BRANCH   6  32
DOCKED: ATOM     32  C   UNL d   1      -6.779 -15.090  -0.364 -0.14 +0.08    +0.052 C 
DOCKED: BRANCH  32  33
DOCKED: ATOM     33  C   UNL d   1      -5.820 -15.978  -1.151 +0.30 +0.23    +0.115 C 
DOCKED: BRANCH  33  34
DOCKED: ATOM     34  C   UNL d   1      -4.822 -16.676  -0.261 -0.10 +0.22    +0.139 C 
DOCKED: ATOM     35  O   UNL d   1      -4.792 -17.896  -0.229 +0.01 -0.69    -0.650 OA
DOCKED: BRANCH  34  36
DOCKED: ATOM     36  O   UNL d   1      -3.975 -15.981   0.526 -0.12 -1.52    -0.776 OA
DOCKED: ATOM     37  H   UNL d   1      -3.113 -15.684   0.212 +0.01 +0.26    +0.167 HD
DOCKED: ENDBRANCH  34  36
DOCKED: ENDBRANCH  33  34
DOCKED: ENDBRANCH  32  33
DOCKED: ENDBRANCH   6  32
DOCKED: BRANCH  22  38
DOCKED: ATOM     38  C   UNL d   1      -1.491 -13.833   0.163 +0.04 +0.05    +0.052 C 
DOCKED: BRANCH  38  39
DOCKED: ATOM     39  C   UNL d   1      -0.903 -14.795  -0.867 -0.12 +0.10    +0.115 C 
DOCKED: BRANCH  39  40
DOCKED: ATOM     40  C   UNL d   1      -1.875 -15.120  -1.973 -0.09 +0.21    +0.139 C 
DOCKED: ATOM     41  O   UNL d   1      -1.893 -14.437  -2.984 -0.05 -1.15    -0.650 OA
DOCKED: BRANCH  40  42
DOCKED: ATOM     42  O   UNL d   1      -2.694 -16.186  -1.889 -0.18 -1.45    -0.776 OA
DOCKED: ATOM     43  H   UNL d   1      -2.841 -16.645  -1.053 +0.02 +0.23    +0.167 HD
DOCKED: ENDBRANCH  40  42
DOCKED: ENDBRANCH  39  40
DOCKED: ENDBRANCH  38  39
DOCKED: ENDBRANCH  22  38
DOCKED: BRANCH  12  44
DOCKED: ATOM     44  C   UNL d   1      -8.739  -6.117  -3.922 -0.43 +0.00    +0.004 C 
DOCKED: ATOM     45  C   UNL d   1      -8.210  -5.148  -4.669 -0.53 +0.00    +0.012 C 
DOCKED: ENDBRANCH  12  44
DOCKED: BRANCH  17  46
DOCKED: ATOM     46  C   UNL d   1      -0.613  -6.703  -3.113 -0.43 +0.00    +0.004 C 
DOCKED: ATOM     47  C   UNL d   1      -0.089  -5.485  -3.306 -0.59 +0.00    +0.012 C 
DOCKED: ENDBRANCH  17  46
DOCKED: TORSDOF 10
DOCKED: TER
DOCKED: ENDMDL
________________________________________________________________________________


	BEGINNING GENETIC ALGORITHM DOCKING 76 of 100
Run: 76 Seed: 1307397623 838309471 [ Run 76 of 100 GA/GALS ]
Beginning LAMARCKIAN GENETIC ALGORITHM (LGA), with a maximum of 25000000 energy evaluations.

Final-Value: -12.513


	FINAL GENETIC ALGORITHM DOCKED STATE
	_______________________________________________


Detailed state:  trans -0.289 -15.086 -2.516 quatxyzw -0.856840 -0.206903 -0.420045 0.215821 center 8.287 34.468 -0.670 ntor 10 -50.9372 41.3278 -46.7728 91.4436 -145.3157 132.7342 30.4678 -121.0246 -179.4822 -41.6807
State:	 -0.289 -15.086  -2.516  -0.878 -0.212 -0.430 155.073    -50.94   41.33  -46.77   91.44 -145.32  132.73   30.47 -121.02 -179.48  -41.68

DOCKED: MODEL       76
DOCKED: USER    Run = 76
DOCKED: USER    DPF = D:/Protein_go_brrr/autodock/final/AncA/heme_O2/dock.dpf
DOCKED: USER  
DOCKED: USER    Estimated Free Energy of Binding    =   -8.87 kcal/mol  [=(1)+(2)+(3)-(4)]
DOCKED: USER    Estimated Inhibition Constant, Ki   =  316.40 nM (nanomolar)  [Temperature = 298.15 K]
DOCKED: USER    
DOCKED: USER    (1) Final Intermolecular Energy     =  -11.85 kcal/mol
DOCKED: USER        vdW + Hbond + desolv Energy     =   -7.68 kcal/mol
DOCKED: USER        Electrostatic Energy            =   -4.17 kcal/mol
DOCKED: USER    (2) Final Total Internal Energy     =   -0.66 kcal/mol
DOCKED: USER    (3) Torsional Free Energy           =   +2.98 kcal/mol
DOCKED: USER    (4) Unbound System's Energy  [=(2)] =   -0.66 kcal/mol
DOCKED: USER    
DOCKED: USER    
DOCKED: USER    NEWDPF move heme_O2_opt.pdbqt
DOCKED: USER    NEWDPF about 8.287000 34.468000 -0.670000
DOCKED: USER    NEWDPF tran0 -0.289000 -15.085601 -2.515835
DOCKED: USER    NEWDPF quaternion0 -0.856840 -0.206903 -0.420045 0.215821
DOCKED: USER    NEWDPF axisangle0 -0.877520 -0.211897 -0.430183 155.072614
DOCKED: USER    NEWDPF quat0 -0.877520 -0.211897 -0.430183 155.072614
DOCKED: USER    NEWDPF dihe0 -50.94 41.33 -46.77 91.44 -145.32 132.73 30.47 -121.02 -179.48 -41.68 
DOCKED: USER  keepresnum = 1 
DOCKED: USER  
DOCKED: REMARK  10 active torsions:
DOCKED: REMARK  status: ('A' for Active; 'I' for Inactive)
DOCKED: REMARK    1  A    between atoms: C_6  and  C_10 
DOCKED: REMARK    2  A    between atoms: C_10  and  C_11 
DOCKED: REMARK    3  A    between atoms: C_11  and  C_12 
DOCKED: REMARK    4  A    between atoms: C_12  and  O_14 
DOCKED: REMARK    5  A    between atoms: C_17  and  C_20 
DOCKED: REMARK    6  A    between atoms: C_24  and  C_27 
DOCKED: REMARK    7  A    between atoms: C_31  and  C_34 
DOCKED: REMARK    8  A    between atoms: C_34  and  C_35 
DOCKED: REMARK    9  A    between atoms: C_35  and  C_36 
DOCKED: REMARK   10  A    between atoms: C_36  and  O_38 
DOCKED: USER                              x       y       z     vdW  Elec       q    Type
DOCKED: USER                           _______ _______ _______ _____ _____    ______ ____
DOCKED: ROOT
DOCKED: ATOM      1  C   UNL d   1      -1.882 -16.425  -2.924 -0.04 +0.10    +0.064 A 
DOCKED: ATOM      2  C   UNL d   1       1.305 -14.283  -5.720 -0.30 +0.03    +0.064 A 
DOCKED: ATOM      3  C   UNL d   1       3.258 -12.051  -1.938 -0.22 +0.02    +0.064 C 
DOCKED: ATOM      4  C   UNL d   1       0.291 -14.618   1.006 -0.11 +0.04    +0.064 A 
DOCKED: ATOM      5  C   UNL d   1      -1.173 -16.026  -3.993 -0.14 +0.08    +0.066 A 
DOCKED: ATOM      6  C   UNL d   1      -1.439 -16.431  -5.304 -0.14 -0.02    -0.021 A 
DOCKED: ATOM      7  C   UNL d   1      -0.490 -15.846  -6.109 -0.28 -0.02    -0.025 A 
DOCKED: ATOM      8  C   UNL d   1       0.299 -15.061  -5.274 -0.24 +0.04    +0.066 A 
DOCKED: ATOM      9  C   UNL d   1      -0.358 -16.075  -7.599 -0.23 +0.03    +0.051 C 
DOCKED: ATOM     10  C   UNL d   1       2.152 -13.420  -4.895 -0.24 +0.03    +0.066 A 
DOCKED: ATOM     11  C   UNL d   1       3.073 -12.511  -5.427 -0.34 -0.01    -0.021 A 
DOCKED: ATOM     12  C   UNL d   1       3.633 -11.844  -4.353 -0.31 +0.00    +0.000 A 
DOCKED: ATOM     13  C   UNL d   1       3.018 -12.407  -3.200 -0.17 +0.02    +0.070 A 
DOCKED: ATOM     14  C   UNL d   1       3.384 -12.267  -6.899 -0.30 +0.02    +0.052 C 
DOCKED: ATOM     15  C   UNL d   1       2.683 -12.619  -0.743 -0.14 +0.02    +0.066 A 
DOCKED: ATOM     16  C   UNL d   1       3.095 -12.316   0.554 -0.20 -0.01    -0.021 A 
DOCKED: ATOM     17  C   UNL d   1       2.264 -13.037   1.411 -0.17 +0.00    +0.000 A 
DOCKED: ATOM     18  C   UNL d   1       1.393 -13.734   0.561 -0.11 +0.03    +0.070 A 
DOCKED: ATOM     19  C   UNL d   1       4.269 -11.419   0.855 -0.23 +0.01    +0.052 C 
DOCKED: ATOM     20  C   UNL d   1      -0.535 -15.334   0.219 -0.09 +0.05    +0.066 A 
DOCKED: ATOM     21  C   UNL d   1      -1.568 -16.136   0.696 -0.09 -0.02    -0.025 A 
DOCKED: ATOM     22  C   UNL d   1      -2.215 -16.637  -0.411 -0.08 -0.02    -0.021 A 
DOCKED: ATOM     23  C   UNL d   1      -1.539 -16.135  -1.527 -0.08 +0.07    +0.066 A 
DOCKED: ATOM     24  C   UNL d   1      -1.918 -16.412   2.135 -0.03 +0.05    +0.051 C 
DOCKED: ATOM     25  N   UNL d   1      -0.081 -15.223  -3.962 -0.08 -0.19    -0.248 N 
DOCKED: ATOM     26  N   UNL d   1       2.122 -13.368  -3.539 -0.08 -0.10    -0.248 N 
DOCKED: ATOM     27  N   UNL d   1       1.710 -13.527  -0.743 -0.04 -0.10    -0.248 N 
DOCKED: ATOM     28  N   UNL d   1      -0.491 -15.380  -1.139 -0.03 -0.20    -0.248 N 
DOCKED: ATOM     29 FE   UNL d   1       0.808 -14.380  -2.328 -0.02 +0.00    +0.000 Fe
DOCKED: ATOM     30  O   UNL d   1       1.679 -15.464  -3.028 -0.06 +0.00    +0.000 OA
DOCKED: ATOM     31  O   UNL d   1       1.645 -15.385  -1.455 -0.04 +0.00    +0.000 OA
DOCKED: ENDROOT
DOCKED: BRANCH   6  32
DOCKED: ATOM     32  C   UNL d   1      -2.458 -17.439  -5.770 -0.17 +0.06    +0.052 C 
DOCKED: BRANCH  32  33
DOCKED: ATOM     33  C   UNL d   1      -1.870 -18.834  -5.957 -0.08 +0.10    +0.115 C 
DOCKED: BRANCH  33  34
DOCKED: ATOM     34  C   UNL d   1      -2.605 -19.633  -7.004 -0.07 +0.18    +0.139 C 
DOCKED: ATOM     35  O   UNL d   1      -2.603 -19.254  -8.164 -0.43 -1.24    -0.650 OA
DOCKED: BRANCH  34  36
DOCKED: ATOM     36  O   UNL d   1      -3.294 -20.748  -6.683 -0.01 -1.00    -0.776 OA
DOCKED: ATOM     37  H   UNL d   1      -2.901 -21.459  -6.163 +0.01 +0.14    +0.167 HD
DOCKED: ENDBRANCH  34  36
DOCKED: ENDBRANCH  33  34
DOCKED: ENDBRANCH  32  33
DOCKED: ENDBRANCH   6  32
DOCKED: BRANCH  22  38
DOCKED: ATOM     38  C   UNL d   1      -3.377 -17.597  -0.390 -0.06 +0.06    +0.052 C 
DOCKED: BRANCH  38  39
DOCKED: ATOM     39  C   UNL d   1      -4.589 -17.026   0.342 -0.07 +0.16    +0.115 C 
DOCKED: BRANCH  39  40
DOCKED: ATOM     40  C   UNL d   1      -5.067 -15.727  -0.258 -0.02 +0.28    +0.139 C 
DOCKED: ATOM     41  O   UNL d   1      -4.522 -14.680   0.050 -0.33 -1.52    -0.650 OA
DOCKED: BRANCH  40  42
DOCKED: ATOM     42  O   UNL d   1      -6.055 -15.706  -1.173 -0.47 -1.59    -0.776 OA
DOCKED: ATOM     43  H   UNL d   1      -6.855 -16.235  -1.065 +0.02 +0.23    +0.167 HD
DOCKED: ENDBRANCH  40  42
DOCKED: ENDBRANCH  39  40
DOCKED: ENDBRANCH  38  39
DOCKED: ENDBRANCH  22  38
DOCKED: BRANCH  12  44
DOCKED: ATOM     44  C   UNL d   1       4.679 -10.764  -4.534 -0.49 +0.00    +0.004 C 
DOCKED: ATOM     45  C   UNL d   1       4.684  -9.535  -4.020 -0.35 +0.00    +0.012 C 
DOCKED: ENDBRANCH  12  44
DOCKED: BRANCH  17  46
DOCKED: ATOM     46  C   UNL d   1       2.262 -13.164   2.911 -0.19 +0.00    +0.004 C 
DOCKED: ATOM     47  C   UNL d   1       1.692 -12.351   3.810 -0.35 +0.00    +0.012 C 
DOCKED: ENDBRANCH  17  46
DOCKED: TORSDOF 10
DOCKED: TER
DOCKED: ENDMDL
________________________________________________________________________________


	BEGINNING GENETIC ALGORITHM DOCKING 77 of 100
Run: 77 Seed: 1405201929 897396910 [ Run 77 of 100 GA/GALS ]
Beginning LAMARCKIAN GENETIC ALGORITHM (LGA), with a maximum of 25000000 energy evaluations.

Final-Value: -14.899


	FINAL GENETIC ALGORITHM DOCKED STATE
	_______________________________________________


Detailed state:  trans -4.887 -10.810 -1.801 quatxyzw 0.814861 0.489960 -0.240813 0.194809 center 8.287 34.468 -0.670 ntor 10 175.8910 56.5832 38.1437 8.1752 -138.4007 -158.3049 -156.1425 81.2190 -2.8871 -158.0291
State:	 -4.887 -10.810  -1.801   0.831  0.500 -0.246 157.533    175.89   56.58   38.14    8.18 -138.40 -158.30 -156.14   81.22   -2.89 -158.03

DOCKED: MODEL       77
DOCKED: USER    Run = 77
DOCKED: USER    DPF = D:/Protein_go_brrr/autodock/final/AncA/heme_O2/dock.dpf
DOCKED: USER  
DOCKED: USER    Estimated Free Energy of Binding    =  -11.24 kcal/mol  [=(1)+(2)+(3)-(4)]
DOCKED: USER    Estimated Inhibition Constant, Ki   =    5.81 nM (nanomolar)  [Temperature = 298.15 K]
DOCKED: USER    
DOCKED: USER    (1) Final Intermolecular Energy     =  -14.22 kcal/mol
DOCKED: USER        vdW + Hbond + desolv Energy     =  -11.19 kcal/mol
DOCKED: USER        Electrostatic Energy            =   -3.03 kcal/mol
DOCKED: USER    (2) Final Total Internal Energy     =   -0.68 kcal/mol
DOCKED: USER    (3) Torsional Free Energy           =   +2.98 kcal/mol
DOCKED: USER    (4) Unbound System's Energy  [=(2)] =   -0.68 kcal/mol
DOCKED: USER    
DOCKED: USER    
DOCKED: USER    NEWDPF move heme_O2_opt.pdbqt
DOCKED: USER    NEWDPF about 8.287000 34.468000 -0.670000
DOCKED: USER    NEWDPF tran0 -4.886622 -10.810015 -1.801233
DOCKED: USER    NEWDPF quaternion0 0.814861 0.489960 -0.240813 0.194809
DOCKED: USER    NEWDPF axisangle0 0.830777 0.499530 -0.245517 157.532836
DOCKED: USER    NEWDPF quat0 0.830777 0.499530 -0.245517 157.532836
DOCKED: USER    NEWDPF dihe0 175.89 56.58 38.14 8.18 -138.40 -158.30 -156.14 81.22 -2.89 -158.03 
DOCKED: USER  keepresnum = 1 
DOCKED: USER  
DOCKED: REMARK  10 active torsions:
DOCKED: REMARK  status: ('A' for Active; 'I' for Inactive)
DOCKED: REMARK    1  A    between atoms: C_6  and  C_10 
DOCKED: REMARK    2  A    between atoms: C_10  and  C_11 
DOCKED: REMARK    3  A    between atoms: C_11  and  C_12 
DOCKED: REMARK    4  A    between atoms: C_12  and  O_14 
DOCKED: REMARK    5  A    between atoms: C_17  and  C_20 
DOCKED: REMARK    6  A    between atoms: C_24  and  C_27 
DOCKED: REMARK    7  A    between atoms: C_31  and  C_34 
DOCKED: REMARK    8  A    between atoms: C_34  and  C_35 
DOCKED: REMARK    9  A    between atoms: C_35  and  C_36 
DOCKED: REMARK   10  A    between atoms: C_36  and  O_38 
DOCKED: USER                              x       y       z     vdW  Elec       q    Type
DOCKED: USER                           _______ _______ _______ _____ _____    ______ ____
DOCKED: ROOT
DOCKED: ATOM      1  C   UNL d   1      -4.751 -12.811  -1.111 -0.21 +0.11    +0.064 A 
DOCKED: ATOM      2  C   UNL d   1      -8.361 -10.250  -2.834 -0.20 +0.03    +0.064 A 
DOCKED: ATOM      3  C   UNL d   1      -5.521  -6.403  -3.318 -0.34 +0.03    +0.064 C 
DOCKED: ATOM      4  C   UNL d   1      -1.689  -9.167  -1.996 -0.42 +0.02    +0.064 A 
DOCKED: ATOM      5  C   UNL d   1      -5.964 -12.429  -1.542 -0.21 +0.09    +0.066 A 
DOCKED: ATOM      6  C   UNL d   1      -7.091 -13.256  -1.543 -0.21 -0.03    -0.021 A 
DOCKED: ATOM      7  C   UNL d   1      -8.126 -12.529  -2.082 -0.23 -0.02    -0.025 A 
DOCKED: ATOM      8  C   UNL d   1      -7.615 -11.262  -2.351 -0.07 +0.04    +0.066 A 
DOCKED: ATOM      9  C   UNL d   1      -9.517 -13.065  -2.341 -0.19 +0.03    +0.051 C 
DOCKED: ATOM     10  C   UNL d   1      -7.886  -8.894  -3.114 -0.23 +0.02    +0.066 A 
DOCKED: ATOM     11  C   UNL d   1      -8.736  -7.837  -3.459 -0.43 -0.01    -0.021 A 
DOCKED: ATOM     12  C   UNL d   1      -7.938  -6.715  -3.586 -0.42 +0.00    +0.000 A 
DOCKED: ATOM     13  C   UNL d   1      -6.616  -7.163  -3.316 -0.27 +0.03    +0.070 A 
DOCKED: ATOM     14  C   UNL d   1     -10.250  -7.890  -3.634 -0.45 +0.01    +0.052 C 
DOCKED: ATOM     15  C   UNL d   1      -4.161  -6.825  -3.085 -0.15 +0.02    +0.066 A 
DOCKED: ATOM     16  C   UNL d   1      -3.040  -6.014  -3.263 -0.41 -0.00    -0.021 A 
DOCKED: ATOM     17  C   UNL d   1      -1.936  -6.781  -2.893 -0.47 +0.00    +0.000 A 
DOCKED: ATOM     18  C   UNL d   1      -2.472  -8.018  -2.510 -0.42 +0.02    +0.070 A 
DOCKED: ATOM     19  C   UNL d   1      -3.118  -4.614  -3.817 -0.43 +0.01    +0.052 C 
DOCKED: ATOM     20  C   UNL d   1      -2.167 -10.381  -1.661 -0.34 +0.04    +0.066 A 
DOCKED: ATOM     21  C   UNL d   1      -1.383 -11.418  -1.165 -0.29 -0.02    -0.025 A 
DOCKED: ATOM     22  C   UNL d   1      -2.242 -12.456  -0.881 -0.14 -0.02    -0.021 A 
DOCKED: ATOM     23  C   UNL d   1      -3.523 -12.017  -1.233 -0.28 +0.08    +0.066 A 
DOCKED: ATOM     24  C   UNL d   1       0.112 -11.421  -0.974 -0.33 +0.02    +0.051 C 
DOCKED: ATOM     25  N   UNL d   1      -6.268 -11.221  -2.078 +0.03 -0.21    -0.248 N 
DOCKED: ATOM     26  N   UNL d   1      -6.593  -8.491  -3.035 -0.07 -0.12    -0.248 N 
DOCKED: ATOM     27  N   UNL d   1      -3.816  -8.052  -2.705 -0.23 -0.10    -0.248 N 
DOCKED: ATOM     28  N   UNL d   1      -3.466 -10.772  -1.749 -0.21 -0.19    -0.248 N 
DOCKED: ATOM     29 FE   UNL d   1      -5.016  -9.638  -2.388 -0.08 +0.00    +0.000 Fe
DOCKED: ATOM     30  O   UNL d   1      -5.527 -10.300  -3.700 -0.30 +0.00    +0.000 OA
DOCKED: ATOM     31  O   UNL d   1      -4.031  -9.817  -3.601 +0.11 +0.00    +0.000 OA
DOCKED: ENDROOT
DOCKED: BRANCH   6  32
DOCKED: ATOM     32  C   UNL d   1      -7.164 -14.717  -1.181 -0.14 +0.08    +0.052 C 
DOCKED: BRANCH  32  33
DOCKED: ATOM     33  C   UNL d   1      -7.232 -14.952   0.324 -0.09 +0.17    +0.115 C 
DOCKED: BRANCH  33  34
DOCKED: ATOM     34  C   UNL d   1      -7.728 -13.740   1.073 -0.19 +0.18    +0.139 C 
DOCKED: ATOM     35  O   UNL d   1      -8.899 -13.407   0.976 -0.03 -0.53    -0.650 OA
DOCKED: BRANCH  34  36
DOCKED: ATOM     36  O   UNL d   1      -6.898 -12.993   1.831 -0.26 -1.46    -0.776 OA
DOCKED: ATOM     37  H   UNL d   1      -7.194 -12.187   2.270 +0.07 +0.24    +0.167 HD
DOCKED: ENDBRANCH  34  36
DOCKED: ENDBRANCH  33  34
DOCKED: ENDBRANCH  32  33
DOCKED: ENDBRANCH   6  32
DOCKED: BRANCH  22  38
DOCKED: ATOM     38  C   UNL d   1      -1.841 -13.812  -0.363 -0.13 +0.06    +0.052 C 
DOCKED: BRANCH  38  39
DOCKED: ATOM     39  C   UNL d   1      -0.820 -14.502  -1.265 -0.12 +0.10    +0.115 C 
DOCKED: BRANCH  39  40
DOCKED: ATOM     40  C   UNL d   1      -1.452 -15.527  -2.173 -0.08 +0.18    +0.139 C 
DOCKED: ATOM     41  O   UNL d   1      -2.594 -15.902  -1.960 -0.15 -1.28    -0.650 OA
DOCKED: BRANCH  40  42
DOCKED: ATOM     42  O   UNL d   1      -0.797 -16.002  -3.249 -0.01 -0.78    -0.776 OA
DOCKED: ATOM     43  H   UNL d   1       0.051 -16.455  -3.165 +0.03 +0.12    +0.167 HD
DOCKED: ENDBRANCH  40  42
DOCKED: ENDBRANCH  39  40
DOCKED: ENDBRANCH  38  39
DOCKED: ENDBRANCH  22  38
DOCKED: BRANCH  12  44
DOCKED: ATOM     44  C   UNL d   1      -8.509  -5.360  -3.947 -0.50 +0.00    +0.004 C 
DOCKED: ATOM     45  C   UNL d   1      -7.939  -4.398  -4.672 -0.56 +0.00    +0.012 C 
DOCKED: ENDBRANCH  12  44
DOCKED: BRANCH  17  46
DOCKED: ATOM     46  C   UNL d   1      -0.462  -6.472  -2.925 -0.50 +0.00    +0.004 C 
DOCKED: ATOM     47  C   UNL d   1       0.138  -5.338  -3.306 -0.60 +0.00    +0.012 C 
DOCKED: ENDBRANCH  17  46
DOCKED: TORSDOF 10
DOCKED: TER
DOCKED: ENDMDL
________________________________________________________________________________


	BEGINNING GENETIC ALGORITHM DOCKING 78 of 100
Run: 78 Seed: 1305955244 1730991058 [ Run 78 of 100 GA/GALS ]
Beginning LAMARCKIAN GENETIC ALGORITHM (LGA), with a maximum of 25000000 energy evaluations.

Final-Value: -11.831


	FINAL GENETIC ALGORITHM DOCKED STATE
	_______________________________________________


Detailed state:  trans -9.545 -17.340 -4.937 quatxyzw 0.207840 0.944091 0.025029 -0.254693 center 8.287 34.468 -0.670 ntor 10 -100.0193 -132.9304 63.9158 -104.6455 -25.5768 -177.4632 -46.0305 49.6080 180.0000 163.6195
State:	 -9.545 -17.340  -4.937   0.215  0.976  0.026 -150.489   -100.02 -132.93   63.92 -104.65  -25.58 -177.46  -46.03   49.61  180.00  163.62

DOCKED: MODEL       78
DOCKED: USER    Run = 78
DOCKED: USER    DPF = D:/Protein_go_brrr/autodock/final/AncA/heme_O2/dock.dpf
DOCKED: USER  
DOCKED: USER    Estimated Free Energy of Binding    =   -6.42 kcal/mol  [=(1)+(2)+(3)-(4)]
DOCKED: USER    Estimated Inhibition Constant, Ki   =   19.73 uM (micromolar)  [Temperature = 298.15 K]
DOCKED: USER    
DOCKED: USER    (1) Final Intermolecular Energy     =   -9.40 kcal/mol
DOCKED: USER        vdW + Hbond + desolv Energy     =   -5.64 kcal/mol
DOCKED: USER        Electrostatic Energy            =   -3.76 kcal/mol
DOCKED: USER    (2) Final Total Internal Energy     =   -2.43 kcal/mol
DOCKED: USER    (3) Torsional Free Energy           =   +2.98 kcal/mol
DOCKED: USER    (4) Unbound System's Energy  [=(2)] =   -2.43 kcal/mol
DOCKED: USER    
DOCKED: USER    
DOCKED: USER    NEWDPF move heme_O2_opt.pdbqt
DOCKED: USER    NEWDPF about 8.287000 34.468000 -0.670000
DOCKED: USER    NEWDPF tran0 -9.545456 -17.340230 -4.937321
DOCKED: USER    NEWDPF quaternion0 0.207840 0.944091 0.025029 -0.254693
DOCKED: USER    NEWDPF axisangle0 0.214928 0.976287 0.025883 -150.489195
DOCKED: USER    NEWDPF quat0 0.214928 0.976287 0.025883 -150.489195
DOCKED: USER    NEWDPF dihe0 -100.02 -132.93 63.92 -104.65 -25.58 -177.46 -46.03 49.61 180.00 163.62 
DOCKED: USER  keepresnum = 1 
DOCKED: USER  
DOCKED: REMARK  10 active torsions:
DOCKED: REMARK  status: ('A' for Active; 'I' for Inactive)
DOCKED: REMARK    1  A    between atoms: C_6  and  C_10 
DOCKED: REMARK    2  A    between atoms: C_10  and  C_11 
DOCKED: REMARK    3  A    between atoms: C_11  and  C_12 
DOCKED: REMARK    4  A    between atoms: C_12  and  O_14 
DOCKED: REMARK    5  A    between atoms: C_17  and  C_20 
DOCKED: REMARK    6  A    between atoms: C_24  and  C_27 
DOCKED: REMARK    7  A    between atoms: C_31  and  C_34 
DOCKED: REMARK    8  A    between atoms: C_34  and  C_35 
DOCKED: REMARK    9  A    between atoms: C_35  and  C_36 
DOCKED: REMARK   10  A    between atoms: C_36  and  O_38 
DOCKED: USER                              x       y       z     vdW  Elec       q    Type
DOCKED: USER                           _______ _______ _______ _____ _____    ______ ____
DOCKED: ROOT
DOCKED: ATOM      1  C   UNL d   1      -8.244 -17.502  -3.270 -0.07 +0.05    +0.064 A 
DOCKED: ATOM      2  C   UNL d   1      -8.379 -19.731  -7.462 -0.10 +0.06    +0.064 A 
DOCKED: ATOM      3  C   UNL d   1     -12.300 -17.268  -8.749 -0.16 +0.01    +0.064 C 
DOCKED: ATOM      4  C   UNL d   1     -11.892 -14.627  -4.636 -0.12 +0.02    +0.064 A 
DOCKED: ATOM      5  C   UNL d   1      -7.960 -18.308  -4.306 -0.08 +0.05    +0.066 A 
DOCKED: ATOM      6  C   UNL d   1      -6.896 -19.214  -4.323 -0.06 -0.02    -0.021 A 
DOCKED: ATOM      7  C   UNL d   1      -6.908 -19.829  -5.553 -0.10 -0.02    -0.025 A 
DOCKED: ATOM      8  C   UNL d   1      -8.008 -19.316  -6.235 -0.12 +0.06    +0.066 A 
DOCKED: ATOM      9  C   UNL d   1      -5.881 -20.833  -6.029 -0.09 +0.06    +0.051 C 
DOCKED: ATOM     10  C   UNL d   1      -9.536 -19.247  -8.217 -0.14 +0.04    +0.066 A 
DOCKED: ATOM     11  C   UNL d   1      -9.970 -19.826  -9.415 -0.13 -0.01    -0.021 A 
DOCKED: ATOM     12  C   UNL d   1     -11.110 -19.142  -9.792 -0.13 +0.00    +0.000 A 
DOCKED: ATOM     13  C   UNL d   1     -11.304 -18.153  -8.788 -0.16 +0.03    +0.070 A 
DOCKED: ATOM     14  C   UNL d   1      -9.340 -21.002 -10.153 -0.11 +0.03    +0.052 C 
DOCKED: ATOM     15  C   UNL d   1     -12.512 -16.230  -7.770 -0.04 +0.01    +0.066 A 
DOCKED: ATOM     16  C   UNL d   1     -13.480 -15.231  -7.873 -0.13 -0.00    -0.021 A 
DOCKED: ATOM     17  C   UNL d   1     -13.382 -14.465  -6.712 -0.18 +0.00    +0.000 A 
DOCKED: ATOM     18  C   UNL d   1     -12.349 -15.063  -5.976 -0.17 +0.02    +0.070 A 
DOCKED: ATOM     19  C   UNL d   1     -14.364 -15.065  -9.083 -0.15 +0.01    +0.052 C 
DOCKED: ATOM     20  C   UNL d   1     -10.877 -15.150  -3.922 -0.03 +0.03    +0.066 A 
DOCKED: ATOM     21  C   UNL d   1     -10.504 -14.708  -2.655 -0.12 -0.01    -0.025 A 
DOCKED: ATOM     22  C   UNL d   1      -9.483 -15.534  -2.239 -0.09 -0.01    -0.021 A 
DOCKED: ATOM     23  C   UNL d   1      -9.259 -16.441  -3.279 -0.08 +0.04    +0.066 A 
DOCKED: ATOM     24  C   UNL d   1     -11.089 -13.554  -1.883 -0.18 +0.02    +0.051 C 
DOCKED: ATOM     25  N   UNL d   1      -8.617 -18.332  -5.492 -0.07 -0.17    -0.248 N 
DOCKED: ATOM     26  N   UNL d   1     -10.339 -18.221  -7.836 -0.13 -0.12    -0.248 N 
DOCKED: ATOM     27  N   UNL d   1     -11.783 -16.086  -6.667 -0.13 -0.06    -0.248 N 
DOCKED: ATOM     28  N   UNL d   1     -10.077 -16.176  -4.318 -0.06 -0.13    -0.248 N 
DOCKED: ATOM     29 FE   UNL d   1     -10.209 -17.189  -6.065 -0.03 +0.00    +0.000 Fe
DOCKED: ATOM     30  O   UNL d   1      -8.900 -16.880  -6.847 -0.36 +0.00    +0.000 OA
DOCKED: ATOM     31  O   UNL d   1      -9.846 -15.699  -6.410 -0.31 +0.00    +0.000 OA
DOCKED: ENDROOT
DOCKED: BRANCH   6  32
DOCKED: ATOM     32  C   UNL d   1      -5.825 -19.400  -3.280 -0.04 +0.04    +0.052 C 
DOCKED: BRANCH  32  33
DOCKED: ATOM     33  C   UNL d   1      -4.547 -18.631  -3.600 -0.08 +0.13    +0.115 C 
DOCKED: BRANCH  33  34
DOCKED: ATOM     34  C   UNL d   1      -4.041 -17.839  -2.420 -0.05 +0.20    +0.139 C 
DOCKED: ATOM     35  O   UNL d   1      -3.060 -17.124  -2.549 -0.41 -1.17    -0.650 OA
DOCKED: BRANCH  34  36
DOCKED: ATOM     36  O   UNL d   1      -4.632 -17.925  -1.210 +0.02 -0.90    -0.776 OA
DOCKED: ATOM     37  H   UNL d   1      -5.256 -17.259  -0.898 +0.01 +0.23    +0.167 HD
DOCKED: ENDBRANCH  34  36
DOCKED: ENDBRANCH  33  34
DOCKED: ENDBRANCH  32  33
DOCKED: ENDBRANCH   6  32
DOCKED: BRANCH  22  38
DOCKED: ATOM     38  C   UNL d   1      -8.728 -15.410  -0.941 -0.08 +0.04    +0.052 C 
DOCKED: BRANCH  38  39
DOCKED: ATOM     39  C   UNL d   1      -7.440 -14.603  -1.092 -0.13 +0.15    +0.115 C 
DOCKED: BRANCH  39  40
DOCKED: ATOM     40  C   UNL d   1      -6.252 -15.293  -0.471 -0.12 +0.25    +0.139 C 
DOCKED: ATOM     41  O   UNL d   1      -6.403 -15.983   0.524 -0.26 -1.13    -0.650 OA
DOCKED: BRANCH  40  42
DOCKED: ATOM     42  O   UNL d   1      -5.027 -15.204  -1.026 -0.03 -1.95    -0.776 OA
DOCKED: ATOM     43  H   UNL d   1      -4.489 -15.987  -1.191 +0.02 +0.38    +0.167 HD
DOCKED: ENDBRANCH  40  42
DOCKED: ENDBRANCH  39  40
DOCKED: ENDBRANCH  38  39
DOCKED: ENDBRANCH  22  38
DOCKED: BRANCH  12  44
DOCKED: ATOM     44  C   UNL d   1     -11.879 -19.492 -11.049 -0.08 +0.00    +0.004 C 
DOCKED: ATOM     45  C   UNL d   1     -12.137 -18.709 -12.096 -0.11 +0.00    +0.012 C 
DOCKED: ENDBRANCH  12  44
DOCKED: BRANCH  17  46
DOCKED: ATOM     46  C   UNL d   1     -14.117 -13.224  -6.282 -0.19 +0.00    +0.004 C 
DOCKED: ATOM     47  C   UNL d   1     -13.636 -11.982  -6.143 -0.30 +0.00    +0.012 C 
DOCKED: ENDBRANCH  17  46
DOCKED: TORSDOF 10
DOCKED: TER
DOCKED: ENDMDL
________________________________________________________________________________


	BEGINNING GENETIC ALGORITHM DOCKING 79 of 100
Run: 79 Seed: 1058807897 1178298746 [ Run 79 of 100 GA/GALS ]
Beginning LAMARCKIAN GENETIC ALGORITHM (LGA), with a maximum of 25000000 energy evaluations.

Final-Value: -11.348


	FINAL GENETIC ALGORITHM DOCKED STATE
	_______________________________________________


Detailed state:  trans -8.884 -17.301 -4.362 quatxyzw 0.202631 0.951370 0.008946 -0.231852 center 8.287 34.468 -0.670 ntor 10 120.3135 -170.3117 57.6159 -106.7838 -144.4254 -176.5604 -41.9936 63.5831 -175.4159 -177.0850
State:	 -8.884 -17.301  -4.362   0.208  0.978  0.009 -153.188    120.31 -170.31   57.62 -106.78 -144.43 -176.56  -41.99   63.58 -175.42 -177.08

DOCKED: MODEL       79
DOCKED: USER    Run = 79
DOCKED: USER    DPF = D:/Protein_go_brrr/autodock/final/AncA/heme_O2/dock.dpf
DOCKED: USER  
DOCKED: USER    Estimated Free Energy of Binding    =   -6.44 kcal/mol  [=(1)+(2)+(3)-(4)]
DOCKED: USER    Estimated Inhibition Constant, Ki   =   18.90 uM (micromolar)  [Temperature = 298.15 K]
DOCKED: USER    
DOCKED: USER    (1) Final Intermolecular Energy     =   -9.43 kcal/mol
DOCKED: USER        vdW + Hbond + desolv Energy     =   -5.44 kcal/mol
DOCKED: USER        Electrostatic Energy            =   -3.99 kcal/mol
DOCKED: USER    (2) Final Total Internal Energy     =   -1.92 kcal/mol
DOCKED: USER    (3) Torsional Free Energy           =   +2.98 kcal/mol
DOCKED: USER    (4) Unbound System's Energy  [=(2)] =   -1.92 kcal/mol
DOCKED: USER    
DOCKED: USER    
DOCKED: USER    NEWDPF move heme_O2_opt.pdbqt
DOCKED: USER    NEWDPF about 8.287000 34.468000 -0.670000
DOCKED: USER    NEWDPF tran0 -8.883800 -17.300813 -4.361685
DOCKED: USER    NEWDPF quaternion0 0.202631 0.951370 0.008946 -0.231852
DOCKED: USER    NEWDPF axisangle0 0.208307 0.978020 0.009197 -153.187732
DOCKED: USER    NEWDPF quat0 0.208307 0.978020 0.009197 -153.187732
DOCKED: USER    NEWDPF dihe0 120.31 -170.31 57.62 -106.78 -144.43 -176.56 -41.99 63.58 -175.42 -177.08 
DOCKED: USER  keepresnum = 1 
DOCKED: USER  
DOCKED: REMARK  10 active torsions:
DOCKED: REMARK  status: ('A' for Active; 'I' for Inactive)
DOCKED: REMARK    1  A    between atoms: C_6  and  C_10 
DOCKED: REMARK    2  A    between atoms: C_10  and  C_11 
DOCKED: REMARK    3  A    between atoms: C_11  and  C_12 
DOCKED: REMARK    4  A    between atoms: C_12  and  O_14 
DOCKED: REMARK    5  A    between atoms: C_17  and  C_20 
DOCKED: REMARK    6  A    between atoms: C_24  and  C_27 
DOCKED: REMARK    7  A    between atoms: C_31  and  C_34 
DOCKED: REMARK    8  A    between atoms: C_34  and  C_35 
DOCKED: REMARK    9  A    between atoms: C_35  and  C_36 
DOCKED: REMARK   10  A    between atoms: C_36  and  O_38 
DOCKED: USER                              x       y       z     vdW  Elec       q    Type
DOCKED: USER                           _______ _______ _______ _____ _____    ______ ____
DOCKED: ROOT
DOCKED: ATOM      1  C   UNL d   1      -7.495 -17.416  -2.763 -0.07 +0.06    +0.064 A 
DOCKED: ATOM      2  C   UNL d   1      -7.838 -19.745  -6.887 -0.12 +0.07    +0.064 A 
DOCKED: ATOM      3  C   UNL d   1     -11.838 -17.335  -8.022 -0.18 +0.02    +0.064 C 
DOCKED: ATOM      4  C   UNL d   1     -11.228 -14.593  -4.000 -0.02 +0.02    +0.064 A 
DOCKED: ATOM      5  C   UNL d   1      -7.261 -18.245  -3.793 -0.08 +0.06    +0.066 A 
DOCKED: ATOM      6  C   UNL d   1      -6.194 -19.146  -3.846 -0.06 -0.02    -0.021 A 
DOCKED: ATOM      7  C   UNL d   1      -6.267 -19.790  -5.058 -0.08 -0.02    -0.025 A 
DOCKED: ATOM      8  C   UNL d   1      -7.405 -19.300  -5.692 -0.11 +0.06    +0.066 A 
DOCKED: ATOM      9  C   UNL d   1      -5.260 -20.800  -5.564 -0.07 +0.05    +0.051 C 
DOCKED: ATOM     10  C   UNL d   1      -9.036 -19.286  -7.591 -0.15 +0.05    +0.066 A 
DOCKED: ATOM     11  C   UNL d   1      -9.530 -19.896  -8.750 -0.13 -0.01    -0.021 A 
DOCKED: ATOM     12  C   UNL d   1     -10.693 -19.226  -9.082 -0.14 +0.00    +0.000 A 
DOCKED: ATOM     13  C   UNL d   1     -10.839 -18.215  -8.093 -0.16 +0.03    +0.070 A 
DOCKED: ATOM     14  C   UNL d   1      -8.932 -21.085  -9.492 -0.11 +0.04    +0.052 C 
DOCKED: ATOM     15  C   UNL d   1     -12.004 -16.274  -7.058 -0.16 +0.01    +0.066 A 
DOCKED: ATOM     16  C   UNL d   1     -12.982 -15.283  -7.133 -0.15 -0.00    -0.021 A 
DOCKED: ATOM     17  C   UNL d   1     -12.827 -14.489  -5.997 -0.19 +0.00    +0.000 A 
DOCKED: ATOM     18  C   UNL d   1     -11.753 -15.064  -5.303 -0.10 +0.02    +0.070 A 
DOCKED: ATOM     19  C   UNL d   1     -13.931 -15.151  -8.298 -0.14 +0.01    +0.052 C 
DOCKED: ATOM     20  C   UNL d   1     -10.173 -15.094  -3.329 -0.07 +0.03    +0.066 A 
DOCKED: ATOM     21  C   UNL d   1      -9.736 -14.620  -2.095 -0.12 -0.01    -0.025 A 
DOCKED: ATOM     22  C   UNL d   1      -8.690 -15.430  -1.714 -0.09 -0.02    -0.021 A 
DOCKED: ATOM     23  C   UNL d   1      -8.515 -16.361  -2.743 -0.09 +0.06    +0.066 A 
DOCKED: ATOM     24  C   UNL d   1     -10.287 -13.450  -1.321 -0.19 +0.02    +0.051 C 
DOCKED: ATOM     25  N   UNL d   1      -7.980 -18.301  -4.941 -0.06 -0.20    -0.248 N 
DOCKED: ATOM     26  N   UNL d   1      -9.825 -18.255  -7.193 -0.12 -0.14    -0.248 N 
DOCKED: ATOM     27  N   UNL d   1     -11.218 -16.100  -5.999 -0.12 -0.08    -0.248 N 
DOCKED: ATOM     28  N   UNL d   1      -9.389 -16.125  -3.742 -0.07 -0.16    -0.248 N 
DOCKED: ATOM     29 FE   UNL d   1      -9.608 -17.180  -5.456 -0.03 +0.00    +0.000 Fe
DOCKED: ATOM     30  O   UNL d   1      -8.343 -16.883  -6.314 -0.34 +0.00    +0.000 OA
DOCKED: ATOM     31  O   UNL d   1      -9.273 -15.697  -5.855 -0.17 +0.00    +0.000 OA
DOCKED: ENDROOT
DOCKED: BRANCH   6  32
DOCKED: ATOM     32  C   UNL d   1      -5.067 -19.301  -2.857 -0.04 +0.04    +0.052 C 
DOCKED: BRANCH  32  33
DOCKED: ATOM     33  C   UNL d   1      -3.852 -18.446  -3.204 -0.06 +0.13    +0.115 C 
DOCKED: BRANCH  33  34
DOCKED: ATOM     34  C   UNL d   1      -3.282 -17.740  -1.999 -0.04 +0.18    +0.139 C 
DOCKED: ATOM     35  O   UNL d   1      -2.800 -18.395  -1.089 +0.02 -0.55    -0.650 OA
DOCKED: BRANCH  34  36
DOCKED: ATOM     36  O   UNL d   1      -3.317 -16.396  -1.888 -0.07 -1.70    -0.776 OA
DOCKED: ATOM     37  H   UNL d   1      -3.765 -15.955  -1.157 +0.01 +0.34    +0.167 HD
DOCKED: ENDBRANCH  34  36
DOCKED: ENDBRANCH  33  34
DOCKED: ENDBRANCH  32  33
DOCKED: ENDBRANCH   6  32
DOCKED: BRANCH  22  38
DOCKED: ATOM     38  C   UNL d   1      -7.867 -15.271  -0.462 -0.10 +0.06    +0.052 C 
DOCKED: BRANCH  38  39
DOCKED: ATOM     39  C   UNL d   1      -6.879 -14.111  -0.557 -0.17 +0.17    +0.115 C 
DOCKED: BRANCH  39  40
DOCKED: ATOM     40  C   UNL d   1      -5.445 -14.566  -0.460 -0.15 +0.29    +0.139 C 
DOCKED: ATOM     41  O   UNL d   1      -5.162 -15.538   0.221 -0.55 -1.45    -0.650 OA
DOCKED: BRANCH  40  42
DOCKED: ATOM     42  O   UNL d   1      -4.470 -13.947  -1.155 +0.11 -1.85    -0.776 OA
DOCKED: ATOM     43  H   UNL d   1      -3.590 -14.332  -1.241 +0.04 +0.39    +0.167 HD
DOCKED: ENDBRANCH  40  42
DOCKED: ENDBRANCH  39  40
DOCKED: ENDBRANCH  38  39
DOCKED: ENDBRANCH  22  38
DOCKED: BRANCH  12  44
DOCKED: ATOM     44  C   UNL d   1     -11.525 -19.611 -10.288 -0.09 +0.00    +0.004 C 
DOCKED: ATOM     45  C   UNL d   1     -11.939 -18.825 -11.281 -0.12 +0.00    +0.012 C 
DOCKED: ENDBRANCH  12  44
DOCKED: BRANCH  17  46
DOCKED: ATOM     46  C   UNL d   1     -13.547 -13.242  -5.558 -0.21 +0.00    +0.004 C 
DOCKED: ATOM     47  C   UNL d   1     -13.056 -12.001  -5.437 -0.34 +0.00    +0.012 C 
DOCKED: ENDBRANCH  17  46
DOCKED: TORSDOF 10
DOCKED: TER
DOCKED: ENDMDL
________________________________________________________________________________


	BEGINNING GENETIC ALGORITHM DOCKING 80 of 100
Run: 80 Seed: 1832756555 1207967335 [ Run 80 of 100 GA/GALS ]
Beginning LAMARCKIAN GENETIC ALGORITHM (LGA), with a maximum of 25000000 energy evaluations.

Final-Value: -13.101


	FINAL GENETIC ALGORITHM DOCKED STATE
	_______________________________________________


Detailed state:  trans -11.088 -14.007 -0.975 quatxyzw -0.465533 -0.682694 0.544927 0.142351 center 8.287 34.468 -0.670 ntor 10 42.9047 -127.0826 -49.9267 173.4397 -160.1670 118.2253 -31.7260 84.9850 -167.8962 179.8856
State:	-11.088 -14.007  -0.975  -0.470 -0.690  0.551 163.632     42.90 -127.08  -49.93  173.44 -160.17  118.23  -31.73   84.98 -167.90  179.89

DOCKED: MODEL       80
DOCKED: USER    Run = 80
DOCKED: USER    DPF = D:/Protein_go_brrr/autodock/final/AncA/heme_O2/dock.dpf
DOCKED: USER  
DOCKED: USER    Estimated Free Energy of Binding    =   -8.31 kcal/mol  [=(1)+(2)+(3)-(4)]
DOCKED: USER    Estimated Inhibition Constant, Ki   =  812.84 nM (nanomolar)  [Temperature = 298.15 K]
DOCKED: USER    
DOCKED: USER    (1) Final Intermolecular Energy     =  -11.29 kcal/mol
DOCKED: USER        vdW + Hbond + desolv Energy     =   -7.22 kcal/mol
DOCKED: USER        Electrostatic Energy            =   -4.07 kcal/mol
DOCKED: USER    (2) Final Total Internal Energy     =   -1.81 kcal/mol
DOCKED: USER    (3) Torsional Free Energy           =   +2.98 kcal/mol
DOCKED: USER    (4) Unbound System's Energy  [=(2)] =   -1.81 kcal/mol
DOCKED: USER    
DOCKED: USER    
DOCKED: USER    NEWDPF move heme_O2_opt.pdbqt
DOCKED: USER    NEWDPF about 8.287000 34.468000 -0.670000
DOCKED: USER    NEWDPF tran0 -11.088264 -14.007122 -0.974611
DOCKED: USER    NEWDPF quaternion0 -0.465533 -0.682694 0.544927 0.142351
DOCKED: USER    NEWDPF axisangle0 -0.470323 -0.689717 0.550533 163.632231
DOCKED: USER    NEWDPF quat0 -0.470323 -0.689717 0.550533 163.632231
DOCKED: USER    NEWDPF dihe0 42.90 -127.08 -49.93 173.44 -160.17 118.23 -31.73 84.98 -167.90 179.89 
DOCKED: USER  keepresnum = 1 
DOCKED: USER  
DOCKED: REMARK  10 active torsions:
DOCKED: REMARK  status: ('A' for Active; 'I' for Inactive)
DOCKED: REMARK    1  A    between atoms: C_6  and  C_10 
DOCKED: REMARK    2  A    between atoms: C_10  and  C_11 
DOCKED: REMARK    3  A    between atoms: C_11  and  C_12 
DOCKED: REMARK    4  A    between atoms: C_12  and  O_14 
DOCKED: REMARK    5  A    between atoms: C_17  and  C_20 
DOCKED: REMARK    6  A    between atoms: C_24  and  C_27 
DOCKED: REMARK    7  A    between atoms: C_31  and  C_34 
DOCKED: REMARK    8  A    between atoms: C_34  and  C_35 
DOCKED: REMARK    9  A    between atoms: C_35  and  C_36 
DOCKED: REMARK   10  A    between atoms: C_36  and  O_38 
DOCKED: USER                              x       y       z     vdW  Elec       q    Type
DOCKED: USER                           _______ _______ _______ _____ _____    ______ ____
DOCKED: ROOT
DOCKED: ATOM      1  C   UNL d   1      -9.378 -14.221   0.262 -0.13 +0.04    +0.064 A 
DOCKED: ATOM      2  C   UNL d   1     -13.313 -16.831  -0.250 -0.09 +0.01    +0.064 A 
DOCKED: ATOM      3  C   UNL d   1     -15.032 -13.765  -3.527 -0.18 +0.01    +0.064 C 
DOCKED: ATOM      4  C   UNL d   1     -10.777 -11.328  -3.359 -0.27 +0.01    +0.064 A 
DOCKED: ATOM      5  C   UNL d   1     -10.307 -15.182   0.389 -0.10 +0.03    +0.066 A 
DOCKED: ATOM      6  C   UNL d   1     -10.202 -16.262   1.270 -0.04 -0.01    -0.021 A 
DOCKED: ATOM      7  C   UNL d   1     -11.320 -17.041   1.092 -0.04 -0.01    -0.025 A 
DOCKED: ATOM      8  C   UNL d   1     -12.101 -16.391   0.141 -0.09 +0.02    +0.066 A 
DOCKED: ATOM      9  C   UNL d   1     -11.580 -18.356   1.794 -0.01 +0.01    +0.051 C 
DOCKED: ATOM     10  C   UNL d   1     -14.188 -16.180  -1.226 -0.12 +0.01    +0.066 A 
DOCKED: ATOM     11  C   UNL d   1     -15.503 -16.589  -1.474 -0.09 -0.00    -0.021 A 
DOCKED: ATOM     12  C   UNL d   1     -16.021 -15.706  -2.403 -0.10 +0.00    +0.000 A 
DOCKED: ATOM     13  C   UNL d   1     -14.966 -14.796  -2.685 -0.14 +0.01    +0.070 A 
DOCKED: ATOM     14  C   UNL d   1     -16.243 -17.757  -0.831 -0.04 +0.01    +0.052 C 
DOCKED: ATOM     15  C   UNL d   1     -13.976 -12.841  -3.866 -0.18 +0.01    +0.066 A 
DOCKED: ATOM     16  C   UNL d   1     -14.057 -11.884  -4.877 -0.25 -0.00    -0.021 A 
DOCKED: ATOM     17  C   UNL d   1     -12.854 -11.178  -4.849 -0.37 +0.00    +0.000 A 
DOCKED: ATOM     18  C   UNL d   1     -12.121 -11.763  -3.807 -0.26 +0.01    +0.070 A 
DOCKED: ATOM     19  C   UNL d   1     -15.239 -11.767  -5.806 -0.19 +0.00    +0.052 C 
DOCKED: ATOM     20  C   UNL d   1     -10.028 -11.895  -2.393 -0.26 +0.02    +0.066 A 
DOCKED: ATOM     21  C   UNL d   1      -8.776 -11.429  -2.003 -0.29 -0.01    -0.025 A 
DOCKED: ATOM     22  C   UNL d   1      -8.374 -12.224  -0.954 -0.25 -0.01    -0.021 A 
DOCKED: ATOM     23  C   UNL d   1      -9.392 -13.161  -0.754 -0.19 +0.04    +0.066 A 
DOCKED: ATOM     24  C   UNL d   1      -8.000 -10.285  -2.603 -0.21 +0.02    +0.051 C 
DOCKED: ATOM     25  N   UNL d   1     -11.447 -15.280  -0.339 -0.08 -0.08    -0.248 N 
DOCKED: ATOM     26  N   UNL d   1     -13.853 -15.094  -1.968 -0.12 -0.04    -0.248 N 
DOCKED: ATOM     27  N   UNL d   1     -12.786 -12.819  -3.272 -0.11 -0.03    -0.248 N 
DOCKED: ATOM     28  N   UNL d   1     -10.375 -12.986  -1.660 -0.13 -0.11    -0.248 N 
DOCKED: ATOM     29 FE   UNL d   1     -12.102 -14.030  -1.815 -0.05 +0.00    +0.000 Fe
DOCKED: ATOM     30  O   UNL d   1     -11.708 -15.448  -2.322 -0.12 +0.00    +0.000 OA
DOCKED: ATOM     31  O   UNL d   1     -11.335 -14.181  -3.180 -0.19 +0.00    +0.000 OA
DOCKED: ENDROOT
DOCKED: BRANCH   6  32
DOCKED: ATOM     32  C   UNL d   1      -9.033 -16.625   2.149 -0.03 +0.03    +0.052 C 
DOCKED: BRANCH  32  33
DOCKED: ATOM     33  C   UNL d   1      -7.969 -17.435   1.415 -0.01 +0.09    +0.115 C 
DOCKED: BRANCH  33  34
DOCKED: ATOM     34  C   UNL d   1      -6.574 -17.125   1.899 -0.02 +0.19    +0.139 C 
DOCKED: ATOM     35  O   UNL d   1      -6.338 -17.119   3.096 -0.19 -1.00    -0.650 OA
DOCKED: BRANCH  34  36
DOCKED: ATOM     36  O   UNL d   1      -5.581 -16.824   1.036 -0.11 -1.32    -0.776 OA
DOCKED: ATOM     37  H   UNL d   1      -5.716 -16.231   0.288 +0.01 +0.30    +0.167 HD
DOCKED: ENDBRANCH  34  36
DOCKED: ENDBRANCH  33  34
DOCKED: ENDBRANCH  32  33
DOCKED: ENDBRANCH   6  32
DOCKED: BRANCH  22  38
DOCKED: ATOM     38  C   UNL d   1      -7.055 -12.125  -0.231 +0.02 +0.05    +0.052 C 
DOCKED: BRANCH  38  39
DOCKED: ATOM     39  C   UNL d   1      -5.911 -12.759  -1.018 -0.25 +0.17    +0.115 C 
DOCKED: BRANCH  39  40
DOCKED: ATOM     40  C   UNL d   1      -5.631 -14.177  -0.587 -0.05 +0.28    +0.139 C 
DOCKED: ATOM     41  O   UNL d   1      -4.735 -14.403   0.210 -0.34 -1.59    -0.650 OA
DOCKED: BRANCH  40  42
DOCKED: ATOM     42  O   UNL d   1      -6.388 -15.201  -1.028 -0.40 -1.48    -0.776 OA
DOCKED: ATOM     43  H   UNL d   1      -6.830 -15.802  -0.416 +0.03 +0.24    +0.167 HD
DOCKED: ENDBRANCH  40  42
DOCKED: ENDBRANCH  39  40
DOCKED: ENDBRANCH  38  39
DOCKED: ENDBRANCH  22  38
DOCKED: BRANCH  12  44
DOCKED: ATOM     44  C   UNL d   1     -17.441 -15.823  -2.919 -0.06 +0.00    +0.004 C 
DOCKED: ATOM     45  C   UNL d   1     -18.390 -14.889  -2.921 -0.08 +0.00    +0.012 C 
DOCKED: ENDBRANCH  12  44
DOCKED: BRANCH  17  46
DOCKED: ATOM     46  C   UNL d   1     -12.336 -10.073  -5.731 -0.53 +0.00    +0.004 C 
DOCKED: ATOM     47  C   UNL d   1     -11.286  -9.269  -5.520 -0.53 +0.00    +0.012 C 
DOCKED: ENDBRANCH  17  46
DOCKED: TORSDOF 10
DOCKED: TER
DOCKED: ENDMDL
________________________________________________________________________________


	BEGINNING GENETIC ALGORITHM DOCKING 81 of 100
Run: 81 Seed: 701379077 1519848700 [ Run 81 of 100 GA/GALS ]
Beginning LAMARCKIAN GENETIC ALGORITHM (LGA), with a maximum of 25000000 energy evaluations.

Final-Value: -12.150


	FINAL GENETIC ALGORITHM DOCKED STATE
	_______________________________________________


Detailed state:  trans 0.015 -15.907 -1.997 quatxyzw 0.441576 0.036950 -0.411197 0.796594 center 8.287 34.468 -0.670 ntor 10 -94.3770 -10.9899 -65.1120 130.8305 -141.4792 88.8932 -161.2989 -44.6132 178.2653 160.0400
State:	  0.015 -15.907  -1.997   0.730  0.061 -0.680 74.388    -94.38  -10.99  -65.11  130.83 -141.48   88.89 -161.30  -44.61  178.27  160.04

DOCKED: MODEL       81
DOCKED: USER    Run = 81
DOCKED: USER    DPF = D:/Protein_go_brrr/autodock/final/AncA/heme_O2/dock.dpf
DOCKED: USER  
DOCKED: USER    Estimated Free Energy of Binding    =   -8.45 kcal/mol  [=(1)+(2)+(3)-(4)]
DOCKED: USER    Estimated Inhibition Constant, Ki   =  641.30 nM (nanomolar)  [Temperature = 298.15 K]
DOCKED: USER    
DOCKED: USER    (1) Final Intermolecular Energy     =  -11.43 kcal/mol
DOCKED: USER        vdW + Hbond + desolv Energy     =   -6.63 kcal/mol
DOCKED: USER        Electrostatic Energy            =   -4.80 kcal/mol
DOCKED: USER    (2) Final Total Internal Energy     =   -0.72 kcal/mol
DOCKED: USER    (3) Torsional Free Energy           =   +2.98 kcal/mol
DOCKED: USER    (4) Unbound System's Energy  [=(2)] =   -0.72 kcal/mol
DOCKED: USER    
DOCKED: USER    
DOCKED: USER    NEWDPF move heme_O2_opt.pdbqt
DOCKED: USER    NEWDPF about 8.287000 34.468000 -0.670000
DOCKED: USER    NEWDPF tran0 0.014974 -15.907077 -1.996900
DOCKED: USER    NEWDPF quaternion0 0.441576 0.036950 -0.411197 0.796594
DOCKED: USER    NEWDPF axisangle0 0.730464 0.061123 -0.680210 74.387878
DOCKED: USER    NEWDPF quat0 0.730464 0.061123 -0.680210 74.387878
DOCKED: USER    NEWDPF dihe0 -94.38 -10.99 -65.11 130.83 -141.48 88.89 -161.30 -44.61 178.27 160.04 
DOCKED: USER  keepresnum = 1 
DOCKED: USER  
DOCKED: REMARK  10 active torsions:
DOCKED: REMARK  status: ('A' for Active; 'I' for Inactive)
DOCKED: REMARK    1  A    between atoms: C_6  and  C_10 
DOCKED: REMARK    2  A    between atoms: C_10  and  C_11 
DOCKED: REMARK    3  A    between atoms: C_11  and  C_12 
DOCKED: REMARK    4  A    between atoms: C_12  and  O_14 
DOCKED: REMARK    5  A    between atoms: C_17  and  C_20 
DOCKED: REMARK    6  A    between atoms: C_24  and  C_27 
DOCKED: REMARK    7  A    between atoms: C_31  and  C_34 
DOCKED: REMARK    8  A    between atoms: C_34  and  C_35 
DOCKED: REMARK    9  A    between atoms: C_35  and  C_36 
DOCKED: REMARK   10  A    between atoms: C_36  and  O_38 
DOCKED: USER                              x       y       z     vdW  Elec       q    Type
DOCKED: USER                           _______ _______ _______ _____ _____    ______ ____
DOCKED: ROOT
DOCKED: ATOM      1  C   UNL d   1      -1.255 -17.568  -2.356 -0.04 +0.05    +0.064 A 
DOCKED: ATOM      2  C   UNL d   1      -0.347 -15.006   1.540 -0.11 +0.05    +0.064 A 
DOCKED: ATOM      3  C   UNL d   1       2.788 -12.278  -0.873 -0.21 +0.02    +0.064 C 
DOCKED: ATOM      4  C   UNL d   1       1.507 -14.600  -5.001 -0.21 +0.03    +0.064 A 
DOCKED: ATOM      5  C   UNL d   1      -1.265 -17.093  -1.100 -0.03 +0.05    +0.066 A 
DOCKED: ATOM      6  C   UNL d   1      -2.036 -17.631  -0.065 -0.03 -0.02    -0.021 A 
DOCKED: ATOM      7  C   UNL d   1      -1.807 -16.863   1.052 -0.07 -0.02    -0.025 A 
DOCKED: ATOM      8  C   UNL d   1      -0.865 -15.906   0.682 -0.08 +0.05    +0.066 A 
DOCKED: ATOM      9  C   UNL d   1      -2.497 -17.048   2.386 -0.03 +0.06    +0.051 C 
DOCKED: ATOM     10  C   UNL d   1       0.659 -13.994   1.215 -0.13 +0.04    +0.066 A 
DOCKED: ATOM     11  C   UNL d   1       1.282 -13.192   2.178 -0.20 -0.01    -0.021 A 
DOCKED: ATOM     12  C   UNL d   1       2.203 -12.411   1.504 -0.25 +0.00    +0.000 A 
DOCKED: ATOM     13  C   UNL d   1       2.077 -12.780   0.136 -0.15 +0.02    +0.070 A 
DOCKED: ATOM     14  C   UNL d   1       1.030 -13.191   3.681 -0.26 +0.02    +0.052 C 
DOCKED: ATOM     15  C   UNL d   1       2.667 -12.598  -2.275 -0.14 +0.02    +0.066 A 
DOCKED: ATOM     16  C   UNL d   1       3.324 -11.920  -3.301 -0.24 -0.01    -0.021 A 
DOCKED: ATOM     17  C   UNL d   1       2.974 -12.564  -4.488 -0.27 +0.00    +0.000 A 
DOCKED: ATOM     18  C   UNL d   1       2.119 -13.602  -4.091 -0.16 +0.03    +0.070 A 
DOCKED: ATOM     19  C   UNL d   1       4.175 -10.698  -3.066 -0.35 +0.01    +0.052 C 
DOCKED: ATOM     20  C   UNL d   1       0.649 -15.581  -4.660 -0.13 +0.04    +0.066 A 
DOCKED: ATOM     21  C   UNL d   1       0.120 -16.502  -5.559 -0.16 -0.02    -0.025 A 
DOCKED: ATOM     22  C   UNL d   1      -0.648 -17.372  -4.818 -0.09 -0.02    -0.021 A 
DOCKED: ATOM     23  C   UNL d   1      -0.573 -16.937  -3.492 -0.06 +0.05    +0.066 A 
DOCKED: ATOM     24  C   UNL d   1       0.333 -16.547  -7.050 -0.25 +0.03    +0.051 C 
DOCKED: ATOM     25  N   UNL d   1      -0.582 -16.007  -0.660 -0.02 -0.19    -0.248 N 
DOCKED: ATOM     26  N   UNL d   1       1.132 -13.740  -0.031 -0.06 -0.12    -0.248 N 
DOCKED: ATOM     27  N   UNL d   1       1.884 -13.561  -2.754 -0.05 -0.10    -0.248 N 
DOCKED: ATOM     28  N   UNL d   1       0.180 -15.821  -3.407 -0.04 -0.18    -0.248 N 
DOCKED: ATOM     29 FE   UNL d   1       0.654 -14.786  -1.733 -0.02 +0.00    +0.000 Fe
DOCKED: ATOM     30  O   UNL d   1      -0.659 -14.095  -1.263 -0.15 +0.00    +0.000 OA
DOCKED: ATOM     31  O   UNL d   1      -0.092 -13.799  -2.703 -0.17 +0.00    +0.000 OA
DOCKED: ENDROOT
DOCKED: BRANCH   6  32
DOCKED: ATOM     32  C   UNL d   1      -3.054 -18.739  -0.153 -0.01 +0.04    +0.052 C 
DOCKED: BRANCH  32  33
DOCKED: ATOM     33  C   UNL d   1      -4.485 -18.221  -0.259 -0.03 +0.11    +0.115 C 
DOCKED: BRANCH  33  34
DOCKED: ATOM     34  C   UNL d   1      -4.542 -16.764  -0.648 -0.08 +0.22    +0.139 C 
DOCKED: ATOM     35  O   UNL d   1      -4.182 -16.423  -1.763 +0.34 -1.60    -0.650 OA
DOCKED: BRANCH  34  36
DOCKED: ATOM     36  O   UNL d   1      -4.957 -15.820   0.221 -0.46 -1.63    -0.776 OA
DOCKED: ATOM     37  H   UNL d   1      -5.873 -15.520   0.251 +0.02 +0.34    +0.167 HD
DOCKED: ENDBRANCH  34  36
DOCKED: ENDBRANCH  33  34
DOCKED: ENDBRANCH  32  33
DOCKED: ENDBRANCH   6  32
DOCKED: BRANCH  22  38
DOCKED: ATOM     38  C   UNL d   1      -1.458 -18.517  -5.370 -0.08 +0.04    +0.052 C 
DOCKED: BRANCH  38  39
DOCKED: ATOM     39  C   UNL d   1      -2.930 -18.155  -5.550 -0.15 +0.13    +0.115 C 
DOCKED: BRANCH  39  40
DOCKED: ATOM     40  C   UNL d   1      -3.474 -18.599  -6.885 -0.12 +0.22    +0.139 C 
DOCKED: ATOM     41  O   UNL d   1      -4.032 -17.791  -7.611 -0.35 -1.23    -0.650 OA
DOCKED: BRANCH  40  42
DOCKED: ATOM     42  O   UNL d   1      -3.312 -19.864  -7.316 -0.08 -1.57    -0.776 OA
DOCKED: ATOM     43  H   UNL d   1      -2.747 -20.489  -6.846 +0.02 +0.20    +0.167 HD
DOCKED: ENDBRANCH  40  42
DOCKED: ENDBRANCH  39  40
DOCKED: ENDBRANCH  38  39
DOCKED: ENDBRANCH  22  38
DOCKED: BRANCH  12  44
DOCKED: ATOM     44  C   UNL d   1       3.087 -11.412   2.220 -0.35 +0.00    +0.004 C 
DOCKED: ATOM     45  C   UNL d   1       4.403 -11.474   2.414 -0.21 +0.00    +0.012 C 
DOCKED: ENDBRANCH  12  44
DOCKED: BRANCH  17  46
DOCKED: ATOM     46  C   UNL d   1       3.321 -12.255  -5.920 -0.44 +0.00    +0.004 C 
DOCKED: ATOM     47  C   UNL d   1       3.904 -13.055  -6.822 -0.51 +0.00    +0.012 C 
DOCKED: ENDBRANCH  17  46
DOCKED: TORSDOF 10
DOCKED: TER
DOCKED: ENDMDL
________________________________________________________________________________


	BEGINNING GENETIC ALGORITHM DOCKING 82 of 100
Run: 82 Seed: 1174725436 545917745 [ Run 82 of 100 GA/GALS ]
Beginning LAMARCKIAN GENETIC ALGORITHM (LGA), with a maximum of 25000000 energy evaluations.

Final-Value: -17.954


	FINAL GENETIC ALGORITHM DOCKED STATE
	_______________________________________________


Detailed state:  trans -4.709 -8.489 -3.212 quatxyzw -0.120484 -0.432308 -0.716960 0.533443 center 8.287 34.468 -0.670 ntor 10 162.5969 -105.5826 20.9410 -23.0475 96.0820 175.4391 -15.6642 -57.7300 20.6199 68.5029
State:	 -4.709  -8.489  -3.212  -0.142 -0.511 -0.848 115.523    162.60 -105.58   20.94  -23.05   96.08  175.44  -15.66  -57.73   20.62   68.50

DOCKED: MODEL       82
DOCKED: USER    Run = 82
DOCKED: USER    DPF = D:/Protein_go_brrr/autodock/final/AncA/heme_O2/dock.dpf
DOCKED: USER  
DOCKED: USER    Estimated Free Energy of Binding    =  -14.90 kcal/mol  [=(1)+(2)+(3)-(4)]
DOCKED: USER    Estimated Inhibition Constant, Ki   =   11.90 pM (picomolar)  [Temperature = 298.15 K]
DOCKED: USER    
DOCKED: USER    (1) Final Intermolecular Energy     =  -17.89 kcal/mol
DOCKED: USER        vdW + Hbond + desolv Energy     =  -14.75 kcal/mol
DOCKED: USER        Electrostatic Energy            =   -3.14 kcal/mol
DOCKED: USER    (2) Final Total Internal Energy     =   -0.07 kcal/mol
DOCKED: USER    (3) Torsional Free Energy           =   +2.98 kcal/mol
DOCKED: USER    (4) Unbound System's Energy  [=(2)] =   -0.07 kcal/mol
DOCKED: USER    
DOCKED: USER    
DOCKED: USER    NEWDPF move heme_O2_opt.pdbqt
DOCKED: USER    NEWDPF about 8.287000 34.468000 -0.670000
DOCKED: USER    NEWDPF tran0 -4.709161 -8.488913 -3.211967
DOCKED: USER    NEWDPF quaternion0 -0.120484 -0.432308 -0.716960 0.533443
DOCKED: USER    NEWDPF axisangle0 -0.142444 -0.511102 -0.847635 115.523235
DOCKED: USER    NEWDPF quat0 -0.142444 -0.511102 -0.847635 115.523235
DOCKED: USER    NEWDPF dihe0 162.60 -105.58 20.94 -23.05 96.08 175.44 -15.66 -57.73 20.62 68.50 
DOCKED: USER  keepresnum = 1 
DOCKED: USER  
DOCKED: REMARK  10 active torsions:
DOCKED: REMARK  status: ('A' for Active; 'I' for Inactive)
DOCKED: REMARK    1  A    between atoms: C_6  and  C_10 
DOCKED: REMARK    2  A    between atoms: C_10  and  C_11 
DOCKED: REMARK    3  A    between atoms: C_11  and  C_12 
DOCKED: REMARK    4  A    between atoms: C_12  and  O_14 
DOCKED: REMARK    5  A    between atoms: C_17  and  C_20 
DOCKED: REMARK    6  A    between atoms: C_24  and  C_27 
DOCKED: REMARK    7  A    between atoms: C_31  and  C_34 
DOCKED: REMARK    8  A    between atoms: C_34  and  C_35 
DOCKED: REMARK    9  A    between atoms: C_35  and  C_36 
DOCKED: REMARK   10  A    between atoms: C_36  and  O_38 
DOCKED: USER                              x       y       z     vdW  Elec       q    Type
DOCKED: USER                           _______ _______ _______ _____ _____    ______ ____
DOCKED: ROOT
DOCKED: ATOM      1  C   UNL d   1      -4.863 -10.542  -2.700 -0.33 +0.05    +0.064 A 
DOCKED: ATOM      2  C   UNL d   1      -1.183  -7.543  -2.866 -0.37 +0.02    +0.064 A 
DOCKED: ATOM      3  C   UNL d   1      -4.036  -3.978  -4.364 -0.31 +0.01    +0.064 C 
DOCKED: ATOM      4  C   UNL d   1      -7.909  -6.925  -3.738 -0.40 +0.02    +0.064 A 
DOCKED: ATOM      5  C   UNL d   1      -3.629 -10.016  -2.621 -0.35 +0.04    +0.066 A 
DOCKED: ATOM      6  C   UNL d   1      -2.494 -10.739  -2.243 -0.33 -0.01    -0.021 A 
DOCKED: ATOM      7  C   UNL d   1      -1.435  -9.861  -2.249 -0.34 -0.01    -0.025 A 
DOCKED: ATOM      8  C   UNL d   1      -1.944  -8.638  -2.677 -0.40 +0.02    +0.066 A 
DOCKED: ATOM      9  C   UNL d   1      -0.023 -10.205  -1.828 -0.18 +0.02    +0.051 C 
DOCKED: ATOM     10  C   UNL d   1      -1.656  -6.240  -3.335 -0.44 +0.01    +0.066 A 
DOCKED: ATOM     11  C   UNL d   1      -0.799  -5.186  -3.670 -0.47 -0.00    -0.021 A 
DOCKED: ATOM     12  C   UNL d   1      -1.603  -4.155  -4.122 -0.37 +0.00    +0.000 A 
DOCKED: ATOM     13  C   UNL d   1      -2.934  -4.645  -4.022 -0.38 +0.01    +0.070 A 
DOCKED: ATOM     14  C   UNL d   1       0.723  -5.172  -3.590 -0.55 +0.01    +0.052 C 
DOCKED: ATOM     15  C   UNL d   1      -5.403  -4.426  -4.246 -0.36 +0.01    +0.066 A 
DOCKED: ATOM     16  C   UNL d   1      -6.521  -3.621  -4.465 -0.48 -0.00    -0.021 A 
DOCKED: ATOM     17  C   UNL d   1      -7.637  -4.440  -4.292 -0.49 +0.00    +0.000 A 
DOCKED: ATOM     18  C   UNL d   1      -7.109  -5.700  -3.977 -0.41 +0.02    +0.070 A 
DOCKED: ATOM     19  C   UNL d   1      -6.426  -2.146  -4.763 -0.53 +0.00    +0.052 C 
DOCKED: ATOM     20  C   UNL d   1      -7.438  -8.138  -3.392 -0.37 +0.02    +0.066 A 
DOCKED: ATOM     21  C   UNL d   1      -8.239  -9.260  -3.198 -0.36 -0.01    -0.025 A 
DOCKED: ATOM     22  C   UNL d   1      -7.386 -10.306  -2.928 +0.17 -0.01    -0.021 A 
DOCKED: ATOM     23  C   UNL d   1      -6.091  -9.778  -2.950 +0.03 +0.04    +0.066 A 
DOCKED: ATOM     24  C   UNL d   1      -9.743  -9.329  -3.262 -0.51 +0.01    +0.051 C 
DOCKED: ATOM     25  N   UNL d   1      -3.308  -8.718  -2.843 -0.20 -0.10    -0.248 N 
DOCKED: ATOM     26  N   UNL d   1      -2.958  -5.913  -3.539 -0.26 -0.05    -0.248 N 
DOCKED: ATOM     27  N   UNL d   1      -5.756  -5.655  -3.880 -0.25 -0.07    -0.248 N 
DOCKED: ATOM     28  N   UNL d   1      -6.130  -8.451  -3.188 -0.10 -0.13    -0.248 N 
DOCKED: ATOM     29 FE   UNL d   1      -4.557  -7.189  -3.362 -0.09 +0.00    +0.000 Fe
DOCKED: ATOM     30  O   UNL d   1      -3.952  -7.049  -1.935 -0.31 +0.00    +0.000 OA
DOCKED: ATOM     31  O   UNL d   1      -5.458  -6.661  -2.186 -0.75 +0.00    +0.000 OA
DOCKED: ENDROOT
DOCKED: BRANCH   6  32
DOCKED: ATOM     32  C   UNL d   1      -2.425 -12.164  -1.760 -0.31 +0.06    +0.052 C 
DOCKED: BRANCH  32  33
DOCKED: ATOM     33  C   UNL d   1      -1.888 -13.123  -2.819 -0.18 +0.15    +0.115 C 
DOCKED: BRANCH  33  34
DOCKED: ATOM     34  C   UNL d   1      -1.418 -14.429  -2.228 -0.13 +0.18    +0.139 C 
DOCKED: ATOM     35  O   UNL d   1      -0.589 -14.422  -1.332 +0.03 -0.54    -0.650 OA
DOCKED: BRANCH  34  36
DOCKED: ATOM     36  O   UNL d   1      -1.873 -15.613  -2.687 -0.27 -1.32    -0.776 OA
DOCKED: ATOM     37  H   UNL d   1      -1.419 -16.442  -2.499 +0.02 +0.20    +0.167 HD
DOCKED: ENDBRANCH  34  36
DOCKED: ENDBRANCH  33  34
DOCKED: ENDBRANCH  32  33
DOCKED: ENDBRANCH   6  32
DOCKED: BRANCH  22  38
DOCKED: ATOM     38  C   UNL d   1      -7.802 -11.718  -2.604 -0.26 +0.04    +0.052 C 
DOCKED: BRANCH  38  39
DOCKED: ATOM     39  C   UNL d   1      -6.618 -12.683  -2.581 -0.14 +0.16    +0.115 C 
DOCKED: BRANCH  39  40
DOCKED: ATOM     40  C   UNL d   1      -6.459 -13.369  -1.248 -0.17 +0.22    +0.139 C 
DOCKED: ATOM     41  O   UNL d   1      -6.634 -12.739  -0.217 -0.04 -0.81    -0.650 OA
DOCKED: BRANCH  40  42
DOCKED: ATOM     42  O   UNL d   1      -6.176 -14.684  -1.171 -0.39 -1.63    -0.776 OA
DOCKED: ATOM     43  H   UNL d   1      -6.855 -15.334  -0.953 +0.03 +0.26    +0.167 HD
DOCKED: ENDBRANCH  40  42
DOCKED: ENDBRANCH  39  40
DOCKED: ENDBRANCH  38  39
DOCKED: ENDBRANCH  22  38
DOCKED: BRANCH  12  44
DOCKED: ATOM     44  C   UNL d   1      -1.028  -2.833  -4.588 -0.50 +0.00    +0.004 C 
DOCKED: ATOM     45  C   UNL d   1      -1.667  -1.676  -4.755 -0.64 +0.00    +0.012 C 
DOCKED: ENDBRANCH  12  44
DOCKED: BRANCH  17  46
DOCKED: ATOM     46  C   UNL d   1      -9.108  -4.127  -4.339 -0.61 +0.00    +0.004 C 
DOCKED: ATOM     47  C   UNL d   1      -9.722  -2.977  -4.031 -0.69 +0.00    +0.012 C 
DOCKED: ENDBRANCH  17  46
DOCKED: TORSDOF 10
DOCKED: TER
DOCKED: ENDMDL
________________________________________________________________________________


	BEGINNING GENETIC ALGORITHM DOCKING 83 of 100
Run: 83 Seed: 1870164725 928743460 [ Run 83 of 100 GA/GALS ]
Beginning LAMARCKIAN GENETIC ALGORITHM (LGA), with a maximum of 25000000 energy evaluations.

Final-Value: -12.398


	FINAL GENETIC ALGORITHM DOCKED STATE
	_______________________________________________


Detailed state:  trans -9.727 -14.832 -3.216 quatxyzw 0.537027 -0.348631 -0.764588 -0.073915 center 8.287 34.468 -0.670 ntor 10 41.0167 -25.0528 -22.7591 117.4576 -127.5968 -179.3897 -28.7716 -63.7619 -164.4019 4.3822
State:	 -9.727 -14.832  -3.216   0.538 -0.350 -0.767 -171.522     41.02  -25.05  -22.76  117.46 -127.60 -179.39  -28.77  -63.76 -164.40    4.38

DOCKED: MODEL       83
DOCKED: USER    Run = 83
DOCKED: USER    DPF = D:/Protein_go_brrr/autodock/final/AncA/heme_O2/dock.dpf
DOCKED: USER  
DOCKED: USER    Estimated Free Energy of Binding    =   -8.47 kcal/mol  [=(1)+(2)+(3)-(4)]
DOCKED: USER    Estimated Inhibition Constant, Ki   =  623.66 nM (nanomolar)  [Temperature = 298.15 K]
DOCKED: USER    
DOCKED: USER    (1) Final Intermolecular Energy     =  -11.45 kcal/mol
DOCKED: USER        vdW + Hbond + desolv Energy     =   -7.62 kcal/mol
DOCKED: USER        Electrostatic Energy            =   -3.83 kcal/mol
DOCKED: USER    (2) Final Total Internal Energy     =   -0.95 kcal/mol
DOCKED: USER    (3) Torsional Free Energy           =   +2.98 kcal/mol
DOCKED: USER    (4) Unbound System's Energy  [=(2)] =   -0.95 kcal/mol
DOCKED: USER    
DOCKED: USER    
DOCKED: USER    NEWDPF move heme_O2_opt.pdbqt
DOCKED: USER    NEWDPF about 8.287000 34.468000 -0.670000
DOCKED: USER    NEWDPF tran0 -9.727245 -14.832138 -3.215681
DOCKED: USER    NEWDPF quaternion0 0.537027 -0.348631 -0.764588 -0.073915
DOCKED: USER    NEWDPF axisangle0 0.538500 -0.349587 -0.766686 -171.522212
DOCKED: USER    NEWDPF quat0 0.538500 -0.349587 -0.766686 -171.522212
DOCKED: USER    NEWDPF dihe0 41.02 -25.05 -22.76 117.46 -127.60 -179.39 -28.77 -63.76 -164.40 4.38 
DOCKED: USER  keepresnum = 1 
DOCKED: USER  
DOCKED: REMARK  10 active torsions:
DOCKED: REMARK  status: ('A' for Active; 'I' for Inactive)
DOCKED: REMARK    1  A    between atoms: C_6  and  C_10 
DOCKED: REMARK    2  A    between atoms: C_10  and  C_11 
DOCKED: REMARK    3  A    between atoms: C_11  and  C_12 
DOCKED: REMARK    4  A    between atoms: C_12  and  O_14 
DOCKED: REMARK    5  A    between atoms: C_17  and  C_20 
DOCKED: REMARK    6  A    between atoms: C_24  and  C_27 
DOCKED: REMARK    7  A    between atoms: C_31  and  C_34 
DOCKED: REMARK    8  A    between atoms: C_34  and  C_35 
DOCKED: REMARK    9  A    between atoms: C_35  and  C_36 
DOCKED: REMARK   10  A    between atoms: C_36  and  O_38 
DOCKED: USER                              x       y       z     vdW  Elec       q    Type
DOCKED: USER                           _______ _______ _______ _____ _____    ______ ____
DOCKED: ROOT
DOCKED: ATOM      1  C   UNL d   1      -8.415 -14.733  -1.552 -0.11 +0.06    +0.064 A 
DOCKED: ATOM      2  C   UNL d   1     -11.422 -11.589  -3.459 -0.27 +0.01    +0.064 A 
DOCKED: ATOM      3  C   UNL d   1     -12.666 -14.720  -6.886 -0.24 +0.01    +0.064 C 
DOCKED: ATOM      4  C   UNL d   1      -9.933 -18.126  -4.653 -0.05 +0.03    +0.064 A 
DOCKED: ATOM      5  C   UNL d   1      -9.133 -13.623  -1.790 -0.15 +0.04    +0.066 A 
DOCKED: ATOM      6  C   UNL d   1      -9.046 -12.455  -1.026 -0.26 -0.01    -0.021 A 
DOCKED: ATOM      7  C   UNL d   1      -9.947 -11.559  -1.551 -0.31 -0.01    -0.025 A 
DOCKED: ATOM      8  C   UNL d   1     -10.526 -12.187  -2.650 -0.23 +0.02    +0.066 A 
DOCKED: ATOM      9  C   UNL d   1     -10.236 -10.188  -0.981 -0.43 +0.01    +0.051 C 
DOCKED: ATOM     10  C   UNL d   1     -12.046 -12.188  -4.639 -0.23 +0.01    +0.066 A 
DOCKED: ATOM     11  C   UNL d   1     -12.844 -11.470  -5.536 -0.35 -0.00    -0.021 A 
DOCKED: ATOM     12  C   UNL d   1     -13.198 -12.351  -6.542 -0.27 +0.00    +0.000 A 
DOCKED: ATOM     13  C   UNL d   1     -12.592 -13.588  -6.186 -0.25 +0.01    +0.070 A 
DOCKED: ATOM     14  C   UNL d   1     -13.230  -9.997  -5.453 -0.44 +0.00    +0.052 C 
DOCKED: ATOM     15  C   UNL d   1     -12.097 -16.001  -6.543 -0.16 +0.02    +0.066 A 
DOCKED: ATOM     16  C   UNL d   1     -12.348 -17.187  -7.233 -0.12 -0.01    -0.021 A 
DOCKED: ATOM     17  C   UNL d   1     -11.580 -18.172  -6.613 -0.08 +0.00    +0.000 A 
DOCKED: ATOM     18  C   UNL d   1     -10.908 -17.504  -5.580 -0.09 +0.03    +0.070 A 
DOCKED: ATOM     19  C   UNL d   1     -13.329 -17.284  -8.374 -0.10 +0.01    +0.052 C 
DOCKED: ATOM     20  C   UNL d   1      -9.304 -17.525  -3.624 -0.06 +0.04    +0.066 A 
DOCKED: ATOM     21  C   UNL d   1      -8.382 -18.159  -2.796 -0.03 -0.02    -0.025 A 
DOCKED: ATOM     22  C   UNL d   1      -7.919 -17.200  -1.923 -0.05 -0.02    -0.021 A 
DOCKED: ATOM     23  C   UNL d   1      -8.591 -16.016  -2.241 -0.08 +0.06    +0.066 A 
DOCKED: ATOM     24  C   UNL d   1      -7.967 -19.607  -2.833 -0.01 +0.03    +0.051 C 
DOCKED: ATOM     25  N   UNL d   1     -10.072 -13.481  -2.758 -0.01 -0.12    -0.248 N 
DOCKED: ATOM     26  N   UNL d   1     -11.897 -13.481  -5.025 -0.08 -0.06    -0.248 N 
DOCKED: ATOM     27  N   UNL d   1     -11.291 -16.204  -5.505 -0.08 -0.08    -0.248 N 
DOCKED: ATOM     28  N   UNL d   1      -9.465 -16.229  -3.247 -0.05 -0.15    -0.248 N 
DOCKED: ATOM     29 FE   UNL d   1     -10.674 -14.867  -4.131 -0.04 +0.00    +0.000 Fe
DOCKED: ATOM     30  O   UNL d   1     -11.765 -14.508  -3.082 -0.18 +0.00    +0.000 OA
DOCKED: ATOM     31  O   UNL d   1     -11.591 -16.003  -3.547 -0.09 +0.00    +0.000 OA
DOCKED: ENDROOT
DOCKED: BRANCH   6  32
DOCKED: ATOM     32  C   UNL d   1      -8.248 -12.234   0.233 -0.21 +0.04    +0.052 C 
DOCKED: BRANCH  32  33
DOCKED: ATOM     33  C   UNL d   1      -8.938 -12.785   1.477 -0.30 +0.09    +0.115 C 
DOCKED: BRANCH  33  34
DOCKED: ATOM     34  C   UNL d   1      -7.955 -13.251   2.522 -0.21 +0.18    +0.139 C 
DOCKED: ATOM     35  O   UNL d   1      -7.440 -12.436   3.271 -0.57 -0.86    -0.650 OA
DOCKED: BRANCH  34  36
DOCKED: ATOM     36  O   UNL d   1      -7.607 -14.549   2.630 +0.02 -1.35    -0.776 OA
DOCKED: ATOM     37  H   UNL d   1      -7.441 -15.100   1.857 +0.03 +0.29    +0.167 HD
DOCKED: ENDBRANCH  34  36
DOCKED: ENDBRANCH  33  34
DOCKED: ENDBRANCH  32  33
DOCKED: ENDBRANCH   6  32
DOCKED: BRANCH  22  38
DOCKED: ATOM     38  C   UNL d   1      -6.933 -17.431  -0.807 -0.04 +0.05    +0.052 C 
DOCKED: BRANCH  38  39
DOCKED: ATOM     39  C   UNL d   1      -5.553 -16.856  -1.122 -0.05 +0.18    +0.115 C 
DOCKED: BRANCH  39  40
DOCKED: ATOM     40  C   UNL d   1      -5.171 -15.732  -0.192 +0.01 +0.28    +0.139 C 
DOCKED: ATOM     41  O   UNL d   1      -6.030 -14.967   0.218 -0.53 -1.39    -0.650 OA
DOCKED: BRANCH  40  42
DOCKED: ATOM     42  O   UNL d   1      -3.903 -15.584   0.237 -0.27 -1.52    -0.776 OA
DOCKED: ATOM     43  H   UNL d   1      -3.283 -16.323   0.243 +0.01 +0.24    +0.167 HD
DOCKED: ENDBRANCH  40  42
DOCKED: ENDBRANCH  39  40
DOCKED: ENDBRANCH  38  39
DOCKED: ENDBRANCH  22  38
DOCKED: BRANCH  12  44
DOCKED: ATOM     44  C   UNL d   1     -14.063 -11.930  -7.711 -0.23 -0.00    +0.004 C 
DOCKED: ATOM     45  C   UNL d   1     -14.086 -12.446  -8.940 -0.29 +0.00    +0.012 C 
DOCKED: ENDBRANCH  12  44
DOCKED: BRANCH  17  46
DOCKED: ATOM     46  C   UNL d   1     -11.476 -19.652  -6.871 -0.04 +0.00    +0.004 C 
DOCKED: ATOM     47  C   UNL d   1     -10.442 -20.334  -7.379 -0.06 +0.01    +0.012 C 
DOCKED: ENDBRANCH  17  46
DOCKED: TORSDOF 10
DOCKED: TER
DOCKED: ENDMDL
________________________________________________________________________________


	BEGINNING GENETIC ALGORITHM DOCKING 84 of 100
Run: 84 Seed: 557443740 626848806 [ Run 84 of 100 GA/GALS ]
Beginning LAMARCKIAN GENETIC ALGORITHM (LGA), with a maximum of 25000000 energy evaluations.

Final-Value: -9.163


	FINAL GENETIC ALGORITHM DOCKED STATE
	_______________________________________________


Detailed state:  trans 9.291 8.977 -16.197 quatxyzw -0.775551 0.098265 -0.288459 0.552862 center 8.287 34.468 -0.670 ntor 10 -15.6557 -78.8927 55.7593 27.7541 -174.8556 -39.4583 -137.2041 147.6810 167.7070 13.0840
State:	  9.291   8.977 -16.197  -0.931  0.118 -0.346 112.873    -15.66  -78.89   55.76   27.75 -174.86  -39.46 -137.20  147.68  167.71   13.08

DOCKED: MODEL       84
DOCKED: USER    Run = 84
DOCKED: USER    DPF = D:/Protein_go_brrr/autodock/final/AncA/heme_O2/dock.dpf
DOCKED: USER  
DOCKED: USER    Estimated Free Energy of Binding    =   -5.41 kcal/mol  [=(1)+(2)+(3)-(4)]
DOCKED: USER    Estimated Inhibition Constant, Ki   =  108.29 uM (micromolar)  [Temperature = 298.15 K]
DOCKED: USER    
DOCKED: USER    (1) Final Intermolecular Energy     =   -8.39 kcal/mol
DOCKED: USER        vdW + Hbond + desolv Energy     =   -6.32 kcal/mol
DOCKED: USER        Electrostatic Energy            =   -2.08 kcal/mol
DOCKED: USER    (2) Final Total Internal Energy     =   -0.77 kcal/mol
DOCKED: USER    (3) Torsional Free Energy           =   +2.98 kcal/mol
DOCKED: USER    (4) Unbound System's Energy  [=(2)] =   -0.77 kcal/mol
DOCKED: USER    
DOCKED: USER    
DOCKED: USER    NEWDPF move heme_O2_opt.pdbqt
DOCKED: USER    NEWDPF about 8.287000 34.468000 -0.670000
DOCKED: USER    NEWDPF tran0 9.291076 8.977219 -16.196670
DOCKED: USER    NEWDPF quaternion0 -0.775551 0.098265 -0.288459 0.552862
DOCKED: USER    NEWDPF axisangle0 -0.930729 0.117927 -0.346176 112.872776
DOCKED: USER    NEWDPF quat0 -0.930729 0.117927 -0.346176 112.872776
DOCKED: USER    NEWDPF dihe0 -15.66 -78.89 55.76 27.75 -174.86 -39.46 -137.20 147.68 167.71 13.08 
DOCKED: USER  keepresnum = 1 
DOCKED: USER  
DOCKED: REMARK  10 active torsions:
DOCKED: REMARK  status: ('A' for Active; 'I' for Inactive)
DOCKED: REMARK    1  A    between atoms: C_6  and  C_10 
DOCKED: REMARK    2  A    between atoms: C_10  and  C_11 
DOCKED: REMARK    3  A    between atoms: C_11  and  C_12 
DOCKED: REMARK    4  A    between atoms: C_12  and  O_14 
DOCKED: REMARK    5  A    between atoms: C_17  and  C_20 
DOCKED: REMARK    6  A    between atoms: C_24  and  C_27 
DOCKED: REMARK    7  A    between atoms: C_31  and  C_34 
DOCKED: REMARK    8  A    between atoms: C_34  and  C_35 
DOCKED: REMARK    9  A    between atoms: C_35  and  C_36 
DOCKED: REMARK   10  A    between atoms: C_36  and  O_38 
DOCKED: USER                              x       y       z     vdW  Elec       q    Type
DOCKED: USER                           _______ _______ _______ _____ _____    ______ ____
DOCKED: ROOT
DOCKED: ATOM      1  C   UNL d   1       7.214   9.175 -16.577 -0.10 +0.03    +0.064 A 
DOCKED: ATOM      2  C   UNL d   1      10.712   6.989 -18.931 -0.08 +0.02    +0.064 A 
DOCKED: ATOM      3  C   UNL d   1      13.933   8.431 -15.669 -0.16 +0.01    +0.064 C 
DOCKED: ATOM      4  C   UNL d   1      10.267  10.280 -12.985 -0.19 +0.02    +0.064 A 
DOCKED: ATOM      5  C   UNL d   1       7.902   8.461 -17.482 -0.09 +0.03    +0.066 A 
DOCKED: ATOM      6  C   UNL d   1       7.331   7.879 -18.618 -0.05 -0.01    -0.021 A 
DOCKED: ATOM      7  C   UNL d   1       8.335   7.210 -19.278 -0.05 -0.01    -0.025 A 
DOCKED: ATOM      8  C   UNL d   1       9.501   7.441 -18.552 -0.08 +0.03    +0.066 A 
DOCKED: ATOM      9  C   UNL d   1       8.144   6.373 -20.524 -0.02 +0.02    +0.051 C 
DOCKED: ATOM     10  C   UNL d   1      11.972   7.218 -18.224 -0.11 +0.02    +0.066 A 
DOCKED: ATOM     11  C   UNL d   1      13.222   6.867 -18.746 -0.08 -0.00    -0.021 A 
DOCKED: ATOM     12  C   UNL d   1      14.165   7.290 -17.828 -0.10 +0.00    +0.000 A 
DOCKED: ATOM     13  C   UNL d   1      13.420   7.879 -16.769 -0.14 +0.02    +0.070 A 
DOCKED: ATOM     14  C   UNL d   1      13.506   6.180 -20.077 -0.05 +0.01    +0.052 C 
DOCKED: ATOM     15  C   UNL d   1      13.212   9.005 -14.559 -0.17 +0.01    +0.066 A 
DOCKED: ATOM     16  C   UNL d   1      13.800   9.418 -13.364 -0.20 -0.00    -0.021 A 
DOCKED: ATOM     17  C   UNL d   1      12.773   9.948 -12.582 -0.21 +0.00    +0.000 A 
DOCKED: ATOM     18  C   UNL d   1      11.621   9.819 -13.371 -0.17 +0.02    +0.070 A 
DOCKED: ATOM     19  C   UNL d   1      15.263   9.221 -13.055 -0.20 +0.01    +0.052 C 
DOCKED: ATOM     20  C   UNL d   1       9.133  10.133 -13.699 -0.17 +0.02    +0.066 A 
DOCKED: ATOM     21  C   UNL d   1       7.888  10.604 -13.292 -0.17 -0.01    -0.025 A 
DOCKED: ATOM     22  C   UNL d   1       7.011  10.322 -14.315 -0.13 -0.01    -0.021 A 
DOCKED: ATOM     23  C   UNL d   1       7.753   9.670 -15.305 -0.13 +0.03    +0.066 A 
DOCKED: ATOM     24  C   UNL d   1       7.552  11.285 -11.990 -0.19 +0.02    +0.051 C 
DOCKED: ATOM     25  N   UNL d   1       9.221   8.157 -17.411 -0.08 -0.13    -0.248 N 
DOCKED: ATOM     26  N   UNL d   1      12.087   7.827 -17.016 -0.12 -0.09    -0.248 N 
DOCKED: ATOM     27  N   UNL d   1      11.893   9.177 -14.535 -0.13 -0.06    -0.248 N 
DOCKED: ATOM     28  N   UNL d   1       9.033   9.517 -14.907 -0.11 -0.10    -0.248 N 
DOCKED: ATOM     29 FE   UNL d   1      10.550   8.679 -15.952 -0.03 +0.00    +0.000 Fe
DOCKED: ATOM     30  O   UNL d   1      10.247   7.153 -16.009 -0.44 +0.00    +0.000 OA
DOCKED: ATOM     31  O   UNL d   1      10.394   7.868 -14.613 -0.94 +0.00    +0.000 OA
DOCKED: ENDROOT
DOCKED: BRANCH   6  32
DOCKED: ATOM     32  C   UNL d   1       5.874   7.836 -19.000 -0.03 +0.02    +0.052 C 
DOCKED: BRANCH  32  33
DOCKED: ATOM     33  C   UNL d   1       5.266   6.445 -18.856 -0.04 +0.05    +0.115 C 
DOCKED: BRANCH  33  34
DOCKED: ATOM     34  C   UNL d   1       5.739   5.736 -17.611 -0.04 +0.16    +0.139 C 
DOCKED: ATOM     35  O   UNL d   1       5.964   6.379 -16.599 -0.27 -0.85    -0.650 OA
DOCKED: BRANCH  34  36
DOCKED: ATOM     36  O   UNL d   1       5.948   4.403 -17.597 -0.23 -1.41    -0.776 OA
DOCKED: ATOM     37  H   UNL d   1       5.606   3.825 -18.289 +0.02 +0.16    +0.167 HD
DOCKED: ENDBRANCH  34  36
DOCKED: ENDBRANCH  33  34
DOCKED: ENDBRANCH  32  33
DOCKED: ENDBRANCH   6  32
DOCKED: BRANCH  22  38
DOCKED: ATOM     38  C   UNL d   1       5.532  10.608 -14.307 -0.08 +0.01    +0.052 C 
DOCKED: BRANCH  38  39
DOCKED: ATOM     39  C   UNL d   1       5.132  11.637 -15.362 -0.03 +0.02    +0.115 C 
DOCKED: BRANCH  39  40
DOCKED: ATOM     40  C   UNL d   1       6.203  12.675 -15.588 -0.02 +0.02    +0.139 C 
DOCKED: ATOM     41  O   UNL d   1       6.888  12.630 -16.597 +0.01 -0.09    -0.650 OA
DOCKED: BRANCH  40  42
DOCKED: ATOM     42  O   UNL d   1       6.385  13.688 -14.719 +0.01 -0.09    -0.776 OA
DOCKED: ATOM     43  H   UNL d   1       5.786  14.444 -14.692 +0.00 +0.01    +0.167 HD
DOCKED: ENDBRANCH  40  42
DOCKED: ENDBRANCH  39  40
DOCKED: ENDBRANCH  38  39
DOCKED: ENDBRANCH  22  38
DOCKED: BRANCH  12  44
DOCKED: ATOM     44  C   UNL d   1      15.650   7.091 -18.050 -0.08 +0.00    +0.004 C 
DOCKED: ATOM     45  C   UNL d   1      16.537   6.546 -17.218 -0.10 +0.00    +0.012 C 
DOCKED: ENDBRANCH  12  44
DOCKED: BRANCH  17  46
DOCKED: ATOM     46  C   UNL d   1      12.780  10.493 -11.179 -0.30 +0.00    +0.004 C 
DOCKED: ATOM     47  C   UNL d   1      13.822  10.954 -10.474 -0.25 +0.00    +0.012 C 
DOCKED: ENDBRANCH  17  46
DOCKED: TORSDOF 10
DOCKED: TER
DOCKED: ENDMDL
________________________________________________________________________________


	BEGINNING GENETIC ALGORITHM DOCKING 85 of 100
Run: 85 Seed: 1928552673 1040316327 [ Run 85 of 100 GA/GALS ]
Beginning LAMARCKIAN GENETIC ALGORITHM (LGA), with a maximum of 25000000 energy evaluations.

Final-Value: -12.809


	FINAL GENETIC ALGORITHM DOCKED STATE
	_______________________________________________


Detailed state:  trans -11.528 -13.534 -1.620 quatxyzw -0.339917 -0.712226 0.609098 0.078678 center 8.287 34.468 -0.670 ntor 10 -167.6995 -32.3092 -49.5026 -50.5211 11.9805 155.2164 -60.2969 0.1925 178.9113 146.4817
State:	-11.528 -13.534  -1.620  -0.341 -0.714  0.611 170.975   -167.70  -32.31  -49.50  -50.52   11.98  155.22  -60.30    0.19  178.91  146.48

DOCKED: MODEL       85
DOCKED: USER    Run = 85
DOCKED: USER    DPF = D:/Protein_go_brrr/autodock/final/AncA/heme_O2/dock.dpf
DOCKED: USER  
DOCKED: USER    Estimated Free Energy of Binding    =   -8.22 kcal/mol  [=(1)+(2)+(3)-(4)]
DOCKED: USER    Estimated Inhibition Constant, Ki   =  943.41 nM (nanomolar)  [Temperature = 298.15 K]
DOCKED: USER    
DOCKED: USER    (1) Final Intermolecular Energy     =  -11.20 kcal/mol
DOCKED: USER        vdW + Hbond + desolv Energy     =   -7.45 kcal/mol
DOCKED: USER        Electrostatic Energy            =   -3.75 kcal/mol
DOCKED: USER    (2) Final Total Internal Energy     =   -1.61 kcal/mol
DOCKED: USER    (3) Torsional Free Energy           =   +2.98 kcal/mol
DOCKED: USER    (4) Unbound System's Energy  [=(2)] =   -1.61 kcal/mol
DOCKED: USER    
DOCKED: USER    
DOCKED: USER    NEWDPF move heme_O2_opt.pdbqt
DOCKED: USER    NEWDPF about 8.287000 34.468000 -0.670000
DOCKED: USER    NEWDPF tran0 -11.528437 -13.533613 -1.619815
DOCKED: USER    NEWDPF quaternion0 -0.339917 -0.712226 0.609098 0.078678
DOCKED: USER    NEWDPF axisangle0 -0.340974 -0.714441 0.610992 170.974813
DOCKED: USER    NEWDPF quat0 -0.340974 -0.714441 0.610992 170.974813
DOCKED: USER    NEWDPF dihe0 -167.70 -32.31 -49.50 -50.52 11.98 155.22 -60.30 0.19 178.91 146.48 
DOCKED: USER  keepresnum = 1 
DOCKED: USER  
DOCKED: REMARK  10 active torsions:
DOCKED: REMARK  status: ('A' for Active; 'I' for Inactive)
DOCKED: REMARK    1  A    between atoms: C_6  and  C_10 
DOCKED: REMARK    2  A    between atoms: C_10  and  C_11 
DOCKED: REMARK    3  A    between atoms: C_11  and  C_12 
DOCKED: REMARK    4  A    between atoms: C_12  and  O_14 
DOCKED: REMARK    5  A    between atoms: C_17  and  C_20 
DOCKED: REMARK    6  A    between atoms: C_24  and  C_27 
DOCKED: REMARK    7  A    between atoms: C_31  and  C_34 
DOCKED: REMARK    8  A    between atoms: C_34  and  C_35 
DOCKED: REMARK    9  A    between atoms: C_35  and  C_36 
DOCKED: REMARK   10  A    between atoms: C_36  and  O_38 
DOCKED: USER                              x       y       z     vdW  Elec       q    Type
DOCKED: USER                           _______ _______ _______ _____ _____    ______ ____
DOCKED: ROOT
DOCKED: ATOM      1  C   UNL d   1      -9.523 -13.507  -0.930 -0.17 +0.04    +0.064 A 
DOCKED: ATOM      2  C   UNL d   1     -13.113 -16.538  -0.238 -0.10 +0.01    +0.064 A 
DOCKED: ATOM      3  C   UNL d   1     -16.039 -13.830  -2.922 -0.19 +0.01    +0.064 C 
DOCKED: ATOM      4  C   UNL d   1     -12.223 -10.954  -4.033 -0.19 +0.00    +0.064 A 
DOCKED: ATOM      5  C   UNL d   1     -10.260 -14.553  -0.524 -0.12 +0.03    +0.066 A 
DOCKED: ATOM      6  C   UNL d   1      -9.783 -15.572   0.305 -0.07 -0.01    -0.021 A 
DOCKED: ATOM      7  C   UNL d   1     -10.809 -16.473   0.471 -0.05 -0.01    -0.025 A 
DOCKED: ATOM      8  C   UNL d   1     -11.899 -15.955  -0.222 -0.10 +0.02    +0.066 A 
DOCKED: ATOM      9  C   UNL d   1     -10.704 -17.773   1.239 -0.01 +0.02    +0.051 C 
DOCKED: ATOM     10  C   UNL d   1     -14.300 -16.030  -0.928 -0.12 +0.01    +0.066 A 
DOCKED: ATOM     11  C   UNL d   1     -15.575 -16.587  -0.777 -0.11 -0.00    -0.021 A 
DOCKED: ATOM     12  C   UNL d   1     -16.435 -15.809  -1.530 -0.12 +0.00    +0.000 A 
DOCKED: ATOM     13  C   UNL d   1     -15.616 -14.807  -2.119 -0.12 +0.01    +0.070 A 
DOCKED: ATOM     14  C   UNL d   1     -15.960 -17.794   0.070 -0.05 +0.01    +0.052 C 
DOCKED: ATOM     15  C   UNL d   1     -15.237 -12.818  -3.567 -0.19 +0.01    +0.066 A 
DOCKED: ATOM     16  C   UNL d   1     -15.714 -11.924  -4.525 -0.22 -0.00    -0.021 A 
DOCKED: ATOM     17  C   UNL d   1     -14.643 -11.094  -4.857 -0.31 +0.00    +0.000 A 
DOCKED: ATOM     18  C   UNL d   1     -13.580 -11.549  -4.065 -0.24 -0.00    +0.070 A 
DOCKED: ATOM     19  C   UNL d   1     -17.118 -11.977  -5.073 -0.14 +0.00    +0.052 C 
DOCKED: ATOM     20  C   UNL d   1     -11.169 -11.391  -3.317 -0.31 +0.01    +0.066 A 
DOCKED: ATOM     21  C   UNL d   1      -9.919 -10.778  -3.314 -0.33 -0.01    -0.025 A 
DOCKED: ATOM     22  C   UNL d   1      -9.145 -11.476  -2.415 -0.29 -0.01    -0.021 A 
DOCKED: ATOM     23  C   UNL d   1      -9.949 -12.504  -1.913 -0.22 +0.03    +0.066 A 
DOCKED: ATOM     24  C   UNL d   1      -9.485  -9.589  -4.131 -0.34 +0.01    +0.051 C 
DOCKED: ATOM     25  N   UNL d   1     -11.541 -14.806  -0.889 -0.05 -0.08    -0.248 N 
DOCKED: ATOM     26  N   UNL d   1     -14.318 -14.952  -1.752 -0.11 -0.03    -0.248 N 
DOCKED: ATOM     27  N   UNL d   1     -13.938 -12.642  -3.344 -0.14 -0.01    -0.248 N 
DOCKED: ATOM     28  N   UNL d   1     -11.164 -12.477  -2.498 -0.13 -0.07    -0.248 N 
DOCKED: ATOM     29 FE   UNL d   1     -12.731 -13.704  -2.130 -0.06 +0.00    +0.000 Fe
DOCKED: ATOM     30  O   UNL d   1     -12.339 -15.095  -2.707 -0.15 +0.00    +0.000 OA
DOCKED: ATOM     31  O   UNL d   1     -12.376 -13.838  -3.656 -0.21 +0.00    +0.000 OA
DOCKED: ENDROOT
DOCKED: BRANCH   6  32
DOCKED: ATOM     32  C   UNL d   1      -8.378 -15.768   0.813 -0.06 +0.05    +0.052 C 
DOCKED: BRANCH  32  33
DOCKED: ATOM     33  C   UNL d   1      -7.578 -16.760  -0.026 -0.04 +0.11    +0.115 C 
DOCKED: BRANCH  33  34
DOCKED: ATOM     34  C   UNL d   1      -6.378 -16.123  -0.681 -0.07 +0.22    +0.139 C 
DOCKED: ATOM     35  O   UNL d   1      -6.094 -16.412  -1.832 -0.36 -1.33    -0.650 OA
DOCKED: BRANCH  34  36
DOCKED: ATOM     36  O   UNL d   1      -5.589 -15.256  -0.012 -0.49 -1.70    -0.776 OA
DOCKED: ATOM     37  H   UNL d   1      -4.932 -14.711  -0.462 +0.02 +0.36    +0.167 HD
DOCKED: ENDBRANCH  34  36
DOCKED: ENDBRANCH  33  34
DOCKED: ENDBRANCH  32  33
DOCKED: ENDBRANCH   6  32
DOCKED: BRANCH  22  38
DOCKED: ATOM     38  C   UNL d   1      -7.695 -11.204  -2.107 +0.04 +0.03    +0.052 C 
DOCKED: BRANCH  38  39
DOCKED: ATOM     39  C   UNL d   1      -6.776 -12.318  -2.603 -0.23 +0.13    +0.115 C 
DOCKED: BRANCH  39  40
DOCKED: ATOM     40  C   UNL d   1      -5.322 -12.037  -2.316 -0.21 +0.20    +0.139 C 
DOCKED: ATOM     41  O   UNL d   1      -4.793 -11.042  -2.786 -0.08 -0.63    -0.650 OA
DOCKED: BRANCH  40  42
DOCKED: ATOM     42  O   UNL d   1      -4.605 -12.838  -1.505 -0.09 -1.52    -0.776 OA
DOCKED: ATOM     43  H   UNL d   1      -5.018 -13.324  -0.782 +0.04 +0.31    +0.167 HD
DOCKED: ENDBRANCH  40  42
DOCKED: ENDBRANCH  39  40
DOCKED: ENDBRANCH  38  39
DOCKED: ENDBRANCH  22  38
DOCKED: BRANCH  12  44
DOCKED: ATOM     44  C   UNL d   1     -17.920 -16.099  -1.609 -0.09 +0.00    +0.004 C 
DOCKED: ATOM     45  C   UNL d   1     -18.931 -15.269  -1.357 -0.11 +0.00    +0.012 C 
DOCKED: ENDBRANCH  12  44
DOCKED: BRANCH  17  46
DOCKED: ATOM     46  C   UNL d   1     -14.529  -9.985  -5.869 -0.42 +0.00    +0.004 C 
DOCKED: ATOM     47  C   UNL d   1     -14.748 -10.041  -7.189 -0.38 -0.00    +0.012 C 
DOCKED: ENDBRANCH  17  46
DOCKED: TORSDOF 10
DOCKED: TER
DOCKED: ENDMDL
________________________________________________________________________________


	BEGINNING GENETIC ALGORITHM DOCKING 86 of 100
Run: 86 Seed: 182430493 1987961049 [ Run 86 of 100 GA/GALS ]
Beginning LAMARCKIAN GENETIC ALGORITHM (LGA), with a maximum of 25000000 energy evaluations.

Final-Value: -18.646


	FINAL GENETIC ALGORITHM DOCKED STATE
	_______________________________________________


Detailed state:  trans -4.689 -8.523 -3.228 quatxyzw 0.120648 0.434593 0.721601 -0.525228 center 8.287 34.468 -0.670 ntor 10 158.1493 -69.2039 41.8070 -18.0166 88.7653 -171.5402 -10.8979 48.9648 23.4617 151.8763
State:	 -4.689  -8.523  -3.228   0.142  0.511  0.848 -116.633    158.15  -69.20   41.81  -18.02   88.77 -171.54  -10.90   48.96   23.46  151.88

DOCKED: MODEL       86
DOCKED: USER    Run = 86
DOCKED: USER    DPF = D:/Protein_go_brrr/autodock/final/AncA/heme_O2/dock.dpf
DOCKED: USER  
DOCKED: USER    Estimated Free Energy of Binding    =  -15.23 kcal/mol  [=(1)+(2)+(3)-(4)]
DOCKED: USER    Estimated Inhibition Constant, Ki   =    6.88 pM (picomolar)  [Temperature = 298.15 K]
DOCKED: USER    
DOCKED: USER    (1) Final Intermolecular Energy     =  -18.21 kcal/mol
DOCKED: USER        vdW + Hbond + desolv Energy     =  -14.85 kcal/mol
DOCKED: USER        Electrostatic Energy            =   -3.37 kcal/mol
DOCKED: USER    (2) Final Total Internal Energy     =   -0.43 kcal/mol
DOCKED: USER    (3) Torsional Free Energy           =   +2.98 kcal/mol
DOCKED: USER    (4) Unbound System's Energy  [=(2)] =   -0.43 kcal/mol
DOCKED: USER    
DOCKED: USER    
DOCKED: USER    NEWDPF move heme_O2_opt.pdbqt
DOCKED: USER    NEWDPF about 8.287000 34.468000 -0.670000
DOCKED: USER    NEWDPF tran0 -4.688513 -8.522511 -3.228433
DOCKED: USER    NEWDPF quaternion0 0.120648 0.434593 0.721601 -0.525228
DOCKED: USER    NEWDPF axisangle0 0.141779 0.510709 0.847983 -116.632765
DOCKED: USER    NEWDPF quat0 0.141779 0.510709 0.847983 -116.632765
DOCKED: USER    NEWDPF dihe0 158.15 -69.20 41.81 -18.02 88.77 -171.54 -10.90 48.96 23.46 151.88 
DOCKED: USER  keepresnum = 1 
DOCKED: USER  
DOCKED: REMARK  10 active torsions:
DOCKED: REMARK  status: ('A' for Active; 'I' for Inactive)
DOCKED: REMARK    1  A    between atoms: C_6  and  C_10 
DOCKED: REMARK    2  A    between atoms: C_10  and  C_11 
DOCKED: REMARK    3  A    between atoms: C_11  and  C_12 
DOCKED: REMARK    4  A    between atoms: C_12  and  O_14 
DOCKED: REMARK    5  A    between atoms: C_17  and  C_20 
DOCKED: REMARK    6  A    between atoms: C_24  and  C_27 
DOCKED: REMARK    7  A    between atoms: C_31  and  C_34 
DOCKED: REMARK    8  A    between atoms: C_34  and  C_35 
DOCKED: REMARK    9  A    between atoms: C_35  and  C_36 
DOCKED: REMARK   10  A    between atoms: C_36  and  O_38 
DOCKED: USER                              x       y       z     vdW  Elec       q    Type
DOCKED: USER                           _______ _______ _______ _____ _____    ______ ____
DOCKED: ROOT
DOCKED: ATOM      1  C   UNL d   1      -4.802 -10.579  -2.721 -0.34 +0.05    +0.064 A 
DOCKED: ATOM      2  C   UNL d   1      -1.176  -7.517  -2.910 -0.36 +0.02    +0.064 A 
DOCKED: ATOM      3  C   UNL d   1      -4.103  -3.998  -4.373 -0.31 +0.01    +0.064 C 
DOCKED: ATOM      4  C   UNL d   1      -7.919  -7.012  -3.722 -0.40 +0.02    +0.064 A 
DOCKED: ATOM      5  C   UNL d   1      -3.578 -10.033  -2.651 -0.34 +0.04    +0.066 A 
DOCKED: ATOM      6  C   UNL d   1      -2.427 -10.737  -2.285 -0.32 -0.01    -0.021 A 
DOCKED: ATOM      7  C   UNL d   1      -1.383  -9.841  -2.297 -0.33 -0.01    -0.025 A 
DOCKED: ATOM      8  C   UNL d   1      -1.917  -8.626  -2.718 -0.39 +0.02    +0.066 A 
DOCKED: ATOM      9  C   UNL d   1       0.038 -10.162  -1.890 -0.21 +0.02    +0.051 C 
DOCKED: ATOM     10  C   UNL d   1      -1.675  -6.221  -3.371 -0.43 +0.01    +0.066 A 
DOCKED: ATOM     11  C   UNL d   1      -0.840  -5.151  -3.711 -0.47 -0.00    -0.021 A 
DOCKED: ATOM     12  C   UNL d   1      -1.665  -4.133  -4.152 -0.36 +0.00    +0.000 A 
DOCKED: ATOM     13  C   UNL d   1      -2.987  -4.647  -4.043 -0.38 +0.01    +0.070 A 
DOCKED: ATOM     14  C   UNL d   1       0.682  -5.112  -3.643 -0.57 +0.01    +0.052 C 
DOCKED: ATOM     15  C   UNL d   1      -5.461  -4.469  -4.244 -0.36 +0.01    +0.066 A 
DOCKED: ATOM     16  C   UNL d   1      -6.594  -3.683  -4.452 -0.48 -0.00    -0.021 A 
DOCKED: ATOM     17  C   UNL d   1      -7.694  -4.521  -4.271 -0.49 +0.00    +0.000 A 
DOCKED: ATOM     18  C   UNL d   1      -7.142  -5.773  -3.964 -0.41 +0.02    +0.070 A 
DOCKED: ATOM     19  C   UNL d   1      -6.527  -2.205  -4.746 -0.55 +0.00    +0.052 C 
DOCKED: ATOM     20  C   UNL d   1      -7.424  -8.218  -3.384 -0.37 +0.02    +0.066 A 
DOCKED: ATOM     21  C   UNL d   1      -8.204  -9.354  -3.186 -0.33 -0.01    -0.025 A 
DOCKED: ATOM     22  C   UNL d   1      -7.331 -10.386  -2.926 +0.20 -0.01    -0.021 A 
DOCKED: ATOM     23  C   UNL d   1      -6.046  -9.836  -2.958 -0.01 +0.04    +0.066 A 
DOCKED: ATOM     24  C   UNL d   1      -9.707  -9.449  -3.238 -0.50 +0.01    +0.051 C 
DOCKED: ATOM     25  N   UNL d   1      -3.280  -8.729  -2.873 -0.20 -0.10    -0.248 N 
DOCKED: ATOM     26  N   UNL d   1      -2.984  -5.916  -3.563 -0.26 -0.05    -0.248 N 
DOCKED: ATOM     27  N   UNL d   1      -5.789  -5.705  -3.879 -0.25 -0.07    -0.248 N 
DOCKED: ATOM     28  N   UNL d   1      -6.110  -8.509  -3.192 -0.10 -0.13    -0.248 N 
DOCKED: ATOM     29 FE   UNL d   1      -4.560  -7.220  -3.376 -0.09 +0.00    +0.000 Fe
DOCKED: ATOM     30  O   UNL d   1      -3.945  -7.073  -1.954 -0.33 +0.00    +0.000 OA
DOCKED: ATOM     31  O   UNL d   1      -5.460  -6.710  -2.191 -0.72 +0.00    +0.000 OA
DOCKED: ENDROOT
DOCKED: BRANCH   6  32
DOCKED: ATOM     32  C   UNL d   1      -2.329 -12.162  -1.808 -0.31 +0.06    +0.052 C 
DOCKED: BRANCH  32  33
DOCKED: ATOM     33  C   UNL d   1      -1.721 -13.096  -2.850 -0.18 +0.14    +0.115 C 
DOCKED: BRANCH  33  34
DOCKED: ATOM     34  C   UNL d   1      -1.336 -14.434  -2.269 -0.13 +0.17    +0.139 C 
DOCKED: ATOM     35  O   UNL d   1      -0.489 -14.490  -1.391 +0.03 -0.52    -0.650 OA
DOCKED: BRANCH  34  36
DOCKED: ATOM     36  O   UNL d   1      -1.888 -15.580  -2.717 -0.26 -1.33    -0.776 OA
DOCKED: ATOM     37  H   UNL d   1      -1.460 -16.436  -2.594 +0.02 +0.20    +0.167 HD
DOCKED: ENDBRANCH  34  36
DOCKED: ENDBRANCH  33  34
DOCKED: ENDBRANCH  32  33
DOCKED: ENDBRANCH   6  32
DOCKED: BRANCH  22  38
DOCKED: ATOM     38  C   UNL d   1      -7.720 -11.806  -2.603 -0.26 +0.04    +0.052 C 
DOCKED: BRANCH  38  39
DOCKED: ATOM     39  C   UNL d   1      -7.522 -12.142  -1.127 -0.20 +0.10    +0.115 C 
DOCKED: BRANCH  39  40
DOCKED: ATOM     40  C   UNL d   1      -6.794 -13.447  -0.925 -0.20 +0.19    +0.139 C 
DOCKED: ATOM     41  O   UNL d   1      -6.865 -14.319  -1.777 -0.32 -1.19    -0.650 OA
DOCKED: BRANCH  40  42
DOCKED: ATOM     42  O   UNL d   1      -6.021 -13.652   0.159 -0.18 -1.44    -0.776 OA
DOCKED: ATOM     43  H   UNL d   1      -5.208 -13.153   0.301 +0.05 +0.31    +0.167 HD
DOCKED: ENDBRANCH  40  42
DOCKED: ENDBRANCH  39  40
DOCKED: ENDBRANCH  38  39
DOCKED: ENDBRANCH  22  38
DOCKED: BRANCH  12  44
DOCKED: ATOM     44  C   UNL d   1      -1.117  -2.801  -4.619 -0.51 +0.00    +0.004 C 
DOCKED: ATOM     45  C   UNL d   1      -1.638  -1.589  -4.429 -0.64 +0.00    +0.012 C 
DOCKED: ENDBRANCH  12  44
DOCKED: BRANCH  17  46
DOCKED: ATOM     46  C   UNL d   1      -9.171  -4.233  -4.305 -0.61 +0.00    +0.004 C 
DOCKED: ATOM     47  C   UNL d   1      -9.795  -3.070  -4.076 -0.69 +0.00    +0.012 C 
DOCKED: ENDBRANCH  17  46
DOCKED: TORSDOF 10
DOCKED: TER
DOCKED: ENDMDL
________________________________________________________________________________


	BEGINNING GENETIC ALGORITHM DOCKING 87 of 100
Run: 87 Seed: 1221470789 1323777748 [ Run 87 of 100 GA/GALS ]
Beginning LAMARCKIAN GENETIC ALGORITHM (LGA), with a maximum of 25000000 energy evaluations.

Final-Value: -12.545


	FINAL GENETIC ALGORITHM DOCKED STATE
	_______________________________________________


Detailed state:  trans -0.340 -15.614 -2.529 quatxyzw -0.432501 -0.017340 0.386001 -0.814645 center 8.287 34.468 -0.670 ntor 10 -53.6781 100.1930 -48.4762 113.1688 72.5926 84.0624 -123.0981 67.2307 160.3951 179.6746
State:	 -0.340 -15.614  -2.529  -0.746 -0.030  0.666 -70.895    -53.68  100.19  -48.48  113.17   72.59   84.06 -123.10   67.23  160.40  179.67

DOCKED: MODEL       87
DOCKED: USER    Run = 87
DOCKED: USER    DPF = D:/Protein_go_brrr/autodock/final/AncA/heme_O2/dock.dpf
DOCKED: USER  
DOCKED: USER    Estimated Free Energy of Binding    =   -7.86 kcal/mol  [=(1)+(2)+(3)-(4)]
DOCKED: USER    Estimated Inhibition Constant, Ki   =    1.73 uM (micromolar)  [Temperature = 298.15 K]
DOCKED: USER    
DOCKED: USER    (1) Final Intermolecular Energy     =  -10.84 kcal/mol
DOCKED: USER        vdW + Hbond + desolv Energy     =   -6.97 kcal/mol
DOCKED: USER        Electrostatic Energy            =   -3.87 kcal/mol
DOCKED: USER    (2) Final Total Internal Energy     =   -1.70 kcal/mol
DOCKED: USER    (3) Torsional Free Energy           =   +2.98 kcal/mol
DOCKED: USER    (4) Unbound System's Energy  [=(2)] =   -1.70 kcal/mol
DOCKED: USER    
DOCKED: USER    
DOCKED: USER    NEWDPF move heme_O2_opt.pdbqt
DOCKED: USER    NEWDPF about 8.287000 34.468000 -0.670000
DOCKED: USER    NEWDPF tran0 -0.340498 -15.614293 -2.528547
DOCKED: USER    NEWDPF quaternion0 -0.432501 -0.017340 0.386001 -0.814645
DOCKED: USER    NEWDPF axisangle0 -0.745742 -0.029899 0.665564 -70.895491
DOCKED: USER    NEWDPF quat0 -0.745742 -0.029899 0.665564 -70.895491
DOCKED: USER    NEWDPF dihe0 -53.68 100.19 -48.48 113.17 72.59 84.06 -123.10 67.23 160.40 179.67 
DOCKED: USER  keepresnum = 1 
DOCKED: USER  
DOCKED: REMARK  10 active torsions:
DOCKED: REMARK  status: ('A' for Active; 'I' for Inactive)
DOCKED: REMARK    1  A    between atoms: C_6  and  C_10 
DOCKED: REMARK    2  A    between atoms: C_10  and  C_11 
DOCKED: REMARK    3  A    between atoms: C_11  and  C_12 
DOCKED: REMARK    4  A    between atoms: C_12  and  O_14 
DOCKED: REMARK    5  A    between atoms: C_17  and  C_20 
DOCKED: REMARK    6  A    between atoms: C_24  and  C_27 
DOCKED: REMARK    7  A    between atoms: C_31  and  C_34 
DOCKED: REMARK    8  A    between atoms: C_34  and  C_35 
DOCKED: REMARK    9  A    between atoms: C_35  and  C_36 
DOCKED: REMARK   10  A    between atoms: C_36  and  O_38 
DOCKED: USER                              x       y       z     vdW  Elec       q    Type
DOCKED: USER                           _______ _______ _______ _____ _____    ______ ____
DOCKED: ROOT
DOCKED: ATOM      1  C   UNL d   1      -1.732 -17.174  -2.889 -0.07 +0.07    +0.064 A 
DOCKED: ATOM      2  C   UNL d   1      -0.576 -14.749   1.027 -0.09 +0.05    +0.064 A 
DOCKED: ATOM      3  C   UNL d   1       2.705 -12.212  -1.400 -0.21 +0.02    +0.064 C 
DOCKED: ATOM      4  C   UNL d   1       1.190 -14.367  -5.539 -0.28 +0.03    +0.064 A 
DOCKED: ATOM      5  C   UNL d   1      -1.687 -16.720  -1.626 -0.06 +0.07    +0.066 A 
DOCKED: ATOM      6  C   UNL d   1      -2.476 -17.220  -0.586 -0.06 -0.02    -0.021 A 
DOCKED: ATOM      7  C   UNL d   1      -2.173 -16.489   0.539 -0.09 -0.03    -0.025 A 
DOCKED: ATOM      8  C   UNL d   1      -1.172 -15.596   0.166 -0.09 +0.06    +0.066 A 
DOCKED: ATOM      9  C   UNL d   1      -2.852 -16.646   1.882 +0.23 +0.07    +0.051 C 
DOCKED: ATOM     10  C   UNL d   1       0.494 -13.806   0.700 -0.14 +0.04    +0.066 A 
DOCKED: ATOM     11  C   UNL d   1       1.190 -13.067   1.664 -0.21 -0.01    -0.021 A 
DOCKED: ATOM     12  C   UNL d   1       2.152 -12.343   0.986 -0.26 +0.00    +0.000 A 
DOCKED: ATOM     13  C   UNL d   1       1.977 -12.679  -0.386 -0.16 +0.02    +0.070 A 
DOCKED: ATOM     14  C   UNL d   1       0.964 -13.074   3.172 -0.25 +0.03    +0.052 C 
DOCKED: ATOM     15  C   UNL d   1       2.537 -12.499  -2.804 -0.17 +0.02    +0.066 A 
DOCKED: ATOM     16  C   UNL d   1       3.223 -11.853  -3.831 -0.27 -0.01    -0.021 A 
DOCKED: ATOM     17  C   UNL d   1       2.807 -12.450  -5.021 -0.29 +0.00    +0.000 A 
DOCKED: ATOM     18  C   UNL d   1       1.887 -13.431  -4.625 -0.22 +0.03    +0.070 A 
DOCKED: ATOM     19  C   UNL d   1       4.164 -10.698  -3.593 -0.40 +0.01    +0.052 C 
DOCKED: ATOM     20  C   UNL d   1       0.270 -15.289  -5.197 -0.21 +0.04    +0.066 A 
DOCKED: ATOM     21  C   UNL d   1      -0.340 -16.155  -6.101 -0.25 -0.02    -0.025 A 
DOCKED: ATOM     22  C   UNL d   1      -1.155 -16.981  -5.360 -0.15 -0.02    -0.021 A 
DOCKED: ATOM     23  C   UNL d   1      -1.026 -16.574  -4.028 -0.11 +0.07    +0.066 A 
DOCKED: ATOM     24  C   UNL d   1      -0.156 -16.191  -7.596 -0.22 +0.03    +0.051 C 
DOCKED: ATOM     25  N   UNL d   1      -0.920 -15.694  -1.183 -0.04 -0.22    -0.248 N 
DOCKED: ATOM     26  N   UNL d   1       0.963 -13.566  -0.550 -0.05 -0.12    -0.248 N 
DOCKED: ATOM     27  N   UNL d   1       1.679 -13.396  -3.284 -0.08 -0.11    -0.248 N 
DOCKED: ATOM     28  N   UNL d   1      -0.194 -15.517  -3.940 -0.07 -0.20    -0.248 N 
DOCKED: ATOM     29 FE   UNL d   1       0.382 -14.546  -2.259 -0.02 +0.00    +0.000 Fe
DOCKED: ATOM     30  O   UNL d   1      -0.870 -13.771  -1.754 -0.18 +0.00    +0.000 OA
DOCKED: ATOM     31  O   UNL d   1      -0.309 -13.492  -3.199 -0.22 +0.00    +0.000 OA
DOCKED: ENDROOT
DOCKED: BRANCH   6  32
DOCKED: ATOM     32  C   UNL d   1      -3.572 -18.250  -0.672 -0.03 +0.05    +0.052 C 
DOCKED: BRANCH  32  33
DOCKED: ATOM     33  C   UNL d   1      -4.943 -17.687  -0.312 -0.06 +0.13    +0.115 C 
DOCKED: BRANCH  33  34
DOCKED: ATOM     34  C   UNL d   1      -5.303 -16.476  -1.136 +0.02 +0.26    +0.139 C 
DOCKED: ATOM     35  O   UNL d   1      -4.820 -15.390  -0.856 -0.10 -1.54    -0.650 OA
DOCKED: BRANCH  34  36
DOCKED: ATOM     36  O   UNL d   1      -6.173 -16.557  -2.164 -0.22 -1.59    -0.776 OA
DOCKED: ATOM     37  H   UNL d   1      -6.062 -17.196  -2.877 +0.01 +0.28    +0.167 HD
DOCKED: ENDBRANCH  34  36
DOCKED: ENDBRANCH  33  34
DOCKED: ENDBRANCH  32  33
DOCKED: ENDBRANCH   6  32
DOCKED: BRANCH  22  38
DOCKED: ATOM     38  C   UNL d   1      -2.054 -18.055  -5.914 -0.15 +0.05    +0.052 C 
DOCKED: BRANCH  38  39
DOCKED: ATOM     39  C   UNL d   1      -3.343 -17.488  -6.506 -0.11 +0.16    +0.115 C 
DOCKED: BRANCH  39  40
DOCKED: ATOM     40  C   UNL d   1      -4.566 -17.906  -5.729 -0.17 +0.20    +0.139 C 
DOCKED: ATOM     41  O   UNL d   1      -5.535 -18.356  -6.320 -0.04 -0.97    -0.650 OA
DOCKED: BRANCH  40  42
DOCKED: ATOM     42  O   UNL d   1      -4.593 -17.839  -4.384 -0.03 -1.18    -0.776 OA
DOCKED: ATOM     43  H   UNL d   1      -5.058 -17.131  -3.923 +0.02 +0.36    +0.167 HD
DOCKED: ENDBRANCH  40  42
DOCKED: ENDBRANCH  39  40
DOCKED: ENDBRANCH  38  39
DOCKED: ENDBRANCH  22  38
DOCKED: BRANCH  12  44
DOCKED: ATOM     44  C   UNL d   1       3.118 -11.421   1.701 -0.35 +0.00    +0.004 C 
DOCKED: ATOM     45  C   UNL d   1       4.448 -11.407   1.621 -0.22 +0.00    +0.012 C 
DOCKED: ENDBRANCH  12  44
DOCKED: BRANCH  17  46
DOCKED: ATOM     46  C   UNL d   1       3.151 -12.143  -6.454 -0.31 +0.00    +0.004 C 
DOCKED: ATOM     47  C   UNL d   1       3.940 -12.837  -7.284 -0.53 +0.00    +0.012 C 
DOCKED: ENDBRANCH  17  46
DOCKED: TORSDOF 10
DOCKED: TER
DOCKED: ENDMDL
________________________________________________________________________________


	BEGINNING GENETIC ALGORITHM DOCKING 88 of 100
Run: 88 Seed: 970409415 836357667 [ Run 88 of 100 GA/GALS ]
Beginning LAMARCKIAN GENETIC ALGORITHM (LGA), with a maximum of 25000000 energy evaluations.

Final-Value: -11.013


	FINAL GENETIC ALGORITHM DOCKED STATE
	_______________________________________________


Detailed state:  trans -0.146 -14.985 0.089 quatxyzw 0.868126 0.336528 0.079593 -0.356049 center 8.287 34.468 -0.670 ntor 10 87.1576 -83.4637 49.9184 -37.7545 -143.7621 3.5508 -145.1971 67.9403 -4.9595 117.8757
State:	 -0.146 -14.985   0.089   0.929  0.360  0.085 -138.284     87.16  -83.46   49.92  -37.75 -143.76    3.55 -145.20   67.94   -4.96  117.88

DOCKED: MODEL       88
DOCKED: USER    Run = 88
DOCKED: USER    DPF = D:/Protein_go_brrr/autodock/final/AncA/heme_O2/dock.dpf
DOCKED: USER  
DOCKED: USER    Estimated Free Energy of Binding    =   -7.40 kcal/mol  [=(1)+(2)+(3)-(4)]
DOCKED: USER    Estimated Inhibition Constant, Ki   =    3.75 uM (micromolar)  [Temperature = 298.15 K]
DOCKED: USER    
DOCKED: USER    (1) Final Intermolecular Energy     =  -10.39 kcal/mol
DOCKED: USER        vdW + Hbond + desolv Energy     =   -6.29 kcal/mol
DOCKED: USER        Electrostatic Energy            =   -4.09 kcal/mol
DOCKED: USER    (2) Final Total Internal Energy     =   -0.63 kcal/mol
DOCKED: USER    (3) Torsional Free Energy           =   +2.98 kcal/mol
DOCKED: USER    (4) Unbound System's Energy  [=(2)] =   -0.63 kcal/mol
DOCKED: USER    
DOCKED: USER    
DOCKED: USER    NEWDPF move heme_O2_opt.pdbqt
DOCKED: USER    NEWDPF about 8.287000 34.468000 -0.670000
DOCKED: USER    NEWDPF tran0 -0.145635 -14.984657 0.088799
DOCKED: USER    NEWDPF quaternion0 0.868126 0.336528 0.079593 -0.356049
DOCKED: USER    NEWDPF axisangle0 0.929007 0.360128 0.085174 -138.284463
DOCKED: USER    NEWDPF quat0 0.929007 0.360128 0.085174 -138.284463
DOCKED: USER    NEWDPF dihe0 87.16 -83.46 49.92 -37.75 -143.76 3.55 -145.20 67.94 -4.96 117.88 
DOCKED: USER  keepresnum = 1 
DOCKED: USER  
DOCKED: REMARK  10 active torsions:
DOCKED: REMARK  status: ('A' for Active; 'I' for Inactive)
DOCKED: REMARK    1  A    between atoms: C_6  and  C_10 
DOCKED: REMARK    2  A    between atoms: C_10  and  C_11 
DOCKED: REMARK    3  A    between atoms: C_11  and  C_12 
DOCKED: REMARK    4  A    between atoms: C_12  and  O_14 
DOCKED: REMARK    5  A    between atoms: C_17  and  C_20 
DOCKED: REMARK    6  A    between atoms: C_24  and  C_27 
DOCKED: REMARK    7  A    between atoms: C_31  and  C_34 
DOCKED: REMARK    8  A    between atoms: C_34  and  C_35 
DOCKED: REMARK    9  A    between atoms: C_35  and  C_36 
DOCKED: REMARK   10  A    between atoms: C_36  and  O_38 
DOCKED: USER                              x       y       z     vdW  Elec       q    Type
DOCKED: USER                           _______ _______ _______ _____ _____    ______ ____
DOCKED: ROOT
DOCKED: ATOM      1  C   UNL d   1      -1.553 -16.045   1.270 -0.04 +0.06    +0.064 A 
DOCKED: ATOM      2  C   UNL d   1      -0.697 -15.967  -3.401 -0.10 +0.06    +0.064 A 
DOCKED: ATOM      3  C   UNL d   1       2.797 -12.723  -2.800 -0.17 +0.02    +0.064 C 
DOCKED: ATOM      4  C   UNL d   1       2.248 -13.151   2.056 -0.14 +0.02    +0.064 A 
DOCKED: ATOM      5  C   UNL d   1      -1.604 -16.289  -0.049 -0.08 +0.06    +0.066 A 
DOCKED: ATOM      6  C   UNL d   1      -2.513 -17.166  -0.648 -0.06 -0.02    -0.021 A 
DOCKED: ATOM      7  C   UNL d   1      -2.238 -17.177  -1.996 -0.06 -0.03    -0.025 A 
DOCKED: ATOM      8  C   UNL d   1      -1.200 -16.270  -2.189 -0.07 +0.07    +0.066 A 
DOCKED: ATOM      9  C   UNL d   1      -2.937 -18.051  -3.015 -0.07 +0.06    +0.051 C 
DOCKED: ATOM     10  C   UNL d   1       0.375 -15.007  -3.669 -0.11 +0.04    +0.066 A 
DOCKED: ATOM     11  C   UNL d   1       0.747 -14.608  -4.958 -0.24 -0.01    -0.021 A 
DOCKED: ATOM     12  C   UNL d   1       1.741 -13.660  -4.805 -0.26 +0.00    +0.000 A 
DOCKED: ATOM     13  C   UNL d   1       1.932 -13.540  -3.401 -0.13 +0.03    +0.070 A 
DOCKED: ATOM     14  C   UNL d   1       0.159 -15.092  -6.279 -0.36 +0.03    +0.052 C 
DOCKED: ATOM     15  C   UNL d   1       3.046 -12.597  -1.384 -0.13 +0.02    +0.066 A 
DOCKED: ATOM     16  C   UNL d   1       4.079 -11.844  -0.827 -0.23 -0.00    -0.021 A 
DOCKED: ATOM     17  C   UNL d   1       3.943 -11.952   0.557 -0.21 +0.00    +0.000 A 
DOCKED: ATOM     18  C   UNL d   1       2.821 -12.772   0.743 -0.14 +0.02    +0.070 A 
DOCKED: ATOM     19  C   UNL d   1       5.125 -11.142  -1.656 -0.26 +0.00    +0.052 C 
DOCKED: ATOM     20  C   UNL d   1       1.200 -13.970   2.270 -0.13 +0.03    +0.066 A 
DOCKED: ATOM     21  C   UNL d   1       0.694 -14.276   3.531 -0.15 -0.01    -0.025 A 
DOCKED: ATOM     22  C   UNL d   1      -0.406 -15.078   3.325 -0.12 -0.02    -0.021 A 
DOCKED: ATOM     23  C   UNL d   1      -0.520 -15.247   1.941 -0.08 +0.05    +0.066 A 
DOCKED: ATOM     24  C   UNL d   1       1.236 -13.830   4.864 -0.19 +0.03    +0.051 C 
DOCKED: ATOM     25  N   UNL d   1      -0.767 -15.773  -0.982 -0.03 -0.21    -0.248 N 
DOCKED: ATOM     26  N   UNL d   1       1.101 -14.367  -2.717 -0.04 -0.13    -0.248 N 
DOCKED: ATOM     27  N   UNL d   1       2.335 -13.215  -0.445 -0.05 -0.08    -0.248 N 
DOCKED: ATOM     28  N   UNL d   1       0.484 -14.608   1.307 -0.07 -0.14    -0.248 N 
DOCKED: ATOM     29 FE   UNL d   1       0.793 -14.487  -0.690 -0.02 +0.00    +0.000 Fe
DOCKED: ATOM     30  O   UNL d   1       1.228 -15.908  -1.150 -0.03 +0.00    +0.000 OA
DOCKED: ATOM     31  O   UNL d   1       2.070 -15.150  -0.055 -0.04 +0.00    +0.000 OA
DOCKED: ENDROOT
DOCKED: BRANCH   6  32
DOCKED: ATOM     32  C   UNL d   1      -3.513 -18.066   0.032 -0.04 +0.05    +0.052 C 
DOCKED: BRANCH  32  33
DOCKED: ATOM     33  C   UNL d   1      -4.765 -17.322   0.487 -0.07 +0.15    +0.115 C 
DOCKED: BRANCH  33  34
DOCKED: ATOM     34  C   UNL d   1      -5.122 -16.180  -0.432 -0.11 +0.25    +0.139 C 
DOCKED: ATOM     35  O   UNL d   1      -5.459 -16.414  -1.582 -0.13 -1.46    -0.650 OA
DOCKED: BRANCH  34  36
DOCKED: ATOM     36  O   UNL d   1      -5.050 -14.897  -0.020 -0.45 -1.84    -0.776 OA
DOCKED: ATOM     37  H   UNL d   1      -4.236 -14.385  -0.085 +0.02 +0.36    +0.167 HD
DOCKED: ENDBRANCH  34  36
DOCKED: ENDBRANCH  33  34
DOCKED: ENDBRANCH  32  33
DOCKED: ENDBRANCH   6  32
DOCKED: BRANCH  22  38
DOCKED: ATOM     38  C   UNL d   1      -1.256 -15.697   4.404 -0.05 +0.04    +0.052 C 
DOCKED: BRANCH  38  39
DOCKED: ATOM     39  C   UNL d   1      -1.676 -17.125   4.066 -0.07 +0.08    +0.115 C 
DOCKED: BRANCH  39  40
DOCKED: ATOM     40  C   UNL d   1      -3.162 -17.251   3.840 -0.04 +0.16    +0.139 C 
DOCKED: ATOM     41  O   UNL d   1      -3.587 -18.075   3.045 -0.04 -0.62    -0.650 OA
DOCKED: BRANCH  40  42
DOCKED: ATOM     42  O   UNL d   1      -4.038 -16.503   4.538 -0.27 -1.42    -0.776 OA
DOCKED: ATOM     43  H   UNL d   1      -4.304 -16.742   5.434 +0.01 +0.19    +0.167 HD
DOCKED: ENDBRANCH  40  42
DOCKED: ENDBRANCH  39  40
DOCKED: ENDBRANCH  38  39
DOCKED: ENDBRANCH  22  38
DOCKED: BRANCH  12  44
DOCKED: ATOM     44  C   UNL d   1       2.395 -12.983  -5.991 -0.31 +0.00    +0.004 C 
DOCKED: ATOM     45  C   UNL d   1       3.694 -12.768  -6.198 -0.48 +0.00    +0.012 C 
DOCKED: ENDBRANCH  12  44
DOCKED: BRANCH  17  46
DOCKED: ATOM     46  C   UNL d   1       4.790 -11.412   1.678 -0.22 +0.00    +0.004 C 
DOCKED: ATOM     47  C   UNL d   1       6.125 -11.417   1.785 -0.22 +0.00    +0.012 C 
DOCKED: ENDBRANCH  17  46
DOCKED: TORSDOF 10
DOCKED: TER
DOCKED: ENDMDL
________________________________________________________________________________


	BEGINNING GENETIC ALGORITHM DOCKING 89 of 100
Run: 89 Seed: 946486406 541020321 [ Run 89 of 100 GA/GALS ]
Beginning LAMARCKIAN GENETIC ALGORITHM (LGA), with a maximum of 25000000 energy evaluations.

Final-Value: -18.327


	FINAL GENETIC ALGORITHM DOCKED STATE
	_______________________________________________


Detailed state:  trans -4.671 -8.533 -3.227 quatxyzw -0.118339 -0.435666 -0.723596 0.522111 center 8.287 34.468 -0.670 ntor 10 168.8419 116.5495 23.6833 -20.8875 91.4202 -114.8655 -16.6795 21.6813 14.3808 133.5585
State:	 -4.671  -8.533  -3.227  -0.139 -0.511 -0.848 117.052    168.84  116.55   23.68  -20.89   91.42 -114.87  -16.68   21.68   14.38  133.56

DOCKED: MODEL       89
DOCKED: USER    Run = 89
DOCKED: USER    DPF = D:/Protein_go_brrr/autodock/final/AncA/heme_O2/dock.dpf
DOCKED: USER  
DOCKED: USER    Estimated Free Energy of Binding    =  -14.92 kcal/mol  [=(1)+(2)+(3)-(4)]
DOCKED: USER    Estimated Inhibition Constant, Ki   =   11.61 pM (picomolar)  [Temperature = 298.15 K]
DOCKED: USER    
DOCKED: USER    (1) Final Intermolecular Energy     =  -17.90 kcal/mol
DOCKED: USER        vdW + Hbond + desolv Energy     =  -14.64 kcal/mol
DOCKED: USER        Electrostatic Energy            =   -3.26 kcal/mol
DOCKED: USER    (2) Final Total Internal Energy     =   -0.43 kcal/mol
DOCKED: USER    (3) Torsional Free Energy           =   +2.98 kcal/mol
DOCKED: USER    (4) Unbound System's Energy  [=(2)] =   -0.43 kcal/mol
DOCKED: USER    
DOCKED: USER    
DOCKED: USER    NEWDPF move heme_O2_opt.pdbqt
DOCKED: USER    NEWDPF about 8.287000 34.468000 -0.670000
DOCKED: USER    NEWDPF tran0 -4.671225 -8.532636 -3.226556
DOCKED: USER    NEWDPF quaternion0 -0.118339 -0.435666 -0.723596 0.522111
DOCKED: USER    NEWDPF axisangle0 -0.138753 -0.510819 -0.848417 117.052024
DOCKED: USER    NEWDPF quat0 -0.138753 -0.510819 -0.848417 117.052024
DOCKED: USER    NEWDPF dihe0 168.84 116.55 23.68 -20.89 91.42 -114.87 -16.68 21.68 14.38 133.56 
DOCKED: USER  keepresnum = 1 
DOCKED: USER  
DOCKED: REMARK  10 active torsions:
DOCKED: REMARK  status: ('A' for Active; 'I' for Inactive)
DOCKED: REMARK    1  A    between atoms: C_6  and  C_10 
DOCKED: REMARK    2  A    between atoms: C_10  and  C_11 
DOCKED: REMARK    3  A    between atoms: C_11  and  C_12 
DOCKED: REMARK    4  A    between atoms: C_12  and  O_14 
DOCKED: REMARK    5  A    between atoms: C_17  and  C_20 
DOCKED: REMARK    6  A    between atoms: C_24  and  C_27 
DOCKED: REMARK    7  A    between atoms: C_31  and  C_34 
DOCKED: REMARK    8  A    between atoms: C_34  and  C_35 
DOCKED: REMARK    9  A    between atoms: C_35  and  C_36 
DOCKED: REMARK   10  A    between atoms: C_36  and  O_38 
DOCKED: USER                              x       y       z     vdW  Elec       q    Type
DOCKED: USER                           _______ _______ _______ _____ _____    ______ ____
DOCKED: ROOT
DOCKED: ATOM      1  C   UNL d   1      -4.767 -10.589  -2.716 -0.34 +0.05    +0.064 A 
DOCKED: ATOM      2  C   UNL d   1      -1.168  -7.496  -2.910 -0.36 +0.02    +0.064 A 
DOCKED: ATOM      3  C   UNL d   1      -4.126  -4.005  -4.377 -0.31 +0.01    +0.064 C 
DOCKED: ATOM      4  C   UNL d   1      -7.915  -7.051  -3.723 -0.40 +0.02    +0.064 A 
DOCKED: ATOM      5  C   UNL d   1      -3.547 -10.032  -2.647 -0.34 +0.04    +0.066 A 
DOCKED: ATOM      6  C   UNL d   1      -2.390 -10.725  -2.280 -0.31 -0.01    -0.021 A 
DOCKED: ATOM      7  C   UNL d   1      -1.354  -9.820  -2.294 -0.33 -0.01    -0.025 A 
DOCKED: ATOM      8  C   UNL d   1      -1.899  -8.611  -2.716 -0.39 +0.02    +0.066 A 
DOCKED: ATOM      9  C   UNL d   1       0.070 -10.128  -1.886 -0.18 +0.01    +0.051 C 
DOCKED: ATOM     10  C   UNL d   1      -1.679  -6.205  -3.373 -0.43 +0.01    +0.066 A 
DOCKED: ATOM     11  C   UNL d   1      -0.853  -5.128  -3.714 -0.46 -0.00    -0.021 A 
DOCKED: ATOM     12  C   UNL d   1      -1.686  -4.118  -4.157 -0.37 +0.00    +0.000 A 
DOCKED: ATOM     13  C   UNL d   1      -3.004  -4.643  -4.047 -0.38 +0.01    +0.070 A 
DOCKED: ATOM     14  C   UNL d   1       0.669  -5.075  -3.646 -0.58 +0.01    +0.052 C 
DOCKED: ATOM     15  C   UNL d   1      -5.480  -4.488  -4.248 -0.37 +0.01    +0.066 A 
DOCKED: ATOM     16  C   UNL d   1      -6.619  -3.712  -4.457 -0.48 -0.00    -0.021 A 
DOCKED: ATOM     17  C   UNL d   1      -7.712  -4.559  -4.275 -0.49 +0.00    +0.000 A 
DOCKED: ATOM     18  C   UNL d   1      -7.149  -5.806  -3.967 -0.41 +0.02    +0.070 A 
DOCKED: ATOM     19  C   UNL d   1      -6.566  -2.234  -4.754 -0.55 +0.00    +0.052 C 
DOCKED: ATOM     20  C   UNL d   1      -7.409  -8.253  -3.382 -0.37 +0.02    +0.066 A 
DOCKED: ATOM     21  C   UNL d   1      -8.179  -9.395  -3.183 -0.31 -0.01    -0.025 A 
DOCKED: ATOM     22  C   UNL d   1      -7.297 -10.419  -2.922 +0.22 -0.01    -0.021 A 
DOCKED: ATOM     23  C   UNL d   1      -6.017  -9.858  -2.954 -0.02 +0.04    +0.066 A 
DOCKED: ATOM     24  C   UNL d   1      -9.681  -9.503  -3.234 -0.49 +0.01    +0.051 C 
DOCKED: ATOM     25  N   UNL d   1      -3.261  -8.726  -2.870 -0.20 -0.10    -0.248 N 
DOCKED: ATOM     26  N   UNL d   1      -2.990  -5.912  -3.565 -0.26 -0.05    -0.248 N 
DOCKED: ATOM     27  N   UNL d   1      -5.797  -5.726  -3.881 -0.24 -0.07    -0.248 N 
DOCKED: ATOM     28  N   UNL d   1      -6.093  -8.532  -3.190 -0.10 -0.13    -0.248 N 
DOCKED: ATOM     29 FE   UNL d   1      -4.555  -7.229  -3.376 -0.09 +0.00    +0.000 Fe
DOCKED: ATOM     30  O   UNL d   1      -3.941  -7.075  -1.954 -0.33 +0.00    +0.000 OA
DOCKED: ATOM     31  O   UNL d   1      -5.458  -6.726  -2.192 -0.70 +0.00    +0.000 OA
DOCKED: ENDROOT
DOCKED: BRANCH   6  32
DOCKED: ATOM     32  C   UNL d   1      -2.280 -12.149  -1.800 -0.31 +0.05    +0.052 C 
DOCKED: BRANCH  32  33
DOCKED: ATOM     33  C   UNL d   1      -1.872 -13.117  -2.907 -0.17 +0.15    +0.115 C 
DOCKED: BRANCH  33  34
DOCKED: ATOM     34  C   UNL d   1      -1.328 -14.415  -2.364 -0.13 +0.17    +0.139 C 
DOCKED: ATOM     35  O   UNL d   1      -0.342 -14.402  -1.644 +0.03 -0.51    -0.650 OA
DOCKED: BRANCH  34  36
DOCKED: ATOM     36  O   UNL d   1      -1.890 -15.600  -2.679 -0.27 -1.33    -0.776 OA
DOCKED: ATOM     37  H   UNL d   1      -1.465 -16.440  -2.468 +0.02 +0.20    +0.167 HD
DOCKED: ENDBRANCH  34  36
DOCKED: ENDBRANCH  33  34
DOCKED: ENDBRANCH  32  33
DOCKED: ENDBRANCH   6  32
DOCKED: BRANCH  22  38
DOCKED: ATOM     38  C   UNL d   1      -7.673 -11.842  -2.596 -0.26 +0.04    +0.052 C 
DOCKED: BRANCH  38  39
DOCKED: ATOM     39  C   UNL d   1      -7.074 -12.314  -1.273 -0.22 +0.11    +0.115 C 
DOCKED: BRANCH  39  40
DOCKED: ATOM     40  C   UNL d   1      -7.015 -13.818  -1.172 -0.17 +0.19    +0.139 C 
DOCKED: ATOM     41  O   UNL d   1      -6.888 -14.489  -2.183 -0.30 -1.31    -0.650 OA
DOCKED: BRANCH  40  42
DOCKED: ATOM     42  O   UNL d   1      -7.049 -14.436   0.024 -0.05 -1.15    -0.776 OA
DOCKED: ATOM     43  H   UNL d   1      -7.752 -15.056   0.253 +0.04 +0.19    +0.167 HD
DOCKED: ENDBRANCH  40  42
DOCKED: ENDBRANCH  39  40
DOCKED: ENDBRANCH  38  39
DOCKED: ENDBRANCH  22  38
DOCKED: BRANCH  12  44
DOCKED: ATOM     44  C   UNL d   1      -1.150  -2.781  -4.626 -0.51 +0.00    +0.004 C 
DOCKED: ATOM     45  C   UNL d   1      -1.809  -1.629  -4.738 -0.65 +0.00    +0.012 C 
DOCKED: ENDBRANCH  12  44
DOCKED: BRANCH  17  46
DOCKED: ATOM     46  C   UNL d   1      -9.192  -4.285  -4.309 -0.60 +0.00    +0.004 C 
DOCKED: ATOM     47  C   UNL d   1      -9.829  -3.140  -4.031 -0.70 +0.00    +0.012 C 
DOCKED: ENDBRANCH  17  46
DOCKED: TORSDOF 10
DOCKED: TER
DOCKED: ENDMDL
________________________________________________________________________________


	BEGINNING GENETIC ALGORITHM DOCKING 90 of 100
Run: 90 Seed: 974488481 1220100136 [ Run 90 of 100 GA/GALS ]
Beginning LAMARCKIAN GENETIC ALGORITHM (LGA), with a maximum of 25000000 energy evaluations.

Final-Value: -12.076


	FINAL GENETIC ALGORITHM DOCKED STATE
	_______________________________________________


Detailed state:  trans -0.333 -15.668 -2.527 quatxyzw 0.428557 0.018840 -0.389447 0.815055 center 8.287 34.468 -0.670 ntor 10 -35.5351 -128.8517 -44.5235 114.2323 -93.1089 151.8189 136.7911 32.5390 -163.8950 175.5058
State:	 -0.333 -15.668  -2.527   0.740  0.033 -0.672 70.814    -35.54 -128.85  -44.52  114.23  -93.11  151.82  136.79   32.54 -163.90  175.51

DOCKED: MODEL       90
DOCKED: USER    Run = 90
DOCKED: USER    DPF = D:/Protein_go_brrr/autodock/final/AncA/heme_O2/dock.dpf
DOCKED: USER  
DOCKED: USER    Estimated Free Energy of Binding    =   -8.49 kcal/mol  [=(1)+(2)+(3)-(4)]
DOCKED: USER    Estimated Inhibition Constant, Ki   =  601.40 nM (nanomolar)  [Temperature = 298.15 K]
DOCKED: USER    
DOCKED: USER    (1) Final Intermolecular Energy     =  -11.47 kcal/mol
DOCKED: USER        vdW + Hbond + desolv Energy     =   -7.14 kcal/mol
DOCKED: USER        Electrostatic Energy            =   -4.33 kcal/mol
DOCKED: USER    (2) Final Total Internal Energy     =   -0.61 kcal/mol
DOCKED: USER    (3) Torsional Free Energy           =   +2.98 kcal/mol
DOCKED: USER    (4) Unbound System's Energy  [=(2)] =   -0.61 kcal/mol
DOCKED: USER    
DOCKED: USER    
DOCKED: USER    NEWDPF move heme_O2_opt.pdbqt
DOCKED: USER    NEWDPF about 8.287000 34.468000 -0.670000
DOCKED: USER    NEWDPF tran0 -0.332586 -15.667666 -2.527056
DOCKED: USER    NEWDPF quaternion0 0.428557 0.018840 -0.389447 0.815055
DOCKED: USER    NEWDPF axisangle0 0.739678 0.032518 -0.672175 70.814436
DOCKED: USER    NEWDPF quat0 0.739678 0.032518 -0.672175 70.814436
DOCKED: USER    NEWDPF dihe0 -35.54 -128.85 -44.52 114.23 -93.11 151.82 136.79 32.54 -163.90 175.51 
DOCKED: USER  keepresnum = 1 
DOCKED: USER  
DOCKED: REMARK  10 active torsions:
DOCKED: REMARK  status: ('A' for Active; 'I' for Inactive)
DOCKED: REMARK    1  A    between atoms: C_6  and  C_10 
DOCKED: REMARK    2  A    between atoms: C_10  and  C_11 
DOCKED: REMARK    3  A    between atoms: C_11  and  C_12 
DOCKED: REMARK    4  A    between atoms: C_12  and  O_14 
DOCKED: REMARK    5  A    between atoms: C_17  and  C_20 
DOCKED: REMARK    6  A    between atoms: C_24  and  C_27 
DOCKED: REMARK    7  A    between atoms: C_31  and  C_34 
DOCKED: REMARK    8  A    between atoms: C_34  and  C_35 
DOCKED: REMARK    9  A    between atoms: C_35  and  C_36 
DOCKED: REMARK   10  A    between atoms: C_36  and  O_38 
DOCKED: USER                              x       y       z     vdW  Elec       q    Type
DOCKED: USER                           _______ _______ _______ _____ _____    ______ ____
DOCKED: ROOT
DOCKED: ATOM      1  C   UNL d   1      -1.715 -17.234  -2.895 -0.07 +0.07    +0.064 A 
DOCKED: ATOM      2  C   UNL d   1      -0.561 -14.832   1.036 -0.10 +0.05    +0.064 A 
DOCKED: ATOM      3  C   UNL d   1       2.694 -12.253  -1.383 -0.20 +0.02    +0.064 C 
DOCKED: ATOM      4  C   UNL d   1       1.179 -14.386  -5.533 -0.28 +0.03    +0.064 A 
DOCKED: ATOM      5  C   UNL d   1      -1.668 -16.790  -1.629 -0.06 +0.07    +0.066 A 
DOCKED: ATOM      6  C   UNL d   1      -2.450 -17.302  -0.590 -0.05 -0.02    -0.021 A 
DOCKED: ATOM      7  C   UNL d   1      -2.148 -16.578   0.540 -0.09 -0.03    -0.025 A 
DOCKED: ATOM      8  C   UNL d   1      -1.155 -15.676   0.170 -0.09 +0.06    +0.066 A 
DOCKED: ATOM      9  C   UNL d   1      -2.821 -16.751   1.884 +0.15 +0.07    +0.051 C 
DOCKED: ATOM     10  C   UNL d   1       0.502 -13.879   0.713 -0.13 +0.04    +0.066 A 
DOCKED: ATOM     11  C   UNL d   1       1.196 -13.143   1.680 -0.20 -0.01    -0.021 A 
DOCKED: ATOM     12  C   UNL d   1       2.151 -12.407   1.004 -0.25 +0.00    +0.000 A 
DOCKED: ATOM     13  C   UNL d   1       1.973 -12.733  -0.369 -0.15 +0.02    +0.070 A 
DOCKED: ATOM     14  C   UNL d   1       0.976 -13.163   3.188 -0.25 +0.03    +0.052 C 
DOCKED: ATOM     15  C   UNL d   1       2.523 -12.531  -2.789 -0.16 +0.02    +0.066 A 
DOCKED: ATOM     16  C   UNL d   1       3.201 -11.872  -3.813 -0.27 -0.01    -0.021 A 
DOCKED: ATOM     17  C   UNL d   1       2.785 -12.463  -5.006 -0.29 +0.00    +0.000 A 
DOCKED: ATOM     18  C   UNL d   1       1.872 -13.453  -4.614 -0.22 +0.03    +0.070 A 
DOCKED: ATOM     19  C   UNL d   1       4.134 -10.713  -3.569 -0.39 +0.01    +0.052 C 
DOCKED: ATOM     20  C   UNL d   1       0.266 -15.318  -5.195 -0.21 +0.04    +0.066 A 
DOCKED: ATOM     21  C   UNL d   1      -0.341 -16.181  -6.103 -0.25 -0.02    -0.025 A 
DOCKED: ATOM     22  C   UNL d   1      -1.148 -17.018  -5.366 -0.15 -0.02    -0.021 A 
DOCKED: ATOM     23  C   UNL d   1      -1.017 -16.621  -4.032 -0.10 +0.07    +0.066 A 
DOCKED: ATOM     24  C   UNL d   1      -0.162 -16.204  -7.599 -0.23 +0.03    +0.051 C 
DOCKED: ATOM     25  N   UNL d   1      -0.906 -15.762  -1.180 -0.04 -0.22    -0.248 N 
DOCKED: ATOM     26  N   UNL d   1       0.964 -13.626  -0.538 -0.05 -0.12    -0.248 N 
DOCKED: ATOM     27  N   UNL d   1       1.669 -13.430  -3.272 -0.08 -0.11    -0.248 N 
DOCKED: ATOM     28  N   UNL d   1      -0.192 -15.558  -3.938 -0.07 -0.20    -0.248 N 
DOCKED: ATOM     29 FE   UNL d   1       0.384 -14.597  -2.252 -0.02 +0.00    +0.000 Fe
DOCKED: ATOM     30  O   UNL d   1      -0.871 -13.834  -1.736 -0.17 +0.00    +0.000 OA
DOCKED: ATOM     31  O   UNL d   1      -0.317 -13.540  -3.181 -0.22 +0.00    +0.000 OA
DOCKED: ENDROOT
DOCKED: BRANCH   6  32
DOCKED: ATOM     32  C   UNL d   1      -3.540 -18.339  -0.680 -0.03 +0.05    +0.052 C 
DOCKED: BRANCH  32  33
DOCKED: ATOM     33  C   UNL d   1      -4.865 -17.765  -1.171 -0.06 +0.14    +0.115 C 
DOCKED: BRANCH  33  34
DOCKED: ATOM     34  C   UNL d   1      -5.218 -16.467  -0.486 -0.10 +0.23    +0.139 C 
DOCKED: ATOM     35  O   UNL d   1      -5.289 -15.440  -1.141 -0.18 -1.61    -0.650 OA
DOCKED: BRANCH  34  36
DOCKED: ATOM     36  O   UNL d   1      -5.431 -16.409   0.845 -0.26 -1.55    -0.776 OA
DOCKED: ATOM     37  H   UNL d   1      -5.852 -17.131   1.327 +0.01 +0.24    +0.167 HD
DOCKED: ENDBRANCH  34  36
DOCKED: ENDBRANCH  33  34
DOCKED: ENDBRANCH  32  33
DOCKED: ENDBRANCH   6  32
DOCKED: BRANCH  22  38
DOCKED: ATOM     38  C   UNL d   1      -2.042 -18.094  -5.926 -0.15 +0.05    +0.052 C 
DOCKED: BRANCH  38  39
DOCKED: ATOM     39  C   UNL d   1      -3.380 -17.543  -6.416 -0.11 +0.16    +0.115 C 
DOCKED: BRANCH  39  40
DOCKED: ATOM     40  C   UNL d   1      -4.503 -18.537  -6.262 -0.17 +0.21    +0.139 C 
DOCKED: ATOM     41  O   UNL d   1      -4.474 -19.586  -6.886 -0.00 -1.34    -0.650 OA
DOCKED: BRANCH  40  42
DOCKED: ATOM     42  O   UNL d   1      -5.519 -18.312  -5.407 -0.00 -1.00    -0.776 OA
DOCKED: ATOM     43  H   UNL d   1      -5.763 -18.957  -4.732 +0.03 +0.17    +0.167 HD
DOCKED: ENDBRANCH  40  42
DOCKED: ENDBRANCH  39  40
DOCKED: ENDBRANCH  38  39
DOCKED: ENDBRANCH  22  38
DOCKED: BRANCH  12  44
DOCKED: ATOM     44  C   UNL d   1       3.113 -11.484   1.723 -0.34 +0.00    +0.004 C 
DOCKED: ATOM     45  C   UNL d   1       4.436 -11.412   1.584 -0.23 +0.00    +0.012 C 
DOCKED: ENDBRANCH  12  44
DOCKED: BRANCH  17  46
DOCKED: ATOM     46  C   UNL d   1       3.121 -12.142  -6.438 -0.31 +0.00    +0.004 C 
DOCKED: ATOM     47  C   UNL d   1       3.896 -12.835  -7.282 -0.53 +0.00    +0.012 C 
DOCKED: ENDBRANCH  17  46
DOCKED: TORSDOF 10
DOCKED: TER
DOCKED: ENDMDL
________________________________________________________________________________


	BEGINNING GENETIC ALGORITHM DOCKING 91 of 100
Run: 91 Seed: 672373344 13092918 [ Run 91 of 100 GA/GALS ]
Beginning LAMARCKIAN GENETIC ALGORITHM (LGA), with a maximum of 25000000 energy evaluations.

Final-Value: -11.288


	FINAL GENETIC ALGORITHM DOCKED STATE
	_______________________________________________


Detailed state:  trans -9.600 -17.393 -4.962 quatxyzw 0.254716 0.941045 0.015604 -0.222059 center 8.287 34.468 -0.670 ntor 10 -144.2876 33.7376 59.8048 -103.9764 -7.8043 179.9250 -55.1778 -22.9804 -164.4757 120.0737
State:	 -9.600 -17.393  -4.962   0.261  0.965  0.016 -154.340   -144.29   33.74   59.80 -103.98   -7.80  179.93  -55.18  -22.98 -164.48  120.07

DOCKED: MODEL       91
DOCKED: USER    Run = 91
DOCKED: USER    DPF = D:/Protein_go_brrr/autodock/final/AncA/heme_O2/dock.dpf
DOCKED: USER  
DOCKED: USER    Estimated Free Energy of Binding    =   -6.20 kcal/mol  [=(1)+(2)+(3)-(4)]
DOCKED: USER    Estimated Inhibition Constant, Ki   =   28.56 uM (micromolar)  [Temperature = 298.15 K]
DOCKED: USER    
DOCKED: USER    (1) Final Intermolecular Energy     =   -9.18 kcal/mol
DOCKED: USER        vdW + Hbond + desolv Energy     =   -5.52 kcal/mol
DOCKED: USER        Electrostatic Energy            =   -3.66 kcal/mol
DOCKED: USER    (2) Final Total Internal Energy     =   -2.11 kcal/mol
DOCKED: USER    (3) Torsional Free Energy           =   +2.98 kcal/mol
DOCKED: USER    (4) Unbound System's Energy  [=(2)] =   -2.11 kcal/mol
DOCKED: USER    
DOCKED: USER    
DOCKED: USER    NEWDPF move heme_O2_opt.pdbqt
DOCKED: USER    NEWDPF about 8.287000 34.468000 -0.670000
DOCKED: USER    NEWDPF tran0 -9.599536 -17.392765 -4.961795
DOCKED: USER    NEWDPF quaternion0 0.254716 0.941045 0.015604 -0.222059
DOCKED: USER    NEWDPF axisangle0 0.261239 0.965142 0.016004 -154.339954
DOCKED: USER    NEWDPF quat0 0.261239 0.965142 0.016004 -154.339954
DOCKED: USER    NEWDPF dihe0 -144.29 33.74 59.80 -103.98 -7.80 179.93 -55.18 -22.98 -164.48 120.07 
DOCKED: USER  keepresnum = 1 
DOCKED: USER  
DOCKED: REMARK  10 active torsions:
DOCKED: REMARK  status: ('A' for Active; 'I' for Inactive)
DOCKED: REMARK    1  A    between atoms: C_6  and  C_10 
DOCKED: REMARK    2  A    between atoms: C_10  and  C_11 
DOCKED: REMARK    3  A    between atoms: C_11  and  C_12 
DOCKED: REMARK    4  A    between atoms: C_12  and  O_14 
DOCKED: REMARK    5  A    between atoms: C_17  and  C_20 
DOCKED: REMARK    6  A    between atoms: C_24  and  C_27 
DOCKED: REMARK    7  A    between atoms: C_31  and  C_34 
DOCKED: REMARK    8  A    between atoms: C_34  and  C_35 
DOCKED: REMARK    9  A    between atoms: C_35  and  C_36 
DOCKED: REMARK   10  A    between atoms: C_36  and  O_38 
DOCKED: USER                              x       y       z     vdW  Elec       q    Type
DOCKED: USER                           _______ _______ _______ _____ _____    ______ ____
DOCKED: ROOT
DOCKED: ATOM      1  C   UNL d   1      -8.213 -17.712  -3.389 -0.07 +0.05    +0.064 A 
DOCKED: ATOM      2  C   UNL d   1      -8.829 -19.822  -7.599 -0.12 +0.05    +0.064 A 
DOCKED: ATOM      3  C   UNL d   1     -12.578 -16.980  -8.578 -0.13 +0.01    +0.064 C 
DOCKED: ATOM      4  C   UNL d   1     -11.657 -14.482  -4.458 +0.04 +0.02    +0.064 A 
DOCKED: ATOM      5  C   UNL d   1      -8.073 -18.516  -4.454 -0.07 +0.05    +0.066 A 
DOCKED: ATOM      6  C   UNL d   1      -7.103 -19.517  -4.558 -0.06 -0.02    -0.021 A 
DOCKED: ATOM      7  C   UNL d   1      -7.252 -20.100  -5.795 -0.09 -0.02    -0.025 A 
DOCKED: ATOM      8  C   UNL d   1      -8.342 -19.472  -6.393 -0.11 +0.05    +0.066 A 
DOCKED: ATOM      9  C   UNL d   1      -6.357 -21.183  -6.355 -0.05 +0.06    +0.051 C 
DOCKED: ATOM     10  C   UNL d   1      -9.982 -19.217  -8.266 -0.14 +0.04    +0.066 A 
DOCKED: ATOM     11  C   UNL d   1     -10.546 -19.726  -9.441 -0.11 -0.01    -0.021 A 
DOCKED: ATOM     12  C   UNL d   1     -11.639 -18.931  -9.730 -0.12 +0.00    +0.000 A 
DOCKED: ATOM     13  C   UNL d   1     -11.674 -17.952  -8.699 -0.15 +0.02    +0.070 A 
DOCKED: ATOM     14  C   UNL d   1     -10.078 -20.937 -10.240 -0.08 +0.03    +0.052 C 
DOCKED: ATOM     15  C   UNL d   1     -12.628 -15.949  -7.570 -0.13 +0.01    +0.066 A 
DOCKED: ATOM     16  C   UNL d   1     -13.503 -14.863  -7.592 -0.17 -0.00    -0.021 A 
DOCKED: ATOM     17  C   UNL d   1     -13.258 -14.136  -6.427 -0.20 +0.00    +0.000 A 
DOCKED: ATOM     18  C   UNL d   1     -12.240 -14.844  -5.772 -0.16 +0.02    +0.070 A 
DOCKED: ATOM     19  C   UNL d   1     -14.445 -14.589  -8.736 -0.16 +0.01    +0.052 C 
DOCKED: ATOM     20  C   UNL d   1     -10.651 -15.113  -3.823 +0.00 +0.03    +0.066 A 
DOCKED: ATOM     21  C   UNL d   1     -10.157 -14.736  -2.577 -0.12 -0.01    -0.025 A 
DOCKED: ATOM     22  C   UNL d   1      -9.193 -15.662  -2.244 -0.09 -0.01    -0.021 A 
DOCKED: ATOM     23  C   UNL d   1      -9.122 -16.562  -3.312 -0.08 +0.04    +0.066 A 
DOCKED: ATOM     24  C   UNL d   1     -10.580 -13.551  -1.748 -0.18 +0.02    +0.051 C 
DOCKED: ATOM     25  N   UNL d   1      -8.806 -18.453  -5.594 -0.06 -0.16    -0.248 N 
DOCKED: ATOM     26  N   UNL d   1     -10.660 -18.130  -7.815 -0.12 -0.11    -0.248 N 
DOCKED: ATOM     27  N   UNL d   1     -11.818 -15.898  -6.516 -0.13 -0.06    -0.248 N 
DOCKED: ATOM     28  N   UNL d   1      -9.979 -16.199  -4.289 -0.06 -0.13    -0.248 N 
DOCKED: ATOM     29 FE   UNL d   1     -10.318 -17.156  -6.040 -0.03 +0.00    +0.000 Fe
DOCKED: ATOM     30  O   UNL d   1      -9.040 -16.950  -6.903 -0.35 +0.00    +0.000 OA
DOCKED: ATOM     31  O   UNL d   1      -9.841 -15.697  -6.384 -0.31 +0.00    +0.000 OA
DOCKED: ENDROOT
DOCKED: BRANCH   6  32
DOCKED: ATOM     32  C   UNL d   1      -5.987 -19.824  -3.593 -0.03 +0.04    +0.052 C 
DOCKED: BRANCH  32  33
DOCKED: ATOM     33  C   UNL d   1      -4.790 -18.893  -3.755 -0.07 +0.12    +0.115 C 
DOCKED: BRANCH  33  34
DOCKED: ATOM     34  C   UNL d   1      -4.454 -18.160  -2.480 -0.05 +0.18    +0.139 C 
DOCKED: ATOM     35  O   UNL d   1      -3.807 -17.126  -2.530 -0.15 -1.36    -0.650 OA
DOCKED: BRANCH  34  36
DOCKED: ATOM     36  O   UNL d   1      -4.830 -18.637  -1.275 +0.03 -0.71    -0.776 OA
DOCKED: ATOM     37  H   UNL d   1      -5.100 -18.054  -0.556 +0.01 +0.17    +0.167 HD
DOCKED: ENDBRANCH  34  36
DOCKED: ENDBRANCH  33  34
DOCKED: ENDBRANCH  32  33
DOCKED: ENDBRANCH   6  32
DOCKED: BRANCH  22  38
DOCKED: ATOM     38  C   UNL d   1      -8.346 -15.638  -0.998 -0.08 +0.05    +0.052 C 
DOCKED: BRANCH  38  39
DOCKED: ATOM     39  C   UNL d   1      -6.887 -15.989  -1.280 -0.05 +0.17    +0.115 C 
DOCKED: BRANCH  39  40
DOCKED: ATOM     40  C   UNL d   1      -5.948 -15.429  -0.240 -0.02 +0.27    +0.139 C 
DOCKED: ATOM     41  O   UNL d   1      -6.181 -14.342   0.264 -0.41 -1.33    -0.650 OA
DOCKED: BRANCH  40  42
DOCKED: ATOM     42  O   UNL d   1      -4.879 -16.131   0.183 -0.35 -1.48    -0.776 OA
DOCKED: ATOM     43  H   UNL d   1      -4.371 -16.688  -0.419 +0.02 +0.26    +0.167 HD
DOCKED: ENDBRANCH  40  42
DOCKED: ENDBRANCH  39  40
DOCKED: ENDBRANCH  38  39
DOCKED: ENDBRANCH  22  38
DOCKED: BRANCH  12  44
DOCKED: ATOM     44  C   UNL d   1     -12.518 -19.180 -10.938 -0.07 +0.00    +0.004 C 
DOCKED: ATOM     45  C   UNL d   1     -12.829 -18.328 -11.914 -0.11 +0.00    +0.012 C 
DOCKED: ENDBRANCH  12  44
DOCKED: BRANCH  17  46
DOCKED: ATOM     46  C   UNL d   1     -13.844 -12.843  -5.927 -0.22 +0.00    +0.004 C 
DOCKED: ATOM     47  C   UNL d   1     -13.244 -11.651  -5.812 -0.36 +0.00    +0.012 C 
DOCKED: ENDBRANCH  17  46
DOCKED: TORSDOF 10
DOCKED: TER
DOCKED: ENDMDL
________________________________________________________________________________


	BEGINNING GENETIC ALGORITHM DOCKING 92 of 100
Run: 92 Seed: 1186221415 2003620054 [ Run 92 of 100 GA/GALS ]
Beginning LAMARCKIAN GENETIC ALGORITHM (LGA), with a maximum of 25000000 energy evaluations.

Final-Value: -10.557


	FINAL GENETIC ALGORITHM DOCKED STATE
	_______________________________________________


Detailed state:  trans -12.890 -14.534 -1.486 quatxyzw 0.634232 0.582584 -0.507892 0.019784 center 8.287 34.468 -0.670 ntor 10 88.7453 45.1116 32.0642 142.9548 -118.5985 136.1143 -133.9654 52.5126 -173.1230 -54.4367
State:	-12.890 -14.534  -1.486   0.634  0.583 -0.508 177.733     88.75   45.11   32.06  142.95 -118.60  136.11 -133.97   52.51 -173.12  -54.44

DOCKED: MODEL       92
DOCKED: USER    Run = 92
DOCKED: USER    DPF = D:/Protein_go_brrr/autodock/final/AncA/heme_O2/dock.dpf
DOCKED: USER  
DOCKED: USER    Estimated Free Energy of Binding    =   -6.88 kcal/mol  [=(1)+(2)+(3)-(4)]
DOCKED: USER    Estimated Inhibition Constant, Ki   =    9.00 uM (micromolar)  [Temperature = 298.15 K]
DOCKED: USER    
DOCKED: USER    (1) Final Intermolecular Energy     =   -9.87 kcal/mol
DOCKED: USER        vdW + Hbond + desolv Energy     =   -7.01 kcal/mol
DOCKED: USER        Electrostatic Energy            =   -2.86 kcal/mol
DOCKED: USER    (2) Final Total Internal Energy     =   -0.69 kcal/mol
DOCKED: USER    (3) Torsional Free Energy           =   +2.98 kcal/mol
DOCKED: USER    (4) Unbound System's Energy  [=(2)] =   -0.69 kcal/mol
DOCKED: USER    
DOCKED: USER    
DOCKED: USER    NEWDPF move heme_O2_opt.pdbqt
DOCKED: USER    NEWDPF about 8.287000 34.468000 -0.670000
DOCKED: USER    NEWDPF tran0 -12.890197 -14.534461 -1.485803
DOCKED: USER    NEWDPF quaternion0 0.634232 0.582584 -0.507892 0.019784
DOCKED: USER    NEWDPF axisangle0 0.634356 0.582698 -0.507992 177.732829
DOCKED: USER    NEWDPF quat0 0.634356 0.582698 -0.507992 177.732829
DOCKED: USER    NEWDPF dihe0 88.75 45.11 32.06 142.95 -118.60 136.11 -133.97 52.51 -173.12 -54.44 
DOCKED: USER  keepresnum = 1 
DOCKED: USER  
DOCKED: REMARK  10 active torsions:
DOCKED: REMARK  status: ('A' for Active; 'I' for Inactive)
DOCKED: REMARK    1  A    between atoms: C_6  and  C_10 
DOCKED: REMARK    2  A    between atoms: C_10  and  C_11 
DOCKED: REMARK    3  A    between atoms: C_11  and  C_12 
DOCKED: REMARK    4  A    between atoms: C_12  and  O_14 
DOCKED: REMARK    5  A    between atoms: C_17  and  C_20 
DOCKED: REMARK    6  A    between atoms: C_24  and  C_27 
DOCKED: REMARK    7  A    between atoms: C_31  and  C_34 
DOCKED: REMARK    8  A    between atoms: C_34  and  C_35 
DOCKED: REMARK    9  A    between atoms: C_35  and  C_36 
DOCKED: REMARK   10  A    between atoms: C_36  and  O_38 
DOCKED: USER                              x       y       z     vdW  Elec       q    Type
DOCKED: USER                           _______ _______ _______ _____ _____    ______ ____
DOCKED: ROOT
DOCKED: ATOM      1  C   UNL d   1     -11.559 -15.693  -0.309 -0.11 +0.02    +0.064 A 
DOCKED: ATOM      2  C   UNL d   1     -16.222 -16.029  -1.148 -0.11 +0.01    +0.064 A 
DOCKED: ATOM      3  C   UNL d   1     -16.094 -12.119  -3.939 -0.27 +0.00    +0.064 C 
DOCKED: ATOM      4  C   UNL d   1     -11.212 -12.042  -3.469 -0.20 +0.01    +0.064 A 
DOCKED: ATOM      5  C   UNL d   1     -12.838 -16.105  -0.311 -0.10 +0.02    +0.066 A 
DOCKED: ATOM      6  C   UNL d   1     -13.306 -17.209   0.407 -0.08 -0.00    -0.021 A 
DOCKED: ATOM      7  C   UNL d   1     -14.648 -17.333   0.131 -0.08 -0.00    -0.025 A 
DOCKED: ATOM      8  C   UNL d   1     -14.972 -16.272  -0.711 -0.11 +0.01    +0.066 A 
DOCKED: ATOM      9  C   UNL d   1     -15.538 -18.444   0.642 -0.03 +0.01    +0.051 C 
DOCKED: ATOM     10  C   UNL d   1     -16.628 -14.920  -2.013 -0.14 +0.01    +0.066 A 
DOCKED: ATOM     11  C   UNL d   1     -17.963 -14.619  -2.304 -0.13 -0.00    -0.021 A 
DOCKED: ATOM     12  C   UNL d   1     -17.948 -13.483  -3.093 -0.16 +0.00    +0.000 A 
DOCKED: ATOM     13  C   UNL d   1     -16.573 -13.156  -3.253 -0.19 +0.01    +0.070 A 
DOCKED: ATOM     14  C   UNL d   1     -19.202 -15.366  -1.826 -0.07 +0.01    +0.052 C 
DOCKED: ATOM     15  C   UNL d   1     -14.710 -11.773  -4.154 -0.25 +0.00    +0.066 A 
DOCKED: ATOM     16  C   UNL d   1     -14.270 -10.771  -5.018 -0.30 +0.00    -0.021 A 
DOCKED: ATOM     17  C   UNL d   1     -12.881 -10.731  -4.901 -0.38 +0.00    +0.000 A 
DOCKED: ATOM     18  C   UNL d   1     -12.573 -11.724  -3.961 -0.26 +0.00    +0.070 A 
DOCKED: ATOM     19  C   UNL d   1     -15.200  -9.986  -5.909 -0.37 +0.00    +0.052 C 
DOCKED: ATOM     20  C   UNL d   1     -10.877 -13.016  -2.600 -0.19 +0.02    +0.066 A 
DOCKED: ATOM     21  C   UNL d   1      -9.579 -13.257  -2.160 -0.17 -0.01    -0.025 A 
DOCKED: ATOM     22  C   UNL d   1      -9.662 -14.276  -1.238 -0.14 -0.01    -0.021 A 
DOCKED: ATOM     23  C   UNL d   1     -11.012 -14.633  -1.163 -0.11 +0.02    +0.066 A 
DOCKED: ATOM     24  C   UNL d   1      -8.322 -12.552  -2.599 -0.22 +0.04    +0.051 C 
DOCKED: ATOM     25  N   UNL d   1     -13.844 -15.554  -1.034 -0.09 -0.04    -0.248 N 
DOCKED: ATOM     26  N   UNL d   1     -15.776 -14.038  -2.596 -0.13 -0.03    -0.248 N 
DOCKED: ATOM     27  N   UNL d   1     -13.688 -12.396  -3.575 -0.13 -0.01    -0.248 N 
DOCKED: ATOM     28  N   UNL d   1     -11.741 -13.895  -2.026 -0.08 -0.06    -0.248 N 
DOCKED: ATOM     29 FE   UNL d   1     -13.743 -13.964  -2.311 -0.06 +0.00    +0.000 Fe
DOCKED: ATOM     30  O   UNL d   1     -14.036 -15.320  -3.018 -0.13 +0.00    +0.000 OA
DOCKED: ATOM     31  O   UNL d   1     -13.059 -14.283  -3.691 -0.17 +0.00    +0.000 OA
DOCKED: ENDROOT
DOCKED: BRANCH   6  32
DOCKED: ATOM     32  C   UNL d   1     -12.501 -18.194   1.214 -0.03 +0.01    +0.052 C 
DOCKED: BRANCH  32  33
DOCKED: ATOM     33  C   UNL d   1     -12.010 -19.377   0.386 -0.00 +0.03    +0.115 C 
DOCKED: BRANCH  33  34
DOCKED: ATOM     34  C   UNL d   1     -11.465 -18.954  -0.956 -0.00 +0.04    +0.139 C 
DOCKED: ATOM     35  O   UNL d   1     -10.279 -18.689  -1.069 +0.02 -0.25    -0.650 OA
DOCKED: BRANCH  34  36
DOCKED: ATOM     36  O   UNL d   1     -12.267 -18.832  -2.034 +0.02 -0.21    -0.776 OA
DOCKED: ATOM     37  H   UNL d   1     -12.719 -18.007  -2.244 +0.01 +0.04    +0.167 HD
DOCKED: ENDBRANCH  34  36
DOCKED: ENDBRANCH  33  34
DOCKED: ENDBRANCH  32  33
DOCKED: ENDBRANCH   6  32
DOCKED: BRANCH  22  38
DOCKED: ATOM     38  C   UNL d   1      -8.498 -14.910  -0.522 -0.10 +0.05    +0.052 C 
DOCKED: BRANCH  38  39
DOCKED: ATOM     39  C   UNL d   1      -7.541 -13.874   0.064 -0.17 +0.14    +0.115 C 
DOCKED: BRANCH  39  40
DOCKED: ATOM     40  C   UNL d   1      -6.108 -14.124  -0.333 -0.14 +0.26    +0.139 C 
DOCKED: ATOM     41  O   UNL d   1      -5.458 -14.979   0.248 -0.59 -1.61    -0.650 OA
DOCKED: BRANCH  40  42
DOCKED: ATOM     42  O   UNL d   1      -5.542 -13.455  -1.356 +0.12 -1.63    -0.776 OA
DOCKED: ATOM     43  H   UNL d   1      -5.619 -12.497  -1.436 +0.06 +0.25    +0.167 HD
DOCKED: ENDBRANCH  40  42
DOCKED: ENDBRANCH  39  40
DOCKED: ENDBRANCH  38  39
DOCKED: ENDBRANCH  22  38
DOCKED: BRANCH  12  44
DOCKED: ATOM     44  C   UNL d   1     -19.221 -12.844  -3.606 -0.13 +0.00    +0.004 C 
DOCKED: ATOM     45  C   UNL d   1     -19.386 -12.121  -4.713 -0.09 +0.00    +0.012 C 
DOCKED: ENDBRANCH  12  44
DOCKED: BRANCH  17  46
DOCKED: ATOM     46  C   UNL d   1     -11.852  -9.902  -5.622 -0.55 +0.00    +0.004 C 
DOCKED: ATOM     47  C   UNL d   1     -10.791  -9.267  -5.108 -0.47 +0.00    +0.012 C 
DOCKED: ENDBRANCH  17  46
DOCKED: TORSDOF 10
DOCKED: TER
DOCKED: ENDMDL
________________________________________________________________________________


	BEGINNING GENETIC ALGORITHM DOCKING 93 of 100
Run: 93 Seed: 620360255 1479580708 [ Run 93 of 100 GA/GALS ]
Beginning LAMARCKIAN GENETIC ALGORITHM (LGA), with a maximum of 25000000 energy evaluations.

Final-Value: -10.869


	FINAL GENETIC ALGORITHM DOCKED STATE
	_______________________________________________


Detailed state:  trans -11.649 -14.067 -1.198 quatxyzw 0.718729 0.584930 -0.369836 -0.067137 center 8.287 34.468 -0.670 ntor 10 33.0715 -99.9490 -44.9357 89.6132 35.2704 -84.5019 -87.5083 80.9349 -159.6181 8.7071
State:	-11.649 -14.067  -1.198   0.720  0.586 -0.371 -172.301     33.07  -99.95  -44.94   89.61   35.27  -84.50  -87.51   80.93 -159.62    8.71

DOCKED: MODEL       93
DOCKED: USER    Run = 93
DOCKED: USER    DPF = D:/Protein_go_brrr/autodock/final/AncA/heme_O2/dock.dpf
DOCKED: USER  
DOCKED: USER    Estimated Free Energy of Binding    =   -7.06 kcal/mol  [=(1)+(2)+(3)-(4)]
DOCKED: USER    Estimated Inhibition Constant, Ki   =    6.68 uM (micromolar)  [Temperature = 298.15 K]
DOCKED: USER    
DOCKED: USER    (1) Final Intermolecular Energy     =  -10.04 kcal/mol
DOCKED: USER        vdW + Hbond + desolv Energy     =   -8.01 kcal/mol
DOCKED: USER        Electrostatic Energy            =   -2.03 kcal/mol
DOCKED: USER    (2) Final Total Internal Energy     =   -0.83 kcal/mol
DOCKED: USER    (3) Torsional Free Energy           =   +2.98 kcal/mol
DOCKED: USER    (4) Unbound System's Energy  [=(2)] =   -0.83 kcal/mol
DOCKED: USER    
DOCKED: USER    
DOCKED: USER    NEWDPF move heme_O2_opt.pdbqt
DOCKED: USER    NEWDPF about 8.287000 34.468000 -0.670000
DOCKED: USER    NEWDPF tran0 -11.648905 -14.067368 -1.197685
DOCKED: USER    NEWDPF quaternion0 0.718729 0.584930 -0.369836 -0.067137
DOCKED: USER    NEWDPF axisangle0 0.720354 0.586253 -0.370672 -172.300836
DOCKED: USER    NEWDPF quat0 0.720354 0.586253 -0.370672 -172.300836
DOCKED: USER    NEWDPF dihe0 33.07 -99.95 -44.94 89.61 35.27 -84.50 -87.51 80.93 -159.62 8.71 
DOCKED: USER  keepresnum = 1 
DOCKED: USER  
DOCKED: REMARK  10 active torsions:
DOCKED: REMARK  status: ('A' for Active; 'I' for Inactive)
DOCKED: REMARK    1  A    between atoms: C_6  and  C_10 
DOCKED: REMARK    2  A    between atoms: C_10  and  C_11 
DOCKED: REMARK    3  A    between atoms: C_11  and  C_12 
DOCKED: REMARK    4  A    between atoms: C_12  and  O_14 
DOCKED: REMARK    5  A    between atoms: C_17  and  C_20 
DOCKED: REMARK    6  A    between atoms: C_24  and  C_27 
DOCKED: REMARK    7  A    between atoms: C_31  and  C_34 
DOCKED: REMARK    8  A    between atoms: C_34  and  C_35 
DOCKED: REMARK    9  A    between atoms: C_35  and  C_36 
DOCKED: REMARK   10  A    between atoms: C_36  and  O_38 
DOCKED: USER                              x       y       z     vdW  Elec       q    Type
DOCKED: USER                           _______ _______ _______ _____ _____    ______ ____
DOCKED: ROOT
DOCKED: ATOM      1  C   UNL d   1     -10.829 -15.308   0.315 -0.10 +0.03    +0.064 A 
DOCKED: ATOM      2  C   UNL d   1     -14.888 -15.504  -2.145 -0.13 +0.01    +0.064 A 
DOCKED: ATOM      3  C   UNL d   1     -13.760 -11.472  -4.504 -0.31 +0.00    +0.064 C 
DOCKED: ATOM      4  C   UNL d   1      -9.365 -11.522  -2.323 -0.27 +0.03    +0.064 A 
DOCKED: ATOM      5  C   UNL d   1     -12.024 -15.691  -0.163 -0.11 +0.02    +0.066 A 
DOCKED: ATOM      6  C   UNL d   1     -12.722 -16.817   0.284 -0.09 -0.01    -0.021 A 
DOCKED: ATOM      7  C   UNL d   1     -13.877 -16.899  -0.458 -0.09 -0.01    -0.025 A 
DOCKED: ATOM      8  C   UNL d   1     -13.876 -15.794  -1.304 -0.14 +0.01    +0.066 A 
DOCKED: ATOM      9  C   UNL d   1     -14.894 -18.014  -0.354 -0.04 +0.01    +0.051 C 
DOCKED: ATOM     10  C   UNL d   1     -14.954 -14.347  -3.040 -0.14 +0.01    +0.066 A 
DOCKED: ATOM     11  C   UNL d   1     -16.097 -14.005  -3.771 -0.12 -0.00    -0.021 A 
DOCKED: ATOM     12  C   UNL d   1     -15.797 -12.835  -4.444 -0.15 +0.00    +0.000 A 
DOCKED: ATOM     13  C   UNL d   1     -14.455 -12.530  -4.086 -0.20 +0.01    +0.070 A 
DOCKED: ATOM     14  C   UNL d   1     -17.428 -14.747  -3.804 -0.06 +0.01    +0.052 C 
DOCKED: ATOM     15  C   UNL d   1     -12.388 -11.146  -4.194 -0.23 +0.00    +0.066 A 
DOCKED: ATOM     16  C   UNL d   1     -11.666 -10.115  -4.793 -0.46 -0.00    -0.021 A 
DOCKED: ATOM     17  C   UNL d   1     -10.409 -10.110  -4.187 -0.42 +0.00    +0.000 A 
DOCKED: ATOM     18  C   UNL d   1     -10.461 -11.152  -3.251 -0.29 +0.02    +0.070 A 
DOCKED: ATOM     19  C   UNL d   1     -12.214  -9.270  -5.915 -0.30 +0.00    +0.052 C 
DOCKED: ATOM     20  C   UNL d   1      -9.366 -12.542  -1.444 -0.23 +0.04    +0.066 A 
DOCKED: ATOM     21  C   UNL d   1      -8.310 -12.831  -0.583 -0.21 -0.02    -0.025 A 
DOCKED: ATOM     22  C   UNL d   1      -8.721 -13.890   0.195 -0.16 -0.02    -0.021 A 
DOCKED: ATOM     23  C   UNL d   1     -10.009 -14.221  -0.234 -0.11 +0.04    +0.066 A 
DOCKED: ATOM     24  C   UNL d   1      -6.977 -12.133  -0.509 -0.10 +0.05    +0.051 C 
DOCKED: ATOM     25  N   UNL d   1     -12.704 -15.087  -1.168 -0.12 -0.05    -0.248 N 
DOCKED: ATOM     26  N   UNL d   1     -13.948 -13.458  -3.236 -0.11 -0.02    -0.248 N 
DOCKED: ATOM     27  N   UNL d   1     -11.642 -11.818  -3.321 -0.19 -0.04    -0.248 N 
DOCKED: ATOM     28  N   UNL d   1     -10.380 -13.429  -1.260 -0.12 -0.11    -0.248 N 
DOCKED: ATOM     29 FE   UNL d   1     -12.150 -13.441  -2.242 -0.06 +0.00    +0.000 Fe
DOCKED: ATOM     30  O   UNL d   1     -12.176 -14.756  -3.075 -0.16 +0.00    +0.000 OA
DOCKED: ATOM     31  O   UNL d   1     -11.020 -13.710  -3.303 -0.21 +0.00    +0.000 OA
DOCKED: ENDROOT
DOCKED: BRANCH   6  32
DOCKED: ATOM     32  C   UNL d   1     -12.260 -17.856   1.273 -0.03 +0.01    +0.052 C 
DOCKED: BRANCH  32  33
DOCKED: ATOM     33  C   UNL d   1     -11.243 -18.827   0.682 -0.00 +0.03    +0.115 C 
DOCKED: BRANCH  33  34
DOCKED: ATOM     34  C   UNL d   1      -9.822 -18.354   0.865 +0.01 +0.06    +0.139 C 
DOCKED: ATOM     35  O   UNL d   1      -9.147 -18.079  -0.114 +0.02 -0.33    -0.650 OA
DOCKED: BRANCH  34  36
DOCKED: ATOM     36  O   UNL d   1      -9.267 -18.254   2.090 +0.02 -0.36    -0.776 OA
DOCKED: ATOM     37  H   UNL d   1      -9.494 -18.860   2.805 +0.00 +0.06    +0.167 HD
DOCKED: ENDBRANCH  34  36
DOCKED: ENDBRANCH  33  34
DOCKED: ENDBRANCH  32  33
DOCKED: ENDBRANCH   6  32
DOCKED: BRANCH  22  38
DOCKED: ATOM     38  C   UNL d   1      -7.890 -14.581   1.246 -0.13 +0.07    +0.052 C 
DOCKED: BRANCH  38  39
DOCKED: ATOM     39  C   UNL d   1      -8.402 -14.315   2.660 -0.17 +0.13    +0.115 C 
DOCKED: BRANCH  39  40
DOCKED: ATOM     40  C   UNL d   1      -7.603 -13.252   3.371 -0.13 +0.21    +0.139 C 
DOCKED: ATOM     41  O   UNL d   1      -7.542 -12.126   2.904 -0.62 -0.77    -0.650 OA
DOCKED: BRANCH  40  42
DOCKED: ATOM     42  O   UNL d   1      -6.994 -13.508   4.545 -0.35 -1.30    -0.776 OA
DOCKED: ATOM     43  H   UNL d   1      -7.401 -13.271   5.387 +0.08 +0.15    +0.167 HD
DOCKED: ENDBRANCH  40  42
DOCKED: ENDBRANCH  39  40
DOCKED: ENDBRANCH  38  39
DOCKED: ENDBRANCH  22  38
DOCKED: BRANCH  12  44
DOCKED: ATOM     44  C   UNL d   1     -16.802 -12.145  -5.343 -0.13 +0.00    +0.004 C 
DOCKED: ATOM     45  C   UNL d   1     -17.149 -10.858  -5.347 -0.23 +0.00    +0.012 C 
DOCKED: ENDBRANCH  12  44
DOCKED: BRANCH  17  46
DOCKED: ATOM     46  C   UNL d   1      -9.188  -9.271  -4.451 -0.38 +0.00    +0.004 C 
DOCKED: ATOM     47  C   UNL d   1      -8.914  -8.040  -3.999 -0.54 +0.00    +0.012 C 
DOCKED: ENDBRANCH  17  46
DOCKED: TORSDOF 10
DOCKED: TER
DOCKED: ENDMDL
________________________________________________________________________________


	BEGINNING GENETIC ALGORITHM DOCKING 94 of 100
Run: 94 Seed: 1678951634 888289629 [ Run 94 of 100 GA/GALS ]
Beginning LAMARCKIAN GENETIC ALGORITHM (LGA), with a maximum of 25000000 energy evaluations.

Final-Value: -11.037


	FINAL GENETIC ALGORITHM DOCKED STATE
	_______________________________________________


Detailed state:  trans -10.005 -15.594 5.463 quatxyzw -0.079405 -0.842016 -0.290308 -0.447689 center 8.287 34.468 -0.670 ntor 10 -8.5340 67.8968 94.7228 -98.3860 -153.4897 -178.7102 -17.9478 -80.0046 34.0740 -21.4018
State:	-10.005 -15.594   5.463  -0.089 -0.942 -0.325 -126.809     -8.53   67.90   94.72  -98.39 -153.49 -178.71  -17.95  -80.00   34.07  -21.40

DOCKED: MODEL       94
DOCKED: USER    Run = 94
DOCKED: USER    DPF = D:/Protein_go_brrr/autodock/final/AncA/heme_O2/dock.dpf
DOCKED: USER  
DOCKED: USER    Estimated Free Energy of Binding    =   -7.52 kcal/mol  [=(1)+(2)+(3)-(4)]
DOCKED: USER    Estimated Inhibition Constant, Ki   =    3.10 uM (micromolar)  [Temperature = 298.15 K]
DOCKED: USER    
DOCKED: USER    (1) Final Intermolecular Energy     =  -10.50 kcal/mol
DOCKED: USER        vdW + Hbond + desolv Energy     =   -6.88 kcal/mol
DOCKED: USER        Electrostatic Energy            =   -3.62 kcal/mol
DOCKED: USER    (2) Final Total Internal Energy     =   -0.54 kcal/mol
DOCKED: USER    (3) Torsional Free Energy           =   +2.98 kcal/mol
DOCKED: USER    (4) Unbound System's Energy  [=(2)] =   -0.54 kcal/mol
DOCKED: USER    
DOCKED: USER    
DOCKED: USER    NEWDPF move heme_O2_opt.pdbqt
DOCKED: USER    NEWDPF about 8.287000 34.468000 -0.670000
DOCKED: USER    NEWDPF tran0 -10.004753 -15.593829 5.463435
DOCKED: USER    NEWDPF quaternion0 -0.079405 -0.842016 -0.290308 -0.447689
DOCKED: USER    NEWDPF axisangle0 -0.088801 -0.941653 -0.324660 -126.809002
DOCKED: USER    NEWDPF quat0 -0.088801 -0.941653 -0.324660 -126.809002
DOCKED: USER    NEWDPF dihe0 -8.53 67.90 94.72 -98.39 -153.49 -178.71 -17.95 -80.00 34.07 -21.40 
DOCKED: USER  keepresnum = 1 
DOCKED: USER  
DOCKED: REMARK  10 active torsions:
DOCKED: REMARK  status: ('A' for Active; 'I' for Inactive)
DOCKED: REMARK    1  A    between atoms: C_6  and  C_10 
DOCKED: REMARK    2  A    between atoms: C_10  and  C_11 
DOCKED: REMARK    3  A    between atoms: C_11  and  C_12 
DOCKED: REMARK    4  A    between atoms: C_12  and  O_14 
DOCKED: REMARK    5  A    between atoms: C_17  and  C_20 
DOCKED: REMARK    6  A    between atoms: C_24  and  C_27 
DOCKED: REMARK    7  A    between atoms: C_31  and  C_34 
DOCKED: REMARK    8  A    between atoms: C_34  and  C_35 
DOCKED: REMARK    9  A    between atoms: C_35  and  C_36 
DOCKED: REMARK   10  A    between atoms: C_36  and  O_38 
DOCKED: USER                              x       y       z     vdW  Elec       q    Type
DOCKED: USER                           _______ _______ _______ _____ _____    ______ ____
DOCKED: ROOT
DOCKED: ATOM      1  C   UNL d   1      -8.105 -15.313   4.563 -0.10 +0.06    +0.064 A 
DOCKED: ATOM      2  C   UNL d   1     -12.491 -15.618   2.768 -0.11 +0.02    +0.064 A 
DOCKED: ATOM      3  C   UNL d   1     -14.340 -16.282   7.154 -0.10 +0.01    +0.064 C 
DOCKED: ATOM      4  C   UNL d   1      -9.889 -15.493   9.060 -0.10 +0.02    +0.064 A 
DOCKED: ATOM      5  C   UNL d   1      -9.147 -15.340   3.717 -0.08 +0.05    +0.066 A 
DOCKED: ATOM      6  C   UNL d   1      -9.033 -15.207   2.330 -0.10 -0.02    -0.021 A 
DOCKED: ATOM      7  C   UNL d   1     -10.307 -15.252   1.813 -0.12 -0.01    -0.025 A 
DOCKED: ATOM      8  C   UNL d   1     -11.160 -15.459   2.894 -0.12 +0.03    +0.066 A 
DOCKED: ATOM      9  C   UNL d   1     -10.655 -15.071   0.352 -0.13 +0.02    +0.051 C 
DOCKED: ATOM     10  C   UNL d   1     -13.433 -15.861   3.861 -0.18 +0.01    +0.066 A 
DOCKED: ATOM     11  C   UNL d   1     -14.780 -16.182   3.659 -0.18 -0.00    -0.021 A 
DOCKED: ATOM     12  C   UNL d   1     -15.326 -16.394   4.912 -0.14 +0.00    +0.000 A 
DOCKED: ATOM     13  C   UNL d   1     -14.261 -16.175   5.828 -0.10 +0.01    +0.070 A 
DOCKED: ATOM     14  C   UNL d   1     -15.509 -16.306   2.326 -0.16 +0.01    +0.052 C 
DOCKED: ATOM     15  C   UNL d   1     -13.294 -16.034   8.117 -0.10 +0.01    +0.066 A 
DOCKED: ATOM     16  C   UNL d   1     -13.483 -16.004   9.498 -0.08 -0.00    -0.021 A 
DOCKED: ATOM     17  C   UNL d   1     -12.228 -15.779  10.063 -0.09 +0.00    +0.000 A 
DOCKED: ATOM     18  C   UNL d   1     -11.355 -15.691   8.969 -0.10 +0.02    +0.070 A 
DOCKED: ATOM     19  C   UNL d   1     -14.838 -16.135  10.147 -0.05 +0.00    +0.052 C 
DOCKED: ATOM     20  C   UNL d   1      -9.030 -15.360   8.031 -0.10 +0.02    +0.066 A 
DOCKED: ATOM     21  C   UNL d   1      -7.655 -15.194   8.179 -0.11 -0.01    -0.025 A 
DOCKED: ATOM     22  C   UNL d   1      -7.127 -15.168   6.908 -0.12 -0.01    -0.021 A 
DOCKED: ATOM     23  C   UNL d   1      -8.205 -15.302   6.027 -0.10 +0.04    +0.066 A 
DOCKED: ATOM     24  C   UNL d   1      -6.886 -15.062   9.468 -0.12 +0.01    +0.051 C 
DOCKED: ATOM     25  N   UNL d   1     -10.451 -15.448   4.073 -0.05 -0.11    -0.248 N 
DOCKED: ATOM     26  N   UNL d   1     -13.114 -15.846   5.180 -0.10 -0.07    -0.248 N 
DOCKED: ATOM     27  N   UNL d   1     -12.031 -15.773   7.795 -0.08 -0.07    -0.248 N 
DOCKED: ATOM     28  N   UNL d   1      -9.365 -15.373   6.714 -0.05 -0.10    -0.248 N 
DOCKED: ATOM     29 FE   UNL d   1     -11.227 -15.608   5.955 -0.03 +0.00    +0.000 Fe
DOCKED: ATOM     30  O   UNL d   1     -11.578 -14.270   5.243 -0.81 +0.00    +0.000 OA
DOCKED: ATOM     31  O   UNL d   1     -11.217 -14.267   6.776 -0.60 +0.00    +0.000 OA
DOCKED: ENDROOT
DOCKED: BRANCH   6  32
DOCKED: ATOM     32  C   UNL d   1      -7.791 -14.911   1.530 -0.09 +0.07    +0.052 C 
DOCKED: BRANCH  32  33
DOCKED: ATOM     33  C   UNL d   1      -7.432 -16.031   0.559 -0.06 +0.14    +0.115 C 
DOCKED: BRANCH  33  34
DOCKED: ATOM     34  C   UNL d   1      -6.524 -15.561  -0.551 -0.09 +0.23    +0.139 C 
DOCKED: ATOM     35  O   UNL d   1      -5.466 -15.018  -0.275 -0.53 -1.44    -0.650 OA
DOCKED: BRANCH  34  36
DOCKED: ATOM     36  O   UNL d   1      -6.867 -15.701  -1.848 -0.51 -1.42    -0.776 OA
DOCKED: ATOM     37  H   UNL d   1      -7.642 -16.206  -2.119 +0.02 +0.20    +0.167 HD
DOCKED: ENDBRANCH  34  36
DOCKED: ENDBRANCH  33  34
DOCKED: ENDBRANCH  32  33
DOCKED: ENDBRANCH   6  32
DOCKED: BRANCH  22  38
DOCKED: ATOM     38  C   UNL d   1      -5.675 -14.960   6.564 -0.14 +0.05    +0.052 C 
DOCKED: BRANCH  38  39
DOCKED: ATOM     39  C   UNL d   1      -4.853 -16.239   6.713 -0.09 +0.08    +0.115 C 
DOCKED: BRANCH  39  40
DOCKED: ATOM     40  C   UNL d   1      -4.632 -16.938   5.395 -0.04 +0.15    +0.139 C 
DOCKED: ATOM     41  O   UNL d   1      -5.500 -16.904   4.537 -0.49 -1.07    -0.650 OA
DOCKED: BRANCH  40  42
DOCKED: ATOM     42  O   UNL d   1      -3.468 -17.560   5.124 -0.03 -0.63    -0.776 OA
DOCKED: ATOM     43  H   UNL d   1      -3.218 -18.379   5.569 +0.01 +0.09    +0.167 HD
DOCKED: ENDBRANCH  40  42
DOCKED: ENDBRANCH  39  40
DOCKED: ENDBRANCH  38  39
DOCKED: ENDBRANCH  22  38
DOCKED: BRANCH  12  44
DOCKED: ATOM     44  C   UNL d   1     -16.780 -16.774   5.101 -0.10 +0.00    +0.004 C 
DOCKED: ATOM     45  C   UNL d   1     -17.825 -15.962   5.258 -0.13 +0.00    +0.012 C 
DOCKED: ENDBRANCH  12  44
DOCKED: BRANCH  17  46
DOCKED: ATOM     46  C   UNL d   1     -11.808 -15.590  11.497 -0.09 +0.00    +0.004 C 
DOCKED: ATOM     47  C   UNL d   1     -11.456 -14.455  12.114 -0.15 +0.00    +0.012 C 
DOCKED: ENDBRANCH  17  46
DOCKED: TORSDOF 10
DOCKED: TER
DOCKED: ENDMDL
________________________________________________________________________________


	BEGINNING GENETIC ALGORITHM DOCKING 95 of 100
Run: 95 Seed: 778654943 867666756 [ Run 95 of 100 GA/GALS ]
Beginning LAMARCKIAN GENETIC ALGORITHM (LGA), with a maximum of 25000000 energy evaluations.

Final-Value: -11.938


	FINAL GENETIC ALGORITHM DOCKED STATE
	_______________________________________________


Detailed state:  trans -10.451 -14.976 -3.724 quatxyzw -0.513521 0.383711 0.765182 0.059651 center 8.287 34.468 -0.670 ntor 10 -117.2417 124.9024 -45.8996 118.8170 80.3543 35.1995 69.0539 48.0555 -0.5193 135.7570
State:	-10.451 -14.976  -3.724  -0.514  0.384  0.767 173.160   -117.24  124.90  -45.90  118.82   80.35   35.20   69.05   48.06   -0.52  135.76

DOCKED: MODEL       95
DOCKED: USER    Run = 95
DOCKED: USER    DPF = D:/Protein_go_brrr/autodock/final/AncA/heme_O2/dock.dpf
DOCKED: USER  
DOCKED: USER    Estimated Free Energy of Binding    =   -7.10 kcal/mol  [=(1)+(2)+(3)-(4)]
DOCKED: USER    Estimated Inhibition Constant, Ki   =    6.21 uM (micromolar)  [Temperature = 298.15 K]
DOCKED: USER    
DOCKED: USER    (1) Final Intermolecular Energy     =  -10.09 kcal/mol
DOCKED: USER        vdW + Hbond + desolv Energy     =   -6.10 kcal/mol
DOCKED: USER        Electrostatic Energy            =   -3.98 kcal/mol
DOCKED: USER    (2) Final Total Internal Energy     =   -1.85 kcal/mol
DOCKED: USER    (3) Torsional Free Energy           =   +2.98 kcal/mol
DOCKED: USER    (4) Unbound System's Energy  [=(2)] =   -1.85 kcal/mol
DOCKED: USER    
DOCKED: USER    
DOCKED: USER    NEWDPF move heme_O2_opt.pdbqt
DOCKED: USER    NEWDPF about 8.287000 34.468000 -0.670000
DOCKED: USER    NEWDPF tran0 -10.451303 -14.976217 -3.723582
DOCKED: USER    NEWDPF quaternion0 -0.513521 0.383711 0.765182 0.059651
DOCKED: USER    NEWDPF axisangle0 -0.514437 0.384396 0.766547 173.160425
DOCKED: USER    NEWDPF quat0 -0.514437 0.384396 0.766547 173.160425
DOCKED: USER    NEWDPF dihe0 -117.24 124.90 -45.90 118.82 80.35 35.20 69.05 48.06 -0.52 135.76 
DOCKED: USER  keepresnum = 1 
DOCKED: USER  
DOCKED: REMARK  10 active torsions:
DOCKED: REMARK  status: ('A' for Active; 'I' for Inactive)
DOCKED: REMARK    1  A    between atoms: C_6  and  C_10 
DOCKED: REMARK    2  A    between atoms: C_10  and  C_11 
DOCKED: REMARK    3  A    between atoms: C_11  and  C_12 
DOCKED: REMARK    4  A    between atoms: C_12  and  O_14 
DOCKED: REMARK    5  A    between atoms: C_17  and  C_20 
DOCKED: REMARK    6  A    between atoms: C_24  and  C_27 
DOCKED: REMARK    7  A    between atoms: C_31  and  C_34 
DOCKED: REMARK    8  A    between atoms: C_34  and  C_35 
DOCKED: REMARK    9  A    between atoms: C_35  and  C_36 
DOCKED: REMARK   10  A    between atoms: C_36  and  O_38 
DOCKED: USER                              x       y       z     vdW  Elec       q    Type
DOCKED: USER                           _______ _______ _______ _____ _____    ______ ____
DOCKED: ROOT
DOCKED: ATOM      1  C   UNL d   1      -9.098 -14.910  -2.092 -0.10 +0.05    +0.064 A 
DOCKED: ATOM      2  C   UNL d   1     -11.902 -11.626  -4.069 -0.31 +0.01    +0.064 A 
DOCKED: ATOM      3  C   UNL d   1     -13.457 -14.788  -7.337 -0.18 +0.01    +0.064 C 
DOCKED: ATOM      4  C   UNL d   1     -10.938 -18.301  -5.016 -0.04 +0.02    +0.064 A 
DOCKED: ATOM      5  C   UNL d   1      -9.735 -13.759  -2.362 -0.13 +0.04    +0.066 A 
DOCKED: ATOM      6  C   UNL d   1      -9.542 -12.572  -1.650 -0.24 -0.01    -0.021 A 
DOCKED: ATOM      7  C   UNL d   1     -10.386 -11.632  -2.194 -0.31 -0.01    -0.025 A 
DOCKED: ATOM      8  C   UNL d   1     -11.035 -12.257  -3.255 -0.19 +0.02    +0.066 A 
DOCKED: ATOM      9  C   UNL d   1     -10.557 -10.220  -1.677 -0.45 +0.01    +0.051 C 
DOCKED: ATOM     10  C   UNL d   1     -12.596 -12.223  -5.211 -0.27 +0.01    +0.066 A 
DOCKED: ATOM     11  C   UNL d   1     -13.358 -11.482  -6.122 -0.32 -0.00    -0.021 A 
DOCKED: ATOM     12  C   UNL d   1     -13.801 -12.374  -7.082 -0.23 +0.00    +0.000 A 
DOCKED: ATOM     13  C   UNL d   1     -13.282 -13.638  -6.687 -0.22 +0.01    +0.070 A 
DOCKED: ATOM     14  C   UNL d   1     -13.630  -9.983  -6.092 -0.45 -0.00    +0.052 C 
DOCKED: ATOM     15  C   UNL d   1     -12.979 -16.094  -6.951 -0.12 +0.01    +0.066 A 
DOCKED: ATOM     16  C   UNL d   1     -13.334 -17.285  -7.585 -0.07 -0.00    -0.021 A 
DOCKED: ATOM     17  C   UNL d   1     -12.628 -18.300  -6.940 -0.05 +0.00    +0.000 A 
DOCKED: ATOM     18  C   UNL d   1     -11.884 -17.644  -5.949 -0.06 +0.02    +0.070 A 
DOCKED: ATOM     19  C   UNL d   1     -14.345 -17.353  -8.701 -0.05 +0.01    +0.052 C 
DOCKED: ATOM     20  C   UNL d   1     -10.242 -17.708  -4.027 -0.04 +0.03    +0.066 A 
DOCKED: ATOM     21  C   UNL d   1      -9.351 -18.376  -3.191 -0.02 -0.01    -0.025 A 
DOCKED: ATOM     22  C   UNL d   1      -8.797 -17.421  -2.369 -0.04 -0.01    -0.021 A 
DOCKED: ATOM     23  C   UNL d   1      -9.386 -16.203  -2.723 -0.07 +0.04    +0.066 A 
DOCKED: ATOM     24  C   UNL d   1      -9.048 -19.852  -3.175 -0.01 +0.02    +0.051 C 
DOCKED: ATOM     25  N   UNL d   1     -10.682 -13.586  -3.316 -0.01 -0.09    -0.248 N 
DOCKED: ATOM     26  N   UNL d   1     -12.554 -13.538  -5.545 -0.13 -0.05    -0.248 N 
DOCKED: ATOM     27  N   UNL d   1     -12.167 -16.317  -5.922 -0.07 -0.07    -0.248 N 
DOCKED: ATOM     28  N   UNL d   1     -10.296 -16.390  -3.701 -0.04 -0.12    -0.248 N 
DOCKED: ATOM     29 FE   UNL d   1     -11.418 -14.976  -4.618 -0.04 +0.00    +0.000 Fe
DOCKED: ATOM     30  O   UNL d   1     -12.455 -14.492  -3.563 -0.16 +0.00    +0.000 OA
DOCKED: ATOM     31  O   UNL d   1     -12.406 -16.014  -3.968 -0.08 +0.00    +0.000 OA
DOCKED: ENDROOT
DOCKED: BRANCH   6  32
DOCKED: ATOM     32  C   UNL d   1      -8.701 -12.361  -0.418 -0.28 +0.04    +0.052 C 
DOCKED: BRANCH  32  33
DOCKED: ATOM     33  C   UNL d   1      -7.228 -12.127  -0.739 -0.13 +0.11    +0.115 C 
DOCKED: BRANCH  33  34
DOCKED: ATOM     34  C   UNL d   1      -6.348 -13.253  -0.255 -0.22 +0.21    +0.139 C 
DOCKED: ATOM     35  O   UNL d   1      -6.163 -13.402   0.942 +0.01 -1.40    -0.650 OA
DOCKED: BRANCH  34  36
DOCKED: ATOM     36  O   UNL d   1      -5.735 -14.087  -1.120 -0.13 -1.69    -0.776 OA
DOCKED: ATOM     37  H   UNL d   1      -5.930 -15.031  -1.145 +0.02 +0.38    +0.167 HD
DOCKED: ENDBRANCH  34  36
DOCKED: ENDBRANCH  33  34
DOCKED: ENDBRANCH  32  33
DOCKED: ENDBRANCH   6  32
DOCKED: BRANCH  22  38
DOCKED: ATOM     38  C   UNL d   1      -7.806 -17.681  -1.264 -0.03 +0.04    +0.052 C 
DOCKED: BRANCH  38  39
DOCKED: ATOM     39  C   UNL d   1      -8.306 -17.190   0.093 -0.01 +0.08    +0.115 C 
DOCKED: BRANCH  39  40
DOCKED: ATOM     40  C   UNL d   1      -7.261 -16.401   0.842 -0.05 +0.17    +0.139 C 
DOCKED: ATOM     41  O   UNL d   1      -7.521 -15.942   1.942 +0.03 -0.91    -0.650 OA
DOCKED: BRANCH  40  42
DOCKED: ATOM     42  O   UNL d   1      -6.022 -16.236   0.339 -0.24 -1.31    -0.776 OA
DOCKED: ATOM     43  H   UNL d   1      -5.625 -15.361   0.254 +0.02 +0.37    +0.167 HD
DOCKED: ENDBRANCH  40  42
DOCKED: ENDBRANCH  39  40
DOCKED: ENDBRANCH  38  39
DOCKED: ENDBRANCH  22  38
DOCKED: BRANCH  12  44
DOCKED: ATOM     44  C   UNL d   1     -14.658 -11.936  -8.251 -0.24 +0.00    +0.004 C 
DOCKED: ATOM     45  C   UNL d   1     -14.471 -12.193  -9.545 -0.30 +0.00    +0.012 C 
DOCKED: ENDBRANCH  12  44
DOCKED: BRANCH  17  46
DOCKED: ATOM     46  C   UNL d   1     -12.642 -19.793  -7.137 -0.03 +0.00    +0.004 C 
DOCKED: ATOM     47  C   UNL d   1     -11.665 -20.575  -7.613 -0.03 +0.00    +0.012 C 
DOCKED: ENDBRANCH  17  46
DOCKED: TORSDOF 10
DOCKED: TER
DOCKED: ENDMDL
________________________________________________________________________________


	BEGINNING GENETIC ALGORITHM DOCKING 96 of 100
Run: 96 Seed: 1437278675 881460376 [ Run 96 of 100 GA/GALS ]
Beginning LAMARCKIAN GENETIC ALGORITHM (LGA), with a maximum of 25000000 energy evaluations.

Final-Value: -13.505


	FINAL GENETIC ALGORITHM DOCKED STATE
	_______________________________________________


Detailed state:  trans -11.368 -13.904 -0.971 quatxyzw 0.489719 0.662194 -0.551017 -0.134369 center 8.287 34.468 -0.670 ntor 10 61.7713 -122.2305 -56.3396 176.0945 176.0007 127.8095 -37.3927 75.1978 -154.1364 -170.7578
State:	-11.368 -13.904  -0.971   0.494  0.668 -0.556 -164.556     61.77 -122.23  -56.34  176.09  176.00  127.81  -37.39   75.20 -154.14 -170.76

DOCKED: MODEL       96
DOCKED: USER    Run = 96
DOCKED: USER    DPF = D:/Protein_go_brrr/autodock/final/AncA/heme_O2/dock.dpf
DOCKED: USER  
DOCKED: USER    Estimated Free Energy of Binding    =   -8.65 kcal/mol  [=(1)+(2)+(3)-(4)]
DOCKED: USER    Estimated Inhibition Constant, Ki   =  457.24 nM (nanomolar)  [Temperature = 298.15 K]
DOCKED: USER    
DOCKED: USER    (1) Final Intermolecular Energy     =  -11.63 kcal/mol
DOCKED: USER        vdW + Hbond + desolv Energy     =   -7.31 kcal/mol
DOCKED: USER        Electrostatic Energy            =   -4.33 kcal/mol
DOCKED: USER    (2) Final Total Internal Energy     =   -1.87 kcal/mol
DOCKED: USER    (3) Torsional Free Energy           =   +2.98 kcal/mol
DOCKED: USER    (4) Unbound System's Energy  [=(2)] =   -1.87 kcal/mol
DOCKED: USER    
DOCKED: USER    
DOCKED: USER    NEWDPF move heme_O2_opt.pdbqt
DOCKED: USER    NEWDPF about 8.287000 34.468000 -0.670000
DOCKED: USER    NEWDPF tran0 -11.368120 -13.903506 -0.971401
DOCKED: USER    NEWDPF quaternion0 0.489719 0.662194 -0.551017 -0.134369
DOCKED: USER    NEWDPF axisangle0 0.494201 0.668254 -0.556060 -164.555753
DOCKED: USER    NEWDPF quat0 0.494201 0.668254 -0.556060 -164.555753
DOCKED: USER    NEWDPF dihe0 61.77 -122.23 -56.34 176.09 176.00 127.81 -37.39 75.20 -154.14 -170.76 
DOCKED: USER  keepresnum = 1 
DOCKED: USER  
DOCKED: REMARK  10 active torsions:
DOCKED: REMARK  status: ('A' for Active; 'I' for Inactive)
DOCKED: REMARK    1  A    between atoms: C_6  and  C_10 
DOCKED: REMARK    2  A    between atoms: C_10  and  C_11 
DOCKED: REMARK    3  A    between atoms: C_11  and  C_12 
DOCKED: REMARK    4  A    between atoms: C_12  and  O_14 
DOCKED: REMARK    5  A    between atoms: C_17  and  C_20 
DOCKED: REMARK    6  A    between atoms: C_24  and  C_27 
DOCKED: REMARK    7  A    between atoms: C_31  and  C_34 
DOCKED: REMARK    8  A    between atoms: C_34  and  C_35 
DOCKED: REMARK    9  A    between atoms: C_35  and  C_36 
DOCKED: REMARK   10  A    between atoms: C_36  and  O_38 
DOCKED: USER                              x       y       z     vdW  Elec       q    Type
DOCKED: USER                           _______ _______ _______ _____ _____    ______ ____
DOCKED: ROOT
DOCKED: ATOM      1  C   UNL d   1      -9.694 -14.203   0.296 -0.14 +0.04    +0.064 A 
DOCKED: ATOM      2  C   UNL d   1     -13.776 -16.571  -0.238 -0.11 +0.01    +0.064 A 
DOCKED: ATOM      3  C   UNL d   1     -15.250 -13.459  -3.591 -0.19 +0.01    +0.064 C 
DOCKED: ATOM      4  C   UNL d   1     -10.854 -11.290  -3.393 -0.28 +0.01    +0.064 A 
DOCKED: ATOM      5  C   UNL d   1     -10.683 -15.102   0.423 -0.11 +0.03    +0.066 A 
DOCKED: ATOM      6  C   UNL d   1     -10.658 -16.171   1.323 -0.06 -0.01    -0.021 A 
DOCKED: ATOM      7  C   UNL d   1     -11.821 -16.882   1.139 -0.06 -0.01    -0.025 A 
DOCKED: ATOM      8  C   UNL d   1     -12.545 -16.200   0.165 -0.09 +0.02    +0.066 A 
DOCKED: ATOM      9  C   UNL d   1     -12.173 -18.166   1.858 -0.02 +0.01    +0.051 C 
DOCKED: ATOM     10  C   UNL d   1     -14.594 -15.883  -1.238 -0.13 +0.01    +0.066 A 
DOCKED: ATOM     11  C   UNL d   1     -15.928 -16.213  -1.501 -0.11 -0.00    -0.021 A 
DOCKED: ATOM     12  C   UNL d   1     -16.376 -15.316  -2.452 -0.12 +0.00    +0.000 A 
DOCKED: ATOM     13  C   UNL d   1     -15.261 -14.477  -2.731 -0.15 +0.01    +0.070 A 
DOCKED: ATOM     14  C   UNL d   1     -16.749 -17.322  -0.852 -0.06 +0.01    +0.052 C 
DOCKED: ATOM     15  C   UNL d   1     -14.133 -12.609  -3.927 -0.19 +0.00    +0.066 A 
DOCKED: ATOM     16  C   UNL d   1     -14.138 -11.666  -4.954 -0.27 -0.00    -0.021 A 
DOCKED: ATOM     17  C   UNL d   1     -12.895 -11.035  -4.918 -0.37 +0.00    +0.000 A 
DOCKED: ATOM     18  C   UNL d   1     -12.215 -11.648  -3.855 -0.26 +0.01    +0.070 A 
DOCKED: ATOM     19  C   UNL d   1     -15.297 -11.491  -5.904 -0.21 +0.00    +0.052 C 
DOCKED: ATOM     20  C   UNL d   1     -10.157 -11.885  -2.406 -0.26 +0.02    +0.066 A 
DOCKED: ATOM     21  C   UNL d   1      -8.883 -11.492  -2.003 -0.29 -0.01    -0.025 A 
DOCKED: ATOM     22  C   UNL d   1      -8.548 -12.293  -0.935 -0.25 -0.01    -0.021 A 
DOCKED: ATOM     23  C   UNL d   1      -9.626 -13.162  -0.736 -0.19 +0.04    +0.066 A 
DOCKED: ATOM     24  C   UNL d   1      -8.029 -10.409  -2.609 -0.24 +0.02    +0.051 C 
DOCKED: ATOM     25  N   UNL d   1     -11.815 -15.141  -0.322 -0.08 -0.07    -0.248 N 
DOCKED: ATOM     26  N   UNL d   1     -14.180 -14.832  -1.992 -0.12 -0.03    -0.248 N 
DOCKED: ATOM     27  N   UNL d   1     -12.953 -12.651  -3.315 -0.13 -0.03    -0.248 N 
DOCKED: ATOM     28  N   UNL d   1     -10.582 -12.940  -1.661 -0.08 -0.10    -0.248 N 
DOCKED: ATOM     29 FE   UNL d   1     -12.369 -13.878  -1.828 -0.06 +0.00    +0.000 Fe
DOCKED: ATOM     30  O   UNL d   1     -12.057 -15.326  -2.305 -0.14 +0.00    +0.000 OA
DOCKED: ATOM     31  O   UNL d   1     -11.592 -14.099  -3.177 -0.20 +0.00    +0.000 OA
DOCKED: ENDROOT
DOCKED: BRANCH   6  32
DOCKED: ATOM     32  C   UNL d   1      -9.528 -16.591   2.226 -0.03 +0.03    +0.052 C 
DOCKED: BRANCH  32  33
DOCKED: ATOM     33  C   UNL d   1      -8.349 -17.186   1.462 -0.01 +0.08    +0.115 C 
DOCKED: BRANCH  33  34
DOCKED: ATOM     34  C   UNL d   1      -7.019 -16.750   2.025 +0.02 +0.19    +0.139 C 
DOCKED: ATOM     35  O   UNL d   1      -6.942 -16.410   3.195 -0.03 -1.08    -0.650 OA
DOCKED: BRANCH  34  36
DOCKED: ATOM     36  O   UNL d   1      -5.912 -16.699   1.255 -0.05 -1.39    -0.776 OA
DOCKED: ATOM     37  H   UNL d   1      -5.848 -16.117   0.490 +0.01 +0.32    +0.167 HD
DOCKED: ENDBRANCH  34  36
DOCKED: ENDBRANCH  33  34
DOCKED: ENDBRANCH  32  33
DOCKED: ENDBRANCH   6  32
DOCKED: BRANCH  22  38
DOCKED: ATOM     38  C   UNL d   1      -7.237 -12.264  -0.193 -0.04 +0.05    +0.052 C 
DOCKED: BRANCH  38  39
DOCKED: ATOM     39  C   UNL d   1      -6.076 -12.776  -1.042 -0.25 +0.16    +0.115 C 
DOCKED: BRANCH  39  40
DOCKED: ATOM     40  C   UNL d   1      -5.620 -14.153  -0.627 -0.01 +0.29    +0.139 C 
DOCKED: ATOM     41  O   UNL d   1      -4.781 -14.275   0.250 -0.32 -1.60    -0.650 OA
DOCKED: BRANCH  40  42
DOCKED: ATOM     42  O   UNL d   1      -6.162 -15.259  -1.174 -0.47 -1.63    -0.776 OA
DOCKED: ATOM     43  H   UNL d   1      -6.623 -15.914  -0.636 +0.02 +0.25    +0.167 HD
DOCKED: ENDBRANCH  40  42
DOCKED: ENDBRANCH  39  40
DOCKED: ENDBRANCH  38  39
DOCKED: ENDBRANCH  22  38
DOCKED: BRANCH  12  44
DOCKED: ATOM     44  C   UNL d   1     -17.792 -15.352  -2.989 -0.07 +0.00    +0.004 C 
DOCKED: ATOM     45  C   UNL d   1     -18.720 -14.399  -2.916 -0.10 +0.00    +0.012 C 
DOCKED: ENDBRANCH  12  44
DOCKED: BRANCH  17  46
DOCKED: ATOM     46  C   UNL d   1     -12.295  -9.980  -5.809 -0.53 +0.00    +0.004 C 
DOCKED: ATOM     47  C   UNL d   1     -11.174  -9.273  -5.617 -0.47 +0.00    +0.012 C 
DOCKED: ENDBRANCH  17  46
DOCKED: TORSDOF 10
DOCKED: TER
DOCKED: ENDMDL
________________________________________________________________________________


	BEGINNING GENETIC ALGORITHM DOCKING 97 of 100
Run: 97 Seed: 579721138 1457911599 [ Run 97 of 100 GA/GALS ]
Beginning LAMARCKIAN GENETIC ALGORITHM (LGA), with a maximum of 25000000 energy evaluations.

Final-Value: -11.656


	FINAL GENETIC ALGORITHM DOCKED STATE
	_______________________________________________


Detailed state:  trans -8.484 -17.379 -3.728 quatxyzw 0.091295 0.923152 -0.060972 -0.368427 center 8.287 34.468 -0.670 ntor 10 -77.8202 143.9708 62.2210 -114.2788 -43.9526 -72.0425 -60.5546 98.5709 -173.6218 -178.9661
State:	 -8.484 -17.379  -3.728   0.098  0.993 -0.066 -136.763    -77.82  143.97   62.22 -114.28  -43.95  -72.04  -60.55   98.57 -173.62 -178.97

DOCKED: MODEL       97
DOCKED: USER    Run = 97
DOCKED: USER    DPF = D:/Protein_go_brrr/autodock/final/AncA/heme_O2/dock.dpf
DOCKED: USER  
DOCKED: USER    Estimated Free Energy of Binding    =   -6.52 kcal/mol  [=(1)+(2)+(3)-(4)]
DOCKED: USER    Estimated Inhibition Constant, Ki   =   16.71 uM (micromolar)  [Temperature = 298.15 K]
DOCKED: USER    
DOCKED: USER    (1) Final Intermolecular Energy     =   -9.50 kcal/mol
DOCKED: USER        vdW + Hbond + desolv Energy     =   -5.22 kcal/mol
DOCKED: USER        Electrostatic Energy            =   -4.28 kcal/mol
DOCKED: USER    (2) Final Total Internal Energy     =   -2.16 kcal/mol
DOCKED: USER    (3) Torsional Free Energy           =   +2.98 kcal/mol
DOCKED: USER    (4) Unbound System's Energy  [=(2)] =   -2.16 kcal/mol
DOCKED: USER    
DOCKED: USER    
DOCKED: USER    NEWDPF move heme_O2_opt.pdbqt
DOCKED: USER    NEWDPF about 8.287000 34.468000 -0.670000
DOCKED: USER    NEWDPF tran0 -8.484175 -17.379355 -3.727602
DOCKED: USER    NEWDPF quaternion0 0.091295 0.923152 -0.060972 -0.368427
DOCKED: USER    NEWDPF axisangle0 0.098203 0.993003 -0.065585 -136.762755
DOCKED: USER    NEWDPF quat0 0.098203 0.993003 -0.065585 -136.762755
DOCKED: USER    NEWDPF dihe0 -77.82 143.97 62.22 -114.28 -43.95 -72.04 -60.55 98.57 -173.62 -178.97 
DOCKED: USER  keepresnum = 1 
DOCKED: USER  
DOCKED: REMARK  10 active torsions:
DOCKED: REMARK  status: ('A' for Active; 'I' for Inactive)
DOCKED: REMARK    1  A    between atoms: C_6  and  C_10 
DOCKED: REMARK    2  A    between atoms: C_10  and  C_11 
DOCKED: REMARK    3  A    between atoms: C_11  and  C_12 
DOCKED: REMARK    4  A    between atoms: C_12  and  O_14 
DOCKED: REMARK    5  A    between atoms: C_17  and  C_20 
DOCKED: REMARK    6  A    between atoms: C_24  and  C_27 
DOCKED: REMARK    7  A    between atoms: C_31  and  C_34 
DOCKED: REMARK    8  A    between atoms: C_34  and  C_35 
DOCKED: REMARK    9  A    between atoms: C_35  and  C_36 
DOCKED: REMARK   10  A    between atoms: C_36  and  O_38 
DOCKED: USER                              x       y       z     vdW  Elec       q    Type
DOCKED: USER                           _______ _______ _______ _____ _____    ______ ____
DOCKED: ROOT
DOCKED: ATOM      1  C   UNL d   1      -7.560 -16.879  -1.885 -0.06 +0.07    +0.064 A 
DOCKED: ATOM      2  C   UNL d   1      -6.498 -20.062  -5.247 -0.07 +0.06    +0.064 A 
DOCKED: ATOM      3  C   UNL d   1     -10.345 -18.765  -7.819 -0.16 +0.03    +0.064 C 
DOCKED: ATOM      4  C   UNL d   1     -11.180 -15.159  -4.600 -0.03 +0.02    +0.064 A 
DOCKED: ATOM      5  C   UNL d   1      -6.956 -17.849  -2.591 -0.07 +0.07    +0.066 A 
DOCKED: ATOM      6  C   UNL d   1      -5.802 -18.519  -2.173 -0.05 -0.02    -0.021 A 
DOCKED: ATOM      7  C   UNL d   1      -5.469 -19.410  -3.165 -0.03 -0.02    -0.025 A 
DOCKED: ATOM      8  C   UNL d   1      -6.456 -19.295  -4.140 -0.05 +0.06    +0.066 A 
DOCKED: ATOM      9  C   UNL d   1      -4.240 -20.293  -3.160 -0.01 +0.03    +0.051 C 
DOCKED: ATOM     10  C   UNL d   1      -7.520 -20.003  -6.293 -0.10 +0.06    +0.066 A 
DOCKED: ATOM     11  C   UNL d   1      -7.607 -20.931  -7.337 -0.09 -0.02    -0.021 A 
DOCKED: ATOM     12  C   UNL d   1      -8.721 -20.584  -8.079 -0.12 +0.00    +0.000 A 
DOCKED: ATOM     13  C   UNL d   1      -9.255 -19.431  -7.439 -0.13 +0.05    +0.070 A 
DOCKED: ATOM     14  C   UNL d   1      -6.683 -22.114  -7.599 -0.05 +0.06    +0.052 C 
DOCKED: ATOM     15  C   UNL d   1     -10.897 -17.574  -7.220 -0.17 +0.03    +0.066 A 
DOCKED: ATOM     16  C   UNL d   1     -11.944 -16.829  -7.762 -0.14 -0.00    -0.021 A 
DOCKED: ATOM     17  C   UNL d   1     -12.199 -15.795  -6.861 -0.20 +0.00    +0.000 A 
DOCKED: ATOM     18  C   UNL d   1     -11.278 -15.990  -5.823 -0.16 +0.02    +0.070 A 
DOCKED: ATOM     19  C   UNL d   1     -12.564 -17.135  -9.102 -0.17 +0.01    +0.052 C 
DOCKED: ATOM     20  C   UNL d   1     -10.281 -15.292  -3.606 +0.01 +0.03    +0.066 A 
DOCKED: ATOM     21  C   UNL d   1     -10.249 -14.489  -2.470 -0.13 -0.01    -0.025 A 
DOCKED: ATOM     22  C   UNL d   1      -9.241 -14.982  -1.672 -0.10 -0.01    -0.021 A 
DOCKED: ATOM     23  C   UNL d   1      -8.681 -16.061  -2.362 -0.08 +0.05    +0.066 A 
DOCKED: ATOM     24  C   UNL d   1     -11.134 -13.309  -2.162 -0.16 +0.02    +0.051 C 
DOCKED: ATOM     25  N   UNL d   1      -7.335 -18.288  -3.816 -0.05 -0.22    -0.248 N 
DOCKED: ATOM     26  N   UNL d   1      -8.515 -19.082  -6.356 -0.08 -0.19    -0.248 N 
DOCKED: ATOM     27  N   UNL d   1     -10.447 -17.029  -6.094 -0.10 -0.11    -0.248 N 
DOCKED: ATOM     28  N   UNL d   1      -9.286 -16.217  -3.558 -0.06 -0.16    -0.248 N 
DOCKED: ATOM     29 FE   UNL d   1      -8.905 -17.638  -4.948 -0.03 +0.00    +0.000 Fe
DOCKED: ATOM     30  O   UNL d   1      -7.512 -17.294  -5.551 -0.27 +0.00    +0.000 OA
DOCKED: ATOM     31  O   UNL d   1      -8.678 -16.239  -5.629 -0.27 +0.00    +0.000 OA
DOCKED: ENDROOT
DOCKED: BRANCH   6  32
DOCKED: ATOM     32  C   UNL d   1      -4.964 -18.239  -0.952 -0.04 +0.05    +0.052 C 
DOCKED: BRANCH  32  33
DOCKED: ATOM     33  C   UNL d   1      -3.852 -17.228  -1.217 -0.07 +0.16    +0.115 C 
DOCKED: BRANCH  33  34
DOCKED: ATOM     34  C   UNL d   1      -4.009 -15.973  -0.395 -0.12 +0.25    +0.139 C 
DOCKED: ATOM     35  O   UNL d   1      -3.071 -15.199  -0.290 -0.06 -1.07    -0.650 OA
DOCKED: BRANCH  34  36
DOCKED: ATOM     36  O   UNL d   1      -5.159 -15.696   0.253 -0.53 -1.68    -0.776 OA
DOCKED: ATOM     37  H   UNL d   1      -5.935 -15.353  -0.206 +0.02 +0.33    +0.167 HD
DOCKED: ENDBRANCH  34  36
DOCKED: ENDBRANCH  33  34
DOCKED: ENDBRANCH  32  33
DOCKED: ENDBRANCH   6  32
DOCKED: BRANCH  22  38
DOCKED: ATOM     38  C   UNL d   1      -8.804 -14.403  -0.351 -0.13 +0.04    +0.052 C 
DOCKED: BRANCH  38  39
DOCKED: ATOM     39  C   UNL d   1      -7.950 -13.148  -0.519 -0.20 +0.11    +0.115 C 
DOCKED: BRANCH  39  40
DOCKED: ATOM     40  C   UNL d   1      -6.503 -13.469  -0.797 -0.20 +0.21    +0.139 C 
DOCKED: ATOM     41  O   UNL d   1      -6.178 -13.911  -1.887 +0.09 -1.56    -0.650 OA
DOCKED: BRANCH  40  42
DOCKED: ATOM     42  O   UNL d   1      -5.548 -13.228   0.122 -0.09 -1.40    -0.776 OA
DOCKED: ATOM     43  H   UNL d   1      -4.773 -13.795   0.206 +0.03 +0.37    +0.167 HD
DOCKED: ENDBRANCH  40  42
DOCKED: ENDBRANCH  39  40
DOCKED: ENDBRANCH  38  39
DOCKED: ENDBRANCH  22  38
DOCKED: BRANCH  12  44
DOCKED: ATOM     44  C   UNL d   1      -9.150 -21.371  -9.300 -0.10 +0.00    +0.004 C 
DOCKED: ATOM     45  C   UNL d   1      -9.309 -20.927 -10.546 -0.12 +0.01    +0.012 C 
DOCKED: ENDBRANCH  12  44
DOCKED: BRANCH  17  46
DOCKED: ATOM     46  C   UNL d   1     -13.168 -14.644  -6.927 -0.22 +0.00    +0.004 C 
DOCKED: ATOM     47  C   UNL d   1     -12.901 -13.333  -6.883 -0.31 +0.00    +0.012 C 
DOCKED: ENDBRANCH  17  46
DOCKED: TORSDOF 10
DOCKED: TER
DOCKED: ENDMDL
________________________________________________________________________________


	BEGINNING GENETIC ALGORITHM DOCKING 98 of 100
Run: 98 Seed: 62011092 488225895 [ Run 98 of 100 GA/GALS ]
Beginning LAMARCKIAN GENETIC ALGORITHM (LGA), with a maximum of 25000000 energy evaluations.

Final-Value: -11.693


	FINAL GENETIC ALGORITHM DOCKED STATE
	_______________________________________________


Detailed state:  trans -11.696 -14.067 -1.165 quatxyzw 0.728970 0.582635 -0.349540 -0.083424 center 8.287 34.468 -0.670 ntor 10 144.2663 -16.7832 -40.9467 75.9914 -123.0410 -41.3478 -120.9484 -178.9914 -167.7267 -179.5780
State:	-11.696 -14.067  -1.165   0.732  0.585 -0.351 -170.429    144.27  -16.78  -40.95   75.99 -123.04  -41.35 -120.95 -178.99 -167.73 -179.58

DOCKED: MODEL       98
DOCKED: USER    Run = 98
DOCKED: USER    DPF = D:/Protein_go_brrr/autodock/final/AncA/heme_O2/dock.dpf
DOCKED: USER  
DOCKED: USER    Estimated Free Energy of Binding    =   -6.37 kcal/mol  [=(1)+(2)+(3)-(4)]
DOCKED: USER    Estimated Inhibition Constant, Ki   =   21.46 uM (micromolar)  [Temperature = 298.15 K]
DOCKED: USER    
DOCKED: USER    (1) Final Intermolecular Energy     =   -9.35 kcal/mol
DOCKED: USER        vdW + Hbond + desolv Energy     =   -7.28 kcal/mol
DOCKED: USER        Electrostatic Energy            =   -2.07 kcal/mol
DOCKED: USER    (2) Final Total Internal Energy     =   -2.34 kcal/mol
DOCKED: USER    (3) Torsional Free Energy           =   +2.98 kcal/mol
DOCKED: USER    (4) Unbound System's Energy  [=(2)] =   -2.34 kcal/mol
DOCKED: USER    
DOCKED: USER    
DOCKED: USER    NEWDPF move heme_O2_opt.pdbqt
DOCKED: USER    NEWDPF about 8.287000 34.468000 -0.670000
DOCKED: USER    NEWDPF tran0 -11.695567 -14.066794 -1.164535
DOCKED: USER    NEWDPF quaternion0 0.728970 0.582635 -0.349540 -0.083424
DOCKED: USER    NEWDPF axisangle0 0.731520 0.584674 -0.350763 -170.429178
DOCKED: USER    NEWDPF quat0 0.731520 0.584674 -0.350763 -170.429178
DOCKED: USER    NEWDPF dihe0 144.27 -16.78 -40.95 75.99 -123.04 -41.35 -120.95 -178.99 -167.73 -179.58 
DOCKED: USER  keepresnum = 1 
DOCKED: USER  
DOCKED: REMARK  10 active torsions:
DOCKED: REMARK  status: ('A' for Active; 'I' for Inactive)
DOCKED: REMARK    1  A    between atoms: C_6  and  C_10 
DOCKED: REMARK    2  A    between atoms: C_10  and  C_11 
DOCKED: REMARK    3  A    between atoms: C_11  and  C_12 
DOCKED: REMARK    4  A    between atoms: C_12  and  O_14 
DOCKED: REMARK    5  A    between atoms: C_17  and  C_20 
DOCKED: REMARK    6  A    between atoms: C_24  and  C_27 
DOCKED: REMARK    7  A    between atoms: C_31  and  C_34 
DOCKED: REMARK    8  A    between atoms: C_34  and  C_35 
DOCKED: REMARK    9  A    between atoms: C_35  and  C_36 
DOCKED: REMARK   10  A    between atoms: C_36  and  O_38 
DOCKED: USER                              x       y       z     vdW  Elec       q    Type
DOCKED: USER                           _______ _______ _______ _____ _____    ______ ____
DOCKED: ROOT
DOCKED: ATOM      1  C   UNL d   1     -10.963 -15.308   0.392 -0.10 +0.03    +0.064 A 
DOCKED: ATOM      2  C   UNL d   1     -14.877 -15.502  -2.292 -0.12 +0.01    +0.064 A 
DOCKED: ATOM      3  C   UNL d   1     -13.616 -11.470  -4.584 -0.32 +0.00    +0.064 C 
DOCKED: ATOM      4  C   UNL d   1      -9.351 -11.522  -2.160 -0.28 +0.03    +0.064 A 
DOCKED: ATOM      5  C   UNL d   1     -12.129 -15.691  -0.152 -0.10 +0.02    +0.066 A 
DOCKED: ATOM      6  C   UNL d   1     -12.851 -16.816   0.255 -0.09 -0.01    -0.021 A 
DOCKED: ATOM      7  C   UNL d   1     -13.963 -16.898  -0.551 -0.09 -0.01    -0.025 A 
DOCKED: ATOM      8  C   UNL d   1     -13.914 -15.792  -1.396 -0.13 +0.01    +0.066 A 
DOCKED: ATOM      9  C   UNL d   1     -14.985 -18.012  -0.505 -0.04 +0.01    +0.051 C 
DOCKED: ATOM     10  C   UNL d   1     -14.892 -14.345  -3.189 -0.14 +0.01    +0.066 A 
DOCKED: ATOM     11  C   UNL d   1     -15.992 -14.002  -3.983 -0.10 -0.00    -0.021 A 
DOCKED: ATOM     12  C   UNL d   1     -15.655 -12.832  -4.638 -0.14 +0.00    +0.000 A 
DOCKED: ATOM     13  C   UNL d   1     -14.334 -12.528  -4.206 -0.20 +0.01    +0.070 A 
DOCKED: ATOM     14  C   UNL d   1     -17.319 -14.744  -4.091 -0.05 +0.01    +0.052 C 
DOCKED: ATOM     15  C   UNL d   1     -12.264 -11.145  -4.198 -0.26 +0.00    +0.066 A 
DOCKED: ATOM     16  C   UNL d   1     -11.509 -10.114  -4.755 -0.46 -0.00    -0.021 A 
DOCKED: ATOM     17  C   UNL d   1     -10.288 -10.110  -4.080 -0.41 +0.00    +0.000 A 
DOCKED: ATOM     18  C   UNL d   1     -10.393 -11.152  -3.148 -0.29 +0.02    +0.070 A 
DOCKED: ATOM     19  C   UNL d   1     -11.993  -9.269  -5.906 -0.41 +0.00    +0.052 C 
DOCKED: ATOM     20  C   UNL d   1      -9.401 -12.543  -1.282 -0.23 +0.04    +0.066 A 
DOCKED: ATOM     21  C   UNL d   1      -8.396 -12.832  -0.364 -0.22 -0.02    -0.025 A 
DOCKED: ATOM     22  C   UNL d   1      -8.850 -13.891   0.390 -0.17 -0.02    -0.021 A 
DOCKED: ATOM     23  C   UNL d   1     -10.113 -14.222  -0.110 -0.10 +0.04    +0.066 A 
DOCKED: ATOM     24  C   UNL d   1      -7.068 -12.135  -0.215 +0.02 +0.05    +0.051 C 
DOCKED: ATOM     25  N   UNL d   1     -12.751 -15.085  -1.194 -0.12 -0.05    -0.248 N 
DOCKED: ATOM     26  N   UNL d   1     -13.876 -13.456  -3.328 -0.13 -0.03    -0.248 N 
DOCKED: ATOM     27  N   UNL d   1     -11.568 -11.817  -3.284 -0.18 -0.04    -0.248 N 
DOCKED: ATOM     28  N   UNL d   1     -10.425 -13.429  -1.156 -0.12 -0.11    -0.248 N 
DOCKED: ATOM     29 FE   UNL d   1     -12.137 -13.440  -2.236 -0.06 +0.00    +0.000 Fe
DOCKED: ATOM     30  O   UNL d   1     -12.117 -14.755  -3.069 -0.16 +0.00    +0.000 OA
DOCKED: ATOM     31  O   UNL d   1     -10.949 -13.709  -3.231 -0.20 +0.00    +0.000 OA
DOCKED: ENDROOT
DOCKED: BRANCH   6  32
DOCKED: ATOM     32  C   UNL d   1     -12.446 -17.855   1.268 -0.04 +0.01    +0.052 C 
DOCKED: BRANCH  32  33
DOCKED: ATOM     33  C   UNL d   1     -11.551 -18.941   0.679 -0.00 +0.03    +0.115 C 
DOCKED: BRANCH  33  34
DOCKED: ATOM     34  C   UNL d   1     -10.303 -18.376   0.046 +0.00 +0.05    +0.139 C 
DOCKED: ATOM     35  O   UNL d   1      -9.319 -18.166   0.736 +0.02 -0.31    -0.650 OA
DOCKED: BRANCH  34  36
DOCKED: ATOM     36  O   UNL d   1     -10.258 -18.070  -1.267 +0.03 -0.32    -0.776 OA
DOCKED: ATOM     37  H   UNL d   1      -9.758 -17.314  -1.598 +0.02 +0.08    +0.167 HD
DOCKED: ENDBRANCH  34  36
DOCKED: ENDBRANCH  33  34
DOCKED: ENDBRANCH  32  33
DOCKED: ENDBRANCH   6  32
DOCKED: BRANCH  22  38
DOCKED: ATOM     38  C   UNL d   1      -8.080 -14.583   1.486 -0.13 +0.06    +0.052 C 
DOCKED: BRANCH  38  39
DOCKED: ATOM     39  C   UNL d   1      -7.025 -15.541   0.940 +0.02 +0.19    +0.115 C 
DOCKED: BRANCH  39  40
DOCKED: ATOM     40  C   UNL d   1      -7.001 -15.574  -0.568 -0.10 +0.19    +0.139 C 
DOCKED: ATOM     41  O   UNL d   1      -6.120 -14.985  -1.174 -0.47 -1.42    -0.650 OA
DOCKED: BRANCH  40  42
DOCKED: ATOM     42  O   UNL d   1      -7.909 -16.287  -1.263 +0.02 -0.76    -0.776 OA
DOCKED: ATOM     43  H   UNL d   1      -8.467 -16.947  -0.834 +0.02 +0.12    +0.167 HD
DOCKED: ENDBRANCH  40  42
DOCKED: ENDBRANCH  39  40
DOCKED: ENDBRANCH  38  39
DOCKED: ENDBRANCH  22  38
DOCKED: BRANCH  12  44
DOCKED: ATOM     44  C   UNL d   1     -16.607 -12.141  -5.592 -0.12 +0.00    +0.004 C 
DOCKED: ATOM     45  C   UNL d   1     -16.898 -10.843  -5.662 -0.22 +0.00    +0.012 C 
DOCKED: ENDBRANCH  12  44
DOCKED: BRANCH  17  46
DOCKED: ATOM     46  C   UNL d   1      -9.054  -9.271  -4.275 -0.40 +0.00    +0.004 C 
DOCKED: ATOM     47  C   UNL d   1      -8.892  -7.965  -4.029 -0.54 +0.00    +0.012 C 
DOCKED: ENDBRANCH  17  46
DOCKED: TORSDOF 10
DOCKED: TER
DOCKED: ENDMDL
________________________________________________________________________________


	BEGINNING GENETIC ALGORITHM DOCKING 99 of 100
Run: 99 Seed: 346592717 2043811326 [ Run 99 of 100 GA/GALS ]
Beginning LAMARCKIAN GENETIC ALGORITHM (LGA), with a maximum of 25000000 energy evaluations.

Final-Value: -11.500


	FINAL GENETIC ALGORITHM DOCKED STATE
	_______________________________________________


Detailed state:  trans -5.951 -14.170 -1.317 quatxyzw 0.062184 0.430559 0.692837 -0.575090 center 8.287 34.468 -0.670 ntor 10 104.7989 48.6328 49.8599 63.1030 124.3219 133.0688 89.7647 170.1159 -147.4099 8.8468
State:	 -5.951 -14.170  -1.317   0.076  0.526  0.847 -109.788    104.80   48.63   49.86   63.10  124.32  133.07   89.76  170.12 -147.41    8.85

DOCKED: MODEL       99
DOCKED: USER    Run = 99
DOCKED: USER    DPF = D:/Protein_go_brrr/autodock/final/AncA/heme_O2/dock.dpf
DOCKED: USER  
DOCKED: USER    Estimated Free Energy of Binding    =   -7.76 kcal/mol  [=(1)+(2)+(3)-(4)]
DOCKED: USER    Estimated Inhibition Constant, Ki   =    2.05 uM (micromolar)  [Temperature = 298.15 K]
DOCKED: USER    
DOCKED: USER    (1) Final Intermolecular Energy     =  -10.74 kcal/mol
DOCKED: USER        vdW + Hbond + desolv Energy     =   -7.95 kcal/mol
DOCKED: USER        Electrostatic Energy            =   -2.80 kcal/mol
DOCKED: USER    (2) Final Total Internal Energy     =   -0.76 kcal/mol
DOCKED: USER    (3) Torsional Free Energy           =   +2.98 kcal/mol
DOCKED: USER    (4) Unbound System's Energy  [=(2)] =   -0.76 kcal/mol
DOCKED: USER    
DOCKED: USER    
DOCKED: USER    NEWDPF move heme_O2_opt.pdbqt
DOCKED: USER    NEWDPF about 8.287000 34.468000 -0.670000
DOCKED: USER    NEWDPF tran0 -5.950951 -14.169546 -1.316908
DOCKED: USER    NEWDPF quaternion0 0.062184 0.430559 0.692837 -0.575090
DOCKED: USER    NEWDPF axisangle0 0.076012 0.526298 0.846896 -109.788089
DOCKED: USER    NEWDPF quat0 0.076012 0.526298 0.846896 -109.788089
DOCKED: USER    NEWDPF dihe0 104.80 48.63 49.86 63.10 124.32 133.07 89.76 170.12 -147.41 8.85 
DOCKED: USER  keepresnum = 1 
DOCKED: USER  
DOCKED: REMARK  10 active torsions:
DOCKED: REMARK  status: ('A' for Active; 'I' for Inactive)
DOCKED: REMARK    1  A    between atoms: C_6  and  C_10 
DOCKED: REMARK    2  A    between atoms: C_10  and  C_11 
DOCKED: REMARK    3  A    between atoms: C_11  and  C_12 
DOCKED: REMARK    4  A    between atoms: C_12  and  O_14 
DOCKED: REMARK    5  A    between atoms: C_17  and  C_20 
DOCKED: REMARK    6  A    between atoms: C_24  and  C_27 
DOCKED: REMARK    7  A    between atoms: C_31  and  C_34 
DOCKED: REMARK    8  A    between atoms: C_34  and  C_35 
DOCKED: REMARK    9  A    between atoms: C_35  and  C_36 
DOCKED: REMARK   10  A    between atoms: C_36  and  O_38 
DOCKED: USER                              x       y       z     vdW  Elec       q    Type
DOCKED: USER                           _______ _______ _______ _____ _____    ______ ____
DOCKED: ROOT
DOCKED: ATOM      1  C   UNL d   1      -6.245 -16.161  -0.647 -0.07 +0.10    +0.064 A 
DOCKED: ATOM      2  C   UNL d   1      -2.451 -13.303  -0.646 -0.10 +0.08    +0.064 A 
DOCKED: ATOM      3  C   UNL d   1      -4.969  -9.807  -2.776 -0.31 +0.04    +0.064 C 
DOCKED: ATOM      4  C   UNL d   1      -9.004 -12.565  -2.350 -0.17 +0.04    +0.064 A 
DOCKED: ATOM      5  C   UNL d   1      -5.008 -15.668  -0.471 -0.11 +0.13    +0.066 A 
DOCKED: ATOM      6  C   UNL d   1      -3.953 -16.386   0.100 -0.12 -0.03    -0.021 A 
DOCKED: ATOM      7  C   UNL d   1      -2.866 -15.545   0.140 -0.11 -0.04    -0.025 A 
DOCKED: ATOM      8  C   UNL d   1      -3.273 -14.352  -0.451 -0.13 +0.12    +0.066 A 
DOCKED: ATOM      9  C   UNL d   1      -1.526 -15.891   0.751 -0.10 +0.05    +0.051 C 
DOCKED: ATOM     10  C   UNL d   1      -2.815 -12.035  -1.280 -0.27 +0.07    +0.066 A 
DOCKED: ATOM     11  C   UNL d   1      -1.884 -11.042  -1.605 -0.33 -0.01    -0.021 A 
DOCKED: ATOM     12  C   UNL d   1      -2.588 -10.033  -2.236 -0.39 +0.00    +0.000 A 
DOCKED: ATOM     13  C   UNL d   1      -3.941 -10.472  -2.250 -0.34 +0.05    +0.070 A 
DOCKED: ATOM     14  C   UNL d   1      -0.381 -11.067  -1.348 -0.35 +0.02    +0.052 C 
DOCKED: ATOM     15  C   UNL d   1      -6.357 -10.201  -2.779 +0.09 +0.04    +0.066 A 
DOCKED: ATOM     16  C   UNL d   1      -7.409  -9.386  -3.198 -0.17 -0.01    -0.021 A 
DOCKED: ATOM     17  C   UNL d   1      -8.570 -10.151  -3.085 -0.25 +0.00    +0.000 A 
DOCKED: ATOM     18  C   UNL d   1      -8.133 -11.392  -2.600 -0.23 +0.04    +0.070 A 
DOCKED: ATOM     19  C   UNL d   1      -7.221  -7.948  -3.612 -0.35 +0.02    +0.052 C 
DOCKED: ATOM     20  C   UNL d   1      -8.625 -13.755  -1.845 -0.15 +0.05    +0.066 A 
DOCKED: ATOM     21  C   UNL d   1      -9.488 -14.829  -1.647 -0.10 -0.02    -0.025 A 
DOCKED: ATOM     22  C   UNL d   1      -8.714 -15.871  -1.188 -0.05 -0.02    -0.021 A 
DOCKED: ATOM     23  C   UNL d   1      -7.405 -15.387  -1.105 -0.09 +0.09    +0.066 A 
DOCKED: ATOM     24  C   UNL d   1     -10.976 -14.859  -1.881 -0.15 +0.02    +0.051 C 
DOCKED: ATOM     25  N   UNL d   1      -4.611 -14.406  -0.768 +0.12 -0.58    -0.248 N 
DOCKED: ATOM     26  N   UNL d   1      -4.070 -11.689  -1.663 -0.20 -0.30    -0.248 N 
DOCKED: ATOM     27  N   UNL d   1      -6.799 -11.379  -2.350 -0.14 -0.20    -0.248 N 
DOCKED: ATOM     28  N   UNL d   1      -7.363 -14.087  -1.463 -0.10 -0.33    -0.248 N 
DOCKED: ATOM     29 FE   UNL d   1      -5.730 -12.894  -1.563 -0.05 +0.00    +0.000 Fe
DOCKED: ATOM     30  O   UNL d   1      -5.286 -12.641  -0.093 -0.28 +0.00    +0.000 OA
DOCKED: ATOM     31  O   UNL d   1      -6.737 -12.233  -0.551 -0.31 +0.00    +0.000 OA
DOCKED: ENDROOT
DOCKED: BRANCH   6  32
DOCKED: ATOM     32  C   UNL d   1      -3.998 -17.762   0.711 -0.06 +0.06    +0.052 C 
DOCKED: BRANCH  32  33
DOCKED: ATOM     33  C   UNL d   1      -4.894 -17.835   1.943 -0.05 +0.14    +0.115 C 
DOCKED: BRANCH  33  34
DOCKED: ATOM     34  C   UNL d   1      -4.132 -17.596   3.223 +0.13 +0.19    +0.139 C 
DOCKED: ATOM     35  O   UNL d   1      -2.941 -17.856   3.274 -0.03 -0.58    -0.650 OA
DOCKED: BRANCH  34  36
DOCKED: ATOM     36  O   UNL d   1      -4.745 -17.125   4.329 -0.55 -1.22    -0.776 OA
DOCKED: ATOM     37  H   UNL d   1      -4.946 -17.692   5.082 +0.01 +0.15    +0.167 HD
DOCKED: ENDBRANCH  34  36
DOCKED: ENDBRANCH  33  34
DOCKED: ENDBRANCH  32  33
DOCKED: ENDBRANCH   6  32
DOCKED: BRANCH  22  38
DOCKED: ATOM     38  C   UNL d   1      -9.221 -17.234  -0.792 -0.01 +0.03    +0.052 C 
DOCKED: BRANCH  38  39
DOCKED: ATOM     39  C   UNL d   1      -8.780 -18.325  -1.765 -0.00 +0.06    +0.115 C 
DOCKED: BRANCH  39  40
DOCKED: ATOM     40  C   UNL d   1      -8.172 -17.762  -3.025 -0.05 +0.11    +0.139 C 
DOCKED: ATOM     41  O   UNL d   1      -8.898 -17.388  -3.933 +0.02 -0.43    -0.650 OA
DOCKED: BRANCH  40  42
DOCKED: ATOM     42  O   UNL d   1      -6.839 -17.615  -3.150 -0.00 -0.90    -0.776 OA
DOCKED: ATOM     43  H   UNL d   1      -6.232 -18.343  -2.969 +0.02 +0.17    +0.167 HD
DOCKED: ENDBRANCH  40  42
DOCKED: ENDBRANCH  39  40
DOCKED: ENDBRANCH  38  39
DOCKED: ENDBRANCH  22  38
DOCKED: BRANCH  12  44
DOCKED: ATOM     44  C   UNL d   1      -1.911  -8.779  -2.747 -0.46 +0.00    +0.004 C 
DOCKED: ATOM     45  C   UNL d   1      -2.311  -7.516  -2.603 -0.52 +0.00    +0.012 C 
DOCKED: ENDBRANCH  12  44
DOCKED: BRANCH  17  46
DOCKED: ATOM     46  C   UNL d   1     -10.013  -9.800  -3.332 -0.52 +0.00    +0.004 C 
DOCKED: ATOM     47  C   UNL d   1     -10.568  -9.315  -4.450 -0.57 +0.00    +0.012 C 
DOCKED: ENDBRANCH  17  46
DOCKED: TORSDOF 10
DOCKED: TER
DOCKED: ENDMDL
________________________________________________________________________________


	BEGINNING GENETIC ALGORITHM DOCKING 100 of 100
Run: 100 Seed: 2104033138 436120588 [ Run 100 of 100 GA/GALS ]
Beginning LAMARCKIAN GENETIC ALGORITHM (LGA), with a maximum of 25000000 energy evaluations.

Final-Value: -12.557


	FINAL GENETIC ALGORITHM DOCKED STATE
	_______________________________________________


Detailed state:  trans -6.779 -10.562 -1.976 quatxyzw 0.958675 -0.002238 0.084104 0.271779 center 8.287 34.468 -0.670 ntor 10 -128.7748 -22.1518 40.4377 -109.7138 -158.0590 -180.0000 87.9202 -109.2767 -155.7958 151.8318
State:	 -6.779 -10.562  -1.976   0.996 -0.002  0.087 148.460   -128.77  -22.15   40.44 -109.71 -158.06 -180.00   87.92 -109.28 -155.80  151.83

DOCKED: MODEL      100
DOCKED: USER    Run = 100
DOCKED: USER    DPF = D:/Protein_go_brrr/autodock/final/AncA/heme_O2/dock.dpf
DOCKED: USER  
DOCKED: USER    Estimated Free Energy of Binding    =   -8.86 kcal/mol  [=(1)+(2)+(3)-(4)]
DOCKED: USER    Estimated Inhibition Constant, Ki   =  320.07 nM (nanomolar)  [Temperature = 298.15 K]
DOCKED: USER    
DOCKED: USER    (1) Final Intermolecular Energy     =  -11.84 kcal/mol
DOCKED: USER        vdW + Hbond + desolv Energy     =  -10.50 kcal/mol
DOCKED: USER        Electrostatic Energy            =   -1.34 kcal/mol
DOCKED: USER    (2) Final Total Internal Energy     =   -0.71 kcal/mol
DOCKED: USER    (3) Torsional Free Energy           =   +2.98 kcal/mol
DOCKED: USER    (4) Unbound System's Energy  [=(2)] =   -0.71 kcal/mol
DOCKED: USER    
DOCKED: USER    
DOCKED: USER    NEWDPF move heme_O2_opt.pdbqt
DOCKED: USER    NEWDPF about 8.287000 34.468000 -0.670000
DOCKED: USER    NEWDPF tran0 -6.778941 -10.561925 -1.976052
DOCKED: USER    NEWDPF quaternion0 0.958675 -0.002238 0.084104 0.271779
DOCKED: USER    NEWDPF axisangle0 0.996171 -0.002326 0.087393 148.459689
DOCKED: USER    NEWDPF quat0 0.996171 -0.002326 0.087393 148.459689
DOCKED: USER    NEWDPF dihe0 -128.77 -22.15 40.44 -109.71 -158.06 -180.00 87.92 -109.28 -155.80 151.83 
DOCKED: USER  keepresnum = 1 
DOCKED: USER  
DOCKED: REMARK  10 active torsions:
DOCKED: REMARK  status: ('A' for Active; 'I' for Inactive)
DOCKED: REMARK    1  A    between atoms: C_6  and  C_10 
DOCKED: REMARK    2  A    between atoms: C_10  and  C_11 
DOCKED: REMARK    3  A    between atoms: C_11  and  C_12 
DOCKED: REMARK    4  A    between atoms: C_12  and  O_14 
DOCKED: REMARK    5  A    between atoms: C_17  and  C_20 
DOCKED: REMARK    6  A    between atoms: C_24  and  C_27 
DOCKED: REMARK    7  A    between atoms: C_31  and  C_34 
DOCKED: REMARK    8  A    between atoms: C_34  and  C_35 
DOCKED: REMARK    9  A    between atoms: C_35  and  C_36 
DOCKED: REMARK   10  A    between atoms: C_36  and  O_38 
DOCKED: USER                              x       y       z     vdW  Elec       q    Type
DOCKED: USER                           _______ _______ _______ _____ _____    ______ ____
DOCKED: ROOT
DOCKED: ATOM      1  C   UNL d   1      -8.728 -11.398  -1.919 -0.26 +0.03    +0.064 A 
DOCKED: ATOM      2  C   UNL d   1      -7.080  -7.202  -3.416 -0.36 +0.02    +0.064 A 
DOCKED: ATOM      3  C   UNL d   1      -2.600  -8.410  -2.162 -0.49 +0.02    +0.064 C 
DOCKED: ATOM      4  C   UNL d   1      -4.210 -12.911  -1.060 -0.14 +0.11    +0.064 A 
DOCKED: ATOM      5  C   UNL d   1      -8.645 -10.159  -2.430 -0.14 +0.03    +0.066 A 
DOCKED: ATOM      6  C   UNL d   1      -9.742  -9.429  -2.894 -0.47 -0.00    -0.021 A 
DOCKED: ATOM      7  C   UNL d   1      -9.261  -8.231  -3.368 -0.44 -0.01    -0.025 A 
DOCKED: ATOM      8  C   UNL d   1      -7.888  -8.243  -3.135 -0.29 +0.02    +0.066 A 
DOCKED: ATOM      9  C   UNL d   1     -10.101  -7.162  -4.032 -0.33 +0.01    +0.051 C 
DOCKED: ATOM     10  C   UNL d   1      -5.637  -7.148  -3.174 +0.52 +0.04    +0.066 A 
DOCKED: ATOM     11  C   UNL d   1      -4.874  -5.985  -3.331 -0.35 -0.01    -0.021 A 
DOCKED: ATOM     12  C   UNL d   1      -3.583  -6.309  -2.957 -0.36 +0.00    +0.000 A 
DOCKED: ATOM     13  C   UNL d   1      -3.630  -7.684  -2.596 -0.37 +0.03    +0.070 A 
DOCKED: ATOM     14  C   UNL d   1      -5.362  -4.617  -3.792 -0.39 +0.01    +0.052 C 
DOCKED: ATOM     15  C   UNL d   1      -2.599  -9.812  -1.820 -0.39 +0.03    +0.066 A 
DOCKED: ATOM     16  C   UNL d   1      -1.455 -10.554  -1.530 -0.35 -0.01    -0.021 A 
DOCKED: ATOM     17  C   UNL d   1      -1.889 -11.841  -1.213 -0.30 +0.00    +0.000 A 
DOCKED: ATOM     18  C   UNL d   1      -3.284 -11.787  -1.334 -0.28 +0.08    +0.070 A 
DOCKED: ATOM     19  C   UNL d   1      -0.060  -9.989  -1.633 +0.14 +0.01    +0.052 C 
DOCKED: ATOM     20  C   UNL d   1      -5.549 -12.906  -1.207 -0.19 +0.11    +0.066 A 
DOCKED: ATOM     21  C   UNL d   1      -6.370 -13.992  -0.916 -0.12 -0.04    -0.025 A 
DOCKED: ATOM     22  C   UNL d   1      -7.663 -13.570  -1.129 -0.19 -0.02    -0.021 A 
DOCKED: ATOM     23  C   UNL d   1      -7.582 -12.243  -1.562 -0.22 +0.06    +0.066 A 
DOCKED: ATOM     24  C   UNL d   1      -5.943 -15.363  -0.461 -0.14 +0.10    +0.051 C 
DOCKED: ATOM     25  N   UNL d   1      -7.500  -9.457  -2.618 +0.05 -0.11    -0.248 N 
DOCKED: ATOM     26  N   UNL d   1      -4.883  -8.188  -2.736 -0.09 -0.12    -0.248 N 
DOCKED: ATOM     27  N   UNL d   1      -3.692 -10.569  -1.776 -0.22 -0.18    -0.248 N 
DOCKED: ATOM     28  N   UNL d   1      -6.292 -11.858  -1.651 -0.10 -0.26    -0.248 N 
DOCKED: ATOM     29 FE   UNL d   1      -5.590 -10.037  -2.189 -0.08 +0.00    +0.000 Fe
DOCKED: ATOM     30  O   UNL d   1      -5.876  -9.893  -3.712 -0.27 +0.00    +0.000 OA
DOCKED: ATOM     31  O   UNL d   1      -4.991 -11.089  -3.193 -0.48 +0.00    +0.000 OA
DOCKED: ENDROOT
DOCKED: BRANCH   6  32
DOCKED: ATOM     32  C   UNL d   1     -11.172  -9.889  -3.017 -0.38 +0.00    +0.052 C 
DOCKED: BRANCH  32  33
DOCKED: ATOM     33  C   UNL d   1     -11.377 -10.889  -4.150 -0.36 +0.02    +0.115 C 
DOCKED: BRANCH  33  34
DOCKED: ATOM     34  C   UNL d   1     -11.817 -10.226  -5.431 -0.45 +0.01    +0.139 C 
DOCKED: ATOM     35  O   UNL d   1     -11.189  -9.273  -5.864 -0.08 -0.08    -0.650 OA
DOCKED: BRANCH  34  36
DOCKED: ATOM     36  O   UNL d   1     -12.912 -10.643  -6.099 +0.02 +0.01    -0.776 OA
DOCKED: ATOM     37  H   UNL d   1     -12.888 -10.851  -7.040 -0.33 -0.04    +0.167 HD
DOCKED: ENDBRANCH  34  36
DOCKED: ENDBRANCH  33  34
DOCKED: ENDBRANCH  32  33
DOCKED: ENDBRANCH   6  32
DOCKED: BRANCH  22  38
DOCKED: ATOM     38  C   UNL d   1      -8.899 -14.420  -0.985 -0.13 +0.04    +0.052 C 
DOCKED: BRANCH  38  39
DOCKED: ATOM     39  C   UNL d   1      -9.502 -14.804  -2.335 -0.11 +0.07    +0.115 C 
DOCKED: BRANCH  39  40
DOCKED: ATOM     40  C   UNL d   1      -8.638 -15.780  -3.094 -0.12 +0.12    +0.139 C 
DOCKED: ATOM     41  O   UNL d   1      -7.423 -15.701  -3.018 -0.14 -1.03    -0.650 OA
DOCKED: BRANCH  40  42
DOCKED: ATOM     42  O   UNL d   1      -9.185 -16.776  -3.817 +0.05 -0.50    -0.776 OA
DOCKED: ATOM     43  H   UNL d   1     -10.091 -17.072  -3.665 +0.03 +0.08    +0.167 HD
DOCKED: ENDBRANCH  40  42
DOCKED: ENDBRANCH  39  40
DOCKED: ENDBRANCH  38  39
DOCKED: ENDBRANCH  22  38
DOCKED: BRANCH  12  44
DOCKED: ATOM     44  C   UNL d   1      -2.460  -5.293  -2.985 -0.43 +0.00    +0.004 C 
DOCKED: ATOM     45  C   UNL d   1      -1.182  -5.495  -3.303 -0.55 +0.00    +0.012 C 
DOCKED: ENDBRANCH  12  44
DOCKED: BRANCH  17  46
DOCKED: ATOM     46  C   UNL d   1      -1.117 -13.089  -0.875 -0.25 +0.00    +0.004 C 
DOCKED: ATOM     47  C   UNL d   1      -1.069 -14.243  -1.553 -0.18 +0.01    +0.012 C 
DOCKED: ENDBRANCH  17  46
DOCKED: TORSDOF 10
DOCKED: TER
DOCKED: ENDMDL
________________________________________________________________________________

DPF> analysis                             # perform a ranked cluster analysis


		CLUSTER ANALYSIS OF CONFORMATIONS
		_________________________________

Number of conformations = 100

RMSD cluster analysis will be performed using the ligand atoms only (47 / 47 total atoms).

Outputting structurally similar clusters, ranked in order of increasing energy.


________________________________________________________________________________

Number of distinct conformational clusters found = 21,  out of 100 runs,
Using an rmsd-tolerance of 2.0 A


	CLUSTERING HISTOGRAM
	____________________

________________________________________________________________________________
     |           |     |           |     |                                    
Clus | Lowest    | Run | Mean      | Num | Histogram                          
-ter | Binding   |     | Binding   | in  |                                    
Rank | Energy    |     | Energy    | Clus|    5    10   15   20   25   30   35
_____|___________|_____|___________|_____|____:____|____:____|____:____|____:___
   1 |    -15.36 |  26 |    -14.94 |  16 |################
   2 |    -11.70 |  68 |    -10.32 |   6 |######
   3 |     -9.99 |  27 |     -9.99 |   1 |#
   4 |     -9.13 |  56 |     -8.41 |  30 |##############################
   5 |     -8.86 | 100 |     -8.86 |   1 |#
   6 |     -8.65 |  96 |     -7.61 |  12 |############
   7 |     -8.47 |  83 |     -7.37 |   3 |###
   8 |     -8.39 |  69 |     -8.04 |   3 |###
   9 |     -8.16 |  23 |     -7.13 |   3 |###
  10 |     -7.62 |  46 |     -7.62 |   1 |#
  11 |     -7.60 |  18 |     -7.24 |   4 |####
  12 |     -7.52 |  94 |     -7.52 |   1 |#
  13 |     -7.26 |  65 |     -6.49 |   8 |########
  14 |     -7.06 |  93 |     -7.06 |   1 |#
  15 |     -6.88 |  92 |     -6.88 |   1 |#
  16 |     -6.85 |  72 |     -6.70 |   3 |###
  17 |     -6.59 |  47 |     -6.59 |   1 |#
  18 |     -6.02 |  24 |     -6.02 |   1 |#
  19 |     -5.89 |  73 |     -5.89 |   1 |#
  20 |     -5.41 |  84 |     -4.85 |   2 |##
  21 |     -4.73 |  14 |     -4.73 |   1 |#
_____|___________|_____|___________|_____|______________________________________


Number of multi-member conformational clusters found = 11, out of 100 runs.

	RMSD TABLE
	__________

_____________________________________________________________________
     |      |      |           |         |                 |
Rank | Sub- | Run  | Binding   | Cluster | Reference       | Grep
     | Rank |      | Energy    | RMSD    | RMSD            | Pattern
_____|______|______|___________|_________|_________________|___________
   1      1     26      -15.36      0.00     42.93           RANKING
   1      2     13      -15.29      0.43     42.94           RANKING
   1      3     33      -15.24      0.87     42.93           RANKING
   1      4     86      -15.23      0.59     42.87           RANKING
   1      5      6      -15.20      0.54     42.90           RANKING
   1      6     32      -15.16      0.84     42.96           RANKING
   1      7      9      -15.10      0.85     42.83           RANKING
   1      8      4      -15.06      1.17     42.76           RANKING
   1      9     40      -14.93      0.61     42.95           RANKING
   1     10     89      -14.92      0.56     42.98           RANKING
   1     11     66      -14.90      0.42     42.97           RANKING
   1     12     82      -14.90      0.46     42.90           RANKING
   1     13     19      -14.74      0.52     42.88           RANKING
   1     14      3      -14.69      1.05     42.82           RANKING
   1     15     16      -14.55      0.92     42.91           RANKING
   1     16     35      -13.75      1.18     42.66           RANKING
   2      1     68      -11.70      0.00     44.85           RANKING
   2      2     17      -11.28      0.93     44.85           RANKING
   2      3     77      -11.24      1.03     44.77           RANKING
   2      4     30      -10.63      1.29     45.29           RANKING
   2      5     75       -9.45      1.11     45.28           RANKING
   2      6     31       -7.60      2.00     46.16           RANKING
   3      1     27       -9.99      0.00     44.59           RANKING
   4      1     56       -9.13      0.00     48.01           RANKING
   4      2     64       -9.12      0.51     47.95           RANKING
   4      3      7       -9.07      1.05     47.92           RANKING
   4      4     44       -8.89      1.29     47.88           RANKING
   4      5     15       -8.88      0.51     47.93           RANKING
   4      6     76       -8.87      1.37     47.97           RANKING
   4      7     52       -8.87      0.77     47.98           RANKING
   4      8     51       -8.84      0.86     47.95           RANKING
   4      9     42       -8.76      1.37     48.17           RANKING
   4     10     36       -8.75      1.29     47.82           RANKING
   4     11     39       -8.74      0.42     47.93           RANKING
   4     12     55       -8.73      0.51     47.96           RANKING
   4     13     60       -8.69      1.10     47.80           RANKING
   4     14     12       -8.63      1.13     48.07           RANKING
   4     15     67       -8.60      0.92     48.10           RANKING
   4     16     74       -8.57      1.35     47.71           RANKING
   4     17     43       -8.54      1.43     47.75           RANKING
   4     18     90       -8.49      1.38     48.11           RANKING
   4     19     71       -8.47      1.07     48.11           RANKING
   4     20     62       -8.47      1.33     48.05           RANKING
   4     21     25       -8.47      1.34     48.19           RANKING
   4     22     81       -8.45      0.95     48.18           RANKING
   4     23     59       -8.42      1.34     48.02           RANKING
   4     24     49       -8.09      1.61     48.09           RANKING
   4     25     87       -7.86      1.61     47.98           RANKING
   4     26     54       -7.55      1.82     48.26           RANKING
   4     27     61       -7.41      1.59     48.28           RANKING
   4     28     88       -7.40      1.82     47.62           RANKING
   4     29     53       -6.95      1.91     47.71           RANKING
   4     30     50       -6.48      1.65     48.36           RANKING
   5      1    100       -8.86      0.00     45.34           RANKING
   6      1     96       -8.65      0.00     50.18           RANKING
   6      2     80       -8.31      0.40     50.24           RANKING
   6      3     85       -8.22      1.49     49.92           RANKING
   6      4     11       -8.09      0.46     50.15           RANKING
   6      5     41       -8.06      0.57     50.14           RANKING
   6      6     20       -8.01      1.35     49.84           RANKING
   6      7     28       -7.81      0.53     50.22           RANKING
   6      8     45       -7.26      1.68     50.68           RANKING
   6      9     63       -7.22      1.67     50.53           RANKING
   6     10     70       -6.93      1.87     50.86           RANKING
   6     11     58       -6.38      1.78     50.18           RANKING
   6     12     98       -6.37      1.63     50.14           RANKING
   7      1     83       -8.47      0.00     50.53           RANKING
   7      2     95       -7.10      1.23     50.88           RANKING
   7      3     34       -6.55      1.14     50.61           RANKING
   8      1     69       -8.39      0.00     46.83           RANKING
   8      2     10       -7.98      1.33     47.91           RANKING
   8      3     99       -7.76      1.38     48.02           RANKING
   9      1     23       -8.16      0.00     51.19           RANKING
   9      2     29       -7.15      1.36     51.68           RANKING
   9      3     37       -6.08      1.61     52.23           RANKING
  10      1     46       -7.62      0.00     46.56           RANKING
  11      1     18       -7.60      0.00     52.40           RANKING
  11      2     21       -7.52      0.84     52.46           RANKING
  11      3     22       -7.14      1.52     52.66           RANKING
  11      4      5       -6.72      1.79     52.46           RANKING
  12      1     94       -7.52      0.00     51.29           RANKING
  13      1     65       -7.26      0.00     52.55           RANKING
  13      2     38       -6.70      1.42     52.71           RANKING
  13      3     97       -6.52      1.65     52.08           RANKING
  13      4     79       -6.44      1.14     52.13           RANKING
  13      5     78       -6.42      0.61     52.51           RANKING
  13      6      1       -6.33      1.58     52.49           RANKING
  13      7     91       -6.20      0.70     52.57           RANKING
  13      8     48       -6.08      1.63     52.34           RANKING
  14      1     93       -7.06      0.00     49.94           RANKING
  15      1     92       -6.88      0.00     50.90           RANKING
  16      1     72       -6.85      0.00     50.71           RANKING
  16      2      2       -6.83      1.50     50.39           RANKING
  16      3     57       -6.42      1.09     50.98           RANKING
  17      1     47       -6.59      0.00     48.71           RANKING
  18      1     24       -6.02      0.00     36.43           RANKING
  19      1     73       -5.89      0.00     38.84           RANKING
  20      1     84       -5.41      0.00     29.62           RANKING
  20      2      8       -4.29      1.53     29.97           RANKING
  21      1     14       -4.73      0.00     47.22           RANKING
_______________________________________________________________________



	INFORMATION ENTROPY ANALYSIS FOR THIS CLUSTERING
	________________________________________________


Information entropy for this clustering = 0.51  (rmstol = 2.00 Angstrom)

_______________________________________________________________________


	STATISTICAL MECHANICAL ANALYSIS
	_______________________________


Partition function, Q =   101.52            at Temperature, T = 298.15 K
Free energy,        A ~ -2737.42 kcal/mol   at Temperature, T = 298.15 K
Internal energy,    U =    -8.95 kcal/mol   at Temperature, T = 298.15 K
Entropy,            S =     9.15 kcal/mol/K at Temperature, T = 298.15 K

_______________________________________________________________________


	LOWEST ENERGY DOCKED CONFORMATION from EACH CLUSTER
	___________________________________________________



Keeping original residue number (specified in the input PDBQ file) for outputting.

MODEL       26
USER    Run = 26
USER    Cluster Rank = 1
USER    Number of conformations in this cluster = 16
USER  
USER    RMSD from reference structure       = 42.926 A
USER  
USER    Estimated Free Energy of Binding    =  -15.36 kcal/mol  [=(1)+(2)+(3)-(4)]
USER    Estimated Inhibition Constant, Ki   =    5.49 pM (picomolar)  [Temperature = 298.15 K]
USER    
USER    (1) Final Intermolecular Energy     =  -18.35 kcal/mol
USER        vdW + Hbond + desolv Energy     =  -14.41 kcal/mol
USER        Electrostatic Energy            =   -3.94 kcal/mol
USER    (2) Final Total Internal Energy     =   -0.28 kcal/mol
USER    (3) Torsional Free Energy           =   +2.98 kcal/mol
USER    (4) Unbound System's Energy  [=(2)] =   -0.28 kcal/mol
USER    
USER    
USER  
USER    DPF = D:/Protein_go_brrr/autodock/final/AncA/heme_O2/dock.dpf
USER    NEWDPF move	heme_O2_opt.pdbqt
USER    NEWDPF about	8.287000 34.468000 -0.670000
USER    NEWDPF tran0	-4.733407 -8.562114 -3.194991
USER    NEWDPF axisangle0	0.147526 0.514885 0.844470 -115.448738
USER    NEWDPF quaternion0	0.124731 0.435330 0.713990 -0.533993
USER    NEWDPF dihe0	108.76 -76.35 26.39 -19.95 70.98 11.74 20.37 64.16 54.30 149.54 
USER  
USER                              x       y       z    vdW   Elec        q     RMS 
ATOM      1  C   UNL d   1      -4.896 -10.612  -2.676 -0.33 +0.05    +0.064    42.926
ATOM      2  C   UNL d   1      -1.197  -7.640  -2.885 -0.35 +0.02    +0.064    42.926
ATOM      3  C   UNL d   1      -4.041  -4.059  -4.364 -0.34 +0.01    +0.064    42.926
ATOM      4  C   UNL d   1      -7.927  -6.977  -3.694 -0.40 +0.02    +0.064    42.926
ATOM      5  C   UNL d   1      -3.658 -10.096  -2.610 -0.35 +0.04    +0.066    42.926
ATOM      6  C   UNL d   1      -2.524 -10.825  -2.241 -0.33 -0.01    -0.021    42.926
ATOM      7  C   UNL d   1      -1.460  -9.954  -2.259 -0.33 -0.01    -0.025    42.926
ATOM      8  C   UNL d   1      -1.965  -8.729  -2.686 -0.38 +0.02    +0.066    42.926
ATOM      9  C   UNL d   1      -0.046 -10.307  -1.852 -0.25 +0.02    +0.051    42.926
ATOM     10  C   UNL d   1      -1.666  -6.335  -3.353 -0.44 +0.01    +0.066    42.926
ATOM     11  C   UNL d   1      -0.806  -5.287  -3.699 -0.47 -0.00    -0.021    42.926
ATOM     12  C   UNL d   1      -1.606  -4.252  -4.145 -0.35 +0.00    +0.000    42.926
ATOM     13  C   UNL d   1      -2.940  -4.733  -4.032 -0.39 +0.01    +0.070    42.926
ATOM     14  C   UNL d   1       0.717  -5.284  -3.633 -0.53 +0.01    +0.052    42.926
ATOM     15  C   UNL d   1      -5.409  -4.497  -4.232 -0.36 +0.01    +0.066    42.926
ATOM     16  C   UNL d   1      -6.523  -3.685  -4.443 -0.47 -0.00    -0.021    42.926
ATOM     17  C   UNL d   1      -7.643  -4.495  -4.257 -0.49 +0.00    +0.000    42.926
ATOM     18  C   UNL d   1      -7.121  -5.758  -3.944 -0.41 +0.02    +0.070    42.926
ATOM     19  C   UNL d   1      -6.421  -2.211  -4.746 -0.55 +0.00    +0.052    42.926
ATOM     20  C   UNL d   1      -7.461  -8.193  -3.350 -0.38 +0.02    +0.066    42.926
ATOM     21  C   UNL d   1      -8.268  -9.309  -3.145 -0.34 -0.01    -0.025    42.926
ATOM     22  C   UNL d   1      -7.419 -10.360  -2.881 +0.15 -0.01    -0.021    42.926
ATOM     23  C   UNL d   1      -6.122  -9.841  -2.916 +0.05 +0.04    +0.066    42.926
ATOM     24  C   UNL d   1      -9.773  -9.368  -3.195 -0.51 +0.01    +0.051    42.926
ATOM     25  N   UNL d   1      -3.330  -8.800  -2.839 -0.20 -0.10    -0.248    42.926
ATOM     26  N   UNL d   1      -2.967  -5.999  -3.545 -0.26 -0.06    -0.248    42.926
ATOM     27  N   UNL d   1      -5.767  -5.723  -3.860 -0.24 -0.07    -0.248    42.926
ATOM     28  N   UNL d   1      -6.154  -8.514  -3.157 -0.11 -0.13    -0.248    42.926
ATOM     29 FE   UNL d   1      -4.574  -7.264  -3.350 -0.09 +0.00    +0.000    42.926
ATOM     30  O   UNL d   1      -3.954  -7.124  -1.929 -0.37 +0.00    +0.000    42.926
ATOM     31  O   UNL d   1      -5.460  -6.726  -2.167 -0.68 +0.00    +0.000    42.926
ATOM     32  C   UNL d   1      -2.461 -12.250  -1.756 -0.31 +0.06    +0.052    42.926
ATOM     33  C   UNL d   1      -1.295 -13.029  -2.357 -0.21 +0.11    +0.115    42.926
ATOM     34  C   UNL d   1      -1.475 -14.521  -2.231 -0.12 +0.18    +0.139    42.926
ATOM     35  O   UNL d   1      -1.220 -15.073  -1.172 +0.01 -0.66    -0.650    42.926
ATOM     36  O   UNL d   1      -1.886 -15.271  -3.275 -0.17 -1.45    -0.776    42.926
ATOM     37  H   UNL d   1      -1.294 -15.880  -3.731 +0.03 +0.21    +0.167    42.926
ATOM     38  C   UNL d   1      -7.842 -11.768  -2.549 -0.26 +0.04    +0.052    42.926
ATOM     39  C   UNL d   1      -7.598 -12.119  -1.083 -0.19 +0.10    +0.115    42.926
ATOM     40  C   UNL d   1      -6.602 -13.240  -0.917 -0.21 +0.19    +0.139    42.926
ATOM     41  O   UNL d   1      -5.982 -13.350   0.128 -0.16 -1.13    -0.650    42.926
ATOM     42  O   UNL d   1      -6.420 -14.158  -1.886 +0.04 -1.81    -0.776    42.926
ATOM     43  H   UNL d   1      -7.073 -14.847  -2.059 +0.03 +0.31    +0.167    42.926
ATOM     44  C   UNL d   1      -1.027  -2.935  -4.620 -0.47 +0.00    +0.004    42.926
ATOM     45  C   UNL d   1      -1.634  -1.751  -4.690 -0.63 +0.00    +0.012    42.926
ATOM     46  C   UNL d   1      -9.113  -4.173  -4.291 -0.61 +0.00    +0.004    42.926
ATOM     47  C   UNL d   1      -9.711  -3.002  -4.034 -0.69 +0.00    +0.012    42.926
TER
ENDMDL
MODEL       68
USER    Run = 68
USER    Cluster Rank = 2
USER    Number of conformations in this cluster = 6
USER  
USER    RMSD from reference structure       = 44.848 A
USER  
USER    Estimated Free Energy of Binding    =  -11.70 kcal/mol  [=(1)+(2)+(3)-(4)]
USER    Estimated Inhibition Constant, Ki   =    2.65 nM (nanomolar)  [Temperature = 298.15 K]
USER    
USER    (1) Final Intermolecular Energy     =  -14.68 kcal/mol
USER        vdW + Hbond + desolv Energy     =  -11.67 kcal/mol
USER        Electrostatic Energy            =   -3.01 kcal/mol
USER    (2) Final Total Internal Energy     =   -0.56 kcal/mol
USER    (3) Torsional Free Energy           =   +2.98 kcal/mol
USER    (4) Unbound System's Energy  [=(2)] =   -0.56 kcal/mol
USER    
USER    
USER  
USER    DPF = D:/Protein_go_brrr/autodock/final/AncA/heme_O2/dock.dpf
USER    NEWDPF move	heme_O2_opt.pdbqt
USER    NEWDPF about	8.287000 34.468000 -0.670000
USER    NEWDPF tran0	-4.900383 -10.813837 -1.795791
USER    NEWDPF axisangle0	-0.831610 -0.498256 0.245286 -157.566025
USER    NEWDPF quaternion0	-0.815725 -0.488738 0.240600 -0.194525
USER    NEWDPF dihe0	66.05 20.17 42.42 8.66 -115.15 -67.66 -178.42 63.05 15.43 121.90 
USER  
USER                              x       y       z    vdW   Elec        q     RMS 
ATOM      1  C   UNL d   1      -4.771 -12.815  -1.103 -0.21 +0.11    +0.064    44.848
ATOM      2  C   UNL d   1      -8.372 -10.245  -2.831 -0.20 +0.03    +0.064    44.848
ATOM      3  C   UNL d   1      -5.522  -6.407  -3.318 -0.34 +0.03    +0.064    44.848
ATOM      4  C   UNL d   1      -1.698  -9.180  -1.990 -0.42 +0.02    +0.064    44.848
ATOM      5  C   UNL d   1      -5.982 -12.429  -1.535 -0.21 +0.09    +0.066    44.848
ATOM      6  C   UNL d   1      -7.112 -13.254  -1.536 -0.21 -0.03    -0.021    44.848
ATOM      7  C   UNL d   1      -8.145 -12.524  -2.077 -0.23 -0.02    -0.025    44.848
ATOM      8  C   UNL d   1      -7.630 -11.259  -2.346 -0.07 +0.04    +0.066    44.848
ATOM      9  C   UNL d   1      -9.537 -13.057  -2.336 -0.19 +0.03    +0.051    44.848
ATOM     10  C   UNL d   1      -7.894  -8.891  -3.113 -0.23 +0.02    +0.066    44.848
ATOM     11  C   UNL d   1      -8.741  -7.832  -3.460 -0.43 -0.01    -0.021    44.848
ATOM     12  C   UNL d   1      -7.940  -6.713  -3.587 -0.42 +0.00    +0.000    44.848
ATOM     13  C   UNL d   1      -6.618  -7.164  -3.316 -0.27 +0.03    +0.070    44.848
ATOM     14  C   UNL d   1     -10.254  -7.881  -3.635 -0.44 +0.01    +0.052    44.848
ATOM     15  C   UNL d   1      -4.163  -6.832  -3.084 -0.14 +0.02    +0.066    44.848
ATOM     16  C   UNL d   1      -3.040  -6.025  -3.262 -0.41 -0.00    -0.021    44.848
ATOM     17  C   UNL d   1      -1.937  -6.795  -2.890 -0.47 +0.00    +0.000    44.848
ATOM     18  C   UNL d   1      -2.478  -8.030  -2.506 -0.41 +0.02    +0.070    44.848
ATOM     19  C   UNL d   1      -3.113  -4.625  -3.818 -0.43 +0.01    +0.052    44.848
ATOM     20  C   UNL d   1      -2.180 -10.392  -1.654 -0.34 +0.04    +0.066    44.848
ATOM     21  C   UNL d   1      -1.399 -11.431  -1.157 -0.28 -0.02    -0.025    44.848
ATOM     22  C   UNL d   1      -2.261 -12.466  -0.873 -0.14 -0.02    -0.021    44.848
ATOM     23  C   UNL d   1      -3.540 -12.024  -1.226 -0.28 +0.08    +0.066    44.848
ATOM     24  C   UNL d   1       0.096 -11.438  -0.965 -0.33 +0.02    +0.051    44.848
ATOM     25  N   UNL d   1      -6.282 -11.222  -2.073 +0.03 -0.21    -0.248    44.848
ATOM     26  N   UNL d   1      -6.599  -8.491  -3.033 -0.07 -0.12    -0.248    44.848
ATOM     27  N   UNL d   1      -3.821  -8.060  -2.702 -0.23 -0.10    -0.248    44.848
ATOM     28  N   UNL d   1      -3.480 -10.780  -1.742 -0.21 -0.19    -0.248    44.848
ATOM     29 FE   UNL d   1      -5.026  -9.642  -2.384 -0.08 +0.00    +0.000    44.848
ATOM     30  O   UNL d   1      -5.539 -10.304  -3.696 -0.29 +0.00    +0.000    44.848
ATOM     31  O   UNL d   1      -4.041  -9.826  -3.596 +0.08 +0.00    +0.000    44.848
ATOM     32  C   UNL d   1      -7.189 -14.714  -1.173 -0.14 +0.08    +0.052    44.848
ATOM     33  C   UNL d   1      -7.698 -14.945   0.247 -0.10 +0.14    +0.115    44.848
ATOM     34  C   UNL d   1      -7.994 -13.654   0.969 -0.19 +0.16    +0.139    44.848
ATOM     35  O   UNL d   1      -9.127 -13.201   0.955 -0.12 -0.49    -0.650    44.848
ATOM     36  O   UNL d   1      -7.024 -12.968   1.610 -0.29 -1.31    -0.776    44.848
ATOM     37  H   UNL d   1      -6.294 -12.553   1.137 +0.05 +0.28    +0.167    44.848
ATOM     38  C   UNL d   1      -1.864 -13.823  -0.352 -0.12 +0.06    +0.052    44.848
ATOM     39  C   UNL d   1      -2.596 -14.957  -1.065 -0.14 +0.19    +0.115    44.848
ATOM     40  C   UNL d   1      -3.457 -15.767  -0.128 -0.12 +0.24    +0.139    44.848
ATOM     41  O   UNL d   1      -4.530 -15.323   0.246 -0.45 -1.48    -0.650    44.848
ATOM     42  O   UNL d   1      -3.085 -17.001   0.267 +0.00 -0.90    -0.776    44.848
ATOM     43  H   UNL d   1      -2.162 -17.279   0.249 +0.02 +0.15    +0.167    44.848
ATOM     44  C   UNL d   1      -8.506  -5.356  -3.950 -0.50 +0.00    +0.004    44.848
ATOM     45  C   UNL d   1      -7.967  -4.428  -4.740 -0.56 +0.00    +0.012    44.848
ATOM     46  C   UNL d   1      -0.463  -6.490  -2.922 -0.50 +0.00    +0.004    44.848
ATOM     47  C   UNL d   1       0.140  -5.354  -3.296 -0.60 +0.00    +0.012    44.848
TER
ENDMDL
MODEL       27
USER    Run = 27
USER    Cluster Rank = 3
USER    Number of conformations in this cluster = 1
USER  
USER    RMSD from reference structure       = 44.591 A
USER  
USER    Estimated Free Energy of Binding    =   -9.99 kcal/mol  [=(1)+(2)+(3)-(4)]
USER    Estimated Inhibition Constant, Ki   =   47.89 nM (nanomolar)  [Temperature = 298.15 K]
USER    
USER    (1) Final Intermolecular Energy     =  -12.97 kcal/mol
USER        vdW + Hbond + desolv Energy     =  -11.63 kcal/mol
USER        Electrostatic Energy            =   -1.34 kcal/mol
USER    (2) Final Total Internal Energy     =   -0.65 kcal/mol
USER    (3) Torsional Free Energy           =   +2.98 kcal/mol
USER    (4) Unbound System's Energy  [=(2)] =   -0.65 kcal/mol
USER    
USER    
USER  
USER    DPF = D:/Protein_go_brrr/autodock/final/AncA/heme_O2/dock.dpf
USER    NEWDPF move	heme_O2_opt.pdbqt
USER    NEWDPF about	8.287000 34.468000 -0.670000
USER    NEWDPF tran0	-6.614103 -10.232914 -2.200731
USER    NEWDPF axisangle0	0.980637 0.195047 -0.017543 152.208232
USER    NEWDPF quaternion0	0.951937 0.189339 -0.017030 0.240158
USER    NEWDPF dihe0	76.91 8.80 58.21 -127.75 -51.83 109.00 60.04 -149.31 161.80 -9.77 
USER  
USER                              x       y       z    vdW   Elec        q     RMS 
ATOM      1  C   UNL d   1      -8.038 -11.772  -1.882 -0.21 +0.04    +0.064    44.591
ATOM      2  C   UNL d   1      -8.366  -7.451  -3.826 -0.41 +0.02    +0.064    44.591
ATOM      3  C   UNL d   1      -3.712  -6.612  -2.971 -0.36 +0.02    +0.064    44.591
ATOM      4  C   UNL d   1      -3.250 -11.237  -1.402 -0.31 +0.06    +0.064    44.591
ATOM      5  C   UNL d   1      -8.507 -10.666  -2.482 -0.24 +0.03    +0.066    44.591
ATOM      6  C   UNL d   1      -9.836 -10.493  -2.877 -0.38 -0.01    -0.021    44.591
ATOM      7  C   UNL d   1      -9.923  -9.260  -3.479 -0.48 -0.01    -0.025    44.591
ATOM      8  C   UNL d   1      -8.654  -8.693  -3.392 -0.41 +0.02    +0.066    44.591
ATOM      9  C   UNL d   1     -11.171  -8.697  -4.123 -0.28 +0.01    +0.051    44.591
ATOM     10  C   UNL d   1      -7.061  -6.795  -3.741 -0.35 +0.02    +0.066    44.591
ATOM     11  C   UNL d   1      -6.855  -5.447  -4.057 -0.44 -0.01    -0.021    44.591
ATOM     12  C   UNL d   1      -5.523  -5.181  -3.800 -0.42 +0.00    +0.000    44.591
ATOM     13  C   UNL d   1      -4.976  -6.413  -3.343 -0.18 +0.03    +0.070    44.591
ATOM     14  C   UNL d   1      -7.892  -4.448  -4.556 -0.52 +0.01    +0.052    44.591
ATOM     15  C   UNL d   1      -3.112  -7.851  -2.537 -0.40 +0.02    +0.066    44.591
ATOM     16  C   UNL d   1      -1.746  -8.033  -2.318 -0.46 -0.01    -0.021    44.591
ATOM     17  C   UNL d   1      -1.591  -9.345  -1.871 -0.46 +0.00    +0.000    44.591
ATOM     18  C   UNL d   1      -2.890  -9.871  -1.848 -0.38 +0.04    +0.070    44.591
ATOM     19  C   UNL d   1      -0.718  -6.968  -2.605 -0.34 +0.01    +0.052    44.591
ATOM     20  C   UNL d   1      -4.480 -11.788  -1.408 -0.28 +0.08    +0.066    44.591
ATOM     21  C   UNL d   1      -4.761 -13.075  -0.958 -0.12 -0.05    -0.025    44.591
ATOM     22  C   UNL d   1      -6.125 -13.235  -1.062 -0.22 -0.03    -0.021    44.591
ATOM     23  C   UNL d   1      -6.625 -12.041  -1.591 -0.14 +0.07    +0.066    44.591
ATOM     24  C   UNL d   1      -3.778 -14.101  -0.458 -0.14 +0.10    +0.051    44.591
ATOM     25  N   UNL d   1      -7.768  -9.586  -2.837 -0.10 -0.10    -0.248    44.591
ATOM     26  N   UNL d   1      -5.918  -7.390  -3.315 +0.02 -0.14    -0.248    44.591
ATOM     27  N   UNL d   1      -3.791  -8.975  -2.326 -0.26 -0.11    -0.248    44.591
ATOM     28  N   UNL d   1      -5.617 -11.180  -1.841 +0.02 -0.23    -0.248    44.591
ATOM     29 FE   UNL d   1      -5.763  -9.299  -2.573 -0.08 +0.00    +0.000    44.591
ATOM     30  O   UNL d   1      -6.186  -9.444  -4.064 -0.11 +0.00    +0.000    44.591
ATOM     31  O   UNL d   1      -4.855 -10.120  -3.560 -0.39 +0.00    +0.000    44.591
ATOM     32  C   UNL d   1     -10.955 -11.501  -2.817 -0.32 +0.01    +0.052    44.591
ATOM     33  C   UNL d   1     -11.458 -11.911  -4.198 -0.00 +0.02    +0.115    44.591
ATOM     34  C   UNL d   1     -12.931 -11.642  -4.377 -0.29 +0.01    +0.139    44.591
ATOM     35  O   UNL d   1     -13.389 -11.516  -5.502 -0.00 -0.03    -0.650    44.591
ATOM     36  O   UNL d   1     -13.756 -11.510  -3.318 +0.14 +0.05    -0.776    44.591
ATOM     37  H   UNL d   1     -13.787 -10.703  -2.792 -0.35 -0.07    +0.167    44.591
ATOM     38  C   UNL d   1      -6.889 -14.490  -0.732 -0.16 +0.08    +0.052    44.591
ATOM     39  C   UNL d   1      -7.388 -14.505   0.712 -0.07 +0.17    +0.115    44.591
ATOM     40  C   UNL d   1      -7.657 -13.119   1.243 -0.23 +0.18    +0.139    44.591
ATOM     41  O   UNL d   1      -6.890 -12.620   2.050 -0.50 -1.15    -0.650    44.591
ATOM     42  O   UNL d   1      -8.705 -12.397   0.803 -0.17 -0.61    -0.776    44.591
ATOM     43  H   UNL d   1      -9.402 -12.794   0.267 +0.07 +0.11    +0.167    44.591
ATOM     44  C   UNL d   1      -4.921  -3.809  -4.015 -0.02 +0.00    +0.004    44.591
ATOM     45  C   UNL d   1      -3.848  -3.489  -4.738 -0.43 +0.00    +0.012    44.591
ATOM     46  C   UNL d   1      -0.354 -10.133  -1.531 -0.10 +0.00    +0.004    44.591
ATOM     47  C   UNL d   1      -0.046 -11.387  -1.888 -0.36 +0.01    +0.012    44.591
TER
ENDMDL
MODEL       56
USER    Run = 56
USER    Cluster Rank = 4
USER    Number of conformations in this cluster = 30
USER  
USER    RMSD from reference structure       = 48.014 A
USER  
USER    Estimated Free Energy of Binding    =   -9.13 kcal/mol  [=(1)+(2)+(3)-(4)]
USER    Estimated Inhibition Constant, Ki   =  201.89 nM (nanomolar)  [Temperature = 298.15 K]
USER    
USER    (1) Final Intermolecular Energy     =  -12.12 kcal/mol
USER        vdW + Hbond + desolv Energy     =   -7.69 kcal/mol
USER        Electrostatic Energy            =   -4.42 kcal/mol
USER    (2) Final Total Internal Energy     =   -0.69 kcal/mol
USER    (3) Torsional Free Energy           =   +2.98 kcal/mol
USER    (4) Unbound System's Energy  [=(2)] =   -0.69 kcal/mol
USER    
USER    
USER  
USER    DPF = D:/Protein_go_brrr/autodock/final/AncA/heme_O2/dock.dpf
USER    NEWDPF move	heme_O2_opt.pdbqt
USER    NEWDPF about	8.287000 34.468000 -0.670000
USER    NEWDPF tran0	-0.379658 -15.501364 -1.792823
USER    NEWDPF axisangle0	0.696098 0.050180 -0.716191 62.015326
USER    NEWDPF quaternion0	0.358597 0.025850 -0.368948 0.857098
USER    NEWDPF dihe0	-46.65 -13.60 122.26 119.37 -76.98 -99.12 123.53 26.58 -146.05 -46.13 
USER  
USER                              x       y       z    vdW   Elec        q     RMS 
ATOM      1  C   UNL d   1      -1.860 -16.912  -2.356 -0.06 +0.08    +0.064    48.014
ATOM      2  C   UNL d   1      -0.478 -15.222   1.863 -0.10 +0.05    +0.064    48.014
ATOM      3  C   UNL d   1       2.869 -12.481  -0.229 -0.19 +0.02    +0.064    48.014
ATOM      4  C   UNL d   1       1.137 -13.851  -4.610 -0.22 +0.03    +0.064    48.014
ATOM      5  C   UNL d   1      -1.759 -16.675  -1.038 -0.06 +0.07    +0.066    48.014
ATOM      6  C   UNL d   1      -2.546 -17.300  -0.067 -0.06 -0.02    -0.021    48.014
ATOM      7  C   UNL d   1      -2.177 -16.779   1.151 -0.07 -0.03    -0.025    48.014
ATOM      8  C   UNL d   1      -1.140 -15.886   0.895 -0.09 +0.06    +0.066    48.014
ATOM      9  C   UNL d   1      -2.829 -17.122   2.473 -0.06 +0.06    +0.051    48.014
ATOM     10  C   UNL d   1       0.632 -14.291   1.657 -0.12 +0.04    +0.066    48.014
ATOM     11  C   UNL d   1       1.390 -13.755   2.704 -0.15 -0.01    -0.021    48.014
ATOM     12  C   UNL d   1       2.372 -12.976   2.121 -0.17 +0.00    +0.000    48.014
ATOM     13  C   UNL d   1       2.144 -13.073   0.720 -0.14 +0.02    +0.070    48.014
ATOM     14  C   UNL d   1       1.203 -13.998   4.197 -0.17 +0.03    +0.052    48.014
ATOM     15  C   UNL d   1       2.650 -12.525  -1.655 -0.14 +0.02    +0.066    48.014
ATOM     16  C   UNL d   1       3.344 -11.752  -2.586 -0.24 -0.01    -0.021    48.014
ATOM     17  C   UNL d   1       2.866 -12.125  -3.842 -0.26 +0.00    +0.000    48.014
ATOM     18  C   UNL d   1       1.906 -13.112  -3.580 -0.17 +0.03    +0.070    48.014
ATOM     19  C   UNL d   1       4.349 -10.699  -2.194 -0.25 +0.01    +0.052    48.014
ATOM     20  C   UNL d   1       0.178 -14.772  -4.392 -0.18 +0.05    +0.066    48.014
ATOM     21  C   UNL d   1      -0.499 -15.447  -5.403 -0.25 -0.02    -0.025    48.014
ATOM     22  C   UNL d   1      -1.338 -16.343  -4.780 -0.14 -0.02    -0.021    48.014
ATOM     23  C   UNL d   1      -1.154 -16.168  -3.405 -0.11 +0.07    +0.066    48.014
ATOM     24  C   UNL d   1      -0.356 -15.245  -6.890 -0.37 +0.03    +0.051    48.014
ATOM     25  N   UNL d   1      -0.928 -15.774  -0.459 -0.04 -0.21    -0.248    48.014
ATOM     26  N   UNL d   1       1.081 -13.871   0.447 -0.06 -0.12    -0.248    48.014
ATOM     27  N   UNL d   1       1.734 -13.288  -2.245 -0.05 -0.10    -0.248    48.014
ATOM     28  N   UNL d   1      -0.264 -15.180  -3.173 -0.07 -0.21    -0.248    48.014
ATOM     29 FE   UNL d   1       0.405 -14.528  -1.378 -0.02 +0.00    +0.000    48.014
ATOM     30  O   UNL d   1      -0.790 -13.787  -0.711 -0.19 +0.00    +0.000    48.014
ATOM     31  O   UNL d   1      -0.253 -13.302  -2.110 -0.18 +0.00    +0.000    48.014
ATOM     32  C   UNL d   1      -3.698 -18.248  -0.282 -0.03 +0.05    +0.052    48.014
ATOM     33  C   UNL d   1      -4.857 -17.610  -1.041 -0.06 +0.15    +0.115    48.014
ATOM     34  C   UNL d   1      -5.407 -16.395  -0.335 -0.10 +0.23    +0.139    48.014
ATOM     35  O   UNL d   1      -5.597 -15.366  -0.964 -0.33 -1.49    -0.650    48.014
ATOM     36  O   UNL d   1      -5.671 -16.410   0.988 -0.24 -1.54    -0.776    48.014
ATOM     37  H   UNL d   1      -6.147 -17.137   1.406 +0.01 +0.23    +0.167    48.014
ATOM     38  C   UNL d   1      -2.306 -17.267  -5.471 -0.15 +0.06    +0.052    48.014
ATOM     39  C   UNL d   1      -1.622 -18.161  -6.503 -0.13 +0.10    +0.115    48.014
ATOM     40  C   UNL d   1      -2.566 -18.616  -7.588 -0.11 +0.20    +0.139    48.014
ATOM     41  O   UNL d   1      -3.320 -17.812  -8.111 -0.50 -1.15    -0.650    48.014
ATOM     42  O   UNL d   1      -2.558 -19.889  -8.029 -0.22 -1.38    -0.776    48.014
ATOM     43  H   UNL d   1      -1.856 -20.504  -7.783 +0.02 +0.18    +0.167    48.014
ATOM     44  C   UNL d   1       3.403 -12.231   2.943 -0.22 +0.00    +0.004    48.014
ATOM     45  C   UNL d   1       3.194 -11.267   3.838 -0.31 +0.00    +0.012    48.014
ATOM     46  C   UNL d   1       3.188 -11.603  -5.217 -0.40 +0.00    +0.004    48.014
ATOM     47  C   UNL d   1       3.821 -12.233  -6.215 -0.53 +0.00    +0.012    48.014
TER
ENDMDL
MODEL      100
USER    Run = 100
USER    Cluster Rank = 5
USER    Number of conformations in this cluster = 1
USER  
USER    RMSD from reference structure       = 45.340 A
USER  
USER    Estimated Free Energy of Binding    =   -8.86 kcal/mol  [=(1)+(2)+(3)-(4)]
USER    Estimated Inhibition Constant, Ki   =  320.07 nM (nanomolar)  [Temperature = 298.15 K]
USER    
USER    (1) Final Intermolecular Energy     =  -11.84 kcal/mol
USER        vdW + Hbond + desolv Energy     =  -10.50 kcal/mol
USER        Electrostatic Energy            =   -1.34 kcal/mol
USER    (2) Final Total Internal Energy     =   -0.71 kcal/mol
USER    (3) Torsional Free Energy           =   +2.98 kcal/mol
USER    (4) Unbound System's Energy  [=(2)] =   -0.71 kcal/mol
USER    
USER    
USER  
USER    DPF = D:/Protein_go_brrr/autodock/final/AncA/heme_O2/dock.dpf
USER    NEWDPF move	heme_O2_opt.pdbqt
USER    NEWDPF about	8.287000 34.468000 -0.670000
USER    NEWDPF tran0	-6.778941 -10.561925 -1.976052
USER    NEWDPF axisangle0	0.996171 -0.002326 0.087393 148.459689
USER    NEWDPF quaternion0	0.958675 -0.002238 0.084104 0.271779
USER    NEWDPF dihe0	-128.77 -22.15 40.44 -109.71 -158.06 -180.00 87.92 -109.28 -155.80 151.83 
USER  
USER                              x       y       z    vdW   Elec        q     RMS 
ATOM      1  C   UNL d   1      -8.728 -11.398  -1.919 -0.26 +0.03    +0.064    45.340
ATOM      2  C   UNL d   1      -7.080  -7.202  -3.416 -0.36 +0.02    +0.064    45.340
ATOM      3  C   UNL d   1      -2.600  -8.410  -2.162 -0.49 +0.02    +0.064    45.340
ATOM      4  C   UNL d   1      -4.210 -12.911  -1.060 -0.14 +0.11    +0.064    45.340
ATOM      5  C   UNL d   1      -8.645 -10.159  -2.430 -0.14 +0.03    +0.066    45.340
ATOM      6  C   UNL d   1      -9.742  -9.429  -2.894 -0.47 -0.00    -0.021    45.340
ATOM      7  C   UNL d   1      -9.261  -8.231  -3.368 -0.44 -0.01    -0.025    45.340
ATOM      8  C   UNL d   1      -7.888  -8.243  -3.135 -0.29 +0.02    +0.066    45.340
ATOM      9  C   UNL d   1     -10.101  -7.162  -4.032 -0.33 +0.01    +0.051    45.340
ATOM     10  C   UNL d   1      -5.637  -7.148  -3.174 +0.52 +0.04    +0.066    45.340
ATOM     11  C   UNL d   1      -4.874  -5.985  -3.331 -0.35 -0.01    -0.021    45.340
ATOM     12  C   UNL d   1      -3.583  -6.309  -2.957 -0.36 +0.00    +0.000    45.340
ATOM     13  C   UNL d   1      -3.630  -7.684  -2.596 -0.37 +0.03    +0.070    45.340
ATOM     14  C   UNL d   1      -5.362  -4.617  -3.792 -0.39 +0.01    +0.052    45.340
ATOM     15  C   UNL d   1      -2.599  -9.812  -1.820 -0.39 +0.03    +0.066    45.340
ATOM     16  C   UNL d   1      -1.455 -10.554  -1.530 -0.35 -0.01    -0.021    45.340
ATOM     17  C   UNL d   1      -1.889 -11.841  -1.213 -0.30 +0.00    +0.000    45.340
ATOM     18  C   UNL d   1      -3.284 -11.787  -1.334 -0.28 +0.08    +0.070    45.340
ATOM     19  C   UNL d   1      -0.060  -9.989  -1.633 +0.14 +0.01    +0.052    45.340
ATOM     20  C   UNL d   1      -5.549 -12.906  -1.207 -0.19 +0.11    +0.066    45.340
ATOM     21  C   UNL d   1      -6.370 -13.992  -0.916 -0.12 -0.04    -0.025    45.340
ATOM     22  C   UNL d   1      -7.663 -13.570  -1.129 -0.19 -0.02    -0.021    45.340
ATOM     23  C   UNL d   1      -7.582 -12.243  -1.562 -0.22 +0.06    +0.066    45.340
ATOM     24  C   UNL d   1      -5.943 -15.363  -0.461 -0.14 +0.10    +0.051    45.340
ATOM     25  N   UNL d   1      -7.500  -9.457  -2.618 +0.05 -0.11    -0.248    45.340
ATOM     26  N   UNL d   1      -4.883  -8.188  -2.736 -0.09 -0.12    -0.248    45.340
ATOM     27  N   UNL d   1      -3.692 -10.569  -1.776 -0.22 -0.18    -0.248    45.340
ATOM     28  N   UNL d   1      -6.292 -11.858  -1.651 -0.10 -0.26    -0.248    45.340
ATOM     29 FE   UNL d   1      -5.590 -10.037  -2.189 -0.08 +0.00    +0.000    45.340
ATOM     30  O   UNL d   1      -5.876  -9.893  -3.712 -0.27 +0.00    +0.000    45.340
ATOM     31  O   UNL d   1      -4.991 -11.089  -3.193 -0.48 +0.00    +0.000    45.340
ATOM     32  C   UNL d   1     -11.172  -9.889  -3.017 -0.38 +0.00    +0.052    45.340
ATOM     33  C   UNL d   1     -11.377 -10.889  -4.150 -0.36 +0.02    +0.115    45.340
ATOM     34  C   UNL d   1     -11.817 -10.226  -5.431 -0.45 +0.01    +0.139    45.340
ATOM     35  O   UNL d   1     -11.189  -9.273  -5.864 -0.08 -0.08    -0.650    45.340
ATOM     36  O   UNL d   1     -12.912 -10.643  -6.099 +0.02 +0.01    -0.776    45.340
ATOM     37  H   UNL d   1     -12.888 -10.851  -7.040 -0.33 -0.04    +0.167    45.340
ATOM     38  C   UNL d   1      -8.899 -14.420  -0.985 -0.13 +0.04    +0.052    45.340
ATOM     39  C   UNL d   1      -9.502 -14.804  -2.335 -0.11 +0.07    +0.115    45.340
ATOM     40  C   UNL d   1      -8.638 -15.780  -3.094 -0.12 +0.12    +0.139    45.340
ATOM     41  O   UNL d   1      -7.423 -15.701  -3.018 -0.14 -1.03    -0.650    45.340
ATOM     42  O   UNL d   1      -9.185 -16.776  -3.817 +0.05 -0.50    -0.776    45.340
ATOM     43  H   UNL d   1     -10.091 -17.072  -3.665 +0.03 +0.08    +0.167    45.340
ATOM     44  C   UNL d   1      -2.460  -5.293  -2.985 -0.43 +0.00    +0.004    45.340
ATOM     45  C   UNL d   1      -1.182  -5.495  -3.303 -0.55 +0.00    +0.012    45.340
ATOM     46  C   UNL d   1      -1.117 -13.089  -0.875 -0.25 +0.00    +0.004    45.340
ATOM     47  C   UNL d   1      -1.069 -14.243  -1.553 -0.18 +0.01    +0.012    45.340
TER
ENDMDL
MODEL       96
USER    Run = 96
USER    Cluster Rank = 6
USER    Number of conformations in this cluster = 12
USER  
USER    RMSD from reference structure       = 50.184 A
USER  
USER    Estimated Free Energy of Binding    =   -8.65 kcal/mol  [=(1)+(2)+(3)-(4)]
USER    Estimated Inhibition Constant, Ki   =  457.24 nM (nanomolar)  [Temperature = 298.15 K]
USER    
USER    (1) Final Intermolecular Energy     =  -11.63 kcal/mol
USER        vdW + Hbond + desolv Energy     =   -7.31 kcal/mol
USER        Electrostatic Energy            =   -4.33 kcal/mol
USER    (2) Final Total Internal Energy     =   -1.87 kcal/mol
USER    (3) Torsional Free Energy           =   +2.98 kcal/mol
USER    (4) Unbound System's Energy  [=(2)] =   -1.87 kcal/mol
USER    
USER    
USER  
USER    DPF = D:/Protein_go_brrr/autodock/final/AncA/heme_O2/dock.dpf
USER    NEWDPF move	heme_O2_opt.pdbqt
USER    NEWDPF about	8.287000 34.468000 -0.670000
USER    NEWDPF tran0	-11.368120 -13.903506 -0.971401
USER    NEWDPF axisangle0	0.494201 0.668254 -0.556060 -164.555753
USER    NEWDPF quaternion0	0.489719 0.662194 -0.551017 -0.134369
USER    NEWDPF dihe0	61.77 -122.23 -56.34 176.09 176.00 127.81 -37.39 75.20 -154.14 -170.76 
USER  
USER                              x       y       z    vdW   Elec        q     RMS 
ATOM      1  C   UNL d   1      -9.694 -14.203   0.296 -0.14 +0.04    +0.064    50.184
ATOM      2  C   UNL d   1     -13.776 -16.571  -0.238 -0.11 +0.01    +0.064    50.184
ATOM      3  C   UNL d   1     -15.250 -13.459  -3.591 -0.19 +0.01    +0.064    50.184
ATOM      4  C   UNL d   1     -10.854 -11.290  -3.393 -0.28 +0.01    +0.064    50.184
ATOM      5  C   UNL d   1     -10.683 -15.102   0.423 -0.11 +0.03    +0.066    50.184
ATOM      6  C   UNL d   1     -10.658 -16.171   1.323 -0.06 -0.01    -0.021    50.184
ATOM      7  C   UNL d   1     -11.821 -16.882   1.139 -0.06 -0.01    -0.025    50.184
ATOM      8  C   UNL d   1     -12.545 -16.200   0.165 -0.09 +0.02    +0.066    50.184
ATOM      9  C   UNL d   1     -12.173 -18.166   1.858 -0.02 +0.01    +0.051    50.184
ATOM     10  C   UNL d   1     -14.594 -15.883  -1.238 -0.13 +0.01    +0.066    50.184
ATOM     11  C   UNL d   1     -15.928 -16.213  -1.501 -0.11 -0.00    -0.021    50.184
ATOM     12  C   UNL d   1     -16.376 -15.316  -2.452 -0.12 +0.00    +0.000    50.184
ATOM     13  C   UNL d   1     -15.261 -14.477  -2.731 -0.15 +0.01    +0.070    50.184
ATOM     14  C   UNL d   1     -16.749 -17.322  -0.852 -0.06 +0.01    +0.052    50.184
ATOM     15  C   UNL d   1     -14.133 -12.609  -3.927 -0.19 +0.00    +0.066    50.184
ATOM     16  C   UNL d   1     -14.138 -11.666  -4.954 -0.27 -0.00    -0.021    50.184
ATOM     17  C   UNL d   1     -12.895 -11.035  -4.918 -0.37 +0.00    +0.000    50.184
ATOM     18  C   UNL d   1     -12.215 -11.648  -3.855 -0.26 +0.01    +0.070    50.184
ATOM     19  C   UNL d   1     -15.297 -11.491  -5.904 -0.21 +0.00    +0.052    50.184
ATOM     20  C   UNL d   1     -10.157 -11.885  -2.406 -0.26 +0.02    +0.066    50.184
ATOM     21  C   UNL d   1      -8.883 -11.492  -2.003 -0.29 -0.01    -0.025    50.184
ATOM     22  C   UNL d   1      -8.548 -12.293  -0.935 -0.25 -0.01    -0.021    50.184
ATOM     23  C   UNL d   1      -9.626 -13.162  -0.736 -0.19 +0.04    +0.066    50.184
ATOM     24  C   UNL d   1      -8.029 -10.409  -2.609 -0.24 +0.02    +0.051    50.184
ATOM     25  N   UNL d   1     -11.815 -15.141  -0.322 -0.08 -0.07    -0.248    50.184
ATOM     26  N   UNL d   1     -14.180 -14.832  -1.992 -0.12 -0.03    -0.248    50.184
ATOM     27  N   UNL d   1     -12.953 -12.651  -3.315 -0.13 -0.03    -0.248    50.184
ATOM     28  N   UNL d   1     -10.582 -12.940  -1.661 -0.08 -0.10    -0.248    50.184
ATOM     29 FE   UNL d   1     -12.369 -13.878  -1.828 -0.06 +0.00    +0.000    50.184
ATOM     30  O   UNL d   1     -12.057 -15.326  -2.305 -0.14 +0.00    +0.000    50.184
ATOM     31  O   UNL d   1     -11.592 -14.099  -3.177 -0.20 +0.00    +0.000    50.184
ATOM     32  C   UNL d   1      -9.528 -16.591   2.226 -0.03 +0.03    +0.052    50.184
ATOM     33  C   UNL d   1      -8.349 -17.186   1.462 -0.01 +0.08    +0.115    50.184
ATOM     34  C   UNL d   1      -7.019 -16.750   2.025 +0.02 +0.19    +0.139    50.184
ATOM     35  O   UNL d   1      -6.942 -16.410   3.195 -0.03 -1.08    -0.650    50.184
ATOM     36  O   UNL d   1      -5.912 -16.699   1.255 -0.05 -1.39    -0.776    50.184
ATOM     37  H   UNL d   1      -5.848 -16.117   0.490 +0.01 +0.32    +0.167    50.184
ATOM     38  C   UNL d   1      -7.237 -12.264  -0.193 -0.04 +0.05    +0.052    50.184
ATOM     39  C   UNL d   1      -6.076 -12.776  -1.042 -0.25 +0.16    +0.115    50.184
ATOM     40  C   UNL d   1      -5.620 -14.153  -0.627 -0.01 +0.29    +0.139    50.184
ATOM     41  O   UNL d   1      -4.781 -14.275   0.250 -0.32 -1.60    -0.650    50.184
ATOM     42  O   UNL d   1      -6.162 -15.259  -1.174 -0.47 -1.63    -0.776    50.184
ATOM     43  H   UNL d   1      -6.623 -15.914  -0.636 +0.02 +0.25    +0.167    50.184
ATOM     44  C   UNL d   1     -17.792 -15.352  -2.989 -0.07 +0.00    +0.004    50.184
ATOM     45  C   UNL d   1     -18.720 -14.399  -2.916 -0.10 +0.00    +0.012    50.184
ATOM     46  C   UNL d   1     -12.295  -9.980  -5.809 -0.53 +0.00    +0.004    50.184
ATOM     47  C   UNL d   1     -11.174  -9.273  -5.617 -0.47 +0.00    +0.012    50.184
TER
ENDMDL
MODEL       83
USER    Run = 83
USER    Cluster Rank = 7
USER    Number of conformations in this cluster = 3
USER  
USER    RMSD from reference structure       = 50.527 A
USER  
USER    Estimated Free Energy of Binding    =   -8.47 kcal/mol  [=(1)+(2)+(3)-(4)]
USER    Estimated Inhibition Constant, Ki   =  623.66 nM (nanomolar)  [Temperature = 298.15 K]
USER    
USER    (1) Final Intermolecular Energy     =  -11.45 kcal/mol
USER        vdW + Hbond + desolv Energy     =   -7.62 kcal/mol
USER        Electrostatic Energy            =   -3.83 kcal/mol
USER    (2) Final Total Internal Energy     =   -0.95 kcal/mol
USER    (3) Torsional Free Energy           =   +2.98 kcal/mol
USER    (4) Unbound System's Energy  [=(2)] =   -0.95 kcal/mol
USER    
USER    
USER  
USER    DPF = D:/Protein_go_brrr/autodock/final/AncA/heme_O2/dock.dpf
USER    NEWDPF move	heme_O2_opt.pdbqt
USER    NEWDPF about	8.287000 34.468000 -0.670000
USER    NEWDPF tran0	-9.727245 -14.832138 -3.215681
USER    NEWDPF axisangle0	0.538500 -0.349587 -0.766686 -171.522212
USER    NEWDPF quaternion0	0.537027 -0.348631 -0.764588 -0.073915
USER    NEWDPF dihe0	41.02 -25.05 -22.76 117.46 -127.60 -179.39 -28.77 -63.76 -164.40 4.38 
USER  
USER                              x       y       z    vdW   Elec        q     RMS 
ATOM      1  C   UNL d   1      -8.415 -14.733  -1.552 -0.11 +0.06    +0.064    50.527
ATOM      2  C   UNL d   1     -11.422 -11.589  -3.459 -0.27 +0.01    +0.064    50.527
ATOM      3  C   UNL d   1     -12.666 -14.720  -6.886 -0.24 +0.01    +0.064    50.527
ATOM      4  C   UNL d   1      -9.933 -18.126  -4.653 -0.05 +0.03    +0.064    50.527
ATOM      5  C   UNL d   1      -9.133 -13.623  -1.790 -0.15 +0.04    +0.066    50.527
ATOM      6  C   UNL d   1      -9.046 -12.455  -1.026 -0.26 -0.01    -0.021    50.527
ATOM      7  C   UNL d   1      -9.947 -11.559  -1.551 -0.31 -0.01    -0.025    50.527
ATOM      8  C   UNL d   1     -10.526 -12.187  -2.650 -0.23 +0.02    +0.066    50.527
ATOM      9  C   UNL d   1     -10.236 -10.188  -0.981 -0.43 +0.01    +0.051    50.527
ATOM     10  C   UNL d   1     -12.046 -12.188  -4.639 -0.23 +0.01    +0.066    50.527
ATOM     11  C   UNL d   1     -12.844 -11.470  -5.536 -0.35 -0.00    -0.021    50.527
ATOM     12  C   UNL d   1     -13.198 -12.351  -6.542 -0.27 +0.00    +0.000    50.527
ATOM     13  C   UNL d   1     -12.592 -13.588  -6.186 -0.25 +0.01    +0.070    50.527
ATOM     14  C   UNL d   1     -13.230  -9.997  -5.453 -0.44 +0.00    +0.052    50.527
ATOM     15  C   UNL d   1     -12.097 -16.001  -6.543 -0.16 +0.02    +0.066    50.527
ATOM     16  C   UNL d   1     -12.348 -17.187  -7.233 -0.12 -0.01    -0.021    50.527
ATOM     17  C   UNL d   1     -11.580 -18.172  -6.613 -0.08 +0.00    +0.000    50.527
ATOM     18  C   UNL d   1     -10.908 -17.504  -5.580 -0.09 +0.03    +0.070    50.527
ATOM     19  C   UNL d   1     -13.329 -17.284  -8.374 -0.10 +0.01    +0.052    50.527
ATOM     20  C   UNL d   1      -9.304 -17.525  -3.624 -0.06 +0.04    +0.066    50.527
ATOM     21  C   UNL d   1      -8.382 -18.159  -2.796 -0.03 -0.02    -0.025    50.527
ATOM     22  C   UNL d   1      -7.919 -17.200  -1.923 -0.05 -0.02    -0.021    50.527
ATOM     23  C   UNL d   1      -8.591 -16.016  -2.241 -0.08 +0.06    +0.066    50.527
ATOM     24  C   UNL d   1      -7.967 -19.607  -2.833 -0.01 +0.03    +0.051    50.527
ATOM     25  N   UNL d   1     -10.072 -13.481  -2.758 -0.01 -0.12    -0.248    50.527
ATOM     26  N   UNL d   1     -11.897 -13.481  -5.025 -0.08 -0.06    -0.248    50.527
ATOM     27  N   UNL d   1     -11.291 -16.204  -5.505 -0.08 -0.08    -0.248    50.527
ATOM     28  N   UNL d   1      -9.465 -16.229  -3.247 -0.05 -0.15    -0.248    50.527
ATOM     29 FE   UNL d   1     -10.674 -14.867  -4.131 -0.04 +0.00    +0.000    50.527
ATOM     30  O   UNL d   1     -11.765 -14.508  -3.082 -0.18 +0.00    +0.000    50.527
ATOM     31  O   UNL d   1     -11.591 -16.003  -3.547 -0.09 +0.00    +0.000    50.527
ATOM     32  C   UNL d   1      -8.248 -12.234   0.233 -0.21 +0.04    +0.052    50.527
ATOM     33  C   UNL d   1      -8.938 -12.785   1.477 -0.30 +0.09    +0.115    50.527
ATOM     34  C   UNL d   1      -7.955 -13.251   2.522 -0.21 +0.18    +0.139    50.527
ATOM     35  O   UNL d   1      -7.440 -12.436   3.271 -0.57 -0.86    -0.650    50.527
ATOM     36  O   UNL d   1      -7.607 -14.549   2.630 +0.02 -1.35    -0.776    50.527
ATOM     37  H   UNL d   1      -7.441 -15.100   1.857 +0.03 +0.29    +0.167    50.527
ATOM     38  C   UNL d   1      -6.933 -17.431  -0.807 -0.04 +0.05    +0.052    50.527
ATOM     39  C   UNL d   1      -5.553 -16.856  -1.122 -0.05 +0.18    +0.115    50.527
ATOM     40  C   UNL d   1      -5.171 -15.732  -0.192 +0.01 +0.28    +0.139    50.527
ATOM     41  O   UNL d   1      -6.030 -14.967   0.218 -0.53 -1.39    -0.650    50.527
ATOM     42  O   UNL d   1      -3.903 -15.584   0.237 -0.27 -1.52    -0.776    50.527
ATOM     43  H   UNL d   1      -3.283 -16.323   0.243 +0.01 +0.24    +0.167    50.527
ATOM     44  C   UNL d   1     -14.063 -11.930  -7.711 -0.23 -0.00    +0.004    50.527
ATOM     45  C   UNL d   1     -14.086 -12.446  -8.940 -0.29 +0.00    +0.012    50.527
ATOM     46  C   UNL d   1     -11.476 -19.652  -6.871 -0.04 +0.00    +0.004    50.527
ATOM     47  C   UNL d   1     -10.442 -20.334  -7.379 -0.06 +0.01    +0.012    50.527
TER
ENDMDL
MODEL       69
USER    Run = 69
USER    Cluster Rank = 8
USER    Number of conformations in this cluster = 3
USER  
USER    RMSD from reference structure       = 46.827 A
USER  
USER    Estimated Free Energy of Binding    =   -8.39 kcal/mol  [=(1)+(2)+(3)-(4)]
USER    Estimated Inhibition Constant, Ki   =  706.06 nM (nanomolar)  [Temperature = 298.15 K]
USER    
USER    (1) Final Intermolecular Energy     =  -11.37 kcal/mol
USER        vdW + Hbond + desolv Energy     =   -7.92 kcal/mol
USER        Electrostatic Energy            =   -3.45 kcal/mol
USER    (2) Final Total Internal Energy     =   -0.63 kcal/mol
USER    (3) Torsional Free Energy           =   +2.98 kcal/mol
USER    (4) Unbound System's Energy  [=(2)] =   -0.63 kcal/mol
USER    
USER    
USER  
USER    DPF = D:/Protein_go_brrr/autodock/final/AncA/heme_O2/dock.dpf
USER    NEWDPF move	heme_O2_opt.pdbqt
USER    NEWDPF about	8.287000 34.468000 -0.670000
USER    NEWDPF tran0	-5.372184 -12.780623 -1.263771
USER    NEWDPF axisangle0	-0.910201 -0.376845 0.171821 -155.958939
USER    NEWDPF quaternion0	-0.890243 -0.368582 0.168053 -0.208262
USER    NEWDPF dihe0	25.44 -116.44 -61.48 -131.63 48.33 -117.34 -149.07 -50.79 -169.48 -37.28 
USER  
USER                              x       y       z    vdW   Elec        q     RMS 
ATOM      1  C   UNL d   1      -5.913 -14.722  -0.604 +0.03 +0.13    +0.064    46.827
ATOM      2  C   UNL d   1      -8.401 -11.204  -2.602 -0.25 +0.03    +0.064    46.827
ATOM      3  C   UNL d   1      -4.499  -8.403  -2.745 -0.07 +0.03    +0.064    46.827
ATOM      4  C   UNL d   1      -1.824 -12.184  -1.130 -0.23 +0.06    +0.064    46.827
ATOM      5  C   UNL d   1      -6.908 -13.995  -1.137 -0.16 +0.10    +0.066    46.827
ATOM      6  C   UNL d   1      -8.227 -14.442  -1.259 -0.12 -0.02    -0.021    46.827
ATOM      7  C   UNL d   1      -8.939 -13.441  -1.877 -0.18 -0.02    -0.025    46.827
ATOM      8  C   UNL d   1      -8.046 -12.390  -2.072 -0.22 +0.05    +0.066    46.827
ATOM      9  C   UNL d   1     -10.396 -13.533  -2.274 -0.20 +0.02    +0.051    46.827
ATOM     10  C   UNL d   1      -7.515 -10.058  -2.810 +0.09 +0.03    +0.066    46.827
ATOM     11  C   UNL d   1      -7.969  -8.797  -3.211 -0.35 -0.01    -0.021    46.827
ATOM     12  C   UNL d   1      -6.861  -7.970  -3.241 -0.25 +0.00    +0.000    46.827
ATOM     13  C   UNL d   1      -5.767  -8.796  -2.859 +0.28 +0.04    +0.070    46.827
ATOM     14  C   UNL d   1      -9.404  -8.391  -3.526 -0.51 +0.01    +0.052    46.827
ATOM     15  C   UNL d   1      -3.358  -9.214  -2.396 -0.38 +0.03    +0.066    46.827
ATOM     16  C   UNL d   1      -2.033  -8.783  -2.454 -0.45 -0.01    -0.021    46.827
ATOM     17  C   UNL d   1      -1.252  -9.845  -1.998 -0.41 +0.00    +0.000    46.827
ATOM     18  C   UNL d   1      -2.172 -10.858  -1.691 -0.31 +0.05    +0.070    46.827
ATOM     19  C   UNL d   1      -1.632  -7.429  -2.984 -0.47 +0.01    +0.052    46.827
ATOM     20  C   UNL d   1      -2.676 -13.194  -0.864 -0.13 +0.09    +0.066    46.827
ATOM     21  C   UNL d   1      -2.292 -14.416  -0.319 -0.11 -0.03    -0.025    46.827
ATOM     22  C   UNL d   1      -3.448 -15.141  -0.136 -0.06 -0.04    -0.021    46.827
ATOM     23  C   UNL d   1      -4.497 -14.339  -0.596 +0.14 +0.15    +0.066    46.827
ATOM     24  C   UNL d   1      -0.893 -14.869   0.009 -0.13 +0.04    +0.051    46.827
ATOM     25  N   UNL d   1      -6.780 -12.757  -1.675 -0.16 -0.31    -0.248    46.827
ATOM     26  N   UNL d   1      -6.173 -10.065  -2.603 -0.04 -0.15    -0.248    46.827
ATOM     27  N   UNL d   1      -3.438 -10.484  -2.009 -0.22 -0.17    -0.248    46.827
ATOM     28  N   UNL d   1      -4.018 -13.174  -1.080 -0.12 -0.47    -0.248    46.827
ATOM     29 FE   UNL d   1      -5.085 -11.630  -1.836 -0.06 +0.00    +0.000    46.827
ATOM     30  O   UNL d   1      -5.647 -12.118  -3.203 -0.45 +0.00    +0.000    46.827
ATOM     31  O   UNL d   1      -4.091 -12.110  -2.956 -0.84 +0.00    +0.000    46.827
ATOM     32  C   UNL d   1      -8.771 -15.809  -0.934 -0.06 +0.04    +0.052    46.827
ATOM     33  C   UNL d   1      -8.620 -16.796  -2.088 -0.05 +0.09    +0.115    46.827
ATOM     34  C   UNL d   1      -7.433 -16.481  -2.963 -0.04 +0.18    +0.139    46.827
ATOM     35  O   UNL d   1      -7.605 -15.935  -4.041 +0.00 -0.85    -0.650    46.827
ATOM     36  O   UNL d   1      -6.179 -16.815  -2.593 -0.09 -1.54    -0.776    46.827
ATOM     37  H   UNL d   1      -6.001 -17.547  -1.992 +0.01 +0.22    +0.167    46.827
ATOM     38  C   UNL d   1      -3.526 -16.551   0.390 -0.10 +0.08    +0.052    46.827
ATOM     39  C   UNL d   1      -3.053 -16.658   1.839 +0.31 +0.17    +0.115    46.827
ATOM     40  C   UNL d   1      -4.057 -17.356   2.722 +0.18 +0.21    +0.139    46.827
ATOM     41  O   UNL d   1      -4.826 -18.172   2.239 -0.03 -0.69    -0.650    46.827
ATOM     42  O   UNL d   1      -4.088 -17.134   4.050 -0.38 -1.18    -0.776    46.827
ATOM     43  H   UNL d   1      -3.865 -17.827   4.683 +0.01 +0.15    +0.167    46.827
ATOM     44  C   UNL d   1      -6.959  -6.509  -3.626 -0.49 +0.00    +0.004    46.827
ATOM     45  C   UNL d   1      -6.736  -5.443  -2.858 -0.50 +0.00    +0.012    46.827
ATOM     46  C   UNL d   1       0.241  -9.997  -1.888 -0.08 +0.00    +0.004    46.827
ATOM     47  C   UNL d   1       0.989 -11.067  -2.187 -0.28 +0.00    +0.012    46.827
TER
ENDMDL
MODEL       23
USER    Run = 23
USER    Cluster Rank = 9
USER    Number of conformations in this cluster = 3
USER  
USER    RMSD from reference structure       = 51.189 A
USER  
USER    Estimated Free Energy of Binding    =   -8.16 kcal/mol  [=(1)+(2)+(3)-(4)]
USER    Estimated Inhibition Constant, Ki   =    1.05 uM (micromolar)  [Temperature = 298.15 K]
USER    
USER    (1) Final Intermolecular Energy     =  -11.14 kcal/mol
USER        vdW + Hbond + desolv Energy     =   -7.22 kcal/mol
USER        Electrostatic Energy            =   -3.92 kcal/mol
USER    (2) Final Total Internal Energy     =   -0.25 kcal/mol
USER    (3) Torsional Free Energy           =   +2.98 kcal/mol
USER    (4) Unbound System's Energy  [=(2)] =   -0.25 kcal/mol
USER    
USER    
USER  
USER    DPF = D:/Protein_go_brrr/autodock/final/AncA/heme_O2/dock.dpf
USER    NEWDPF move	heme_O2_opt.pdbqt
USER    NEWDPF about	8.287000 34.468000 -0.670000
USER    NEWDPF tran0	-11.652367 -14.816243 1.905721
USER    NEWDPF axisangle0	0.287532 0.386928 -0.876135 -147.017822
USER    NEWDPF quaternion0	0.275704 0.371012 -0.840094 -0.283866
USER    NEWDPF dihe0	-129.65 -82.55 -52.63 129.97 -79.53 157.37 63.34 86.64 -18.24 -132.33 
USER  
USER                              x       y       z    vdW   Elec        q     RMS 
ATOM      1  C   UNL d   1      -9.756 -14.022   2.427 -0.19 +0.04    +0.064    51.189
ATOM      2  C   UNL d   1     -13.358 -15.697   5.031 -0.15 +0.02    +0.064    51.189
ATOM      3  C   UNL d   1     -15.947 -16.544   1.072 -0.13 +0.01    +0.064    51.189
ATOM      4  C   UNL d   1     -12.064 -15.270  -1.642 -0.12 +0.02    +0.064    51.189
ATOM      5  C   UNL d   1     -10.523 -14.410   3.458 -0.20 +0.03    +0.066    51.189
ATOM      6  C   UNL d   1     -10.144 -14.306   4.799 -0.23 -0.01    -0.021    51.189
ATOM      7  C   UNL d   1     -11.168 -14.831   5.552 -0.19 -0.01    -0.025    51.189
ATOM      8  C   UNL d   1     -12.166 -15.196   4.653 -0.15 +0.02    +0.066    51.189
ATOM      9  C   UNL d   1     -11.144 -14.986   7.057 -0.19 +0.02    +0.051    51.189
ATOM     10  C   UNL d   1     -14.451 -16.077   4.135 -0.17 +0.01    +0.066    51.189
ATOM     11  C   UNL d   1     -15.726 -16.436   4.587 -0.13 -0.00    -0.021    51.189
ATOM     12  C   UNL d   1     -16.492 -16.667   3.460 -0.13 +0.00    +0.000    51.189
ATOM     13  C   UNL d   1     -15.619 -16.442   2.360 -0.15 +0.01    +0.070    51.189
ATOM     14  C   UNL d   1     -16.200 -16.529   6.033 -0.10 +0.00    +0.052    51.189
ATOM     15  C   UNL d   1     -15.084 -16.359  -0.069 -0.11 +0.01    +0.066    51.189
ATOM     16  C   UNL d   1     -15.444 -16.641  -1.387 -0.09 -0.00    -0.021    51.189
ATOM     17  C   UNL d   1     -14.352 -16.286  -2.179 -0.09 +0.00    +0.000    51.189
ATOM     18  C   UNL d   1     -13.395 -15.806  -1.273 -0.13 +0.01    +0.070    51.189
ATOM     19  C   UNL d   1     -16.763 -17.268  -1.763 -0.04 +0.01    +0.052    51.189
ATOM     20  C   UNL d   1     -11.107 -14.842  -0.796 -0.09 +0.02    +0.066    51.189
ATOM     21  C   UNL d   1      -9.878 -14.330  -1.204 -0.14 -0.01    -0.025    51.189
ATOM     22  C   UNL d   1      -9.218 -13.944  -0.059 -0.15 -0.01    -0.021    51.189
ATOM     23  C   UNL d   1     -10.064 -14.253   1.011 -0.13 +0.04    +0.066    51.189
ATOM     24  C   UNL d   1      -9.359 -14.218  -2.614 -0.14 +0.03    +0.051    51.189
ATOM     25  N   UNL d   1     -11.741 -14.997   3.359 -0.14 -0.09    -0.248    51.189
ATOM     26  N   UNL d   1     -14.378 -16.088   2.780 -0.12 -0.05    -0.248    51.189
ATOM     27  N   UNL d   1     -13.828 -15.928   0.008 -0.07 -0.05    -0.248    51.189
ATOM     28  N   UNL d   1     -11.192 -14.840   0.561 -0.04 -0.10    -0.248    51.189
ATOM     29 FE   UNL d   1     -12.775 -15.460   1.660 -0.05 +0.00    +0.000    51.189
ATOM     30  O   UNL d   1     -12.288 -16.705   2.458 -0.10 +0.00    +0.000    51.189
ATOM     31  O   UNL d   1     -12.220 -16.711   0.884 -0.10 +0.00    +0.000    51.189
ATOM     32  C   UNL d   1      -8.814 -13.859   5.350 -0.30 +0.03    +0.052    51.189
ATOM     33  C   UNL d   1      -8.514 -12.393   5.055 -0.45 +0.06    +0.115    51.189
ATOM     34  C   UNL d   1      -7.270 -12.217   4.220 -0.42 +0.14    +0.139    51.189
ATOM     35  O   UNL d   1      -7.310 -11.522   3.217 -0.34 -0.67    -0.650    51.189
ATOM     36  O   UNL d   1      -6.115 -12.836   4.539 -0.31 -1.43    -0.776    51.189
ATOM     37  H   UNL d   1      -5.279 -12.358   4.603 +0.03 +0.24    +0.167    51.189
ATOM     38  C   UNL d   1      -7.825 -13.371   0.002 -0.22 +0.05    +0.052    51.189
ATOM     39  C   UNL d   1      -6.932 -13.893  -1.122 -0.18 +0.17    +0.115    51.189
ATOM     40  C   UNL d   1      -6.112 -15.087  -0.699 +0.06 +0.27    +0.139    51.189
ATOM     41  O   UNL d   1      -5.352 -14.993   0.252 -0.58 -1.61    -0.650    51.189
ATOM     42  O   UNL d   1      -6.240 -16.274  -1.321 -0.32 -1.37    -0.776    51.189
ATOM     43  H   UNL d   1      -6.967 -16.875  -1.118 +0.02 +0.19    +0.167    51.189
ATOM     44  C   UNL d   1     -17.948 -17.074   3.547 -0.07 +0.00    +0.004    51.189
ATOM     45  C   UNL d   1     -19.003 -16.461   3.011 -0.09 +0.00    +0.012    51.189
ATOM     46  C   UNL d   1     -14.124 -16.412  -3.662 -0.05 +0.00    +0.004    51.189
ATOM     47  C   UNL d   1     -13.822 -15.447  -4.539 -0.07 +0.00    +0.012    51.189
TER
ENDMDL
MODEL       46
USER    Run = 46
USER    Cluster Rank = 10
USER    Number of conformations in this cluster = 1
USER  
USER    RMSD from reference structure       = 46.563 A
USER  
USER    Estimated Free Energy of Binding    =   -7.62 kcal/mol  [=(1)+(2)+(3)-(4)]
USER    Estimated Inhibition Constant, Ki   =    2.61 uM (micromolar)  [Temperature = 298.15 K]
USER    
USER    (1) Final Intermolecular Energy     =  -10.60 kcal/mol
USER        vdW + Hbond + desolv Energy     =   -6.89 kcal/mol
USER        Electrostatic Energy            =   -3.71 kcal/mol
USER    (2) Final Total Internal Energy     =   -0.50 kcal/mol
USER    (3) Torsional Free Energy           =   +2.98 kcal/mol
USER    (4) Unbound System's Energy  [=(2)] =   -0.50 kcal/mol
USER    
USER    
USER  
USER    DPF = D:/Protein_go_brrr/autodock/final/AncA/heme_O2/dock.dpf
USER    NEWDPF move	heme_O2_opt.pdbqt
USER    NEWDPF about	8.287000 34.468000 -0.670000
USER    NEWDPF tran0	0.993794 -14.274747 0.614522
USER    NEWDPF axisangle0	-0.653153 0.414057 0.633994 -74.800489
USER    NEWDPF quaternion0	-0.396711 0.251490 0.385075 -0.794412
USER    NEWDPF dihe0	-105.62 57.14 -17.05 41.22 -55.73 96.48 48.27 -76.22 -22.06 119.35 
USER  
USER                              x       y       z    vdW   Elec        q     RMS 
ATOM      1  C   UNL d   1      -0.649 -15.471   1.223 -0.09 +0.05    +0.064    46.563
ATOM      2  C   UNL d   1       2.590 -12.992   3.657 -0.15 +0.02    +0.064    46.563
ATOM      3  C   UNL d   1       4.744 -11.630  -0.418 -0.27 +0.01    +0.064    46.563
ATOM      4  C   UNL d   1       1.136 -13.785  -2.949 -0.12 +0.03    +0.064    46.563
ATOM      5  C   UNL d   1       0.055 -14.906   2.217 -0.10 +0.04    +0.066    46.563
ATOM      6  C   UNL d   1      -0.232 -15.077   3.575 -0.12 -0.01    -0.021    46.563
ATOM      7  C   UNL d   1       0.679 -14.324   4.279 -0.15 -0.01    -0.025    46.563
ATOM      8  C   UNL d   1       1.527 -13.754   3.334 -0.14 +0.03    +0.066    46.563
ATOM      9  C   UNL d   1       0.687 -14.160   5.783 -0.18 +0.03    +0.051    46.563
ATOM     10  C   UNL d   1       3.529 -12.385   2.711 -0.15 +0.02    +0.066    46.563
ATOM     11  C   UNL d   1       4.707 -11.741   3.104 -0.14 -0.01    -0.021    46.563
ATOM     12  C   UNL d   1       5.351 -11.357   1.942 -0.15 +0.00    +0.000    46.563
ATOM     13  C   UNL d   1       4.504 -11.787   0.884 -0.16 +0.01    +0.070    46.563
ATOM     14  C   UNL d   1       5.211 -11.525   4.526 -0.12 +0.02    +0.052    46.563
ATOM     15  C   UNL d   1       3.896 -12.020  -1.519 -0.19 +0.01    +0.066    46.563
ATOM     16  C   UNL d   1       4.125 -11.681  -2.852 -0.25 -0.00    -0.021    46.563
ATOM     17  C   UNL d   1       3.108 -12.284  -3.592 -0.23 +0.00    +0.000    46.563
ATOM     18  C   UNL d   1       2.326 -12.956  -2.643 -0.13 +0.02    +0.070    46.563
ATOM     19  C   UNL d   1       5.250 -10.776  -3.289 -0.25 +0.01    +0.052    46.563
ATOM     20  C   UNL d   1       0.338 -14.407  -2.060 -0.08 +0.04    +0.066    46.563
ATOM     21  C   UNL d   1      -0.759 -15.189  -2.409 -0.11 -0.02    -0.025    46.563
ATOM     22  C   UNL d   1      -1.264 -15.700  -1.235 -0.09 -0.02    -0.021    46.563
ATOM     23  C   UNL d   1      -0.463 -15.194  -0.206 -0.08 +0.05    +0.066    46.563
ATOM     24  C   UNL d   1      -1.301 -15.434  -3.794 -0.10 +0.07    +0.051    46.563
ATOM     25  N   UNL d   1       1.103 -14.060   2.062 -0.08 -0.12    -0.248    46.563
ATOM     26  N   UNL d   1       3.396 -12.408   1.361 -0.10 -0.07    -0.248    46.563
ATOM     27  N   UNL d   1       2.775 -12.723  -1.383 -0.06 -0.07    -0.248    46.563
ATOM     28  N   UNL d   1       0.482 -14.373  -0.708 -0.04 -0.14    -0.248    46.563
ATOM     29 FE   UNL d   1       1.929 -13.396   0.316 -0.03 +0.00    +0.000    46.563
ATOM     30  O   UNL d   1       1.209 -12.284   1.133 -0.33 +0.00    +0.000    46.563
ATOM     31  O   UNL d   1       1.071 -12.314  -0.436 -0.27 +0.00    +0.000    46.563
ATOM     32  C   UNL d   1      -1.400 -15.806   4.187 +0.11 +0.05    +0.052    46.563
ATOM     33  C   UNL d   1      -1.423 -17.290   3.832 -0.06 +0.08    +0.115    46.563
ATOM     34  C   UNL d   1      -2.793 -17.758   3.407 -0.06 +0.12    +0.139    46.563
ATOM     35  O   UNL d   1      -2.897 -18.715   2.656 +0.01 -0.44    -0.650    46.563
ATOM     36  O   UNL d   1      -3.911 -17.124   3.815 -0.32 -1.20    -0.776    46.563
ATOM     37  H   UNL d   1      -4.491 -17.495   4.491 +0.01 +0.20    +0.167    46.563
ATOM     38  C   UNL d   1      -2.486 -16.572  -1.110 -0.10 +0.07    +0.052    46.563
ATOM     39  C   UNL d   1      -3.352 -16.192   0.089 -0.12 +0.17    +0.115    46.563
ATOM     40  C   UNL d   1      -4.574 -15.403  -0.311 +0.02 +0.29    +0.139    46.563
ATOM     41  O   UNL d   1      -4.730 -14.270   0.115 -0.30 -1.56    -0.650    46.563
ATOM     42  O   UNL d   1      -5.477 -15.908  -1.174 -0.28 -1.73    -0.776    46.563
ATOM     43  H   UNL d   1      -5.952 -16.726  -0.986 +0.02 +0.25    +0.167    46.563
ATOM     44  C   UNL d   1       6.680 -10.630   1.962 -0.24 +0.00    +0.004    46.563
ATOM     45  C   UNL d   1       7.582 -10.547   0.985 -0.32 +0.00    +0.012    46.563
ATOM     46  C   UNL d   1       2.793 -12.231  -5.063 -0.32 +0.00    +0.004    46.563
ATOM     47  C   UNL d   1       3.647 -12.155  -6.092 -0.49 +0.00    +0.012    46.563
TER
ENDMDL
MODEL       18
USER    Run = 18
USER    Cluster Rank = 11
USER    Number of conformations in this cluster = 4
USER  
USER    RMSD from reference structure       = 52.405 A
USER  
USER    Estimated Free Energy of Binding    =   -7.60 kcal/mol  [=(1)+(2)+(3)-(4)]
USER    Estimated Inhibition Constant, Ki   =    2.67 uM (micromolar)  [Temperature = 298.15 K]
USER    
USER    (1) Final Intermolecular Energy     =  -10.59 kcal/mol
USER        vdW + Hbond + desolv Energy     =   -7.00 kcal/mol
USER        Electrostatic Energy            =   -3.58 kcal/mol
USER    (2) Final Total Internal Energy     =   -0.56 kcal/mol
USER    (3) Torsional Free Energy           =   +2.98 kcal/mol
USER    (4) Unbound System's Energy  [=(2)] =   -0.56 kcal/mol
USER    
USER    
USER  
USER    DPF = D:/Protein_go_brrr/autodock/final/AncA/heme_O2/dock.dpf
USER    NEWDPF move	heme_O2_opt.pdbqt
USER    NEWDPF about	8.287000 34.468000 -0.670000
USER    NEWDPF tran0	-11.626303 -16.014462 -6.945386
USER    NEWDPF axisangle0	0.479067 -0.137063 -0.867011 161.497827
USER    NEWDPF quaternion0	0.472836 -0.135280 -0.855734 0.160761
USER    NEWDPF dihe0	-15.19 -48.46 -82.97 122.85 35.97 24.42 -51.64 58.34 -3.76 34.29 
USER  
USER                              x       y       z    vdW   Elec        q     RMS 
ATOM      1  C   UNL d   1     -10.319 -17.145  -5.716 -0.14 +0.03    +0.064    52.405
ATOM      2  C   UNL d   1     -12.648 -13.064  -5.021 -0.21 +0.01    +0.064    52.405
ATOM      3  C   UNL d   1     -14.489 -13.253  -9.456 -0.26 +0.01    +0.064    52.405
ATOM      4  C   UNL d   1     -12.480 -17.693 -10.013 -0.13 +0.02    +0.064    52.405
ATOM      5  C   UNL d   1     -10.804 -16.021  -5.164 -0.10 +0.03    +0.066    52.405
ATOM      6  C   UNL d   1     -10.487 -15.582  -3.876 -0.07 -0.01    -0.021    52.405
ATOM      7  C   UNL d   1     -11.194 -14.423  -3.657 -0.07 -0.01    -0.025    52.405
ATOM      8  C   UNL d   1     -11.886 -14.160  -4.837 -0.10 +0.02    +0.066    52.405
ATOM      9  C   UNL d   1     -11.206 -13.647  -2.358 -0.19 +0.02    +0.051    52.405
ATOM     10  C   UNL d   1     -13.379 -12.724  -6.242 -0.23 +0.01    +0.066    52.405
ATOM     11  C   UNL d   1     -14.020 -11.495  -6.438 -0.26 -0.00    -0.021    52.405
ATOM     12  C   UNL d   1     -14.541 -11.523  -7.718 -0.19 -0.00    +0.000    52.405
ATOM     13  C   UNL d   1     -14.192 -12.800  -8.238 -0.22 +0.00    +0.070    52.405
ATOM     14  C   UNL d   1     -14.107 -10.333  -5.455 -0.37 +0.00    +0.052    52.405
ATOM     15  C   UNL d   1     -14.184 -14.551 -10.007 -0.20 +0.01    +0.066    52.405
ATOM     16  C   UNL d   1     -14.664 -15.024 -11.228 -0.20 -0.01    -0.021    52.405
ATOM     17  C   UNL d   1     -14.105 -16.289 -11.408 -0.18 +0.00    +0.000    52.405
ATOM     18  C   UNL d   1     -13.314 -16.495 -10.269 -0.15 +0.02    +0.070    52.405
ATOM     19  C   UNL d   1     -15.646 -14.258 -12.078 -0.01 +0.04    +0.052    52.405
ATOM     20  C   UNL d   1     -11.744 -17.942  -8.913 -0.15 +0.02    +0.066    52.405
ATOM     21  C   UNL d   1     -10.964 -19.082  -8.736 -0.12 -0.01    -0.025    52.405
ATOM     22  C   UNL d   1     -10.320 -18.930  -7.529 -0.13 -0.01    -0.021    52.405
ATOM     23  C   UNL d   1     -10.746 -17.706  -7.003 -0.16 +0.03    +0.066    52.405
ATOM     24  C   UNL d   1     -10.843 -20.257  -9.671 -0.08 +0.02    +0.051    52.405
ATOM     25  N   UNL d   1     -11.697 -15.180  -5.741 -0.11 -0.07    -0.248    52.405
ATOM     26  N   UNL d   1     -13.488 -13.526  -7.332 -0.17 -0.02    -0.248    52.405
ATOM     27  N   UNL d   1     -13.433 -15.462  -9.396 -0.01 -0.02    -0.248    52.405
ATOM     28  N   UNL d   1     -11.646 -17.130  -7.827 -0.13 -0.07    -0.248    52.405
ATOM     29 FE   UNL d   1     -12.562 -15.342  -7.583 -0.05 +0.00    +0.000    52.405
ATOM     30  O   UNL d   1     -13.560 -15.521  -6.403 -0.11 +0.00    +0.000    52.405
ATOM     31  O   UNL d   1     -13.685 -16.438  -7.678 -0.11 +0.00    +0.000    52.405
ATOM     32  C   UNL d   1      -9.659 -16.292  -2.836 -0.08 +0.03    +0.052    52.405
ATOM     33  C   UNL d   1      -8.159 -16.139  -3.066 -0.12 +0.12    +0.115    52.405
ATOM     34  C   UNL d   1      -7.442 -15.606  -1.851 -0.02 +0.19    +0.139    52.405
ATOM     35  O   UNL d   1      -6.906 -14.510  -1.899 -0.40 -1.22    -0.650    52.405
ATOM     36  O   UNL d   1      -7.354 -16.327  -0.714 -0.00 -0.88    -0.776    52.405
ATOM     37  H   UNL d   1      -7.909 -17.099  -0.554 +0.02 +0.14    +0.167    52.405
ATOM     38  C   UNL d   1      -9.398 -19.938  -6.893 -0.09 +0.03    +0.052    52.405
ATOM     39  C   UNL d   1      -8.143 -19.292  -6.309 -0.13 +0.10    +0.115    52.405
ATOM     40  C   UNL d   1      -6.876 -19.870  -6.887 -0.02 +0.21    +0.139    52.405
ATOM     41  O   UNL d   1      -5.806 -19.322  -6.671 -0.05 -1.15    -0.650    52.405
ATOM     42  O   UNL d   1      -6.894 -21.013  -7.599 -0.56 -1.38    -0.776    52.405
ATOM     43  H   UNL d   1      -7.384 -21.788  -7.297 +0.01 +0.17    +0.167    52.405
ATOM     44  C   UNL d   1     -15.307 -10.354  -8.300 -0.28 +0.00    +0.004    52.405
ATOM     45  C   UNL d   1     -14.832  -9.345  -9.029 -0.40 -0.00    +0.012    52.405
ATOM     46  C   UNL d   1     -14.296 -17.308 -12.500 -0.13 +0.00    +0.004    52.405
ATOM     47  C   UNL d   1     -13.389 -17.770 -13.370 -0.14 +0.01    +0.012    52.405
TER
ENDMDL
MODEL       94
USER    Run = 94
USER    Cluster Rank = 12
USER    Number of conformations in this cluster = 1
USER  
USER    RMSD from reference structure       = 51.288 A
USER  
USER    Estimated Free Energy of Binding    =   -7.52 kcal/mol  [=(1)+(2)+(3)-(4)]
USER    Estimated Inhibition Constant, Ki   =    3.10 uM (micromolar)  [Temperature = 298.15 K]
USER    
USER    (1) Final Intermolecular Energy     =  -10.50 kcal/mol
USER        vdW + Hbond + desolv Energy     =   -6.88 kcal/mol
USER        Electrostatic Energy            =   -3.62 kcal/mol
USER    (2) Final Total Internal Energy     =   -0.54 kcal/mol
USER    (3) Torsional Free Energy           =   +2.98 kcal/mol
USER    (4) Unbound System's Energy  [=(2)] =   -0.54 kcal/mol
USER    
USER    
USER  
USER    DPF = D:/Protein_go_brrr/autodock/final/AncA/heme_O2/dock.dpf
USER    NEWDPF move	heme_O2_opt.pdbqt
USER    NEWDPF about	8.287000 34.468000 -0.670000
USER    NEWDPF tran0	-10.004753 -15.593829 5.463435
USER    NEWDPF axisangle0	-0.088801 -0.941653 -0.324660 -126.809002
USER    NEWDPF quaternion0	-0.079405 -0.842016 -0.290308 -0.447689
USER    NEWDPF dihe0	-8.53 67.90 94.72 -98.39 -153.49 -178.71 -17.95 -80.00 34.07 -21.40 
USER  
USER                              x       y       z    vdW   Elec        q     RMS 
ATOM      1  C   UNL d   1      -8.105 -15.313   4.563 -0.10 +0.06    +0.064    51.288
ATOM      2  C   UNL d   1     -12.491 -15.618   2.768 -0.11 +0.02    +0.064    51.288
ATOM      3  C   UNL d   1     -14.340 -16.282   7.154 -0.10 +0.01    +0.064    51.288
ATOM      4  C   UNL d   1      -9.889 -15.493   9.060 -0.10 +0.02    +0.064    51.288
ATOM      5  C   UNL d   1      -9.147 -15.340   3.717 -0.08 +0.05    +0.066    51.288
ATOM      6  C   UNL d   1      -9.033 -15.207   2.330 -0.10 -0.02    -0.021    51.288
ATOM      7  C   UNL d   1     -10.307 -15.252   1.813 -0.12 -0.01    -0.025    51.288
ATOM      8  C   UNL d   1     -11.160 -15.459   2.894 -0.12 +0.03    +0.066    51.288
ATOM      9  C   UNL d   1     -10.655 -15.071   0.352 -0.13 +0.02    +0.051    51.288
ATOM     10  C   UNL d   1     -13.433 -15.861   3.861 -0.18 +0.01    +0.066    51.288
ATOM     11  C   UNL d   1     -14.780 -16.182   3.659 -0.18 -0.00    -0.021    51.288
ATOM     12  C   UNL d   1     -15.326 -16.394   4.912 -0.14 +0.00    +0.000    51.288
ATOM     13  C   UNL d   1     -14.261 -16.175   5.828 -0.10 +0.01    +0.070    51.288
ATOM     14  C   UNL d   1     -15.509 -16.306   2.326 -0.16 +0.01    +0.052    51.288
ATOM     15  C   UNL d   1     -13.294 -16.034   8.117 -0.10 +0.01    +0.066    51.288
ATOM     16  C   UNL d   1     -13.483 -16.004   9.498 -0.08 -0.00    -0.021    51.288
ATOM     17  C   UNL d   1     -12.228 -15.779  10.063 -0.09 +0.00    +0.000    51.288
ATOM     18  C   UNL d   1     -11.355 -15.691   8.969 -0.10 +0.02    +0.070    51.288
ATOM     19  C   UNL d   1     -14.838 -16.135  10.147 -0.05 +0.00    +0.052    51.288
ATOM     20  C   UNL d   1      -9.030 -15.360   8.031 -0.10 +0.02    +0.066    51.288
ATOM     21  C   UNL d   1      -7.655 -15.194   8.179 -0.11 -0.01    -0.025    51.288
ATOM     22  C   UNL d   1      -7.127 -15.168   6.908 -0.12 -0.01    -0.021    51.288
ATOM     23  C   UNL d   1      -8.205 -15.302   6.027 -0.10 +0.04    +0.066    51.288
ATOM     24  C   UNL d   1      -6.886 -15.062   9.468 -0.12 +0.01    +0.051    51.288
ATOM     25  N   UNL d   1     -10.451 -15.448   4.073 -0.05 -0.11    -0.248    51.288
ATOM     26  N   UNL d   1     -13.114 -15.846   5.180 -0.10 -0.07    -0.248    51.288
ATOM     27  N   UNL d   1     -12.031 -15.773   7.795 -0.08 -0.07    -0.248    51.288
ATOM     28  N   UNL d   1      -9.365 -15.373   6.714 -0.05 -0.10    -0.248    51.288
ATOM     29 FE   UNL d   1     -11.227 -15.608   5.955 -0.03 +0.00    +0.000    51.288
ATOM     30  O   UNL d   1     -11.578 -14.270   5.243 -0.81 +0.00    +0.000    51.288
ATOM     31  O   UNL d   1     -11.217 -14.267   6.776 -0.60 +0.00    +0.000    51.288
ATOM     32  C   UNL d   1      -7.791 -14.911   1.530 -0.09 +0.07    +0.052    51.288
ATOM     33  C   UNL d   1      -7.432 -16.031   0.559 -0.06 +0.14    +0.115    51.288
ATOM     34  C   UNL d   1      -6.524 -15.561  -0.551 -0.09 +0.23    +0.139    51.288
ATOM     35  O   UNL d   1      -5.466 -15.018  -0.275 -0.53 -1.44    -0.650    51.288
ATOM     36  O   UNL d   1      -6.867 -15.701  -1.848 -0.51 -1.42    -0.776    51.288
ATOM     37  H   UNL d   1      -7.642 -16.206  -2.119 +0.02 +0.20    +0.167    51.288
ATOM     38  C   UNL d   1      -5.675 -14.960   6.564 -0.14 +0.05    +0.052    51.288
ATOM     39  C   UNL d   1      -4.853 -16.239   6.713 -0.09 +0.08    +0.115    51.288
ATOM     40  C   UNL d   1      -4.632 -16.938   5.395 -0.04 +0.15    +0.139    51.288
ATOM     41  O   UNL d   1      -5.500 -16.904   4.537 -0.49 -1.07    -0.650    51.288
ATOM     42  O   UNL d   1      -3.468 -17.560   5.124 -0.03 -0.63    -0.776    51.288
ATOM     43  H   UNL d   1      -3.218 -18.379   5.569 +0.01 +0.09    +0.167    51.288
ATOM     44  C   UNL d   1     -16.780 -16.774   5.101 -0.10 +0.00    +0.004    51.288
ATOM     45  C   UNL d   1     -17.825 -15.962   5.258 -0.13 +0.00    +0.012    51.288
ATOM     46  C   UNL d   1     -11.808 -15.590  11.497 -0.09 +0.00    +0.004    51.288
ATOM     47  C   UNL d   1     -11.456 -14.455  12.114 -0.15 +0.00    +0.012    51.288
TER
ENDMDL
MODEL       65
USER    Run = 65
USER    Cluster Rank = 13
USER    Number of conformations in this cluster = 8
USER  
USER    RMSD from reference structure       = 52.545 A
USER  
USER    Estimated Free Energy of Binding    =   -7.26 kcal/mol  [=(1)+(2)+(3)-(4)]
USER    Estimated Inhibition Constant, Ki   =    4.79 uM (micromolar)  [Temperature = 298.15 K]
USER    
USER    (1) Final Intermolecular Energy     =  -10.24 kcal/mol
USER        vdW + Hbond + desolv Energy     =   -6.00 kcal/mol
USER        Electrostatic Energy            =   -4.24 kcal/mol
USER    (2) Final Total Internal Energy     =   -0.50 kcal/mol
USER    (3) Torsional Free Energy           =   +2.98 kcal/mol
USER    (4) Unbound System's Energy  [=(2)] =   -0.50 kcal/mol
USER    
USER    
USER  
USER    DPF = D:/Protein_go_brrr/autodock/final/AncA/heme_O2/dock.dpf
USER    NEWDPF move	heme_O2_opt.pdbqt
USER    NEWDPF about	8.287000 34.468000 -0.670000
USER    NEWDPF tran0	-9.607038 -17.440701 -4.859758
USER    NEWDPF axisangle0	-0.242478 -0.968997 -0.047425 151.648998
USER    NEWDPF quaternion0	-0.235094 -0.939491 -0.045981 0.244893
USER    NEWDPF dihe0	75.44 139.79 63.00 -104.21 172.27 88.85 116.04 63.58 -136.88 177.82 
USER  
USER                              x       y       z    vdW   Elec        q     RMS 
ATOM      1  C   UNL d   1      -8.301 -17.753  -3.218 -0.06 +0.05    +0.064    52.545
ATOM      2  C   UNL d   1      -8.563 -19.728  -7.529 -0.11 +0.06    +0.064    52.545
ATOM      3  C   UNL d   1     -12.385 -17.033  -8.633 -0.12 +0.01    +0.064    52.545
ATOM      4  C   UNL d   1     -11.834 -14.653  -4.379 -0.09 +0.02    +0.064    52.545
ATOM      5  C   UNL d   1      -8.059 -18.509  -4.301 -0.06 +0.05    +0.066    52.545
ATOM      6  C   UNL d   1      -7.035 -19.457  -4.381 -0.05 -0.02    -0.021    52.545
ATOM      7  C   UNL d   1      -7.083 -19.998  -5.644 -0.09 -0.02    -0.025    52.545
ATOM      8  C   UNL d   1      -8.165 -19.401  -6.285 -0.11 +0.05    +0.066    52.545
ATOM      9  C   UNL d   1      -6.103 -21.015  -6.188 -0.08 +0.06    +0.051    52.545
ATOM     10  C   UNL d   1      -9.703 -19.153  -8.244 -0.15 +0.04    +0.066    52.545
ATOM     11  C   UNL d   1     -10.171 -19.643  -9.468 -0.14 -0.01    -0.021    52.545
ATOM     12  C   UNL d   1     -11.284 -18.891  -9.795 -0.14 +0.00    +0.000    52.545
ATOM     13  C   UNL d   1     -11.428 -17.955  -8.733 -0.16 +0.02    +0.070    52.545
ATOM     14  C   UNL d   1      -9.596 -20.799 -10.279 -0.11 +0.03    +0.052    52.545
ATOM     15  C   UNL d   1     -12.545 -16.045  -7.594 -0.13 +0.01    +0.066    52.545
ATOM     16  C   UNL d   1     -13.470 -15.002  -7.630 -0.16 -0.00    -0.021    52.545
ATOM     17  C   UNL d   1     -13.331 -14.309  -6.428 -0.19 +0.00    +0.000    52.545
ATOM     18  C   UNL d   1     -12.319 -14.992  -5.738 -0.15 +0.02    +0.070    52.545
ATOM     19  C   UNL d   1     -14.356 -14.729  -8.820 -0.16 +0.01    +0.052    52.545
ATOM     20  C   UNL d   1     -10.836 -15.259  -3.707 -0.06 +0.03    +0.066    52.545
ATOM     21  C   UNL d   1     -10.435 -14.907  -2.421 -0.11 -0.01    -0.025    52.545
ATOM     22  C   UNL d   1      -9.448 -15.797  -2.063 -0.07 -0.01    -0.021    52.545
ATOM     23  C   UNL d   1      -9.270 -16.652  -3.155 -0.07 +0.04    +0.066    52.545
ATOM     24  C   UNL d   1     -10.965 -13.776  -1.578 -0.07 +0.02    +0.051    52.545
ATOM     25  N   UNL d   1      -8.726 -18.437  -5.479 -0.06 -0.17    -0.248    52.545
ATOM     26  N   UNL d   1     -10.459 -18.118  -7.796 -0.13 -0.12    -0.248    52.545
ATOM     27  N   UNL d   1     -11.803 -15.996  -6.492 -0.13 -0.06    -0.248    52.545
ATOM     28  N   UNL d   1     -10.084 -16.293  -4.169 -0.06 -0.13    -0.248    52.545
ATOM     29 FE   UNL d   1     -10.272 -17.197  -5.970 -0.03 +0.00    +0.000    52.545
ATOM     30  O   UNL d   1      -8.957 -16.898  -6.746 -0.35 +0.00    +0.000    52.545
ATOM     31  O   UNL d   1      -9.849 -15.705  -6.233 -0.27 +0.00    +0.000    52.545
ATOM     32  C   UNL d   1      -5.964 -19.747  -3.362 -0.03 +0.04    +0.052    52.545
ATOM     33  C   UNL d   1      -5.198 -18.499  -2.936 -0.07 +0.13    +0.115    52.545
ATOM     34  C   UNL d   1      -4.382 -17.913  -4.061 -0.06 +0.21    +0.139    52.545
ATOM     35  O   UNL d   1      -4.673 -18.175  -5.217 -0.04 -0.89    -0.650    52.545
ATOM     36  O   UNL d   1      -3.315 -17.123  -3.820 -0.34 -1.66    -0.776    52.545
ATOM     37  H   UNL d   1      -2.471 -17.482  -3.521 +0.02 +0.23    +0.167    52.545
ATOM     38  C   UNL d   1      -8.678 -15.781  -0.768 -0.06 +0.04    +0.052    52.545
ATOM     39  C   UNL d   1      -7.550 -14.752  -0.774 -0.12 +0.14    +0.115    52.545
ATOM     40  C   UNL d   1      -6.190 -15.386  -0.625 -0.04 +0.26    +0.139    52.545
ATOM     41  O   UNL d   1      -5.434 -15.000   0.252 -0.59 -1.60    -0.650    52.545
ATOM     42  O   UNL d   1      -5.810 -16.410  -1.413 -0.26 -1.51    -0.776    52.545
ATOM     43  H   UNL d   1      -4.904 -16.491  -1.734 +0.01 +0.40    +0.167    52.545
ATOM     44  C   UNL d   1     -12.076 -19.135 -11.062 -0.09 +0.00    +0.004    52.545
ATOM     45  C   UNL d   1     -12.322 -18.278 -12.052 -0.14 +0.00    +0.012    52.545
ATOM     46  C   UNL d   1     -14.010 -13.065  -5.919 -0.19 +0.00    +0.004    52.545
ATOM     47  C   UNL d   1     -13.477 -11.853  -5.721 -0.33 +0.00    +0.012    52.545
TER
ENDMDL
MODEL       93
USER    Run = 93
USER    Cluster Rank = 14
USER    Number of conformations in this cluster = 1
USER  
USER    RMSD from reference structure       = 49.940 A
USER  
USER    Estimated Free Energy of Binding    =   -7.06 kcal/mol  [=(1)+(2)+(3)-(4)]
USER    Estimated Inhibition Constant, Ki   =    6.68 uM (micromolar)  [Temperature = 298.15 K]
USER    
USER    (1) Final Intermolecular Energy     =  -10.04 kcal/mol
USER        vdW + Hbond + desolv Energy     =   -8.01 kcal/mol
USER        Electrostatic Energy            =   -2.03 kcal/mol
USER    (2) Final Total Internal Energy     =   -0.83 kcal/mol
USER    (3) Torsional Free Energy           =   +2.98 kcal/mol
USER    (4) Unbound System's Energy  [=(2)] =   -0.83 kcal/mol
USER    
USER    
USER  
USER    DPF = D:/Protein_go_brrr/autodock/final/AncA/heme_O2/dock.dpf
USER    NEWDPF move	heme_O2_opt.pdbqt
USER    NEWDPF about	8.287000 34.468000 -0.670000
USER    NEWDPF tran0	-11.648905 -14.067368 -1.197685
USER    NEWDPF axisangle0	0.720354 0.586253 -0.370672 -172.300836
USER    NEWDPF quaternion0	0.718729 0.584930 -0.369836 -0.067137
USER    NEWDPF dihe0	33.07 -99.95 -44.94 89.61 35.27 -84.50 -87.51 80.93 -159.62 8.71 
USER  
USER                              x       y       z    vdW   Elec        q     RMS 
ATOM      1  C   UNL d   1     -10.829 -15.308   0.315 -0.10 +0.03    +0.064    49.940
ATOM      2  C   UNL d   1     -14.888 -15.504  -2.145 -0.13 +0.01    +0.064    49.940
ATOM      3  C   UNL d   1     -13.760 -11.472  -4.504 -0.31 +0.00    +0.064    49.940
ATOM      4  C   UNL d   1      -9.365 -11.522  -2.323 -0.27 +0.03    +0.064    49.940
ATOM      5  C   UNL d   1     -12.024 -15.691  -0.163 -0.11 +0.02    +0.066    49.940
ATOM      6  C   UNL d   1     -12.722 -16.817   0.284 -0.09 -0.01    -0.021    49.940
ATOM      7  C   UNL d   1     -13.877 -16.899  -0.458 -0.09 -0.01    -0.025    49.940
ATOM      8  C   UNL d   1     -13.876 -15.794  -1.304 -0.14 +0.01    +0.066    49.940
ATOM      9  C   UNL d   1     -14.894 -18.014  -0.354 -0.04 +0.01    +0.051    49.940
ATOM     10  C   UNL d   1     -14.954 -14.347  -3.040 -0.14 +0.01    +0.066    49.940
ATOM     11  C   UNL d   1     -16.097 -14.005  -3.771 -0.12 -0.00    -0.021    49.940
ATOM     12  C   UNL d   1     -15.797 -12.835  -4.444 -0.15 +0.00    +0.000    49.940
ATOM     13  C   UNL d   1     -14.455 -12.530  -4.086 -0.20 +0.01    +0.070    49.940
ATOM     14  C   UNL d   1     -17.428 -14.747  -3.804 -0.06 +0.01    +0.052    49.940
ATOM     15  C   UNL d   1     -12.388 -11.146  -4.194 -0.23 +0.00    +0.066    49.940
ATOM     16  C   UNL d   1     -11.666 -10.115  -4.793 -0.46 -0.00    -0.021    49.940
ATOM     17  C   UNL d   1     -10.409 -10.110  -4.187 -0.42 +0.00    +0.000    49.940
ATOM     18  C   UNL d   1     -10.461 -11.152  -3.251 -0.29 +0.02    +0.070    49.940
ATOM     19  C   UNL d   1     -12.214  -9.270  -5.915 -0.30 +0.00    +0.052    49.940
ATOM     20  C   UNL d   1      -9.366 -12.542  -1.444 -0.23 +0.04    +0.066    49.940
ATOM     21  C   UNL d   1      -8.310 -12.831  -0.583 -0.21 -0.02    -0.025    49.940
ATOM     22  C   UNL d   1      -8.721 -13.890   0.195 -0.16 -0.02    -0.021    49.940
ATOM     23  C   UNL d   1     -10.009 -14.221  -0.234 -0.11 +0.04    +0.066    49.940
ATOM     24  C   UNL d   1      -6.977 -12.133  -0.509 -0.10 +0.05    +0.051    49.940
ATOM     25  N   UNL d   1     -12.704 -15.087  -1.168 -0.12 -0.05    -0.248    49.940
ATOM     26  N   UNL d   1     -13.948 -13.458  -3.236 -0.11 -0.02    -0.248    49.940
ATOM     27  N   UNL d   1     -11.642 -11.818  -3.321 -0.19 -0.04    -0.248    49.940
ATOM     28  N   UNL d   1     -10.380 -13.429  -1.260 -0.12 -0.11    -0.248    49.940
ATOM     29 FE   UNL d   1     -12.150 -13.441  -2.242 -0.06 +0.00    +0.000    49.940
ATOM     30  O   UNL d   1     -12.176 -14.756  -3.075 -0.16 +0.00    +0.000    49.940
ATOM     31  O   UNL d   1     -11.020 -13.710  -3.303 -0.21 +0.00    +0.000    49.940
ATOM     32  C   UNL d   1     -12.260 -17.856   1.273 -0.03 +0.01    +0.052    49.940
ATOM     33  C   UNL d   1     -11.243 -18.827   0.682 -0.00 +0.03    +0.115    49.940
ATOM     34  C   UNL d   1      -9.822 -18.354   0.865 +0.01 +0.06    +0.139    49.940
ATOM     35  O   UNL d   1      -9.147 -18.079  -0.114 +0.02 -0.33    -0.650    49.940
ATOM     36  O   UNL d   1      -9.267 -18.254   2.090 +0.02 -0.36    -0.776    49.940
ATOM     37  H   UNL d   1      -9.494 -18.860   2.805 +0.00 +0.06    +0.167    49.940
ATOM     38  C   UNL d   1      -7.890 -14.581   1.246 -0.13 +0.07    +0.052    49.940
ATOM     39  C   UNL d   1      -8.402 -14.315   2.660 -0.17 +0.13    +0.115    49.940
ATOM     40  C   UNL d   1      -7.603 -13.252   3.371 -0.13 +0.21    +0.139    49.940
ATOM     41  O   UNL d   1      -7.542 -12.126   2.904 -0.62 -0.77    -0.650    49.940
ATOM     42  O   UNL d   1      -6.994 -13.508   4.545 -0.35 -1.30    -0.776    49.940
ATOM     43  H   UNL d   1      -7.401 -13.271   5.387 +0.08 +0.15    +0.167    49.940
ATOM     44  C   UNL d   1     -16.802 -12.145  -5.343 -0.13 +0.00    +0.004    49.940
ATOM     45  C   UNL d   1     -17.149 -10.858  -5.347 -0.23 +0.00    +0.012    49.940
ATOM     46  C   UNL d   1      -9.188  -9.271  -4.451 -0.38 +0.00    +0.004    49.940
ATOM     47  C   UNL d   1      -8.914  -8.040  -3.999 -0.54 +0.00    +0.012    49.940
TER
ENDMDL
MODEL       92
USER    Run = 92
USER    Cluster Rank = 15
USER    Number of conformations in this cluster = 1
USER  
USER    RMSD from reference structure       = 50.903 A
USER  
USER    Estimated Free Energy of Binding    =   -6.88 kcal/mol  [=(1)+(2)+(3)-(4)]
USER    Estimated Inhibition Constant, Ki   =    9.00 uM (micromolar)  [Temperature = 298.15 K]
USER    
USER    (1) Final Intermolecular Energy     =   -9.87 kcal/mol
USER        vdW + Hbond + desolv Energy     =   -7.01 kcal/mol
USER        Electrostatic Energy            =   -2.86 kcal/mol
USER    (2) Final Total Internal Energy     =   -0.69 kcal/mol
USER    (3) Torsional Free Energy           =   +2.98 kcal/mol
USER    (4) Unbound System's Energy  [=(2)] =   -0.69 kcal/mol
USER    
USER    
USER  
USER    DPF = D:/Protein_go_brrr/autodock/final/AncA/heme_O2/dock.dpf
USER    NEWDPF move	heme_O2_opt.pdbqt
USER    NEWDPF about	8.287000 34.468000 -0.670000
USER    NEWDPF tran0	-12.890197 -14.534461 -1.485803
USER    NEWDPF axisangle0	0.634356 0.582698 -0.507992 177.732829
USER    NEWDPF quaternion0	0.634232 0.582584 -0.507892 0.019784
USER    NEWDPF dihe0	88.75 45.11 32.06 142.95 -118.60 136.11 -133.97 52.51 -173.12 -54.44 
USER  
USER                              x       y       z    vdW   Elec        q     RMS 
ATOM      1  C   UNL d   1     -11.559 -15.693  -0.309 -0.11 +0.02    +0.064    50.903
ATOM      2  C   UNL d   1     -16.222 -16.029  -1.148 -0.11 +0.01    +0.064    50.903
ATOM      3  C   UNL d   1     -16.094 -12.119  -3.939 -0.27 +0.00    +0.064    50.903
ATOM      4  C   UNL d   1     -11.212 -12.042  -3.469 -0.20 +0.01    +0.064    50.903
ATOM      5  C   UNL d   1     -12.838 -16.105  -0.311 -0.10 +0.02    +0.066    50.903
ATOM      6  C   UNL d   1     -13.306 -17.209   0.407 -0.08 -0.00    -0.021    50.903
ATOM      7  C   UNL d   1     -14.648 -17.333   0.131 -0.08 -0.00    -0.025    50.903
ATOM      8  C   UNL d   1     -14.972 -16.272  -0.711 -0.11 +0.01    +0.066    50.903
ATOM      9  C   UNL d   1     -15.538 -18.444   0.642 -0.03 +0.01    +0.051    50.903
ATOM     10  C   UNL d   1     -16.628 -14.920  -2.013 -0.14 +0.01    +0.066    50.903
ATOM     11  C   UNL d   1     -17.963 -14.619  -2.304 -0.13 -0.00    -0.021    50.903
ATOM     12  C   UNL d   1     -17.948 -13.483  -3.093 -0.16 +0.00    +0.000    50.903
ATOM     13  C   UNL d   1     -16.573 -13.156  -3.253 -0.19 +0.01    +0.070    50.903
ATOM     14  C   UNL d   1     -19.202 -15.366  -1.826 -0.07 +0.01    +0.052    50.903
ATOM     15  C   UNL d   1     -14.710 -11.773  -4.154 -0.25 +0.00    +0.066    50.903
ATOM     16  C   UNL d   1     -14.270 -10.771  -5.018 -0.30 +0.00    -0.021    50.903
ATOM     17  C   UNL d   1     -12.881 -10.731  -4.901 -0.38 +0.00    +0.000    50.903
ATOM     18  C   UNL d   1     -12.573 -11.724  -3.961 -0.26 +0.00    +0.070    50.903
ATOM     19  C   UNL d   1     -15.200  -9.986  -5.909 -0.37 +0.00    +0.052    50.903
ATOM     20  C   UNL d   1     -10.877 -13.016  -2.600 -0.19 +0.02    +0.066    50.903
ATOM     21  C   UNL d   1      -9.579 -13.257  -2.160 -0.17 -0.01    -0.025    50.903
ATOM     22  C   UNL d   1      -9.662 -14.276  -1.238 -0.14 -0.01    -0.021    50.903
ATOM     23  C   UNL d   1     -11.012 -14.633  -1.163 -0.11 +0.02    +0.066    50.903
ATOM     24  C   UNL d   1      -8.322 -12.552  -2.599 -0.22 +0.04    +0.051    50.903
ATOM     25  N   UNL d   1     -13.844 -15.554  -1.034 -0.09 -0.04    -0.248    50.903
ATOM     26  N   UNL d   1     -15.776 -14.038  -2.596 -0.13 -0.03    -0.248    50.903
ATOM     27  N   UNL d   1     -13.688 -12.396  -3.575 -0.13 -0.01    -0.248    50.903
ATOM     28  N   UNL d   1     -11.741 -13.895  -2.026 -0.08 -0.06    -0.248    50.903
ATOM     29 FE   UNL d   1     -13.743 -13.964  -2.311 -0.06 +0.00    +0.000    50.903
ATOM     30  O   UNL d   1     -14.036 -15.320  -3.018 -0.13 +0.00    +0.000    50.903
ATOM     31  O   UNL d   1     -13.059 -14.283  -3.691 -0.17 +0.00    +0.000    50.903
ATOM     32  C   UNL d   1     -12.501 -18.194   1.214 -0.03 +0.01    +0.052    50.903
ATOM     33  C   UNL d   1     -12.010 -19.377   0.386 -0.00 +0.03    +0.115    50.903
ATOM     34  C   UNL d   1     -11.465 -18.954  -0.956 -0.00 +0.04    +0.139    50.903
ATOM     35  O   UNL d   1     -10.279 -18.689  -1.069 +0.02 -0.25    -0.650    50.903
ATOM     36  O   UNL d   1     -12.267 -18.832  -2.034 +0.02 -0.21    -0.776    50.903
ATOM     37  H   UNL d   1     -12.719 -18.007  -2.244 +0.01 +0.04    +0.167    50.903
ATOM     38  C   UNL d   1      -8.498 -14.910  -0.522 -0.10 +0.05    +0.052    50.903
ATOM     39  C   UNL d   1      -7.541 -13.874   0.064 -0.17 +0.14    +0.115    50.903
ATOM     40  C   UNL d   1      -6.108 -14.124  -0.333 -0.14 +0.26    +0.139    50.903
ATOM     41  O   UNL d   1      -5.458 -14.979   0.248 -0.59 -1.61    -0.650    50.903
ATOM     42  O   UNL d   1      -5.542 -13.455  -1.356 +0.12 -1.63    -0.776    50.903
ATOM     43  H   UNL d   1      -5.619 -12.497  -1.436 +0.06 +0.25    +0.167    50.903
ATOM     44  C   UNL d   1     -19.221 -12.844  -3.606 -0.13 +0.00    +0.004    50.903
ATOM     45  C   UNL d   1     -19.386 -12.121  -4.713 -0.09 +0.00    +0.012    50.903
ATOM     46  C   UNL d   1     -11.852  -9.902  -5.622 -0.55 +0.00    +0.004    50.903
ATOM     47  C   UNL d   1     -10.791  -9.267  -5.108 -0.47 +0.00    +0.012    50.903
TER
ENDMDL
MODEL       72
USER    Run = 72
USER    Cluster Rank = 16
USER    Number of conformations in this cluster = 3
USER  
USER    RMSD from reference structure       = 50.706 A
USER  
USER    Estimated Free Energy of Binding    =   -6.85 kcal/mol  [=(1)+(2)+(3)-(4)]
USER    Estimated Inhibition Constant, Ki   =    9.56 uM (micromolar)  [Temperature = 298.15 K]
USER    
USER    (1) Final Intermolecular Energy     =   -9.83 kcal/mol
USER        vdW + Hbond + desolv Energy     =   -6.10 kcal/mol
USER        Electrostatic Energy            =   -3.73 kcal/mol
USER    (2) Final Total Internal Energy     =   -2.16 kcal/mol
USER    (3) Torsional Free Energy           =   +2.98 kcal/mol
USER    (4) Unbound System's Energy  [=(2)] =   -2.16 kcal/mol
USER    
USER    
USER  
USER    DPF = D:/Protein_go_brrr/autodock/final/AncA/heme_O2/dock.dpf
USER    NEWDPF move	heme_O2_opt.pdbqt
USER    NEWDPF about	8.287000 34.468000 -0.670000
USER    NEWDPF tran0	-11.286172 -14.750690 -2.112016
USER    NEWDPF axisangle0	0.422686 0.830729 -0.362251 -154.939072
USER    NEWDPF quaternion0	0.412618 0.810942 -0.353623 -0.216959
USER    NEWDPF dihe0	115.76 68.66 42.50 -124.76 -118.16 -59.85 -63.37 -31.09 -155.95 14.17 
USER  
USER                              x       y       z    vdW   Elec        q     RMS 
ATOM      1  C   UNL d   1      -9.782 -14.867  -0.621 -0.09 +0.04    +0.064    50.706
ATOM      2  C   UNL d   1     -12.467 -18.167  -2.733 -0.01 +0.02    +0.064    50.706
ATOM      3  C   UNL d   1     -14.707 -14.808  -5.340 -0.05 +0.01    +0.064    50.706
ATOM      4  C   UNL d   1     -11.620 -11.456  -3.524 -0.29 +0.01    +0.064    50.706
ATOM      5  C   UNL d   1     -10.328 -16.038  -0.984 -0.05 +0.03    +0.066    50.706
ATOM      6  C   UNL d   1      -9.969 -17.273  -0.436 -0.01 -0.01    -0.021    50.706
ATOM      7  C   UNL d   1     -10.714 -18.234  -1.077 -0.00 -0.01    -0.025    50.706
ATOM      8  C   UNL d   1     -11.544 -17.555  -1.966 -0.02 +0.02    +0.066    50.706
ATOM      9  C   UNL d   1     -10.590 -19.724  -0.845 +0.00 +0.02    +0.051    50.706
ATOM     10  C   UNL d   1     -13.380 -17.506  -3.666 -0.01 +0.02    +0.066    50.706
ATOM     11  C   UNL d   1     -14.428 -18.168  -4.315 -0.01 -0.00    -0.021    50.706
ATOM     12  C   UNL d   1     -15.097 -17.213  -5.058 -0.01 +0.00    +0.000    50.706
ATOM     13  C   UNL d   1     -14.396 -15.997  -4.824 -0.03 +0.01    +0.070    50.706
ATOM     14  C   UNL d   1     -14.793 -19.644  -4.210 -0.00 +0.01    +0.052    50.706
ATOM     15  C   UNL d   1     -14.002 -13.562  -5.156 -0.11 +0.01    +0.066    50.706
ATOM     16  C   UNL d   1     -14.280 -12.387  -5.854 -0.18 -0.00    -0.021    50.706
ATOM     17  C   UNL d   1     -13.411 -11.417  -5.353 -0.34 +0.00    +0.000    50.706
ATOM     18  C   UNL d   1     -12.660 -12.082  -4.373 -0.27 +0.01    +0.070    50.706
ATOM     19  C   UNL d   1     -15.300 -12.309  -6.962 -0.13 +0.00    +0.052    50.706
ATOM     20  C   UNL d   1     -10.852 -12.074  -2.606 -0.23 +0.02    +0.066    50.706
ATOM     21  C   UNL d   1      -9.900 -11.427  -1.822 -0.33 -0.01    -0.025    50.706
ATOM     22  C   UNL d   1      -9.385 -12.378  -0.970 -0.27 -0.01    -0.021    50.706
ATOM     23  C   UNL d   1     -10.032 -13.579  -1.279 -0.16 +0.03    +0.066    50.706
ATOM     24  C   UNL d   1      -9.499  -9.976  -1.886 -0.42 +0.01    +0.051    50.706
ATOM     25  N   UNL d   1     -11.259 -16.209  -1.954 -0.03 -0.09    -0.248    50.706
ATOM     26  N   UNL d   1     -13.350 -16.186  -3.980 -0.02 -0.05    -0.248    50.706
ATOM     27  N   UNL d   1     -12.981 -13.400  -4.320 -0.10 -0.04    -0.248    50.706
ATOM     28  N   UNL d   1     -10.890 -13.399  -2.304 -0.12 -0.09    -0.248    50.706
ATOM     29 FE   UNL d   1     -12.112 -14.780  -3.138 -0.03 +0.00    +0.000    50.706
ATOM     30  O   UNL d   1     -11.190 -15.767  -3.911 -0.12 +0.00    +0.000    50.706
ATOM     31  O   UNL d   1     -11.172 -14.234  -4.274 -0.08 +0.00    +0.000    50.706
ATOM     32  C   UNL d   1      -8.869 -17.558   0.555 -0.00 +0.03    +0.052    50.706
ATOM     33  C   UNL d   1      -7.476 -17.443  -0.057 -0.02 +0.10    +0.115    50.706
ATOM     34  C   UNL d   1      -6.680 -16.307   0.534 -0.02 +0.20    +0.139    50.706
ATOM     35  O   UNL d   1      -5.969 -16.509   1.505 +0.04 -1.33    -0.650    50.706
ATOM     36  O   UNL d   1      -6.757 -15.057   0.031 -0.18 -1.27    -0.776    50.706
ATOM     37  H   UNL d   1      -7.107 -14.320   0.544 +0.04 +0.27    +0.167    50.706
ATOM     38  C   UNL d   1      -8.287 -12.153   0.037 -0.24 +0.04    +0.052    50.706
ATOM     39  C   UNL d   1      -8.766 -12.352   1.473 -0.22 +0.09    +0.115    50.706
ATOM     40  C   UNL d   1      -7.682 -12.893   2.372 -0.28 +0.19    +0.139    50.706
ATOM     41  O   UNL d   1      -6.888 -12.126   2.894 -0.80 -0.97    -0.650    50.706
ATOM     42  O   UNL d   1      -7.604 -14.208   2.654 -0.04 -1.37    -0.776    50.706
ATOM     43  H   UNL d   1      -7.324 -14.850   1.991 +0.04 +0.33    +0.167    50.706
ATOM     44  C   UNL d   1     -16.309 -17.553  -5.900 -0.00 +0.00    +0.004    50.706
ATOM     45  C   UNL d   1     -16.635 -17.069  -7.098 -0.00 +0.00    +0.012    50.706
ATOM     46  C   UNL d   1     -13.200  -9.981  -5.750 -0.49 -0.00    +0.004    50.706
ATOM     47  C   UNL d   1     -12.044  -9.351  -5.998 -0.42 +0.00    +0.012    50.706
TER
ENDMDL
MODEL       47
USER    Run = 47
USER    Cluster Rank = 17
USER    Number of conformations in this cluster = 1
USER  
USER    RMSD from reference structure       = 48.709 A
USER  
USER    Estimated Free Energy of Binding    =   -6.59 kcal/mol  [=(1)+(2)+(3)-(4)]
USER    Estimated Inhibition Constant, Ki   =   14.82 uM (micromolar)  [Temperature = 298.15 K]
USER    
USER    (1) Final Intermolecular Energy     =   -9.57 kcal/mol
USER        vdW + Hbond + desolv Energy     =   -6.70 kcal/mol
USER        Electrostatic Energy            =   -2.87 kcal/mol
USER    (2) Final Total Internal Energy     =   -2.37 kcal/mol
USER    (3) Torsional Free Energy           =   +2.98 kcal/mol
USER    (4) Unbound System's Energy  [=(2)] =   -2.37 kcal/mol
USER    
USER    
USER  
USER    DPF = D:/Protein_go_brrr/autodock/final/AncA/heme_O2/dock.dpf
USER    NEWDPF move	heme_O2_opt.pdbqt
USER    NEWDPF about	8.287000 34.468000 -0.670000
USER    NEWDPF tran0	-4.516615 -15.169745 -0.855007
USER    NEWDPF axisangle0	0.040407 -0.543880 -0.838190 158.541994
USER    NEWDPF quaternion0	0.039701 -0.534372 -0.823537 0.186164
USER    NEWDPF dihe0	143.09 -5.31 28.52 -92.99 -177.49 -65.92 -85.86 -176.04 -179.48 163.14 
USER  
USER                              x       y       z    vdW   Elec        q     RMS 
ATOM      1  C   UNL d   1      -3.099 -16.596  -0.180 -0.10 +0.08    +0.064    48.709
ATOM      2  C   UNL d   1      -2.742 -11.988  -1.273 -0.27 +0.07    +0.064    48.709
ATOM      3  C   UNL d   1      -7.403 -11.806  -2.429 -0.25 +0.05    +0.064    48.709
ATOM      4  C   UNL d   1      -7.890 -16.426  -0.853 -0.04 +0.06    +0.064    48.709
ATOM      5  C   UNL d   1      -2.622 -15.357  -0.381 -0.14 +0.09    +0.066    48.709
ATOM      6  C   UNL d   1      -1.288 -14.990  -0.183 -0.13 -0.02    -0.021    48.709
ATOM      7  C   UNL d   1      -1.192 -13.646  -0.457 -0.18 -0.02    -0.025    48.709
ATOM      8  C   UNL d   1      -2.461 -13.239  -0.862 -0.15 +0.09    +0.066    48.709
ATOM      9  C   UNL d   1       0.064 -12.817  -0.298 -0.23 +0.03    +0.051    48.709
ATOM     10  C   UNL d   1      -4.047 -11.508  -1.730 -0.30 +0.07    +0.066    48.709
ATOM     11  C   UNL d   1      -4.246 -10.246  -2.299 -0.34 -0.01    -0.021    48.709
ATOM     12  C   UNL d   1      -5.581 -10.181  -2.656 -0.21 +0.00    +0.000    48.709
ATOM     13  C   UNL d   1      -6.135 -11.431  -2.264 -0.20 +0.07    +0.070    48.709
ATOM     14  C   UNL d   1      -3.202  -9.157  -2.519 -0.45 +0.02    +0.052    48.709
ATOM     15  C   UNL d   1      -8.011 -13.047  -2.015 -0.19 +0.06    +0.066    48.709
ATOM     16  C   UNL d   1      -9.378 -13.314  -2.067 -0.17 -0.01    -0.021    48.709
ATOM     17  C   UNL d   1      -9.541 -14.626  -1.622 -0.12 +0.00    +0.000    48.709
ATOM     18  C   UNL d   1      -8.243 -15.067  -1.329 -0.09 +0.07    +0.070    48.709
ATOM     19  C   UNL d   1     -10.402 -12.287  -2.480 -0.28 +0.02    +0.052    48.709
ATOM     20  C   UNL d   1      -6.662 -16.869  -0.522 -0.06 +0.08    +0.066    48.709
ATOM     21  C   UNL d   1      -6.388 -18.165  -0.096 -0.02 -0.02    -0.025    48.709
ATOM     22  C   UNL d   1      -5.024 -18.240   0.074 -0.03 -0.02    -0.021    48.709
ATOM     23  C   UNL d   1      -4.516 -16.975  -0.238 -0.09 +0.09    +0.066    48.709
ATOM     24  C   UNL d   1      -7.379 -19.276   0.139 +0.01 +0.03    +0.051    48.709
ATOM     25  N   UNL d   1      -3.355 -14.279  -0.752 -0.11 -0.48    -0.248    48.709
ATOM     26  N   UNL d   1      -5.196 -12.231  -1.698 -0.17 -0.36    -0.248    48.709
ATOM     27  N   UNL d   1      -7.336 -14.073  -1.502 -0.10 -0.34    -0.248    48.709
ATOM     28  N   UNL d   1      -5.520 -16.132  -0.556 -0.07 -0.45    -0.248    48.709
ATOM     29 FE   UNL d   1      -5.362 -14.196  -1.123 -0.04 +0.00    +0.000    48.709
ATOM     30  O   UNL d   1      -4.923 -13.406   0.145 -0.22 +0.00    +0.000    48.709
ATOM     31  O   UNL d   1      -6.261 -14.238   0.167 -0.56 +0.00    +0.000    48.709
ATOM     32  C   UNL d   1      -0.172 -15.835   0.375 -0.07 +0.03    +0.052    48.709
ATOM     33  C   UNL d   1       0.038 -15.625   1.872 -0.09 +0.07    +0.115    48.709
ATOM     34  C   UNL d   1      -0.756 -16.600   2.706 -0.07 +0.10    +0.139    48.709
ATOM     35  O   UNL d   1      -0.979 -17.721   2.276 +0.01 -0.39    -0.650    48.709
ATOM     36  O   UNL d   1      -1.254 -16.252   3.910 +0.02 -0.62    -0.776    48.709
ATOM     37  H   UNL d   1      -2.111 -16.568   4.220 +0.02 +0.16    +0.167    48.709
ATOM     38  C   UNL d   1      -4.265 -19.443   0.571 -0.00 +0.03    +0.052    48.709
ATOM     39  C   UNL d   1      -4.012 -19.391   2.076 -0.01 +0.07    +0.115    48.709
ATOM     40  C   UNL d   1      -4.639 -18.181   2.724 -0.04 +0.15    +0.139    48.709
ATOM     41  O   UNL d   1      -5.835 -18.174   2.965 -0.05 -0.64    -0.650    48.709
ATOM     42  O   UNL d   1      -3.890 -17.123   3.091 -0.15 -1.29    -0.776    48.709
ATOM     43  H   UNL d   1      -2.932 -17.122   2.985 +0.00 +0.20    +0.167    48.709
ATOM     44  C   UNL d   1      -6.178  -8.956  -3.317 -0.28 +0.00    +0.004    48.709
ATOM     45  C   UNL d   1      -7.451  -8.564  -3.317 -0.46 +0.00    +0.012    48.709
ATOM     46  C   UNL d   1     -10.784 -15.448  -1.402 -0.12 +0.00    +0.004    48.709
ATOM     47  C   UNL d   1     -11.419 -15.697  -0.250 -0.13 +0.00    +0.012    48.709
TER
ENDMDL
MODEL       24
USER    Run = 24
USER    Cluster Rank = 18
USER    Number of conformations in this cluster = 1
USER  
USER    RMSD from reference structure       = 36.427 A
USER  
USER    Estimated Free Energy of Binding    =   -6.02 kcal/mol  [=(1)+(2)+(3)-(4)]
USER    Estimated Inhibition Constant, Ki   =   38.49 uM (micromolar)  [Temperature = 298.15 K]
USER    
USER    (1) Final Intermolecular Energy     =   -9.01 kcal/mol
USER        vdW + Hbond + desolv Energy     =   -7.14 kcal/mol
USER        Electrostatic Energy            =   -1.87 kcal/mol
USER    (2) Final Total Internal Energy     =   -0.65 kcal/mol
USER    (3) Torsional Free Energy           =   +2.98 kcal/mol
USER    (4) Unbound System's Energy  [=(2)] =   -0.65 kcal/mol
USER    
USER    
USER  
USER    DPF = D:/Protein_go_brrr/autodock/final/AncA/heme_O2/dock.dpf
USER    NEWDPF move	heme_O2_opt.pdbqt
USER    NEWDPF about	8.287000 34.468000 -0.670000
USER    NEWDPF tran0	-4.485624 1.893529 -15.211606
USER    NEWDPF axisangle0	0.079629 -0.983751 0.160916 176.638709
USER    NEWDPF quaternion0	0.079595 -0.983327 0.160847 0.029329
USER    NEWDPF dihe0	34.49 57.71 -28.88 43.32 -81.94 133.39 48.13 -69.77 -164.60 179.89 
USER  
USER                              x       y       z    vdW   Elec        q     RMS 
ATOM      1  C   UNL d   1      -2.798   3.016 -14.588 -0.08 +0.00    +0.064    36.427
ATOM      2  C   UNL d   1      -3.246  -0.885 -17.259 -0.15 -0.00    +0.064    36.427
ATOM      3  C   UNL d   1      -8.017  -0.840 -16.688 -0.17 -0.02    +0.064    36.427
ATOM      4  C   UNL d   1      -7.613   3.446 -14.335 -0.16 +0.00    +0.064    36.427
ATOM      5  C   UNL d   1      -2.530   1.953 -15.362 -0.11 +0.00    +0.066    36.427
ATOM      6  C   UNL d   1      -1.243   1.568 -15.747 -0.19 +0.00    -0.021    36.427
ATOM      7  C   UNL d   1      -1.374   0.464 -16.556 -0.20 -0.00    -0.025    36.427
ATOM      8  C   UNL d   1      -2.736   0.175 -16.604 -0.15 -0.00    +0.066    36.427
ATOM      9  C   UNL d   1      -0.231  -0.237 -17.257 -0.19 +0.00    +0.051    36.427
ATOM     10  C   UNL d   1      -4.661  -1.252 -17.326 -0.19 -0.00    +0.066    36.427
ATOM     11  C   UNL d   1      -5.120  -2.452 -17.881 -0.27 +0.00    -0.021    36.427
ATOM     12  C   UNL d   1      -6.492  -2.465 -17.710 -0.25 -0.00    +0.000    36.427
ATOM     13  C   UNL d   1      -6.801  -1.240 -17.056 -0.12 -0.01    +0.070    36.427
ATOM     14  C   UNL d   1      -4.282  -3.551 -18.523 -0.35 -0.01    +0.052    36.427
ATOM     15  C   UNL d   1      -8.376   0.407 -16.057 -0.24 -0.02    +0.066    36.427
ATOM     16  C   UNL d   1      -9.685   0.839 -15.845 -0.24 +0.01    -0.021    36.427
ATOM     17  C   UNL d   1      -9.595   2.059 -15.176 -0.21 -0.00    +0.000    36.427
ATOM     18  C   UNL d   1      -8.219   2.283 -15.026 -0.22 -0.01    +0.070    36.427
ATOM     19  C   UNL d   1     -10.891   0.082 -16.343 -0.13 -0.05    +0.052    36.427
ATOM     20  C   UNL d   1      -6.299   3.713 -14.211 -0.18 +0.01    +0.066    36.427
ATOM     21  C   UNL d   1      -5.787   4.816 -13.533 -0.19 -0.01    -0.025    36.427
ATOM     22  C   UNL d   1      -4.416   4.696 -13.571 -0.13 -0.00    -0.021    36.427
ATOM     23  C   UNL d   1      -4.141   3.528 -14.290 -0.08 +0.01    +0.066    36.427
ATOM     24  C   UNL d   1      -6.567   5.930 -12.885 -0.17 +0.02    +0.051    36.427
ATOM     25  N   UNL d   1      -3.452   1.131 -15.922 -0.06 +0.00    -0.248    36.427
ATOM     26  N   UNL d   1      -5.682  -0.506 -16.831 -0.10 +0.02    -0.248    36.427
ATOM     27  N   UNL d   1      -7.494   1.308 -15.632 -0.15 +0.04    -0.248    36.427
ATOM     28  N   UNL d   1      -5.287   2.958 -14.716 -0.06 -0.01    -0.248    36.427
ATOM     29 FE   UNL d   1      -5.486   1.239 -15.766 -0.04 -0.00    +0.000    36.427
ATOM     30  O   UNL d   1      -4.949   1.539 -17.196 -0.07 -0.00    +0.000    36.427
ATOM     31  O   UNL d   1      -6.141   2.390 -16.615 -0.07 -0.00    +0.000    36.427
ATOM     32  C   UNL d   1       0.054   2.288 -15.480 +0.06 -0.01    +0.052    36.427
ATOM     33  C   UNL d   1       0.303   3.438 -16.450 -0.10 +0.00    +0.115    36.427
ATOM     34  C   UNL d   1       1.712   3.440 -16.990 -0.09 +0.01    +0.139    36.427
ATOM     35  O   UNL d   1       1.896   3.473 -18.196 +0.01 -0.10    -0.650    36.427
ATOM     36  O   UNL d   1       2.780   3.378 -16.168 +0.04 -0.13    -0.776    36.427
ATOM     37  H   UNL d   1       2.766   2.869 -15.349 -0.49 -0.03    +0.167    36.427
ATOM     38  C   UNL d   1      -3.431   5.685 -13.003 -0.13 +0.02    +0.052    36.427
ATOM     39  C   UNL d   1      -3.248   6.905 -13.902 -0.08 +0.05    +0.115    36.427
ATOM     40  C   UNL d   1      -3.860   8.152 -13.313 -0.01 +0.14    +0.139    36.427
ATOM     41  O   UNL d   1      -5.056   8.358 -13.439 -0.13 -0.65    -0.650    36.427
ATOM     42  O   UNL d   1      -3.117   9.022 -12.602 -0.32 -1.29    -0.776    36.427
ATOM     43  H   UNL d   1      -2.358   9.474 -12.991 +0.01 +0.14    +0.167    36.427
ATOM     44  C   UNL d   1      -7.349  -3.621 -18.181 -0.28 -0.00    +0.004    36.427
ATOM     45  C   UNL d   1      -8.464  -4.094 -17.625 -0.31 -0.00    +0.012    36.427
ATOM     46  C   UNL d   1     -10.662   3.025 -14.734 -0.22 -0.00    +0.004    36.427
ATOM     47  C   UNL d   1     -11.884   2.750 -14.261 -0.22 -0.01    +0.012    36.427
TER
ENDMDL
MODEL       73
USER    Run = 73
USER    Cluster Rank = 19
USER    Number of conformations in this cluster = 1
USER  
USER    RMSD from reference structure       = 38.838 A
USER  
USER    Estimated Free Energy of Binding    =   -5.89 kcal/mol  [=(1)+(2)+(3)-(4)]
USER    Estimated Inhibition Constant, Ki   =   48.30 uM (micromolar)  [Temperature = 298.15 K]
USER    
USER    (1) Final Intermolecular Energy     =   -8.87 kcal/mol
USER        vdW + Hbond + desolv Energy     =   -8.11 kcal/mol
USER        Electrostatic Energy            =   -0.76 kcal/mol
USER    (2) Final Total Internal Energy     =   -1.69 kcal/mol
USER    (3) Torsional Free Energy           =   +2.98 kcal/mol
USER    (4) Unbound System's Energy  [=(2)] =   -1.69 kcal/mol
USER    
USER    
USER  
USER    DPF = D:/Protein_go_brrr/autodock/final/AncA/heme_O2/dock.dpf
USER    NEWDPF move	heme_O2_opt.pdbqt
USER    NEWDPF about	8.287000 34.468000 -0.670000
USER    NEWDPF tran0	-5.927427 -0.280245 -16.174722
USER    NEWDPF axisangle0	0.517464 -0.853250 0.064778 122.053088
USER    NEWDPF quaternion0	0.452700 -0.746460 0.056670 0.484404
USER    NEWDPF dihe0	-2.85 -156.75 -1.05 98.37 -100.66 -18.96 -12.51 106.69 -179.07 -180.00 
USER  
USER                              x       y       z    vdW   Elec        q     RMS 
ATOM      1  C   UNL d   1      -6.695   1.154 -14.814 -0.19 -0.01    +0.064    38.838
ATOM      2  C   UNL d   1      -2.273   0.016 -16.120 -0.21 -0.00    +0.064    38.838
ATOM      3  C   UNL d   1      -3.923  -3.411 -19.057 -0.30 -0.01    +0.064    38.838
ATOM      4  C   UNL d   1      -8.497  -1.929 -18.082 -0.12 -0.01    +0.064    38.838
ATOM      5  C   UNL d   1      -5.357   1.126 -14.931 -0.18 -0.00    +0.066    38.838
ATOM      6  C   UNL d   1      -4.491   1.958 -14.216 -0.22 +0.00    -0.021    38.838
ATOM      7  C   UNL d   1      -3.213   1.659 -14.626 -0.18 +0.00    -0.025    38.838
ATOM      8  C   UNL d   1      -3.330   0.619 -15.544 -0.18 -0.00    +0.066    38.838
ATOM      9  C   UNL d   1      -1.965   2.377 -14.161 -0.23 +0.00    +0.051    38.838
ATOM     10  C   UNL d   1      -2.332  -1.094 -17.072 -0.08 +0.00    +0.066    38.838
ATOM     11  C   UNL d   1      -1.201  -1.790 -17.514 -0.25 +0.00    -0.021    38.838
ATOM     12  C   UNL d   1      -1.658  -2.794 -18.348 -0.29 -0.00    +0.000    38.838
ATOM     13  C   UNL d   1      -3.072  -2.642 -18.378 -0.23 -0.01    +0.070    38.838
ATOM     14  C   UNL d   1       0.251  -1.526 -17.135 -0.32 -0.00    +0.052    38.838
ATOM     15  C   UNL d   1      -5.357  -3.269 -19.141 -0.21 -0.01    +0.066    38.838
ATOM     16  C   UNL d   1      -6.175  -4.004 -19.999 -0.25 +0.01    -0.021    38.838
ATOM     17  C   UNL d   1      -7.484  -3.598 -19.739 -0.18 -0.00    +0.000    38.838
ATOM     18  C   UNL d   1      -7.365  -2.634 -18.728 -0.14 -0.01    +0.070    38.838
ATOM     19  C   UNL d   1      -5.636  -4.977 -21.017 -0.18 -0.04    +0.052    38.838
ATOM     20  C   UNL d   1      -8.416  -0.969 -17.140 -0.16 -0.02    +0.066    38.838
ATOM     21  C   UNL d   1      -9.519  -0.354 -16.556 -0.22 +0.01    -0.025    38.838
ATOM     22  C   UNL d   1      -9.026   0.508 -15.603 -0.31 +0.01    -0.021    38.838
ATOM     23  C   UNL d   1      -7.632   0.400 -15.654 -0.21 -0.02    +0.066    38.838
ATOM     24  C   UNL d   1     -10.971  -0.574 -16.893 -0.14 -0.04    +0.051    38.838
ATOM     25  N   UNL d   1      -4.655   0.336 -15.780 -0.12 +0.01    -0.248    38.838
ATOM     26  N   UNL d   1      -3.473  -1.603 -17.602 -0.13 +0.01    -0.248    38.838
ATOM     27  N   UNL d   1      -6.062  -2.394 -18.430 -0.11 +0.03    -0.248    38.838
ATOM     28  N   UNL d   1      -7.265  -0.466 -16.620 -0.11 +0.04    -0.248    38.838
ATOM     29 FE   UNL d   1      -5.384  -1.032 -17.110 -0.05 -0.00    +0.000    38.838
ATOM     30  O   UNL d   1      -4.719   0.205 -17.781 -0.10 -0.00    +0.000    38.838
ATOM     31  O   UNL d   1      -6.037  -0.402 -18.395 -0.09 -0.00    +0.000    38.838
ATOM     32  C   UNL d   1      -4.853   3.087 -13.286 -0.27 +0.00    +0.052    38.838
ATOM     33  C   UNL d   1      -4.850   4.447 -13.976 -0.11 +0.02    +0.115    38.838
ATOM     34  C   UNL d   1      -5.545   5.508 -13.158 -0.17 +0.05    +0.139    38.838
ATOM     35  O   UNL d   1      -4.885   6.384 -12.621 +0.02 -0.46    -0.650    38.838
ATOM     36  O   UNL d   1      -6.882   5.497 -12.982 -0.33 -0.29    -0.776    38.838
ATOM     37  H   UNL d   1      -7.447   4.836 -13.399 +0.05 +0.08    +0.167    38.838
ATOM     38  C   UNL d   1      -9.849   1.430 -14.741 -0.23 -0.04    +0.052    38.838
ATOM     39  C   UNL d   1     -10.304   2.678 -15.493 -0.16 -0.04    +0.115    38.838
ATOM     40  C   UNL d   1      -9.184   3.667 -15.698 -0.12 -0.01    +0.139    38.838
ATOM     41  O   UNL d   1      -8.926   4.065 -16.823 +0.03 +0.03    -0.650    38.838
ATOM     42  O   UNL d   1      -8.493   4.162 -14.654 -0.20 -0.05    -0.776    38.838
ATOM     43  H   UNL d   1      -8.057   5.022 -14.699 +0.03 +0.02    +0.167    38.838
ATOM     44  C   UNL d   1      -0.717  -3.772 -19.019 -0.31 -0.00    +0.004    38.838
ATOM     45  C   UNL d   1      -1.031  -4.835 -19.759 -0.35 -0.00    +0.012    38.838
ATOM     46  C   UNL d   1      -8.786  -3.988 -20.386 -0.15 -0.00    +0.004    38.838
ATOM     47  C   UNL d   1      -9.626  -4.969 -20.031 -0.16 -0.01    +0.012    38.838
TER
ENDMDL
MODEL       84
USER    Run = 84
USER    Cluster Rank = 20
USER    Number of conformations in this cluster = 2
USER  
USER    RMSD from reference structure       = 29.615 A
USER  
USER    Estimated Free Energy of Binding    =   -5.41 kcal/mol  [=(1)+(2)+(3)-(4)]
USER    Estimated Inhibition Constant, Ki   =  108.29 uM (micromolar)  [Temperature = 298.15 K]
USER    
USER    (1) Final Intermolecular Energy     =   -8.39 kcal/mol
USER        vdW + Hbond + desolv Energy     =   -6.32 kcal/mol
USER        Electrostatic Energy            =   -2.08 kcal/mol
USER    (2) Final Total Internal Energy     =   -0.77 kcal/mol
USER    (3) Torsional Free Energy           =   +2.98 kcal/mol
USER    (4) Unbound System's Energy  [=(2)] =   -0.77 kcal/mol
USER    
USER    
USER  
USER    DPF = D:/Protein_go_brrr/autodock/final/AncA/heme_O2/dock.dpf
USER    NEWDPF move	heme_O2_opt.pdbqt
USER    NEWDPF about	8.287000 34.468000 -0.670000
USER    NEWDPF tran0	9.291076 8.977219 -16.196670
USER    NEWDPF axisangle0	-0.930729 0.117927 -0.346176 112.872776
USER    NEWDPF quaternion0	-0.775551 0.098265 -0.288459 0.552862
USER    NEWDPF dihe0	-15.66 -78.89 55.76 27.75 -174.86 -39.46 -137.20 147.68 167.71 13.08 
USER  
USER                              x       y       z    vdW   Elec        q     RMS 
ATOM      1  C   UNL d   1       7.214   9.175 -16.577 -0.10 +0.03    +0.064    29.615
ATOM      2  C   UNL d   1      10.712   6.989 -18.931 -0.08 +0.02    +0.064    29.615
ATOM      3  C   UNL d   1      13.933   8.431 -15.669 -0.16 +0.01    +0.064    29.615
ATOM      4  C   UNL d   1      10.267  10.280 -12.985 -0.19 +0.02    +0.064    29.615
ATOM      5  C   UNL d   1       7.902   8.461 -17.482 -0.09 +0.03    +0.066    29.615
ATOM      6  C   UNL d   1       7.331   7.879 -18.618 -0.05 -0.01    -0.021    29.615
ATOM      7  C   UNL d   1       8.335   7.210 -19.278 -0.05 -0.01    -0.025    29.615
ATOM      8  C   UNL d   1       9.501   7.441 -18.552 -0.08 +0.03    +0.066    29.615
ATOM      9  C   UNL d   1       8.144   6.373 -20.524 -0.02 +0.02    +0.051    29.615
ATOM     10  C   UNL d   1      11.972   7.218 -18.224 -0.11 +0.02    +0.066    29.615
ATOM     11  C   UNL d   1      13.222   6.867 -18.746 -0.08 -0.00    -0.021    29.615
ATOM     12  C   UNL d   1      14.165   7.290 -17.828 -0.10 +0.00    +0.000    29.615
ATOM     13  C   UNL d   1      13.420   7.879 -16.769 -0.14 +0.02    +0.070    29.615
ATOM     14  C   UNL d   1      13.506   6.180 -20.077 -0.05 +0.01    +0.052    29.615
ATOM     15  C   UNL d   1      13.212   9.005 -14.559 -0.17 +0.01    +0.066    29.615
ATOM     16  C   UNL d   1      13.800   9.418 -13.364 -0.20 -0.00    -0.021    29.615
ATOM     17  C   UNL d   1      12.773   9.948 -12.582 -0.21 +0.00    +0.000    29.615
ATOM     18  C   UNL d   1      11.621   9.819 -13.371 -0.17 +0.02    +0.070    29.615
ATOM     19  C   UNL d   1      15.263   9.221 -13.055 -0.20 +0.01    +0.052    29.615
ATOM     20  C   UNL d   1       9.133  10.133 -13.699 -0.17 +0.02    +0.066    29.615
ATOM     21  C   UNL d   1       7.888  10.604 -13.292 -0.17 -0.01    -0.025    29.615
ATOM     22  C   UNL d   1       7.011  10.322 -14.315 -0.13 -0.01    -0.021    29.615
ATOM     23  C   UNL d   1       7.753   9.670 -15.305 -0.13 +0.03    +0.066    29.615
ATOM     24  C   UNL d   1       7.552  11.285 -11.990 -0.19 +0.02    +0.051    29.615
ATOM     25  N   UNL d   1       9.221   8.157 -17.411 -0.08 -0.13    -0.248    29.615
ATOM     26  N   UNL d   1      12.087   7.827 -17.016 -0.12 -0.09    -0.248    29.615
ATOM     27  N   UNL d   1      11.893   9.177 -14.535 -0.13 -0.06    -0.248    29.615
ATOM     28  N   UNL d   1       9.033   9.517 -14.907 -0.11 -0.10    -0.248    29.615
ATOM     29 FE   UNL d   1      10.550   8.679 -15.952 -0.03 +0.00    +0.000    29.615
ATOM     30  O   UNL d   1      10.247   7.153 -16.009 -0.44 +0.00    +0.000    29.615
ATOM     31  O   UNL d   1      10.394   7.868 -14.613 -0.94 +0.00    +0.000    29.615
ATOM     32  C   UNL d   1       5.874   7.836 -19.000 -0.03 +0.02    +0.052    29.615
ATOM     33  C   UNL d   1       5.266   6.445 -18.856 -0.04 +0.05    +0.115    29.615
ATOM     34  C   UNL d   1       5.739   5.736 -17.611 -0.04 +0.16    +0.139    29.615
ATOM     35  O   UNL d   1       5.964   6.379 -16.599 -0.27 -0.85    -0.650    29.615
ATOM     36  O   UNL d   1       5.948   4.403 -17.597 -0.23 -1.41    -0.776    29.615
ATOM     37  H   UNL d   1       5.606   3.825 -18.289 +0.02 +0.16    +0.167    29.615
ATOM     38  C   UNL d   1       5.532  10.608 -14.307 -0.08 +0.01    +0.052    29.615
ATOM     39  C   UNL d   1       5.132  11.637 -15.362 -0.03 +0.02    +0.115    29.615
ATOM     40  C   UNL d   1       6.203  12.675 -15.588 -0.02 +0.02    +0.139    29.615
ATOM     41  O   UNL d   1       6.888  12.630 -16.597 +0.01 -0.09    -0.650    29.615
ATOM     42  O   UNL d   1       6.385  13.688 -14.719 +0.01 -0.09    -0.776    29.615
ATOM     43  H   UNL d   1       5.786  14.444 -14.692 +0.00 +0.01    +0.167    29.615
ATOM     44  C   UNL d   1      15.650   7.091 -18.050 -0.08 +0.00    +0.004    29.615
ATOM     45  C   UNL d   1      16.537   6.546 -17.218 -0.10 +0.00    +0.012    29.615
ATOM     46  C   UNL d   1      12.780  10.493 -11.179 -0.30 +0.00    +0.004    29.615
ATOM     47  C   UNL d   1      13.822  10.954 -10.474 -0.25 +0.00    +0.012    29.615
TER
ENDMDL
MODEL       14
USER    Run = 14
USER    Cluster Rank = 21
USER    Number of conformations in this cluster = 1
USER  
USER    RMSD from reference structure       = 47.224 A
USER  
USER    Estimated Free Energy of Binding    =   -4.73 kcal/mol  [=(1)+(2)+(3)-(4)]
USER    Estimated Inhibition Constant, Ki   =  340.30 uM (micromolar)  [Temperature = 298.15 K]
USER    
USER    (1) Final Intermolecular Energy     =   -7.71 kcal/mol
USER        vdW + Hbond + desolv Energy     =   -5.99 kcal/mol
USER        Electrostatic Energy            =   -1.73 kcal/mol
USER    (2) Final Total Internal Energy     =   -2.55 kcal/mol
USER    (3) Torsional Free Energy           =   +2.98 kcal/mol
USER    (4) Unbound System's Energy  [=(2)] =   -2.55 kcal/mol
USER    
USER    
USER  
USER    DPF = D:/Protein_go_brrr/autodock/final/AncA/heme_O2/dock.dpf
USER    NEWDPF move	heme_O2_opt.pdbqt
USER    NEWDPF about	8.287000 34.468000 -0.670000
USER    NEWDPF tran0	-20.046935 -5.978219 7.632301
USER    NEWDPF axisangle0	0.245346 -0.967706 0.057878 -110.206476
USER    NEWDPF quaternion0	0.201229 -0.793697 0.047471 -0.572100
USER    NEWDPF dihe0	154.48 138.77 -46.36 125.76 -88.52 -47.90 -100.56 114.46 177.69 -170.59 
USER  
USER                              x       y       z    vdW   Elec        q     RMS 
ATOM      1  C   UNL d   1     -19.066  -4.687   6.264 -0.31 +0.00    +0.064    47.224
ATOM      2  C   UNL d   1     -21.653  -8.626   5.668 -0.16 -0.00    +0.064    47.224
ATOM      3  C   UNL d   1     -22.253  -9.062  10.416 -0.10 -0.00    +0.064    47.224
ATOM      4  C   UNL d   1     -19.997  -4.747  11.015 -0.14 -0.02    +0.064    47.224
ATOM      5  C   UNL d   1     -19.722  -5.722   5.715 -0.28 -0.00    +0.066    47.224
ATOM      6  C   UNL d   1     -19.773  -5.976   4.341 -0.28 +0.00    -0.021    47.224
ATOM      7  C   UNL d   1     -20.558  -7.091   4.164 -0.24 +0.00    -0.025    47.224
ATOM      8  C   UNL d   1     -20.925  -7.516   5.438 -0.19 -0.01    +0.066    47.224
ATOM      9  C   UNL d   1     -20.942  -7.676   2.822 -0.23 -0.00    +0.051    47.224
ATOM     10  C   UNL d   1     -22.050  -9.134   6.982 -0.13 -0.00    +0.066    47.224
ATOM     11  C   UNL d   1     -22.665 -10.376   7.173 -0.09 -0.00    -0.021    47.224
ATOM     12  C   UNL d   1     -22.830 -10.528   8.537 -0.08 +0.00    +0.000    47.224
ATOM     13  C   UNL d   1     -22.306  -9.338   9.113 -0.10 -0.00    +0.070    47.224
ATOM     14  C   UNL d   1     -23.053 -11.388   6.101 -0.05 +0.00    +0.052    47.224
ATOM     15  C   UNL d   1     -21.764  -7.855  11.037 -0.08 -0.01    +0.066    47.224
ATOM     16  C   UNL d   1     -21.887  -7.557  12.394 -0.04 +0.00    -0.021    47.224
ATOM     17  C   UNL d   1     -21.251  -6.331  12.588 -0.04 -0.00    +0.000    47.224
ATOM     18  C   UNL d   1     -20.780  -5.968  11.318 -0.09 -0.01    +0.070    47.224
ATOM     19  C   UNL d   1     -22.640  -8.434  13.363 -0.01 -0.00    +0.052    47.224
ATOM     20  C   UNL d   1     -19.567  -4.347   9.802 -0.20 -0.02    +0.066    47.224
ATOM     21  C   UNL d   1     -18.817  -3.196   9.581 -0.21 +0.01    -0.025    47.224
ATOM     22  C   UNL d   1     -18.520  -3.177   8.237 -0.28 +0.00    -0.021    47.224
ATOM     23  C   UNL d   1     -19.117  -4.313   7.682 -0.29 -0.00    +0.066    47.224
ATOM     24  C   UNL d   1     -18.409  -2.163  10.600 -0.17 -0.02    +0.051    47.224
ATOM     25  N   UNL d   1     -20.465  -6.635   6.388 -0.15 +0.04    -0.248    47.224
ATOM     26  N   UNL d   1     -21.838  -8.493   8.159 -0.08 +0.02    -0.248    47.224
ATOM     27  N   UNL d   1     -21.165  -6.867  10.377 -0.05 +0.06    -0.248    47.224
ATOM     28  N   UNL d   1     -19.790  -4.998   8.630 -0.15 +0.06    -0.248    47.224
ATOM     29 FE   UNL d   1     -20.807  -6.733   8.399 -0.04 -0.00    +0.000    47.224
ATOM     30  O   UNL d   1     -22.073  -6.387   7.562 -0.11 -0.00    +0.000    47.224
ATOM     31  O   UNL d   1     -21.822  -5.658   8.937 -0.11 -0.00    +0.000    47.224
ATOM     32  C   UNL d   1     -19.222  -5.127   3.224 -0.17 +0.01    +0.052    47.224
ATOM     33  C   UNL d   1     -20.282  -4.247   2.570 -0.21 +0.03    +0.115    47.224
ATOM     34  C   UNL d   1     -20.621  -3.037   3.405 -0.16 +0.06    +0.139    47.224
ATOM     35  O   UNL d   1     -20.456  -1.920   2.942 +0.01 -0.55    -0.650    47.224
ATOM     36  O   UNL d   1     -21.078  -3.160   4.668 +0.05 -0.26    -0.776    47.224
ATOM     37  H   UNL d   1     -20.965  -2.461   5.322 +0.03 +0.07    +0.167    47.224
ATOM     38  C   UNL d   1     -17.759  -2.091   7.521 -0.30 +0.01    +0.052    47.224
ATOM     39  C   UNL d   1     -18.542  -0.781   7.450 -0.16 +0.05    +0.115    47.224
ATOM     40  C   UNL d   1     -19.773  -0.892   6.585 -0.11 +0.09    +0.139    47.224
ATOM     41  O   UNL d   1     -20.858  -1.110   7.100 +0.03 -0.24    -0.650    47.224
ATOM     42  O   UNL d   1     -19.707  -0.704   5.253 -0.43 -1.29    -0.776    47.224
ATOM     43  H   UNL d   1     -20.223  -1.242   4.640 +0.03 +0.21    +0.167    47.224
ATOM     44  C   UNL d   1     -23.461 -11.767   9.137 -0.03 +0.00    +0.004    47.224
ATOM     45  C   UNL d   1     -22.989 -12.532  10.121 -0.03 +0.00    +0.012    47.224
ATOM     46  C   UNL d   1     -21.108  -5.476  13.819 -0.02 -0.00    +0.004    47.224
ATOM     47  C   UNL d   1     -19.983  -5.100  14.440 -0.03 -0.00    +0.012    47.224
TER
ENDMDL


AVSFLD: # AVS field file
AVSFLD: #
AVSFLD: # Created by AutoDock
AVSFLD: #
AVSFLD: ndim=2           # number of dimensions in the field
AVSFLD: nspace=1         # number of physical coordinates
AVSFLD: veclen=7         # vector size
AVSFLD: dim1=47          # atoms
AVSFLD: dim2=21          # conformations
AVSFLD: data=Real       # data type (byte,integer,Real,double)
AVSFLD: field=uniform    # field coordinate layout
AVSFLD: label= x y z vdW Elec q RMS
AVSFLD: variable 1 file = D:/Protein_go_brrr/autodock/final/AncA/heme_O2/dock.dlg.pdb filetype = ascii offset = 5 stride = 12
AVSFLD: variable 2 file = D:/Protein_go_brrr/autodock/final/AncA/heme_O2/dock.dlg.pdb filetype = ascii offset = 6 stride = 12
AVSFLD: variable 3 file = D:/Protein_go_brrr/autodock/final/AncA/heme_O2/dock.dlg.pdb filetype = ascii offset = 7 stride = 12
AVSFLD: variable 4 file = D:/Protein_go_brrr/autodock/final/AncA/heme_O2/dock.dlg.pdb filetype = ascii offset = 8 stride = 12
AVSFLD: variable 5 file = D:/Protein_go_brrr/autodock/final/AncA/heme_O2/dock.dlg.pdb filetype = ascii offset = 9 stride = 12
AVSFLD: variable 6 file = D:/Protein_go_brrr/autodock/final/AncA/heme_O2/dock.dlg.pdb filetype = ascii offset = 10 stride = 12
AVSFLD: variable 7 file = D:/Protein_go_brrr/autodock/final/AncA/heme_O2/dock.dlg.pdb filetype = ascii offset = 11 stride = 12
AVSFLD: # end of file

>>> Closing the docking parameter file (DPF)...
This docking finished at:			8:52 19" p.m., 01/16/2026


________________________________________________________________________________

D:/autodockScripts/autodock4.exe: Successful Completion on "ACER"

Real= 33h 38m 53.31s,  CPU= 6m 32.39s,  System= 1m 57.11s
________________________________________________________________________________

