REMARK  6 active torsions:
REMARK  status: ('A' for Active; 'I' for Inactive)
REMARK    1  A    between atoms: P_1  and  O_3 
REMARK    2  A    between atoms: P_2  and  O_4 
REMARK    3  A    between atoms: O_3  and  C_13 
REMARK    4  A    between atoms: O_4  and  C_14 
REMARK    5  A    between atoms: C_13  and  C_14 
REMARK    6  A    between atoms: C_13  and  C_15 
ROOT
ATOM      1  C   UNL d   1       7.200 -14.603  13.882  0.00  0.00     0.193 C 
ENDROOT
BRANCH   1   2
ATOM      2  O   UNL d   1       8.291 -15.566  14.069  0.00  0.00    -0.356 OA
BRANCH   2   3
ATOM      3  P   UNL d   1       9.824 -15.126  14.471  0.00  0.00    -0.014 P 
ATOM      4  O   UNL d   1      10.617 -15.262  13.162  0.00  0.00    -0.577 OA
ATOM      5  O   UNL d   1      10.315 -16.112  15.529  0.00  0.00    -0.577 OA
ATOM      6  O   UNL d   1       9.788 -13.681  14.956  0.00  0.00    -0.638 OA
ENDBRANCH   2   3
ENDBRANCH   1   2
BRANCH   1   7
ATOM      7  C   UNL d   1       5.938 -15.369  13.339  0.00  0.00     0.201 C 
BRANCH   7   8
ATOM      8  O   UNL d   1       6.180 -16.697  12.822  0.00  0.00    -0.364 OA
BRANCH   8   9
ATOM      9  P   UNL d   1       5.343 -17.239  11.503  0.00  0.00    -0.015 P 
ATOM     10  O   UNL d   1       5.254 -16.031  10.563  0.00  0.00    -0.577 OA
ATOM     11  O   UNL d   1       3.966 -17.680  11.999  0.00  0.00    -0.577 OA
ATOM     12  O   UNL d   1       6.154 -18.382  10.893  0.00  0.00    -0.638 OA
ENDBRANCH   8   9
ENDBRANCH   7   8
ENDBRANCH   1   7
BRANCH   1  13
ATOM     13  C   UNL d   1       7.618 -13.510  12.830  0.00  0.00     0.073 C 
ATOM     14  O   UNL d   1       8.191 -13.891  11.748  0.00  0.00    -0.547 OA
ATOM     15  O   UNL d   1       7.300 -12.295  13.093  0.00  0.00    -0.547 OA
ENDBRANCH   1  13
TORSDOF 6
