REMARK  6 active torsions:
REMARK  status: ('A' for Active; 'I' for Inactive)
REMARK    1  A    between atoms: P_1  and  O_3 
REMARK    2  A    between atoms: P_2  and  O_4 
REMARK    3  A    between atoms: O_3  and  C_13 
REMARK    4  A    between atoms: O_4  and  C_14 
REMARK    5  A    between atoms: C_13  and  C_14 
REMARK    6  A    between atoms: C_13  and  C_15 
ROOT
ATOM      1  C   UNL d   1       7.413 -14.391  13.742  0.00  0.00     0.193 C 
ENDROOT
BRANCH   1   2
ATOM      2  O   UNL d   1       8.714 -15.063  13.659  0.00  0.00    -0.356 OA
BRANCH   2   3
ATOM      3  P   UNL d   1       9.238 -16.158  14.769  0.00  0.00    -0.014 P 
ATOM      4  O   UNL d   1       9.528 -17.425  13.950  0.00  0.00    -0.577 OA
ATOM      5  O   UNL d   1       8.098 -16.378  15.761  0.00  0.00    -0.577 OA
ATOM      6  O   UNL d   1      10.506 -15.606  15.413  0.00  0.00    -0.638 OA
ENDBRANCH   2   3
ENDBRANCH   1   2
BRANCH   1   7
ATOM      7  C   UNL d   1       6.277 -15.468  13.581  0.00  0.00     0.201 C 
BRANCH   7   8
ATOM      8  O   UNL d   1       6.182 -16.094  12.282  0.00  0.00    -0.364 OA
BRANCH   8   9
ATOM      9  P   UNL d   1       5.497 -17.592  12.132  0.00  0.00    -0.015 P 
ATOM     10  O   UNL d   1       3.996 -17.328  11.960  0.00  0.00    -0.577 OA
ATOM     11  O   UNL d   1       5.798 -18.353  13.422  0.00  0.00    -0.577 OA
ATOM     12  O   UNL d   1       6.110 -18.247  10.894  0.00  0.00    -0.638 OA
ENDBRANCH   8   9
ENDBRANCH   7   8
ENDBRANCH   1   7
BRANCH   1  13
ATOM     13  C   UNL d   1       7.275 -13.336  12.583  0.00  0.00     0.073 C 
ATOM     14  O   UNL d   1       6.739 -12.203  12.848  0.00  0.00    -0.547 OA
ATOM     15  O   UNL d   1       7.772 -13.655  11.443  0.00  0.00    -0.547 OA
ENDBRANCH   1  13
TORSDOF 6
