REMARK  6 active torsions:
REMARK  status: ('A' for Active; 'I' for Inactive)
REMARK    1  A    between atoms: P_1  and  O_3 
REMARK    2  A    between atoms: P_2  and  O_4 
REMARK    3  A    between atoms: O_3  and  C_13 
REMARK    4  A    between atoms: O_4  and  C_14 
REMARK    5  A    between atoms: C_13  and  C_14 
REMARK    6  A    between atoms: C_13  and  C_15 
ROOT
ATOM      1  C   UNL d   1       6.729 -14.937  13.108  0.00  0.00     0.193 C 
ENDROOT
BRANCH   1   2
ATOM      2  O   UNL d   1       5.396 -15.418  12.729  0.00  0.00    -0.356 OA
BRANCH   2   3
ATOM      3  P   UNL d   1       5.148 -16.733  11.773  0.00  0.00    -0.014 P 
ATOM      4  O   UNL d   1       5.361 -16.213  10.343  0.00  0.00    -0.577 OA
ATOM      5  O   UNL d   1       3.709 -17.191  11.997  0.00  0.00    -0.577 OA
ATOM      6  O   UNL d   1       6.186 -17.788  12.145  0.00  0.00    -0.638 OA
ENDBRANCH   2   3
ENDBRANCH   1   2
BRANCH   1   7
ATOM      7  C   UNL d   1       6.687 -14.463  14.607  0.00  0.00     0.201 C 
BRANCH   7   8
ATOM      8  O   UNL d   1       7.803 -14.872  15.429  0.00  0.00    -0.364 OA
BRANCH   8   9
ATOM      9  P   UNL d   1       9.059 -15.718  14.761  0.00  0.00    -0.015 P 
ATOM     10  O   UNL d   1       9.598 -14.816  13.645  0.00  0.00    -0.577 OA
ATOM     11  O   UNL d   1       8.477 -17.020  14.212  0.00  0.00    -0.577 OA
ATOM     12  O   UNL d   1      10.090 -15.942  15.867  0.00  0.00    -0.638 OA
ENDBRANCH   8   9
ENDBRANCH   7   8
ENDBRANCH   1   7
BRANCH   1  13
ATOM     13  C   UNL d   1       7.138 -13.715  12.204  0.00  0.00     0.073 C 
ATOM     14  O   UNL d   1       7.619 -13.949  11.040  0.00  0.00    -0.547 OA
ATOM     15  O   UNL d   1       6.903 -12.541  12.669  0.00  0.00    -0.547 OA
ENDBRANCH   1  13
TORSDOF 6
