REMARK  6 active torsions:
REMARK  status: ('A' for Active; 'I' for Inactive)
REMARK    1  A    between atoms: P_1  and  O_3 
REMARK    2  A    between atoms: P_2  and  O_4 
REMARK    3  A    between atoms: O_3  and  C_13 
REMARK    4  A    between atoms: O_4  and  C_14 
REMARK    5  A    between atoms: C_13  and  C_14 
REMARK    6  A    between atoms: C_13  and  C_15 
ROOT
ATOM      1  C   UNL d   1       9.240 -15.083  16.054  0.00  0.00     0.193 C 
ENDROOT
BRANCH   1   2
ATOM      2  O   UNL d   1       8.636 -15.828  17.165  0.00  0.00    -0.356 OA
BRANCH   2   3
ATOM      3  P   UNL d   1       9.304 -15.910  18.665  0.00  0.00    -0.014 P 
ATOM      4  O   UNL d   1       8.265 -15.250  19.584  0.00  0.00    -0.577 OA
ATOM      5  O   UNL d   1      10.606 -15.112  18.625  0.00  0.00    -0.577 OA
ATOM      6  O   UNL d   1       9.504 -17.382  19.011  0.00  0.00    -0.638 OA
ENDBRANCH   2   3
ENDBRANCH   1   2
BRANCH   1   7
ATOM      7  C   UNL d   1       8.108 -14.697  15.031  0.00  0.00     0.201 C 
BRANCH   7   8
ATOM      8  O   UNL d   1       8.506 -14.637  13.644  0.00  0.00    -0.364 OA
BRANCH   8   9
ATOM      9  P   UNL d   1       7.513 -13.931  12.525  0.00  0.00    -0.015 P 
ATOM     10  O   UNL d   1       7.284 -12.504  13.039  0.00  0.00    -0.577 OA
ATOM     11  O   UNL d   1       6.218 -14.743  12.502  0.00  0.00    -0.577 OA
ATOM     12  O   UNL d   1       8.253 -13.947  11.189  0.00  0.00    -0.638 OA
ENDBRANCH   8   9
ENDBRANCH   7   8
ENDBRANCH   1   7
BRANCH   1  13
ATOM     13  C   UNL d   1      10.301 -15.982  15.315  0.00  0.00     0.073 C 
ATOM     14  O   UNL d   1      11.442 -16.161  15.870  0.00  0.00    -0.547 OA
ATOM     15  O   UNL d   1       9.931 -16.539  14.219  0.00  0.00    -0.547 OA
ENDBRANCH   1  13
TORSDOF 6
