REMARK  6 active torsions:
REMARK  status: ('A' for Active; 'I' for Inactive)
REMARK    1  A    between atoms: P_1  and  O_3 
REMARK    2  A    between atoms: P_2  and  O_4 
REMARK    3  A    between atoms: O_3  and  C_13 
REMARK    4  A    between atoms: O_4  and  C_14 
REMARK    5  A    between atoms: C_13  and  C_14 
REMARK    6  A    between atoms: C_13  and  C_15 
ROOT
ATOM      1  C   UNL d   1       9.219 -15.129  15.968  0.00  0.00     0.193 C 
ENDROOT
BRANCH   1   2
ATOM      2  O   UNL d   1       8.667 -15.864  17.111  0.00  0.00    -0.356 OA
BRANCH   2   3
ATOM      3  P   UNL d   1       9.329 -15.824  18.616  0.00  0.00    -0.014 P 
ATOM      4  O   UNL d   1       8.298 -15.068  19.469  0.00  0.00    -0.577 OA
ATOM      5  O   UNL d   1      10.644 -15.053  18.511  0.00  0.00    -0.577 OA
ATOM      6  O   UNL d   1       9.504 -17.262  19.092  0.00  0.00    -0.638 OA
ENDBRANCH   2   3
ENDBRANCH   1   2
BRANCH   1   7
ATOM      7  C   UNL d   1       8.054 -14.814  14.959  0.00  0.00     0.201 C 
BRANCH   7   8
ATOM      8  O   UNL d   1       8.451 -14.223  13.702  0.00  0.00    -0.364 OA
BRANCH   8   9
ATOM      9  P   UNL d   1       7.305 -13.783  12.594  0.00  0.00    -0.015 P 
ATOM     10  O   UNL d   1       6.987 -12.316  12.908  0.00  0.00    -0.577 OA
ATOM     11  O   UNL d   1       6.095 -14.690  12.819  0.00  0.00    -0.577 OA
ATOM     12  O   UNL d   1       7.928 -13.951  11.209  0.00  0.00    -0.638 OA
ENDBRANCH   8   9
ENDBRANCH   7   8
ENDBRANCH   1   7
BRANCH   1  13
ATOM     13  C   UNL d   1      10.298 -16.009  15.232  0.00  0.00     0.073 C 
ATOM     14  O   UNL d   1      10.060 -16.394  14.034  0.00  0.00    -0.547 OA
ATOM     15  O   UNL d   1      11.393 -16.237  15.864  0.00  0.00    -0.547 OA
ENDBRANCH   1  13
TORSDOF 6
