REMARK  6 active torsions:
REMARK  status: ('A' for Active; 'I' for Inactive)
REMARK    1  A    between atoms: P_1  and  O_3 
REMARK    2  A    between atoms: P_2  and  O_4 
REMARK    3  A    between atoms: O_3  and  C_13 
REMARK    4  A    between atoms: O_4  and  C_14 
REMARK    5  A    between atoms: C_13  and  C_14 
REMARK    6  A    between atoms: C_13  and  C_15 
ROOT
ATOM      1  C   UNL d   1       7.098 -14.563  13.686  0.00  0.00     0.193 C 
ENDROOT
BRANCH   1   2
ATOM      2  O   UNL d   1       8.229 -15.497  13.659  0.00  0.00    -0.356 OA
BRANCH   2   3
ATOM      3  P   UNL d   1       9.648 -15.221  14.444  0.00  0.00    -0.014 P 
ATOM      4  O   UNL d   1      10.686 -16.036  13.657  0.00  0.00    -0.577 OA
ATOM      5  O   UNL d   1       9.485 -15.745  15.869  0.00  0.00    -0.577 OA
ATOM      6  O   UNL d   1       9.941 -13.726  14.376  0.00  0.00    -0.638 OA
ENDBRANCH   2   3
ENDBRANCH   1   2
BRANCH   1   7
ATOM      7  C   UNL d   1       5.767 -15.376  13.483  0.00  0.00     0.201 C 
BRANCH   7   8
ATOM      8  O   UNL d   1       5.915 -16.698  12.921  0.00  0.00    -0.364 OA
BRANCH   8   9
ATOM      9  P   UNL d   1       5.080 -17.119  11.557  0.00  0.00    -0.015 P 
ATOM     10  O   UNL d   1       5.082 -15.858  10.684  0.00  0.00    -0.577 OA
ATOM     11  O   UNL d   1       3.669 -17.505  11.999  0.00  0.00    -0.577 OA
ATOM     12  O   UNL d   1       5.838 -18.272  10.901  0.00  0.00    -0.638 OA
ENDBRANCH   8   9
ENDBRANCH   7   8
ENDBRANCH   1   7
BRANCH   1  13
ATOM     13  C   UNL d   1       7.234 -13.517  12.518  0.00  0.00     0.073 C 
ATOM     14  O   UNL d   1       6.919 -12.297  12.750  0.00  0.00    -0.547 OA
ATOM     15  O   UNL d   1       7.717 -13.943  11.407  0.00  0.00    -0.547 OA
ENDBRANCH   1  13
TORSDOF 6
