REMARK  6 active torsions:
REMARK  status: ('A' for Active; 'I' for Inactive)
REMARK    1  A    between atoms: P_1  and  O_3 
REMARK    2  A    between atoms: P_2  and  O_4 
REMARK    3  A    between atoms: O_3  and  C_13 
REMARK    4  A    between atoms: O_4  and  C_14 
REMARK    5  A    between atoms: C_13  and  C_14 
REMARK    6  A    between atoms: C_13  and  C_15 
ROOT
ATOM      1  C   UNL d   1       6.212 -16.875  13.848  0.00  0.00     0.193 C 
ENDROOT
BRANCH   1   2
ATOM      2  O   UNL d   1       6.286 -17.688  12.629  0.00  0.00    -0.356 OA
BRANCH   2   3
ATOM      3  P   UNL d   1       5.144 -17.649  11.446  0.00  0.00    -0.014 P 
ATOM      4  O   UNL d   1       5.623 -16.548  10.487  0.00  0.00    -0.577 OA
ATOM      5  O   UNL d   1       3.819 -17.279  12.109  0.00  0.00    -0.577 OA
ATOM      6  O   UNL d   1       5.124 -19.014  10.765  0.00  0.00    -0.638 OA
ENDBRANCH   2   3
ENDBRANCH   1   2
BRANCH   1   7
ATOM      7  C   UNL d   1       6.217 -15.355  13.441  0.00  0.00     0.201 C 
BRANCH   7   8
ATOM      8  O   UNL d   1       7.487 -14.676  13.556  0.00  0.00    -0.364 OA
BRANCH   8   9
ATOM      9  P   UNL d   1       7.866 -13.444  12.519  0.00  0.00    -0.015 P 
ATOM     10  O   UNL d   1       6.924 -12.296  12.903  0.00  0.00    -0.577 OA
ATOM     11  O   UNL d   1       7.596 -13.954  11.103  0.00  0.00    -0.577 OA
ATOM     12  O   UNL d   1       9.332 -13.088  12.757  0.00  0.00    -0.638 OA
ENDBRANCH   8   9
ENDBRANCH   7   8
ENDBRANCH   1   7
BRANCH   1  13
ATOM     13  C   UNL d   1       7.462 -17.157  14.762  0.00  0.00     0.073 C 
ATOM     14  O   UNL d   1       7.263 -17.519  15.974  0.00  0.00    -0.547 OA
ATOM     15  O   UNL d   1       8.618 -17.067  14.211  0.00  0.00    -0.547 OA
ENDBRANCH   1  13
TORSDOF 6
