REMARK  6 active torsions:
REMARK  status: ('A' for Active; 'I' for Inactive)
REMARK    1  A    between atoms: P_1  and  O_3 
REMARK    2  A    between atoms: P_2  and  O_4 
REMARK    3  A    between atoms: O_3  and  C_13 
REMARK    4  A    between atoms: O_4  and  C_14 
REMARK    5  A    between atoms: C_13  and  C_14 
REMARK    6  A    between atoms: C_13  and  C_15 
ROOT
ATOM      1  C   UNL d   1       5.059 -16.949  11.448  0.00  0.00     0.193 C 
ENDROOT
BRANCH   1   2
ATOM      2  O   UNL d   1       6.117 -17.773  12.042  0.00  0.00    -0.356 OA
BRANCH   2   3
ATOM      3  P   UNL d   1       6.377 -19.344  11.629  0.00  0.00    -0.014 P 
ATOM      4  O   UNL d   1       5.623 -19.520  10.302  0.00  0.00    -0.577 OA
ATOM      5  O   UNL d   1       5.777 -20.208  12.736  0.00  0.00    -0.577 OA
ATOM      6  O   UNL d   1       7.879 -19.541  11.450  0.00  0.00    -0.638 OA
ENDBRANCH   2   3
ENDBRANCH   1   2
BRANCH   1   7
ATOM      7  C   UNL d   1       5.625 -15.502  11.199  0.00  0.00     0.201 C 
BRANCH   7   8
ATOM      8  O   UNL d   1       6.197 -14.843  12.350  0.00  0.00    -0.364 OA
BRANCH   8   9
ATOM      9  P   UNL d   1       7.505 -13.845  12.170  0.00  0.00    -0.015 P 
ATOM     10  O   UNL d   1       8.558 -14.388  13.143  0.00  0.00    -0.577 OA
ATOM     11  O   UNL d   1       7.047 -12.437  12.552  0.00  0.00    -0.577 OA
ATOM     12  O   UNL d   1       7.957 -13.953  10.715  0.00  0.00    -0.638 OA
ENDBRANCH   8   9
ENDBRANCH   7   8
ENDBRANCH   1   7
BRANCH   1  13
ATOM     13  C   UNL d   1       3.835 -16.849  12.434  0.00  0.00     0.073 C 
ATOM     14  O   UNL d   1       4.015 -16.299  13.577  0.00  0.00    -0.547 OA
ATOM     15  O   UNL d   1       2.703 -17.273  12.002  0.00  0.00    -0.547 OA
ENDBRANCH   1  13
TORSDOF 6
