REMARK  6 active torsions:
REMARK  status: ('A' for Active; 'I' for Inactive)
REMARK    1  A    between atoms: P_1  and  O_3 
REMARK    2  A    between atoms: P_2  and  O_4 
REMARK    3  A    between atoms: O_3  and  C_13 
REMARK    4  A    between atoms: O_4  and  C_14 
REMARK    5  A    between atoms: C_13  and  C_14 
REMARK    6  A    between atoms: C_13  and  C_15 
ROOT
ATOM      1  C   UNL d   1       5.736 -15.989  13.110  0.00  0.00     0.193 C 
ENDROOT
BRANCH   1   2
ATOM      2  O   UNL d   1       6.752 -15.092  12.547  0.00  0.00    -0.356 OA
BRANCH   2   3
ATOM      3  P   UNL d   1       6.399 -13.876  11.498  0.00  0.00    -0.014 P 
ATOM      4  O   UNL d   1       6.735 -12.592  12.274  0.00  0.00    -0.577 OA
ATOM      5  O   UNL d   1       4.908 -13.968  11.183  0.00  0.00    -0.577 OA
ATOM      6  O   UNL d   1       7.291 -14.038  10.272  0.00  0.00    -0.638 OA
ENDBRANCH   2   3
ENDBRANCH   1   2
BRANCH   1   7
ATOM      7  C   UNL d   1       6.387 -16.817  14.279  0.00  0.00     0.201 C 
BRANCH   7   8
ATOM      8  O   UNL d   1       7.675 -17.407  13.994  0.00  0.00    -0.364 OA
BRANCH   8   9
ATOM      9  P   UNL d   1       9.030 -16.853  14.764  0.00  0.00    -0.015 P 
ATOM     10  O   UNL d   1      10.040 -18.003  14.671  0.00  0.00    -0.577 OA
ATOM     11  O   UNL d   1       8.632 -16.558  16.210  0.00  0.00    -0.577 OA
ATOM     12  O   UNL d   1       9.502 -15.611  14.009  0.00  0.00    -0.638 OA
ENDBRANCH   8   9
ENDBRANCH   7   8
ENDBRANCH   1   7
BRANCH   1  13
ATOM     13  C   UNL d   1       5.228 -16.990  12.006  0.00  0.00     0.073 C 
ATOM     14  O   UNL d   1       6.089 -17.528  11.226  0.00  0.00    -0.547 OA
ATOM     15  O   UNL d   1       3.972 -17.257  11.996  0.00  0.00    -0.547 OA
ENDBRANCH   1  13
TORSDOF 6
