REMARK  6 active torsions:
REMARK  status: ('A' for Active; 'I' for Inactive)
REMARK    1  A    between atoms: P_1  and  O_3 
REMARK    2  A    between atoms: P_2  and  O_4 
REMARK    3  A    between atoms: O_3  and  C_13 
REMARK    4  A    between atoms: O_4  and  C_14 
REMARK    5  A    between atoms: C_13  and  C_14 
REMARK    6  A    between atoms: C_13  and  C_15 
ROOT
ATOM      1  C   UNL d   1       7.225 -14.577  13.655  0.00  0.00     0.193 C 
ENDROOT
BRANCH   1   2
ATOM      2  O   UNL d   1       8.293 -15.575  13.779  0.00  0.00    -0.356 OA
BRANCH   2   3
ATOM      3  P   UNL d   1       9.743 -15.262  14.489  0.00  0.00    -0.014 P 
ATOM      4  O   UNL d   1      10.781 -15.615  13.411  0.00  0.00    -0.577 OA
ATOM      5  O   UNL d   1       9.860 -16.180  15.704  0.00  0.00    -0.577 OA
ATOM      6  O   UNL d   1       9.785 -13.779  14.841  0.00  0.00    -0.638 OA
ENDBRANCH   2   3
ENDBRANCH   1   2
BRANCH   1   7
ATOM      7  C   UNL d   1       5.908 -15.302  13.190  0.00  0.00     0.201 C 
BRANCH   7   8
ATOM      8  O   UNL d   1       6.049 -16.694  12.829  0.00  0.00    -0.364 OA
BRANCH   8   9
ATOM      9  P   UNL d   1       5.253 -17.292  11.507  0.00  0.00    -0.015 P 
ATOM     10  O   UNL d   1       5.082 -16.092  10.568  0.00  0.00    -0.577 OA
ATOM     11  O   UNL d   1       3.909 -17.827  12.000  0.00  0.00    -0.577 OA
ATOM     12  O   UNL d   1       6.142 -18.375  10.898  0.00  0.00    -0.638 OA
ENDBRANCH   8   9
ENDBRANCH   7   8
ENDBRANCH   1   7
BRANCH   1  13
ATOM     13  C   UNL d   1       7.616 -13.500  12.576  0.00  0.00     0.073 C 
ATOM     14  O   UNL d   1       8.238 -13.886  11.524  0.00  0.00    -0.547 OA
ATOM     15  O   UNL d   1       7.227 -12.295  12.788  0.00  0.00    -0.547 OA
ENDBRANCH   1  13
TORSDOF 6
