          AutoDock 4.2 Release 4.2.6   
         (C) 1989-2012 The Scripps Research Institute
        AutoDock comes with ABSOLUTELY NO WARRANTY.
        AutoDock is free software, and you are welcome
        to redistribute it under certain conditions;
        for details type 'autodock4 -C'

                     main.cc  $Revision: 1.213 $

                   Compiled on Jul 18 2014 at 15:34:58


This file was created at:			1:46 12" a.m., 09/26/2025
                   on host:		"ACER"
Current Working Directory = "D:\Protein_go_brrr\autodock\final\1A3N\2_3_BPG"

      ________________________________________________________________

                   SETTING UP DEFAULT PARAMETER LIBRARY
      ________________________________________________________________


Random number generator was seeded with values 44200, 1758843972.
Docking parameter file (DPF) used for this docking:		D:/Protein_go_brrr/autodock/final/1A3N/2_3_BPG/dock.dpf
DPF> autodock_parameter_version 4.2       # used by autodock to validate parameter set

	Autodock parameter version 4.2.
DPF> outlev 1                             # diagnostic output level

Output Level = 1  ADT-COMPATIBLE OUTPUT DURING DOCKING.
DPF> intelec                              # calculate internal electrostatics

Electrostatic energies will be calculated for all non-bonds between moving atoms.
DPF> seed pid time                        # seeds for random generator

Random number generator was seeded with values 44200, 1758843972.
DPF> ligand_types P C OA                  # atoms types in ligand

DPF> fld opt_1A3N_fin.maps.fld            # grid_data_file

Opening Grid Map Dimensions file:		opt_1A3N_fin.maps.fld
Grid Point Spacing =				0.553 Angstroms

Even Number of User-specified Grid Points =	126 x-points
						126 y-points
						126 z-points

Coordinates of Central Grid Point of Maps =	(14.481, 2.083, 13.105)
Macromolecule file used to create Grid Maps =	opt_1A3N_fin.pdbqt
Grid Parameter file used to create Grid Maps =	D:/Protein_go_brrr/autodock/final/1A3N/2_3_BPG/grid.gpf
Minimum coordinates in grid = (-20.358, -32.756, -21.734)
Maximum coordinates in grid = (49.320, 36.922, 47.944)

DPF> map opt_1A3N_fin.P.map               # atom-specific affinity map

DPF> map opt_1A3N_fin.C.map               # atom-specific affinity map

DPF> map opt_1A3N_fin.OA.map              # atom-specific affinity map

DPF> elecmap opt_1A3N_fin.e.map           # electrostatics map

DPF> desolvmap opt_1A3N_fin.d.map         # desolvation map

DPF> move 2_3_BPG_opt.pdbqt               # small molecule

1,4-interactions will be _ignored_ in the non-bonded internal energy calculation.

Ligand PDBQT file = "2_3_BPG_opt.pdbqt"

INPUT LIGAND PDBQT FILE:
________________________

INPUT-LIGAND-PDBQT: REMARK  6 active torsions:
INPUT-LIGAND-PDBQT: REMARK  status: ('A' for Active; 'I' for Inactive)
INPUT-LIGAND-PDBQT: REMARK    1  A    between atoms: P_1  and  O_3 
INPUT-LIGAND-PDBQT: REMARK    2  A    between atoms: P_2  and  O_4 
INPUT-LIGAND-PDBQT: REMARK    3  A    between atoms: O_3  and  C_13 
INPUT-LIGAND-PDBQT: REMARK    4  A    between atoms: O_4  and  C_14 
INPUT-LIGAND-PDBQT: REMARK    5  A    between atoms: C_13  and  C_14 
INPUT-LIGAND-PDBQT: REMARK    6  A    between atoms: C_13  and  C_15 
INPUT-LIGAND-PDBQT: ROOT
INPUT-LIGAND-PDBQT: ATOM      1  C   UNL d   1      -0.571  -0.229   0.124  0.00  0.00     0.193 C 
INPUT-LIGAND-PDBQT: ENDROOT
INPUT-LIGAND-PDBQT: BRANCH   1   2
INPUT-LIGAND-PDBQT: ATOM      2  O   UNL d   1      -1.621   0.569  -0.519  0.00  0.00    -0.356 OA
INPUT-LIGAND-PDBQT: BRANCH   2   3
INPUT-LIGAND-PDBQT: ATOM      3  P   UNL d   1      -3.039   0.957   0.218  0.00  0.00    -0.014 P 
INPUT-LIGAND-PDBQT: ATOM      4  O   UNL d   1      -3.756   1.871  -0.788  0.00  0.00    -0.577 OA
INPUT-LIGAND-PDBQT: ATOM      5  O   UNL d   1      -2.691   1.702   1.505  0.00  0.00    -0.577 OA
INPUT-LIGAND-PDBQT: ATOM      6  O   UNL d   1      -3.816  -0.334   0.454  0.00  0.00    -0.638 OA
INPUT-LIGAND-PDBQT: ENDBRANCH   2   3
INPUT-LIGAND-PDBQT: ENDBRANCH   1   2
INPUT-LIGAND-PDBQT: BRANCH   1   7
INPUT-LIGAND-PDBQT: ATOM      7  C   UNL d   1       0.831   0.324  -0.327  0.00  0.00     0.201 C 
INPUT-LIGAND-PDBQT: BRANCH   7   8
INPUT-LIGAND-PDBQT: ATOM      8  O   UNL d   1       1.946  -0.012   0.528  0.00  0.00    -0.364 OA
INPUT-LIGAND-PDBQT: BRANCH   8   9
INPUT-LIGAND-PDBQT: ATOM      9  P   UNL d   1       3.455   0.578   0.194  0.00  0.00    -0.015 P 
INPUT-LIGAND-PDBQT: ATOM     10  O   UNL d   1       4.367  -0.029   1.267  0.00  0.00    -0.577 OA
INPUT-LIGAND-PDBQT: ATOM     11  O   UNL d   1       3.374   2.100   0.308  0.00  0.00    -0.577 OA
INPUT-LIGAND-PDBQT: ATOM     12  O   UNL d   1       3.825   0.102  -1.210  0.00  0.00    -0.638 OA
INPUT-LIGAND-PDBQT: ENDBRANCH   8   9
INPUT-LIGAND-PDBQT: ENDBRANCH   7   8
INPUT-LIGAND-PDBQT: ENDBRANCH   1   7
INPUT-LIGAND-PDBQT: BRANCH   1  13
INPUT-LIGAND-PDBQT: ATOM     13  C   UNL d   1      -0.687  -1.734  -0.323  0.00  0.00     0.073 C 
INPUT-LIGAND-PDBQT: ATOM     14  O   UNL d   1      -0.704  -2.000  -1.576  0.00  0.00    -0.547 OA
INPUT-LIGAND-PDBQT: ATOM     15  O   UNL d   1      -0.694  -2.619   0.607  0.00  0.00    -0.547 OA
INPUT-LIGAND-PDBQT: ENDBRANCH   1  13
INPUT-LIGAND-PDBQT: TORSDOF 6
________________________________________________________________________________

Total charge on ligand                               =	-4.960 e
REMARK  6 active torsions:
REMARK  status: ('A' for Active; 'I' for Inactive)
REMARK    1  A    between atoms: P_1  and  O_3 
REMARK    2  A    between atoms: P_2  and  O_4 
REMARK    3  A    between atoms: O_3  and  C_13 
REMARK    4  A    between atoms: O_4  and  C_14 
REMARK    5  A    between atoms: C_13  and  C_14 
REMARK    6  A    between atoms: C_13  and  C_15 


Number of Rotatable Bonds in Small Molecule =	6 torsions
Number of atoms in ligand:  15

Number of non-hydrogen atoms in ligand:  15

Number of vibrational degrees of freedom of ligand:  39


Number of torsional degrees of freedom = 6
Estimated loss of torsional free energy upon binding = +1.7898 kcal/mol


DPF> about 0.015 0.083 0.031            # small molecule center

Small molecule center of rotation =	(+0.015, +0.083, +0.031)

DPF> tran0 random                         # initial coordinates/A or random

Initial translation =			(-18.121, -25.881, -6.412) Angstroms
DPF> quaternion0 random                   # initial orientation

Each run will begin with a new, random initial orientation.
Initial quaternion,  (x,y,z,w) =	( -0.236, 0.091, -0.713, 0.654 ),
DPF> dihe0 random                         # initial dihedrals (relative) or random

DPF> torsdof 6                            # torsional degrees of freedom

Number of torsional degrees of freedom = 6
Free energy coefficient for torsional degrees of freedom = 0.2983, the factory default value.

Estimated loss of torsional free energy upon binding = +1.7898 kcal/mol

DPF> rmstol 2.0                           # cluster_tolerance/A

Maximum RMS tolerance for conformational cluster analysis = 2.00 Angstroms
DPF> extnrg 1000.0                        # external grid energy

External grid energy (beyond grid map walls) = 1000.00

DPF> e0max 0.0 10000                      # max initial energy; max number of retries

Using user-specified maximum number of retries for simanneal initialization, 10000 retries.
If the simanneal initial energy is greater than e0max, 0.000,
then a new, random initial state will be created.

DPF> ga_pop_size 150                      # number of individuals in population

A population of 150 individuals will be used
DPF> ga_num_evals 25000000                # maximum number of energy evaluations

There will be at most 25000000 function evaluations used.
DPF> ga_num_generations 27000             # maximum number of generations

The GA will run for at most 27000 generations.
DPF> ga_elitism 1                         # number of top individuals to survive to next generation

The 1 best will be preserved each GA generation.
DPF> ga_mutation_rate 0.02                # rate of gene mutation

The mutation rate is 0.020000.
DPF> ga_crossover_rate 0.8                # rate of crossover

The crossover rate is 0.800000.
DPF> ga_window_size 10                    # 

The GA's selection window is 10 generations.
DPF> ga_cauchy_alpha 0.0                  # Alpha parameter of Cauchy distribution

The alpha parameter (for the Cauchy distribution) is being set to 0.000000.
DPF> ga_cauchy_beta 1.0                   # Beta parameter Cauchy distribution

The beta parameter (for the Cauchy distribution) is being set to 1.000000.
DPF> set_ga                               # set the above parameters for GA or LGA

DPF> sw_max_its 300                       # iterations of Solis & Wets local search

Solis & Wets algorithms will perform at most 300 iterations.
DPF> sw_max_succ 4                        # consecutive successes before changing rho

Solis & Wets algorithms expand rho every 4 in a row successes.
DPF> sw_max_fail 4                        # consecutive failures before changing rho

Solis & Wets algorithms contract rho every 4 in a row failures.
DPF> sw_rho 1.0                           # size of local search space to sample

rho is set to 1.000000.
DPF> sw_lb_rho 0.01                       # lower bound on rho

rho will never get smaller than 0.010000.
DPF> ls_search_freq 0.06                  # probability of performing local search on individual

Local search will be performed with frequency 0.060000.
DPF> set_psw1                             # set the above pseudo-Solis & Wets parameters

Creating a new Local Search object using the pseudo-Solis-Wets algorithm (pSW1) with the current settings.

DPF> unbound_model bound                  # state of unbound ligand

DPF> ga_run 100                           # do this many hybrid GA-LS runs

centering ligand on specified point: 0.015 0.083 0.031
Furthest true ligand atom from "about" center is 4.525 Angstroms (maxrad).
Number of requested GA dockings = 100 runs
Unbound model to be used is 'same as bound' [AutoDock 4.2 default].

	BEGINNING GENETIC ALGORITHM DOCKING 1 of 100
Run: 1 Seed: 51003700 100428946 [ Run 1 of 100 GA/GALS ]
Beginning LAMARCKIAN GENETIC ALGORITHM (LGA), with a maximum of 25000000 energy evaluations.

Final-Value: -6.846


	FINAL GENETIC ALGORITHM DOCKED STATE
	_______________________________________________


Detailed state:  trans -1.398 -3.185 -12.996 quatxyzw -0.415745 0.432324 0.111083 -0.792410 center 0.015 0.083 0.031 ntor 6 -172.6001 -31.7468 -146.8377 -55.5041 -86.2453 -110.0797
State:	 -1.398  -3.185 -12.996  -0.682  0.709  0.182 -75.177   -172.60  -31.75 -146.84  -55.50  -86.25 -110.08

DOCKED: MODEL        1
DOCKED: USER    Run = 1
DOCKED: USER    DPF = D:/Protein_go_brrr/autodock/final/1A3N/2_3_BPG/dock.dpf
DOCKED: USER  
DOCKED: USER    Estimated Free Energy of Binding    =   -7.52 kcal/mol  [=(1)+(2)+(3)-(4)]
DOCKED: USER    Estimated Inhibition Constant, Ki   =    3.08 uM (micromolar)  [Temperature = 298.15 K]
DOCKED: USER    
DOCKED: USER    (1) Final Intermolecular Energy     =   -9.31 kcal/mol
DOCKED: USER        vdW + Hbond + desolv Energy     =   -3.23 kcal/mol
DOCKED: USER        Electrostatic Energy            =   -6.08 kcal/mol
DOCKED: USER    (2) Final Total Internal Energy     =   +2.46 kcal/mol
DOCKED: USER    (3) Torsional Free Energy           =   +1.79 kcal/mol
DOCKED: USER    (4) Unbound System's Energy  [=(2)] =   +2.46 kcal/mol
DOCKED: USER    
DOCKED: USER    
DOCKED: USER    NEWDPF move 2_3_BPG_opt.pdbqt
DOCKED: USER    NEWDPF about 0.015000 0.083000 0.031000
DOCKED: USER    NEWDPF tran0 -1.398252 -3.185230 -12.995512
DOCKED: USER    NEWDPF quaternion0 -0.415745 0.432324 0.111083 -0.792410
DOCKED: USER    NEWDPF axisangle0 -0.681561 0.708740 0.182106 -75.177470
DOCKED: USER    NEWDPF quat0 -0.681561 0.708740 0.182106 -75.177470
DOCKED: USER    NEWDPF dihe0 -172.60 -31.75 -146.84 -55.50 -86.25 -110.08 
DOCKED: USER  keepresnum = 1 
DOCKED: USER  
DOCKED: REMARK  6 active torsions:
DOCKED: REMARK  status: ('A' for Active; 'I' for Inactive)
DOCKED: REMARK    1  A    between atoms: P_1  and  O_3 
DOCKED: REMARK    2  A    between atoms: P_2  and  O_4 
DOCKED: REMARK    3  A    between atoms: O_3  and  C_13 
DOCKED: REMARK    4  A    between atoms: O_4  and  C_14 
DOCKED: REMARK    5  A    between atoms: C_13  and  C_14 
DOCKED: REMARK    6  A    between atoms: C_13  and  C_15 
DOCKED: USER                              x       y       z     vdW  Elec       q    Type
DOCKED: USER                           _______ _______ _______ _____ _____    ______ ____
DOCKED: ROOT
DOCKED: ATOM      1  C   UNL d   1      -1.529  -3.204 -12.338 -0.18 +0.14    +0.193 C 
DOCKED: ENDROOT
DOCKED: BRANCH   1   2
DOCKED: ATOM      2  O   UNL d   1      -2.969  -2.994 -12.151 -0.14 -0.29    -0.356 OA
DOCKED: BRANCH   2   3
DOCKED: ATOM      3  P   UNL d   1      -3.723  -3.155 -10.699 -0.53 -0.02    -0.014 P 
DOCKED: ATOM      4  O   UNL d   1      -4.809  -2.067 -10.709 -0.14 -0.37    -0.577 OA
DOCKED: ATOM      5  O   UNL d   1      -2.679  -2.896  -9.615 -0.19 -0.77    -0.577 OA
DOCKED: ATOM      6  O   UNL d   1      -4.332  -4.552 -10.636 -0.50 -1.13    -0.638 OA
DOCKED: ENDBRANCH   2   3
DOCKED: ENDBRANCH   1   2
DOCKED: BRANCH   1   7
DOCKED: ATOM      7  C   UNL d   1      -1.249  -3.453 -13.866 -0.08 +0.11    +0.201 C 
DOCKED: BRANCH   7   8
DOCKED: ATOM      8  O   UNL d   1      -1.839  -2.501 -14.779 -0.07 -0.25    -0.364 OA
DOCKED: BRANCH   8   9
DOCKED: ATOM      9  P   UNL d   1      -0.941  -1.235 -15.351 -0.28 -0.02    -0.015 P 
DOCKED: ATOM     10  O   UNL d   1       0.478  -1.793 -15.513 -0.07 -0.35    -0.577 OA
DOCKED: ATOM     11  O   UNL d   1      -1.004  -0.131 -14.296 -0.16 -0.75    -0.577 OA
DOCKED: ATOM     12  O   UNL d   1      -1.550  -0.819 -16.689 -0.51 -1.09    -0.638 OA
DOCKED: ENDBRANCH   8   9
DOCKED: ENDBRANCH   7   8
DOCKED: ENDBRANCH   1   7
DOCKED: BRANCH   1  13
DOCKED: ATOM     13  C   UNL d   1      -1.057  -4.468 -11.526 -0.15 +0.09    +0.073 C 
DOCKED: ATOM     14  O   UNL d   1      -0.181  -4.311 -10.606 -0.16 -0.63    -0.547 OA
DOCKED: ATOM     15  O   UNL d   1      -1.634  -5.582 -11.797 -0.05 -0.74    -0.547 OA
DOCKED: ENDBRANCH   1  13
DOCKED: TORSDOF 6
DOCKED: TER
DOCKED: ENDMDL
________________________________________________________________________________


	BEGINNING GENETIC ALGORITHM DOCKING 2 of 100
Run: 2 Seed: 68948649 211891800 [ Run 2 of 100 GA/GALS ]
Beginning LAMARCKIAN GENETIC ALGORITHM (LGA), with a maximum of 25000000 energy evaluations.

Final-Value: -8.371


	FINAL GENETIC ALGORITHM DOCKED STATE
	_______________________________________________


Detailed state:  trans 8.708 -14.890 15.606 quatxyzw -0.178541 0.602160 0.566141 -0.533864 center 0.015 0.083 0.031 ntor 6 61.0183 -64.0066 -90.4388 -9.0987 -0.2037 27.1645
State:	  8.708 -14.890  15.606  -0.211  0.712  0.670 -115.466     61.02  -64.01  -90.44   -9.10   -0.20   27.16

DOCKED: MODEL        2
DOCKED: USER    Run = 2
DOCKED: USER    DPF = D:/Protein_go_brrr/autodock/final/1A3N/2_3_BPG/dock.dpf
DOCKED: USER  
DOCKED: USER    Estimated Free Energy of Binding    =   -8.89 kcal/mol  [=(1)+(2)+(3)-(4)]
DOCKED: USER    Estimated Inhibition Constant, Ki   =  304.66 nM (nanomolar)  [Temperature = 298.15 K]
DOCKED: USER    
DOCKED: USER    (1) Final Intermolecular Energy     =  -10.68 kcal/mol
DOCKED: USER        vdW + Hbond + desolv Energy     =   -3.56 kcal/mol
DOCKED: USER        Electrostatic Energy            =   -7.11 kcal/mol
DOCKED: USER    (2) Final Total Internal Energy     =   +2.31 kcal/mol
DOCKED: USER    (3) Torsional Free Energy           =   +1.79 kcal/mol
DOCKED: USER    (4) Unbound System's Energy  [=(2)] =   +2.31 kcal/mol
DOCKED: USER    
DOCKED: USER    
DOCKED: USER    NEWDPF move 2_3_BPG_opt.pdbqt
DOCKED: USER    NEWDPF about 0.015000 0.083000 0.031000
DOCKED: USER    NEWDPF tran0 8.708152 -14.890227 15.606268
DOCKED: USER    NEWDPF quaternion0 -0.178541 0.602160 0.566141 -0.533864
DOCKED: USER    NEWDPF axisangle0 -0.211148 0.712135 0.669538 -115.466142
DOCKED: USER    NEWDPF quat0 -0.211148 0.712135 0.669538 -115.466142
DOCKED: USER    NEWDPF dihe0 61.02 -64.01 -90.44 -9.10 -0.20 27.16 
DOCKED: USER  keepresnum = 1 
DOCKED: USER  
DOCKED: REMARK  6 active torsions:
DOCKED: REMARK  status: ('A' for Active; 'I' for Inactive)
DOCKED: REMARK    1  A    between atoms: P_1  and  O_3 
DOCKED: REMARK    2  A    between atoms: P_2  and  O_4 
DOCKED: REMARK    3  A    between atoms: O_3  and  C_13 
DOCKED: REMARK    4  A    between atoms: O_4  and  C_14 
DOCKED: REMARK    5  A    between atoms: C_13  and  C_14 
DOCKED: REMARK    6  A    between atoms: C_13  and  C_15 
DOCKED: USER                              x       y       z     vdW  Elec       q    Type
DOCKED: USER                           _______ _______ _______ _____ _____    ______ ____
DOCKED: ROOT
DOCKED: ATOM      1  C   UNL d   1       9.219 -15.129  15.968 -0.03 +0.18    +0.193 C 
DOCKED: ENDROOT
DOCKED: BRANCH   1   2
DOCKED: ATOM      2  O   UNL d   1       8.667 -15.864  17.111 -0.02 -0.32    -0.356 OA
DOCKED: BRANCH   2   3
DOCKED: ATOM      3  P   UNL d   1       9.329 -15.824  18.616 -0.12 -0.02    -0.014 P 
DOCKED: ATOM      4  O   UNL d   1       8.298 -15.068  19.469 -0.34 -0.44    -0.577 OA
DOCKED: ATOM      5  O   UNL d   1      10.644 -15.053  18.511 -0.08 -0.92    -0.577 OA
DOCKED: ATOM      6  O   UNL d   1       9.504 -17.262  19.092 -0.45 -1.13    -0.638 OA
DOCKED: ENDBRANCH   2   3
DOCKED: ENDBRANCH   1   2
DOCKED: BRANCH   1   7
DOCKED: ATOM      7  C   UNL d   1       8.054 -14.814  14.959 -0.03 +0.19    +0.201 C 
DOCKED: BRANCH   7   8
DOCKED: ATOM      8  O   UNL d   1       8.451 -14.223  13.702 -0.24 -0.49    -0.364 OA
DOCKED: BRANCH   8   9
DOCKED: ATOM      9  P   UNL d   1       7.305 -13.783  12.594 -0.35 -0.02    -0.015 P 
DOCKED: ATOM     10  O   UNL d   1       6.987 -12.316  12.908 -0.62 -0.52    -0.577 OA
DOCKED: ATOM     11  O   UNL d   1       6.095 -14.690  12.819 +0.01 -0.64    -0.577 OA
DOCKED: ATOM     12  O   UNL d   1       7.928 -13.951  11.209 -0.30 -1.33    -0.638 OA
DOCKED: ENDBRANCH   8   9
DOCKED: ENDBRANCH   7   8
DOCKED: ENDBRANCH   1   7
DOCKED: BRANCH   1  13
DOCKED: ATOM     13  C   UNL d   1      10.298 -16.009  15.232 -0.08 +0.09    +0.073 C 
DOCKED: ATOM     14  O   UNL d   1      10.060 -16.394  14.034 -0.41 -0.89    -0.547 OA
DOCKED: ATOM     15  O   UNL d   1      11.393 -16.237  15.864 -0.53 -0.85    -0.547 OA
DOCKED: ENDBRANCH   1  13
DOCKED: TORSDOF 6
DOCKED: TER
DOCKED: ENDMDL
________________________________________________________________________________


	BEGINNING GENETIC ALGORITHM DOCKING 3 of 100
Run: 3 Seed: 472213328 1735749255 [ Run 3 of 100 GA/GALS ]
Beginning LAMARCKIAN GENETIC ALGORITHM (LGA), with a maximum of 25000000 energy evaluations.

Final-Value: -8.144


	FINAL GENETIC ALGORITHM DOCKED STATE
	_______________________________________________


Detailed state:  trans 6.089 -16.241 13.668 quatxyzw -0.250004 -0.388975 0.600522 -0.652357 center 0.015 0.083 0.031 ntor 6 -178.7345 -85.9654 -113.1084 82.5924 -34.6140 100.9350
State:	  6.089 -16.241  13.668  -0.330 -0.513  0.792 -98.561   -178.73  -85.97 -113.11   82.59  -34.61  100.94

DOCKED: MODEL        3
DOCKED: USER    Run = 3
DOCKED: USER    DPF = D:/Protein_go_brrr/autodock/final/1A3N/2_3_BPG/dock.dpf
DOCKED: USER  
DOCKED: USER    Estimated Free Energy of Binding    =   -8.85 kcal/mol  [=(1)+(2)+(3)-(4)]
DOCKED: USER    Estimated Inhibition Constant, Ki   =  325.10 nM (nanomolar)  [Temperature = 298.15 K]
DOCKED: USER    
DOCKED: USER    (1) Final Intermolecular Energy     =  -10.64 kcal/mol
DOCKED: USER        vdW + Hbond + desolv Energy     =   -4.58 kcal/mol
DOCKED: USER        Electrostatic Energy            =   -6.06 kcal/mol
DOCKED: USER    (2) Final Total Internal Energy     =   +2.50 kcal/mol
DOCKED: USER    (3) Torsional Free Energy           =   +1.79 kcal/mol
DOCKED: USER    (4) Unbound System's Energy  [=(2)] =   +2.50 kcal/mol
DOCKED: USER    
DOCKED: USER    
DOCKED: USER    NEWDPF move 2_3_BPG_opt.pdbqt
DOCKED: USER    NEWDPF about 0.015000 0.083000 0.031000
DOCKED: USER    NEWDPF tran0 6.088996 -16.240751 13.668202
DOCKED: USER    NEWDPF quaternion0 -0.250004 -0.388975 0.600522 -0.652357
DOCKED: USER    NEWDPF axisangle0 -0.329859 -0.513219 0.792338 -98.560947
DOCKED: USER    NEWDPF quat0 -0.329859 -0.513219 0.792338 -98.560947
DOCKED: USER    NEWDPF dihe0 -178.73 -85.97 -113.11 82.59 -34.61 100.94 
DOCKED: USER  keepresnum = 1 
DOCKED: USER  
DOCKED: REMARK  6 active torsions:
DOCKED: REMARK  status: ('A' for Active; 'I' for Inactive)
DOCKED: REMARK    1  A    between atoms: P_1  and  O_3 
DOCKED: REMARK    2  A    between atoms: P_2  and  O_4 
DOCKED: REMARK    3  A    between atoms: O_3  and  C_13 
DOCKED: REMARK    4  A    between atoms: O_4  and  C_14 
DOCKED: REMARK    5  A    between atoms: C_13  and  C_14 
DOCKED: REMARK    6  A    between atoms: C_13  and  C_15 
DOCKED: USER                              x       y       z     vdW  Elec       q    Type
DOCKED: USER                           _______ _______ _______ _____ _____    ______ ____
DOCKED: ROOT
DOCKED: ATOM      1  C   UNL d   1       6.212 -16.875  13.848 -0.09 +0.20    +0.193 C 
DOCKED: ENDROOT
DOCKED: BRANCH   1   2
DOCKED: ATOM      2  O   UNL d   1       6.286 -17.688  12.629 -0.45 -0.56    -0.356 OA
DOCKED: BRANCH   2   3
DOCKED: ATOM      3  P   UNL d   1       5.144 -17.649  11.446 -0.57 -0.02    -0.014 P 
DOCKED: ATOM      4  O   UNL d   1       5.623 -16.548  10.487 -0.33 -0.90    -0.577 OA
DOCKED: ATOM      5  O   UNL d   1       3.819 -17.279  12.109 -0.52 -0.36    -0.577 OA
DOCKED: ATOM      6  O   UNL d   1       5.124 -19.014  10.765 -0.63 -0.61    -0.638 OA
DOCKED: ENDBRANCH   2   3
DOCKED: ENDBRANCH   1   2
DOCKED: BRANCH   1   7
DOCKED: ATOM      7  C   UNL d   1       6.217 -15.355  13.441 -0.11 +0.22    +0.201 C 
DOCKED: BRANCH   7   8
DOCKED: ATOM      8  O   UNL d   1       7.487 -14.676  13.556 -0.12 -0.52    -0.364 OA
DOCKED: BRANCH   8   9
DOCKED: ATOM      9  P   UNL d   1       7.866 -13.444  12.519 -0.33 -0.02    -0.015 P 
DOCKED: ATOM     10  O   UNL d   1       6.924 -12.296  12.903 -0.63 -0.51    -0.577 OA
DOCKED: ATOM     11  O   UNL d   1       7.596 -13.954  11.103 -0.44 -1.11    -0.577 OA
DOCKED: ATOM     12  O   UNL d   1       9.332 -13.088  12.757 -0.03 -0.70    -0.638 OA
DOCKED: ENDBRANCH   8   9
DOCKED: ENDBRANCH   7   8
DOCKED: ENDBRANCH   1   7
DOCKED: BRANCH   1  13
DOCKED: ATOM     13  C   UNL d   1       7.462 -17.157  14.762 -0.07 +0.07    +0.073 C 
DOCKED: ATOM     14  O   UNL d   1       7.263 -17.519  15.974 +0.03 -0.37    -0.547 OA
DOCKED: ATOM     15  O   UNL d   1       8.618 -17.067  14.211 -0.28 -0.88    -0.547 OA
DOCKED: ENDBRANCH   1  13
DOCKED: TORSDOF 6
DOCKED: TER
DOCKED: ENDMDL
________________________________________________________________________________


	BEGINNING GENETIC ALGORITHM DOCKING 4 of 100
Run: 4 Seed: 2010104868 1864354434 [ Run 4 of 100 GA/GALS ]
Beginning LAMARCKIAN GENETIC ALGORITHM (LGA), with a maximum of 25000000 energy evaluations.

Final-Value: -6.760


	FINAL GENETIC ALGORITHM DOCKED STATE
	_______________________________________________


Detailed state:  trans 9.628 12.111 36.240 quatxyzw 0.703581 -0.462782 -0.116931 -0.526435 center 0.015 0.083 0.031 ntor 6 32.8063 -53.5503 -31.4344 10.0155 5.7834 40.5701
State:	  9.628  12.111  36.240   0.828 -0.544 -0.138 -116.470     32.81  -53.55  -31.43   10.02    5.78   40.57

DOCKED: MODEL        4
DOCKED: USER    Run = 4
DOCKED: USER    DPF = D:/Protein_go_brrr/autodock/final/1A3N/2_3_BPG/dock.dpf
DOCKED: USER  
DOCKED: USER    Estimated Free Energy of Binding    =   -7.05 kcal/mol  [=(1)+(2)+(3)-(4)]
DOCKED: USER    Estimated Inhibition Constant, Ki   =    6.85 uM (micromolar)  [Temperature = 298.15 K]
DOCKED: USER    
DOCKED: USER    (1) Final Intermolecular Energy     =   -8.83 kcal/mol
DOCKED: USER        vdW + Hbond + desolv Energy     =   -2.07 kcal/mol
DOCKED: USER        Electrostatic Energy            =   -6.77 kcal/mol
DOCKED: USER    (2) Final Total Internal Energy     =   +2.07 kcal/mol
DOCKED: USER    (3) Torsional Free Energy           =   +1.79 kcal/mol
DOCKED: USER    (4) Unbound System's Energy  [=(2)] =   +2.07 kcal/mol
DOCKED: USER    
DOCKED: USER    
DOCKED: USER    NEWDPF move 2_3_BPG_opt.pdbqt
DOCKED: USER    NEWDPF about 0.015000 0.083000 0.031000
DOCKED: USER    NEWDPF tran0 9.628147 12.111155 36.240056
DOCKED: USER    NEWDPF quaternion0 0.703581 -0.462782 -0.116931 -0.526435
DOCKED: USER    NEWDPF axisangle0 0.827532 -0.544312 -0.137531 -116.470193
DOCKED: USER    NEWDPF quat0 0.827532 -0.544312 -0.137531 -116.470193
DOCKED: USER    NEWDPF dihe0 32.81 -53.55 -31.43 10.02 5.78 40.57 
DOCKED: USER  keepresnum = 1 
DOCKED: USER  
DOCKED: REMARK  6 active torsions:
DOCKED: REMARK  status: ('A' for Active; 'I' for Inactive)
DOCKED: REMARK    1  A    between atoms: P_1  and  O_3 
DOCKED: REMARK    2  A    between atoms: P_2  and  O_4 
DOCKED: REMARK    3  A    between atoms: O_3  and  C_13 
DOCKED: REMARK    4  A    between atoms: O_4  and  C_14 
DOCKED: REMARK    5  A    between atoms: C_13  and  C_14 
DOCKED: REMARK    6  A    between atoms: C_13  and  C_15 
DOCKED: USER                              x       y       z     vdW  Elec       q    Type
DOCKED: USER                           _______ _______ _______ _____ _____    ______ ____
DOCKED: ROOT
DOCKED: ATOM      1  C   UNL d   1       9.413  12.512  35.747 -0.10 +0.16    +0.193 C 
DOCKED: ENDROOT
DOCKED: BRANCH   1   2
DOCKED: ATOM      2  O   UNL d   1       8.839  13.717  36.355 -0.01 -0.28    -0.356 OA
DOCKED: BRANCH   2   3
DOCKED: ATOM      3  P   UNL d   1       7.292  14.210  36.096 +0.19 -0.02    -0.014 P 
DOCKED: ATOM      4  O   UNL d   1       6.671  14.273  37.501 +0.00 -0.83    -0.577 OA
DOCKED: ATOM      5  O   UNL d   1       6.617  13.147  35.232 -0.14 -0.88    -0.577 OA
DOCKED: ATOM      6  O   UNL d   1       7.338  15.586  35.442 -0.30 -1.14    -0.638 OA
DOCKED: ENDBRANCH   2   3
DOCKED: ENDBRANCH   1   2
DOCKED: BRANCH   1   7
DOCKED: ATOM      7  C   UNL d   1      10.178  11.702  36.858 -0.12 +0.19    +0.201 C 
DOCKED: BRANCH   7   8
DOCKED: ATOM      8  O   UNL d   1      11.161  10.755  36.383 -0.14 -0.60    -0.364 OA
DOCKED: BRANCH   8   9
DOCKED: ATOM      9  P   UNL d   1      11.869   9.695  37.438 -0.07 -0.02    -0.015 P 
DOCKED: ATOM     10  O   UNL d   1      12.211   8.461  36.594 -0.06 -0.58    -0.577 OA
DOCKED: ATOM     11  O   UNL d   1      10.833   9.381  38.517 -0.05 -0.33    -0.577 OA
DOCKED: ATOM     12  O   UNL d   1      13.120  10.377  37.991 -0.49 -1.19    -0.638 OA
DOCKED: ENDBRANCH   8   9
DOCKED: ENDBRANCH   7   8
DOCKED: ENDBRANCH   1   7
DOCKED: BRANCH   1  13
DOCKED: ATOM     13  C   UNL d   1      10.436  12.910  34.619 -0.22 +0.07    +0.073 C 
DOCKED: ATOM     14  O   UNL d   1      11.651  13.145  34.951 -0.50 -0.94    -0.547 OA
DOCKED: ATOM     15  O   UNL d   1      10.000  12.915  33.412 -0.06 -0.39    -0.547 OA
DOCKED: ENDBRANCH   1  13
DOCKED: TORSDOF 6
DOCKED: TER
DOCKED: ENDMDL
________________________________________________________________________________


	BEGINNING GENETIC ALGORITHM DOCKING 5 of 100
Run: 5 Seed: 1651297314 1842289705 [ Run 5 of 100 GA/GALS ]
Beginning LAMARCKIAN GENETIC ALGORITHM (LGA), with a maximum of 25000000 energy evaluations.

Final-Value: -7.354


	FINAL GENETIC ALGORITHM DOCKED STATE
	_______________________________________________


Detailed state:  trans -6.421 11.761 36.150 quatxyzw -0.687557 0.589655 -0.402316 0.133094 center 0.015 0.083 0.031 ntor 6 -55.3887 127.3189 3.4643 32.5964 -26.1547 -128.2229
State:	 -6.421  11.761  36.150  -0.694  0.595 -0.406 164.703    -55.39  127.32    3.46   32.60  -26.15 -128.22

DOCKED: MODEL        5
DOCKED: USER    Run = 5
DOCKED: USER    DPF = D:/Protein_go_brrr/autodock/final/1A3N/2_3_BPG/dock.dpf
DOCKED: USER  
DOCKED: USER    Estimated Free Energy of Binding    =   -7.83 kcal/mol  [=(1)+(2)+(3)-(4)]
DOCKED: USER    Estimated Inhibition Constant, Ki   =    1.83 uM (micromolar)  [Temperature = 298.15 K]
DOCKED: USER    
DOCKED: USER    (1) Final Intermolecular Energy     =   -9.62 kcal/mol
DOCKED: USER        vdW + Hbond + desolv Energy     =   -3.37 kcal/mol
DOCKED: USER        Electrostatic Energy            =   -6.25 kcal/mol
DOCKED: USER    (2) Final Total Internal Energy     =   +2.26 kcal/mol
DOCKED: USER    (3) Torsional Free Energy           =   +1.79 kcal/mol
DOCKED: USER    (4) Unbound System's Energy  [=(2)] =   +2.26 kcal/mol
DOCKED: USER    
DOCKED: USER    
DOCKED: USER    NEWDPF move 2_3_BPG_opt.pdbqt
DOCKED: USER    NEWDPF about 0.015000 0.083000 0.031000
DOCKED: USER    NEWDPF tran0 -6.421395 11.761398 36.149592
DOCKED: USER    NEWDPF quaternion0 -0.687557 0.589655 -0.402316 0.133094
DOCKED: USER    NEWDPF axisangle0 -0.693729 0.594948 -0.405927 164.703103
DOCKED: USER    NEWDPF quat0 -0.693729 0.594948 -0.405927 164.703103
DOCKED: USER    NEWDPF dihe0 -55.39 127.32 3.46 32.60 -26.15 -128.22 
DOCKED: USER  keepresnum = 1 
DOCKED: USER  
DOCKED: REMARK  6 active torsions:
DOCKED: REMARK  status: ('A' for Active; 'I' for Inactive)
DOCKED: REMARK    1  A    between atoms: P_1  and  O_3 
DOCKED: REMARK    2  A    between atoms: P_2  and  O_4 
DOCKED: REMARK    3  A    between atoms: O_3  and  C_13 
DOCKED: REMARK    4  A    between atoms: O_4  and  C_14 
DOCKED: REMARK    5  A    between atoms: C_13  and  C_14 
DOCKED: REMARK    6  A    between atoms: C_13  and  C_15 
DOCKED: USER                              x       y       z     vdW  Elec       q    Type
DOCKED: USER                           _______ _______ _______ _____ _____    ______ ____
DOCKED: ROOT
DOCKED: ATOM      1  C   UNL d   1      -6.087  12.197  35.765 -0.21 +0.21    +0.193 C 
DOCKED: ENDROOT
DOCKED: BRANCH   1   2
DOCKED: ATOM      2  O   UNL d   1      -7.054  13.144  35.199 -0.57 -0.57    -0.356 OA
DOCKED: BRANCH   2   3
DOCKED: ATOM      3  P   UNL d   1      -7.648  13.022  33.670 -0.20 -0.02    -0.014 P 
DOCKED: ATOM      4  O   UNL d   1      -6.400  13.028  32.773 -0.27 -0.77    -0.577 OA
DOCKED: ATOM      5  O   UNL d   1      -8.522  14.250  33.425 -0.13 -0.71    -0.577 OA
DOCKED: ATOM      6  O   UNL d   1      -8.407  11.704  33.563 -0.42 -0.94    -0.638 OA
DOCKED: ENDBRANCH   2   3
DOCKED: ENDBRANCH   1   2
DOCKED: BRANCH   1   7
DOCKED: ATOM      7  C   UNL d   1      -6.800  11.358  36.888 -0.18 +0.17    +0.201 C 
DOCKED: BRANCH   7   8
DOCKED: ATOM      8  O   UNL d   1      -8.212  11.118  36.696 -0.12 -0.42    -0.364 OA
DOCKED: BRANCH   8   9
DOCKED: ATOM      9  P   UNL d   1      -8.943   9.833  37.437 -0.01 -0.02    -0.015 P 
DOCKED: ATOM     10  O   UNL d   1     -10.376   9.820  36.891 -0.23 -0.76    -0.577 OA
DOCKED: ATOM     11  O   UNL d   1      -8.908  10.106  38.941 +0.00 -0.28    -0.577 OA
DOCKED: ATOM     12  O   UNL d   1      -8.166   8.579  37.038 -0.38 -1.04    -0.638 OA
DOCKED: ENDBRANCH   8   9
DOCKED: ENDBRANCH   7   8
DOCKED: ENDBRANCH   1   7
DOCKED: BRANCH   1  13
DOCKED: ATOM     13  C   UNL d   1      -4.880  12.977  36.407 -0.32 +0.07    +0.073 C 
DOCKED: ATOM     14  O   UNL d   1      -4.871  14.256  36.333 -0.20 -0.87    -0.547 OA
DOCKED: ATOM     15  O   UNL d   1      -4.000  12.280  37.030 -0.13 -0.28    -0.547 OA
DOCKED: ENDBRANCH   1  13
DOCKED: TORSDOF 6
DOCKED: TER
DOCKED: ENDMDL
________________________________________________________________________________


	BEGINNING GENETIC ALGORITHM DOCKING 6 of 100
Run: 6 Seed: 901207239 457582175 [ Run 6 of 100 GA/GALS ]
Beginning LAMARCKIAN GENETIC ALGORITHM (LGA), with a maximum of 25000000 energy evaluations.

Final-Value: -7.138


	FINAL GENETIC ALGORITHM DOCKED STATE
	_______________________________________________


Detailed state:  trans -7.515 12.260 36.348 quatxyzw -0.242069 0.510362 0.590065 0.576850 center 0.015 0.083 0.031 ntor 6 121.4116 1.7768 -102.3141 32.2337 3.0591 10.1625
State:	 -7.515  12.260  36.348  -0.296  0.625  0.722 109.541    121.41    1.78 -102.31   32.23    3.06   10.16

DOCKED: MODEL        6
DOCKED: USER    Run = 6
DOCKED: USER    DPF = D:/Protein_go_brrr/autodock/final/1A3N/2_3_BPG/dock.dpf
DOCKED: USER  
DOCKED: USER    Estimated Free Energy of Binding    =   -7.37 kcal/mol  [=(1)+(2)+(3)-(4)]
DOCKED: USER    Estimated Inhibition Constant, Ki   =    3.95 uM (micromolar)  [Temperature = 298.15 K]
DOCKED: USER    
DOCKED: USER    (1) Final Intermolecular Energy     =   -9.16 kcal/mol
DOCKED: USER        vdW + Hbond + desolv Energy     =   -3.00 kcal/mol
DOCKED: USER        Electrostatic Energy            =   -6.16 kcal/mol
DOCKED: USER    (2) Final Total Internal Energy     =   +2.02 kcal/mol
DOCKED: USER    (3) Torsional Free Energy           =   +1.79 kcal/mol
DOCKED: USER    (4) Unbound System's Energy  [=(2)] =   +2.02 kcal/mol
DOCKED: USER    
DOCKED: USER    
DOCKED: USER    NEWDPF move 2_3_BPG_opt.pdbqt
DOCKED: USER    NEWDPF about 0.015000 0.083000 0.031000
DOCKED: USER    NEWDPF tran0 -7.514836 12.259507 36.347949
DOCKED: USER    NEWDPF quaternion0 -0.242069 0.510362 0.590065 0.576850
DOCKED: USER    NEWDPF axisangle0 -0.296345 0.624793 0.722367 109.541476
DOCKED: USER    NEWDPF quat0 -0.296345 0.624793 0.722367 109.541476
DOCKED: USER    NEWDPF dihe0 121.41 1.78 -102.31 32.23 3.06 10.16 
DOCKED: USER  keepresnum = 1 
DOCKED: USER  
DOCKED: REMARK  6 active torsions:
DOCKED: REMARK  status: ('A' for Active; 'I' for Inactive)
DOCKED: REMARK    1  A    between atoms: P_1  and  O_3 
DOCKED: REMARK    2  A    between atoms: P_2  and  O_4 
DOCKED: REMARK    3  A    between atoms: O_3  and  C_13 
DOCKED: REMARK    4  A    between atoms: O_4  and  C_14 
DOCKED: REMARK    5  A    between atoms: C_13  and  C_14 
DOCKED: REMARK    6  A    between atoms: C_13  and  C_15 
DOCKED: USER                              x       y       z     vdW  Elec       q    Type
DOCKED: USER                           _______ _______ _______ _____ _____    ______ ____
DOCKED: ROOT
DOCKED: ATOM      1  C   UNL d   1      -7.604  12.775  35.929 -0.14 +0.21    +0.193 C 
DOCKED: ENDROOT
DOCKED: BRANCH   1   2
DOCKED: ATOM      2  O   UNL d   1      -6.468  13.690  36.081 -0.16 -0.57    -0.356 OA
DOCKED: BRANCH   2   3
DOCKED: ATOM      3  P   UNL d   1      -6.533  15.069  36.975 +0.10 -0.02    -0.014 P 
DOCKED: ATOM      4  O   UNL d   1      -5.113  15.652  36.885 -0.44 -0.91    -0.577 OA
DOCKED: ATOM      5  O   UNL d   1      -6.884  14.666  38.405 +0.02 -0.33    -0.577 OA
DOCKED: ATOM      6  O   UNL d   1      -7.560  15.997  36.335 +0.03 -0.89    -0.638 OA
DOCKED: ENDBRANCH   2   3
DOCKED: ENDBRANCH   1   2
DOCKED: BRANCH   1   7
DOCKED: ATOM      7  C   UNL d   1      -7.275  11.432  36.678 -0.14 +0.19    +0.201 C 
DOCKED: BRANCH   7   8
DOCKED: ATOM      8  O   UNL d   1      -8.374  10.507  36.827 -0.27 -0.50    -0.364 OA
DOCKED: BRANCH   8   9
DOCKED: ATOM      9  P   UNL d   1      -8.186   9.132  37.728 -0.14 -0.02    -0.015 P 
DOCKED: ATOM     10  O   UNL d   1      -8.337   9.585  39.185 -0.00 -0.26    -0.577 OA
DOCKED: ATOM     11  O   UNL d   1      -6.783   8.598  37.439 -0.12 -0.44    -0.577 OA
DOCKED: ATOM     12  O   UNL d   1      -9.292   8.164  37.310 -0.45 -0.88    -0.638 OA
DOCKED: ENDBRANCH   8   9
DOCKED: ENDBRANCH   7   8
DOCKED: ENDBRANCH   1   7
DOCKED: BRANCH   1  13
DOCKED: ATOM     13  C   UNL d   1      -7.841  12.458  34.405 -0.22 +0.10    +0.073 C 
DOCKED: ATOM     14  O   UNL d   1      -8.736  11.597  34.092 -0.49 -0.97    -0.547 OA
DOCKED: ATOM     15  O   UNL d   1      -7.157  13.136  33.556 -0.57 -0.89    -0.547 OA
DOCKED: ENDBRANCH   1  13
DOCKED: TORSDOF 6
DOCKED: TER
DOCKED: ENDMDL
________________________________________________________________________________


	BEGINNING GENETIC ALGORITHM DOCKING 7 of 100
Run: 7 Seed: 424182075 2098058316 [ Run 7 of 100 GA/GALS ]
Beginning LAMARCKIAN GENETIC ALGORITHM (LGA), with a maximum of 25000000 energy evaluations.

Final-Value: -8.163


	FINAL GENETIC ALGORITHM DOCKED STATE
	_______________________________________________


Detailed state:  trans 6.643 -14.902 13.580 quatxyzw 0.126755 -0.259344 -0.957052 0.026937 center 0.015 0.083 0.031 ntor 6 -15.9068 60.1260 -154.8180 -25.3210 38.1026 -166.9545
State:	  6.643 -14.902  13.580   0.127 -0.259 -0.957 176.913    -15.91   60.13 -154.82  -25.32   38.10 -166.95

DOCKED: MODEL        7
DOCKED: USER    Run = 7
DOCKED: USER    DPF = D:/Protein_go_brrr/autodock/final/1A3N/2_3_BPG/dock.dpf
DOCKED: USER  
DOCKED: USER    Estimated Free Energy of Binding    =   -8.77 kcal/mol  [=(1)+(2)+(3)-(4)]
DOCKED: USER    Estimated Inhibition Constant, Ki   =  373.35 nM (nanomolar)  [Temperature = 298.15 K]
DOCKED: USER    
DOCKED: USER    (1) Final Intermolecular Energy     =  -10.56 kcal/mol
DOCKED: USER        vdW + Hbond + desolv Energy     =   -4.00 kcal/mol
DOCKED: USER        Electrostatic Energy            =   -6.55 kcal/mol
DOCKED: USER    (2) Final Total Internal Energy     =   +2.40 kcal/mol
DOCKED: USER    (3) Torsional Free Energy           =   +1.79 kcal/mol
DOCKED: USER    (4) Unbound System's Energy  [=(2)] =   +2.40 kcal/mol
DOCKED: USER    
DOCKED: USER    
DOCKED: USER    NEWDPF move 2_3_BPG_opt.pdbqt
DOCKED: USER    NEWDPF about 0.015000 0.083000 0.031000
DOCKED: USER    NEWDPF tran0 6.643303 -14.901869 13.579979
DOCKED: USER    NEWDPF quaternion0 0.126755 -0.259344 -0.957052 0.026937
DOCKED: USER    NEWDPF axisangle0 0.126801 -0.259438 -0.957399 176.912838
DOCKED: USER    NEWDPF quat0 0.126801 -0.259438 -0.957399 176.912838
DOCKED: USER    NEWDPF dihe0 -15.91 60.13 -154.82 -25.32 38.10 -166.95 
DOCKED: USER  keepresnum = 1 
DOCKED: USER  
DOCKED: REMARK  6 active torsions:
DOCKED: REMARK  status: ('A' for Active; 'I' for Inactive)
DOCKED: REMARK    1  A    between atoms: P_1  and  O_3 
DOCKED: REMARK    2  A    between atoms: P_2  and  O_4 
DOCKED: REMARK    3  A    between atoms: O_3  and  C_13 
DOCKED: REMARK    4  A    between atoms: O_4  and  C_14 
DOCKED: REMARK    5  A    between atoms: C_13  and  C_14 
DOCKED: REMARK    6  A    between atoms: C_13  and  C_15 
DOCKED: USER                              x       y       z     vdW  Elec       q    Type
DOCKED: USER                           _______ _______ _______ _____ _____    ______ ____
DOCKED: ROOT
DOCKED: ATOM      1  C   UNL d   1       7.225 -14.577  13.655 -0.10 +0.24    +0.193 C 
DOCKED: ENDROOT
DOCKED: BRANCH   1   2
DOCKED: ATOM      2  O   UNL d   1       8.293 -15.575  13.779 -0.16 -0.77    -0.356 OA
DOCKED: BRANCH   2   3
DOCKED: ATOM      3  P   UNL d   1       9.743 -15.262  14.489 -0.05 -0.02    -0.014 P 
DOCKED: ATOM      4  O   UNL d   1      10.781 -15.615  13.411 -0.23 -0.86    -0.577 OA
DOCKED: ATOM      5  O   UNL d   1       9.860 -16.180  15.704 -0.03 -0.68    -0.577 OA
DOCKED: ATOM      6  O   UNL d   1       9.785 -13.779  14.841 +0.04 -0.53    -0.638 OA
DOCKED: ENDBRANCH   2   3
DOCKED: ENDBRANCH   1   2
DOCKED: BRANCH   1   7
DOCKED: ATOM      7  C   UNL d   1       5.908 -15.302  13.190 -0.15 +0.21    +0.201 C 
DOCKED: BRANCH   7   8
DOCKED: ATOM      8  O   UNL d   1       6.049 -16.694  12.829 -0.19 -0.53    -0.364 OA
DOCKED: BRANCH   8   9
DOCKED: ATOM      9  P   UNL d   1       5.253 -17.292  11.507 -0.53 -0.02    -0.015 P 
DOCKED: ATOM     10  O   UNL d   1       5.082 -16.092  10.568 -0.17 -0.66    -0.577 OA
DOCKED: ATOM     11  O   UNL d   1       3.909 -17.827  12.000 -0.52 -0.36    -0.577 OA
DOCKED: ATOM     12  O   UNL d   1       6.142 -18.375  10.898 -0.87 -0.99    -0.638 OA
DOCKED: ENDBRANCH   8   9
DOCKED: ENDBRANCH   7   8
DOCKED: ENDBRANCH   1   7
DOCKED: BRANCH   1  13
DOCKED: ATOM     13  C   UNL d   1       7.616 -13.500  12.576 -0.29 +0.09    +0.073 C 
DOCKED: ATOM     14  O   UNL d   1       8.238 -13.886  11.524 -0.16 -1.13    -0.547 OA
DOCKED: ATOM     15  O   UNL d   1       7.227 -12.295  12.788 -0.58 -0.54    -0.547 OA
DOCKED: ENDBRANCH   1  13
DOCKED: TORSDOF 6
DOCKED: TER
DOCKED: ENDMDL
________________________________________________________________________________


	BEGINNING GENETIC ALGORITHM DOCKING 8 of 100
Run: 8 Seed: 758904778 1325873049 [ Run 8 of 100 GA/GALS ]
Beginning LAMARCKIAN GENETIC ALGORITHM (LGA), with a maximum of 25000000 energy evaluations.

Final-Value: -7.170


	FINAL GENETIC ALGORITHM DOCKED STATE
	_______________________________________________


Detailed state:  trans 8.051 12.323 34.848 quatxyzw 0.226316 -0.141658 0.493265 0.827891 center 0.015 0.083 0.031 ntor 6 132.7699 12.3111 66.6410 23.0901 74.8901 5.6724
State:	  8.051  12.323  34.848   0.403 -0.253  0.879 68.235    132.77   12.31   66.64   23.09   74.89    5.67

DOCKED: MODEL        8
DOCKED: USER    Run = 8
DOCKED: USER    DPF = D:/Protein_go_brrr/autodock/final/1A3N/2_3_BPG/dock.dpf
DOCKED: USER  
DOCKED: USER    Estimated Free Energy of Binding    =   -7.64 kcal/mol  [=(1)+(2)+(3)-(4)]
DOCKED: USER    Estimated Inhibition Constant, Ki   =    2.51 uM (micromolar)  [Temperature = 298.15 K]
DOCKED: USER    
DOCKED: USER    (1) Final Intermolecular Energy     =   -9.43 kcal/mol
DOCKED: USER        vdW + Hbond + desolv Energy     =   -3.20 kcal/mol
DOCKED: USER        Electrostatic Energy            =   -6.23 kcal/mol
DOCKED: USER    (2) Final Total Internal Energy     =   +2.26 kcal/mol
DOCKED: USER    (3) Torsional Free Energy           =   +1.79 kcal/mol
DOCKED: USER    (4) Unbound System's Energy  [=(2)] =   +2.26 kcal/mol
DOCKED: USER    
DOCKED: USER    
DOCKED: USER    NEWDPF move 2_3_BPG_opt.pdbqt
DOCKED: USER    NEWDPF about 0.015000 0.083000 0.031000
DOCKED: USER    NEWDPF tran0 8.051104 12.322903 34.848215
DOCKED: USER    NEWDPF quaternion0 0.226316 -0.141658 0.493265 0.827891
DOCKED: USER    NEWDPF axisangle0 0.403496 -0.252560 0.879434 68.234602
DOCKED: USER    NEWDPF quat0 0.403496 -0.252560 0.879434 68.234602
DOCKED: USER    NEWDPF dihe0 132.77 12.31 66.64 23.09 74.89 5.67 
DOCKED: USER  keepresnum = 1 
DOCKED: USER  
DOCKED: REMARK  6 active torsions:
DOCKED: REMARK  status: ('A' for Active; 'I' for Inactive)
DOCKED: REMARK    1  A    between atoms: P_1  and  O_3 
DOCKED: REMARK    2  A    between atoms: P_2  and  O_4 
DOCKED: REMARK    3  A    between atoms: O_3  and  C_13 
DOCKED: REMARK    4  A    between atoms: O_4  and  C_14 
DOCKED: REMARK    5  A    between atoms: C_13  and  C_14 
DOCKED: REMARK    6  A    between atoms: C_13  and  C_15 
DOCKED: USER                              x       y       z     vdW  Elec       q    Type
DOCKED: USER                           _______ _______ _______ _____ _____    ______ ____
DOCKED: ROOT
DOCKED: ATOM      1  C   UNL d   1       7.582  12.733  35.095 -0.13 +0.17    +0.193 C 
DOCKED: ENDROOT
DOCKED: BRANCH   1   2
DOCKED: ATOM      2  O   UNL d   1       7.391  13.834  34.145 -0.11 -0.38    -0.356 OA
DOCKED: BRANCH   2   3
DOCKED: ATOM      3  P   UNL d   1       7.877  15.377  34.442 -0.19 -0.02    -0.014 P 
DOCKED: ATOM      4  O   UNL d   1       7.285  16.195  33.284 -0.08 -0.50    -0.577 OA
DOCKED: ATOM      5  O   UNL d   1       9.404  15.384  34.412 -0.01 -0.36    -0.577 OA
DOCKED: ATOM      6  O   UNL d   1       7.293  15.805  35.785 -0.36 -1.17    -0.638 OA
DOCKED: ENDBRANCH   2   3
DOCKED: ENDBRANCH   1   2
DOCKED: BRANCH   1   7
DOCKED: ATOM      7  C   UNL d   1       8.455  11.619  34.408 -0.17 +0.13    +0.201 C 
DOCKED: BRANCH   7   8
DOCKED: ATOM      8  O   UNL d   1       9.017  10.624  35.292 -0.45 -0.28    -0.364 OA
DOCKED: BRANCH   8   9
DOCKED: ATOM      9  P   UNL d   1      10.610  10.710  35.731 -0.24 -0.02    -0.015 P 
DOCKED: ATOM     10  O   UNL d   1      11.279   9.514  35.043 -0.03 -0.74    -0.577 OA
DOCKED: ATOM     11  O   UNL d   1      10.659  10.593  37.255 -0.05 -0.57    -0.577 OA
DOCKED: ATOM     12  O   UNL d   1      11.149  12.044  35.217 -0.48 -1.29    -0.638 OA
DOCKED: ENDBRANCH   8   9
DOCKED: ENDBRANCH   7   8
DOCKED: ENDBRANCH   1   7
DOCKED: BRANCH   1  13
DOCKED: ATOM     13  C   UNL d   1       6.189  12.111  35.487 -0.26 +0.08    +0.073 C 
DOCKED: ATOM     14  O   UNL d   1       6.155  11.219  36.406 -0.03 -0.38    -0.547 OA
DOCKED: ATOM     15  O   UNL d   1       5.152  12.589  34.900 -0.60 -0.91    -0.547 OA
DOCKED: ENDBRANCH   1  13
DOCKED: TORSDOF 6
DOCKED: TER
DOCKED: ENDMDL
________________________________________________________________________________


	BEGINNING GENETIC ALGORITHM DOCKING 9 of 100
Run: 9 Seed: 1205371893 1587725338 [ Run 9 of 100 GA/GALS ]
Beginning LAMARCKIAN GENETIC ALGORITHM (LGA), with a maximum of 25000000 energy evaluations.

Final-Value: -7.129


	FINAL GENETIC ALGORITHM DOCKED STATE
	_______________________________________________


Detailed state:  trans 7.590 12.007 35.551 quatxyzw -0.370192 -0.053405 0.413628 0.830071 center 0.015 0.083 0.031 ntor 6 86.1051 -133.3373 -177.0640 179.8131 24.8863 -30.6302
State:	  7.590  12.007  35.551  -0.664 -0.096  0.742 67.788     86.11 -133.34 -177.06  179.81   24.89  -30.63

DOCKED: MODEL        9
DOCKED: USER    Run = 9
DOCKED: USER    DPF = D:/Protein_go_brrr/autodock/final/1A3N/2_3_BPG/dock.dpf
DOCKED: USER  
DOCKED: USER    Estimated Free Energy of Binding    =   -7.77 kcal/mol  [=(1)+(2)+(3)-(4)]
DOCKED: USER    Estimated Inhibition Constant, Ki   =    2.01 uM (micromolar)  [Temperature = 298.15 K]
DOCKED: USER    
DOCKED: USER    (1) Final Intermolecular Energy     =   -9.56 kcal/mol
DOCKED: USER        vdW + Hbond + desolv Energy     =   -3.38 kcal/mol
DOCKED: USER        Electrostatic Energy            =   -6.18 kcal/mol
DOCKED: USER    (2) Final Total Internal Energy     =   +2.43 kcal/mol
DOCKED: USER    (3) Torsional Free Energy           =   +1.79 kcal/mol
DOCKED: USER    (4) Unbound System's Energy  [=(2)] =   +2.43 kcal/mol
DOCKED: USER    
DOCKED: USER    
DOCKED: USER    NEWDPF move 2_3_BPG_opt.pdbqt
DOCKED: USER    NEWDPF about 0.015000 0.083000 0.031000
DOCKED: USER    NEWDPF tran0 7.589545 12.007349 35.551150
DOCKED: USER    NEWDPF quaternion0 -0.370192 -0.053405 0.413628 0.830071
DOCKED: USER    NEWDPF axisangle0 -0.663834 -0.095767 0.741723 67.787895
DOCKED: USER    NEWDPF quat0 -0.663834 -0.095767 0.741723 67.787895
DOCKED: USER    NEWDPF dihe0 86.11 -133.34 -177.06 179.81 24.89 -30.63 
DOCKED: USER  keepresnum = 1 
DOCKED: USER  
DOCKED: REMARK  6 active torsions:
DOCKED: REMARK  status: ('A' for Active; 'I' for Inactive)
DOCKED: REMARK    1  A    between atoms: P_1  and  O_3 
DOCKED: REMARK    2  A    between atoms: P_2  and  O_4 
DOCKED: REMARK    3  A    between atoms: O_3  and  C_13 
DOCKED: REMARK    4  A    between atoms: O_4  and  C_14 
DOCKED: REMARK    5  A    between atoms: C_13  and  C_14 
DOCKED: REMARK    6  A    between atoms: C_13  and  C_15 
DOCKED: USER                              x       y       z     vdW  Elec       q    Type
DOCKED: USER                           _______ _______ _______ _____ _____    ______ ____
DOCKED: ROOT
DOCKED: ATOM      1  C   UNL d   1       6.961  12.206  35.672 -0.16 +0.18    +0.193 C 
DOCKED: ENDROOT
DOCKED: BRANCH   1   2
DOCKED: ATOM      2  O   UNL d   1       6.995  13.615  36.078 -0.01 -0.53    -0.356 OA
DOCKED: BRANCH   2   3
DOCKED: ATOM      3  P   UNL d   1       7.845  14.767  35.269 -0.13 -0.02    -0.014 P 
DOCKED: ATOM      4  O   UNL d   1       7.579  14.468  33.786 -0.03 -0.57    -0.577 OA
DOCKED: ATOM      5  O   UNL d   1       9.318  14.578  35.626 +0.01 -0.43    -0.577 OA
DOCKED: ATOM      6  O   UNL d   1       7.292  16.130  35.673 -0.47 -1.10    -0.638 OA
DOCKED: ENDBRANCH   2   3
DOCKED: ENDBRANCH   1   2
DOCKED: BRANCH   1   7
DOCKED: ATOM      7  C   UNL d   1       8.375  11.808  35.109 -0.14 +0.14    +0.201 C 
DOCKED: BRANCH   7   8
DOCKED: ATOM      8  O   UNL d   1       8.965  10.616  35.672 -0.49 -0.28    -0.364 OA
DOCKED: BRANCH   8   9
DOCKED: ATOM      9  P   UNL d   1      10.610  10.452  35.729 -0.28 -0.02    -0.015 P 
DOCKED: ATOM     10  O   UNL d   1      11.162  11.791  35.227 -0.41 -1.20    -0.577 OA
DOCKED: ATOM     11  O   UNL d   1      10.976   9.298  34.797 -0.05 -0.59    -0.577 OA
DOCKED: ATOM     12  O   UNL d   1      10.987  10.186  37.186 -0.05 -0.69    -0.638 OA
DOCKED: ENDBRANCH   8   9
DOCKED: ENDBRANCH   7   8
DOCKED: ENDBRANCH   1   7
DOCKED: BRANCH   1  13
DOCKED: ATOM     13  C   UNL d   1       5.889  11.998  34.537 -0.37 +0.07    +0.073 C 
DOCKED: ATOM     14  O   UNL d   1       6.172  11.212  33.566 -0.13 -0.26    -0.547 OA
DOCKED: ATOM     15  O   UNL d   1       4.758  12.586  34.689 -0.68 -0.88    -0.547 OA
DOCKED: ENDBRANCH   1  13
DOCKED: TORSDOF 6
DOCKED: TER
DOCKED: ENDMDL
________________________________________________________________________________


	BEGINNING GENETIC ALGORITHM DOCKING 10 of 100
Run: 10 Seed: 1924929166 1322053194 [ Run 10 of 100 GA/GALS ]
Beginning LAMARCKIAN GENETIC ALGORITHM (LGA), with a maximum of 25000000 energy evaluations.

Final-Value: -8.141


	FINAL GENETIC ALGORITHM DOCKED STATE
	_______________________________________________


Detailed state:  trans 5.468 -17.689 12.252 quatxyzw -0.292479 0.103255 -0.722940 -0.617375 center 0.015 0.083 0.031 ntor 6 20.3444 -138.3861 -164.1950 -19.0587 -13.4487 -176.7744
State:	  5.468 -17.689  12.252  -0.372  0.131 -0.919 -103.751     20.34 -138.39 -164.19  -19.06  -13.45 -176.77

DOCKED: MODEL       10
DOCKED: USER    Run = 10
DOCKED: USER    DPF = D:/Protein_go_brrr/autodock/final/1A3N/2_3_BPG/dock.dpf
DOCKED: USER  
DOCKED: USER    Estimated Free Energy of Binding    =   -8.55 kcal/mol  [=(1)+(2)+(3)-(4)]
DOCKED: USER    Estimated Inhibition Constant, Ki   =  538.27 nM (nanomolar)  [Temperature = 298.15 K]
DOCKED: USER    
DOCKED: USER    (1) Final Intermolecular Energy     =  -10.34 kcal/mol
DOCKED: USER        vdW + Hbond + desolv Energy     =   -5.82 kcal/mol
DOCKED: USER        Electrostatic Energy            =   -4.52 kcal/mol
DOCKED: USER    (2) Final Total Internal Energy     =   +2.20 kcal/mol
DOCKED: USER    (3) Torsional Free Energy           =   +1.79 kcal/mol
DOCKED: USER    (4) Unbound System's Energy  [=(2)] =   +2.20 kcal/mol
DOCKED: USER    
DOCKED: USER    
DOCKED: USER    NEWDPF move 2_3_BPG_opt.pdbqt
DOCKED: USER    NEWDPF about 0.015000 0.083000 0.031000
DOCKED: USER    NEWDPF tran0 5.468401 -17.689434 12.251684
DOCKED: USER    NEWDPF quaternion0 -0.292479 0.103255 -0.722940 -0.617375
DOCKED: USER    NEWDPF axisangle0 -0.371795 0.131256 -0.918989 -103.750608
DOCKED: USER    NEWDPF quat0 -0.371795 0.131256 -0.918989 -103.750608
DOCKED: USER    NEWDPF dihe0 20.34 -138.39 -164.19 -19.06 -13.45 -176.77 
DOCKED: USER  keepresnum = 1 
DOCKED: USER  
DOCKED: REMARK  6 active torsions:
DOCKED: REMARK  status: ('A' for Active; 'I' for Inactive)
DOCKED: REMARK    1  A    between atoms: P_1  and  O_3 
DOCKED: REMARK    2  A    between atoms: P_2  and  O_4 
DOCKED: REMARK    3  A    between atoms: O_3  and  C_13 
DOCKED: REMARK    4  A    between atoms: O_4  and  C_14 
DOCKED: REMARK    5  A    between atoms: C_13  and  C_14 
DOCKED: REMARK    6  A    between atoms: C_13  and  C_15 
DOCKED: USER                              x       y       z     vdW  Elec       q    Type
DOCKED: USER                           _______ _______ _______ _____ _____    ______ ____
DOCKED: ROOT
DOCKED: ATOM      1  C   UNL d   1       5.299 -17.044  12.313 -0.30 +0.21    +0.193 C 
DOCKED: ENDROOT
DOCKED: BRANCH   1   2
DOCKED: ATOM      2  O   UNL d   1       5.679 -16.352  11.076 -0.51 -0.57    -0.356 OA
DOCKED: BRANCH   2   3
DOCKED: ATOM      3  P   UNL d   1       6.081 -14.758  11.020 -0.51 -0.02    -0.014 P 
DOCKED: ATOM      4  O   UNL d   1       6.868 -14.516  12.318 +0.02 -0.95    -0.577 OA
DOCKED: ATOM      5  O   UNL d   1       4.778 -13.963  10.997 +0.03 -0.34    -0.577 OA
DOCKED: ATOM      6  O   UNL d   1       6.952 -14.535   9.788 -0.58 -1.00    -0.638 OA
DOCKED: ENDBRANCH   2   3
DOCKED: ENDBRANCH   1   2
DOCKED: BRANCH   1   7
DOCKED: ATOM      7  C   UNL d   1       5.418 -18.595  12.081 -0.34 +0.18    +0.201 C 
DOCKED: BRANCH   7   8
DOCKED: ATOM      8  O   UNL d   1       5.469 -19.024  10.702 -0.75 -0.38    -0.364 OA
DOCKED: BRANCH   8   9
DOCKED: ATOM      9  P   UNL d   1       5.850 -20.591  10.334 -0.54 -0.01    -0.015 P 
DOCKED: ATOM     10  O   UNL d   1       5.628 -21.371  11.636 -0.08 -0.22    -0.577 OA
DOCKED: ATOM     11  O   UNL d   1       7.316 -20.605   9.903 -0.02 -0.45    -0.577 OA
DOCKED: ATOM     12  O   UNL d   1       4.896 -21.040   9.227 -1.03 -0.55    -0.638 OA
DOCKED: ENDBRANCH   8   9
DOCKED: ENDBRANCH   7   8
DOCKED: ENDBRANCH   1   7
DOCKED: BRANCH   1  13
DOCKED: ATOM     13  C   UNL d   1       3.808 -16.702  12.686 -0.43 +0.04    +0.073 C 
DOCKED: ATOM     14  O   UNL d   1       2.868 -17.239  12.000 -0.76 -0.29    -0.547 OA
DOCKED: ATOM     15  O   UNL d   1       3.621 -15.947  13.707 -0.03 -0.18    -0.547 OA
DOCKED: ENDBRANCH   1  13
DOCKED: TORSDOF 6
DOCKED: TER
DOCKED: ENDMDL
________________________________________________________________________________


	BEGINNING GENETIC ALGORITHM DOCKING 11 of 100
Run: 11 Seed: 199623258 1861767759 [ Run 11 of 100 GA/GALS ]
Beginning LAMARCKIAN GENETIC ALGORITHM (LGA), with a maximum of 25000000 energy evaluations.

Final-Value: -7.623


	FINAL GENETIC ALGORITHM DOCKED STATE
	_______________________________________________


Detailed state:  trans 5.490 -16.132 12.465 quatxyzw 0.665930 0.744517 -0.032793 -0.034010 center 0.015 0.083 0.031 ntor 6 -179.1791 -162.2618 5.9988 11.1564 -49.6561 -132.9260
State:	  5.490 -16.132  12.465   0.666  0.745 -0.033 -176.102   -179.18 -162.26    6.00   11.16  -49.66 -132.93

DOCKED: MODEL       11
DOCKED: USER    Run = 11
DOCKED: USER    DPF = D:/Protein_go_brrr/autodock/final/1A3N/2_3_BPG/dock.dpf
DOCKED: USER  
DOCKED: USER    Estimated Free Energy of Binding    =   -8.01 kcal/mol  [=(1)+(2)+(3)-(4)]
DOCKED: USER    Estimated Inhibition Constant, Ki   =    1.35 uM (micromolar)  [Temperature = 298.15 K]
DOCKED: USER    
DOCKED: USER    (1) Final Intermolecular Energy     =   -9.80 kcal/mol
DOCKED: USER        vdW + Hbond + desolv Energy     =   -3.84 kcal/mol
DOCKED: USER        Electrostatic Energy            =   -5.95 kcal/mol
DOCKED: USER    (2) Final Total Internal Energy     =   +2.17 kcal/mol
DOCKED: USER    (3) Torsional Free Energy           =   +1.79 kcal/mol
DOCKED: USER    (4) Unbound System's Energy  [=(2)] =   +2.17 kcal/mol
DOCKED: USER    
DOCKED: USER    
DOCKED: USER    NEWDPF move 2_3_BPG_opt.pdbqt
DOCKED: USER    NEWDPF about 0.015000 0.083000 0.031000
DOCKED: USER    NEWDPF tran0 5.490129 -16.131904 12.465490
DOCKED: USER    NEWDPF quaternion0 0.665930 0.744517 -0.032793 -0.034010
DOCKED: USER    NEWDPF axisangle0 0.666315 0.744948 -0.032812 -176.101934
DOCKED: USER    NEWDPF quat0 0.666315 0.744948 -0.032812 -176.101934
DOCKED: USER    NEWDPF dihe0 -179.18 -162.26 6.00 11.16 -49.66 -132.93 
DOCKED: USER  keepresnum = 1 
DOCKED: USER  
DOCKED: REMARK  6 active torsions:
DOCKED: REMARK  status: ('A' for Active; 'I' for Inactive)
DOCKED: REMARK    1  A    between atoms: P_1  and  O_3 
DOCKED: REMARK    2  A    between atoms: P_2  and  O_4 
DOCKED: REMARK    3  A    between atoms: O_3  and  C_13 
DOCKED: REMARK    4  A    between atoms: O_4  and  C_14 
DOCKED: REMARK    5  A    between atoms: C_13  and  C_14 
DOCKED: REMARK    6  A    between atoms: C_13  and  C_15 
DOCKED: USER                              x       y       z     vdW  Elec       q    Type
DOCKED: USER                           _______ _______ _______ _____ _____    ______ ____
DOCKED: ROOT
DOCKED: ATOM      1  C   UNL d   1       5.246 -16.755  12.429 -0.28 +0.20    +0.193 C 
DOCKED: ENDROOT
DOCKED: BRANCH   1   2
DOCKED: ATOM      2  O   UNL d   1       6.151 -17.645  13.166 -0.23 -0.42    -0.356 OA
DOCKED: BRANCH   2   3
DOCKED: ATOM      3  P   UNL d   1       6.908 -18.932  12.478 -0.19 -0.02    -0.014 P 
DOCKED: ATOM      4  O   UNL d   1       6.727 -18.721  10.967 -0.52 -0.96    -0.577 OA
DOCKED: ATOM      5  O   UNL d   1       6.188 -20.191  12.959 +0.00 -0.29    -0.577 OA
DOCKED: ATOM      6  O   UNL d   1       8.379 -18.883  12.878 +0.01 -0.93    -0.638 OA
DOCKED: ENDBRANCH   2   3
DOCKED: ENDBRANCH   1   2
DOCKED: BRANCH   1   7
DOCKED: ATOM      7  C   UNL d   1       5.637 -15.264  12.744 -0.22 +0.21    +0.201 C 
DOCKED: BRANCH   7   8
DOCKED: ATOM      8  O   UNL d   1       7.015 -15.039  13.114 -0.03 -0.60    -0.364 OA
DOCKED: BRANCH   8   9
DOCKED: ATOM      9  P   UNL d   1       7.868 -13.801  12.423 -0.05 -0.02    -0.015 P 
DOCKED: ATOM     10  O   UNL d   1       9.314 -14.003  12.891 -0.12 -0.89    -0.577 OA
DOCKED: ATOM     11  O   UNL d   1       7.272 -12.498  12.955 -0.53 -0.55    -0.577 OA
DOCKED: ATOM     12  O   UNL d   1       7.728 -13.947  10.908 -0.46 -1.28    -0.638 OA
DOCKED: ENDBRANCH   8   9
DOCKED: ENDBRANCH   7   8
DOCKED: ENDBRANCH   1   7
DOCKED: BRANCH   1  13
DOCKED: ATOM     13  C   UNL d   1       3.760 -16.995  12.891 -0.42 +0.03    +0.073 C 
DOCKED: ATOM     14  O   UNL d   1       2.880 -17.268  12.001 -0.76 -0.29    -0.547 OA
DOCKED: ATOM     15  O   UNL d   1       3.529 -16.963  14.153 -0.04 -0.13    -0.547 OA
DOCKED: ENDBRANCH   1  13
DOCKED: TORSDOF 6
DOCKED: TER
DOCKED: ENDMDL
________________________________________________________________________________


	BEGINNING GENETIC ALGORITHM DOCKING 12 of 100
Run: 12 Seed: 1055042587 15759257 [ Run 12 of 100 GA/GALS ]
Beginning LAMARCKIAN GENETIC ALGORITHM (LGA), with a maximum of 25000000 energy evaluations.

Final-Value: -8.219


	FINAL GENETIC ALGORITHM DOCKED STATE
	_______________________________________________


Detailed state:  trans 8.745 -14.815 15.689 quatxyzw 0.165770 -0.591807 -0.562642 0.552918 center 0.015 0.083 0.031 ntor 6 -129.9633 -58.2344 -125.1843 -11.9971 10.3103 52.6737
State:	  8.745 -14.815  15.689   0.199 -0.710 -0.675 112.865   -129.96  -58.23 -125.18  -12.00   10.31   52.67

DOCKED: MODEL       12
DOCKED: USER    Run = 12
DOCKED: USER    DPF = D:/Protein_go_brrr/autodock/final/1A3N/2_3_BPG/dock.dpf
DOCKED: USER  
DOCKED: USER    Estimated Free Energy of Binding    =   -8.92 kcal/mol  [=(1)+(2)+(3)-(4)]
DOCKED: USER    Estimated Inhibition Constant, Ki   =  288.53 nM (nanomolar)  [Temperature = 298.15 K]
DOCKED: USER    
DOCKED: USER    (1) Final Intermolecular Energy     =  -10.71 kcal/mol
DOCKED: USER        vdW + Hbond + desolv Energy     =   -3.34 kcal/mol
DOCKED: USER        Electrostatic Energy            =   -7.37 kcal/mol
DOCKED: USER    (2) Final Total Internal Energy     =   +2.49 kcal/mol
DOCKED: USER    (3) Torsional Free Energy           =   +1.79 kcal/mol
DOCKED: USER    (4) Unbound System's Energy  [=(2)] =   +2.49 kcal/mol
DOCKED: USER    
DOCKED: USER    
DOCKED: USER    NEWDPF move 2_3_BPG_opt.pdbqt
DOCKED: USER    NEWDPF about 0.015000 0.083000 0.031000
DOCKED: USER    NEWDPF tran0 8.745217 -14.815484 15.688635
DOCKED: USER    NEWDPF quaternion0 0.165770 -0.591807 -0.562642 0.552918
DOCKED: USER    NEWDPF axisangle0 0.198947 -0.710252 -0.675250 112.865123
DOCKED: USER    NEWDPF quat0 0.198947 -0.710252 -0.675250 112.865123
DOCKED: USER    NEWDPF dihe0 -129.96 -58.23 -125.18 -12.00 10.31 52.67 
DOCKED: USER  keepresnum = 1 
DOCKED: USER  
DOCKED: REMARK  6 active torsions:
DOCKED: REMARK  status: ('A' for Active; 'I' for Inactive)
DOCKED: REMARK    1  A    between atoms: P_1  and  O_3 
DOCKED: REMARK    2  A    between atoms: P_2  and  O_4 
DOCKED: REMARK    3  A    between atoms: O_3  and  C_13 
DOCKED: REMARK    4  A    between atoms: O_4  and  C_14 
DOCKED: REMARK    5  A    between atoms: C_13  and  C_14 
DOCKED: REMARK    6  A    between atoms: C_13  and  C_15 
DOCKED: USER                              x       y       z     vdW  Elec       q    Type
DOCKED: USER                           _______ _______ _______ _____ _____    ______ ____
DOCKED: ROOT
DOCKED: ATOM      1  C   UNL d   1       9.240 -15.083  16.054 -0.03 +0.18    +0.193 C 
DOCKED: ENDROOT
DOCKED: BRANCH   1   2
DOCKED: ATOM      2  O   UNL d   1       8.636 -15.828  17.165 -0.02 -0.32    -0.356 OA
DOCKED: BRANCH   2   3
DOCKED: ATOM      3  P   UNL d   1       9.304 -15.910  18.665 -0.06 -0.02    -0.014 P 
DOCKED: ATOM      4  O   UNL d   1       8.265 -15.250  19.584 -0.41 -0.46    -0.577 OA
DOCKED: ATOM      5  O   UNL d   1      10.606 -15.112  18.625 -0.05 -0.94    -0.577 OA
DOCKED: ATOM      6  O   UNL d   1       9.504 -17.382  19.011 -0.38 -1.11    -0.638 OA
DOCKED: ENDBRANCH   2   3
DOCKED: ENDBRANCH   1   2
DOCKED: BRANCH   1   7
DOCKED: ATOM      7  C   UNL d   1       8.108 -14.697  15.031 -0.03 +0.18    +0.201 C 
DOCKED: BRANCH   7   8
DOCKED: ATOM      8  O   UNL d   1       8.506 -14.637  13.644 -0.35 -0.60    -0.364 OA
DOCKED: BRANCH   8   9
DOCKED: ATOM      9  P   UNL d   1       7.513 -13.931  12.525 -0.22 -0.02    -0.015 P 
DOCKED: ATOM     10  O   UNL d   1       7.284 -12.504  13.039 -0.54 -0.55    -0.577 OA
DOCKED: ATOM     11  O   UNL d   1       6.218 -14.743  12.502 -0.01 -0.73    -0.577 OA
DOCKED: ATOM     12  O   UNL d   1       8.253 -13.947  11.189 -0.21 -1.39    -0.638 OA
DOCKED: ENDBRANCH   8   9
DOCKED: ENDBRANCH   7   8
DOCKED: ENDBRANCH   1   7
DOCKED: BRANCH   1  13
DOCKED: ATOM     13  C   UNL d   1      10.301 -15.982  15.315 -0.08 +0.09    +0.073 C 
DOCKED: ATOM     14  O   UNL d   1      11.442 -16.161  15.870 -0.54 -0.85    -0.547 OA
DOCKED: ATOM     15  O   UNL d   1       9.931 -16.539  14.219 -0.41 -0.84    -0.547 OA
DOCKED: ENDBRANCH   1  13
DOCKED: TORSDOF 6
DOCKED: TER
DOCKED: ENDMDL
________________________________________________________________________________


	BEGINNING GENETIC ALGORITHM DOCKING 13 of 100
Run: 13 Seed: 42462373 183335554 [ Run 13 of 100 GA/GALS ]
Beginning LAMARCKIAN GENETIC ALGORITHM (LGA), with a maximum of 25000000 energy evaluations.

Final-Value: -6.728


	FINAL GENETIC ALGORITHM DOCKED STATE
	_______________________________________________


Detailed state:  trans -0.683 -3.189 -11.746 quatxyzw 0.303989 -0.168613 -0.353240 0.868552 center 0.015 0.083 0.031 ntor 6 116.1375 38.5718 -162.4146 35.8772 -6.8126 -118.4172
State:	 -0.683  -3.189 -11.746   0.613 -0.340 -0.713 59.418    116.14   38.57 -162.41   35.88   -6.81 -118.42

DOCKED: MODEL       13
DOCKED: USER    Run = 13
DOCKED: USER    DPF = D:/Protein_go_brrr/autodock/final/1A3N/2_3_BPG/dock.dpf
DOCKED: USER  
DOCKED: USER    Estimated Free Energy of Binding    =   -7.16 kcal/mol  [=(1)+(2)+(3)-(4)]
DOCKED: USER    Estimated Inhibition Constant, Ki   =    5.66 uM (micromolar)  [Temperature = 298.15 K]
DOCKED: USER    
DOCKED: USER    (1) Final Intermolecular Energy     =   -8.95 kcal/mol
DOCKED: USER        vdW + Hbond + desolv Energy     =   -3.33 kcal/mol
DOCKED: USER        Electrostatic Energy            =   -5.62 kcal/mol
DOCKED: USER    (2) Final Total Internal Energy     =   +2.22 kcal/mol
DOCKED: USER    (3) Torsional Free Energy           =   +1.79 kcal/mol
DOCKED: USER    (4) Unbound System's Energy  [=(2)] =   +2.22 kcal/mol
DOCKED: USER    
DOCKED: USER    
DOCKED: USER    NEWDPF move 2_3_BPG_opt.pdbqt
DOCKED: USER    NEWDPF about 0.015000 0.083000 0.031000
DOCKED: USER    NEWDPF tran0 -0.683446 -3.189045 -11.746499
DOCKED: USER    NEWDPF quaternion0 0.303989 -0.168613 -0.353240 0.868552
DOCKED: USER    NEWDPF axisangle0 0.613378 -0.340220 -0.712754 59.418497
DOCKED: USER    NEWDPF quat0 0.613378 -0.340220 -0.712754 59.418497
DOCKED: USER    NEWDPF dihe0 116.14 38.57 -162.41 35.88 -6.81 -118.42 
DOCKED: USER  keepresnum = 1 
DOCKED: USER  
DOCKED: REMARK  6 active torsions:
DOCKED: REMARK  status: ('A' for Active; 'I' for Inactive)
DOCKED: REMARK    1  A    between atoms: P_1  and  O_3 
DOCKED: REMARK    2  A    between atoms: P_2  and  O_4 
DOCKED: REMARK    3  A    between atoms: O_3  and  C_13 
DOCKED: REMARK    4  A    between atoms: O_4  and  C_14 
DOCKED: REMARK    5  A    between atoms: C_13  and  C_14 
DOCKED: REMARK    6  A    between atoms: C_13  and  C_15 
DOCKED: USER                              x       y       z     vdW  Elec       q    Type
DOCKED: USER                           _______ _______ _______ _____ _____    ______ ____
DOCKED: ROOT
DOCKED: ATOM      1  C   UNL d   1      -0.859  -3.605 -11.251 -0.16 +0.18    +0.193 C 
DOCKED: ENDROOT
DOCKED: BRANCH   1   2
DOCKED: ATOM      2  O   UNL d   1      -2.209  -4.106 -11.532 -0.21 -0.48    -0.356 OA
DOCKED: BRANCH   2   3
DOCKED: ATOM      3  P   UNL d   1      -3.570  -3.449 -10.883 -0.37 -0.02    -0.014 P 
DOCKED: ATOM      4  O   UNL d   1      -4.511  -4.645 -10.674 -0.53 -0.94    -0.577 OA
DOCKED: ATOM      5  O   UNL d   1      -4.130  -2.465 -11.908 -0.07 -0.41    -0.577 OA
DOCKED: ATOM      6  O   UNL d   1      -3.191  -2.796  -9.558 -0.21 -0.77    -0.638 OA
DOCKED: ENDBRANCH   2   3
DOCKED: ENDBRANCH   1   2
DOCKED: BRANCH   1   7
DOCKED: ATOM      7  C   UNL d   1      -0.318  -2.867 -12.531 -0.07 +0.11    +0.201 C 
DOCKED: BRANCH   7   8
DOCKED: ATOM      8  O   UNL d   1      -1.271  -2.035 -13.229 -0.16 -0.24    -0.364 OA
DOCKED: BRANCH   8   9
DOCKED: ATOM      9  P   UNL d   1      -0.790  -1.139 -14.534 -0.39 -0.01    -0.015 P 
DOCKED: ATOM     10  O   UNL d   1       0.512  -1.795 -15.011 -0.10 -0.36    -0.577 OA
DOCKED: ATOM     11  O   UNL d   1      -0.560   0.287 -14.035 -0.13 -0.56    -0.577 OA
DOCKED: ATOM     12  O   UNL d   1      -1.898  -1.236 -15.581 -0.31 -0.90    -0.638 OA
DOCKED: ENDBRANCH   8   9
DOCKED: ENDBRANCH   7   8
DOCKED: ENDBRANCH   1   7
DOCKED: BRANCH   1  13
DOCKED: ATOM     13  C   UNL d   1       0.103  -4.805 -10.916 -0.21 +0.07    +0.073 C 
DOCKED: ATOM     14  O   UNL d   1       1.361  -4.576 -10.838 -0.02 -0.29    -0.547 OA
DOCKED: ATOM     15  O   UNL d   1      -0.444  -5.941 -10.675 -0.41 -1.00    -0.547 OA
DOCKED: ENDBRANCH   1  13
DOCKED: TORSDOF 6
DOCKED: TER
DOCKED: ENDMDL
________________________________________________________________________________


	BEGINNING GENETIC ALGORITHM DOCKING 14 of 100
Run: 14 Seed: 1504300391 1761889174 [ Run 14 of 100 GA/GALS ]
Beginning LAMARCKIAN GENETIC ALGORITHM (LGA), with a maximum of 25000000 energy evaluations.

Final-Value: -7.001


	FINAL GENETIC ALGORITHM DOCKED STATE
	_______________________________________________


Detailed state:  trans 6.605 11.176 35.843 quatxyzw 0.694520 -0.202549 -0.234369 -0.649375 center 0.015 0.083 0.031 ntor 6 115.5296 -115.3330 -123.5925 11.8226 4.4457 116.7133
State:	  6.605  11.176  35.843   0.913 -0.266 -0.308 -99.011    115.53 -115.33 -123.59   11.82    4.45  116.71

DOCKED: MODEL       14
DOCKED: USER    Run = 14
DOCKED: USER    DPF = D:/Protein_go_brrr/autodock/final/1A3N/2_3_BPG/dock.dpf
DOCKED: USER  
DOCKED: USER    Estimated Free Energy of Binding    =   -7.39 kcal/mol  [=(1)+(2)+(3)-(4)]
DOCKED: USER    Estimated Inhibition Constant, Ki   =    3.84 uM (micromolar)  [Temperature = 298.15 K]
DOCKED: USER    
DOCKED: USER    (1) Final Intermolecular Energy     =   -9.18 kcal/mol
DOCKED: USER        vdW + Hbond + desolv Energy     =   -3.44 kcal/mol
DOCKED: USER        Electrostatic Energy            =   -5.74 kcal/mol
DOCKED: USER    (2) Final Total Internal Energy     =   +2.18 kcal/mol
DOCKED: USER    (3) Torsional Free Energy           =   +1.79 kcal/mol
DOCKED: USER    (4) Unbound System's Energy  [=(2)] =   +2.18 kcal/mol
DOCKED: USER    
DOCKED: USER    
DOCKED: USER    NEWDPF move 2_3_BPG_opt.pdbqt
DOCKED: USER    NEWDPF about 0.015000 0.083000 0.031000
DOCKED: USER    NEWDPF tran0 6.604915 11.175747 35.842902
DOCKED: USER    NEWDPF quaternion0 0.694520 -0.202549 -0.234369 -0.649375
DOCKED: USER    NEWDPF axisangle0 0.913279 -0.266347 -0.308190 -99.011069
DOCKED: USER    NEWDPF quat0 0.913279 -0.266347 -0.308190 -99.011069
DOCKED: USER    NEWDPF dihe0 115.53 -115.33 -123.59 11.82 4.45 116.71 
DOCKED: USER  keepresnum = 1 
DOCKED: USER  
DOCKED: REMARK  6 active torsions:
DOCKED: REMARK  status: ('A' for Active; 'I' for Inactive)
DOCKED: REMARK    1  A    between atoms: P_1  and  O_3 
DOCKED: REMARK    2  A    between atoms: P_2  and  O_4 
DOCKED: REMARK    3  A    between atoms: O_3  and  C_13 
DOCKED: REMARK    4  A    between atoms: O_4  and  C_14 
DOCKED: REMARK    5  A    between atoms: C_13  and  C_14 
DOCKED: REMARK    6  A    between atoms: C_13  and  C_15 
DOCKED: USER                              x       y       z     vdW  Elec       q    Type
DOCKED: USER                           _______ _______ _______ _____ _____    ______ ____
DOCKED: ROOT
DOCKED: ATOM      1  C   UNL d   1       6.069  11.467  35.564 -0.24 +0.15    +0.193 C 
DOCKED: ENDROOT
DOCKED: BRANCH   1   2
DOCKED: ATOM      2  O   UNL d   1       5.618  12.542  36.455 -0.17 -0.49    -0.356 OA
DOCKED: BRANCH   2   3
DOCKED: ATOM      3  P   UNL d   1       4.115  12.590  37.121 -0.21 -0.02    -0.014 P 
DOCKED: ATOM      4  O   UNL d   1       4.028  11.308  37.964 -0.00 -0.32    -0.577 OA
DOCKED: ATOM      5  O   UNL d   1       3.110  12.576  35.971 -0.15 -0.66    -0.577 OA
DOCKED: ATOM      6  O   UNL d   1       4.025  13.840  37.991 -0.39 -1.02    -0.638 OA
DOCKED: ENDBRANCH   2   3
DOCKED: ENDBRANCH   1   2
DOCKED: BRANCH   1   7
DOCKED: ATOM      7  C   UNL d   1       7.481  10.969  36.049 -0.19 +0.13    +0.201 C 
DOCKED: BRANCH   7   8
DOCKED: ATOM      8  O   UNL d   1       8.614  11.735  35.585 -0.07 -0.27    -0.364 OA
DOCKED: BRANCH   8   9
DOCKED: ATOM      9  P   UNL d   1      10.152  11.201  35.875 -0.25 -0.02    -0.015 P 
DOCKED: ATOM     10  O   UNL d   1      10.224   9.817  35.219 -0.21 -0.55    -0.577 OA
DOCKED: ATOM     11  O   UNL d   1      10.318  11.122  37.392 -0.03 -0.51    -0.577 OA
DOCKED: ATOM     12  O   UNL d   1      11.107  12.197  35.219 -0.50 -1.21    -0.638 OA
DOCKED: ENDBRANCH   8   9
DOCKED: ENDBRANCH   7   8
DOCKED: ENDBRANCH   1   7
DOCKED: BRANCH   1  13
DOCKED: ATOM     13  C   UNL d   1       6.204  12.008  34.092 -0.36 +0.06    +0.073 C 
DOCKED: ATOM     14  O   UNL d   1       6.785  11.270  33.220 -0.09 -0.24    -0.547 OA
DOCKED: ATOM     15  O   UNL d   1       5.661  13.143  33.836 -0.58 -0.78    -0.547 OA
DOCKED: ENDBRANCH   1  13
DOCKED: TORSDOF 6
DOCKED: TER
DOCKED: ENDMDL
________________________________________________________________________________


	BEGINNING GENETIC ALGORITHM DOCKING 15 of 100
Run: 15 Seed: 169769804 350007870 [ Run 15 of 100 GA/GALS ]
Beginning LAMARCKIAN GENETIC ALGORITHM (LGA), with a maximum of 25000000 energy evaluations.

Final-Value: -6.863


	FINAL GENETIC ALGORITHM DOCKED STATE
	_______________________________________________


Detailed state:  trans 10.000 13.526 35.243 quatxyzw -0.259389 -0.147150 0.869901 -0.392856 center 0.015 0.083 0.031 ntor 6 174.9833 3.4074 -67.6221 20.9504 -6.8245 -35.7789
State:	 10.000  13.526  35.243  -0.282 -0.160  0.946 -133.735    174.98    3.41  -67.62   20.95   -6.82  -35.78

DOCKED: MODEL       15
DOCKED: USER    Run = 15
DOCKED: USER    DPF = D:/Protein_go_brrr/autodock/final/1A3N/2_3_BPG/dock.dpf
DOCKED: USER  
DOCKED: USER    Estimated Free Energy of Binding    =   -6.99 kcal/mol  [=(1)+(2)+(3)-(4)]
DOCKED: USER    Estimated Inhibition Constant, Ki   =    7.54 uM (micromolar)  [Temperature = 298.15 K]
DOCKED: USER    
DOCKED: USER    (1) Final Intermolecular Energy     =   -8.78 kcal/mol
DOCKED: USER        vdW + Hbond + desolv Energy     =   -2.67 kcal/mol
DOCKED: USER        Electrostatic Energy            =   -6.11 kcal/mol
DOCKED: USER    (2) Final Total Internal Energy     =   +1.91 kcal/mol
DOCKED: USER    (3) Torsional Free Energy           =   +1.79 kcal/mol
DOCKED: USER    (4) Unbound System's Energy  [=(2)] =   +1.91 kcal/mol
DOCKED: USER    
DOCKED: USER    
DOCKED: USER    NEWDPF move 2_3_BPG_opt.pdbqt
DOCKED: USER    NEWDPF about 0.015000 0.083000 0.031000
DOCKED: USER    NEWDPF tran0 10.000253 13.525739 35.242786
DOCKED: USER    NEWDPF quaternion0 -0.259389 -0.147150 0.869901 -0.392856
DOCKED: USER    NEWDPF axisangle0 -0.282068 -0.160015 0.945956 -133.735338
DOCKED: USER    NEWDPF quat0 -0.282068 -0.160015 0.945956 -133.735338
DOCKED: USER    NEWDPF dihe0 174.98 3.41 -67.62 20.95 -6.82 -35.78 
DOCKED: USER  keepresnum = 1 
DOCKED: USER  
DOCKED: REMARK  6 active torsions:
DOCKED: REMARK  status: ('A' for Active; 'I' for Inactive)
DOCKED: REMARK    1  A    between atoms: P_1  and  O_3 
DOCKED: REMARK    2  A    between atoms: P_2  and  O_4 
DOCKED: REMARK    3  A    between atoms: O_3  and  C_13 
DOCKED: REMARK    4  A    between atoms: O_4  and  C_14 
DOCKED: REMARK    5  A    between atoms: C_13  and  C_14 
DOCKED: REMARK    6  A    between atoms: C_13  and  C_15 
DOCKED: USER                              x       y       z     vdW  Elec       q    Type
DOCKED: USER                           _______ _______ _______ _____ _____    ______ ____
DOCKED: ROOT
DOCKED: ATOM      1  C   UNL d   1      10.463  13.278  35.659 -0.14 +0.19    +0.193 C 
DOCKED: ENDROOT
DOCKED: BRANCH   1   2
DOCKED: ATOM      2  O   UNL d   1      10.928  11.996  35.116 -0.58 -0.62    -0.356 OA
DOCKED: BRANCH   2   3
DOCKED: ATOM      3  P   UNL d   1      10.611  10.547  35.826 -0.26 -0.02    -0.014 P 
DOCKED: ATOM      4  O   UNL d   1      11.275   9.515  34.901 -0.02 -0.73    -0.577 OA
DOCKED: ATOM      5  O   UNL d   1       9.093  10.380  35.855 -0.51 -0.46    -0.577 OA
DOCKED: ATOM      6  O   UNL d   1      11.249  10.551  37.211 -0.05 -0.84    -0.638 OA
DOCKED: ENDBRANCH   2   3
DOCKED: ENDBRANCH   1   2
DOCKED: BRANCH   1   7
DOCKED: ATOM      7  C   UNL d   1       9.603  14.008  34.564 -0.14 +0.15    +0.201 C 
DOCKED: BRANCH   7   8
DOCKED: ATOM      8  O   UNL d   1       8.259  14.370  34.954 -0.06 -0.35    -0.364 OA
DOCKED: BRANCH   8   9
DOCKED: ATOM      9  P   UNL d   1       7.295  15.224  33.917 -0.15 -0.02    -0.015 P 
DOCKED: ATOM     10  O   UNL d   1       6.147  14.271  33.563 -0.11 -0.90    -0.577 OA
DOCKED: ATOM     11  O   UNL d   1       8.148  15.569  32.697 -0.01 -0.34    -0.577 OA
DOCKED: ATOM     12  O   UNL d   1       6.803  16.459  34.671 -0.39 -1.22    -0.638 OA
DOCKED: ENDBRANCH   8   9
DOCKED: ENDBRANCH   7   8
DOCKED: ENDBRANCH   1   7
DOCKED: BRANCH   1  13
DOCKED: ATOM     13  C   UNL d   1      11.695  14.188  36.023 -0.20 +0.07    +0.073 C 
DOCKED: ATOM     14  O   UNL d   1      11.722  14.750  37.174 -0.02 -0.37    -0.547 OA
DOCKED: ATOM     15  O   UNL d   1      12.640  14.263  35.157 -0.02 -0.67    -0.547 OA
DOCKED: ENDBRANCH   1  13
DOCKED: TORSDOF 6
DOCKED: TER
DOCKED: ENDMDL
________________________________________________________________________________


	BEGINNING GENETIC ALGORITHM DOCKING 16 of 100
Run: 16 Seed: 1384432426 35505653 [ Run 16 of 100 GA/GALS ]
Beginning LAMARCKIAN GENETIC ALGORITHM (LGA), with a maximum of 25000000 energy evaluations.

Final-Value: -7.933


	FINAL GENETIC ALGORITHM DOCKED STATE
	_______________________________________________


Detailed state:  trans 7.480 -15.370 14.169 quatxyzw -0.127508 0.215613 0.959595 0.128180 center 0.015 0.083 0.031 ntor 6 175.3824 -65.3250 51.7779 71.5318 -39.5455 66.3813
State:	  7.480 -15.370  14.169  -0.129  0.217  0.968 165.271    175.38  -65.33   51.78   71.53  -39.55   66.38

DOCKED: MODEL       16
DOCKED: USER    Run = 16
DOCKED: USER    DPF = D:/Protein_go_brrr/autodock/final/1A3N/2_3_BPG/dock.dpf
DOCKED: USER  
DOCKED: USER    Estimated Free Energy of Binding    =   -8.37 kcal/mol  [=(1)+(2)+(3)-(4)]
DOCKED: USER    Estimated Inhibition Constant, Ki   =  736.93 nM (nanomolar)  [Temperature = 298.15 K]
DOCKED: USER    
DOCKED: USER    (1) Final Intermolecular Energy     =  -10.16 kcal/mol
DOCKED: USER        vdW + Hbond + desolv Energy     =   -3.74 kcal/mol
DOCKED: USER        Electrostatic Energy            =   -6.42 kcal/mol
DOCKED: USER    (2) Final Total Internal Energy     =   +2.22 kcal/mol
DOCKED: USER    (3) Torsional Free Energy           =   +1.79 kcal/mol
DOCKED: USER    (4) Unbound System's Energy  [=(2)] =   +2.22 kcal/mol
DOCKED: USER    
DOCKED: USER    
DOCKED: USER    NEWDPF move 2_3_BPG_opt.pdbqt
DOCKED: USER    NEWDPF about 0.015000 0.083000 0.031000
DOCKED: USER    NEWDPF tran0 7.480463 -15.370376 14.168740
DOCKED: USER    NEWDPF quaternion0 -0.127508 0.215613 0.959595 0.128180
DOCKED: USER    NEWDPF axisangle0 -0.128568 0.217406 0.967577 165.271176
DOCKED: USER    NEWDPF quat0 -0.128568 0.217406 0.967577 165.271176
DOCKED: USER    NEWDPF dihe0 175.38 -65.33 51.78 71.53 -39.55 66.38 
DOCKED: USER  keepresnum = 1 
DOCKED: USER  
DOCKED: REMARK  6 active torsions:
DOCKED: REMARK  status: ('A' for Active; 'I' for Inactive)
DOCKED: REMARK    1  A    between atoms: P_1  and  O_3 
DOCKED: REMARK    2  A    between atoms: P_2  and  O_4 
DOCKED: REMARK    3  A    between atoms: O_3  and  C_13 
DOCKED: REMARK    4  A    between atoms: O_4  and  C_14 
DOCKED: REMARK    5  A    between atoms: C_13  and  C_14 
DOCKED: REMARK    6  A    between atoms: C_13  and  C_15 
DOCKED: USER                              x       y       z     vdW  Elec       q    Type
DOCKED: USER                           _______ _______ _______ _____ _____    ______ ____
DOCKED: ROOT
DOCKED: ATOM      1  C   UNL d   1       7.941 -14.886  14.222 -0.05 +0.24    +0.193 C 
DOCKED: ENDROOT
DOCKED: BRANCH   1   2
DOCKED: ATOM      2  O   UNL d   1       9.267 -15.512  14.215 -0.60 -0.56    -0.356 OA
DOCKED: BRANCH   2   3
DOCKED: ATOM      3  P   UNL d   1       9.760 -16.596  15.349 -0.10 -0.02    -0.014 P 
DOCKED: ATOM      4  O   UNL d   1       9.843 -17.931  14.593 -0.03 -0.67    -0.577 OA
DOCKED: ATOM      5  O   UNL d   1       8.688 -16.632  16.437 +0.02 -0.55    -0.577 OA
DOCKED: ATOM      6  O   UNL d   1      11.128 -16.156  15.859 -0.46 -0.95    -0.638 OA
DOCKED: ENDBRANCH   2   3
DOCKED: ENDBRANCH   1   2
DOCKED: BRANCH   1   7
DOCKED: ATOM      7  C   UNL d   1       6.871 -15.963  13.809 +0.03 +0.28    +0.201 C 
DOCKED: BRANCH   7   8
DOCKED: ATOM      8  O   UNL d   1       5.894 -15.540  12.832 -0.09 -0.44    -0.364 OA
DOCKED: BRANCH   8   9
DOCKED: ATOM      9  P   UNL d   1       5.352 -16.602  11.686 -0.48 -0.02    -0.015 P 
DOCKED: ATOM     10  O   UNL d   1       5.588 -15.897  10.345 -0.24 -0.78    -0.577 OA
DOCKED: ATOM     11  O   UNL d   1       3.865 -16.830  11.958 -0.42 -0.38    -0.577 OA
DOCKED: ATOM     12  O   UNL d   1       6.186 -17.875  11.820 -0.62 -1.12    -0.638 OA
DOCKED: ENDBRANCH   8   9
DOCKED: ENDBRANCH   7   8
DOCKED: ENDBRANCH   1   7
DOCKED: BRANCH   1  13
DOCKED: ATOM     13  C   UNL d   1       7.896 -13.706  13.181 -0.21 +0.09    +0.073 C 
DOCKED: ATOM     14  O   UNL d   1       7.435 -12.572  13.561 -0.42 -0.47    -0.547 OA
DOCKED: ATOM     15  O   UNL d   1       8.388 -13.936  12.018 -0.04 -1.08    -0.547 OA
DOCKED: ENDBRANCH   1  13
DOCKED: TORSDOF 6
DOCKED: TER
DOCKED: ENDMDL
________________________________________________________________________________


	BEGINNING GENETIC ALGORITHM DOCKING 17 of 100
Run: 17 Seed: 1491118667 1242206444 [ Run 17 of 100 GA/GALS ]
Beginning LAMARCKIAN GENETIC ALGORITHM (LGA), with a maximum of 25000000 energy evaluations.

Final-Value: -7.355


	FINAL GENETIC ALGORITHM DOCKED STATE
	_______________________________________________


Detailed state:  trans 8.460 -17.280 15.528 quatxyzw -0.542610 0.424523 0.714681 -0.120770 center 0.015 0.083 0.031 ntor 6 -65.0131 6.5020 -80.3870 -1.8584 -19.5190 -23.3307
State:	  8.460 -17.280  15.528  -0.547  0.428  0.720 -166.127    -65.01    6.50  -80.39   -1.86  -19.52  -23.33

DOCKED: MODEL       17
DOCKED: USER    Run = 17
DOCKED: USER    DPF = D:/Protein_go_brrr/autodock/final/1A3N/2_3_BPG/dock.dpf
DOCKED: USER  
DOCKED: USER    Estimated Free Energy of Binding    =   -7.72 kcal/mol  [=(1)+(2)+(3)-(4)]
DOCKED: USER    Estimated Inhibition Constant, Ki   =    2.21 uM (micromolar)  [Temperature = 298.15 K]
DOCKED: USER    
DOCKED: USER    (1) Final Intermolecular Energy     =   -9.51 kcal/mol
DOCKED: USER        vdW + Hbond + desolv Energy     =   -2.77 kcal/mol
DOCKED: USER        Electrostatic Energy            =   -6.74 kcal/mol
DOCKED: USER    (2) Final Total Internal Energy     =   +2.15 kcal/mol
DOCKED: USER    (3) Torsional Free Energy           =   +1.79 kcal/mol
DOCKED: USER    (4) Unbound System's Energy  [=(2)] =   +2.15 kcal/mol
DOCKED: USER    
DOCKED: USER    
DOCKED: USER    NEWDPF move 2_3_BPG_opt.pdbqt
DOCKED: USER    NEWDPF about 0.015000 0.083000 0.031000
DOCKED: USER    NEWDPF tran0 8.459630 -17.279947 15.527648
DOCKED: USER    NEWDPF quaternion0 -0.542610 0.424523 0.714681 -0.120770
DOCKED: USER    NEWDPF axisangle0 -0.546611 0.427654 0.719951 -166.126912
DOCKED: USER    NEWDPF quat0 -0.546611 0.427654 0.719951 -166.126912
DOCKED: USER    NEWDPF dihe0 -65.01 6.50 -80.39 -1.86 -19.52 -23.33 
DOCKED: USER  keepresnum = 1 
DOCKED: USER  
DOCKED: REMARK  6 active torsions:
DOCKED: REMARK  status: ('A' for Active; 'I' for Inactive)
DOCKED: REMARK    1  A    between atoms: P_1  and  O_3 
DOCKED: REMARK    2  A    between atoms: P_2  and  O_4 
DOCKED: REMARK    3  A    between atoms: O_3  and  C_13 
DOCKED: REMARK    4  A    between atoms: O_4  and  C_14 
DOCKED: REMARK    5  A    between atoms: C_13  and  C_14 
DOCKED: REMARK    6  A    between atoms: C_13  and  C_15 
DOCKED: USER                              x       y       z     vdW  Elec       q    Type
DOCKED: USER                           _______ _______ _______ _____ _____    ______ ____
DOCKED: ROOT
DOCKED: ATOM      1  C   UNL d   1       8.818 -16.852  15.899 -0.04 +0.19    +0.193 C 
DOCKED: ENDROOT
DOCKED: BRANCH   1   2
DOCKED: ATOM      2  O   UNL d   1       9.147 -17.511  17.168 -0.03 -0.41    -0.356 OA
DOCKED: BRANCH   2   3
DOCKED: ATOM      3  P   UNL d   1       8.988 -16.780  18.632 -0.14 -0.02    -0.014 P 
DOCKED: ATOM      4  O   UNL d   1       9.504 -17.821  19.638 -0.52 -0.90    -0.577 OA
DOCKED: ATOM      5  O   UNL d   1       7.503 -16.490  18.835 -0.04 -0.38    -0.577 OA
DOCKED: ATOM      6  O   UNL d   1       9.857 -15.526  18.629 -0.18 -0.96    -0.638 OA
DOCKED: ENDBRANCH   2   3
DOCKED: ENDBRANCH   1   2
DOCKED: BRANCH   1   7
DOCKED: ATOM      7  C   UNL d   1       8.236 -17.926  14.908 -0.04 +0.20    +0.201 C 
DOCKED: BRANCH   7   8
DOCKED: ATOM      8  O   UNL d   1       7.068 -17.525  14.158 -0.05 -0.41    -0.364 OA
DOCKED: BRANCH   8   9
DOCKED: ATOM      9  P   UNL d   1       6.610 -18.378  12.817 -0.08 -0.02    -0.015 P 
DOCKED: ATOM     10  O   UNL d   1       5.439 -19.253  13.281 -0.02 -0.28    -0.577 OA
DOCKED: ATOM     11  O   UNL d   1       7.814 -19.216  12.388 -0.14 -0.78    -0.577 OA
DOCKED: ATOM     12  O   UNL d   1       6.182 -17.361  11.760 -0.44 -1.31    -0.638 OA
DOCKED: ENDBRANCH   8   9
DOCKED: ENDBRANCH   7   8
DOCKED: ENDBRANCH   1   7
DOCKED: BRANCH   1  13
DOCKED: ATOM     13  C   UNL d   1      10.117 -16.230  15.262 -0.08 +0.09    +0.073 C 
DOCKED: ATOM     14  O   UNL d   1      11.179 -16.168  15.976 -0.51 -0.87    -0.547 OA
DOCKED: ATOM     15  O   UNL d   1      10.049 -15.876  14.030 -0.46 -0.88    -0.547 OA
DOCKED: ENDBRANCH   1  13
DOCKED: TORSDOF 6
DOCKED: TER
DOCKED: ENDMDL
________________________________________________________________________________


	BEGINNING GENETIC ALGORITHM DOCKING 18 of 100
Run: 18 Seed: 1243561986 497729745 [ Run 18 of 100 GA/GALS ]
Beginning LAMARCKIAN GENETIC ALGORITHM (LGA), with a maximum of 25000000 energy evaluations.

Final-Value: -7.242


	FINAL GENETIC ALGORITHM DOCKED STATE
	_______________________________________________


Detailed state:  trans -6.279 11.898 36.272 quatxyzw -0.707256 0.544768 -0.420047 0.163023 center 0.015 0.083 0.031 ntor 6 138.2878 135.2941 148.2020 30.5659 9.7522 -50.3070
State:	 -6.279  11.898  36.272  -0.717  0.552 -0.426 161.235    138.29  135.29  148.20   30.57    9.75  -50.31

DOCKED: MODEL       18
DOCKED: USER    Run = 18
DOCKED: USER    DPF = D:/Protein_go_brrr/autodock/final/1A3N/2_3_BPG/dock.dpf
DOCKED: USER  
DOCKED: USER    Estimated Free Energy of Binding    =   -7.53 kcal/mol  [=(1)+(2)+(3)-(4)]
DOCKED: USER    Estimated Inhibition Constant, Ki   =    3.05 uM (micromolar)  [Temperature = 298.15 K]
DOCKED: USER    
DOCKED: USER    (1) Final Intermolecular Energy     =   -9.32 kcal/mol
DOCKED: USER        vdW + Hbond + desolv Energy     =   -3.67 kcal/mol
DOCKED: USER        Electrostatic Energy            =   -5.64 kcal/mol
DOCKED: USER    (2) Final Total Internal Energy     =   +2.07 kcal/mol
DOCKED: USER    (3) Torsional Free Energy           =   +1.79 kcal/mol
DOCKED: USER    (4) Unbound System's Energy  [=(2)] =   +2.07 kcal/mol
DOCKED: USER    
DOCKED: USER    
DOCKED: USER    NEWDPF move 2_3_BPG_opt.pdbqt
DOCKED: USER    NEWDPF about 0.015000 0.083000 0.031000
DOCKED: USER    NEWDPF tran0 -6.279265 11.897798 36.271563
DOCKED: USER    NEWDPF quaternion0 -0.707256 0.544768 -0.420047 0.163023
DOCKED: USER    NEWDPF axisangle0 -0.716846 0.552155 -0.425743 161.235172
DOCKED: USER    NEWDPF quat0 -0.716846 0.552155 -0.425743 161.235172
DOCKED: USER    NEWDPF dihe0 138.29 135.29 148.20 30.57 9.75 -50.31 
DOCKED: USER  keepresnum = 1 
DOCKED: USER  
DOCKED: REMARK  6 active torsions:
DOCKED: REMARK  status: ('A' for Active; 'I' for Inactive)
DOCKED: REMARK    1  A    between atoms: P_1  and  O_3 
DOCKED: REMARK    2  A    between atoms: P_2  and  O_4 
DOCKED: REMARK    3  A    between atoms: O_3  and  C_13 
DOCKED: REMARK    4  A    between atoms: O_4  and  C_14 
DOCKED: REMARK    5  A    between atoms: C_13  and  C_14 
DOCKED: REMARK    6  A    between atoms: C_13  and  C_15 
DOCKED: USER                              x       y       z     vdW  Elec       q    Type
DOCKED: USER                           _______ _______ _______ _____ _____    ______ ____
DOCKED: ROOT
DOCKED: ATOM      1  C   UNL d   1      -5.989  12.315  35.835 -0.22 +0.21    +0.193 C 
DOCKED: ENDROOT
DOCKED: BRANCH   1   2
DOCKED: ATOM      2  O   UNL d   1      -7.037  13.141  35.225 -0.57 -0.57    -0.356 OA
DOCKED: BRANCH   2   3
DOCKED: ATOM      3  P   UNL d   1      -7.641  12.868  33.720 -0.24 -0.02    -0.014 P 
DOCKED: ATOM      4  O   UNL d   1      -6.398  12.707  32.832 -0.24 -0.69    -0.577 OA
DOCKED: ATOM      5  O   UNL d   1      -8.456  14.099  33.329 -0.14 -0.70    -0.577 OA
DOCKED: ATOM      6  O   UNL d   1      -8.464  11.584  33.769 -0.44 -1.04    -0.638 OA
DOCKED: ENDBRANCH   2   3
DOCKED: ENDBRANCH   1   2
DOCKED: BRANCH   1   7
DOCKED: ATOM      7  C   UNL d   1      -6.603  11.542  37.059 -0.18 +0.16    +0.201 C 
DOCKED: BRANCH   7   8
DOCKED: ATOM      8  O   UNL d   1      -6.774  10.118  36.884 -0.09 -0.36    -0.364 OA
DOCKED: BRANCH   8   9
DOCKED: ATOM      9  P   UNL d   1      -7.690   9.254  37.958 -0.27 -0.01    -0.015 P 
DOCKED: ATOM     10  O   UNL d   1      -7.553  10.001  39.290 -0.00 -0.24    -0.577 OA
DOCKED: ATOM     11  O   UNL d   1      -7.090   7.850  38.026 -0.14 -0.29    -0.577 OA
DOCKED: ATOM     12  O   UNL d   1      -9.126   9.266  37.437 -0.58 -0.85    -0.638 OA
DOCKED: ENDBRANCH   8   9
DOCKED: ENDBRANCH   7   8
DOCKED: ENDBRANCH   1   7
DOCKED: BRANCH   1  13
DOCKED: ATOM     13  C   UNL d   1      -4.815  13.228  36.353 -0.30 +0.08    +0.073 C 
DOCKED: ATOM     14  O   UNL d   1      -3.716  12.671  36.701 -0.12 -0.32    -0.547 OA
DOCKED: ATOM     15  O   UNL d   1      -5.012  14.497  36.334 -0.13 -1.00    -0.547 OA
DOCKED: ENDBRANCH   1  13
DOCKED: TORSDOF 6
DOCKED: TER
DOCKED: ENDMDL
________________________________________________________________________________


	BEGINNING GENETIC ALGORITHM DOCKING 19 of 100
Run: 19 Seed: 296924462 1080113047 [ Run 19 of 100 GA/GALS ]
Beginning LAMARCKIAN GENETIC ALGORITHM (LGA), with a maximum of 25000000 energy evaluations.

Final-Value: -7.293


	FINAL GENETIC ALGORITHM DOCKED STATE
	_______________________________________________


Detailed state:  trans 7.527 12.100 35.968 quatxyzw 0.123491 0.074635 -0.536401 -0.831537 center 0.015 0.083 0.031 ntor 6 170.9282 20.4470 -126.4733 11.4750 26.7659 -54.2224
State:	  7.527  12.100  35.968   0.222  0.134 -0.966 -67.486    170.93   20.45 -126.47   11.48   26.77  -54.22

DOCKED: MODEL       19
DOCKED: USER    Run = 19
DOCKED: USER    DPF = D:/Protein_go_brrr/autodock/final/1A3N/2_3_BPG/dock.dpf
DOCKED: USER  
DOCKED: USER    Estimated Free Energy of Binding    =   -7.57 kcal/mol  [=(1)+(2)+(3)-(4)]
DOCKED: USER    Estimated Inhibition Constant, Ki   =    2.82 uM (micromolar)  [Temperature = 298.15 K]
DOCKED: USER    
DOCKED: USER    (1) Final Intermolecular Energy     =   -9.36 kcal/mol
DOCKED: USER        vdW + Hbond + desolv Energy     =   -2.88 kcal/mol
DOCKED: USER        Electrostatic Energy            =   -6.48 kcal/mol
DOCKED: USER    (2) Final Total Internal Energy     =   +2.07 kcal/mol
DOCKED: USER    (3) Torsional Free Energy           =   +1.79 kcal/mol
DOCKED: USER    (4) Unbound System's Energy  [=(2)] =   +2.07 kcal/mol
DOCKED: USER    
DOCKED: USER    
DOCKED: USER    NEWDPF move 2_3_BPG_opt.pdbqt
DOCKED: USER    NEWDPF about 0.015000 0.083000 0.031000
DOCKED: USER    NEWDPF tran0 7.526569 12.099960 35.968145
DOCKED: USER    NEWDPF quaternion0 0.123491 0.074635 -0.536401 -0.831537
DOCKED: USER    NEWDPF axisangle0 0.222318 0.134364 -0.965671 -67.486146
DOCKED: USER    NEWDPF quat0 0.222318 0.134364 -0.965671 -67.486146
DOCKED: USER    NEWDPF dihe0 170.93 20.45 -126.47 11.48 26.77 -54.22 
DOCKED: USER  keepresnum = 1 
DOCKED: USER  
DOCKED: REMARK  6 active torsions:
DOCKED: REMARK  status: ('A' for Active; 'I' for Inactive)
DOCKED: REMARK    1  A    between atoms: P_1  and  O_3 
DOCKED: REMARK    2  A    between atoms: P_2  and  O_4 
DOCKED: REMARK    3  A    between atoms: O_3  and  C_13 
DOCKED: REMARK    4  A    between atoms: O_4  and  C_14 
DOCKED: REMARK    5  A    between atoms: C_13  and  C_14 
DOCKED: REMARK    6  A    between atoms: C_13  and  C_15 
DOCKED: USER                              x       y       z     vdW  Elec       q    Type
DOCKED: USER                           _______ _______ _______ _____ _____    ______ ____
DOCKED: ROOT
DOCKED: ATOM      1  C   UNL d   1       6.999  12.462  36.169 -0.13 +0.19    +0.193 C 
DOCKED: ENDROOT
DOCKED: BRANCH   1   2
DOCKED: ATOM      2  O   UNL d   1       7.297  13.878  35.922 -0.05 -0.50    -0.356 OA
DOCKED: BRANCH   2   3
DOCKED: ATOM      3  P   UNL d   1       7.321  15.016  37.109 +0.07 -0.02    -0.014 P 
DOCKED: ATOM      4  O   UNL d   1       7.251  16.354  36.357 -0.39 -0.88    -0.577 OA
DOCKED: ATOM      5  O   UNL d   1       8.643  14.860  37.858 +0.02 -0.38    -0.577 OA
DOCKED: ATOM      6  O   UNL d   1       6.094  14.803  37.989 -0.15 -1.02    -0.638 OA
DOCKED: ENDBRANCH   2   3
DOCKED: ENDBRANCH   1   2
DOCKED: BRANCH   1   7
DOCKED: ATOM      7  C   UNL d   1       8.086  11.584  35.446 -0.15 +0.14    +0.201 C 
DOCKED: BRANCH   7   8
DOCKED: ATOM      8  O   UNL d   1       9.080  10.979  36.303 -0.25 -0.27    -0.364 OA
DOCKED: BRANCH   8   9
DOCKED: ATOM      9  P   UNL d   1      10.604  10.687  35.729 -0.24 -0.02    -0.015 P 
DOCKED: ATOM     10  O   UNL d   1      11.107  12.045  35.226 -0.51 -1.14    -0.577 OA
DOCKED: ATOM     11  O   UNL d   1      10.466   9.673  34.594 -0.08 -0.53    -0.577 OA
DOCKED: ATOM     12  O   UNL d   1      11.434  10.165  36.901 -0.03 -0.94    -0.638 OA
DOCKED: ENDBRANCH   8   9
DOCKED: ENDBRANCH   7   8
DOCKED: ENDBRANCH   1   7
DOCKED: BRANCH   1  13
DOCKED: ATOM     13  C   UNL d   1       5.585  12.098  35.581 -0.25 +0.09    +0.073 C 
DOCKED: ATOM     14  O   UNL d   1       4.790  11.393  36.296 -0.05 -0.43    -0.547 OA
DOCKED: ATOM     15  O   UNL d   1       5.287  12.590  34.433 -0.69 -0.78    -0.547 OA
DOCKED: ENDBRANCH   1  13
DOCKED: TORSDOF 6
DOCKED: TER
DOCKED: ENDMDL
________________________________________________________________________________


	BEGINNING GENETIC ALGORITHM DOCKING 20 of 100
Run: 20 Seed: 1322163681 590310610 [ Run 20 of 100 GA/GALS ]
Beginning LAMARCKIAN GENETIC ALGORITHM (LGA), with a maximum of 25000000 energy evaluations.

Final-Value: -6.807


	FINAL GENETIC ALGORITHM DOCKED STATE
	_______________________________________________


Detailed state:  trans -7.449 12.395 36.629 quatxyzw 0.287812 -0.444256 -0.577728 -0.621313 center 0.015 0.083 0.031 ntor 6 108.2186 -124.4883 -179.1251 179.6538 52.3891 37.0363
State:	 -7.449  12.395  36.629   0.367 -0.567 -0.737 -103.176    108.22 -124.49 -179.13  179.65   52.39   37.04

DOCKED: MODEL       20
DOCKED: USER    Run = 20
DOCKED: USER    DPF = D:/Protein_go_brrr/autodock/final/1A3N/2_3_BPG/dock.dpf
DOCKED: USER  
DOCKED: USER    Estimated Free Energy of Binding    =   -7.63 kcal/mol  [=(1)+(2)+(3)-(4)]
DOCKED: USER    Estimated Inhibition Constant, Ki   =    2.53 uM (micromolar)  [Temperature = 298.15 K]
DOCKED: USER    
DOCKED: USER    (1) Final Intermolecular Energy     =   -9.42 kcal/mol
DOCKED: USER        vdW + Hbond + desolv Energy     =   -2.96 kcal/mol
DOCKED: USER        Electrostatic Energy            =   -6.47 kcal/mol
DOCKED: USER    (2) Final Total Internal Energy     =   +2.62 kcal/mol
DOCKED: USER    (3) Torsional Free Energy           =   +1.79 kcal/mol
DOCKED: USER    (4) Unbound System's Energy  [=(2)] =   +2.62 kcal/mol
DOCKED: USER    
DOCKED: USER    
DOCKED: USER    NEWDPF move 2_3_BPG_opt.pdbqt
DOCKED: USER    NEWDPF about 0.015000 0.083000 0.031000
DOCKED: USER    NEWDPF tran0 -7.449477 12.394931 36.628838
DOCKED: USER    NEWDPF quaternion0 0.287812 -0.444256 -0.577728 -0.621313
DOCKED: USER    NEWDPF axisangle0 0.367313 -0.566970 -0.737310 -103.175803
DOCKED: USER    NEWDPF quat0 0.367313 -0.566970 -0.737310 -103.175803
DOCKED: USER    NEWDPF dihe0 108.22 -124.49 -179.13 179.65 52.39 37.04 
DOCKED: USER  keepresnum = 1 
DOCKED: USER  
DOCKED: REMARK  6 active torsions:
DOCKED: REMARK  status: ('A' for Active; 'I' for Inactive)
DOCKED: REMARK    1  A    between atoms: P_1  and  O_3 
DOCKED: REMARK    2  A    between atoms: P_2  and  O_4 
DOCKED: REMARK    3  A    between atoms: O_3  and  C_13 
DOCKED: REMARK    4  A    between atoms: O_4  and  C_14 
DOCKED: REMARK    5  A    between atoms: C_13  and  C_14 
DOCKED: REMARK    6  A    between atoms: C_13  and  C_15 
DOCKED: USER                              x       y       z     vdW  Elec       q    Type
DOCKED: USER                           _______ _______ _______ _____ _____    ______ ____
DOCKED: ROOT
DOCKED: ATOM      1  C   UNL d   1      -7.639  12.928  36.269 -0.11 +0.20    +0.193 C 
DOCKED: ENDROOT
DOCKED: BRANCH   1   2
DOCKED: ATOM      2  O   UNL d   1      -6.636  13.983  36.451 -0.09 -0.50    -0.356 OA
DOCKED: BRANCH   2   3
DOCKED: ATOM      3  P   UNL d   1      -5.017  13.720  36.333 -0.19 -0.02    -0.014 P 
DOCKED: ATOM      4  O   UNL d   1      -4.844  13.002  34.985 -0.13 -0.78    -0.577 OA
DOCKED: ATOM      5  O   UNL d   1      -4.618  12.823  37.502 -0.03 -0.35    -0.577 OA
DOCKED: ATOM      6  O   UNL d   1      -4.318  15.076  36.339 -0.42 -1.12    -0.638 OA
DOCKED: ENDBRANCH   2   3
DOCKED: ENDBRANCH   1   2
DOCKED: BRANCH   1   7
DOCKED: ATOM      7  C   UNL d   1      -7.072  11.585  36.860 -0.17 +0.17    +0.201 C 
DOCKED: BRANCH   7   8
DOCKED: ATOM      8  O   UNL d   1      -7.750  10.378  36.447 -0.01 -0.55    -0.364 OA
DOCKED: BRANCH   8   9
DOCKED: ATOM      9  P   UNL d   1      -8.361   9.339  37.580 -0.03 -0.02    -0.015 P 
DOCKED: ATOM     10  O   UNL d   1      -8.092  10.017  38.929 -0.01 -0.29    -0.577 OA
DOCKED: ATOM     11  O   UNL d   1      -7.594   8.024  37.439 -0.29 -0.48    -0.577 OA
DOCKED: ATOM     12  O   UNL d   1      -9.855   9.193  37.299 -0.43 -0.88    -0.638 OA
DOCKED: ENDBRANCH   8   9
DOCKED: ENDBRANCH   7   8
DOCKED: ENDBRANCH   1   7
DOCKED: BRANCH   1  13
DOCKED: ATOM     13  C   UNL d   1      -7.932  12.720  34.737 -0.20 +0.09    +0.073 C 
DOCKED: ATOM     14  O   UNL d   1      -8.498  11.633  34.364 -0.38 -0.92    -0.547 OA
DOCKED: ATOM     15  O   UNL d   1      -7.640  13.693  33.951 -0.47 -1.03    -0.547 OA
DOCKED: ENDBRANCH   1  13
DOCKED: TORSDOF 6
DOCKED: TER
DOCKED: ENDMDL
________________________________________________________________________________


	BEGINNING GENETIC ALGORITHM DOCKING 21 of 100
Run: 21 Seed: 1740408521 696512810 [ Run 21 of 100 GA/GALS ]
Beginning LAMARCKIAN GENETIC ALGORITHM (LGA), with a maximum of 25000000 energy evaluations.

Final-Value: -6.899


	FINAL GENETIC ALGORITHM DOCKED STATE
	_______________________________________________


Detailed state:  trans 7.760 12.009 35.253 quatxyzw 0.021943 0.011530 -0.645127 -0.763673 center 0.015 0.083 0.031 ntor 6 -39.0055 -170.8139 -146.3693 -11.4232 64.1417 -50.8553
State:	  7.760  12.009  35.253   0.034  0.018 -0.999 -80.422    -39.01 -170.81 -146.37  -11.42   64.14  -50.86

DOCKED: MODEL       21
DOCKED: USER    Run = 21
DOCKED: USER    DPF = D:/Protein_go_brrr/autodock/final/1A3N/2_3_BPG/dock.dpf
DOCKED: USER  
DOCKED: USER    Estimated Free Energy of Binding    =   -7.45 kcal/mol  [=(1)+(2)+(3)-(4)]
DOCKED: USER    Estimated Inhibition Constant, Ki   =    3.47 uM (micromolar)  [Temperature = 298.15 K]
DOCKED: USER    
DOCKED: USER    (1) Final Intermolecular Energy     =   -9.24 kcal/mol
DOCKED: USER        vdW + Hbond + desolv Energy     =   -2.84 kcal/mol
DOCKED: USER        Electrostatic Energy            =   -6.39 kcal/mol
DOCKED: USER    (2) Final Total Internal Energy     =   +2.34 kcal/mol
DOCKED: USER    (3) Torsional Free Energy           =   +1.79 kcal/mol
DOCKED: USER    (4) Unbound System's Energy  [=(2)] =   +2.34 kcal/mol
DOCKED: USER    
DOCKED: USER    
DOCKED: USER    NEWDPF move 2_3_BPG_opt.pdbqt
DOCKED: USER    NEWDPF about 0.015000 0.083000 0.031000
DOCKED: USER    NEWDPF tran0 7.760043 12.008889 35.253399
DOCKED: USER    NEWDPF quaternion0 0.021943 0.011530 -0.645127 -0.763673
DOCKED: USER    NEWDPF axisangle0 0.033989 0.017860 -0.999263 -80.421879
DOCKED: USER    NEWDPF quat0 0.033989 0.017860 -0.999263 -80.421879
DOCKED: USER    NEWDPF dihe0 -39.01 -170.81 -146.37 -11.42 64.14 -50.86 
DOCKED: USER  keepresnum = 1 
DOCKED: USER  
DOCKED: REMARK  6 active torsions:
DOCKED: REMARK  status: ('A' for Active; 'I' for Inactive)
DOCKED: REMARK    1  A    between atoms: P_1  and  O_3 
DOCKED: REMARK    2  A    between atoms: P_2  and  O_4 
DOCKED: REMARK    3  A    between atoms: O_3  and  C_13 
DOCKED: REMARK    4  A    between atoms: O_4  and  C_14 
DOCKED: REMARK    5  A    between atoms: C_13  and  C_14 
DOCKED: REMARK    6  A    between atoms: C_13  and  C_15 
DOCKED: USER                              x       y       z     vdW  Elec       q    Type
DOCKED: USER                           _______ _______ _______ _____ _____    ______ ____
DOCKED: ROOT
DOCKED: ATOM      1  C   UNL d   1       7.353  12.529  35.367 -0.14 +0.18    +0.193 C 
DOCKED: ENDROOT
DOCKED: BRANCH   1   2
DOCKED: ATOM      2  O   UNL d   1       7.971  13.728  34.788 -0.06 -0.34    -0.356 OA
DOCKED: BRANCH   2   3
DOCKED: ATOM      3  P   UNL d   1       7.871  15.218  35.477 -0.09 -0.02    -0.014 P 
DOCKED: ATOM      4  O   UNL d   1       7.154  14.974  36.814 +0.05 -0.93    -0.577 OA
DOCKED: ATOM      5  O   UNL d   1       7.038  16.093  34.543 -0.18 -1.01    -0.577 OA
DOCKED: ATOM      6  O   UNL d   1       9.290  15.735  35.689 +0.01 -0.42    -0.638 OA
DOCKED: ENDBRANCH   2   3
DOCKED: ENDBRANCH   1   2
DOCKED: BRANCH   1   7
DOCKED: ATOM      7  C   UNL d   1       8.138  11.263  34.863 -0.19 +0.13    +0.201 C 
DOCKED: BRANCH   7   8
DOCKED: ATOM      8  O   UNL d   1       8.952  10.591  35.850 -0.50 -0.28    -0.364 OA
DOCKED: BRANCH   8   9
DOCKED: ATOM      9  P   UNL d   1      10.600  10.598  35.710 -0.26 -0.02    -0.015 P 
DOCKED: ATOM     10  O   UNL d   1      10.946  11.977  35.137 -0.49 -1.02    -0.577 OA
DOCKED: ATOM     11  O   UNL d   1      10.971   9.470  34.747 -0.05 -0.62    -0.577 OA
DOCKED: ATOM     12  O   UNL d   1      11.172  10.400  37.113 -0.05 -0.80    -0.638 OA
DOCKED: ENDBRANCH   8   9
DOCKED: ENDBRANCH   7   8
DOCKED: ENDBRANCH   1   7
DOCKED: BRANCH   1  13
DOCKED: ATOM     13  C   UNL d   1       5.855  12.415  34.898 -0.15 +0.09    +0.073 C 
DOCKED: ATOM     14  O   UNL d   1       5.466  13.135  33.913 -0.59 -0.85    -0.547 OA
DOCKED: ATOM     15  O   UNL d   1       5.122  11.548  35.498 -0.17 -0.48    -0.547 OA
DOCKED: ENDBRANCH   1  13
DOCKED: TORSDOF 6
DOCKED: TER
DOCKED: ENDMDL
________________________________________________________________________________


	BEGINNING GENETIC ALGORITHM DOCKING 22 of 100
Run: 22 Seed: 1032287546 1238488770 [ Run 22 of 100 GA/GALS ]
Beginning LAMARCKIAN GENETIC ALGORITHM (LGA), with a maximum of 25000000 energy evaluations.

Final-Value: -7.327


	FINAL GENETIC ALGORITHM DOCKED STATE
	_______________________________________________


Detailed state:  trans -7.218 12.343 36.144 quatxyzw 0.697800 0.251677 0.219940 -0.633531 center 0.015 0.083 0.031 ntor 6 74.1197 64.1099 3.1451 21.3195 14.8224 12.0341
State:	 -7.218  12.343  36.144   0.902  0.325  0.284 -101.378     74.12   64.11    3.15   21.32   14.82   12.03

DOCKED: MODEL       22
DOCKED: USER    Run = 22
DOCKED: USER    DPF = D:/Protein_go_brrr/autodock/final/1A3N/2_3_BPG/dock.dpf
DOCKED: USER  
DOCKED: USER    Estimated Free Energy of Binding    =   -7.62 kcal/mol  [=(1)+(2)+(3)-(4)]
DOCKED: USER    Estimated Inhibition Constant, Ki   =    2.60 uM (micromolar)  [Temperature = 298.15 K]
DOCKED: USER    
DOCKED: USER    (1) Final Intermolecular Energy     =   -9.41 kcal/mol
DOCKED: USER        vdW + Hbond + desolv Energy     =   -3.19 kcal/mol
DOCKED: USER        Electrostatic Energy            =   -6.22 kcal/mol
DOCKED: USER    (2) Final Total Internal Energy     =   +2.08 kcal/mol
DOCKED: USER    (3) Torsional Free Energy           =   +1.79 kcal/mol
DOCKED: USER    (4) Unbound System's Energy  [=(2)] =   +2.08 kcal/mol
DOCKED: USER    
DOCKED: USER    
DOCKED: USER    NEWDPF move 2_3_BPG_opt.pdbqt
DOCKED: USER    NEWDPF about 0.015000 0.083000 0.031000
DOCKED: USER    NEWDPF tran0 -7.218155 12.342788 36.143676
DOCKED: USER    NEWDPF quaternion0 0.697800 0.251677 0.219940 -0.633531
DOCKED: USER    NEWDPF axisangle0 0.901879 0.325283 0.284264 -101.377838
DOCKED: USER    NEWDPF quat0 0.901879 0.325283 0.284264 -101.377838
DOCKED: USER    NEWDPF dihe0 74.12 64.11 3.15 21.32 14.82 12.03 
DOCKED: USER  keepresnum = 1 
DOCKED: USER  
DOCKED: REMARK  6 active torsions:
DOCKED: REMARK  status: ('A' for Active; 'I' for Inactive)
DOCKED: REMARK    1  A    between atoms: P_1  and  O_3 
DOCKED: REMARK    2  A    between atoms: P_2  and  O_4 
DOCKED: REMARK    3  A    between atoms: O_3  and  C_13 
DOCKED: REMARK    4  A    between atoms: O_4  and  C_14 
DOCKED: REMARK    5  A    between atoms: C_13  and  C_14 
DOCKED: REMARK    6  A    between atoms: C_13  and  C_15 
DOCKED: USER                              x       y       z     vdW  Elec       q    Type
DOCKED: USER                           _______ _______ _______ _____ _____    ______ ____
DOCKED: ROOT
DOCKED: ATOM      1  C   UNL d   1      -7.638  11.924  35.831 -0.14 +0.22    +0.193 C 
DOCKED: ENDROOT
DOCKED: BRANCH   1   2
DOCKED: ATOM      2  O   UNL d   1      -8.798  11.703  36.702 -0.06 -0.35    -0.356 OA
DOCKED: BRANCH   2   3
DOCKED: ATOM      3  P   UNL d   1      -9.113  10.268  37.440 -0.10 -0.02    -0.014 P 
DOCKED: ATOM      4  O   UNL d   1     -10.490   9.854  36.900 -0.20 -0.71    -0.577 OA
DOCKED: ATOM      5  O   UNL d   1      -9.154  10.532  38.944 +0.01 -0.27    -0.577 OA
DOCKED: ATOM      6  O   UNL d   1      -8.029   9.278  37.027 -0.35 -1.02    -0.638 OA
DOCKED: ENDBRANCH   2   3
DOCKED: ENDBRANCH   1   2
DOCKED: BRANCH   1   7
DOCKED: ATOM      7  C   UNL d   1      -6.791  13.117  36.410 -0.13 +0.22    +0.201 C 
DOCKED: BRANCH   7   8
DOCKED: ATOM      8  O   UNL d   1      -5.511  13.345  35.780 -0.18 -0.56    -0.364 OA
DOCKED: BRANCH   8   9
DOCKED: ATOM      9  P   UNL d   1      -4.357  14.246  36.550 -0.16 -0.02    -0.015 P 
DOCKED: ATOM     10  O   UNL d   1      -3.214  14.381  35.536 -0.12 -0.66    -0.577 OA
DOCKED: ATOM     11  O   UNL d   1      -3.930  13.460  37.790 -0.01 -0.32    -0.577 OA
DOCKED: ATOM     12  O   UNL d   1      -4.988  15.596  36.886 -0.46 -0.99    -0.638 OA
DOCKED: ENDBRANCH   8   9
DOCKED: ENDBRANCH   7   8
DOCKED: ENDBRANCH   1   7
DOCKED: BRANCH   1  13
DOCKED: ATOM     13  C   UNL d   1      -8.117  12.303  34.380 -0.20 +0.10    +0.073 C 
DOCKED: ATOM     14  O   UNL d   1      -7.641  13.360  33.836 -0.54 -0.89    -0.547 OA
DOCKED: ATOM     15  O   UNL d   1      -8.917  11.484  33.798 -0.56 -0.96    -0.547 OA
DOCKED: ENDBRANCH   1  13
DOCKED: TORSDOF 6
DOCKED: TER
DOCKED: ENDMDL
________________________________________________________________________________


	BEGINNING GENETIC ALGORITHM DOCKING 23 of 100
Run: 23 Seed: 72476231 835453358 [ Run 23 of 100 GA/GALS ]
Beginning LAMARCKIAN GENETIC ALGORITHM (LGA), with a maximum of 25000000 energy evaluations.

Final-Value: -7.257


	FINAL GENETIC ALGORITHM DOCKED STATE
	_______________________________________________


Detailed state:  trans 7.878 12.022 35.032 quatxyzw -0.097828 -0.047290 0.660397 0.743014 center 0.015 0.083 0.031 ntor 6 163.4290 -47.3992 -38.7480 -18.6247 76.3209 -50.0421
State:	  7.878  12.022  35.032  -0.146 -0.071  0.987 84.022    163.43  -47.40  -38.75  -18.62   76.32  -50.04

DOCKED: MODEL       23
DOCKED: USER    Run = 23
DOCKED: USER    DPF = D:/Protein_go_brrr/autodock/final/1A3N/2_3_BPG/dock.dpf
DOCKED: USER  
DOCKED: USER    Estimated Free Energy of Binding    =   -7.85 kcal/mol  [=(1)+(2)+(3)-(4)]
DOCKED: USER    Estimated Inhibition Constant, Ki   =    1.76 uM (micromolar)  [Temperature = 298.15 K]
DOCKED: USER    
DOCKED: USER    (1) Final Intermolecular Energy     =   -9.64 kcal/mol
DOCKED: USER        vdW + Hbond + desolv Energy     =   -3.46 kcal/mol
DOCKED: USER        Electrostatic Energy            =   -6.19 kcal/mol
DOCKED: USER    (2) Final Total Internal Energy     =   +2.38 kcal/mol
DOCKED: USER    (3) Torsional Free Energy           =   +1.79 kcal/mol
DOCKED: USER    (4) Unbound System's Energy  [=(2)] =   +2.38 kcal/mol
DOCKED: USER    
DOCKED: USER    
DOCKED: USER    NEWDPF move 2_3_BPG_opt.pdbqt
DOCKED: USER    NEWDPF about 0.015000 0.083000 0.031000
DOCKED: USER    NEWDPF tran0 7.878242 12.021902 35.031567
DOCKED: USER    NEWDPF quaternion0 -0.097828 -0.047290 0.660397 0.743014
DOCKED: USER    NEWDPF axisangle0 -0.146170 -0.070658 0.986733 84.022427
DOCKED: USER    NEWDPF quat0 -0.146170 -0.070658 0.986733 84.022427
DOCKED: USER    NEWDPF dihe0 163.43 -47.40 -38.75 -18.62 76.32 -50.04 
DOCKED: USER  keepresnum = 1 
DOCKED: USER  
DOCKED: REMARK  6 active torsions:
DOCKED: REMARK  status: ('A' for Active; 'I' for Inactive)
DOCKED: REMARK    1  A    between atoms: P_1  and  O_3 
DOCKED: REMARK    2  A    between atoms: P_2  and  O_4 
DOCKED: REMARK    3  A    between atoms: O_3  and  C_13 
DOCKED: REMARK    4  A    between atoms: O_4  and  C_14 
DOCKED: REMARK    5  A    between atoms: C_13  and  C_14 
DOCKED: REMARK    6  A    between atoms: C_13  and  C_15 
DOCKED: USER                              x       y       z     vdW  Elec       q    Type
DOCKED: USER                           _______ _______ _______ _____ _____    ______ ____
DOCKED: ROOT
DOCKED: ATOM      1  C   UNL d   1       7.491  12.538  35.213 -0.14 +0.17    +0.193 C 
DOCKED: ENDROOT
DOCKED: BRANCH   1   2
DOCKED: ATOM      2  O   UNL d   1       8.190  13.779  34.861 -0.05 -0.33    -0.356 OA
DOCKED: BRANCH   2   3
DOCKED: ATOM      3  P   UNL d   1       7.994  15.191  35.682 -0.09 -0.02    -0.014 P 
DOCKED: ATOM      4  O   UNL d   1       9.424  15.644  36.013 +0.01 -0.37    -0.577 OA
DOCKED: ATOM      5  O   UNL d   1       7.199  14.871  36.947 +0.01 -0.86    -0.577 OA
DOCKED: ATOM      6  O   UNL d   1       7.293  16.180  34.757 -0.49 -0.96    -0.638 OA
DOCKED: ENDBRANCH   2   3
DOCKED: ENDBRANCH   1   2
DOCKED: BRANCH   1   7
DOCKED: ATOM      7  C   UNL d   1       8.239  11.329  34.539 -0.19 +0.13    +0.201 C 
DOCKED: BRANCH   7   8
DOCKED: ATOM      8  O   UNL d   1       8.959  10.454  35.435 -0.59 -0.28    -0.364 OA
DOCKED: BRANCH   8   9
DOCKED: ATOM      9  P   UNL d   1      10.599  10.598  35.596 -0.25 -0.02    -0.015 P 
DOCKED: ATOM     10  O   UNL d   1      10.881  10.318  37.077 -0.07 -0.64    -0.577 OA
DOCKED: ATOM     11  O   UNL d   1      10.961  12.032  35.207 -0.52 -1.03    -0.577 OA
DOCKED: ATOM     12  O   UNL d   1      11.235   9.552  34.682 +0.01 -0.78    -0.638 OA
DOCKED: ENDBRANCH   8   9
DOCKED: ENDBRANCH   7   8
DOCKED: ENDBRANCH   1   7
DOCKED: BRANCH   1  13
DOCKED: ATOM     13  C   UNL d   1       6.013  12.581  34.675 -0.20 +0.09    +0.073 C 
DOCKED: ATOM     14  O   UNL d   1       5.086  12.061  35.392 -0.41 -0.65    -0.547 OA
DOCKED: ATOM     15  O   UNL d   1       5.813  13.197  33.567 -0.50 -0.65    -0.547 OA
DOCKED: ENDBRANCH   1  13
DOCKED: TORSDOF 6
DOCKED: TER
DOCKED: ENDMDL
________________________________________________________________________________


	BEGINNING GENETIC ALGORITHM DOCKING 24 of 100
Run: 24 Seed: 1079076775 1668286709 [ Run 24 of 100 GA/GALS ]
Beginning LAMARCKIAN GENETIC ALGORITHM (LGA), with a maximum of 25000000 energy evaluations.

Final-Value: -6.969


	FINAL GENETIC ALGORITHM DOCKED STATE
	_______________________________________________


Detailed state:  trans 7.447 11.214 35.675 quatxyzw 0.134618 0.762470 0.632474 -0.022231 center 0.015 0.083 0.031 ntor 6 -179.9825 86.7221 -160.2117 -12.2823 -27.2100 -25.8378
State:	  7.447  11.214  35.675   0.135  0.763  0.633 -177.452   -179.98   86.72 -160.21  -12.28  -27.21  -25.84

DOCKED: MODEL       24
DOCKED: USER    Run = 24
DOCKED: USER    DPF = D:/Protein_go_brrr/autodock/final/1A3N/2_3_BPG/dock.dpf
DOCKED: USER  
DOCKED: USER    Estimated Free Energy of Binding    =   -7.17 kcal/mol  [=(1)+(2)+(3)-(4)]
DOCKED: USER    Estimated Inhibition Constant, Ki   =    5.51 uM (micromolar)  [Temperature = 298.15 K]
DOCKED: USER    
DOCKED: USER    (1) Final Intermolecular Energy     =   -8.96 kcal/mol
DOCKED: USER        vdW + Hbond + desolv Energy     =   -3.24 kcal/mol
DOCKED: USER        Electrostatic Energy            =   -5.72 kcal/mol
DOCKED: USER    (2) Final Total Internal Energy     =   +2.00 kcal/mol
DOCKED: USER    (3) Torsional Free Energy           =   +1.79 kcal/mol
DOCKED: USER    (4) Unbound System's Energy  [=(2)] =   +2.00 kcal/mol
DOCKED: USER    
DOCKED: USER    
DOCKED: USER    NEWDPF move 2_3_BPG_opt.pdbqt
DOCKED: USER    NEWDPF about 0.015000 0.083000 0.031000
DOCKED: USER    NEWDPF tran0 7.446843 11.213956 35.675096
DOCKED: USER    NEWDPF quaternion0 0.134618 0.762470 0.632474 -0.022231
DOCKED: USER    NEWDPF axisangle0 0.134651 0.762658 0.632631 -177.452337
DOCKED: USER    NEWDPF quat0 0.134651 0.762658 0.632631 -177.452337
DOCKED: USER    NEWDPF dihe0 -179.98 86.72 -160.21 -12.28 -27.21 -25.84 
DOCKED: USER  keepresnum = 1 
DOCKED: USER  
DOCKED: REMARK  6 active torsions:
DOCKED: REMARK  status: ('A' for Active; 'I' for Inactive)
DOCKED: REMARK    1  A    between atoms: P_1  and  O_3 
DOCKED: REMARK    2  A    between atoms: P_2  and  O_4 
DOCKED: REMARK    3  A    between atoms: O_3  and  C_13 
DOCKED: REMARK    4  A    between atoms: O_4  and  C_14 
DOCKED: REMARK    5  A    between atoms: C_13  and  C_14 
DOCKED: REMARK    6  A    between atoms: C_13  and  C_15 
DOCKED: USER                              x       y       z     vdW  Elec       q    Type
DOCKED: USER                           _______ _______ _______ _____ _____    ______ ____
DOCKED: ROOT
DOCKED: ATOM      1  C   UNL d   1       7.975  11.115  35.274 -0.19 +0.13    +0.193 C 
DOCKED: ENDROOT
DOCKED: BRANCH   1   2
DOCKED: ATOM      2  O   UNL d   1       8.996  10.384  36.033 -0.59 -0.28    -0.356 OA
DOCKED: BRANCH   2   3
DOCKED: ATOM      3  P   UNL d   1      10.610  10.634  35.847 -0.25 -0.02    -0.014 P 
DOCKED: ATOM      4  O   UNL d   1      11.061   9.524  34.884 -0.05 -0.66    -0.577 OA
DOCKED: ATOM      5  O   UNL d   1      11.254  10.480  37.223 -0.07 -0.75    -0.577 OA
DOCKED: ATOM      6  O   UNL d   1      10.806  12.018  35.235 -0.50 -1.03    -0.638 OA
DOCKED: ENDBRANCH   2   3
DOCKED: ENDBRANCH   1   2
DOCKED: BRANCH   1   7
DOCKED: ATOM      7  C   UNL d   1       6.631  11.101  36.091 -0.19 +0.13    +0.201 C 
DOCKED: BRANCH   7   8
DOCKED: ATOM      8  O   UNL d   1       5.945  12.368  36.200 -0.17 -0.45    -0.364 OA
DOCKED: BRANCH   8   9
DOCKED: ATOM      9  P   UNL d   1       4.315  12.408  36.478 -0.08 -0.02    -0.015 P 
DOCKED: ATOM     10  O   UNL d   1       3.984  11.048  37.107 -0.03 -0.34    -0.577 OA
DOCKED: ATOM     11  O   UNL d   1       3.635  12.590  35.122 -0.39 -0.80    -0.577 OA
DOCKED: ATOM     12  O   UNL d   1       4.050  13.564  37.441 -0.02 -1.24    -0.638 OA
DOCKED: ENDBRANCH   8   9
DOCKED: ENDBRANCH   7   8
DOCKED: ENDBRANCH   1   7
DOCKED: BRANCH   1  13
DOCKED: ATOM     13  C   UNL d   1       7.729  10.413  33.886 -0.39 +0.04    +0.073 C 
DOCKED: ATOM     14  O   UNL d   1       7.824  11.117  32.820 -0.07 -0.23    -0.547 OA
DOCKED: ATOM     15  O   UNL d   1       7.506   9.149  33.905 -0.24 -0.22    -0.547 OA
DOCKED: ENDBRANCH   1  13
DOCKED: TORSDOF 6
DOCKED: TER
DOCKED: ENDMDL
________________________________________________________________________________


	BEGINNING GENETIC ALGORITHM DOCKING 25 of 100
Run: 25 Seed: 630120697 1501714147 [ Run 25 of 100 GA/GALS ]
Beginning LAMARCKIAN GENETIC ALGORITHM (LGA), with a maximum of 25000000 energy evaluations.

Final-Value: -8.042


	FINAL GENETIC ALGORITHM DOCKED STATE
	_______________________________________________


Detailed state:  trans 9.055 -15.113 15.128 quatxyzw -0.227148 0.673787 0.475533 -0.517961 center 0.015 0.083 0.031 ntor 6 -104.0826 -76.9688 -62.3316 -11.2265 2.9818 -15.9672
State:	  9.055 -15.113  15.128  -0.266  0.788  0.556 -117.609   -104.08  -76.97  -62.33  -11.23    2.98  -15.97

DOCKED: MODEL       25
DOCKED: USER    Run = 25
DOCKED: USER    DPF = D:/Protein_go_brrr/autodock/final/1A3N/2_3_BPG/dock.dpf
DOCKED: USER  
DOCKED: USER    Estimated Free Energy of Binding    =   -8.49 kcal/mol  [=(1)+(2)+(3)-(4)]
DOCKED: USER    Estimated Inhibition Constant, Ki   =  602.27 nM (nanomolar)  [Temperature = 298.15 K]
DOCKED: USER    
DOCKED: USER    (1) Final Intermolecular Energy     =  -10.28 kcal/mol
DOCKED: USER        vdW + Hbond + desolv Energy     =   -3.13 kcal/mol
DOCKED: USER        Electrostatic Energy            =   -7.14 kcal/mol
DOCKED: USER    (2) Final Total Internal Energy     =   +2.23 kcal/mol
DOCKED: USER    (3) Torsional Free Energy           =   +1.79 kcal/mol
DOCKED: USER    (4) Unbound System's Energy  [=(2)] =   +2.23 kcal/mol
DOCKED: USER    
DOCKED: USER    
DOCKED: USER    NEWDPF move 2_3_BPG_opt.pdbqt
DOCKED: USER    NEWDPF about 0.015000 0.083000 0.031000
DOCKED: USER    NEWDPF tran0 9.054809 -15.112595 15.128367
DOCKED: USER    NEWDPF quaternion0 -0.227148 0.673787 0.475533 -0.517961
DOCKED: USER    NEWDPF axisangle0 -0.265545 0.787683 0.555916 -117.608815
DOCKED: USER    NEWDPF quat0 -0.265545 0.787683 0.555916 -117.608815
DOCKED: USER    NEWDPF dihe0 -104.08 -76.97 -62.33 -11.23 2.98 -15.97 
DOCKED: USER  keepresnum = 1 
DOCKED: USER  
DOCKED: REMARK  6 active torsions:
DOCKED: REMARK  status: ('A' for Active; 'I' for Inactive)
DOCKED: REMARK    1  A    between atoms: P_1  and  O_3 
DOCKED: REMARK    2  A    between atoms: P_2  and  O_4 
DOCKED: REMARK    3  A    between atoms: O_3  and  C_13 
DOCKED: REMARK    4  A    between atoms: O_4  and  C_14 
DOCKED: REMARK    5  A    between atoms: C_13  and  C_14 
DOCKED: REMARK    6  A    between atoms: C_13  and  C_15 
DOCKED: USER                              x       y       z     vdW  Elec       q    Type
DOCKED: USER                           _______ _______ _______ _____ _____    ______ ____
DOCKED: ROOT
DOCKED: ATOM      1  C   UNL d   1       9.560 -15.279  15.536 -0.04 +0.20    +0.193 C 
DOCKED: ENDROOT
DOCKED: BRANCH   1   2
DOCKED: ATOM      2  O   UNL d   1       8.991 -15.684  16.827 -0.02 -0.34    -0.356 OA
DOCKED: BRANCH   2   3
DOCKED: ATOM      3  P   UNL d   1       9.702 -15.350  18.272 -0.10 -0.02    -0.014 P 
DOCKED: ATOM      4  O   UNL d   1       8.954 -14.111  18.790 -0.04 -0.39    -0.577 OA
DOCKED: ATOM      5  O   UNL d   1      11.172 -15.042  17.992 -0.06 -1.05    -0.577 OA
DOCKED: ATOM      6  O   UNL d   1       9.496 -16.552  19.187 -0.58 -1.08    -0.638 OA
DOCKED: ENDBRANCH   2   3
DOCKED: ENDBRANCH   1   2
DOCKED: BRANCH   1   7
DOCKED: ATOM      7  C   UNL d   1       8.396 -15.167  14.484 -0.01 +0.26    +0.201 C 
DOCKED: BRANCH   7   8
DOCKED: ATOM      8  O   UNL d   1       8.520 -14.100  13.518 -0.20 -0.50    -0.364 OA
DOCKED: BRANCH   8   9
DOCKED: ATOM      9  P   UNL d   1       7.287 -13.792  12.459 -0.34 -0.02    -0.015 P 
DOCKED: ATOM     10  O   UNL d   1       6.865 -12.346  12.748 -0.60 -0.52    -0.577 OA
DOCKED: ATOM     11  O   UNL d   1       6.170 -14.787  12.774 +0.01 -0.68    -0.577 OA
DOCKED: ATOM     12  O   UNL d   1       7.852 -13.954  11.049 -0.39 -1.33    -0.638 OA
DOCKED: ENDBRANCH   8   9
DOCKED: ENDBRANCH   7   8
DOCKED: ENDBRANCH   1   7
DOCKED: BRANCH   1  13
DOCKED: ATOM     13  C   UNL d   1      10.588 -16.361  15.037 -0.08 +0.09    +0.073 C 
DOCKED: ATOM     14  O   UNL d   1      11.501 -16.755  15.845 -0.44 -0.92    -0.547 OA
DOCKED: ATOM     15  O   UNL d   1      10.409 -16.835  13.858 -0.23 -0.84    -0.547 OA
DOCKED: ENDBRANCH   1  13
DOCKED: TORSDOF 6
DOCKED: TER
DOCKED: ENDMDL
________________________________________________________________________________


	BEGINNING GENETIC ALGORITHM DOCKING 26 of 100
Run: 26 Seed: 1571084134 689295636 [ Run 26 of 100 GA/GALS ]
Beginning LAMARCKIAN GENETIC ALGORITHM (LGA), with a maximum of 25000000 energy evaluations.

Final-Value: -6.910


	FINAL GENETIC ALGORITHM DOCKED STATE
	_______________________________________________


Detailed state:  trans -1.862 -3.159 -12.330 quatxyzw -0.417426 0.304959 0.390497 -0.761753 center 0.015 0.083 0.031 ntor 6 155.8957 -70.6919 154.2377 18.1831 -27.0712 -50.2929
State:	 -1.862  -3.159 -12.330  -0.644  0.471  0.603 -80.762    155.90  -70.69  154.24   18.18  -27.07  -50.29

DOCKED: MODEL       26
DOCKED: USER    Run = 26
DOCKED: USER    DPF = D:/Protein_go_brrr/autodock/final/1A3N/2_3_BPG/dock.dpf
DOCKED: USER  
DOCKED: USER    Estimated Free Energy of Binding    =   -7.04 kcal/mol  [=(1)+(2)+(3)-(4)]
DOCKED: USER    Estimated Inhibition Constant, Ki   =    6.93 uM (micromolar)  [Temperature = 298.15 K]
DOCKED: USER    
DOCKED: USER    (1) Final Intermolecular Energy     =   -8.83 kcal/mol
DOCKED: USER        vdW + Hbond + desolv Energy     =   -3.29 kcal/mol
DOCKED: USER        Electrostatic Energy            =   -5.54 kcal/mol
DOCKED: USER    (2) Final Total Internal Energy     =   +1.92 kcal/mol
DOCKED: USER    (3) Torsional Free Energy           =   +1.79 kcal/mol
DOCKED: USER    (4) Unbound System's Energy  [=(2)] =   +1.92 kcal/mol
DOCKED: USER    
DOCKED: USER    
DOCKED: USER    NEWDPF move 2_3_BPG_opt.pdbqt
DOCKED: USER    NEWDPF about 0.015000 0.083000 0.031000
DOCKED: USER    NEWDPF tran0 -1.861567 -3.158527 -12.330479
DOCKED: USER    NEWDPF quaternion0 -0.417426 0.304959 0.390497 -0.761753
DOCKED: USER    NEWDPF axisangle0 -0.644307 0.470712 0.602742 -80.762049
DOCKED: USER    NEWDPF quat0 -0.644307 0.470712 0.602742 -80.762049
DOCKED: USER    NEWDPF dihe0 155.90 -70.69 154.24 18.18 -27.07 -50.29 
DOCKED: USER  keepresnum = 1 
DOCKED: USER  
DOCKED: REMARK  6 active torsions:
DOCKED: REMARK  status: ('A' for Active; 'I' for Inactive)
DOCKED: REMARK    1  A    between atoms: P_1  and  O_3 
DOCKED: REMARK    2  A    between atoms: P_2  and  O_4 
DOCKED: REMARK    3  A    between atoms: O_3  and  C_13 
DOCKED: REMARK    4  A    between atoms: O_4  and  C_14 
DOCKED: REMARK    5  A    between atoms: C_13  and  C_14 
DOCKED: REMARK    6  A    between atoms: C_13  and  C_15 
DOCKED: USER                              x       y       z     vdW  Elec       q    Type
DOCKED: USER                           _______ _______ _______ _____ _____    ______ ____
DOCKED: ROOT
DOCKED: ATOM      1  C   UNL d   1      -1.882  -3.385 -11.700 -0.22 +0.18    +0.193 C 
DOCKED: ENDROOT
DOCKED: BRANCH   1   2
DOCKED: ATOM      2  O   UNL d   1      -3.183  -4.028 -11.486 -0.45 -0.49    -0.356 OA
DOCKED: BRANCH   2   3
DOCKED: ATOM      3  P   UNL d   1      -4.318  -3.447 -10.447 -0.52 -0.02    -0.014 P 
DOCKED: ATOM      4  O   UNL d   1      -5.384  -2.817 -11.357 -0.04 -0.37    -0.577 OA
DOCKED: ATOM      5  O   UNL d   1      -3.635  -2.397  -9.573 -0.24 -0.49    -0.577 OA
DOCKED: ATOM      6  O   UNL d   1      -4.880  -4.624  -9.657 -0.25 -1.00    -0.638 OA
DOCKED: ENDBRANCH   2   3
DOCKED: ENDBRANCH   1   2
DOCKED: BRANCH   1   7
DOCKED: ATOM      7  C   UNL d   1      -1.701  -3.110 -13.238 -0.14 +0.13    +0.201 C 
DOCKED: BRANCH   7   8
DOCKED: ATOM      8  O   UNL d   1      -1.767  -1.725 -13.643 -0.18 -0.29    -0.364 OA
DOCKED: BRANCH   8   9
DOCKED: ATOM      9  P   UNL d   1      -1.033  -1.234 -15.042 -0.32 -0.02    -0.015 P 
DOCKED: ATOM     10  O   UNL d   1       0.063  -2.274 -15.304 -0.02 -0.32    -0.577 OA
DOCKED: ATOM     11  O   UNL d   1      -0.451   0.154 -14.777 -0.12 -0.70    -0.577 OA
DOCKED: ATOM     12  O   UNL d   1      -2.100  -1.236 -16.136 -0.40 -0.95    -0.638 OA
DOCKED: ENDBRANCH   8   9
DOCKED: ENDBRANCH   7   8
DOCKED: ENDBRANCH   1   7
DOCKED: BRANCH   1  13
DOCKED: ATOM     13  C   UNL d   1      -0.724  -4.337 -11.217 -0.19 +0.08    +0.073 C 
DOCKED: ATOM     14  O   UNL d   1       0.359  -3.809 -10.783 -0.05 -0.40    -0.547 OA
DOCKED: ATOM     15  O   UNL d   1      -0.964  -5.598 -11.230 -0.15 -0.90    -0.547 OA
DOCKED: ENDBRANCH   1  13
DOCKED: TORSDOF 6
DOCKED: TER
DOCKED: ENDMDL
________________________________________________________________________________


	BEGINNING GENETIC ALGORITHM DOCKING 27 of 100
Run: 27 Seed: 1029775729 1454241123 [ Run 27 of 100 GA/GALS ]
Beginning LAMARCKIAN GENETIC ALGORITHM (LGA), with a maximum of 25000000 energy evaluations.

Final-Value: -7.177


	FINAL GENETIC ALGORITHM DOCKED STATE
	_______________________________________________


Detailed state:  trans 7.444 11.922 35.943 quatxyzw 0.616423 0.050962 -0.142203 -0.772790 center 0.015 0.083 0.031 ntor 6 149.9034 -112.1259 -146.0564 -21.6754 -46.8189 -47.7424
State:	  7.444  11.922  35.943   0.971  0.080 -0.224 -78.790    149.90 -112.13 -146.06  -21.68  -46.82  -47.74

DOCKED: MODEL       27
DOCKED: USER    Run = 27
DOCKED: USER    DPF = D:/Protein_go_brrr/autodock/final/1A3N/2_3_BPG/dock.dpf
DOCKED: USER  
DOCKED: USER    Estimated Free Energy of Binding    =   -7.58 kcal/mol  [=(1)+(2)+(3)-(4)]
DOCKED: USER    Estimated Inhibition Constant, Ki   =    2.80 uM (micromolar)  [Temperature = 298.15 K]
DOCKED: USER    
DOCKED: USER    (1) Final Intermolecular Energy     =   -9.37 kcal/mol
DOCKED: USER        vdW + Hbond + desolv Energy     =   -3.13 kcal/mol
DOCKED: USER        Electrostatic Energy            =   -6.23 kcal/mol
DOCKED: USER    (2) Final Total Internal Energy     =   +2.19 kcal/mol
DOCKED: USER    (3) Torsional Free Energy           =   +1.79 kcal/mol
DOCKED: USER    (4) Unbound System's Energy  [=(2)] =   +2.19 kcal/mol
DOCKED: USER    
DOCKED: USER    
DOCKED: USER    NEWDPF move 2_3_BPG_opt.pdbqt
DOCKED: USER    NEWDPF about 0.015000 0.083000 0.031000
DOCKED: USER    NEWDPF tran0 7.443906 11.922117 35.942608
DOCKED: USER    NEWDPF quaternion0 0.616423 0.050962 -0.142203 -0.772790
DOCKED: USER    NEWDPF axisangle0 0.971261 0.080298 -0.224061 -78.789898
DOCKED: USER    NEWDPF quat0 0.971261 0.080298 -0.224061 -78.789898
DOCKED: USER    NEWDPF dihe0 149.90 -112.13 -146.06 -21.68 -46.82 -47.74 
DOCKED: USER  keepresnum = 1 
DOCKED: USER  
DOCKED: REMARK  6 active torsions:
DOCKED: REMARK  status: ('A' for Active; 'I' for Inactive)
DOCKED: REMARK    1  A    between atoms: P_1  and  O_3 
DOCKED: REMARK    2  A    between atoms: P_2  and  O_4 
DOCKED: REMARK    3  A    between atoms: O_3  and  C_13 
DOCKED: REMARK    4  A    between atoms: O_4  and  C_14 
DOCKED: REMARK    5  A    between atoms: C_13  and  C_14 
DOCKED: REMARK    6  A    between atoms: C_13  and  C_15 
DOCKED: USER                              x       y       z     vdW  Elec       q    Type
DOCKED: USER                           _______ _______ _______ _____ _____    ______ ____
DOCKED: ROOT
DOCKED: ATOM      1  C   UNL d   1       6.787  11.862  35.821 -0.18 +0.16    +0.193 C 
DOCKED: ENDROOT
DOCKED: BRANCH   1   2
DOCKED: ATOM      2  O   UNL d   1       6.073  12.808  36.685 -0.06 -0.49    -0.356 OA
DOCKED: BRANCH   2   3
DOCKED: ATOM      3  P   UNL d   1       4.517  12.590  37.169 -0.15 -0.02    -0.014 P 
DOCKED: ATOM      4  O   UNL d   1       4.556  11.314  38.025 +0.00 -0.33    -0.577 OA
DOCKED: ATOM      5  O   UNL d   1       3.674  12.397  35.910 -0.19 -0.73    -0.577 OA
DOCKED: ATOM      6  O   UNL d   1       4.106  13.805  37.995 -0.38 -1.01    -0.638 OA
DOCKED: ENDBRANCH   2   3
DOCKED: ENDBRANCH   1   2
DOCKED: BRANCH   1   7
DOCKED: ATOM      7  C   UNL d   1       8.325  12.188  35.877 -0.10 +0.15    +0.201 C 
DOCKED: BRANCH   7   8
DOCKED: ATOM      8  O   UNL d   1       9.156  11.201  36.527 -0.16 -0.27    -0.364 OA
DOCKED: BRANCH   8   9
DOCKED: ATOM      9  P   UNL d   1      10.598  10.754  35.850 -0.23 -0.02    -0.015 P 
DOCKED: ATOM     10  O   UNL d   1      11.160  12.037  35.225 -0.50 -1.18    -0.577 OA
DOCKED: ATOM     11  O   UNL d   1      10.285   9.695  34.793 -0.12 -0.52    -0.577 OA
DOCKED: ATOM     12  O   UNL d   1      11.483  10.230  36.979 -0.03 -0.96    -0.638 OA
DOCKED: ENDBRANCH   8   9
DOCKED: ENDBRANCH   7   8
DOCKED: ENDBRANCH   1   7
DOCKED: BRANCH   1  13
DOCKED: ATOM     13  C   UNL d   1       6.295  12.012  34.333 -0.35 +0.06    +0.073 C 
DOCKED: ATOM     14  O   UNL d   1       6.437  11.017  33.539 -0.13 -0.25    -0.547 OA
DOCKED: ATOM     15  O   UNL d   1       5.716  13.114  34.020 -0.56 -0.84    -0.547 OA
DOCKED: ENDBRANCH   1  13
DOCKED: TORSDOF 6
DOCKED: TER
DOCKED: ENDMDL
________________________________________________________________________________


	BEGINNING GENETIC ALGORITHM DOCKING 28 of 100
Run: 28 Seed: 206699601 410451212 [ Run 28 of 100 GA/GALS ]
Beginning LAMARCKIAN GENETIC ALGORITHM (LGA), with a maximum of 25000000 energy evaluations.

Final-Value: -6.925


	FINAL GENETIC ALGORITHM DOCKED STATE
	_______________________________________________


Detailed state:  trans -5.742 11.893 36.235 quatxyzw -0.840468 0.392219 -0.367127 0.070685 center 0.015 0.083 0.031 ntor 6 159.3406 172.2781 -49.2699 13.9226 -58.1783 -175.7753
State:	 -5.742  11.893  36.235  -0.843  0.393 -0.368 171.893    159.34  172.28  -49.27   13.92  -58.18 -175.78

DOCKED: MODEL       28
DOCKED: USER    Run = 28
DOCKED: USER    DPF = D:/Protein_go_brrr/autodock/final/1A3N/2_3_BPG/dock.dpf
DOCKED: USER  
DOCKED: USER    Estimated Free Energy of Binding    =   -7.56 kcal/mol  [=(1)+(2)+(3)-(4)]
DOCKED: USER    Estimated Inhibition Constant, Ki   =    2.88 uM (micromolar)  [Temperature = 298.15 K]
DOCKED: USER    
DOCKED: USER    (1) Final Intermolecular Energy     =   -9.35 kcal/mol
DOCKED: USER        vdW + Hbond + desolv Energy     =   -3.29 kcal/mol
DOCKED: USER        Electrostatic Energy            =   -6.06 kcal/mol
DOCKED: USER    (2) Final Total Internal Energy     =   +2.42 kcal/mol
DOCKED: USER    (3) Torsional Free Energy           =   +1.79 kcal/mol
DOCKED: USER    (4) Unbound System's Energy  [=(2)] =   +2.42 kcal/mol
DOCKED: USER    
DOCKED: USER    
DOCKED: USER    NEWDPF move 2_3_BPG_opt.pdbqt
DOCKED: USER    NEWDPF about 0.015000 0.083000 0.031000
DOCKED: USER    NEWDPF tran0 -5.742390 11.893297 36.235016
DOCKED: USER    NEWDPF quaternion0 -0.840468 0.392219 -0.367127 0.070685
DOCKED: USER    NEWDPF axisangle0 -0.842575 0.393202 -0.368048 171.893303
DOCKED: USER    NEWDPF quat0 -0.842575 0.393202 -0.368048 171.893303
DOCKED: USER    NEWDPF dihe0 159.34 172.28 -49.27 13.92 -58.18 -175.78 
DOCKED: USER  keepresnum = 1 
DOCKED: USER  
DOCKED: REMARK  6 active torsions:
DOCKED: REMARK  status: ('A' for Active; 'I' for Inactive)
DOCKED: REMARK    1  A    between atoms: P_1  and  O_3 
DOCKED: REMARK    2  A    between atoms: P_2  and  O_4 
DOCKED: REMARK    3  A    between atoms: O_3  and  C_13 
DOCKED: REMARK    4  A    between atoms: O_4  and  C_14 
DOCKED: REMARK    5  A    between atoms: C_13  and  C_14 
DOCKED: REMARK    6  A    between atoms: C_13  and  C_15 
DOCKED: USER                              x       y       z     vdW  Elec       q    Type
DOCKED: USER                           _______ _______ _______ _____ _____    ______ ____
DOCKED: ROOT
DOCKED: ATOM      1  C   UNL d   1      -5.716  12.424  35.827 -0.23 +0.21    +0.193 C 
DOCKED: ENDROOT
DOCKED: BRANCH   1   2
DOCKED: ATOM      2  O   UNL d   1      -7.089  12.779  35.449 -0.34 -0.48    -0.356 OA
DOCKED: BRANCH   2   3
DOCKED: ATOM      3  P   UNL d   1      -7.633  12.753  33.897 -0.26 -0.02    -0.014 P 
DOCKED: ATOM      4  O   UNL d   1      -6.362  12.600  33.048 -0.26 -0.70    -0.577 OA
DOCKED: ATOM      5  O   UNL d   1      -8.324  14.090  33.638 -0.23 -0.80    -0.577 OA
DOCKED: ATOM      6  O   UNL d   1      -8.558  11.550  33.743 -0.48 -1.06    -0.638 OA
DOCKED: ENDBRANCH   2   3
DOCKED: ENDBRANCH   1   2
DOCKED: BRANCH   1   7
DOCKED: ATOM      7  C   UNL d   1      -5.770  11.379  37.001 -0.23 +0.14    +0.201 C 
DOCKED: BRANCH   7   8
DOCKED: ATOM      8  O   UNL d   1      -7.035  11.270  37.690 -0.09 -0.25    -0.364 OA
DOCKED: BRANCH   8   9
DOCKED: ATOM      9  P   UNL d   1      -7.785   9.801  37.820 -0.23 -0.01    -0.015 P 
DOCKED: ATOM     10  O   UNL d   1      -8.198   9.693  39.293 +0.00 -0.24    -0.577 OA
DOCKED: ATOM     11  O   UNL d   1      -6.756   8.739  37.436 -0.11 -0.45    -0.577 OA
DOCKED: ATOM     12  O   UNL d   1      -8.994   9.828  36.886 -0.33 -1.17    -0.638 OA
DOCKED: ENDBRANCH   8   9
DOCKED: ENDBRANCH   7   8
DOCKED: ENDBRANCH   1   7
DOCKED: BRANCH   1  13
DOCKED: ATOM     13  C   UNL d   1      -4.946  13.704  36.325 -0.21 +0.09    +0.073 C 
DOCKED: ATOM     14  O   UNL d   1      -3.689  13.789  36.095 -0.14 -0.55    -0.547 OA
DOCKED: ATOM     15  O   UNL d   1      -5.645  14.624  36.884 -0.17 -0.77    -0.547 OA
DOCKED: ENDBRANCH   1  13
DOCKED: TORSDOF 6
DOCKED: TER
DOCKED: ENDMDL
________________________________________________________________________________


	BEGINNING GENETIC ALGORITHM DOCKING 29 of 100
Run: 29 Seed: 1439753508 1171782650 [ Run 29 of 100 GA/GALS ]
Beginning LAMARCKIAN GENETIC ALGORITHM (LGA), with a maximum of 25000000 energy evaluations.

Final-Value: -7.645


	FINAL GENETIC ALGORITHM DOCKED STATE
	_______________________________________________


Detailed state:  trans 7.835 -14.792 13.567 quatxyzw -0.944156 0.030123 -0.324355 0.049566 center 0.015 0.083 0.031 ntor 6 -122.4532 151.5981 -45.4058 14.9111 27.6915 -37.3057
State:	  7.835 -14.792  13.567  -0.945  0.030 -0.325 174.318   -122.45  151.60  -45.41   14.91   27.69  -37.31

DOCKED: MODEL       29
DOCKED: USER    Run = 29
DOCKED: USER    DPF = D:/Protein_go_brrr/autodock/final/1A3N/2_3_BPG/dock.dpf
DOCKED: USER  
DOCKED: USER    Estimated Free Energy of Binding    =   -7.97 kcal/mol  [=(1)+(2)+(3)-(4)]
DOCKED: USER    Estimated Inhibition Constant, Ki   =    1.44 uM (micromolar)  [Temperature = 298.15 K]
DOCKED: USER    
DOCKED: USER    (1) Final Intermolecular Energy     =   -9.76 kcal/mol
DOCKED: USER        vdW + Hbond + desolv Energy     =   -3.53 kcal/mol
DOCKED: USER        Electrostatic Energy            =   -6.23 kcal/mol
DOCKED: USER    (2) Final Total Internal Energy     =   +2.11 kcal/mol
DOCKED: USER    (3) Torsional Free Energy           =   +1.79 kcal/mol
DOCKED: USER    (4) Unbound System's Energy  [=(2)] =   +2.11 kcal/mol
DOCKED: USER    
DOCKED: USER    
DOCKED: USER    NEWDPF move 2_3_BPG_opt.pdbqt
DOCKED: USER    NEWDPF about 0.015000 0.083000 0.031000
DOCKED: USER    NEWDPF tran0 7.834501 -14.792141 13.567090
DOCKED: USER    NEWDPF quaternion0 -0.944156 0.030123 -0.324355 0.049566
DOCKED: USER    NEWDPF axisangle0 -0.945318 0.030160 -0.324754 174.317876
DOCKED: USER    NEWDPF quat0 -0.945318 0.030160 -0.324754 174.317876
DOCKED: USER    NEWDPF dihe0 -122.45 151.60 -45.41 14.91 27.69 -37.31 
DOCKED: USER  keepresnum = 1 
DOCKED: USER  
DOCKED: REMARK  6 active torsions:
DOCKED: REMARK  status: ('A' for Active; 'I' for Inactive)
DOCKED: REMARK    1  A    between atoms: P_1  and  O_3 
DOCKED: REMARK    2  A    between atoms: P_2  and  O_4 
DOCKED: REMARK    3  A    between atoms: O_3  and  C_13 
DOCKED: REMARK    4  A    between atoms: O_4  and  C_14 
DOCKED: REMARK    5  A    between atoms: C_13  and  C_14 
DOCKED: REMARK    6  A    between atoms: C_13  and  C_15 
DOCKED: USER                              x       y       z     vdW  Elec       q    Type
DOCKED: USER                           _______ _______ _______ _____ _____    ______ ____
DOCKED: ROOT
DOCKED: ATOM      1  C   UNL d   1       7.457 -14.478  13.110 +0.03 +0.30    +0.193 C 
DOCKED: ENDROOT
DOCKED: BRANCH   1   2
DOCKED: ATOM      2  O   UNL d   1       6.167 -15.172  13.028 -0.07 -0.43    -0.356 OA
DOCKED: BRANCH   2   3
DOCKED: ATOM      3  P   UNL d   1       5.629 -15.917  11.664 -0.47 -0.02    -0.014 P 
DOCKED: ATOM      4  O   UNL d   1       6.204 -15.075  10.515 -0.33 -0.90    -0.577 OA
DOCKED: ATOM      5  O   UNL d   1       4.103 -15.863  11.692 -0.01 -0.40    -0.577 OA
DOCKED: ATOM      6  O   UNL d   1       6.186 -17.337  11.652 -0.44 -1.35    -0.638 OA
DOCKED: ENDBRANCH   2   3
DOCKED: ENDBRANCH   1   2
DOCKED: BRANCH   1   7
DOCKED: ATOM      7  C   UNL d   1       8.238 -15.011  14.368 -0.03 +0.26    +0.201 C 
DOCKED: BRANCH   7   8
DOCKED: ATOM      8  O   UNL d   1       9.538 -15.584  14.107 -0.60 -0.61    -0.364 OA
DOCKED: BRANCH   8   9
DOCKED: ATOM      9  P   UNL d   1      10.119 -16.797  15.070 -0.11 -0.02    -0.015 P 
DOCKED: ATOM     10  O   UNL d   1      10.736 -17.814  14.102 -0.03 -0.67    -0.577 OA
DOCKED: ATOM     11  O   UNL d   1       8.923 -17.380  15.823 +0.01 -0.57    -0.577 OA
DOCKED: ATOM     12  O   UNL d   1      11.165 -16.178  15.996 -0.49 -1.03    -0.638 OA
DOCKED: ENDBRANCH   8   9
DOCKED: ENDBRANCH   7   8
DOCKED: ENDBRANCH   1   7
DOCKED: BRANCH   1  13
DOCKED: ATOM     13  C   UNL d   1       7.228 -12.930  13.278 -0.26 +0.07    +0.073 C 
DOCKED: ATOM     14  O   UNL d   1       6.740 -12.274  12.292 -0.54 -0.49    -0.547 OA
DOCKED: ATOM     15  O   UNL d   1       7.487 -12.424  14.429 -0.19 -0.36    -0.547 OA
DOCKED: ENDBRANCH   1  13
DOCKED: TORSDOF 6
DOCKED: TER
DOCKED: ENDMDL
________________________________________________________________________________


	BEGINNING GENETIC ALGORITHM DOCKING 30 of 100
Run: 30 Seed: 839845296 1081640497 [ Run 30 of 100 GA/GALS ]
Beginning LAMARCKIAN GENETIC ALGORITHM (LGA), with a maximum of 25000000 energy evaluations.

Final-Value: -6.907


	FINAL GENETIC ALGORITHM DOCKED STATE
	_______________________________________________


Detailed state:  trans -1.902 -3.425 -12.494 quatxyzw -0.271714 0.420501 0.337113 -0.797312 center 0.015 0.083 0.031 ntor 6 -137.8038 -83.1517 146.4855 19.1821 -49.9676 -60.2844
State:	 -1.902  -3.425 -12.494  -0.450  0.697  0.559 -74.252   -137.80  -83.15  146.49   19.18  -49.97  -60.28

DOCKED: MODEL       30
DOCKED: USER    Run = 30
DOCKED: USER    DPF = D:/Protein_go_brrr/autodock/final/1A3N/2_3_BPG/dock.dpf
DOCKED: USER  
DOCKED: USER    Estimated Free Energy of Binding    =   -7.10 kcal/mol  [=(1)+(2)+(3)-(4)]
DOCKED: USER    Estimated Inhibition Constant, Ki   =    6.24 uM (micromolar)  [Temperature = 298.15 K]
DOCKED: USER    
DOCKED: USER    (1) Final Intermolecular Energy     =   -8.89 kcal/mol
DOCKED: USER        vdW + Hbond + desolv Energy     =   -3.33 kcal/mol
DOCKED: USER        Electrostatic Energy            =   -5.56 kcal/mol
DOCKED: USER    (2) Final Total Internal Energy     =   +1.98 kcal/mol
DOCKED: USER    (3) Torsional Free Energy           =   +1.79 kcal/mol
DOCKED: USER    (4) Unbound System's Energy  [=(2)] =   +1.98 kcal/mol
DOCKED: USER    
DOCKED: USER    
DOCKED: USER    NEWDPF move 2_3_BPG_opt.pdbqt
DOCKED: USER    NEWDPF about 0.015000 0.083000 0.031000
DOCKED: USER    NEWDPF tran0 -1.902106 -3.425230 -12.494469
DOCKED: USER    NEWDPF quaternion0 -0.271714 0.420501 0.337113 -0.797312
DOCKED: USER    NEWDPF axisangle0 -0.450179 0.696692 0.558533 -74.251726
DOCKED: USER    NEWDPF quat0 -0.450179 0.696692 0.558533 -74.251726
DOCKED: USER    NEWDPF dihe0 -137.80 -83.15 146.49 19.18 -49.97 -60.28 
DOCKED: USER  keepresnum = 1 
DOCKED: USER  
DOCKED: REMARK  6 active torsions:
DOCKED: REMARK  status: ('A' for Active; 'I' for Inactive)
DOCKED: REMARK    1  A    between atoms: P_1  and  O_3 
DOCKED: REMARK    2  A    between atoms: P_2  and  O_4 
DOCKED: REMARK    3  A    between atoms: O_3  and  C_13 
DOCKED: REMARK    4  A    between atoms: O_4  and  C_14 
DOCKED: REMARK    5  A    between atoms: C_13  and  C_14 
DOCKED: REMARK    6  A    between atoms: C_13  and  C_15 
DOCKED: USER                              x       y       z     vdW  Elec       q    Type
DOCKED: USER                           _______ _______ _______ _____ _____    ______ ____
DOCKED: ROOT
DOCKED: ATOM      1  C   UNL d   1      -1.863  -3.735 -11.901 -0.19 +0.19    +0.193 C 
DOCKED: ENDROOT
DOCKED: BRANCH   1   2
DOCKED: ATOM      2  O   UNL d   1      -3.228  -4.021 -11.445 -0.47 -0.49    -0.356 OA
DOCKED: BRANCH   2   3
DOCKED: ATOM      3  P   UNL d   1      -3.909  -3.307 -10.129 -0.36 -0.02    -0.014 P 
DOCKED: ATOM      4  O   UNL d   1      -4.647  -2.084 -10.697 -0.15 -0.38    -0.577 OA
DOCKED: ATOM      5  O   UNL d   1      -2.771  -2.894  -9.199 -0.13 -0.79    -0.577 OA
DOCKED: ATOM      6  O   UNL d   1      -4.877  -4.303  -9.501 -0.23 -0.91    -0.638 OA
DOCKED: ENDBRANCH   2   3
DOCKED: ENDBRANCH   1   2
DOCKED: BRANCH   1   7
DOCKED: ATOM      7  C   UNL d   1      -1.919  -3.279 -13.406 -0.12 +0.13    +0.201 C 
DOCKED: BRANCH   7   8
DOCKED: ATOM      8  O   UNL d   1      -1.866  -1.854 -13.635 -0.17 -0.28    -0.364 OA
DOCKED: BRANCH   8   9
DOCKED: ATOM      9  P   UNL d   1      -0.849  -1.236 -14.784 -0.37 -0.01    -0.015 P 
DOCKED: ATOM     10  O   UNL d   1       0.350  -2.191 -14.810 -0.07 -0.32    -0.577 OA
DOCKED: ATOM     11  O   UNL d   1      -0.452   0.166 -14.321 -0.14 -0.58    -0.577 OA
DOCKED: ATOM     12  O   UNL d   1      -1.611  -1.235 -16.108 -0.49 -0.86    -0.638 OA
DOCKED: ENDBRANCH   8   9
DOCKED: ENDBRANCH   7   8
DOCKED: ENDBRANCH   1   7
DOCKED: BRANCH   1  13
DOCKED: ATOM     13  C   UNL d   1      -0.977  -5.032 -11.800 -0.15 +0.08    +0.073 C 
DOCKED: ATOM     14  O   UNL d   1      -0.433  -5.314 -10.675 -0.31 -0.94    -0.547 OA
DOCKED: ATOM     15  O   UNL d   1      -0.904  -5.771 -12.847 +0.01 -0.36    -0.547 OA
DOCKED: ENDBRANCH   1  13
DOCKED: TORSDOF 6
DOCKED: TER
DOCKED: ENDMDL
________________________________________________________________________________


	BEGINNING GENETIC ALGORITHM DOCKING 31 of 100
Run: 31 Seed: 2142717934 287387881 [ Run 31 of 100 GA/GALS ]
Beginning LAMARCKIAN GENETIC ALGORITHM (LGA), with a maximum of 25000000 energy evaluations.

Final-Value: -7.472


	FINAL GENETIC ALGORITHM DOCKED STATE
	_______________________________________________


Detailed state:  trans 7.113 -15.177 14.168 quatxyzw -0.425099 0.304049 0.836831 0.162967 center 0.015 0.083 0.031 ntor 6 21.9196 -115.0929 58.8529 162.9628 -9.4773 23.7970
State:	  7.113 -15.177  14.168  -0.431  0.308  0.848 161.242     21.92 -115.09   58.85  162.96   -9.48   23.80

DOCKED: MODEL       31
DOCKED: USER    Run = 31
DOCKED: USER    DPF = D:/Protein_go_brrr/autodock/final/1A3N/2_3_BPG/dock.dpf
DOCKED: USER  
DOCKED: USER    Estimated Free Energy of Binding    =   -8.33 kcal/mol  [=(1)+(2)+(3)-(4)]
DOCKED: USER    Estimated Inhibition Constant, Ki   =  781.49 nM (nanomolar)  [Temperature = 298.15 K]
DOCKED: USER    
DOCKED: USER    (1) Final Intermolecular Energy     =  -10.12 kcal/mol
DOCKED: USER        vdW + Hbond + desolv Energy     =   -3.48 kcal/mol
DOCKED: USER        Electrostatic Energy            =   -6.64 kcal/mol
DOCKED: USER    (2) Final Total Internal Energy     =   +2.65 kcal/mol
DOCKED: USER    (3) Torsional Free Energy           =   +1.79 kcal/mol
DOCKED: USER    (4) Unbound System's Energy  [=(2)] =   +2.65 kcal/mol
DOCKED: USER    
DOCKED: USER    
DOCKED: USER    NEWDPF move 2_3_BPG_opt.pdbqt
DOCKED: USER    NEWDPF about 0.015000 0.083000 0.031000
DOCKED: USER    NEWDPF tran0 7.112649 -15.177117 14.168498
DOCKED: USER    NEWDPF quaternion0 -0.425099 0.304049 0.836831 0.162967
DOCKED: USER    NEWDPF axisangle0 -0.430859 0.308169 0.848170 161.241711
DOCKED: USER    NEWDPF quat0 -0.430859 0.308169 0.848170 161.241711
DOCKED: USER    NEWDPF dihe0 21.92 -115.09 58.85 162.96 -9.48 23.80 
DOCKED: USER  keepresnum = 1 
DOCKED: USER  
DOCKED: REMARK  6 active torsions:
DOCKED: REMARK  status: ('A' for Active; 'I' for Inactive)
DOCKED: REMARK    1  A    between atoms: P_1  and  O_3 
DOCKED: REMARK    2  A    between atoms: P_2  and  O_4 
DOCKED: REMARK    3  A    between atoms: O_3  and  C_13 
DOCKED: REMARK    4  A    between atoms: O_4  and  C_14 
DOCKED: REMARK    5  A    between atoms: C_13  and  C_14 
DOCKED: REMARK    6  A    between atoms: C_13  and  C_15 
DOCKED: USER                              x       y       z     vdW  Elec       q    Type
DOCKED: USER                           _______ _______ _______ _____ _____    ______ ____
DOCKED: ROOT
DOCKED: ATOM      1  C   UNL d   1       7.376 -14.594  14.368 -0.07 +0.19    +0.193 C 
DOCKED: ENDROOT
DOCKED: BRANCH   1   2
DOCKED: ATOM      2  O   UNL d   1       8.523 -14.882  15.235 -0.03 -0.33    -0.356 OA
DOCKED: BRANCH   2   3
DOCKED: ATOM      3  P   UNL d   1       9.466 -16.219  15.071 -0.09 -0.02    -0.014 P 
DOCKED: ATOM      4  O   UNL d   1      10.059 -16.099  13.659 -0.44 -1.11    -0.577 OA
DOCKED: ATOM      5  O   UNL d   1       8.551 -17.436  15.194 -0.01 -0.60    -0.577 OA
DOCKED: ATOM      6  O   UNL d   1      10.552 -16.165  16.141 -0.27 -0.94    -0.638 OA
DOCKED: ENDBRANCH   2   3
DOCKED: ENDBRANCH   1   2
DOCKED: BRANCH   1   7
DOCKED: ATOM      7  C   UNL d   1       6.929 -15.927  13.662 +0.09 +0.30    +0.201 C 
DOCKED: BRANCH   7   8
DOCKED: ATOM      8  O   UNL d   1       5.849 -15.805  12.710 -0.11 -0.46    -0.364 OA
DOCKED: BRANCH   8   9
DOCKED: ATOM      9  P   UNL d   1       5.401 -17.106  11.792 -0.47 -0.02    -0.015 P 
DOCKED: ATOM     10  O   UNL d   1       5.634 -16.670  10.341 -0.27 -0.92    -0.577 OA
DOCKED: ATOM     11  O   UNL d   1       3.923 -17.367  12.080 -0.50 -0.37    -0.577 OA
DOCKED: ATOM     12  O   UNL d   1       6.304 -18.273  12.192 -0.47 -0.94    -0.638 OA
DOCKED: ENDBRANCH   8   9
DOCKED: ENDBRANCH   7   8
DOCKED: ENDBRANCH   1   7
DOCKED: BRANCH   1  13
DOCKED: ATOM     13  C   UNL d   1       7.785 -13.551  13.261 -0.23 +0.08    +0.073 C 
DOCKED: ATOM     14  O   UNL d   1       8.497 -13.953  12.276 -0.06 -1.02    -0.547 OA
DOCKED: ATOM     15  O   UNL d   1       7.320 -12.360  13.383 -0.57 -0.48    -0.547 OA
DOCKED: ENDBRANCH   1  13
DOCKED: TORSDOF 6
DOCKED: TER
DOCKED: ENDMDL
________________________________________________________________________________


	BEGINNING GENETIC ALGORITHM DOCKING 32 of 100
Run: 32 Seed: 1360206236 1539358568 [ Run 32 of 100 GA/GALS ]
Beginning LAMARCKIAN GENETIC ALGORITHM (LGA), with a maximum of 25000000 energy evaluations.

Final-Value: -7.088


	FINAL GENETIC ALGORITHM DOCKED STATE
	_______________________________________________


Detailed state:  trans -7.412 12.682 36.852 quatxyzw 0.195131 0.689320 -0.076186 0.693511 center 0.015 0.083 0.031 ntor 6 -166.3042 19.0745 32.5311 9.4829 -51.8556 179.9930
State:	 -7.412  12.682  36.852   0.271  0.957 -0.106 92.183   -166.30   19.07   32.53    9.48  -51.86  179.99

DOCKED: MODEL       32
DOCKED: USER    Run = 32
DOCKED: USER    DPF = D:/Protein_go_brrr/autodock/final/1A3N/2_3_BPG/dock.dpf
DOCKED: USER  
DOCKED: USER    Estimated Free Energy of Binding    =   -7.65 kcal/mol  [=(1)+(2)+(3)-(4)]
DOCKED: USER    Estimated Inhibition Constant, Ki   =    2.48 uM (micromolar)  [Temperature = 298.15 K]
DOCKED: USER    
DOCKED: USER    (1) Final Intermolecular Energy     =   -9.44 kcal/mol
DOCKED: USER        vdW + Hbond + desolv Energy     =   -3.10 kcal/mol
DOCKED: USER        Electrostatic Energy            =   -6.34 kcal/mol
DOCKED: USER    (2) Final Total Internal Energy     =   +2.35 kcal/mol
DOCKED: USER    (3) Torsional Free Energy           =   +1.79 kcal/mol
DOCKED: USER    (4) Unbound System's Energy  [=(2)] =   +2.35 kcal/mol
DOCKED: USER    
DOCKED: USER    
DOCKED: USER    NEWDPF move 2_3_BPG_opt.pdbqt
DOCKED: USER    NEWDPF about 0.015000 0.083000 0.031000
DOCKED: USER    NEWDPF tran0 -7.411974 12.681579 36.852349
DOCKED: USER    NEWDPF quaternion0 0.195131 0.689320 -0.076186 0.693511
DOCKED: USER    NEWDPF axisangle0 0.270847 0.956796 -0.105749 92.182661
DOCKED: USER    NEWDPF quat0 0.270847 0.956796 -0.105749 92.182661
DOCKED: USER    NEWDPF dihe0 -166.30 19.07 32.53 9.48 -51.86 179.99 
DOCKED: USER  keepresnum = 1 
DOCKED: USER  
DOCKED: REMARK  6 active torsions:
DOCKED: REMARK  status: ('A' for Active; 'I' for Inactive)
DOCKED: REMARK    1  A    between atoms: P_1  and  O_3 
DOCKED: REMARK    2  A    between atoms: P_2  and  O_4 
DOCKED: REMARK    3  A    between atoms: O_3  and  C_13 
DOCKED: REMARK    4  A    between atoms: O_4  and  C_14 
DOCKED: REMARK    5  A    between atoms: C_13  and  C_14 
DOCKED: REMARK    6  A    between atoms: C_13  and  C_15 
DOCKED: USER                              x       y       z     vdW  Elec       q    Type
DOCKED: USER                           _______ _______ _______ _____ _____    ______ ____
DOCKED: ROOT
DOCKED: ATOM      1  C   UNL d   1      -7.577  12.193  36.424 -0.14 +0.19    +0.193 C 
DOCKED: ENDROOT
DOCKED: BRANCH   1   2
DOCKED: ATOM      2  O   UNL d   1      -6.853  12.421  35.169 -0.33 -0.47    -0.356 OA
DOCKED: BRANCH   2   3
DOCKED: ATOM      3  P   UNL d   1      -7.600  12.590  33.713 -0.33 -0.02    -0.014 P 
DOCKED: ATOM      4  O   UNL d   1      -6.473  12.418  32.683 -0.16 -0.60    -0.577 OA
DOCKED: ATOM      5  O   UNL d   1      -8.192  13.997  33.669 -0.30 -0.84    -0.577 OA
DOCKED: ATOM      6  O   UNL d   1      -8.645  11.486  33.589 -0.53 -1.07    -0.638 OA
DOCKED: ENDBRANCH   2   3
DOCKED: ENDBRANCH   1   2
DOCKED: BRANCH   1   7
DOCKED: ATOM      7  C   UNL d   1      -6.989  13.148  37.527 -0.06 +0.14    +0.201 C 
DOCKED: BRANCH   7   8
DOCKED: ATOM      8  O   UNL d   1      -5.662  13.660  37.275 -0.06 -0.33    -0.364 OA
DOCKED: BRANCH   8   9
DOCKED: ATOM      9  P   UNL d   1      -5.352  15.278  37.436 -0.10 -0.02    -0.015 P 
DOCKED: ATOM     10  O   UNL d   1      -4.318  15.596  36.349 -0.51 -1.09    -0.577 OA
DOCKED: ATOM     11  O   UNL d   1      -4.788  15.486  38.841 +0.02 -0.28    -0.577 OA
DOCKED: ATOM     12  O   UNL d   1      -6.671  16.014  37.206 -0.04 -0.72    -0.638 OA
DOCKED: ENDBRANCH   8   9
DOCKED: ENDBRANCH   7   8
DOCKED: ENDBRANCH   1   7
DOCKED: BRANCH   1  13
DOCKED: ATOM     13  C   UNL d   1      -7.387  10.702  36.894 -0.12 +0.08    +0.073 C 
DOCKED: ATOM     14  O   UNL d   1      -8.404   9.924  36.886 -0.35 -0.90    -0.547 OA
DOCKED: ATOM     15  O   UNL d   1      -6.195  10.336  37.201 -0.08 -0.41    -0.547 OA
DOCKED: ENDBRANCH   1  13
DOCKED: TORSDOF 6
DOCKED: TER
DOCKED: ENDMDL
________________________________________________________________________________


	BEGINNING GENETIC ALGORITHM DOCKING 33 of 100
Run: 33 Seed: 605492706 2062464535 [ Run 33 of 100 GA/GALS ]
Beginning LAMARCKIAN GENETIC ALGORITHM (LGA), with a maximum of 25000000 energy evaluations.

Final-Value: -7.424


	FINAL GENETIC ALGORITHM DOCKED STATE
	_______________________________________________


Detailed state:  trans -6.783 12.679 36.646 quatxyzw 0.299129 0.582602 -0.075094 0.751969 center 0.015 0.083 0.031 ntor 6 -142.6180 -9.5161 -0.7372 22.3987 -27.7485 -160.6933
State:	 -6.783  12.679  36.646   0.454  0.884 -0.114 82.478   -142.62   -9.52   -0.74   22.40  -27.75 -160.69

DOCKED: MODEL       33
DOCKED: USER    Run = 33
DOCKED: USER    DPF = D:/Protein_go_brrr/autodock/final/1A3N/2_3_BPG/dock.dpf
DOCKED: USER  
DOCKED: USER    Estimated Free Energy of Binding    =   -7.85 kcal/mol  [=(1)+(2)+(3)-(4)]
DOCKED: USER    Estimated Inhibition Constant, Ki   =    1.77 uM (micromolar)  [Temperature = 298.15 K]
DOCKED: USER    
DOCKED: USER    (1) Final Intermolecular Energy     =   -9.64 kcal/mol
DOCKED: USER        vdW + Hbond + desolv Energy     =   -3.41 kcal/mol
DOCKED: USER        Electrostatic Energy            =   -6.23 kcal/mol
DOCKED: USER    (2) Final Total Internal Energy     =   +2.21 kcal/mol
DOCKED: USER    (3) Torsional Free Energy           =   +1.79 kcal/mol
DOCKED: USER    (4) Unbound System's Energy  [=(2)] =   +2.21 kcal/mol
DOCKED: USER    
DOCKED: USER    
DOCKED: USER    NEWDPF move 2_3_BPG_opt.pdbqt
DOCKED: USER    NEWDPF about 0.015000 0.083000 0.031000
DOCKED: USER    NEWDPF tran0 -6.782788 12.679427 36.646132
DOCKED: USER    NEWDPF quaternion0 0.299129 0.582602 -0.075094 0.751969
DOCKED: USER    NEWDPF axisangle0 0.453777 0.883804 -0.113917 82.477527
DOCKED: USER    NEWDPF quat0 0.453777 0.883804 -0.113917 82.477527
DOCKED: USER    NEWDPF dihe0 -142.62 -9.52 -0.74 22.40 -27.75 -160.69 
DOCKED: USER  keepresnum = 1 
DOCKED: USER  
DOCKED: REMARK  6 active torsions:
DOCKED: REMARK  status: ('A' for Active; 'I' for Inactive)
DOCKED: REMARK    1  A    between atoms: P_1  and  O_3 
DOCKED: REMARK    2  A    between atoms: P_2  and  O_4 
DOCKED: REMARK    3  A    between atoms: O_3  and  C_13 
DOCKED: REMARK    4  A    between atoms: O_4  and  C_14 
DOCKED: REMARK    5  A    between atoms: C_13  and  C_14 
DOCKED: REMARK    6  A    between atoms: C_13  and  C_15 
DOCKED: USER                              x       y       z     vdW  Elec       q    Type
DOCKED: USER                           _______ _______ _______ _____ _____    ______ ____
DOCKED: ROOT
DOCKED: ATOM      1  C   UNL d   1      -7.124  12.190  36.340 -0.17 +0.19    +0.193 C 
DOCKED: ENDROOT
DOCKED: BRANCH   1   2
DOCKED: ATOM      2  O   UNL d   1      -6.669  12.119  34.947 -0.27 -0.45    -0.356 OA
DOCKED: BRANCH   2   3
DOCKED: ATOM      3  P   UNL d   1      -7.600  12.571  33.669 -0.33 -0.02    -0.014 P 
DOCKED: ATOM      4  O   UNL d   1      -6.617  12.656  32.490 -0.16 -0.60    -0.577 OA
DOCKED: ATOM      5  O   UNL d   1      -8.195  13.937  34.003 -0.35 -0.87    -0.577 OA
DOCKED: ATOM      6  O   UNL d   1      -8.650  11.488  33.445 -0.53 -1.02    -0.638 OA
DOCKED: ENDBRANCH   2   3
DOCKED: ENDBRANCH   1   2
DOCKED: BRANCH   1   7
DOCKED: ATOM      7  C   UNL d   1      -6.143  13.121  37.144 -0.12 +0.17    +0.201 C 
DOCKED: BRANCH   7   8
DOCKED: ATOM      8  O   UNL d   1      -5.035  13.667  36.395 -0.17 -0.46    -0.364 OA
DOCKED: BRANCH   8   9
DOCKED: ATOM      9  P   UNL d   1      -4.314  15.073  36.885 -0.06 -0.02    -0.015 P 
DOCKED: ATOM     10  O   UNL d   1      -3.226  15.348  35.840 -0.38 -0.72    -0.577 OA
DOCKED: ATOM     11  O   UNL d   1      -3.723  14.812  38.270 +0.02 -0.31    -0.577 OA
DOCKED: ATOM     12  O   UNL d   1      -5.393  16.155  36.889 -0.36 -1.00    -0.638 OA
DOCKED: ENDBRANCH   8   9
DOCKED: ENDBRANCH   7   8
DOCKED: ENDBRANCH   1   7
DOCKED: BRANCH   1  13
DOCKED: ATOM     13  C   UNL d   1      -7.102  10.756  36.989 -0.14 +0.07    +0.073 C 
DOCKED: ATOM     14  O   UNL d   1      -8.147  10.022  36.885 -0.32 -0.83    -0.547 OA
DOCKED: ATOM     15  O   UNL d   1      -6.003  10.380  37.535 -0.06 -0.36    -0.547 OA
DOCKED: ENDBRANCH   1  13
DOCKED: TORSDOF 6
DOCKED: TER
DOCKED: ENDMDL
________________________________________________________________________________


	BEGINNING GENETIC ALGORITHM DOCKING 34 of 100
Run: 34 Seed: 1571336520 50702485 [ Run 34 of 100 GA/GALS ]
Beginning LAMARCKIAN GENETIC ALGORITHM (LGA), with a maximum of 25000000 energy evaluations.

Final-Value: -7.502


	FINAL GENETIC ALGORITHM DOCKED STATE
	_______________________________________________


Detailed state:  trans -6.302 11.921 36.237 quatxyzw -0.703733 0.540466 -0.429219 0.168607 center 0.015 0.083 0.031 ntor 6 -41.2429 135.3054 -133.3195 27.7148 38.1733 -50.3878
State:	 -6.302  11.921  36.237  -0.714  0.548 -0.435 160.586    -41.24  135.31 -133.32   27.71   38.17  -50.39

DOCKED: MODEL       34
DOCKED: USER    Run = 34
DOCKED: USER    DPF = D:/Protein_go_brrr/autodock/final/1A3N/2_3_BPG/dock.dpf
DOCKED: USER  
DOCKED: USER    Estimated Free Energy of Binding    =   -7.96 kcal/mol  [=(1)+(2)+(3)-(4)]
DOCKED: USER    Estimated Inhibition Constant, Ki   =    1.46 uM (micromolar)  [Temperature = 298.15 K]
DOCKED: USER    
DOCKED: USER    (1) Final Intermolecular Energy     =   -9.75 kcal/mol
DOCKED: USER        vdW + Hbond + desolv Energy     =   -3.37 kcal/mol
DOCKED: USER        Electrostatic Energy            =   -6.38 kcal/mol
DOCKED: USER    (2) Final Total Internal Energy     =   +2.25 kcal/mol
DOCKED: USER    (3) Torsional Free Energy           =   +1.79 kcal/mol
DOCKED: USER    (4) Unbound System's Energy  [=(2)] =   +2.25 kcal/mol
DOCKED: USER    
DOCKED: USER    
DOCKED: USER    NEWDPF move 2_3_BPG_opt.pdbqt
DOCKED: USER    NEWDPF about 0.015000 0.083000 0.031000
DOCKED: USER    NEWDPF tran0 -6.301808 11.920726 36.236583
DOCKED: USER    NEWDPF quaternion0 -0.703733 0.540466 -0.429219 0.168607
DOCKED: USER    NEWDPF axisangle0 -0.713954 0.548316 -0.435453 160.586376
DOCKED: USER    NEWDPF quat0 -0.713954 0.548316 -0.435453 160.586376
DOCKED: USER    NEWDPF dihe0 -41.24 135.31 -133.32 27.71 38.17 -50.39 
DOCKED: USER  keepresnum = 1 
DOCKED: USER  
DOCKED: REMARK  6 active torsions:
DOCKED: REMARK  status: ('A' for Active; 'I' for Inactive)
DOCKED: REMARK    1  A    between atoms: P_1  and  O_3 
DOCKED: REMARK    2  A    between atoms: P_2  and  O_4 
DOCKED: REMARK    3  A    between atoms: O_3  and  C_13 
DOCKED: REMARK    4  A    between atoms: O_4  and  C_14 
DOCKED: REMARK    5  A    between atoms: C_13  and  C_14 
DOCKED: REMARK    6  A    between atoms: C_13  and  C_15 
DOCKED: USER                              x       y       z     vdW  Elec       q    Type
DOCKED: USER                           _______ _______ _______ _____ _____    ______ ____
DOCKED: ROOT
DOCKED: ATOM      1  C   UNL d   1      -6.008  12.328  35.793 -0.22 +0.21    +0.193 C 
DOCKED: ENDROOT
DOCKED: BRANCH   1   2
DOCKED: ATOM      2  O   UNL d   1      -7.051  13.140  35.156 -0.58 -0.58    -0.356 OA
DOCKED: BRANCH   2   3
DOCKED: ATOM      3  P   UNL d   1      -7.595  12.873  33.627 -0.22 -0.02    -0.014 P 
DOCKED: ATOM      4  O   UNL d   1      -6.317  12.750  32.782 -0.23 -0.69    -0.577 OA
DOCKED: ATOM      5  O   UNL d   1      -8.421  14.092  33.221 -0.14 -0.69    -0.577 OA
DOCKED: ATOM      6  O   UNL d   1      -8.391  11.572  33.630 -0.45 -1.01    -0.638 OA
DOCKED: ENDBRANCH   2   3
DOCKED: ENDBRANCH   1   2
DOCKED: BRANCH   1   7
DOCKED: ATOM      7  C   UNL d   1      -6.632  11.583  37.029 -0.18 +0.16    +0.201 C 
DOCKED: BRANCH   7   8
DOCKED: ATOM      8  O   UNL d   1      -6.803  10.155  36.885 -0.10 -0.36    -0.364 OA
DOCKED: BRANCH   8   9
DOCKED: ATOM      9  P   UNL d   1      -8.178   9.423  37.441 -0.07 -0.02    -0.015 P 
DOCKED: ATOM     10  O   UNL d   1      -9.332  10.267  36.887 -0.29 -0.87    -0.577 OA
DOCKED: ATOM     11  O   UNL d   1      -8.120   9.468  38.968 -0.02 -0.28    -0.577 OA
DOCKED: ATOM     12  O   UNL d   1      -8.188   8.000  36.884 -0.33 -0.97    -0.638 OA
DOCKED: ENDBRANCH   8   9
DOCKED: ENDBRANCH   7   8
DOCKED: ENDBRANCH   1   7
DOCKED: BRANCH   1  13
DOCKED: ATOM     13  C   UNL d   1      -4.839  13.254  36.300 -0.30 +0.08    +0.073 C 
DOCKED: ATOM     14  O   UNL d   1      -5.032  14.520  36.332 -0.11 -1.01    -0.547 OA
DOCKED: ATOM     15  O   UNL d   1      -3.773  12.671  36.715 -0.13 -0.32    -0.547 OA
DOCKED: ENDBRANCH   1  13
DOCKED: TORSDOF 6
DOCKED: TER
DOCKED: ENDMDL
________________________________________________________________________________


	BEGINNING GENETIC ALGORITHM DOCKING 35 of 100
Run: 35 Seed: 1697165896 509273008 [ Run 35 of 100 GA/GALS ]
Beginning LAMARCKIAN GENETIC ALGORITHM (LGA), with a maximum of 25000000 energy evaluations.

Final-Value: -6.958


	FINAL GENETIC ALGORITHM DOCKED STATE
	_______________________________________________


Detailed state:  trans 7.648 13.132 35.679 quatxyzw 0.112375 0.087236 0.984293 0.104542 center 0.015 0.083 0.031 ntor 6 -28.1580 67.6986 -43.9979 26.6245 -50.5084 -35.9022
State:	  7.648  13.132  35.679   0.113  0.088  0.990 167.998    -28.16   67.70  -44.00   26.62  -50.51  -35.90

DOCKED: MODEL       35
DOCKED: USER    Run = 35
DOCKED: USER    DPF = D:/Protein_go_brrr/autodock/final/1A3N/2_3_BPG/dock.dpf
DOCKED: USER  
DOCKED: USER    Estimated Free Energy of Binding    =   -7.14 kcal/mol  [=(1)+(2)+(3)-(4)]
DOCKED: USER    Estimated Inhibition Constant, Ki   =    5.82 uM (micromolar)  [Temperature = 298.15 K]
DOCKED: USER    
DOCKED: USER    (1) Final Intermolecular Energy     =   -8.93 kcal/mol
DOCKED: USER        vdW + Hbond + desolv Energy     =   -2.56 kcal/mol
DOCKED: USER        Electrostatic Energy            =   -6.38 kcal/mol
DOCKED: USER    (2) Final Total Internal Energy     =   +1.97 kcal/mol
DOCKED: USER    (3) Torsional Free Energy           =   +1.79 kcal/mol
DOCKED: USER    (4) Unbound System's Energy  [=(2)] =   +1.97 kcal/mol
DOCKED: USER    
DOCKED: USER    
DOCKED: USER    NEWDPF move 2_3_BPG_opt.pdbqt
DOCKED: USER    NEWDPF about 0.015000 0.083000 0.031000
DOCKED: USER    NEWDPF tran0 7.647893 13.131784 35.679208
DOCKED: USER    NEWDPF quaternion0 0.112375 0.087236 0.984293 0.104542
DOCKED: USER    NEWDPF axisangle0 0.112995 0.087716 0.989716 167.998399
DOCKED: USER    NEWDPF quat0 0.112995 0.087716 0.989716 167.998399
DOCKED: USER    NEWDPF dihe0 -28.16 67.70 -44.00 26.62 -50.51 -35.90 
DOCKED: USER  keepresnum = 1 
DOCKED: USER  
DOCKED: REMARK  6 active torsions:
DOCKED: REMARK  status: ('A' for Active; 'I' for Inactive)
DOCKED: REMARK    1  A    between atoms: P_1  and  O_3 
DOCKED: REMARK    2  A    between atoms: P_2  and  O_4 
DOCKED: REMARK    3  A    between atoms: O_3  and  C_13 
DOCKED: REMARK    4  A    between atoms: O_4  and  C_14 
DOCKED: REMARK    5  A    between atoms: C_13  and  C_14 
DOCKED: REMARK    6  A    between atoms: C_13  and  C_15 
DOCKED: USER                              x       y       z     vdW  Elec       q    Type
DOCKED: USER                           _______ _______ _______ _____ _____    ______ ____
DOCKED: ROOT
DOCKED: ATOM      1  C   UNL d   1       8.155  13.559  35.582 -0.09 +0.18    +0.193 C 
DOCKED: ENDROOT
DOCKED: BRANCH   1   2
DOCKED: ATOM      2  O   UNL d   1       9.205  12.861  34.832 -0.06 -0.28    -0.356 OA
DOCKED: BRANCH   2   3
DOCKED: ATOM      3  P   UNL d   1      10.610  12.346  35.513 -0.16 -0.02    -0.014 P 
DOCKED: ATOM      4  O   UNL d   1      11.702  13.156  34.796 -0.50 -0.98    -0.577 OA
DOCKED: ATOM      5  O   UNL d   1      10.734  10.852  35.219 -0.23 -0.84    -0.577 OA
DOCKED: ATOM      6  O   UNL d   1      10.559  12.670  37.002 -0.02 -0.62    -0.638 OA
DOCKED: ENDBRANCH   2   3
DOCKED: ENDBRANCH   1   2
DOCKED: BRANCH   1   7
DOCKED: ATOM      7  C   UNL d   1       6.852  12.678  35.567 -0.13 +0.23    +0.201 C 
DOCKED: BRANCH   7   8
DOCKED: ATOM      8  O   UNL d   1       6.311  12.331  36.861 -0.07 -0.36    -0.364 OA
DOCKED: BRANCH   8   9
DOCKED: ATOM      9  P   UNL d   1       4.694  12.515  37.160 -0.17 -0.02    -0.015 P 
DOCKED: ATOM     10  O   UNL d   1       4.289  11.260  37.943 -0.00 -0.33    -0.577 OA
DOCKED: ATOM     11  O   UNL d   1       3.995  12.591  35.803 -0.23 -0.90    -0.577 OA
DOCKED: ATOM     12  O   UNL d   1       4.531  13.787  37.990 -0.34 -1.08    -0.638 OA
DOCKED: ENDBRANCH   8   9
DOCKED: ENDBRANCH   7   8
DOCKED: ENDBRANCH   1   7
DOCKED: BRANCH   1  13
DOCKED: ATOM     13  C   UNL d   1       7.835  14.943  34.902 -0.13 +0.09    +0.073 C 
DOCKED: ATOM     14  O   UNL d   1       8.072  15.078  33.650 -0.03 -0.44    -0.547 OA
DOCKED: ATOM     15  O   UNL d   1       7.292  15.843  35.639 -0.40 -1.00    -0.547 OA
DOCKED: ENDBRANCH   1  13
DOCKED: TORSDOF 6
DOCKED: TER
DOCKED: ENDMDL
________________________________________________________________________________


	BEGINNING GENETIC ALGORITHM DOCKING 36 of 100
Run: 36 Seed: 1068440195 1108811685 [ Run 36 of 100 GA/GALS ]
Beginning LAMARCKIAN GENETIC ALGORITHM (LGA), with a maximum of 25000000 energy evaluations.

Final-Value: -7.214


	FINAL GENETIC ALGORITHM DOCKED STATE
	_______________________________________________


Detailed state:  trans 7.386 11.519 35.905 quatxyzw 0.729967 -0.053506 -0.124915 -0.669837 center 0.015 0.083 0.031 ntor 6 145.9231 15.4788 50.0381 -24.3935 -35.3904 -20.7371
State:	  7.386  11.519  35.905   0.983 -0.072 -0.168 -95.891    145.92   15.48   50.04  -24.39  -35.39  -20.74

DOCKED: MODEL       36
DOCKED: USER    Run = 36
DOCKED: USER    DPF = D:/Protein_go_brrr/autodock/final/1A3N/2_3_BPG/dock.dpf
DOCKED: USER  
DOCKED: USER    Estimated Free Energy of Binding    =   -7.75 kcal/mol  [=(1)+(2)+(3)-(4)]
DOCKED: USER    Estimated Inhibition Constant, Ki   =    2.08 uM (micromolar)  [Temperature = 298.15 K]
DOCKED: USER    
DOCKED: USER    (1) Final Intermolecular Energy     =   -9.54 kcal/mol
DOCKED: USER        vdW + Hbond + desolv Energy     =   -3.28 kcal/mol
DOCKED: USER        Electrostatic Energy            =   -6.26 kcal/mol
DOCKED: USER    (2) Final Total Internal Energy     =   +2.33 kcal/mol
DOCKED: USER    (3) Torsional Free Energy           =   +1.79 kcal/mol
DOCKED: USER    (4) Unbound System's Energy  [=(2)] =   +2.33 kcal/mol
DOCKED: USER    
DOCKED: USER    
DOCKED: USER    NEWDPF move 2_3_BPG_opt.pdbqt
DOCKED: USER    NEWDPF about 0.015000 0.083000 0.031000
DOCKED: USER    NEWDPF tran0 7.385589 11.518759 35.904969
DOCKED: USER    NEWDPF quaternion0 0.729967 -0.053506 -0.124915 -0.669837
DOCKED: USER    NEWDPF axisangle0 0.983110 -0.072061 -0.168234 -95.891098
DOCKED: USER    NEWDPF quat0 0.983110 -0.072061 -0.168234 -95.891098
DOCKED: USER    NEWDPF dihe0 145.92 15.48 50.04 -24.39 -35.39 -20.74 
DOCKED: USER  keepresnum = 1 
DOCKED: USER  
DOCKED: REMARK  6 active torsions:
DOCKED: REMARK  status: ('A' for Active; 'I' for Inactive)
DOCKED: REMARK    1  A    between atoms: P_1  and  O_3 
DOCKED: REMARK    2  A    between atoms: P_2  and  O_4 
DOCKED: REMARK    3  A    between atoms: O_3  and  C_13 
DOCKED: REMARK    4  A    between atoms: O_4  and  C_14 
DOCKED: REMARK    5  A    between atoms: C_13  and  C_14 
DOCKED: REMARK    6  A    between atoms: C_13  and  C_15 
DOCKED: USER                              x       y       z     vdW  Elec       q    Type
DOCKED: USER                           _______ _______ _______ _____ _____    ______ ____
DOCKED: ROOT
DOCKED: ATOM      1  C   UNL d   1       6.770  11.603  35.654 -0.20 +0.15    +0.193 C 
DOCKED: ENDROOT
DOCKED: BRANCH   1   2
DOCKED: ATOM      2  O   UNL d   1       5.993  12.404  36.607 -0.11 -0.41    -0.356 OA
DOCKED: BRANCH   2   3
DOCKED: ATOM      3  P   UNL d   1       4.350  12.384  36.675 -0.15 -0.02    -0.014 P 
DOCKED: ATOM      4  O   UNL d   1       3.990  13.564  37.590 -0.14 -1.02    -0.577 OA
DOCKED: ATOM      5  O   UNL d   1       3.939  11.048  37.293 -0.03 -0.33    -0.577 OA
DOCKED: ATOM      6  O   UNL d   1       3.818  12.589  35.261 -0.35 -0.95    -0.638 OA
DOCKED: ENDBRANCH   2   3
DOCKED: ENDBRANCH   1   2
DOCKED: BRANCH   1   7
DOCKED: ATOM      7  C   UNL d   1       8.284  11.640  36.079 -0.12 +0.14    +0.201 C 
DOCKED: BRANCH   7   8
DOCKED: ATOM      8  O   UNL d   1       8.999  10.389  35.976 -0.59 -0.29    -0.364 OA
DOCKED: BRANCH   8   9
DOCKED: ATOM      9  P   UNL d   1      10.610  10.382  35.603 -0.29 -0.02    -0.015 P 
DOCKED: ATOM     10  O   UNL d   1      10.741   9.418  34.418 -0.03 -0.53    -0.577 OA
DOCKED: ATOM     11  O   UNL d   1      11.352   9.873  36.838 -0.07 -0.75    -0.577 OA
DOCKED: ATOM     12  O   UNL d   1      10.991  11.812  35.223 -0.42 -1.19    -0.638 OA
DOCKED: ENDBRANCH   8   9
DOCKED: ENDBRANCH   7   8
DOCKED: ENDBRANCH   1   7
DOCKED: BRANCH   1  13
DOCKED: ATOM     13  C   UNL d   1       6.637  12.209  34.207 -0.31 +0.06    +0.073 C 
DOCKED: ATOM     14  O   UNL d   1       6.914  11.461  33.204 -0.07 -0.25    -0.547 OA
DOCKED: ATOM     15  O   UNL d   1       6.194  13.410  34.116 -0.36 -0.86    -0.547 OA
DOCKED: ENDBRANCH   1  13
DOCKED: TORSDOF 6
DOCKED: TER
DOCKED: ENDMDL
________________________________________________________________________________


	BEGINNING GENETIC ALGORITHM DOCKING 37 of 100
Run: 37 Seed: 1812772630 810690787 [ Run 37 of 100 GA/GALS ]
Beginning LAMARCKIAN GENETIC ALGORITHM (LGA), with a maximum of 25000000 energy evaluations.

Final-Value: -6.879


	FINAL GENETIC ALGORITHM DOCKED STATE
	_______________________________________________


Detailed state:  trans 7.586 11.298 35.887 quatxyzw 0.215827 0.424378 0.877304 0.060488 center 0.015 0.083 0.031 ntor 6 -29.1184 21.9419 -100.1262 14.7666 -68.8007 -13.8329
State:	  7.586  11.298  35.887   0.216  0.425  0.879 173.064    -29.12   21.94 -100.13   14.77  -68.80  -13.83

DOCKED: MODEL       37
DOCKED: USER    Run = 37
DOCKED: USER    DPF = D:/Protein_go_brrr/autodock/final/1A3N/2_3_BPG/dock.dpf
DOCKED: USER  
DOCKED: USER    Estimated Free Energy of Binding    =   -7.32 kcal/mol  [=(1)+(2)+(3)-(4)]
DOCKED: USER    Estimated Inhibition Constant, Ki   =    4.29 uM (micromolar)  [Temperature = 298.15 K]
DOCKED: USER    
DOCKED: USER    (1) Final Intermolecular Energy     =   -9.11 kcal/mol
DOCKED: USER        vdW + Hbond + desolv Energy     =   -2.93 kcal/mol
DOCKED: USER        Electrostatic Energy            =   -6.19 kcal/mol
DOCKED: USER    (2) Final Total Internal Energy     =   +2.23 kcal/mol
DOCKED: USER    (3) Torsional Free Energy           =   +1.79 kcal/mol
DOCKED: USER    (4) Unbound System's Energy  [=(2)] =   +2.23 kcal/mol
DOCKED: USER    
DOCKED: USER    
DOCKED: USER    NEWDPF move 2_3_BPG_opt.pdbqt
DOCKED: USER    NEWDPF about 0.015000 0.083000 0.031000
DOCKED: USER    NEWDPF tran0 7.585682 11.297986 35.887230
DOCKED: USER    NEWDPF quaternion0 0.215827 0.424378 0.877304 0.060488
DOCKED: USER    NEWDPF axisangle0 0.216223 0.425157 0.878914 173.064311
DOCKED: USER    NEWDPF quat0 0.216223 0.425157 0.878914 173.064311
DOCKED: USER    NEWDPF dihe0 -29.12 21.94 -100.13 14.77 -68.80 -13.83 
DOCKED: USER  keepresnum = 1 
DOCKED: USER  
DOCKED: REMARK  6 active torsions:
DOCKED: REMARK  status: ('A' for Active; 'I' for Inactive)
DOCKED: REMARK    1  A    between atoms: P_1  and  O_3 
DOCKED: REMARK    2  A    between atoms: P_2  and  O_4 
DOCKED: REMARK    3  A    between atoms: O_3  and  C_13 
DOCKED: REMARK    4  A    between atoms: O_4  and  C_14 
DOCKED: REMARK    5  A    between atoms: C_13  and  C_14 
DOCKED: REMARK    6  A    between atoms: C_13  and  C_15 
DOCKED: USER                              x       y       z     vdW  Elec       q    Type
DOCKED: USER                           _______ _______ _______ _____ _____    ______ ____
DOCKED: ROOT
DOCKED: ATOM      1  C   UNL d   1       8.053  11.522  35.462 -0.16 +0.13    +0.193 C 
DOCKED: ENDROOT
DOCKED: BRANCH   1   2
DOCKED: ATOM      2  O   UNL d   1       9.018  10.441  35.232 -0.58 -0.27    -0.356 OA
DOCKED: BRANCH   2   3
DOCKED: ATOM      3  P   UNL d   1      10.608  10.548  35.639 -0.26 -0.02    -0.014 P 
DOCKED: ATOM      4  O   UNL d   1      11.287   9.435  34.825 -0.03 -0.70    -0.577 OA
DOCKED: ATOM      5  O   UNL d   1      10.709  10.288  37.140 -0.06 -0.57    -0.577 OA
DOCKED: ATOM      6  O   UNL d   1      11.107  11.928  35.226 -0.44 -1.27    -0.638 OA
DOCKED: ENDBRANCH   2   3
DOCKED: ENDBRANCH   1   2
DOCKED: BRANCH   1   7
DOCKED: ATOM      7  C   UNL d   1       6.804  10.933  36.216 -0.19 +0.12    +0.201 C 
DOCKED: BRANCH   7   8
DOCKED: ATOM      8  O   UNL d   1       6.166  11.815  37.165 -0.08 -0.28    -0.364 OA
DOCKED: BRANCH   8   9
DOCKED: ATOM      9  P   UNL d   1       4.625  12.353  36.892 -0.19 -0.02    -0.015 P 
DOCKED: ATOM     10  O   UNL d   1       3.716  11.216  37.373 -0.03 -0.34    -0.577 OA
DOCKED: ATOM     11  O   UNL d   1       4.496  12.590  35.387 -0.39 -1.01    -0.577 OA
DOCKED: ATOM     12  O   UNL d   1       4.439  13.625  37.717 -0.09 -1.18    -0.638 OA
DOCKED: ENDBRANCH   8   9
DOCKED: ENDBRANCH   7   8
DOCKED: ENDBRANCH   1   7
DOCKED: BRANCH   1  13
DOCKED: ATOM     13  C   UNL d   1       7.576  12.120  34.086 -0.25 +0.05    +0.073 C 
DOCKED: ATOM     14  O   UNL d   1       7.643  11.382  33.042 -0.06 -0.25    -0.547 OA
DOCKED: ATOM     15  O   UNL d   1       7.083  13.306  34.106 -0.10 -0.57    -0.547 OA
DOCKED: ENDBRANCH   1  13
DOCKED: TORSDOF 6
DOCKED: TER
DOCKED: ENDMDL
________________________________________________________________________________


	BEGINNING GENETIC ALGORITHM DOCKING 38 of 100
Run: 38 Seed: 750284807 778529528 [ Run 38 of 100 GA/GALS ]
Beginning LAMARCKIAN GENETIC ALGORITHM (LGA), with a maximum of 25000000 energy evaluations.

Final-Value: -7.018


	FINAL GENETIC ALGORITHM DOCKED STATE
	_______________________________________________


Detailed state:  trans 7.038 11.526 35.417 quatxyzw -0.655758 -0.011454 0.425681 0.623415 center 0.015 0.083 0.031 ntor 6 -142.1477 -59.6829 141.1132 -2.6997 -3.7664 -133.1925
State:	  7.038  11.526  35.417  -0.839 -0.015  0.544 102.868   -142.15  -59.68  141.11   -2.70   -3.77 -133.19

DOCKED: MODEL       38
DOCKED: USER    Run = 38
DOCKED: USER    DPF = D:/Protein_go_brrr/autodock/final/1A3N/2_3_BPG/dock.dpf
DOCKED: USER  
DOCKED: USER    Estimated Free Energy of Binding    =   -7.37 kcal/mol  [=(1)+(2)+(3)-(4)]
DOCKED: USER    Estimated Inhibition Constant, Ki   =    3.97 uM (micromolar)  [Temperature = 298.15 K]
DOCKED: USER    
DOCKED: USER    (1) Final Intermolecular Energy     =   -9.16 kcal/mol
DOCKED: USER        vdW + Hbond + desolv Energy     =   -3.05 kcal/mol
DOCKED: USER        Electrostatic Energy            =   -6.11 kcal/mol
DOCKED: USER    (2) Final Total Internal Energy     =   +2.14 kcal/mol
DOCKED: USER    (3) Torsional Free Energy           =   +1.79 kcal/mol
DOCKED: USER    (4) Unbound System's Energy  [=(2)] =   +2.14 kcal/mol
DOCKED: USER    
DOCKED: USER    
DOCKED: USER    NEWDPF move 2_3_BPG_opt.pdbqt
DOCKED: USER    NEWDPF about 0.015000 0.083000 0.031000
DOCKED: USER    NEWDPF tran0 7.037559 11.526265 35.416587
DOCKED: USER    NEWDPF quaternion0 -0.655758 -0.011454 0.425681 0.623415
DOCKED: USER    NEWDPF axisangle0 -0.838682 -0.014649 0.544425 102.868161
DOCKED: USER    NEWDPF quat0 -0.838682 -0.014649 0.544425 102.868161
DOCKED: USER    NEWDPF dihe0 -142.15 -59.68 141.11 -2.70 -3.77 -133.19 
DOCKED: USER  keepresnum = 1 
DOCKED: USER  
DOCKED: REMARK  6 active torsions:
DOCKED: REMARK  status: ('A' for Active; 'I' for Inactive)
DOCKED: REMARK    1  A    between atoms: P_1  and  O_3 
DOCKED: REMARK    2  A    between atoms: P_2  and  O_4 
DOCKED: REMARK    3  A    between atoms: O_3  and  C_13 
DOCKED: REMARK    4  A    between atoms: O_4  and  C_14 
DOCKED: REMARK    5  A    between atoms: C_13  and  C_14 
DOCKED: REMARK    6  A    between atoms: C_13  and  C_15 
DOCKED: USER                              x       y       z     vdW  Elec       q    Type
DOCKED: USER                           _______ _______ _______ _____ _____    ______ ____
DOCKED: ROOT
DOCKED: ATOM      1  C   UNL d   1       6.443  11.821  35.513 -0.21 +0.17    +0.193 C 
DOCKED: ENDROOT
DOCKED: BRANCH   1   2
DOCKED: ATOM      2  O   UNL d   1       6.559  12.717  36.669 -0.06 -0.40    -0.356 OA
DOCKED: BRANCH   2   3
DOCKED: ATOM      3  P   UNL d   1       5.434  12.798  37.865 -0.12 -0.01    -0.014 P 
DOCKED: ATOM      4  O   UNL d   1       6.177  12.324  39.124 +0.03 -0.31    -0.577 OA
DOCKED: ATOM      5  O   UNL d   1       4.303  11.843  37.488 -0.01 -0.45    -0.577 OA
DOCKED: ATOM      6  O   UNL d   1       4.986  14.250  37.993 -0.27 -1.29    -0.638 OA
DOCKED: ENDBRANCH   2   3
DOCKED: ENDBRANCH   1   2
DOCKED: BRANCH   1   7
DOCKED: ATOM      7  C   UNL d   1       7.884  11.348  35.094 -0.18 +0.13    +0.201 C 
DOCKED: BRANCH   7   8
DOCKED: ATOM      8  O   UNL d   1       8.875  11.340  36.145 -0.15 -0.27    -0.364 OA
DOCKED: BRANCH   8   9
DOCKED: ATOM      9  P   UNL d   1      10.421  10.844  35.824 -0.24 -0.02    -0.015 P 
DOCKED: ATOM     10  O   UNL d   1      10.270   9.695  34.820 -0.12 -0.52    -0.577 OA
DOCKED: ATOM     11  O   UNL d   1      11.021  10.370  37.147 -0.07 -0.67    -0.577 OA
DOCKED: ATOM     12  O   UNL d   1      11.162  12.038  35.224 -0.48 -1.30    -0.638 OA
DOCKED: ENDBRANCH   8   9
DOCKED: ENDBRANCH   7   8
DOCKED: ENDBRANCH   1   7
DOCKED: BRANCH   1  13
DOCKED: ATOM     13  C   UNL d   1       5.791  12.585  34.301 -0.24 +0.09    +0.073 C 
DOCKED: ATOM     14  O   UNL d   1       4.514  12.589  34.197 -0.74 -0.73    -0.547 OA
DOCKED: ATOM     15  O   UNL d   1       6.585  13.219  33.517 -0.18 -0.52    -0.547 OA
DOCKED: ENDBRANCH   1  13
DOCKED: TORSDOF 6
DOCKED: TER
DOCKED: ENDMDL
________________________________________________________________________________


	BEGINNING GENETIC ALGORITHM DOCKING 39 of 100
Run: 39 Seed: 941776507 1804566643 [ Run 39 of 100 GA/GALS ]
Beginning LAMARCKIAN GENETIC ALGORITHM (LGA), with a maximum of 25000000 energy evaluations.

Final-Value: -7.599


	FINAL GENETIC ALGORITHM DOCKED STATE
	_______________________________________________


Detailed state:  trans 9.459 -14.598 15.014 quatxyzw 0.132248 0.727344 0.215772 -0.637906 center 0.015 0.083 0.031 ntor 6 135.0147 -176.4665 -147.1044 11.7056 -32.9278 59.2676
State:	  9.459 -14.598  15.014   0.172  0.944  0.280 -100.728    135.01 -176.47 -147.10   11.71  -32.93   59.27

DOCKED: MODEL       39
DOCKED: USER    Run = 39
DOCKED: USER    DPF = D:/Protein_go_brrr/autodock/final/1A3N/2_3_BPG/dock.dpf
DOCKED: USER  
DOCKED: USER    Estimated Free Energy of Binding    =   -8.00 kcal/mol  [=(1)+(2)+(3)-(4)]
DOCKED: USER    Estimated Inhibition Constant, Ki   =    1.37 uM (micromolar)  [Temperature = 298.15 K]
DOCKED: USER    
DOCKED: USER    (1) Final Intermolecular Energy     =   -9.79 kcal/mol
DOCKED: USER        vdW + Hbond + desolv Energy     =   -2.65 kcal/mol
DOCKED: USER        Electrostatic Energy            =   -7.14 kcal/mol
DOCKED: USER    (2) Final Total Internal Energy     =   +2.19 kcal/mol
DOCKED: USER    (3) Torsional Free Energy           =   +1.79 kcal/mol
DOCKED: USER    (4) Unbound System's Energy  [=(2)] =   +2.19 kcal/mol
DOCKED: USER    
DOCKED: USER    
DOCKED: USER    NEWDPF move 2_3_BPG_opt.pdbqt
DOCKED: USER    NEWDPF about 0.015000 0.083000 0.031000
DOCKED: USER    NEWDPF tran0 9.459319 -14.598105 15.013755
DOCKED: USER    NEWDPF quaternion0 0.132248 0.727344 0.215772 -0.637906
DOCKED: USER    NEWDPF axisangle0 0.171726 0.944462 0.280182 -100.728348
DOCKED: USER    NEWDPF quat0 0.171726 0.944462 0.280182 -100.728348
DOCKED: USER    NEWDPF dihe0 135.01 -176.47 -147.10 11.71 -32.93 59.27 
DOCKED: USER  keepresnum = 1 
DOCKED: USER  
DOCKED: REMARK  6 active torsions:
DOCKED: REMARK  status: ('A' for Active; 'I' for Inactive)
DOCKED: REMARK    1  A    between atoms: P_1  and  O_3 
DOCKED: REMARK    2  A    between atoms: P_2  and  O_4 
DOCKED: REMARK    3  A    between atoms: O_3  and  C_13 
DOCKED: REMARK    4  A    between atoms: O_4  and  C_14 
DOCKED: REMARK    5  A    between atoms: C_13  and  C_14 
DOCKED: REMARK    6  A    between atoms: C_13  and  C_15 
DOCKED: USER                              x       y       z     vdW  Elec       q    Type
DOCKED: USER                           _______ _______ _______ _____ _____    ______ ____
DOCKED: ROOT
DOCKED: ATOM      1  C   UNL d   1       9.665 -15.131  15.365 -0.04 +0.20    +0.193 C 
DOCKED: ENDROOT
DOCKED: BRANCH   1   2
DOCKED: ATOM      2  O   UNL d   1       9.125 -15.019  16.724 -0.01 -0.31    -0.356 OA
DOCKED: BRANCH   2   3
DOCKED: ATOM      3  P   UNL d   1      10.069 -14.959  18.069 -0.17 -0.02    -0.014 P 
DOCKED: ATOM      4  O   UNL d   1      11.506 -15.058  17.534 -0.19 -1.07    -0.577 OA
DOCKED: ATOM      5  O   UNL d   1       9.706 -16.167  18.931 -0.34 -1.03    -0.577 OA
DOCKED: ATOM      6  O   UNL d   1       9.820 -13.623  18.761 +0.00 -0.45    -0.638 OA
DOCKED: ENDBRANCH   2   3
DOCKED: ENDBRANCH   1   2
DOCKED: BRANCH   1   7
DOCKED: ATOM      7  C   UNL d   1       8.963 -14.058  14.453 -0.06 +0.20    +0.201 C 
DOCKED: BRANCH   7   8
DOCKED: ATOM      8  O   UNL d   1       8.649 -14.483  13.108 -0.20 -0.71    -0.364 OA
DOCKED: BRANCH   8   9
DOCKED: ATOM      9  P   UNL d   1       7.347 -13.839  12.317 -0.27 -0.02    -0.015 P 
DOCKED: ATOM     10  O   UNL d   1       7.278 -12.380  12.784 -0.54 -0.57    -0.577 OA
DOCKED: ATOM     11  O   UNL d   1       6.119 -14.637  12.757 +0.00 -0.64    -0.577 OA
DOCKED: ATOM     12  O   UNL d   1       7.628 -13.950  10.820 -0.50 -1.23    -0.638 OA
DOCKED: ENDBRANCH   8   9
DOCKED: ENDBRANCH   7   8
DOCKED: ENDBRANCH   1   7
DOCKED: BRANCH   1  13
DOCKED: ATOM     13  C   UNL d   1       9.367 -16.562  14.781 -0.07 +0.10    +0.073 C 
DOCKED: ATOM     14  O   UNL d   1       9.913 -16.895  13.671 -0.26 -1.05    -0.547 OA
DOCKED: ATOM     15  O   UNL d   1       8.637 -17.341  15.494 +0.00 -0.54    -0.547 OA
DOCKED: ENDBRANCH   1  13
DOCKED: TORSDOF 6
DOCKED: TER
DOCKED: ENDMDL
________________________________________________________________________________


	BEGINNING GENETIC ALGORITHM DOCKING 40 of 100
Run: 40 Seed: 803795080 946397071 [ Run 40 of 100 GA/GALS ]
Beginning LAMARCKIAN GENETIC ALGORITHM (LGA), with a maximum of 25000000 energy evaluations.

Final-Value: -7.203


	FINAL GENETIC ALGORITHM DOCKED STATE
	_______________________________________________


Detailed state:  trans 7.906 12.261 34.894 quatxyzw -0.265932 0.118107 -0.484354 -0.825065 center 0.015 0.083 0.031 ntor 6 121.5156 20.9317 86.2998 24.7464 62.2460 3.9284
State:	  7.906  12.261  34.894  -0.471  0.209 -0.857 -68.810    121.52   20.93   86.30   24.75   62.25    3.93

DOCKED: MODEL       40
DOCKED: USER    Run = 40
DOCKED: USER    DPF = D:/Protein_go_brrr/autodock/final/1A3N/2_3_BPG/dock.dpf
DOCKED: USER  
DOCKED: USER    Estimated Free Energy of Binding    =   -7.64 kcal/mol  [=(1)+(2)+(3)-(4)]
DOCKED: USER    Estimated Inhibition Constant, Ki   =    2.53 uM (micromolar)  [Temperature = 298.15 K]
DOCKED: USER    
DOCKED: USER    (1) Final Intermolecular Energy     =   -9.43 kcal/mol
DOCKED: USER        vdW + Hbond + desolv Energy     =   -3.13 kcal/mol
DOCKED: USER        Electrostatic Energy            =   -6.30 kcal/mol
DOCKED: USER    (2) Final Total Internal Energy     =   +2.22 kcal/mol
DOCKED: USER    (3) Torsional Free Energy           =   +1.79 kcal/mol
DOCKED: USER    (4) Unbound System's Energy  [=(2)] =   +2.22 kcal/mol
DOCKED: USER    
DOCKED: USER    
DOCKED: USER    NEWDPF move 2_3_BPG_opt.pdbqt
DOCKED: USER    NEWDPF about 0.015000 0.083000 0.031000
DOCKED: USER    NEWDPF tran0 7.906169 12.260908 34.893553
DOCKED: USER    NEWDPF quaternion0 -0.265932 0.118107 -0.484354 -0.825065
DOCKED: USER    NEWDPF axisangle0 -0.470644 0.209025 -0.857206 -68.809879
DOCKED: USER    NEWDPF quat0 -0.470644 0.209025 -0.857206 -68.809879
DOCKED: USER    NEWDPF dihe0 121.52 20.93 86.30 24.75 62.25 3.93 
DOCKED: USER  keepresnum = 1 
DOCKED: USER  
DOCKED: REMARK  6 active torsions:
DOCKED: REMARK  status: ('A' for Active; 'I' for Inactive)
DOCKED: REMARK    1  A    between atoms: P_1  and  O_3 
DOCKED: REMARK    2  A    between atoms: P_2  and  O_4 
DOCKED: REMARK    3  A    between atoms: O_3  and  C_13 
DOCKED: REMARK    4  A    between atoms: O_4  and  C_14 
DOCKED: REMARK    5  A    between atoms: C_13  and  C_14 
DOCKED: REMARK    6  A    between atoms: C_13  and  C_15 
DOCKED: USER                              x       y       z     vdW  Elec       q    Type
DOCKED: USER                           _______ _______ _______ _____ _____    ______ ____
DOCKED: ROOT
DOCKED: ATOM      1  C   UNL d   1       7.424  12.675  35.107 -0.14 +0.18    +0.193 C 
DOCKED: ENDROOT
DOCKED: BRANCH   1   2
DOCKED: ATOM      2  O   UNL d   1       7.192  13.682  34.065 -0.15 -0.39    -0.356 OA
DOCKED: BRANCH   2   3
DOCKED: ATOM      3  P   UNL d   1       7.662  15.252  34.207 -0.14 -0.02    -0.014 P 
DOCKED: ATOM      4  O   UNL d   1       6.855  15.992  33.129 -0.06 -0.57    -0.577 OA
DOCKED: ATOM      5  O   UNL d   1       9.161  15.303  33.920 -0.01 -0.36    -0.577 OA
DOCKED: ATOM      6  O   UNL d   1       7.294  15.729  35.608 -0.34 -1.17    -0.638 OA
DOCKED: ENDBRANCH   2   3
DOCKED: ENDBRANCH   1   2
DOCKED: BRANCH   1   7
DOCKED: ATOM      7  C   UNL d   1       8.332  11.535  34.514 -0.17 +0.13    +0.201 C 
DOCKED: BRANCH   7   8
DOCKED: ATOM      8  O   UNL d   1       8.962  10.665  35.480 -0.45 -0.27    -0.364 OA
DOCKED: BRANCH   8   9
DOCKED: ATOM      9  P   UNL d   1      10.609  10.654  35.636 -0.24 -0.02    -0.015 P 
DOCKED: ATOM     10  O   UNL d   1      11.093   9.556  34.681 -0.04 -0.66    -0.577 OA
DOCKED: ATOM     11  O   UNL d   1      10.917  10.317  37.095 -0.07 -0.64    -0.577 OA
DOCKED: ATOM     12  O   UNL d   1      11.111  12.036  35.222 -0.48 -1.26    -0.638 OA
DOCKED: ENDBRANCH   8   9
DOCKED: ENDBRANCH   7   8
DOCKED: ENDBRANCH   1   7
DOCKED: BRANCH   1  13
DOCKED: ATOM     13  C   UNL d   1       6.055  12.044  35.561 -0.27 +0.08    +0.073 C 
DOCKED: ATOM     14  O   UNL d   1       6.076  11.077  36.401 -0.03 -0.36    -0.547 OA
DOCKED: ATOM     15  O   UNL d   1       4.984  12.585  35.104 -0.53 -0.95    -0.547 OA
DOCKED: ENDBRANCH   1  13
DOCKED: TORSDOF 6
DOCKED: TER
DOCKED: ENDMDL
________________________________________________________________________________


	BEGINNING GENETIC ALGORITHM DOCKING 41 of 100
Run: 41 Seed: 1541030957 1592186438 [ Run 41 of 100 GA/GALS ]
Beginning LAMARCKIAN GENETIC ALGORITHM (LGA), with a maximum of 25000000 energy evaluations.

Final-Value: -7.142


	FINAL GENETIC ALGORITHM DOCKED STATE
	_______________________________________________


Detailed state:  trans -1.394 -3.320 -12.209 quatxyzw 0.488250 -0.300974 -0.331557 0.749064 center 0.015 0.083 0.031 ntor 6 -180.0000 26.9411 -168.5015 7.3919 -59.8447 -85.1689
State:	 -1.394  -3.320 -12.209   0.737 -0.454 -0.500 82.981   -180.00   26.94 -168.50    7.39  -59.84  -85.17

DOCKED: MODEL       41
DOCKED: USER    Run = 41
DOCKED: USER    DPF = D:/Protein_go_brrr/autodock/final/1A3N/2_3_BPG/dock.dpf
DOCKED: USER  
DOCKED: USER    Estimated Free Energy of Binding    =   -7.39 kcal/mol  [=(1)+(2)+(3)-(4)]
DOCKED: USER    Estimated Inhibition Constant, Ki   =    3.84 uM (micromolar)  [Temperature = 298.15 K]
DOCKED: USER    
DOCKED: USER    (1) Final Intermolecular Energy     =   -9.18 kcal/mol
DOCKED: USER        vdW + Hbond + desolv Energy     =   -3.55 kcal/mol
DOCKED: USER        Electrostatic Energy            =   -5.63 kcal/mol
DOCKED: USER    (2) Final Total Internal Energy     =   +2.04 kcal/mol
DOCKED: USER    (3) Torsional Free Energy           =   +1.79 kcal/mol
DOCKED: USER    (4) Unbound System's Energy  [=(2)] =   +2.04 kcal/mol
DOCKED: USER    
DOCKED: USER    
DOCKED: USER    NEWDPF move 2_3_BPG_opt.pdbqt
DOCKED: USER    NEWDPF about 0.015000 0.083000 0.031000
DOCKED: USER    NEWDPF tran0 -1.394302 -3.320337 -12.208884
DOCKED: USER    NEWDPF quaternion0 0.488250 -0.300974 -0.331557 0.749064
DOCKED: USER    NEWDPF axisangle0 0.736983 -0.454302 -0.500465 82.981324
DOCKED: USER    NEWDPF quat0 0.736983 -0.454302 -0.500465 82.981324
DOCKED: USER    NEWDPF dihe0 -180.00 26.94 -168.50 7.39 -59.84 -85.17 
DOCKED: USER  keepresnum = 1 
DOCKED: USER  
DOCKED: REMARK  6 active torsions:
DOCKED: REMARK  status: ('A' for Active; 'I' for Inactive)
DOCKED: REMARK    1  A    between atoms: P_1  and  O_3 
DOCKED: REMARK    2  A    between atoms: P_2  and  O_4 
DOCKED: REMARK    3  A    between atoms: O_3  and  C_13 
DOCKED: REMARK    4  A    between atoms: O_4  and  C_14 
DOCKED: REMARK    5  A    between atoms: C_13  and  C_14 
DOCKED: REMARK    6  A    between atoms: C_13  and  C_15 
DOCKED: USER                              x       y       z     vdW  Elec       q    Type
DOCKED: USER                           _______ _______ _______ _____ _____    ______ ____
DOCKED: ROOT
DOCKED: ATOM      1  C   UNL d   1      -1.487  -3.447 -11.557 -0.21 +0.18    +0.193 C 
DOCKED: ENDROOT
DOCKED: BRANCH   1   2
DOCKED: ATOM      2  O   UNL d   1      -2.828  -4.017 -11.388 -0.39 -0.52    -0.356 OA
DOCKED: BRANCH   2   3
DOCKED: ATOM      3  P   UNL d   1      -3.954  -3.389 -10.366 -0.38 -0.02    -0.014 P 
DOCKED: ATOM      4  O   UNL d   1      -4.902  -4.562 -10.073 -0.42 -0.84    -0.577 OA
DOCKED: ATOM      5  O   UNL d   1      -4.666  -2.264 -11.114 -0.12 -0.39    -0.577 OA
DOCKED: ATOM      6  O   UNL d   1      -3.235  -2.921  -9.105 -0.09 -0.85    -0.638 OA
DOCKED: ENDBRANCH   2   3
DOCKED: ENDBRANCH   1   2
DOCKED: BRANCH   1   7
DOCKED: ATOM      7  C   UNL d   1      -1.142  -3.415 -13.092 -0.12 +0.12    +0.201 C 
DOCKED: BRANCH   7   8
DOCKED: ATOM      8  O   UNL d   1      -1.814  -2.399 -13.868 -0.10 -0.25    -0.364 OA
DOCKED: BRANCH   8   9
DOCKED: ATOM      9  P   UNL d   1      -0.933  -1.304 -14.741 -0.37 -0.01    -0.015 P 
DOCKED: ATOM     10  O   UNL d   1       0.491  -1.873 -14.775 -0.09 -0.35    -0.577 OA
DOCKED: ATOM     11  O   UNL d   1      -0.999   0.024 -13.987 -0.15 -0.68    -0.577 OA
DOCKED: ATOM     12  O   UNL d   1      -1.555  -1.232 -16.134 -0.51 -0.86    -0.638 OA
DOCKED: ENDBRANCH   8   9
DOCKED: ENDBRANCH   7   8
DOCKED: ENDBRANCH   1   7
DOCKED: BRANCH   1  13
DOCKED: ATOM     13  C   UNL d   1      -0.423  -4.344 -10.820 -0.18 +0.09    +0.073 C 
DOCKED: ATOM     14  O   UNL d   1       0.362  -3.789  -9.973 -0.08 -0.45    -0.547 OA
DOCKED: ATOM     15  O   UNL d   1      -0.450  -5.603 -11.068 -0.34 -0.80    -0.547 OA
DOCKED: ENDBRANCH   1  13
DOCKED: TORSDOF 6
DOCKED: TER
DOCKED: ENDMDL
________________________________________________________________________________


	BEGINNING GENETIC ALGORITHM DOCKING 42 of 100
Run: 42 Seed: 523086663 545071245 [ Run 42 of 100 GA/GALS ]
Beginning LAMARCKIAN GENETIC ALGORITHM (LGA), with a maximum of 25000000 energy evaluations.

Final-Value: -7.333


	FINAL GENETIC ALGORITHM DOCKED STATE
	_______________________________________________


Detailed state:  trans 7.391 11.791 35.695 quatxyzw -0.658248 -0.002373 0.213253 0.721961 center 0.015 0.083 0.031 ntor 6 115.7558 -99.5954 36.1647 -1.0686 -2.6245 -22.4581
State:	  7.391  11.791  35.695  -0.951 -0.003  0.308 87.567    115.76  -99.60   36.16   -1.07   -2.62  -22.46

DOCKED: MODEL       42
DOCKED: USER    Run = 42
DOCKED: USER    DPF = D:/Protein_go_brrr/autodock/final/1A3N/2_3_BPG/dock.dpf
DOCKED: USER  
DOCKED: USER    Estimated Free Energy of Binding    =   -7.65 kcal/mol  [=(1)+(2)+(3)-(4)]
DOCKED: USER    Estimated Inhibition Constant, Ki   =    2.46 uM (micromolar)  [Temperature = 298.15 K]
DOCKED: USER    
DOCKED: USER    (1) Final Intermolecular Energy     =   -9.44 kcal/mol
DOCKED: USER        vdW + Hbond + desolv Energy     =   -3.27 kcal/mol
DOCKED: USER        Electrostatic Energy            =   -6.18 kcal/mol
DOCKED: USER    (2) Final Total Internal Energy     =   +2.11 kcal/mol
DOCKED: USER    (3) Torsional Free Energy           =   +1.79 kcal/mol
DOCKED: USER    (4) Unbound System's Energy  [=(2)] =   +2.11 kcal/mol
DOCKED: USER    
DOCKED: USER    
DOCKED: USER    NEWDPF move 2_3_BPG_opt.pdbqt
DOCKED: USER    NEWDPF about 0.015000 0.083000 0.031000
DOCKED: USER    NEWDPF tran0 7.390686 11.791348 35.695499
DOCKED: USER    NEWDPF quaternion0 -0.658248 -0.002373 0.213253 0.721961
DOCKED: USER    NEWDPF axisangle0 -0.951316 -0.003430 0.308198 87.566770
DOCKED: USER    NEWDPF quat0 -0.951316 -0.003430 0.308198 87.566770
DOCKED: USER    NEWDPF dihe0 115.76 -99.60 36.16 -1.07 -2.62 -22.46 
DOCKED: USER  keepresnum = 1 
DOCKED: USER  
DOCKED: REMARK  6 active torsions:
DOCKED: REMARK  status: ('A' for Active; 'I' for Inactive)
DOCKED: REMARK    1  A    between atoms: P_1  and  O_3 
DOCKED: REMARK    2  A    between atoms: P_2  and  O_4 
DOCKED: REMARK    3  A    between atoms: O_3  and  C_13 
DOCKED: REMARK    4  A    between atoms: O_4  and  C_14 
DOCKED: REMARK    5  A    between atoms: C_13  and  C_14 
DOCKED: REMARK    6  A    between atoms: C_13  and  C_15 
DOCKED: USER                              x       y       z     vdW  Elec       q    Type
DOCKED: USER                           _______ _______ _______ _____ _____    ______ ____
DOCKED: ROOT
DOCKED: ATOM      1  C   UNL d   1       6.735  11.868  35.578 -0.19 +0.16    +0.193 C 
DOCKED: ENDROOT
DOCKED: BRANCH   1   2
DOCKED: ATOM      2  O   UNL d   1       6.207  12.834  36.548 -0.07 -0.49    -0.356 OA
DOCKED: BRANCH   2   3
DOCKED: ATOM      3  P   UNL d   1       4.821  12.593  37.400 -0.19 -0.02    -0.014 P 
DOCKED: ATOM      4  O   UNL d   1       5.212  11.584  38.491 +0.02 -0.32    -0.577 OA
DOCKED: ATOM      5  O   UNL d   1       3.794  12.005  36.434 -0.09 -0.55    -0.577 OA
DOCKED: ATOM      6  O   UNL d   1       4.397  13.930  37.999 -0.32 -1.13    -0.638 OA
DOCKED: ENDBRANCH   2   3
DOCKED: ENDBRANCH   1   2
DOCKED: BRANCH   1   7
DOCKED: ATOM      7  C   UNL d   1       8.307  11.893  35.645 -0.12 +0.15    +0.201 C 
DOCKED: BRANCH   7   8
DOCKED: ATOM      8  O   UNL d   1       8.960  10.605  35.614 -0.49 -0.28    -0.364 OA
DOCKED: BRANCH   8   9
DOCKED: ATOM      9  P   UNL d   1      10.610  10.509  35.689 -0.27 -0.02    -0.015 P 
DOCKED: ATOM     10  O   UNL d   1      10.987   9.373  34.732 -0.05 -0.60    -0.577 OA
DOCKED: ATOM     11  O   UNL d   1      10.972  10.180  37.137 -0.07 -0.63    -0.577 OA
DOCKED: ATOM     12  O   UNL d   1      11.161  11.857  35.226 -0.41 -1.32    -0.638 OA
DOCKED: ENDBRANCH   8   9
DOCKED: ENDBRANCH   7   8
DOCKED: ENDBRANCH   1   7
DOCKED: BRANCH   1  13
DOCKED: ATOM     13  C   UNL d   1       6.286  12.265  34.123 -0.34 +0.06    +0.073 C 
DOCKED: ATOM     14  O   UNL d   1       6.820  11.656  33.130 -0.07 -0.26    -0.547 OA
DOCKED: ATOM     15  O   UNL d   1       5.353  13.141  34.020 -0.60 -0.93    -0.547 OA
DOCKED: ENDBRANCH   1  13
DOCKED: TORSDOF 6
DOCKED: TER
DOCKED: ENDMDL
________________________________________________________________________________


	BEGINNING GENETIC ALGORITHM DOCKING 43 of 100
Run: 43 Seed: 416238318 1972414400 [ Run 43 of 100 GA/GALS ]
Beginning LAMARCKIAN GENETIC ALGORITHM (LGA), with a maximum of 25000000 energy evaluations.

Final-Value: -8.160


	FINAL GENETIC ALGORITHM DOCKED STATE
	_______________________________________________


Detailed state:  trans 6.635 -14.947 13.772 quatxyzw -0.159522 0.255210 0.953447 -0.018944 center 0.015 0.083 0.031 ntor 6 -8.6594 79.9981 -142.7364 -43.0965 33.8505 -174.7035
State:	  6.635 -14.947  13.772  -0.160  0.255  0.954 -177.829     -8.66   80.00 -142.74  -43.10   33.85 -174.70

DOCKED: MODEL       43
DOCKED: USER    Run = 43
DOCKED: USER    DPF = D:/Protein_go_brrr/autodock/final/1A3N/2_3_BPG/dock.dpf
DOCKED: USER  
DOCKED: USER    Estimated Free Energy of Binding    =   -8.97 kcal/mol  [=(1)+(2)+(3)-(4)]
DOCKED: USER    Estimated Inhibition Constant, Ki   =  268.08 nM (nanomolar)  [Temperature = 298.15 K]
DOCKED: USER    
DOCKED: USER    (1) Final Intermolecular Energy     =  -10.76 kcal/mol
DOCKED: USER        vdW + Hbond + desolv Energy     =   -4.22 kcal/mol
DOCKED: USER        Electrostatic Energy            =   -6.53 kcal/mol
DOCKED: USER    (2) Final Total Internal Energy     =   +2.59 kcal/mol
DOCKED: USER    (3) Torsional Free Energy           =   +1.79 kcal/mol
DOCKED: USER    (4) Unbound System's Energy  [=(2)] =   +2.59 kcal/mol
DOCKED: USER    
DOCKED: USER    
DOCKED: USER    NEWDPF move 2_3_BPG_opt.pdbqt
DOCKED: USER    NEWDPF about 0.015000 0.083000 0.031000
DOCKED: USER    NEWDPF tran0 6.634753 -14.946696 13.772339
DOCKED: USER    NEWDPF quaternion0 -0.159522 0.255210 0.953447 -0.018944
DOCKED: USER    NEWDPF axisangle0 -0.159550 0.255255 0.953619 -177.829060
DOCKED: USER    NEWDPF quat0 -0.159550 0.255255 0.953619 -177.829060
DOCKED: USER    NEWDPF dihe0 -8.66 80.00 -142.74 -43.10 33.85 -174.70 
DOCKED: USER  keepresnum = 1 
DOCKED: USER  
DOCKED: REMARK  6 active torsions:
DOCKED: REMARK  status: ('A' for Active; 'I' for Inactive)
DOCKED: REMARK    1  A    between atoms: P_1  and  O_3 
DOCKED: REMARK    2  A    between atoms: P_2  and  O_4 
DOCKED: REMARK    3  A    between atoms: O_3  and  C_13 
DOCKED: REMARK    4  A    between atoms: O_4  and  C_14 
DOCKED: REMARK    5  A    between atoms: C_13  and  C_14 
DOCKED: REMARK    6  A    between atoms: C_13  and  C_15 
DOCKED: USER                              x       y       z     vdW  Elec       q    Type
DOCKED: USER                           _______ _______ _______ _____ _____    ______ ____
DOCKED: ROOT
DOCKED: ATOM      1  C   UNL d   1       7.200 -14.603  13.882 -0.09 +0.22    +0.193 C 
DOCKED: ENDROOT
DOCKED: BRANCH   1   2
DOCKED: ATOM      2  O   UNL d   1       8.291 -15.566  14.069 -0.36 -0.63    -0.356 OA
DOCKED: BRANCH   2   3
DOCKED: ATOM      3  P   UNL d   1       9.824 -15.126  14.471 -0.07 -0.02    -0.014 P 
DOCKED: ATOM      4  O   UNL d   1      10.617 -15.262  13.162 -0.25 -0.91    -0.577 OA
DOCKED: ATOM      5  O   UNL d   1      10.315 -16.112  15.529 -0.07 -0.71    -0.577 OA
DOCKED: ATOM      6  O   UNL d   1       9.788 -13.681  14.956 +0.04 -0.51    -0.638 OA
DOCKED: ENDBRANCH   2   3
DOCKED: ENDBRANCH   1   2
DOCKED: BRANCH   1   7
DOCKED: ATOM      7  C   UNL d   1       5.938 -15.369  13.339 -0.13 +0.21    +0.201 C 
DOCKED: BRANCH   7   8
DOCKED: ATOM      8  O   UNL d   1       6.180 -16.697  12.822 -0.20 -0.57    -0.364 OA
DOCKED: BRANCH   8   9
DOCKED: ATOM      9  P   UNL d   1       5.343 -17.239  11.503 -0.49 -0.02    -0.015 P 
DOCKED: ATOM     10  O   UNL d   1       5.254 -16.031  10.563 -0.19 -0.71    -0.577 OA
DOCKED: ATOM     11  O   UNL d   1       3.966 -17.680  11.999 -0.51 -0.37    -0.577 OA
DOCKED: ATOM     12  O   UNL d   1       6.154 -18.382  10.893 -0.87 -0.99    -0.638 OA
DOCKED: ENDBRANCH   8   9
DOCKED: ENDBRANCH   7   8
DOCKED: ENDBRANCH   1   7
DOCKED: BRANCH   1  13
DOCKED: ATOM     13  C   UNL d   1       7.618 -13.510  12.830 -0.27 +0.09    +0.073 C 
DOCKED: ATOM     14  O   UNL d   1       8.191 -13.891  11.748 -0.13 -1.08    -0.547 OA
DOCKED: ATOM     15  O   UNL d   1       7.300 -12.295  13.093 -0.63 -0.52    -0.547 OA
DOCKED: ENDBRANCH   1  13
DOCKED: TORSDOF 6
DOCKED: TER
DOCKED: ENDMDL
________________________________________________________________________________


	BEGINNING GENETIC ALGORITHM DOCKING 44 of 100
Run: 44 Seed: 322215670 235054756 [ Run 44 of 100 GA/GALS ]
Beginning LAMARCKIAN GENETIC ALGORITHM (LGA), with a maximum of 25000000 energy evaluations.

Final-Value: -6.766


	FINAL GENETIC ALGORITHM DOCKED STATE
	_______________________________________________


Detailed state:  trans -6.795 12.373 36.002 quatxyzw 0.098014 0.908354 -0.245934 -0.323731 center 0.015 0.083 0.031 ntor 6 115.4724 -166.6653 57.4002 54.7946 -66.4370 -61.7918
State:	 -6.795  12.373  36.002   0.104  0.960 -0.260 -142.223    115.47 -166.67   57.40   54.79  -66.44  -61.79

DOCKED: MODEL       44
DOCKED: USER    Run = 44
DOCKED: USER    DPF = D:/Protein_go_brrr/autodock/final/1A3N/2_3_BPG/dock.dpf
DOCKED: USER  
DOCKED: USER    Estimated Free Energy of Binding    =   -7.18 kcal/mol  [=(1)+(2)+(3)-(4)]
DOCKED: USER    Estimated Inhibition Constant, Ki   =    5.49 uM (micromolar)  [Temperature = 298.15 K]
DOCKED: USER    
DOCKED: USER    (1) Final Intermolecular Energy     =   -8.97 kcal/mol
DOCKED: USER        vdW + Hbond + desolv Energy     =   -3.48 kcal/mol
DOCKED: USER        Electrostatic Energy            =   -5.49 kcal/mol
DOCKED: USER    (2) Final Total Internal Energy     =   +2.20 kcal/mol
DOCKED: USER    (3) Torsional Free Energy           =   +1.79 kcal/mol
DOCKED: USER    (4) Unbound System's Energy  [=(2)] =   +2.20 kcal/mol
DOCKED: USER    
DOCKED: USER    
DOCKED: USER    NEWDPF move 2_3_BPG_opt.pdbqt
DOCKED: USER    NEWDPF about 0.015000 0.083000 0.031000
DOCKED: USER    NEWDPF tran0 -6.795019 12.373046 36.002322
DOCKED: USER    NEWDPF quaternion0 0.098014 0.908354 -0.245934 -0.323731
DOCKED: USER    NEWDPF axisangle0 0.103593 0.960054 -0.259932 -142.222592
DOCKED: USER    NEWDPF quat0 0.103593 0.960054 -0.259932 -142.222592
DOCKED: USER    NEWDPF dihe0 115.47 -166.67 57.40 54.79 -66.44 -61.79 
DOCKED: USER  keepresnum = 1 
DOCKED: USER  
DOCKED: REMARK  6 active torsions:
DOCKED: REMARK  status: ('A' for Active; 'I' for Inactive)
DOCKED: REMARK    1  A    between atoms: P_1  and  O_3 
DOCKED: REMARK    2  A    between atoms: P_2  and  O_4 
DOCKED: REMARK    3  A    between atoms: O_3  and  C_13 
DOCKED: REMARK    4  A    between atoms: O_4  and  C_14 
DOCKED: REMARK    5  A    between atoms: C_13  and  C_14 
DOCKED: REMARK    6  A    between atoms: C_13  and  C_15 
DOCKED: USER                              x       y       z     vdW  Elec       q    Type
DOCKED: USER                           _______ _______ _______ _____ _____    ______ ____
DOCKED: ROOT
DOCKED: ATOM      1  C   UNL d   1      -6.398  12.046  36.433 -0.21 +0.18    +0.193 C 
DOCKED: ENDROOT
DOCKED: BRANCH   1   2
DOCKED: ATOM      2  O   UNL d   1      -5.666  13.041  37.225 -0.08 -0.28    -0.356 OA
DOCKED: BRANCH   2   3
DOCKED: ATOM      3  P   UNL d   1      -4.366  13.870  36.655 -0.29 -0.01    -0.014 P 
DOCKED: ATOM      4  O   UNL d   1      -4.322  13.531  35.157 -0.08 -0.83    -0.577 OA
DOCKED: ATOM      5  O   UNL d   1      -3.135  13.340  37.387 -0.04 -0.30    -0.577 OA
DOCKED: ATOM      6  O   UNL d   1      -4.617  15.357  36.886 -0.51 -0.90    -0.638 OA
DOCKED: ENDBRANCH   2   3
DOCKED: ENDBRANCH   1   2
DOCKED: BRANCH   1   7
DOCKED: ATOM      7  C   UNL d   1      -7.536  12.778  35.630 -0.15 +0.24    +0.201 C 
DOCKED: BRANCH   7   8
DOCKED: ATOM      8  O   UNL d   1      -7.229  13.105  34.257 -0.69 -0.63    -0.364 OA
DOCKED: BRANCH   8   9
DOCKED: ATOM      9  P   UNL d   1      -8.100  12.422  33.027 -0.32 -0.02    -0.015 P 
DOCKED: ATOM     10  O   UNL d   1      -7.069  11.662  32.184 -0.08 -0.49    -0.577 OA
DOCKED: ATOM     11  O   UNL d   1      -8.743  13.568  32.246 +0.00 -0.41    -0.577 OA
DOCKED: ATOM     12  O   UNL d   1      -9.123  11.484  33.665 -0.57 -1.09    -0.638 OA
DOCKED: ENDBRANCH   8   9
DOCKED: ENDBRANCH   7   8
DOCKED: ENDBRANCH   1   7
DOCKED: BRANCH   1  13
DOCKED: ATOM     13  C   UNL d   1      -7.058  10.978  37.383 -0.21 +0.06    +0.073 C 
DOCKED: ATOM     14  O   UNL d   1      -7.906  10.158  36.884 -0.25 -0.74    -0.547 OA
DOCKED: ATOM     15  O   UNL d   1      -6.653  10.953  38.600 -0.02 -0.27    -0.547 OA
DOCKED: ENDBRANCH   1  13
DOCKED: TORSDOF 6
DOCKED: TER
DOCKED: ENDMDL
________________________________________________________________________________


	BEGINNING GENETIC ALGORITHM DOCKING 45 of 100
Run: 45 Seed: 875787163 1475512637 [ Run 45 of 100 GA/GALS ]
Beginning LAMARCKIAN GENETIC ALGORITHM (LGA), with a maximum of 25000000 energy evaluations.

Final-Value: -7.059


	FINAL GENETIC ALGORITHM DOCKED STATE
	_______________________________________________


Detailed state:  trans 8.342 10.726 33.932 quatxyzw -0.001647 0.810712 0.527769 -0.253382 center 0.015 0.083 0.031 ntor 6 175.5661 63.4985 -23.6186 17.3319 60.3518 -14.5848
State:	  8.342  10.726  33.932  -0.002  0.838  0.546 -150.644    175.57   63.50  -23.62   17.33   60.35  -14.58

DOCKED: MODEL       45
DOCKED: USER    Run = 45
DOCKED: USER    DPF = D:/Protein_go_brrr/autodock/final/1A3N/2_3_BPG/dock.dpf
DOCKED: USER  
DOCKED: USER    Estimated Free Energy of Binding    =   -7.40 kcal/mol  [=(1)+(2)+(3)-(4)]
DOCKED: USER    Estimated Inhibition Constant, Ki   =    3.77 uM (micromolar)  [Temperature = 298.15 K]
DOCKED: USER    
DOCKED: USER    (1) Final Intermolecular Energy     =   -9.19 kcal/mol
DOCKED: USER        vdW + Hbond + desolv Energy     =   -3.53 kcal/mol
DOCKED: USER        Electrostatic Energy            =   -5.66 kcal/mol
DOCKED: USER    (2) Final Total Internal Energy     =   +2.13 kcal/mol
DOCKED: USER    (3) Torsional Free Energy           =   +1.79 kcal/mol
DOCKED: USER    (4) Unbound System's Energy  [=(2)] =   +2.13 kcal/mol
DOCKED: USER    
DOCKED: USER    
DOCKED: USER    NEWDPF move 2_3_BPG_opt.pdbqt
DOCKED: USER    NEWDPF about 0.015000 0.083000 0.031000
DOCKED: USER    NEWDPF tran0 8.341950 10.725882 33.932394
DOCKED: USER    NEWDPF quaternion0 -0.001647 0.810712 0.527769 -0.253382
DOCKED: USER    NEWDPF axisangle0 -0.001703 0.838061 0.545573 -150.644488
DOCKED: USER    NEWDPF quat0 -0.001703 0.838061 0.545573 -150.644488
DOCKED: USER    NEWDPF dihe0 175.57 63.50 -23.62 17.33 60.35 -14.58 
DOCKED: USER  keepresnum = 1 
DOCKED: USER  
DOCKED: REMARK  6 active torsions:
DOCKED: REMARK  status: ('A' for Active; 'I' for Inactive)
DOCKED: REMARK    1  A    between atoms: P_1  and  O_3 
DOCKED: REMARK    2  A    between atoms: P_2  and  O_4 
DOCKED: REMARK    3  A    between atoms: O_3  and  C_13 
DOCKED: REMARK    4  A    between atoms: O_4  and  C_14 
DOCKED: REMARK    5  A    between atoms: C_13  and  C_14 
DOCKED: REMARK    6  A    between atoms: C_13  and  C_15 
DOCKED: USER                              x       y       z     vdW  Elec       q    Type
DOCKED: USER                           _______ _______ _______ _____ _____    ______ ____
DOCKED: ROOT
DOCKED: ATOM      1  C   UNL d   1       8.975  10.512  33.878 -0.24 +0.11    +0.193 C 
DOCKED: ENDROOT
DOCKED: BRANCH   1   2
DOCKED: ATOM      2  O   UNL d   1       9.412  10.037  35.196 -0.50 -0.29    -0.356 OA
DOCKED: BRANCH   2   3
DOCKED: ATOM      3  P   UNL d   1      10.611  10.754  36.063 -0.24 -0.02    -0.014 P 
DOCKED: ATOM      4  O   UNL d   1      11.660   9.648  36.254 +0.00 -0.90    -0.577 OA
DOCKED: ATOM      5  O   UNL d   1      10.006  11.192  37.395 -0.02 -0.46    -0.577 OA
DOCKED: ATOM      6  O   UNL d   1      11.162  11.912  35.236 -0.43 -1.32    -0.638 OA
DOCKED: ENDBRANCH   2   3
DOCKED: ENDBRANCH   1   2
DOCKED: BRANCH   1   7
DOCKED: ATOM      7  C   UNL d   1       7.419  10.742  33.914 -0.31 +0.10    +0.201 C 
DOCKED: BRANCH   7   8
DOCKED: ATOM      8  O   UNL d   1       6.927  11.852  33.131 -0.16 -0.18    -0.364 OA
DOCKED: BRANCH   8   9
DOCKED: ATOM      9  P   UNL d   1       6.184  13.128  33.875 -0.19 -0.02    -0.015 P 
DOCKED: ATOM     10  O   UNL d   1       6.300  14.291  32.882 -0.11 -0.57    -0.577 OA
DOCKED: ATOM     11  O   UNL d   1       6.955  13.402  35.166 -0.05 -0.83    -0.577 OA
DOCKED: ATOM     12  O   UNL d   1       4.731  12.725  34.120 -0.65 -0.92    -0.638 OA
DOCKED: ENDBRANCH   8   9
DOCKED: ENDBRANCH   7   8
DOCKED: ENDBRANCH   1   7
DOCKED: BRANCH   1  13
DOCKED: ATOM     13  C   UNL d   1       9.300   9.432  32.780 -0.41 +0.03    +0.073 C 
DOCKED: ATOM     14  O   UNL d   1       9.903   9.807  31.714 -0.05 -0.23    -0.547 OA
DOCKED: ATOM     15  O   UNL d   1       8.993   8.215  33.051 -0.16 -0.17    -0.547 OA
DOCKED: ENDBRANCH   1  13
DOCKED: TORSDOF 6
DOCKED: TER
DOCKED: ENDMDL
________________________________________________________________________________


	BEGINNING GENETIC ALGORITHM DOCKING 46 of 100
Run: 46 Seed: 1014520157 1922452391 [ Run 46 of 100 GA/GALS ]
Beginning LAMARCKIAN GENETIC ALGORITHM (LGA), with a maximum of 25000000 energy evaluations.

Final-Value: -7.979


	FINAL GENETIC ALGORITHM DOCKED STATE
	_______________________________________________


Detailed state:  trans 6.938 -14.862 13.798 quatxyzw -0.061340 0.264784 0.953130 0.132931 center 0.015 0.083 0.031 ntor 6 167.1537 -53.1810 -94.9310 78.5270 -27.3351 133.3821
State:	  6.938 -14.862  13.798  -0.062  0.267  0.962 164.722    167.15  -53.18  -94.93   78.53  -27.34  133.38

DOCKED: MODEL       46
DOCKED: USER    Run = 46
DOCKED: USER    DPF = D:/Protein_go_brrr/autodock/final/1A3N/2_3_BPG/dock.dpf
DOCKED: USER  
DOCKED: USER    Estimated Free Energy of Binding    =   -8.65 kcal/mol  [=(1)+(2)+(3)-(4)]
DOCKED: USER    Estimated Inhibition Constant, Ki   =  453.57 nM (nanomolar)  [Temperature = 298.15 K]
DOCKED: USER    
DOCKED: USER    (1) Final Intermolecular Energy     =  -10.44 kcal/mol
DOCKED: USER        vdW + Hbond + desolv Energy     =   -4.10 kcal/mol
DOCKED: USER        Electrostatic Energy            =   -6.34 kcal/mol
DOCKED: USER    (2) Final Total Internal Energy     =   +2.47 kcal/mol
DOCKED: USER    (3) Torsional Free Energy           =   +1.79 kcal/mol
DOCKED: USER    (4) Unbound System's Energy  [=(2)] =   +2.47 kcal/mol
DOCKED: USER    
DOCKED: USER    
DOCKED: USER    NEWDPF move 2_3_BPG_opt.pdbqt
DOCKED: USER    NEWDPF about 0.015000 0.083000 0.031000
DOCKED: USER    NEWDPF tran0 6.938212 -14.861580 13.798381
DOCKED: USER    NEWDPF quaternion0 -0.061340 0.264784 0.953130 0.132931
DOCKED: USER    NEWDPF axisangle0 -0.061889 0.267155 0.961664 164.721969
DOCKED: USER    NEWDPF quat0 -0.061889 0.267155 0.961664 164.721969
DOCKED: USER    NEWDPF dihe0 167.15 -53.18 -94.93 78.53 -27.34 133.38 
DOCKED: USER  keepresnum = 1 
DOCKED: USER  
DOCKED: REMARK  6 active torsions:
DOCKED: REMARK  status: ('A' for Active; 'I' for Inactive)
DOCKED: REMARK    1  A    between atoms: P_1  and  O_3 
DOCKED: REMARK    2  A    between atoms: P_2  and  O_4 
DOCKED: REMARK    3  A    between atoms: O_3  and  C_13 
DOCKED: REMARK    4  A    between atoms: O_4  and  C_14 
DOCKED: REMARK    5  A    between atoms: C_13  and  C_14 
DOCKED: REMARK    6  A    between atoms: C_13  and  C_15 
DOCKED: USER                              x       y       z     vdW  Elec       q    Type
DOCKED: USER                           _______ _______ _______ _____ _____    ______ ____
DOCKED: ROOT
DOCKED: ATOM      1  C   UNL d   1       7.413 -14.391  13.742 -0.10 +0.23    +0.193 C 
DOCKED: ENDROOT
DOCKED: BRANCH   1   2
DOCKED: ATOM      2  O   UNL d   1       8.714 -15.063  13.659 -0.42 -0.70    -0.356 OA
DOCKED: BRANCH   2   3
DOCKED: ATOM      3  P   UNL d   1       9.238 -16.158  14.769 -0.08 -0.02    -0.014 P 
DOCKED: ATOM      4  O   UNL d   1       9.528 -17.425  13.950 -0.18 -0.95    -0.577 OA
DOCKED: ATOM      5  O   UNL d   1       8.098 -16.378  15.761 +0.02 -0.51    -0.577 OA
DOCKED: ATOM      6  O   UNL d   1      10.506 -15.606  15.413 -0.03 -0.74    -0.638 OA
DOCKED: ENDBRANCH   2   3
DOCKED: ENDBRANCH   1   2
DOCKED: BRANCH   1   7
DOCKED: ATOM      7  C   UNL d   1       6.277 -15.468  13.581 -0.09 +0.22    +0.201 C 
DOCKED: BRANCH   7   8
DOCKED: ATOM      8  O   UNL d   1       6.182 -16.094  12.282 -0.10 -0.66    -0.364 OA
DOCKED: BRANCH   8   9
DOCKED: ATOM      9  P   UNL d   1       5.497 -17.592  12.132 -0.47 -0.02    -0.015 P 
DOCKED: ATOM     10  O   UNL d   1       3.996 -17.328  11.960 -0.49 -0.40    -0.577 OA
DOCKED: ATOM     11  O   UNL d   1       5.798 -18.353  13.422 -0.02 -0.44    -0.577 OA
DOCKED: ATOM     12  O   UNL d   1       6.110 -18.247  10.894 -0.86 -1.03    -0.638 OA
DOCKED: ENDBRANCH   8   9
DOCKED: ENDBRANCH   7   8
DOCKED: ENDBRANCH   1   7
DOCKED: BRANCH   1  13
DOCKED: ATOM     13  C   UNL d   1       7.275 -13.336  12.583 -0.33 +0.08    +0.073 C 
DOCKED: ATOM     14  O   UNL d   1       6.739 -12.203  12.848 -0.66 -0.47    -0.547 OA
DOCKED: ATOM     15  O   UNL d   1       7.772 -13.655  11.443 -0.29 -0.94    -0.547 OA
DOCKED: ENDBRANCH   1  13
DOCKED: TORSDOF 6
DOCKED: TER
DOCKED: ENDMDL
________________________________________________________________________________


	BEGINNING GENETIC ALGORITHM DOCKING 47 of 100
Run: 47 Seed: 58093001 1947724372 [ Run 47 of 100 GA/GALS ]
Beginning LAMARCKIAN GENETIC ALGORITHM (LGA), with a maximum of 25000000 energy evaluations.

Final-Value: -7.110


	FINAL GENETIC ALGORITHM DOCKED STATE
	_______________________________________________


Detailed state:  trans 7.150 -16.894 14.550 quatxyzw -0.001666 -0.415740 0.854295 0.311989 center 0.015 0.083 0.031 ntor 6 146.0496 -5.8147 14.4642 39.5348 -15.4246 154.2459
State:	  7.150 -16.894  14.550  -0.002 -0.438  0.899 143.642    146.05   -5.81   14.46   39.53  -15.42  154.25

DOCKED: MODEL       47
DOCKED: USER    Run = 47
DOCKED: USER    DPF = D:/Protein_go_brrr/autodock/final/1A3N/2_3_BPG/dock.dpf
DOCKED: USER  
DOCKED: USER    Estimated Free Energy of Binding    =   -7.45 kcal/mol  [=(1)+(2)+(3)-(4)]
DOCKED: USER    Estimated Inhibition Constant, Ki   =    3.45 uM (micromolar)  [Temperature = 298.15 K]
DOCKED: USER    
DOCKED: USER    (1) Final Intermolecular Energy     =   -9.24 kcal/mol
DOCKED: USER        vdW + Hbond + desolv Energy     =   -3.15 kcal/mol
DOCKED: USER        Electrostatic Energy            =   -6.10 kcal/mol
DOCKED: USER    (2) Final Total Internal Energy     =   +2.13 kcal/mol
DOCKED: USER    (3) Torsional Free Energy           =   +1.79 kcal/mol
DOCKED: USER    (4) Unbound System's Energy  [=(2)] =   +2.13 kcal/mol
DOCKED: USER    
DOCKED: USER    
DOCKED: USER    NEWDPF move 2_3_BPG_opt.pdbqt
DOCKED: USER    NEWDPF about 0.015000 0.083000 0.031000
DOCKED: USER    NEWDPF tran0 7.150223 -16.894144 14.549929
DOCKED: USER    NEWDPF quaternion0 -0.001666 -0.415740 0.854295 0.311989
DOCKED: USER    NEWDPF axisangle0 -0.001754 -0.437581 0.899177 143.641682
DOCKED: USER    NEWDPF quat0 -0.001754 -0.437581 0.899177 143.641682
DOCKED: USER    NEWDPF dihe0 146.05 -5.81 14.46 39.53 -15.42 154.25 
DOCKED: USER  keepresnum = 1 
DOCKED: USER  
DOCKED: REMARK  6 active torsions:
DOCKED: REMARK  status: ('A' for Active; 'I' for Inactive)
DOCKED: REMARK    1  A    between atoms: P_1  and  O_3 
DOCKED: REMARK    2  A    between atoms: P_2  and  O_4 
DOCKED: REMARK    3  A    between atoms: O_3  and  C_13 
DOCKED: REMARK    4  A    between atoms: O_4  and  C_14 
DOCKED: REMARK    5  A    between atoms: C_13  and  C_14 
DOCKED: REMARK    6  A    between atoms: C_13  and  C_15 
DOCKED: USER                              x       y       z     vdW  Elec       q    Type
DOCKED: USER                           _______ _______ _______ _____ _____    ______ ____
DOCKED: ROOT
DOCKED: ATOM      1  C   UNL d   1       7.479 -16.505  14.986 -0.04 +0.19    +0.193 C 
DOCKED: ENDROOT
DOCKED: BRANCH   1   2
DOCKED: ATOM      2  O   UNL d   1       8.586 -15.856  14.274 -0.47 -0.58    -0.356 OA
DOCKED: BRANCH   2   3
DOCKED: ATOM      3  P   UNL d   1      10.107 -16.478  14.212 -0.03 -0.02    -0.014 P 
DOCKED: ATOM      4  O   UNL d   1      10.834 -15.611  13.172 -0.19 -0.90    -0.577 OA
DOCKED: ATOM      5  O   UNL d   1       9.985 -17.928  13.748 -0.07 -0.80    -0.577 OA
DOCKED: ATOM      6  O   UNL d   1      10.732 -16.334  15.596 -0.17 -0.85    -0.638 OA
DOCKED: ENDBRANCH   2   3
DOCKED: ENDBRANCH   1   2
DOCKED: BRANCH   1   7
DOCKED: ATOM      7  C   UNL d   1       6.530 -17.184  13.931 -0.07 +0.22    +0.201 C 
DOCKED: BRANCH   7   8
DOCKED: ATOM      8  O   UNL d   1       6.180 -16.376  12.785 -0.15 -0.57    -0.364 OA
DOCKED: BRANCH   8   9
DOCKED: ATOM      9  P   UNL d   1       5.450 -17.069  11.473 -0.44 -0.02    -0.015 P 
DOCKED: ATOM     10  O   UNL d   1       5.621 -16.052  10.338 -0.27 -0.82    -0.577 OA
DOCKED: ATOM     11  O   UNL d   1       3.981 -17.277  11.837 -0.46 -0.42    -0.577 OA
DOCKED: ATOM     12  O   UNL d   1       6.186 -18.377  11.186 -0.81 -0.99    -0.638 OA
DOCKED: ENDBRANCH   8   9
DOCKED: ENDBRANCH   7   8
DOCKED: ENDBRANCH   1   7
DOCKED: BRANCH   1  13
DOCKED: ATOM     13  C   UNL d   1       6.654 -15.434  15.791 -0.04 +0.05    +0.073 C 
DOCKED: ATOM     14  O   UNL d   1       5.910 -15.833  16.755 +0.01 -0.25    -0.547 OA
DOCKED: ATOM     15  O   UNL d   1       6.827 -14.203  15.470 +0.05 -0.33    -0.547 OA
DOCKED: ENDBRANCH   1  13
DOCKED: TORSDOF 6
DOCKED: TER
DOCKED: ENDMDL
________________________________________________________________________________


	BEGINNING GENETIC ALGORITHM DOCKING 48 of 100
Run: 48 Seed: 195821364 1810003025 [ Run 48 of 100 GA/GALS ]
Beginning LAMARCKIAN GENETIC ALGORITHM (LGA), with a maximum of 25000000 energy evaluations.

Final-Value: -7.320


	FINAL GENETIC ALGORITHM DOCKED STATE
	_______________________________________________


Detailed state:  trans -6.752 12.834 36.735 quatxyzw -0.286361 -0.586283 0.016919 -0.757617 center 0.015 0.083 0.031 ntor 6 -153.5787 19.8862 -125.5280 -1.8868 42.1788 -102.6418
State:	 -6.752  12.834  36.735  -0.439 -0.898  0.026 -81.491   -153.58   19.89 -125.53   -1.89   42.18 -102.64

DOCKED: MODEL       48
DOCKED: USER    Run = 48
DOCKED: USER    DPF = D:/Protein_go_brrr/autodock/final/1A3N/2_3_BPG/dock.dpf
DOCKED: USER  
DOCKED: USER    Estimated Free Energy of Binding    =   -7.86 kcal/mol  [=(1)+(2)+(3)-(4)]
DOCKED: USER    Estimated Inhibition Constant, Ki   =    1.75 uM (micromolar)  [Temperature = 298.15 K]
DOCKED: USER    
DOCKED: USER    (1) Final Intermolecular Energy     =   -9.64 kcal/mol
DOCKED: USER        vdW + Hbond + desolv Energy     =   -3.32 kcal/mol
DOCKED: USER        Electrostatic Energy            =   -6.32 kcal/mol
DOCKED: USER    (2) Final Total Internal Energy     =   +2.32 kcal/mol
DOCKED: USER    (3) Torsional Free Energy           =   +1.79 kcal/mol
DOCKED: USER    (4) Unbound System's Energy  [=(2)] =   +2.32 kcal/mol
DOCKED: USER    
DOCKED: USER    
DOCKED: USER    NEWDPF move 2_3_BPG_opt.pdbqt
DOCKED: USER    NEWDPF about 0.015000 0.083000 0.031000
DOCKED: USER    NEWDPF tran0 -6.751684 12.834312 36.735212
DOCKED: USER    NEWDPF quaternion0 -0.286361 -0.586283 0.016919 -0.757617
DOCKED: USER    NEWDPF axisangle0 -0.438733 -0.898243 0.025921 -81.490919
DOCKED: USER    NEWDPF quat0 -0.438733 -0.898243 0.025921 -81.490919
DOCKED: USER    NEWDPF dihe0 -153.58 19.89 -125.53 -1.89 42.18 -102.64 
DOCKED: USER  keepresnum = 1 
DOCKED: USER  
DOCKED: REMARK  6 active torsions:
DOCKED: REMARK  status: ('A' for Active; 'I' for Inactive)
DOCKED: REMARK    1  A    between atoms: P_1  and  O_3 
DOCKED: REMARK    2  A    between atoms: P_2  and  O_4 
DOCKED: REMARK    3  A    between atoms: O_3  and  C_13 
DOCKED: REMARK    4  A    between atoms: O_4  and  C_14 
DOCKED: REMARK    5  A    between atoms: C_13  and  C_14 
DOCKED: REMARK    6  A    between atoms: C_13  and  C_15 
DOCKED: USER                              x       y       z     vdW  Elec       q    Type
DOCKED: USER                           _______ _______ _______ _____ _____    ______ ____
DOCKED: ROOT
DOCKED: ATOM      1  C   UNL d   1      -7.115  12.400  36.376 -0.16 +0.19    +0.193 C 
DOCKED: ENDROOT
DOCKED: BRANCH   1   2
DOCKED: ATOM      2  O   UNL d   1      -6.617  12.421  34.995 -0.40 -0.48    -0.356 OA
DOCKED: BRANCH   2   3
DOCKED: ATOM      3  P   UNL d   1      -7.604  12.493  33.681 -0.32 -0.02    -0.014 P 
DOCKED: ATOM      4  O   UNL d   1      -6.703  12.087  32.504 -0.11 -0.54    -0.577 OA
DOCKED: ATOM      5  O   UNL d   1      -8.081  13.938  33.552 -0.28 -0.88    -0.577 OA
DOCKED: ATOM      6  O   UNL d   1      -8.738  11.495  33.889 -0.50 -1.14    -0.638 OA
DOCKED: ENDBRANCH   2   3
DOCKED: ENDBRANCH   1   2
DOCKED: BRANCH   1   7
DOCKED: ATOM      7  C   UNL d   1      -6.101  13.182  37.290 -0.11 +0.16    +0.201 C 
DOCKED: BRANCH   7   8
DOCKED: ATOM      8  O   UNL d   1      -5.832  14.549  36.907 -0.16 -0.49    -0.364 OA
DOCKED: BRANCH   8   9
DOCKED: ATOM      9  P   UNL d   1      -4.277  15.113  36.883 -0.06 -0.02    -0.015 P 
DOCKED: ATOM     10  O   UNL d   1      -3.524  14.168  35.940 -0.17 -0.65    -0.577 OA
DOCKED: ATOM     11  O   UNL d   1      -3.750  15.029  38.316 +0.01 -0.31    -0.577 OA
DOCKED: ATOM     12  O   UNL d   1      -4.323  16.543  36.346 -0.52 -1.05    -0.638 OA
DOCKED: ENDBRANCH   8   9
DOCKED: ENDBRANCH   7   8
DOCKED: ENDBRANCH   1   7
DOCKED: BRANCH   1  13
DOCKED: ATOM     13  C   UNL d   1      -7.216  10.916  36.890 -0.18 +0.07    +0.073 C 
DOCKED: ATOM     14  O   UNL d   1      -8.363  10.344  36.884 -0.30 -0.77    -0.547 OA
DOCKED: ATOM     15  O   UNL d   1      -6.120  10.341  37.230 -0.08 -0.40    -0.547 OA
DOCKED: ENDBRANCH   1  13
DOCKED: TORSDOF 6
DOCKED: TER
DOCKED: ENDMDL
________________________________________________________________________________


	BEGINNING GENETIC ALGORITHM DOCKING 49 of 100
Run: 49 Seed: 34303717 1572298197 [ Run 49 of 100 GA/GALS ]
Beginning LAMARCKIAN GENETIC ALGORITHM (LGA), with a maximum of 25000000 energy evaluations.

Final-Value: -7.233


	FINAL GENETIC ALGORITHM DOCKED STATE
	_______________________________________________


Detailed state:  trans -6.563 11.820 36.108 quatxyzw -0.617590 0.601910 -0.495153 0.105404 center 0.015 0.083 0.031 ntor 6 122.1517 117.3821 -170.6950 57.4492 20.1861 -11.3300
State:	 -6.563  11.820  36.108  -0.621  0.605 -0.498 167.899    122.15  117.38 -170.69   57.45   20.19  -11.33

DOCKED: MODEL       49
DOCKED: USER    Run = 49
DOCKED: USER    DPF = D:/Protein_go_brrr/autodock/final/1A3N/2_3_BPG/dock.dpf
DOCKED: USER  
DOCKED: USER    Estimated Free Energy of Binding    =   -7.58 kcal/mol  [=(1)+(2)+(3)-(4)]
DOCKED: USER    Estimated Inhibition Constant, Ki   =    2.78 uM (micromolar)  [Temperature = 298.15 K]
DOCKED: USER    
DOCKED: USER    (1) Final Intermolecular Energy     =   -9.37 kcal/mol
DOCKED: USER        vdW + Hbond + desolv Energy     =   -3.65 kcal/mol
DOCKED: USER        Electrostatic Energy            =   -5.72 kcal/mol
DOCKED: USER    (2) Final Total Internal Energy     =   +2.14 kcal/mol
DOCKED: USER    (3) Torsional Free Energy           =   +1.79 kcal/mol
DOCKED: USER    (4) Unbound System's Energy  [=(2)] =   +2.14 kcal/mol
DOCKED: USER    
DOCKED: USER    
DOCKED: USER    NEWDPF move 2_3_BPG_opt.pdbqt
DOCKED: USER    NEWDPF about 0.015000 0.083000 0.031000
DOCKED: USER    NEWDPF tran0 -6.563153 11.819675 36.108018
DOCKED: USER    NEWDPF quaternion0 -0.617590 0.601910 -0.495153 0.105404
DOCKED: USER    NEWDPF axisangle0 -0.621050 0.605282 -0.497927 167.899088
DOCKED: USER    NEWDPF quat0 -0.621050 0.605282 -0.497927 167.899088
DOCKED: USER    NEWDPF dihe0 122.15 117.38 -170.69 57.45 20.19 -11.33 
DOCKED: USER  keepresnum = 1 
DOCKED: USER  
DOCKED: REMARK  6 active torsions:
DOCKED: REMARK  status: ('A' for Active; 'I' for Inactive)
DOCKED: REMARK    1  A    between atoms: P_1  and  O_3 
DOCKED: REMARK    2  A    between atoms: P_2  and  O_4 
DOCKED: REMARK    3  A    between atoms: O_3  and  C_13 
DOCKED: REMARK    4  A    between atoms: O_4  and  C_14 
DOCKED: REMARK    5  A    between atoms: C_13  and  C_14 
DOCKED: REMARK    6  A    between atoms: C_13  and  C_15 
DOCKED: USER                              x       y       z     vdW  Elec       q    Type
DOCKED: USER                           _______ _______ _______ _____ _____    ______ ____
DOCKED: ROOT
DOCKED: ATOM      1  C   UNL d   1      -6.128  12.206  35.775 -0.21 +0.21    +0.193 C 
DOCKED: ENDROOT
DOCKED: BRANCH   1   2
DOCKED: ATOM      2  O   UNL d   1      -6.890  13.142  34.942 -0.60 -0.62    -0.356 OA
DOCKED: BRANCH   2   3
DOCKED: ATOM      3  P   UNL d   1      -7.651  12.700  33.552 -0.30 -0.02    -0.014 P 
DOCKED: ATOM      4  O   UNL d   1      -6.509  12.331  32.591 -0.14 -0.58    -0.577 OA
DOCKED: ATOM      5  O   UNL d   1      -8.431  13.915  33.057 -0.11 -0.64    -0.577 OA
DOCKED: ATOM      6  O   UNL d   1      -8.533  11.495  33.861 -0.47 -1.11    -0.638 OA
DOCKED: ENDBRANCH   2   3
DOCKED: ENDBRANCH   1   2
DOCKED: BRANCH   1   7
DOCKED: ATOM      7  C   UNL d   1      -7.116  11.497  36.773 -0.16 +0.18    +0.201 C 
DOCKED: BRANCH   7   8
DOCKED: ATOM      8  O   UNL d   1      -6.779  10.141  37.138 -0.14 -0.32    -0.364 OA
DOCKED: BRANCH   8   9
DOCKED: ATOM      9  P   UNL d   1      -7.955   9.110  37.677 -0.17 -0.01    -0.015 P 
DOCKED: ATOM     10  O   UNL d   1      -9.279   9.824  37.380 -0.47 -0.73    -0.577 OA
DOCKED: ATOM     11  O   UNL d   1      -7.732   8.923  39.177 -0.02 -0.24    -0.577 OA
DOCKED: ATOM     12  O   UNL d   1      -7.814   7.811  36.885 -0.28 -0.75    -0.638 OA
DOCKED: ENDBRANCH   8   9
DOCKED: ENDBRANCH   7   8
DOCKED: ENDBRANCH   1   7
DOCKED: BRANCH   1  13
DOCKED: ATOM     13  C   UNL d   1      -5.043  12.985  36.609 -0.29 +0.07    +0.073 C 
DOCKED: ATOM     14  O   UNL d   1      -4.337  12.333  37.455 -0.09 -0.28    -0.547 OA
DOCKED: ATOM     15  O   UNL d   1      -4.888  14.231  36.341 -0.19 -0.86    -0.547 OA
DOCKED: ENDBRANCH   1  13
DOCKED: TORSDOF 6
DOCKED: TER
DOCKED: ENDMDL
________________________________________________________________________________


	BEGINNING GENETIC ALGORITHM DOCKING 50 of 100
Run: 50 Seed: 1342864391 181512121 [ Run 50 of 100 GA/GALS ]
Beginning LAMARCKIAN GENETIC ALGORITHM (LGA), with a maximum of 25000000 energy evaluations.

Final-Value: -7.293


	FINAL GENETIC ALGORITHM DOCKED STATE
	_______________________________________________


Detailed state:  trans 7.664 11.974 35.914 quatxyzw -0.052614 -0.154148 0.553519 0.816754 center 0.015 0.083 0.031 ntor 6 162.4909 21.1803 103.7584 -2.2180 44.1128 -39.9702
State:	  7.664  11.974  35.914  -0.091 -0.267  0.959 70.478    162.49   21.18  103.76   -2.22   44.11  -39.97

DOCKED: MODEL       50
DOCKED: USER    Run = 50
DOCKED: USER    DPF = D:/Protein_go_brrr/autodock/final/1A3N/2_3_BPG/dock.dpf
DOCKED: USER  
DOCKED: USER    Estimated Free Energy of Binding    =   -7.65 kcal/mol  [=(1)+(2)+(3)-(4)]
DOCKED: USER    Estimated Inhibition Constant, Ki   =    2.47 uM (micromolar)  [Temperature = 298.15 K]
DOCKED: USER    
DOCKED: USER    (1) Final Intermolecular Energy     =   -9.44 kcal/mol
DOCKED: USER        vdW + Hbond + desolv Energy     =   -2.84 kcal/mol
DOCKED: USER        Electrostatic Energy            =   -6.60 kcal/mol
DOCKED: USER    (2) Final Total Internal Energy     =   +2.15 kcal/mol
DOCKED: USER    (3) Torsional Free Energy           =   +1.79 kcal/mol
DOCKED: USER    (4) Unbound System's Energy  [=(2)] =   +2.15 kcal/mol
DOCKED: USER    
DOCKED: USER    
DOCKED: USER    NEWDPF move 2_3_BPG_opt.pdbqt
DOCKED: USER    NEWDPF about 0.015000 0.083000 0.031000
DOCKED: USER    NEWDPF tran0 7.664090 11.974225 35.913709
DOCKED: USER    NEWDPF quaternion0 -0.052614 -0.154148 0.553519 0.816754
DOCKED: USER    NEWDPF axisangle0 -0.091187 -0.267160 0.959328 70.477737
DOCKED: USER    NEWDPF quat0 -0.091187 -0.267160 0.959328 70.477737
DOCKED: USER    NEWDPF dihe0 162.49 21.18 103.76 -2.22 44.11 -39.97 
DOCKED: USER  keepresnum = 1 
DOCKED: USER  
DOCKED: REMARK  6 active torsions:
DOCKED: REMARK  status: ('A' for Active; 'I' for Inactive)
DOCKED: REMARK    1  A    between atoms: P_1  and  O_3 
DOCKED: REMARK    2  A    between atoms: P_2  and  O_4 
DOCKED: REMARK    3  A    between atoms: O_3  and  C_13 
DOCKED: REMARK    4  A    between atoms: O_4  and  C_14 
DOCKED: REMARK    5  A    between atoms: C_13  and  C_14 
DOCKED: REMARK    6  A    between atoms: C_13  and  C_15 
DOCKED: USER                              x       y       z     vdW  Elec       q    Type
DOCKED: USER                           _______ _______ _______ _____ _____    ______ ____
DOCKED: ROOT
DOCKED: ATOM      1  C   UNL d   1       7.196  12.352  36.210 -0.12 +0.17    +0.193 C 
DOCKED: ENDROOT
DOCKED: BRANCH   1   2
DOCKED: ATOM      2  O   UNL d   1       7.449  13.754  35.859 -0.05 -0.45    -0.356 OA
DOCKED: BRANCH   2   3
DOCKED: ATOM      3  P   UNL d   1       7.415  14.979  36.955 +0.08 -0.02    -0.014 P 
DOCKED: ATOM      4  O   UNL d   1       7.293  16.252  36.103 -0.46 -0.92    -0.577 OA
DOCKED: ATOM      5  O   UNL d   1       8.737  14.939  37.719 +0.02 -0.38    -0.577 OA
DOCKED: ATOM      6  O   UNL d   1       6.193  14.781  37.845 -0.01 -1.07    -0.638 OA
DOCKED: ENDBRANCH   2   3
DOCKED: ENDBRANCH   1   2
DOCKED: BRANCH   1   7
DOCKED: ATOM      7  C   UNL d   1       8.094  11.434  35.301 -0.16 +0.14    +0.201 C 
DOCKED: BRANCH   7   8
DOCKED: ATOM      8  O   UNL d   1       9.039  10.590  35.996 -0.47 -0.28    -0.364 OA
DOCKED: BRANCH   8   9
DOCKED: ATOM      9  P   UNL d   1      10.611  10.511  35.487 -0.27 -0.02    -0.015 P 
DOCKED: ATOM     10  O   UNL d   1      10.573   9.672  34.204 -0.03 -0.51    -0.577 OA
DOCKED: ATOM     11  O   UNL d   1      11.405   9.822  36.596 -0.05 -0.80    -0.577 OA
DOCKED: ATOM     12  O   UNL d   1      11.072  11.943  35.222 -0.45 -1.24    -0.638 OA
DOCKED: ENDBRANCH   8   9
DOCKED: ENDBRANCH   7   8
DOCKED: ENDBRANCH   1   7
DOCKED: BRANCH   1  13
DOCKED: ATOM     13  C   UNL d   1       5.685  11.995  35.950 -0.27 +0.08    +0.073 C 
DOCKED: ATOM     14  O   UNL d   1       5.099  11.190  36.756 -0.02 -0.37    -0.547 OA
DOCKED: ATOM     15  O   UNL d   1       5.106  12.589  34.970 -0.58 -0.93    -0.547 OA
DOCKED: ENDBRANCH   1  13
DOCKED: TORSDOF 6
DOCKED: TER
DOCKED: ENDMDL
________________________________________________________________________________


	BEGINNING GENETIC ALGORITHM DOCKING 51 of 100
Run: 51 Seed: 427784000 1254095299 [ Run 51 of 100 GA/GALS ]
Beginning LAMARCKIAN GENETIC ALGORITHM (LGA), with a maximum of 25000000 energy evaluations.

Final-Value: -7.073


	FINAL GENETIC ALGORITHM DOCKED STATE
	_______________________________________________


Detailed state:  trans -7.625 12.179 36.174 quatxyzw -0.002118 -0.595191 -0.754223 -0.277293 center 0.015 0.083 0.031 ntor 6 -111.6082 71.5345 71.5935 17.3953 5.1584 -179.8145
State:	 -7.625  12.179  36.174  -0.002 -0.619 -0.785 -147.803   -111.61   71.53   71.59   17.40    5.16 -179.81

DOCKED: MODEL       51
DOCKED: USER    Run = 51
DOCKED: USER    DPF = D:/Protein_go_brrr/autodock/final/1A3N/2_3_BPG/dock.dpf
DOCKED: USER  
DOCKED: USER    Estimated Free Energy of Binding    =   -7.45 kcal/mol  [=(1)+(2)+(3)-(4)]
DOCKED: USER    Estimated Inhibition Constant, Ki   =    3.43 uM (micromolar)  [Temperature = 298.15 K]
DOCKED: USER    
DOCKED: USER    (1) Final Intermolecular Energy     =   -9.24 kcal/mol
DOCKED: USER        vdW + Hbond + desolv Energy     =   -3.43 kcal/mol
DOCKED: USER        Electrostatic Energy            =   -5.82 kcal/mol
DOCKED: USER    (2) Final Total Internal Energy     =   +2.17 kcal/mol
DOCKED: USER    (3) Torsional Free Energy           =   +1.79 kcal/mol
DOCKED: USER    (4) Unbound System's Energy  [=(2)] =   +2.17 kcal/mol
DOCKED: USER    
DOCKED: USER    
DOCKED: USER    NEWDPF move 2_3_BPG_opt.pdbqt
DOCKED: USER    NEWDPF about 0.015000 0.083000 0.031000
DOCKED: USER    NEWDPF tran0 -7.625200 12.179353 36.174090
DOCKED: USER    NEWDPF quaternion0 -0.002118 -0.595191 -0.754223 -0.277293
DOCKED: USER    NEWDPF axisangle0 -0.002205 -0.619484 -0.785007 -147.802613
DOCKED: USER    NEWDPF quat0 -0.002205 -0.619484 -0.785007 -147.802613
DOCKED: USER    NEWDPF dihe0 -111.61 71.53 71.59 17.40 5.16 -179.81 
DOCKED: USER  keepresnum = 1 
DOCKED: USER  
DOCKED: REMARK  6 active torsions:
DOCKED: REMARK  status: ('A' for Active; 'I' for Inactive)
DOCKED: REMARK    1  A    between atoms: P_1  and  O_3 
DOCKED: REMARK    2  A    between atoms: P_2  and  O_4 
DOCKED: REMARK    3  A    between atoms: O_3  and  C_13 
DOCKED: REMARK    4  A    between atoms: O_4  and  C_14 
DOCKED: REMARK    5  A    between atoms: C_13  and  C_14 
DOCKED: REMARK    6  A    between atoms: C_13  and  C_15 
DOCKED: USER                              x       y       z     vdW  Elec       q    Type
DOCKED: USER                           _______ _______ _______ _____ _____    ______ ____
DOCKED: ROOT
DOCKED: ATOM      1  C   UNL d   1      -7.291  12.550  35.726 -0.17 +0.23    +0.193 C 
DOCKED: ENDROOT
DOCKED: BRANCH   1   2
DOCKED: ATOM      2  O   UNL d   1      -5.857  12.298  35.904 -0.21 -0.37    -0.356 OA
DOCKED: BRANCH   2   3
DOCKED: ATOM      3  P   UNL d   1      -4.793  13.449  36.403 -0.33 -0.02    -0.014 P 
DOCKED: ATOM      4  O   UNL d   1      -3.896  13.697  35.181 -0.10 -0.75    -0.577 OA
DOCKED: ATOM      5  O   UNL d   1      -4.003  12.860  37.570 -0.05 -0.30    -0.577 OA
DOCKED: ATOM      6  O   UNL d   1      -5.589  14.696  36.776 -0.09 -1.00    -0.638 OA
DOCKED: ENDBRANCH   2   3
DOCKED: ENDBRANCH   1   2
DOCKED: BRANCH   1   7
DOCKED: ATOM      7  C   UNL d   1      -8.097  11.485  36.558 -0.12 +0.21    +0.201 C 
DOCKED: BRANCH   7   8
DOCKED: ATOM      8  O   UNL d   1      -7.378  10.282  36.908 -0.19 -0.41    -0.364 OA
DOCKED: BRANCH   8   9
DOCKED: ATOM      9  P   UNL d   1      -8.176   9.010  37.602 -0.09 -0.02    -0.015 P 
DOCKED: ATOM     10  O   UNL d   1      -7.748   9.025  39.074 -0.02 -0.26    -0.577 OA
DOCKED: ATOM     11  O   UNL d   1      -7.707   7.745  36.884 -0.29 -0.62    -0.577 OA
DOCKED: ATOM     12  O   UNL d   1      -9.672   9.272  37.436 -0.51 -0.80    -0.638 OA
DOCKED: ENDBRANCH   8   9
DOCKED: ENDBRANCH   7   8
DOCKED: ENDBRANCH   1   7
DOCKED: BRANCH   1  13
DOCKED: ATOM     13  C   UNL d   1      -7.680  12.403  34.208 -0.23 +0.10    +0.073 C 
DOCKED: ATOM     14  O   UNL d   1      -7.083  13.144  33.350 -0.54 -0.86    -0.547 OA
DOCKED: ATOM     15  O   UNL d   1      -8.537  11.495  33.911 -0.49 -0.96    -0.547 OA
DOCKED: ENDBRANCH   1  13
DOCKED: TORSDOF 6
DOCKED: TER
DOCKED: ENDMDL
________________________________________________________________________________


	BEGINNING GENETIC ALGORITHM DOCKING 52 of 100
Run: 52 Seed: 543530504 344693788 [ Run 52 of 100 GA/GALS ]
Beginning LAMARCKIAN GENETIC ALGORITHM (LGA), with a maximum of 25000000 energy evaluations.

Final-Value: -7.442


	FINAL GENETIC ALGORITHM DOCKED STATE
	_______________________________________________


Detailed state:  trans -6.496 11.972 36.239 quatxyzw -0.654860 0.558441 -0.456434 0.225764 center 0.015 0.083 0.031 ntor 6 155.5646 129.1553 -157.0600 26.7831 48.9762 -30.2423
State:	 -6.496  11.972  36.239  -0.672  0.573 -0.469 153.904    155.56  129.16 -157.06   26.78   48.98  -30.24

DOCKED: MODEL       52
DOCKED: USER    Run = 52
DOCKED: USER    DPF = D:/Protein_go_brrr/autodock/final/1A3N/2_3_BPG/dock.dpf
DOCKED: USER  
DOCKED: USER    Estimated Free Energy of Binding    =   -7.88 kcal/mol  [=(1)+(2)+(3)-(4)]
DOCKED: USER    Estimated Inhibition Constant, Ki   =    1.66 uM (micromolar)  [Temperature = 298.15 K]
DOCKED: USER    
DOCKED: USER    (1) Final Intermolecular Energy     =   -9.67 kcal/mol
DOCKED: USER        vdW + Hbond + desolv Energy     =   -3.52 kcal/mol
DOCKED: USER        Electrostatic Energy            =   -6.16 kcal/mol
DOCKED: USER    (2) Final Total Internal Energy     =   +2.23 kcal/mol
DOCKED: USER    (3) Torsional Free Energy           =   +1.79 kcal/mol
DOCKED: USER    (4) Unbound System's Energy  [=(2)] =   +2.23 kcal/mol
DOCKED: USER    
DOCKED: USER    
DOCKED: USER    NEWDPF move 2_3_BPG_opt.pdbqt
DOCKED: USER    NEWDPF about 0.015000 0.083000 0.031000
DOCKED: USER    NEWDPF tran0 -6.496304 11.972312 36.238726
DOCKED: USER    NEWDPF quaternion0 -0.654860 0.558441 -0.456434 0.225764
DOCKED: USER    NEWDPF axisangle0 -0.672216 0.573241 -0.468530 153.904407
DOCKED: USER    NEWDPF quat0 -0.672216 0.573241 -0.468530 153.904407
DOCKED: USER    NEWDPF dihe0 155.56 129.16 -157.06 26.78 48.98 -30.24 
DOCKED: USER  keepresnum = 1 
DOCKED: USER  
DOCKED: REMARK  6 active torsions:
DOCKED: REMARK  status: ('A' for Active; 'I' for Inactive)
DOCKED: REMARK    1  A    between atoms: P_1  and  O_3 
DOCKED: REMARK    2  A    between atoms: P_2  and  O_4 
DOCKED: REMARK    3  A    between atoms: O_3  and  C_13 
DOCKED: REMARK    4  A    between atoms: O_4  and  C_14 
DOCKED: REMARK    5  A    between atoms: C_13  and  C_14 
DOCKED: REMARK    6  A    between atoms: C_13  and  C_15 
DOCKED: USER                              x       y       z     vdW  Elec       q    Type
DOCKED: USER                           _______ _______ _______ _____ _____    ______ ____
DOCKED: ROOT
DOCKED: ATOM      1  C   UNL d   1      -6.148  12.291  35.763 -0.21 +0.21    +0.193 C 
DOCKED: ENDROOT
DOCKED: BRANCH   1   2
DOCKED: ATOM      2  O   UNL d   1      -7.076  13.141  35.009 -0.61 -0.59    -0.356 OA
DOCKED: BRANCH   2   3
DOCKED: ATOM      3  P   UNL d   1      -7.602  12.781  33.493 -0.28 -0.02    -0.014 P 
DOCKED: ATOM      4  O   UNL d   1      -6.315  12.590  32.676 -0.19 -0.62    -0.577 OA
DOCKED: ATOM      5  O   UNL d   1      -8.409  13.979  32.998 -0.11 -0.64    -0.577 OA
DOCKED: ATOM      6  O   UNL d   1      -8.413  11.492  33.570 -0.49 -1.03    -0.638 OA
DOCKED: ENDBRANCH   2   3
DOCKED: ENDBRANCH   1   2
DOCKED: BRANCH   1   7
DOCKED: ATOM      7  C   UNL d   1      -6.879  11.766  37.053 -0.16 +0.16    +0.201 C 
DOCKED: BRANCH   7   8
DOCKED: ATOM      8  O   UNL d   1      -6.816  10.340  37.277 -0.16 -0.30    -0.364 OA
DOCKED: BRANCH   8   9
DOCKED: ATOM      9  P   UNL d   1      -8.204   9.481  37.549 -0.11 -0.02    -0.015 P 
DOCKED: ATOM     10  O   UNL d   1      -9.317  10.300  36.884 -0.29 -0.86    -0.577 OA
DOCKED: ATOM     11  O   UNL d   1      -8.386   9.396  39.064 -0.01 -0.27    -0.577 OA
DOCKED: ATOM     12  O   UNL d   1      -8.025   8.115  36.890 -0.32 -0.95    -0.638 OA
DOCKED: ENDBRANCH   8   9
DOCKED: ENDBRANCH   7   8
DOCKED: ENDBRANCH   1   7
DOCKED: BRANCH   1  13
DOCKED: ATOM     13  C   UNL d   1      -4.887  13.125  36.201 -0.32 +0.08    +0.073 C 
DOCKED: ATOM     14  O   UNL d   1      -3.769  12.515  36.341 -0.15 -0.33    -0.547 OA
DOCKED: ATOM     15  O   UNL d   1      -5.044  14.392  36.333 -0.13 -0.96    -0.547 OA
DOCKED: ENDBRANCH   1  13
DOCKED: TORSDOF 6
DOCKED: TER
DOCKED: ENDMDL
________________________________________________________________________________


	BEGINNING GENETIC ALGORITHM DOCKING 53 of 100
Run: 53 Seed: 1580773021 645717436 [ Run 53 of 100 GA/GALS ]
Beginning LAMARCKIAN GENETIC ALGORITHM (LGA), with a maximum of 25000000 energy evaluations.

Final-Value: -7.797


	FINAL GENETIC ALGORITHM DOCKED STATE
	_______________________________________________


Detailed state:  trans 6.728 -14.747 13.620 quatxyzw 0.152060 -0.073240 -0.985654 0.000137 center 0.015 0.083 0.031 ntor 6 139.4747 -33.3894 -148.5285 39.8904 23.0338 -141.3054
State:	  6.728 -14.747  13.620   0.152 -0.073 -0.986 179.984    139.47  -33.39 -148.53   39.89   23.03 -141.31

DOCKED: MODEL       53
DOCKED: USER    Run = 53
DOCKED: USER    DPF = D:/Protein_go_brrr/autodock/final/1A3N/2_3_BPG/dock.dpf
DOCKED: USER  
DOCKED: USER    Estimated Free Energy of Binding    =   -8.25 kcal/mol  [=(1)+(2)+(3)-(4)]
DOCKED: USER    Estimated Inhibition Constant, Ki   =  895.86 nM (nanomolar)  [Temperature = 298.15 K]
DOCKED: USER    
DOCKED: USER    (1) Final Intermolecular Energy     =  -10.04 kcal/mol
DOCKED: USER        vdW + Hbond + desolv Energy     =   -3.91 kcal/mol
DOCKED: USER        Electrostatic Energy            =   -6.13 kcal/mol
DOCKED: USER    (2) Final Total Internal Energy     =   +2.24 kcal/mol
DOCKED: USER    (3) Torsional Free Energy           =   +1.79 kcal/mol
DOCKED: USER    (4) Unbound System's Energy  [=(2)] =   +2.24 kcal/mol
DOCKED: USER    
DOCKED: USER    
DOCKED: USER    NEWDPF move 2_3_BPG_opt.pdbqt
DOCKED: USER    NEWDPF about 0.015000 0.083000 0.031000
DOCKED: USER    NEWDPF tran0 6.728129 -14.746721 13.620224
DOCKED: USER    NEWDPF quaternion0 0.152060 -0.073240 -0.985654 0.000137
DOCKED: USER    NEWDPF axisangle0 0.152060 -0.073240 -0.985654 179.984276
DOCKED: USER    NEWDPF quat0 0.152060 -0.073240 -0.985654 179.984276
DOCKED: USER    NEWDPF dihe0 139.47 -33.39 -148.53 39.89 23.03 -141.31 
DOCKED: USER  keepresnum = 1 
DOCKED: USER  
DOCKED: REMARK  6 active torsions:
DOCKED: REMARK  status: ('A' for Active; 'I' for Inactive)
DOCKED: REMARK    1  A    between atoms: P_1  and  O_3 
DOCKED: REMARK    2  A    between atoms: P_2  and  O_4 
DOCKED: REMARK    3  A    between atoms: O_3  and  C_13 
DOCKED: REMARK    4  A    between atoms: O_4  and  C_14 
DOCKED: REMARK    5  A    between atoms: C_13  and  C_14 
DOCKED: REMARK    6  A    between atoms: C_13  and  C_15 
DOCKED: USER                              x       y       z     vdW  Elec       q    Type
DOCKED: USER                           _______ _______ _______ _____ _____    ______ ____
DOCKED: ROOT
DOCKED: ATOM      1  C   UNL d   1       7.266 -14.412  13.839 -0.10 +0.22    +0.193 C 
DOCKED: ENDROOT
DOCKED: BRANCH   1   2
DOCKED: ATOM      2  O   UNL d   1       8.442 -15.271  13.662 -0.23 -0.76    -0.356 OA
DOCKED: BRANCH   2   3
DOCKED: ATOM      3  P   UNL d   1       9.012 -16.274  14.834 -0.07 -0.02    -0.014 P 
DOCKED: ATOM      4  O   UNL d   1       9.478 -17.526  14.074 -0.17 -0.88    -0.577 OA
DOCKED: ATOM      5  O   UNL d   1       7.845 -16.586  15.769 +0.03 -0.49    -0.577 OA
DOCKED: ATOM      6  O   UNL d   1      10.176 -15.575  15.529 -0.02 -0.72    -0.638 OA
DOCKED: ENDBRANCH   2   3
DOCKED: ENDBRANCH   1   2
DOCKED: BRANCH   1   7
DOCKED: ATOM      7  C   UNL d   1       6.052 -15.055  13.073 -0.16 +0.22    +0.201 C 
DOCKED: BRANCH   7   8
DOCKED: ATOM      8  O   UNL d   1       6.186 -16.454  12.739 -0.17 -0.58    -0.364 OA
DOCKED: BRANCH   8   9
DOCKED: ATOM      9  P   UNL d   1       5.366 -17.081  11.447 -0.48 -0.02    -0.015 P 
DOCKED: ATOM     10  O   UNL d   1       5.317 -15.946  10.417 -0.17 -0.71    -0.577 OA
DOCKED: ATOM     11  O   UNL d   1       3.972 -17.462  11.945 -0.50 -0.39    -0.577 OA
DOCKED: ATOM     12  O   UNL d   1       6.169 -18.280  10.942 -0.85 -1.04    -0.638 OA
DOCKED: ENDBRANCH   8   9
DOCKED: ENDBRANCH   7   8
DOCKED: ENDBRANCH   1   7
DOCKED: BRANCH   1  13
DOCKED: ATOM     13  C   UNL d   1       7.545 -12.985  13.235 -0.24 +0.07    +0.073 C 
DOCKED: ATOM     14  O   UNL d   1       6.738 -12.032  13.520 -0.61 -0.41    -0.547 OA
DOCKED: ATOM     15  O   UNL d   1       8.612 -12.847  12.535 -0.17 -0.62    -0.547 OA
DOCKED: ENDBRANCH   1  13
DOCKED: TORSDOF 6
DOCKED: TER
DOCKED: ENDMDL
________________________________________________________________________________


	BEGINNING GENETIC ALGORITHM DOCKING 54 of 100
Run: 54 Seed: 333065644 149588175 [ Run 54 of 100 GA/GALS ]
Beginning LAMARCKIAN GENETIC ALGORITHM (LGA), with a maximum of 25000000 energy evaluations.

Final-Value: -7.402


	FINAL GENETIC ALGORITHM DOCKED STATE
	_______________________________________________


Detailed state:  trans -6.377 11.784 36.185 quatxyzw 0.689008 -0.584645 0.402971 -0.145168 center 0.015 0.083 0.031 ntor 6 131.0239 127.1663 -42.7871 32.5834 -24.8138 -94.5160
State:	 -6.377  11.784  36.185   0.696 -0.591  0.407 -163.306    131.02  127.17  -42.79   32.58  -24.81  -94.52

DOCKED: MODEL       54
DOCKED: USER    Run = 54
DOCKED: USER    DPF = D:/Protein_go_brrr/autodock/final/1A3N/2_3_BPG/dock.dpf
DOCKED: USER  
DOCKED: USER    Estimated Free Energy of Binding    =   -7.77 kcal/mol  [=(1)+(2)+(3)-(4)]
DOCKED: USER    Estimated Inhibition Constant, Ki   =    2.01 uM (micromolar)  [Temperature = 298.15 K]
DOCKED: USER    
DOCKED: USER    (1) Final Intermolecular Energy     =   -9.56 kcal/mol
DOCKED: USER        vdW + Hbond + desolv Energy     =   -3.52 kcal/mol
DOCKED: USER        Electrostatic Energy            =   -6.04 kcal/mol
DOCKED: USER    (2) Final Total Internal Energy     =   +2.16 kcal/mol
DOCKED: USER    (3) Torsional Free Energy           =   +1.79 kcal/mol
DOCKED: USER    (4) Unbound System's Energy  [=(2)] =   +2.16 kcal/mol
DOCKED: USER    
DOCKED: USER    
DOCKED: USER    NEWDPF move 2_3_BPG_opt.pdbqt
DOCKED: USER    NEWDPF about 0.015000 0.083000 0.031000
DOCKED: USER    NEWDPF tran0 -6.376903 11.783690 36.185267
DOCKED: USER    NEWDPF quaternion0 0.689008 -0.584645 0.402971 -0.145168
DOCKED: USER    NEWDPF axisangle0 0.696384 -0.590904 0.407285 -163.306021
DOCKED: USER    NEWDPF quat0 0.696384 -0.590904 0.407285 -163.306021
DOCKED: USER    NEWDPF dihe0 131.02 127.17 -42.79 32.58 -24.81 -94.52 
DOCKED: USER  keepresnum = 1 
DOCKED: USER  
DOCKED: REMARK  6 active torsions:
DOCKED: REMARK  status: ('A' for Active; 'I' for Inactive)
DOCKED: REMARK    1  A    between atoms: P_1  and  O_3 
DOCKED: REMARK    2  A    between atoms: P_2  and  O_4 
DOCKED: REMARK    3  A    between atoms: O_3  and  C_13 
DOCKED: REMARK    4  A    between atoms: O_4  and  C_14 
DOCKED: REMARK    5  A    between atoms: C_13  and  C_14 
DOCKED: REMARK    6  A    between atoms: C_13  and  C_15 
DOCKED: USER                              x       y       z     vdW  Elec       q    Type
DOCKED: USER                           _______ _______ _______ _____ _____    ______ ____
DOCKED: ROOT
DOCKED: ATOM      1  C   UNL d   1      -6.048  12.210  35.786 -0.21 +0.21    +0.193 C 
DOCKED: ENDROOT
DOCKED: BRANCH   1   2
DOCKED: ATOM      2  O   UNL d   1      -7.024  13.146  35.216 -0.56 -0.57    -0.356 OA
DOCKED: BRANCH   2   3
DOCKED: ATOM      3  P   UNL d   1      -7.641  12.993  33.699 -0.20 -0.02    -0.014 P 
DOCKED: ATOM      4  O   UNL d   1      -6.408  12.984  32.782 -0.27 -0.76    -0.577 OA
DOCKED: ATOM      5  O   UNL d   1      -8.522  14.215  33.444 -0.13 -0.71    -0.577 OA
DOCKED: ATOM      6  O   UNL d   1      -8.400  11.672  33.630 -0.42 -0.97    -0.638 OA
DOCKED: ENDBRANCH   2   3
DOCKED: ENDBRANCH   1   2
DOCKED: BRANCH   1   7
DOCKED: ATOM      7  C   UNL d   1      -6.744  11.396  36.938 -0.18 +0.17    +0.201 C 
DOCKED: BRANCH   7   8
DOCKED: ATOM      8  O   UNL d   1      -7.822  10.524  36.532 -0.09 -0.51    -0.364 OA
DOCKED: BRANCH   8   9
DOCKED: ATOM      9  P   UNL d   1      -8.267   9.252  37.491 -0.02 -0.02    -0.015 P 
DOCKED: ATOM     10  O   UNL d   1      -9.799   9.229  37.437 -0.50 -0.70    -0.577 OA
DOCKED: ATOM     11  O   UNL d   1      -7.750   9.552  38.898 -0.02 -0.29    -0.577 OA
DOCKED: ATOM     12  O   UNL d   1      -7.652   7.992  36.884 -0.26 -0.76    -0.638 OA
DOCKED: ENDBRANCH   8   9
DOCKED: ENDBRANCH   7   8
DOCKED: ENDBRANCH   1   7
DOCKED: BRANCH   1  13
DOCKED: ATOM     13  C   UNL d   1      -4.831  13.003  36.393 -0.32 +0.07    +0.073 C 
DOCKED: ATOM     14  O   UNL d   1      -3.837  12.339  36.854 -0.13 -0.28    -0.547 OA
DOCKED: ATOM     15  O   UNL d   1      -4.881  14.284  36.331 -0.20 -0.89    -0.547 OA
DOCKED: ENDBRANCH   1  13
DOCKED: TORSDOF 6
DOCKED: TER
DOCKED: ENDMDL
________________________________________________________________________________


	BEGINNING GENETIC ALGORITHM DOCKING 55 of 100
Run: 55 Seed: 631962003 2054035440 [ Run 55 of 100 GA/GALS ]
Beginning LAMARCKIAN GENETIC ALGORITHM (LGA), with a maximum of 25000000 energy evaluations.

Final-Value: -7.769


	FINAL GENETIC ALGORITHM DOCKED STATE
	_______________________________________________


Detailed state:  trans 6.689 -14.703 13.475 quatxyzw -0.161317 -0.213058 0.945599 0.185544 center 0.015 0.083 0.031 ntor 6 -172.1717 -122.6636 -179.5662 31.8948 22.3006 -70.8849
State:	  6.689 -14.703  13.475  -0.164 -0.217  0.962 158.614   -172.17 -122.66 -179.57   31.89   22.30  -70.88

DOCKED: MODEL       55
DOCKED: USER    Run = 55
DOCKED: USER    DPF = D:/Protein_go_brrr/autodock/final/1A3N/2_3_BPG/dock.dpf
DOCKED: USER  
DOCKED: USER    Estimated Free Energy of Binding    =   -8.19 kcal/mol  [=(1)+(2)+(3)-(4)]
DOCKED: USER    Estimated Inhibition Constant, Ki   =  997.36 nM (nanomolar)  [Temperature = 298.15 K]
DOCKED: USER    
DOCKED: USER    (1) Final Intermolecular Energy     =   -9.98 kcal/mol
DOCKED: USER        vdW + Hbond + desolv Energy     =   -3.70 kcal/mol
DOCKED: USER        Electrostatic Energy            =   -6.27 kcal/mol
DOCKED: USER    (2) Final Total Internal Energy     =   +2.21 kcal/mol
DOCKED: USER    (3) Torsional Free Energy           =   +1.79 kcal/mol
DOCKED: USER    (4) Unbound System's Energy  [=(2)] =   +2.21 kcal/mol
DOCKED: USER    
DOCKED: USER    
DOCKED: USER    NEWDPF move 2_3_BPG_opt.pdbqt
DOCKED: USER    NEWDPF about 0.015000 0.083000 0.031000
DOCKED: USER    NEWDPF tran0 6.688780 -14.702764 13.475020
DOCKED: USER    NEWDPF quaternion0 -0.161317 -0.213058 0.945599 0.185544
DOCKED: USER    NEWDPF axisangle0 -0.164168 -0.216823 0.962308 158.614301
DOCKED: USER    NEWDPF quat0 -0.164168 -0.216823 0.962308 158.614301
DOCKED: USER    NEWDPF dihe0 -172.17 -122.66 -179.57 31.89 22.30 -70.88 
DOCKED: USER  keepresnum = 1 
DOCKED: USER  
DOCKED: REMARK  6 active torsions:
DOCKED: REMARK  status: ('A' for Active; 'I' for Inactive)
DOCKED: REMARK    1  A    between atoms: P_1  and  O_3 
DOCKED: REMARK    2  A    between atoms: P_2  and  O_4 
DOCKED: REMARK    3  A    between atoms: O_3  and  C_13 
DOCKED: REMARK    4  A    between atoms: O_4  and  C_14 
DOCKED: REMARK    5  A    between atoms: C_13  and  C_14 
DOCKED: REMARK    6  A    between atoms: C_13  and  C_15 
DOCKED: USER                              x       y       z     vdW  Elec       q    Type
DOCKED: USER                           _______ _______ _______ _____ _____    ______ ____
DOCKED: ROOT
DOCKED: ATOM      1  C   UNL d   1       7.052 -14.318  13.887 -0.11 +0.20    +0.193 C 
DOCKED: ENDROOT
DOCKED: BRANCH   1   2
DOCKED: ATOM      2  O   UNL d   1       8.455 -14.395  13.465 -0.27 -0.57    -0.356 OA
DOCKED: BRANCH   2   3
DOCKED: ATOM      3  P   UNL d   1       9.571 -15.345  14.211 +0.05 -0.02    -0.014 P 
DOCKED: ATOM      4  O   UNL d   1       8.939 -16.745  14.218 -0.40 -0.99    -0.577 OA
DOCKED: ATOM      5  O   UNL d   1       9.752 -14.803  15.628 +0.02 -0.55    -0.577 OA
DOCKED: ATOM      6  O   UNL d   1      10.850 -15.311  13.380 -0.16 -0.88    -0.638 OA
DOCKED: ENDBRANCH   2   3
DOCKED: ENDBRANCH   1   2
DOCKED: BRANCH   1   7
DOCKED: ATOM      7  C   UNL d   1       6.153 -14.970  12.772 -0.17 +0.25    +0.201 C 
DOCKED: BRANCH   7   8
DOCKED: ATOM      8  O   UNL d   1       5.932 -16.392  12.892 -0.14 -0.48    -0.364 OA
DOCKED: BRANCH   8   9
DOCKED: ATOM      9  P   UNL d   1       5.578 -17.294  11.551 -0.41 -0.02    -0.015 P 
DOCKED: ATOM     10  O   UNL d   1       5.639 -16.306  10.380 -0.28 -0.87    -0.577 OA
DOCKED: ATOM     11  O   UNL d   1       4.172 -17.858  11.750 -0.36 -0.43    -0.577 OA
DOCKED: ATOM     12  O   UNL d   1       6.648 -18.379  11.442 -0.61 -1.24    -0.638 OA
DOCKED: ENDBRANCH   8   9
DOCKED: ENDBRANCH   7   8
DOCKED: ENDBRANCH   1   7
DOCKED: BRANCH   1  13
DOCKED: ATOM     13  C   UNL d   1       6.623 -12.814  14.065 -0.22 +0.05    +0.073 C 
DOCKED: ATOM     14  O   UNL d   1       6.247 -12.418  15.223 +0.01 -0.25    -0.547 OA
DOCKED: ATOM     15  O   UNL d   1       6.739 -12.050  13.039 -0.67 -0.47    -0.547 OA
DOCKED: ENDBRANCH   1  13
DOCKED: TORSDOF 6
DOCKED: TER
DOCKED: ENDMDL
________________________________________________________________________________


	BEGINNING GENETIC ALGORITHM DOCKING 56 of 100
Run: 56 Seed: 1581872779 765560982 [ Run 56 of 100 GA/GALS ]
Beginning LAMARCKIAN GENETIC ALGORITHM (LGA), with a maximum of 25000000 energy evaluations.

Final-Value: -7.744


	FINAL GENETIC ALGORITHM DOCKED STATE
	_______________________________________________


Detailed state:  trans 7.853 -14.497 13.611 quatxyzw -0.914924 0.018770 -0.372605 -0.154034 center 0.015 0.083 0.031 ntor 6 -138.0174 74.0617 -38.0725 12.3409 17.0095 -50.5551
State:	  7.853 -14.497  13.611  -0.926  0.019 -0.377 -162.278   -138.02   74.06  -38.07   12.34   17.01  -50.56

DOCKED: MODEL       56
DOCKED: USER    Run = 56
DOCKED: USER    DPF = D:/Protein_go_brrr/autodock/final/1A3N/2_3_BPG/dock.dpf
DOCKED: USER  
DOCKED: USER    Estimated Free Energy of Binding    =   -7.98 kcal/mol  [=(1)+(2)+(3)-(4)]
DOCKED: USER    Estimated Inhibition Constant, Ki   =    1.40 uM (micromolar)  [Temperature = 298.15 K]
DOCKED: USER    
DOCKED: USER    (1) Final Intermolecular Energy     =   -9.77 kcal/mol
DOCKED: USER        vdW + Hbond + desolv Energy     =   -3.42 kcal/mol
DOCKED: USER        Electrostatic Energy            =   -6.36 kcal/mol
DOCKED: USER    (2) Final Total Internal Energy     =   +2.03 kcal/mol
DOCKED: USER    (3) Torsional Free Energy           =   +1.79 kcal/mol
DOCKED: USER    (4) Unbound System's Energy  [=(2)] =   +2.03 kcal/mol
DOCKED: USER    
DOCKED: USER    
DOCKED: USER    NEWDPF move 2_3_BPG_opt.pdbqt
DOCKED: USER    NEWDPF about 0.015000 0.083000 0.031000
DOCKED: USER    NEWDPF tran0 7.853250 -14.496689 13.611430
DOCKED: USER    NEWDPF quaternion0 -0.914924 0.018770 -0.372605 -0.154034
DOCKED: USER    NEWDPF axisangle0 -0.925975 0.018997 -0.377106 -162.278433
DOCKED: USER    NEWDPF quat0 -0.925975 0.018997 -0.377106 -162.278433
DOCKED: USER    NEWDPF dihe0 -138.02 74.06 -38.07 12.34 17.01 -50.56 
DOCKED: USER  keepresnum = 1 
DOCKED: USER  
DOCKED: REMARK  6 active torsions:
DOCKED: REMARK  status: ('A' for Active; 'I' for Inactive)
DOCKED: REMARK    1  A    between atoms: P_1  and  O_3 
DOCKED: REMARK    2  A    between atoms: P_2  and  O_4 
DOCKED: REMARK    3  A    between atoms: O_3  and  C_13 
DOCKED: REMARK    4  A    between atoms: O_4  and  C_14 
DOCKED: REMARK    5  A    between atoms: C_13  and  C_14 
DOCKED: REMARK    6  A    between atoms: C_13  and  C_15 
DOCKED: USER                              x       y       z     vdW  Elec       q    Type
DOCKED: USER                           _______ _______ _______ _____ _____    ______ ____
DOCKED: ROOT
DOCKED: ATOM      1  C   UNL d   1       7.469 -14.087  13.245 -0.12 +0.25    +0.193 C 
DOCKED: ENDROOT
DOCKED: BRANCH   1   2
DOCKED: ATOM      2  O   UNL d   1       6.334 -14.863  12.733 -0.09 -0.47    -0.356 OA
DOCKED: BRANCH   2   3
DOCKED: ATOM      3  P   UNL d   1       6.024 -15.059  11.130 -0.38 -0.02    -0.014 P 
DOCKED: ATOM      4  O   UNL d   1       4.751 -14.233  10.882 +0.03 -0.36    -0.577 OA
DOCKED: ATOM      5  O   UNL d   1       5.782 -16.548  10.894 -0.41 -1.01    -0.577 OA
DOCKED: ATOM      6  O   UNL d   1       7.211 -14.505  10.349 -0.42 -1.38    -0.638 OA
DOCKED: ENDBRANCH   2   3
DOCKED: ENDBRANCH   1   2
DOCKED: BRANCH   1   7
DOCKED: ATOM      7  C   UNL d   1       8.215 -14.944  14.333 -0.03 +0.26    +0.201 C 
DOCKED: BRANCH   7   8
DOCKED: ATOM      8  O   UNL d   1       9.512 -15.454  13.954 -0.56 -0.66    -0.364 OA
DOCKED: BRANCH   8   9
DOCKED: ATOM      9  P   UNL d   1      10.169 -16.737  14.766 -0.11 -0.02    -0.015 P 
DOCKED: ATOM     10  O   UNL d   1      10.918 -17.544  13.698 -0.05 -0.71    -0.577 OA
DOCKED: ATOM     11  O   UNL d   1       9.007 -17.527  15.367 -0.00 -0.60    -0.577 OA
DOCKED: ATOM     12  O   UNL d   1      11.114 -16.167  15.822 -0.44 -0.94    -0.638 OA
DOCKED: ENDBRANCH   8   9
DOCKED: ENDBRANCH   7   8
DOCKED: ENDBRANCH   1   7
DOCKED: BRANCH   1  13
DOCKED: ATOM     13  C   UNL d   1       6.957 -12.757  13.913 -0.21 +0.05    +0.073 C 
DOCKED: ATOM     14  O   UNL d   1       6.737 -11.742  13.164 -0.65 -0.47    -0.547 OA
DOCKED: ATOM     15  O   UNL d   1       6.728 -12.791  15.176 +0.02 -0.28    -0.547 OA
DOCKED: ENDBRANCH   1  13
DOCKED: TORSDOF 6
DOCKED: TER
DOCKED: ENDMDL
________________________________________________________________________________


	BEGINNING GENETIC ALGORITHM DOCKING 57 of 100
Run: 57 Seed: 1436066405 606619019 [ Run 57 of 100 GA/GALS ]
Beginning LAMARCKIAN GENETIC ALGORITHM (LGA), with a maximum of 25000000 energy evaluations.

Final-Value: -6.932


	FINAL GENETIC ALGORITHM DOCKED STATE
	_______________________________________________


Detailed state:  trans 7.495 11.344 35.541 quatxyzw 0.167250 0.726150 0.666144 -0.031399 center 0.015 0.083 0.031 ntor 6 -176.4029 81.4135 170.6376 -6.3531 -12.6593 0.3103
State:	  7.495  11.344  35.541   0.167  0.727  0.666 -176.401   -176.40   81.41  170.64   -6.35  -12.66    0.31

DOCKED: MODEL       57
DOCKED: USER    Run = 57
DOCKED: USER    DPF = D:/Protein_go_brrr/autodock/final/1A3N/2_3_BPG/dock.dpf
DOCKED: USER  
DOCKED: USER    Estimated Free Energy of Binding    =   -7.12 kcal/mol  [=(1)+(2)+(3)-(4)]
DOCKED: USER    Estimated Inhibition Constant, Ki   =    6.00 uM (micromolar)  [Temperature = 298.15 K]
DOCKED: USER    
DOCKED: USER    (1) Final Intermolecular Energy     =   -8.91 kcal/mol
DOCKED: USER        vdW + Hbond + desolv Energy     =   -3.28 kcal/mol
DOCKED: USER        Electrostatic Energy            =   -5.63 kcal/mol
DOCKED: USER    (2) Final Total Internal Energy     =   +1.98 kcal/mol
DOCKED: USER    (3) Torsional Free Energy           =   +1.79 kcal/mol
DOCKED: USER    (4) Unbound System's Energy  [=(2)] =   +1.98 kcal/mol
DOCKED: USER    
DOCKED: USER    
DOCKED: USER    NEWDPF move 2_3_BPG_opt.pdbqt
DOCKED: USER    NEWDPF about 0.015000 0.083000 0.031000
DOCKED: USER    NEWDPF tran0 7.494747 11.344214 35.541120
DOCKED: USER    NEWDPF quaternion0 0.167250 0.726150 0.666144 -0.031399
DOCKED: USER    NEWDPF axisangle0 0.167332 0.726508 0.666473 -176.401333
DOCKED: USER    NEWDPF quat0 0.167332 0.726508 0.666473 -176.401333
DOCKED: USER    NEWDPF dihe0 -176.40 81.41 170.64 -6.35 -12.66 0.31 
DOCKED: USER  keepresnum = 1 
DOCKED: USER  
DOCKED: REMARK  6 active torsions:
DOCKED: REMARK  status: ('A' for Active; 'I' for Inactive)
DOCKED: REMARK    1  A    between atoms: P_1  and  O_3 
DOCKED: REMARK    2  A    between atoms: P_2  and  O_4 
DOCKED: REMARK    3  A    between atoms: O_3  and  C_13 
DOCKED: REMARK    4  A    between atoms: O_4  and  C_14 
DOCKED: REMARK    5  A    between atoms: C_13  and  C_14 
DOCKED: REMARK    6  A    between atoms: C_13  and  C_15 
DOCKED: USER                              x       y       z     vdW  Elec       q    Type
DOCKED: USER                           _______ _______ _______ _____ _____    ______ ____
DOCKED: ROOT
DOCKED: ATOM      1  C   UNL d   1       8.009  11.249  35.122 -0.19 +0.13    +0.193 C 
DOCKED: ENDROOT
DOCKED: BRANCH   1   2
DOCKED: ATOM      2  O   UNL d   1       8.986  10.380  35.787 -0.64 -0.28    -0.356 OA
DOCKED: BRANCH   2   3
DOCKED: ATOM      3  P   UNL d   1      10.611  10.620  35.707 -0.25 -0.02    -0.014 P 
DOCKED: ATOM      4  O   UNL d   1      11.102   9.579  34.689 -0.04 -0.67    -0.577 OA
DOCKED: ATOM      5  O   UNL d   1      11.177  10.355  37.100 -0.07 -0.72    -0.577 OA
DOCKED: ATOM      6  O   UNL d   1      10.852  12.043  35.213 -0.51 -1.06    -0.638 OA
DOCKED: ENDBRANCH   2   3
DOCKED: ENDBRANCH   1   2
DOCKED: BRANCH   1   7
DOCKED: ATOM      7  C   UNL d   1       6.678  11.248  35.961 -0.20 +0.14    +0.201 C 
DOCKED: BRANCH   7   8
DOCKED: ATOM      8  O   UNL d   1       5.787  12.361  35.730 -0.30 -0.49    -0.364 OA
DOCKED: BRANCH   8   9
DOCKED: ATOM      9  P   UNL d   1       4.261  12.348  36.371 -0.12 -0.02    -0.015 P 
DOCKED: ATOM     10  O   UNL d   1       4.093  10.948  36.973 -0.03 -0.33    -0.577 OA
DOCKED: ATOM     11  O   UNL d   1       3.291  12.593  35.216 -0.32 -0.71    -0.577 OA
DOCKED: ATOM     12  O   UNL d   1       4.211  13.442  37.437 -0.00 -1.19    -0.638 OA
DOCKED: ENDBRANCH   8   9
DOCKED: ENDBRANCH   7   8
DOCKED: ENDBRANCH   1   7
DOCKED: BRANCH   1  13
DOCKED: ATOM     13  C   UNL d   1       7.696  10.703  33.679 -0.38 +0.04    +0.073 C 
DOCKED: ATOM     14  O   UNL d   1       7.893  11.476  32.677 -0.05 -0.24    -0.547 OA
DOCKED: ATOM     15  O   UNL d   1       7.317   9.480  33.588 -0.19 -0.20    -0.547 OA
DOCKED: ENDBRANCH   1  13
DOCKED: TORSDOF 6
DOCKED: TER
DOCKED: ENDMDL
________________________________________________________________________________


	BEGINNING GENETIC ALGORITHM DOCKING 58 of 100
Run: 58 Seed: 1732577622 19783756 [ Run 58 of 100 GA/GALS ]
Beginning LAMARCKIAN GENETIC ALGORITHM (LGA), with a maximum of 25000000 energy evaluations.

Final-Value: -7.283


	FINAL GENETIC ALGORITHM DOCKED STATE
	_______________________________________________


Detailed state:  trans -6.896 12.527 36.730 quatxyzw 0.361356 0.545675 -0.069271 0.752902 center 0.015 0.083 0.031 ntor 6 -116.5971 -19.0794 -52.6315 31.2654 -2.2470 -127.6553
State:	 -6.896  12.527  36.730   0.549  0.829 -0.105 82.315   -116.60  -19.08  -52.63   31.27   -2.25 -127.66

DOCKED: MODEL       58
DOCKED: USER    Run = 58
DOCKED: USER    DPF = D:/Protein_go_brrr/autodock/final/1A3N/2_3_BPG/dock.dpf
DOCKED: USER  
DOCKED: USER    Estimated Free Energy of Binding    =   -7.70 kcal/mol  [=(1)+(2)+(3)-(4)]
DOCKED: USER    Estimated Inhibition Constant, Ki   =    2.25 uM (micromolar)  [Temperature = 298.15 K]
DOCKED: USER    
DOCKED: USER    (1) Final Intermolecular Energy     =   -9.49 kcal/mol
DOCKED: USER        vdW + Hbond + desolv Energy     =   -3.28 kcal/mol
DOCKED: USER        Electrostatic Energy            =   -6.22 kcal/mol
DOCKED: USER    (2) Final Total Internal Energy     =   +2.21 kcal/mol
DOCKED: USER    (3) Torsional Free Energy           =   +1.79 kcal/mol
DOCKED: USER    (4) Unbound System's Energy  [=(2)] =   +2.21 kcal/mol
DOCKED: USER    
DOCKED: USER    
DOCKED: USER    NEWDPF move 2_3_BPG_opt.pdbqt
DOCKED: USER    NEWDPF about 0.015000 0.083000 0.031000
DOCKED: USER    NEWDPF tran0 -6.895953 12.526651 36.729882
DOCKED: USER    NEWDPF quaternion0 0.361356 0.545675 -0.069271 0.752902
DOCKED: USER    NEWDPF axisangle0 0.549063 0.829127 -0.105254 82.315195
DOCKED: USER    NEWDPF quat0 0.549063 0.829127 -0.105254 82.315195
DOCKED: USER    NEWDPF dihe0 -116.60 -19.08 -52.63 31.27 -2.25 -127.66 
DOCKED: USER  keepresnum = 1 
DOCKED: USER  
DOCKED: REMARK  6 active torsions:
DOCKED: REMARK  status: ('A' for Active; 'I' for Inactive)
DOCKED: REMARK    1  A    between atoms: P_1  and  O_3 
DOCKED: REMARK    2  A    between atoms: P_2  and  O_4 
DOCKED: REMARK    3  A    between atoms: O_3  and  C_13 
DOCKED: REMARK    4  A    between atoms: O_4  and  C_14 
DOCKED: REMARK    5  A    between atoms: C_13  and  C_14 
DOCKED: REMARK    6  A    between atoms: C_13  and  C_15 
DOCKED: USER                              x       y       z     vdW  Elec       q    Type
DOCKED: USER                           _______ _______ _______ _____ _____    ______ ____
DOCKED: ROOT
DOCKED: ATOM      1  C   UNL d   1      -7.299  12.050  36.484 -0.16 +0.18    +0.193 C 
DOCKED: ENDROOT
DOCKED: BRANCH   1   2
DOCKED: ATOM      2  O   UNL d   1      -6.922  11.808  35.088 -0.09 -0.45    -0.356 OA
DOCKED: BRANCH   2   3
DOCKED: ATOM      3  P   UNL d   1      -7.753  12.421  33.808 -0.30 -0.02    -0.014 P 
DOCKED: ATOM      4  O   UNL d   1      -6.732  12.434  32.659 -0.16 -0.60    -0.577 OA
DOCKED: ATOM      5  O   UNL d   1      -8.189  13.835  34.188 -0.39 -0.86    -0.577 OA
DOCKED: ATOM      6  O   UNL d   1      -8.919  11.484  33.511 -0.57 -1.05    -0.638 OA
DOCKED: ENDBRANCH   2   3
DOCKED: ENDBRANCH   1   2
DOCKED: BRANCH   1   7
DOCKED: ATOM      7  C   UNL d   1      -6.192  12.942  37.159 -0.13 +0.16    +0.201 C 
DOCKED: BRANCH   7   8
DOCKED: ATOM      8  O   UNL d   1      -5.524  13.882  36.290 -0.09 -0.57    -0.364 OA
DOCKED: BRANCH   8   9
DOCKED: ATOM      9  P   UNL d   1      -4.328  14.858  36.885 -0.13 -0.02    -0.015 P 
DOCKED: ATOM     10  O   UNL d   1      -3.153  14.687  35.915 -0.20 -0.63    -0.577 OA
DOCKED: ATOM     11  O   UNL d   1      -3.991  14.346  38.286 +0.02 -0.31    -0.577 OA
DOCKED: ATOM     12  O   UNL d   1      -4.869  16.287  36.885 -0.52 -0.91    -0.638 OA
DOCKED: ENDBRANCH   8   9
DOCKED: ENDBRANCH   7   8
DOCKED: ENDBRANCH   1   7
DOCKED: BRANCH   1  13
DOCKED: ATOM     13  C   UNL d   1      -7.392  10.686  37.264 -0.17 +0.07    +0.073 C 
DOCKED: ATOM     14  O   UNL d   1      -8.266   9.827  36.891 -0.36 -0.90    -0.547 OA
DOCKED: ATOM     15  O   UNL d   1      -6.532  10.488  38.196 -0.04 -0.31    -0.547 OA
DOCKED: ENDBRANCH   1  13
DOCKED: TORSDOF 6
DOCKED: TER
DOCKED: ENDMDL
________________________________________________________________________________


	BEGINNING GENETIC ALGORITHM DOCKING 59 of 100
Run: 59 Seed: 917606370 788571656 [ Run 59 of 100 GA/GALS ]
Beginning LAMARCKIAN GENETIC ALGORITHM (LGA), with a maximum of 25000000 energy evaluations.

Final-Value: -6.962


	FINAL GENETIC ALGORITHM DOCKED STATE
	_______________________________________________


Detailed state:  trans 8.172 12.519 34.999 quatxyzw 0.650228 0.718560 0.240202 -0.056371 center 0.015 0.083 0.031 ntor 6 81.1710 61.0010 61.3203 81.7105 -31.2159 -16.8102
State:	  8.172  12.519  34.999   0.651  0.720  0.241 -173.537     81.17   61.00   61.32   81.71  -31.22  -16.81

DOCKED: MODEL       59
DOCKED: USER    Run = 59
DOCKED: USER    DPF = D:/Protein_go_brrr/autodock/final/1A3N/2_3_BPG/dock.dpf
DOCKED: USER  
DOCKED: USER    Estimated Free Energy of Binding    =   -7.29 kcal/mol  [=(1)+(2)+(3)-(4)]
DOCKED: USER    Estimated Inhibition Constant, Ki   =    4.56 uM (micromolar)  [Temperature = 298.15 K]
DOCKED: USER    
DOCKED: USER    (1) Final Intermolecular Energy     =   -9.08 kcal/mol
DOCKED: USER        vdW + Hbond + desolv Energy     =   -3.24 kcal/mol
DOCKED: USER        Electrostatic Energy            =   -5.84 kcal/mol
DOCKED: USER    (2) Final Total Internal Energy     =   +2.11 kcal/mol
DOCKED: USER    (3) Torsional Free Energy           =   +1.79 kcal/mol
DOCKED: USER    (4) Unbound System's Energy  [=(2)] =   +2.11 kcal/mol
DOCKED: USER    
DOCKED: USER    
DOCKED: USER    NEWDPF move 2_3_BPG_opt.pdbqt
DOCKED: USER    NEWDPF about 0.015000 0.083000 0.031000
DOCKED: USER    NEWDPF tran0 8.172272 12.519268 34.999325
DOCKED: USER    NEWDPF quaternion0 0.650228 0.718560 0.240202 -0.056371
DOCKED: USER    NEWDPF axisangle0 0.651263 0.719705 0.240585 -173.536881
DOCKED: USER    NEWDPF quat0 0.651263 0.719705 0.240585 -173.536881
DOCKED: USER    NEWDPF dihe0 81.17 61.00 61.32 81.71 -31.22 -16.81 
DOCKED: USER  keepresnum = 1 
DOCKED: USER  
DOCKED: REMARK  6 active torsions:
DOCKED: REMARK  status: ('A' for Active; 'I' for Inactive)
DOCKED: REMARK    1  A    between atoms: P_1  and  O_3 
DOCKED: REMARK    2  A    between atoms: P_2  and  O_4 
DOCKED: REMARK    3  A    between atoms: O_3  and  C_13 
DOCKED: REMARK    4  A    between atoms: O_4  and  C_14 
DOCKED: REMARK    5  A    between atoms: C_13  and  C_14 
DOCKED: REMARK    6  A    between atoms: C_13  and  C_15 
DOCKED: USER                              x       y       z     vdW  Elec       q    Type
DOCKED: USER                           _______ _______ _______ _____ _____    ______ ____
DOCKED: ROOT
DOCKED: ATOM      1  C   UNL d   1       8.013  11.969  34.651 -0.16 +0.13    +0.193 C 
DOCKED: ENDROOT
DOCKED: BRANCH   1   2
DOCKED: ATOM      2  O   UNL d   1       8.639  10.816  35.307 -0.35 -0.25    -0.356 OA
DOCKED: BRANCH   2   3
DOCKED: ATOM      3  P   UNL d   1      10.232  10.763  35.713 -0.27 -0.02    -0.014 P 
DOCKED: ATOM      4  O   UNL d   1      10.769   9.516  34.994 -0.07 -0.59    -0.577 OA
DOCKED: ATOM      5  O   UNL d   1      10.308  10.613  37.231 -0.06 -0.51    -0.577 OA
DOCKED: ATOM      6  O   UNL d   1      10.892  12.036  35.195 -0.50 -1.09    -0.638 OA
DOCKED: ENDBRANCH   2   3
DOCKED: ENDBRANCH   1   2
DOCKED: BRANCH   1   7
DOCKED: ATOM      7  C   UNL d   1       8.129  13.216  35.603 -0.09 +0.18    +0.201 C 
DOCKED: BRANCH   7   8
DOCKED: ATOM      8  O   UNL d   1       8.375  14.483  34.955 -0.06 -0.33    -0.364 OA
DOCKED: BRANCH   8   9
DOCKED: ATOM      9  P   UNL d   1       7.850  15.888  35.653 -0.07 -0.02    -0.015 P 
DOCKED: ATOM     10  O   UNL d   1       6.823  16.463  34.670 -0.42 -1.09    -0.577 OA
DOCKED: ATOM     11  O   UNL d   1       9.071  16.796  35.800 +0.00 -0.34    -0.577 OA
DOCKED: ATOM     12  O   UNL d   1       7.216  15.517  36.993 -0.09 -0.94    -0.638 OA
DOCKED: ENDBRANCH   8   9
DOCKED: ENDBRANCH   7   8
DOCKED: ENDBRANCH   1   7
DOCKED: BRANCH   1  13
DOCKED: ATOM     13  C   UNL d   1       6.488  11.677  34.387 -0.35 +0.05    +0.073 C 
DOCKED: ATOM     14  O   UNL d   1       5.634  12.589  34.669 -0.62 -0.79    -0.547 OA
DOCKED: ATOM     15  O   UNL d   1       6.197  10.553  33.840 -0.14 -0.24    -0.547 OA
DOCKED: ENDBRANCH   1  13
DOCKED: TORSDOF 6
DOCKED: TER
DOCKED: ENDMDL
________________________________________________________________________________


	BEGINNING GENETIC ALGORITHM DOCKING 60 of 100
Run: 60 Seed: 1770613425 1579700357 [ Run 60 of 100 GA/GALS ]
Beginning LAMARCKIAN GENETIC ALGORITHM (LGA), with a maximum of 25000000 energy evaluations.

Final-Value: -7.917


	FINAL GENETIC ALGORITHM DOCKED STATE
	_______________________________________________


Detailed state:  trans 5.978 -16.246 13.681 quatxyzw 0.044230 -0.555324 -0.452918 -0.696078 center 0.015 0.083 0.031 ntor 6 -10.8897 -61.7835 -24.1767 -24.7965 -71.2256 153.7027
State:	  5.978 -16.246  13.681   0.062 -0.773 -0.631 -91.774    -10.89  -61.78  -24.18  -24.80  -71.23  153.70

DOCKED: MODEL       60
DOCKED: USER    Run = 60
DOCKED: USER    DPF = D:/Protein_go_brrr/autodock/final/1A3N/2_3_BPG/dock.dpf
DOCKED: USER  
DOCKED: USER    Estimated Free Energy of Binding    =   -8.81 kcal/mol  [=(1)+(2)+(3)-(4)]
DOCKED: USER    Estimated Inhibition Constant, Ki   =  349.41 nM (nanomolar)  [Temperature = 298.15 K]
DOCKED: USER    
DOCKED: USER    (1) Final Intermolecular Energy     =  -10.60 kcal/mol
DOCKED: USER        vdW + Hbond + desolv Energy     =   -4.11 kcal/mol
DOCKED: USER        Electrostatic Energy            =   -6.49 kcal/mol
DOCKED: USER    (2) Final Total Internal Energy     =   +2.68 kcal/mol
DOCKED: USER    (3) Torsional Free Energy           =   +1.79 kcal/mol
DOCKED: USER    (4) Unbound System's Energy  [=(2)] =   +2.68 kcal/mol
DOCKED: USER    
DOCKED: USER    
DOCKED: USER    NEWDPF move 2_3_BPG_opt.pdbqt
DOCKED: USER    NEWDPF about 0.015000 0.083000 0.031000
DOCKED: USER    NEWDPF tran0 5.977637 -16.246011 13.680865
DOCKED: USER    NEWDPF quaternion0 0.044230 -0.555324 -0.452918 -0.696078
DOCKED: USER    NEWDPF axisangle0 0.061605 -0.773468 -0.630834 -91.773604
DOCKED: USER    NEWDPF quat0 0.061605 -0.773468 -0.630834 -91.773604
DOCKED: USER    NEWDPF dihe0 -10.89 -61.78 -24.18 -24.80 -71.23 153.70 
DOCKED: USER  keepresnum = 1 
DOCKED: USER  
DOCKED: REMARK  6 active torsions:
DOCKED: REMARK  status: ('A' for Active; 'I' for Inactive)
DOCKED: REMARK    1  A    between atoms: P_1  and  O_3 
DOCKED: REMARK    2  A    between atoms: P_2  and  O_4 
DOCKED: REMARK    3  A    between atoms: O_3  and  C_13 
DOCKED: REMARK    4  A    between atoms: O_4  and  C_14 
DOCKED: REMARK    5  A    between atoms: C_13  and  C_14 
DOCKED: REMARK    6  A    between atoms: C_13  and  C_15 
DOCKED: USER                              x       y       z     vdW  Elec       q    Type
DOCKED: USER                           _______ _______ _______ _____ _____    ______ ____
DOCKED: ROOT
DOCKED: ATOM      1  C   UNL d   1       5.736 -15.989  13.110 -0.15 +0.21    +0.193 C 
DOCKED: ENDROOT
DOCKED: BRANCH   1   2
DOCKED: ATOM      2  O   UNL d   1       6.752 -15.092  12.547 +0.04 -0.65    -0.356 OA
DOCKED: BRANCH   2   3
DOCKED: ATOM      3  P   UNL d   1       6.399 -13.876  11.498 -0.56 -0.02    -0.014 P 
DOCKED: ATOM      4  O   UNL d   1       6.735 -12.592  12.274 -0.39 -0.53    -0.577 OA
DOCKED: ATOM      5  O   UNL d   1       4.908 -13.968  11.183 -0.03 -0.36    -0.577 OA
DOCKED: ATOM      6  O   UNL d   1       7.291 -14.038  10.272 -0.63 -1.05    -0.638 OA
DOCKED: ENDBRANCH   2   3
DOCKED: ENDBRANCH   1   2
DOCKED: BRANCH   1   7
DOCKED: ATOM      7  C   UNL d   1       6.387 -16.817  14.279 -0.06 +0.19    +0.201 C 
DOCKED: BRANCH   7   8
DOCKED: ATOM      8  O   UNL d   1       7.675 -17.407  13.994 -0.07 -0.54    -0.364 OA
DOCKED: BRANCH   8   9
DOCKED: ATOM      9  P   UNL d   1       9.030 -16.853  14.764 -0.08 -0.02    -0.015 P 
DOCKED: ATOM     10  O   UNL d   1      10.040 -18.003  14.671 -0.02 -0.65    -0.577 OA
DOCKED: ATOM     11  O   UNL d   1       8.632 -16.558  16.210 +0.02 -0.54    -0.577 OA
DOCKED: ATOM     12  O   UNL d   1       9.502 -15.611  14.009 -0.53 -1.16    -0.638 OA
DOCKED: ENDBRANCH   8   9
DOCKED: ENDBRANCH   7   8
DOCKED: ENDBRANCH   1   7
DOCKED: BRANCH   1  13
DOCKED: ATOM     13  C   UNL d   1       5.228 -16.990  12.006 -0.41 +0.08    +0.073 C 
DOCKED: ATOM     14  O   UNL d   1       6.089 -17.528  11.226 -0.69 -1.08    -0.547 OA
DOCKED: ATOM     15  O   UNL d   1       3.972 -17.257  11.996 -0.54 -0.37    -0.547 OA
DOCKED: ENDBRANCH   1  13
DOCKED: TORSDOF 6
DOCKED: TER
DOCKED: ENDMDL
________________________________________________________________________________


	BEGINNING GENETIC ALGORITHM DOCKING 61 of 100
Run: 61 Seed: 1325085043 501135794 [ Run 61 of 100 GA/GALS ]
Beginning LAMARCKIAN GENETIC ALGORITHM (LGA), with a maximum of 25000000 energy evaluations.

Final-Value: -7.465


	FINAL GENETIC ALGORITHM DOCKED STATE
	_______________________________________________


Detailed state:  trans 5.313 -19.094 11.437 quatxyzw 0.344094 0.138595 -0.864508 -0.339141 center 0.015 0.083 0.031 ntor 6 -20.7566 -42.8083 168.0473 -9.7609 -12.4660 -111.9311
State:	  5.313 -19.094  11.437   0.366  0.147 -0.919 -140.351    -20.76  -42.81  168.05   -9.76  -12.47 -111.93

DOCKED: MODEL       61
DOCKED: USER    Run = 61
DOCKED: USER    DPF = D:/Protein_go_brrr/autodock/final/1A3N/2_3_BPG/dock.dpf
DOCKED: USER  
DOCKED: USER    Estimated Free Energy of Binding    =   -7.71 kcal/mol  [=(1)+(2)+(3)-(4)]
DOCKED: USER    Estimated Inhibition Constant, Ki   =    2.22 uM (micromolar)  [Temperature = 298.15 K]
DOCKED: USER    
DOCKED: USER    (1) Final Intermolecular Energy     =   -9.50 kcal/mol
DOCKED: USER        vdW + Hbond + desolv Energy     =   -4.57 kcal/mol
DOCKED: USER        Electrostatic Energy            =   -4.93 kcal/mol
DOCKED: USER    (2) Final Total Internal Energy     =   +2.04 kcal/mol
DOCKED: USER    (3) Torsional Free Energy           =   +1.79 kcal/mol
DOCKED: USER    (4) Unbound System's Energy  [=(2)] =   +2.04 kcal/mol
DOCKED: USER    
DOCKED: USER    
DOCKED: USER    NEWDPF move 2_3_BPG_opt.pdbqt
DOCKED: USER    NEWDPF about 0.015000 0.083000 0.031000
DOCKED: USER    NEWDPF tran0 5.313086 -19.094070 11.436736
DOCKED: USER    NEWDPF quaternion0 0.344094 0.138595 -0.864508 -0.339141
DOCKED: USER    NEWDPF axisangle0 0.365772 0.147327 -0.918970 -140.350943
DOCKED: USER    NEWDPF quat0 0.365772 0.147327 -0.918970 -140.350943
DOCKED: USER    NEWDPF dihe0 -20.76 -42.81 168.05 -9.76 -12.47 -111.93 
DOCKED: USER  keepresnum = 1 
DOCKED: USER  
DOCKED: REMARK  6 active torsions:
DOCKED: REMARK  status: ('A' for Active; 'I' for Inactive)
DOCKED: REMARK    1  A    between atoms: P_1  and  O_3 
DOCKED: REMARK    2  A    between atoms: P_2  and  O_4 
DOCKED: REMARK    3  A    between atoms: O_3  and  C_13 
DOCKED: REMARK    4  A    between atoms: O_4  and  C_14 
DOCKED: REMARK    5  A    between atoms: C_13  and  C_14 
DOCKED: REMARK    6  A    between atoms: C_13  and  C_15 
DOCKED: USER                              x       y       z     vdW  Elec       q    Type
DOCKED: USER                           _______ _______ _______ _____ _____    ______ ____
DOCKED: ROOT
DOCKED: ATOM      1  C   UNL d   1       5.366 -18.622  11.910 -0.36 +0.17    +0.193 C 
DOCKED: ENDROOT
DOCKED: BRANCH   1   2
DOCKED: ATOM      2  O   UNL d   1       6.792 -18.386  12.162 -0.58 -0.64    -0.356 OA
DOCKED: BRANCH   2   3
DOCKED: ATOM      3  P   UNL d   1       7.408 -18.092  13.659 -0.05 -0.02    -0.014 P 
DOCKED: ATOM      4  O   UNL d   1       8.634 -19.012  13.756 -0.02 -0.60    -0.577 OA
DOCKED: ATOM      5  O   UNL d   1       6.334 -18.477  14.673 +0.04 -0.35    -0.577 OA
DOCKED: ATOM      6  O   UNL d   1       7.805 -16.621  13.723 +0.10 -1.33    -0.638 OA
DOCKED: ENDBRANCH   2   3
DOCKED: ENDBRANCH   1   2
DOCKED: BRANCH   1   7
DOCKED: ATOM      7  C   UNL d   1       5.222 -19.502  10.614 -0.28 +0.17    +0.201 C 
DOCKED: BRANCH   7   8
DOCKED: ATOM      8  O   UNL d   1       6.073 -20.667  10.544 -0.24 -0.24    -0.364 OA
DOCKED: BRANCH   8   9
DOCKED: ATOM      9  P   UNL d   1       5.849 -21.788   9.349 -0.39 -0.01    -0.015 P 
DOCKED: ATOM     10  O   UNL d   1       4.526 -21.398   8.679 -1.08 -0.52    -0.577 OA
DOCKED: ATOM     11  O   UNL d   1       5.763 -23.154  10.030 -0.20 -0.25    -0.577 OA
DOCKED: ATOM     12  O   UNL d   1       7.034 -21.671   8.391 -0.04 -0.37    -0.638 OA
DOCKED: ENDBRANCH   8   9
DOCKED: ENDBRANCH   7   8
DOCKED: ENDBRANCH   1   7
DOCKED: BRANCH   1  13
DOCKED: ATOM     13  C   UNL d   1       4.626 -17.253  11.675 -0.46 +0.07    +0.073 C 
DOCKED: ATOM     14  O   UNL d   1       5.267 -16.301  11.106 -0.34 -0.70    -0.547 OA
DOCKED: ATOM     15  O   UNL d   1       3.390 -17.193  12.016 -0.67 -0.32    -0.547 OA
DOCKED: ENDBRANCH   1  13
DOCKED: TORSDOF 6
DOCKED: TER
DOCKED: ENDMDL
________________________________________________________________________________


	BEGINNING GENETIC ALGORITHM DOCKING 62 of 100
Run: 62 Seed: 1033463927 306940456 [ Run 62 of 100 GA/GALS ]
Beginning LAMARCKIAN GENETIC ALGORITHM (LGA), with a maximum of 25000000 energy evaluations.

Final-Value: -7.704


	FINAL GENETIC ALGORITHM DOCKED STATE
	_______________________________________________


Detailed state:  trans 7.469 -17.112 14.745 quatxyzw 0.210479 -0.051824 -0.972336 -0.087041 center 0.015 0.083 0.031 ntor 6 152.4203 -32.4014 27.2994 9.8569 -28.5085 73.1568
State:	  7.469 -17.112  14.745   0.211 -0.052 -0.976 -170.013    152.42  -32.40   27.30    9.86  -28.51   73.16

DOCKED: MODEL       62
DOCKED: USER    Run = 62
DOCKED: USER    DPF = D:/Protein_go_brrr/autodock/final/1A3N/2_3_BPG/dock.dpf
DOCKED: USER  
DOCKED: USER    Estimated Free Energy of Binding    =   -8.06 kcal/mol  [=(1)+(2)+(3)-(4)]
DOCKED: USER    Estimated Inhibition Constant, Ki   =    1.23 uM (micromolar)  [Temperature = 298.15 K]
DOCKED: USER    
DOCKED: USER    (1) Final Intermolecular Energy     =   -9.85 kcal/mol
DOCKED: USER        vdW + Hbond + desolv Energy     =   -2.90 kcal/mol
DOCKED: USER        Electrostatic Energy            =   -6.95 kcal/mol
DOCKED: USER    (2) Final Total Internal Energy     =   +2.15 kcal/mol
DOCKED: USER    (3) Torsional Free Energy           =   +1.79 kcal/mol
DOCKED: USER    (4) Unbound System's Energy  [=(2)] =   +2.15 kcal/mol
DOCKED: USER    
DOCKED: USER    
DOCKED: USER    NEWDPF move 2_3_BPG_opt.pdbqt
DOCKED: USER    NEWDPF about 0.015000 0.083000 0.031000
DOCKED: USER    NEWDPF tran0 7.469022 -17.112172 14.744989
DOCKED: USER    NEWDPF quaternion0 0.210479 -0.051824 -0.972336 -0.087041
DOCKED: USER    NEWDPF axisangle0 0.211281 -0.052022 -0.976040 -170.013252
DOCKED: USER    NEWDPF quat0 0.211281 -0.052022 -0.976040 -170.013252
DOCKED: USER    NEWDPF dihe0 152.42 -32.40 27.30 9.86 -28.51 73.16 
DOCKED: USER  keepresnum = 1 
DOCKED: USER  
DOCKED: REMARK  6 active torsions:
DOCKED: REMARK  status: ('A' for Active; 'I' for Inactive)
DOCKED: REMARK    1  A    between atoms: P_1  and  O_3 
DOCKED: REMARK    2  A    between atoms: P_2  and  O_4 
DOCKED: REMARK    3  A    between atoms: O_3  and  C_13 
DOCKED: REMARK    4  A    between atoms: O_4  and  C_14 
DOCKED: REMARK    5  A    between atoms: C_13  and  C_14 
DOCKED: REMARK    6  A    between atoms: C_13  and  C_15 
DOCKED: USER                              x       y       z     vdW  Elec       q    Type
DOCKED: USER                           _______ _______ _______ _____ _____    ______ ____
DOCKED: ROOT
DOCKED: ATOM      1  C   UNL d   1       7.909 -16.689  15.021 -0.04 +0.21    +0.193 C 
DOCKED: ENDROOT
DOCKED: BRANCH   1   2
DOCKED: ATOM      2  O   UNL d   1       9.237 -17.311  14.968 -0.08 -0.42    -0.356 OA
DOCKED: BRANCH   2   3
DOCKED: ATOM      3  P   UNL d   1      10.160 -17.583  16.302 +0.01 -0.02    -0.014 P 
DOCKED: ATOM      4  O   UNL d   1      10.860 -18.921  16.017 -0.01 -0.69    -0.577 OA
DOCKED: ATOM      5  O   UNL d   1       9.212 -17.688  17.495 +0.00 -0.72    -0.577 OA
DOCKED: ATOM      6  O   UNL d   1      11.163 -16.441  16.422 -0.37 -1.34    -0.638 OA
DOCKED: ENDBRANCH   2   3
DOCKED: ENDBRANCH   1   2
DOCKED: BRANCH   1   7
DOCKED: ATOM      7  C   UNL d   1       6.923 -17.527  14.127 -0.06 +0.22    +0.201 C 
DOCKED: BRANCH   7   8
DOCKED: ATOM      8  O   UNL d   1       6.184 -16.782  13.134 -0.16 -0.50    -0.364 OA
DOCKED: BRANCH   8   9
DOCKED: ATOM      9  P   UNL d   1       5.630 -17.539  11.771 -0.44 -0.02    -0.015 P 
DOCKED: ATOM     10  O   UNL d   1       5.607 -16.449  10.692 -0.39 -0.89    -0.577 OA
DOCKED: ATOM     11  O   UNL d   1       4.228 -18.058  12.088 -0.34 -0.36    -0.577 OA
DOCKED: ATOM     12  O   UNL d   1       6.621 -18.654  11.440 -0.58 -1.06    -0.638 OA
DOCKED: ENDBRANCH   8   9
DOCKED: ENDBRANCH   7   8
DOCKED: ENDBRANCH   1   7
DOCKED: BRANCH   1  13
DOCKED: ATOM     13  C   UNL d   1       7.978 -15.221  14.456 -0.05 +0.09    +0.073 C 
DOCKED: ATOM     14  O   UNL d   1       7.113 -14.368  14.862 +0.04 -0.42    -0.547 OA
DOCKED: ATOM     15  O   UNL d   1       8.948 -14.948  13.660 -0.42 -1.04    -0.547 OA
DOCKED: ENDBRANCH   1  13
DOCKED: TORSDOF 6
DOCKED: TER
DOCKED: ENDMDL
________________________________________________________________________________


	BEGINNING GENETIC ALGORITHM DOCKING 63 of 100
Run: 63 Seed: 399925171 573009242 [ Run 63 of 100 GA/GALS ]
Beginning LAMARCKIAN GENETIC ALGORITHM (LGA), with a maximum of 25000000 energy evaluations.

Final-Value: -7.238


	FINAL GENETIC ALGORITHM DOCKED STATE
	_______________________________________________


Detailed state:  trans -6.296 12.241 36.708 quatxyzw -0.448320 -0.403969 -0.013859 -0.797262 center 0.015 0.083 0.031 ntor 6 95.7277 -50.4569 -164.3618 32.3170 44.9235 -36.4537
State:	 -6.296  12.241  36.708  -0.743 -0.669 -0.023 -74.261     95.73  -50.46 -164.36   32.32   44.92  -36.45

DOCKED: MODEL       63
DOCKED: USER    Run = 63
DOCKED: USER    DPF = D:/Protein_go_brrr/autodock/final/1A3N/2_3_BPG/dock.dpf
DOCKED: USER  
DOCKED: USER    Estimated Free Energy of Binding    =   -7.69 kcal/mol  [=(1)+(2)+(3)-(4)]
DOCKED: USER    Estimated Inhibition Constant, Ki   =    2.30 uM (micromolar)  [Temperature = 298.15 K]
DOCKED: USER    
DOCKED: USER    (1) Final Intermolecular Energy     =   -9.48 kcal/mol
DOCKED: USER        vdW + Hbond + desolv Energy     =   -3.39 kcal/mol
DOCKED: USER        Electrostatic Energy            =   -6.09 kcal/mol
DOCKED: USER    (2) Final Total Internal Energy     =   +2.24 kcal/mol
DOCKED: USER    (3) Torsional Free Energy           =   +1.79 kcal/mol
DOCKED: USER    (4) Unbound System's Energy  [=(2)] =   +2.24 kcal/mol
DOCKED: USER    
DOCKED: USER    
DOCKED: USER    NEWDPF move 2_3_BPG_opt.pdbqt
DOCKED: USER    NEWDPF about 0.015000 0.083000 0.031000
DOCKED: USER    NEWDPF tran0 -6.295507 12.240647 36.708445
DOCKED: USER    NEWDPF quaternion0 -0.448320 -0.403969 -0.013859 -0.797262
DOCKED: USER    NEWDPF axisangle0 -0.742701 -0.669229 -0.022959 -74.261216
DOCKED: USER    NEWDPF quat0 -0.742701 -0.669229 -0.022959 -74.261216
DOCKED: USER    NEWDPF dihe0 95.73 -50.46 -164.36 32.32 44.92 -36.45 
DOCKED: USER  keepresnum = 1 
DOCKED: USER  
DOCKED: REMARK  6 active torsions:
DOCKED: REMARK  status: ('A' for Active; 'I' for Inactive)
DOCKED: REMARK    1  A    between atoms: P_1  and  O_3 
DOCKED: REMARK    2  A    between atoms: P_2  and  O_4 
DOCKED: REMARK    3  A    between atoms: O_3  and  C_13 
DOCKED: REMARK    4  A    between atoms: O_4  and  C_14 
DOCKED: REMARK    5  A    between atoms: C_13  and  C_14 
DOCKED: REMARK    6  A    between atoms: C_13  and  C_15 
DOCKED: USER                              x       y       z     vdW  Elec       q    Type
DOCKED: USER                           _______ _______ _______ _____ _____    ______ ____
DOCKED: ROOT
DOCKED: ATOM      1  C   UNL d   1      -6.869  11.922  36.569 -0.17 +0.18    +0.193 C 
DOCKED: ENDROOT
DOCKED: BRANCH   1   2
DOCKED: ATOM      2  O   UNL d   1      -6.863  11.575  35.143 +0.03 -0.45    -0.356 OA
DOCKED: BRANCH   2   3
DOCKED: ATOM      3  P   UNL d   1      -7.662  12.445  33.999 -0.30 -0.02    -0.014 P 
DOCKED: ATOM      4  O   UNL d   1      -6.584  12.791  32.959 -0.30 -0.75    -0.577 OA
DOCKED: ATOM      5  O   UNL d   1      -8.206  13.698  34.681 -0.39 -0.81    -0.577 OA
DOCKED: ATOM      6  O   UNL d   1      -8.748  11.556  33.404 -0.53 -0.99    -0.638 OA
DOCKED: ENDBRANCH   2   3
DOCKED: ENDBRANCH   1   2
DOCKED: BRANCH   1   7
DOCKED: ATOM      7  C   UNL d   1      -5.427  12.402  36.977 -0.22 +0.15    +0.201 C 
DOCKED: BRANCH   7   8
DOCKED: ATOM      8  O   UNL d   1      -5.343  13.724  37.555 -0.05 -0.28    -0.364 OA
DOCKED: BRANCH   8   9
DOCKED: ATOM      9  P   UNL d   1      -4.209  14.797  37.008 -0.17 -0.02    -0.015 P 
DOCKED: ATOM     10  O   UNL d   1      -3.765  14.250  35.647 -0.23 -0.79    -0.577 OA
DOCKED: ATOM     11  O   UNL d   1      -3.067  14.796  38.024 +0.02 -0.30    -0.577 OA
DOCKED: ATOM     12  O   UNL d   1      -4.898  16.156  36.884 -0.51 -0.94    -0.638 OA
DOCKED: ENDBRANCH   8   9
DOCKED: ENDBRANCH   7   8
DOCKED: ENDBRANCH   1   7
DOCKED: BRANCH   1  13
DOCKED: ATOM     13  C   UNL d   1      -7.243  10.659  37.430 -0.21 +0.06    +0.073 C 
DOCKED: ATOM     14  O   UNL d   1      -6.754  10.557  38.610 -0.02 -0.28    -0.547 OA
DOCKED: ATOM     15  O   UNL d   1      -8.076   9.829  36.915 -0.34 -0.85    -0.547 OA
DOCKED: ENDBRANCH   1  13
DOCKED: TORSDOF 6
DOCKED: TER
DOCKED: ENDMDL
________________________________________________________________________________


	BEGINNING GENETIC ALGORITHM DOCKING 64 of 100
Run: 64 Seed: 679587204 511037037 [ Run 64 of 100 GA/GALS ]
Beginning LAMARCKIAN GENETIC ALGORITHM (LGA), with a maximum of 25000000 energy evaluations.

Final-Value: -6.984


	FINAL GENETIC ALGORITHM DOCKED STATE
	_______________________________________________


Detailed state:  trans -7.508 12.246 36.416 quatxyzw 0.271419 -0.571058 -0.532773 -0.562474 center 0.015 0.083 0.031 ntor 6 132.5458 4.9757 -122.8149 30.7997 0.6167 19.5433
State:	 -7.508  12.246  36.416   0.328 -0.691 -0.644 -111.546    132.55    4.98 -122.81   30.80    0.62   19.54

DOCKED: MODEL       64
DOCKED: USER    Run = 64
DOCKED: USER    DPF = D:/Protein_go_brrr/autodock/final/1A3N/2_3_BPG/dock.dpf
DOCKED: USER  
DOCKED: USER    Estimated Free Energy of Binding    =   -7.20 kcal/mol  [=(1)+(2)+(3)-(4)]
DOCKED: USER    Estimated Inhibition Constant, Ki   =    5.26 uM (micromolar)  [Temperature = 298.15 K]
DOCKED: USER    
DOCKED: USER    (1) Final Intermolecular Energy     =   -8.99 kcal/mol
DOCKED: USER        vdW + Hbond + desolv Energy     =   -2.86 kcal/mol
DOCKED: USER        Electrostatic Energy            =   -6.13 kcal/mol
DOCKED: USER    (2) Final Total Internal Energy     =   +2.01 kcal/mol
DOCKED: USER    (3) Torsional Free Energy           =   +1.79 kcal/mol
DOCKED: USER    (4) Unbound System's Energy  [=(2)] =   +2.01 kcal/mol
DOCKED: USER    
DOCKED: USER    
DOCKED: USER    NEWDPF move 2_3_BPG_opt.pdbqt
DOCKED: USER    NEWDPF about 0.015000 0.083000 0.031000
DOCKED: USER    NEWDPF tran0 -7.507770 12.246077 36.416417
DOCKED: USER    NEWDPF quaternion0 0.271419 -0.571058 -0.532773 -0.562474
DOCKED: USER    NEWDPF axisangle0 0.328271 -0.690673 -0.644368 -111.545869
DOCKED: USER    NEWDPF quat0 0.328271 -0.690673 -0.644368 -111.545869
DOCKED: USER    NEWDPF dihe0 132.55 4.98 -122.81 30.80 0.62 19.54 
DOCKED: USER  keepresnum = 1 
DOCKED: USER  
DOCKED: REMARK  6 active torsions:
DOCKED: REMARK  status: ('A' for Active; 'I' for Inactive)
DOCKED: REMARK    1  A    between atoms: P_1  and  O_3 
DOCKED: REMARK    2  A    between atoms: P_2  and  O_4 
DOCKED: REMARK    3  A    between atoms: O_3  and  C_13 
DOCKED: REMARK    4  A    between atoms: O_4  and  C_14 
DOCKED: REMARK    5  A    between atoms: C_13  and  C_14 
DOCKED: REMARK    6  A    between atoms: C_13  and  C_15 
DOCKED: USER                              x       y       z     vdW  Elec       q    Type
DOCKED: USER                           _______ _______ _______ _____ _____    ______ ____
DOCKED: ROOT
DOCKED: ATOM      1  C   UNL d   1      -7.556  12.718  35.943 -0.14 +0.21    +0.193 C 
DOCKED: ENDROOT
DOCKED: BRANCH   1   2
DOCKED: ATOM      2  O   UNL d   1      -6.495  13.706  36.172 -0.15 -0.54    -0.356 OA
DOCKED: BRANCH   2   3
DOCKED: ATOM      3  P   UNL d   1      -6.758  15.164  36.885 +0.09 -0.02    -0.014 P 
DOCKED: ATOM      4  O   UNL d   1      -5.380  15.845  36.884 -0.37 -0.94    -0.577 OA
DOCKED: ATOM      5  O   UNL d   1      -7.249  14.892  38.305 +0.02 -0.33    -0.577 OA
DOCKED: ATOM      6  O   UNL d   1      -7.762  15.932  36.031 +0.10 -0.98    -0.638 OA
DOCKED: ENDBRANCH   2   3
DOCKED: ENDBRANCH   1   2
DOCKED: BRANCH   1   7
DOCKED: ATOM      7  C   UNL d   1      -7.284  11.464  36.853 -0.16 +0.18    +0.201 C 
DOCKED: BRANCH   7   8
DOCKED: ATOM      8  O   UNL d   1      -8.255  10.398  36.765 -0.27 -0.53    -0.364 OA
DOCKED: BRANCH   8   9
DOCKED: ATOM      9  P   UNL d   1      -8.121   9.071  37.742 -0.16 -0.01    -0.015 P 
DOCKED: ATOM     10  O   UNL d   1      -8.182   9.620  39.172 -0.00 -0.26    -0.577 OA
DOCKED: ATOM     11  O   UNL d   1      -6.770   8.425  37.435 -0.12 -0.41    -0.577 OA
DOCKED: ATOM     12  O   UNL d   1      -9.306   8.158  37.427 -0.52 -0.78    -0.638 OA
DOCKED: ENDBRANCH   8   9
DOCKED: ENDBRANCH   7   8
DOCKED: ENDBRANCH   1   7
DOCKED: BRANCH   1  13
DOCKED: ATOM     13  C   UNL d   1      -7.549  12.259  34.437 -0.21 +0.10    +0.073 C 
DOCKED: ATOM     14  O   UNL d   1      -8.488  11.489  34.029 -0.46 -0.97    -0.547 OA
DOCKED: ATOM     15  O   UNL d   1      -6.628  12.742  33.685 -0.50 -0.84    -0.547 OA
DOCKED: ENDBRANCH   1  13
DOCKED: TORSDOF 6
DOCKED: TER
DOCKED: ENDMDL
________________________________________________________________________________


	BEGINNING GENETIC ALGORITHM DOCKING 65 of 100
Run: 65 Seed: 916749215 351011725 [ Run 65 of 100 GA/GALS ]
Beginning LAMARCKIAN GENETIC ALGORITHM (LGA), with a maximum of 25000000 energy evaluations.

Final-Value: -7.209


	FINAL GENETIC ALGORITHM DOCKED STATE
	_______________________________________________


Detailed state:  trans 7.291 11.481 36.138 quatxyzw 0.890359 -0.143800 -0.129052 -0.412224 center 0.015 0.083 0.031 ntor 6 -146.6212 -69.2784 -16.3180 -22.9975 -32.2423 4.1203
State:	  7.291  11.481  36.138   0.977 -0.158 -0.142 -131.311   -146.62  -69.28  -16.32  -23.00  -32.24    4.12

DOCKED: MODEL       65
DOCKED: USER    Run = 65
DOCKED: USER    DPF = D:/Protein_go_brrr/autodock/final/1A3N/2_3_BPG/dock.dpf
DOCKED: USER  
DOCKED: USER    Estimated Free Energy of Binding    =   -7.75 kcal/mol  [=(1)+(2)+(3)-(4)]
DOCKED: USER    Estimated Inhibition Constant, Ki   =    2.07 uM (micromolar)  [Temperature = 298.15 K]
DOCKED: USER    
DOCKED: USER    (1) Final Intermolecular Energy     =   -9.54 kcal/mol
DOCKED: USER        vdW + Hbond + desolv Energy     =   -3.04 kcal/mol
DOCKED: USER        Electrostatic Energy            =   -6.51 kcal/mol
DOCKED: USER    (2) Final Total Internal Energy     =   +2.34 kcal/mol
DOCKED: USER    (3) Torsional Free Energy           =   +1.79 kcal/mol
DOCKED: USER    (4) Unbound System's Energy  [=(2)] =   +2.34 kcal/mol
DOCKED: USER    
DOCKED: USER    
DOCKED: USER    NEWDPF move 2_3_BPG_opt.pdbqt
DOCKED: USER    NEWDPF about 0.015000 0.083000 0.031000
DOCKED: USER    NEWDPF tran0 7.291131 11.480629 36.138292
DOCKED: USER    NEWDPF quaternion0 0.890359 -0.143800 -0.129052 -0.412224
DOCKED: USER    NEWDPF axisangle0 0.977253 -0.157834 -0.141647 -131.310768
DOCKED: USER    NEWDPF quat0 0.977253 -0.157834 -0.141647 -131.310768
DOCKED: USER    NEWDPF dihe0 -146.62 -69.28 -16.32 -23.00 -32.24 4.12 
DOCKED: USER  keepresnum = 1 
DOCKED: USER  
DOCKED: REMARK  6 active torsions:
DOCKED: REMARK  status: ('A' for Active; 'I' for Inactive)
DOCKED: REMARK    1  A    between atoms: P_1  and  O_3 
DOCKED: REMARK    2  A    between atoms: P_2  and  O_4 
DOCKED: REMARK    3  A    between atoms: O_3  and  C_13 
DOCKED: REMARK    4  A    between atoms: O_4  and  C_14 
DOCKED: REMARK    5  A    between atoms: C_13  and  C_14 
DOCKED: REMARK    6  A    between atoms: C_13  and  C_15 
DOCKED: USER                              x       y       z     vdW  Elec       q    Type
DOCKED: USER                           _______ _______ _______ _____ _____    ______ ____
DOCKED: ROOT
DOCKED: ATOM      1  C   UNL d   1       6.763  11.821  35.905 -0.18 +0.16    +0.193 C 
DOCKED: ENDROOT
DOCKED: BRANCH   1   2
DOCKED: ATOM      2  O   UNL d   1       5.896  12.156  37.040 -0.08 -0.34    -0.356 OA
DOCKED: BRANCH   2   3
DOCKED: ATOM      3  P   UNL d   1       4.284  12.445  36.890 -0.20 -0.02    -0.014 P 
DOCKED: ATOM      4  O   UNL d   1       3.615  11.194  37.481 -0.03 -0.33    -0.577 OA
DOCKED: ATOM      5  O   UNL d   1       3.987  12.590  35.399 -0.37 -0.91    -0.577 OA
DOCKED: ATOM      6  O   UNL d   1       3.952  13.693  37.701 -0.19 -1.12    -0.638 OA
DOCKED: ENDBRANCH   2   3
DOCKED: ENDBRANCH   1   2
DOCKED: BRANCH   1   7
DOCKED: ATOM      7  C   UNL d   1       8.135  11.285  36.458 -0.14 +0.13    +0.201 C 
DOCKED: BRANCH   7   8
DOCKED: ATOM      8  O   UNL d   1       8.961  10.572  35.511 -0.51 -0.28    -0.364 OA
DOCKED: BRANCH   8   9
DOCKED: ATOM      9  P   UNL d   1      10.608  10.588  35.670 -0.26 -0.02    -0.015 P 
DOCKED: ATOM     10  O   UNL d   1      11.108   9.469  34.748 -0.04 -0.65    -0.577 OA
DOCKED: ATOM     11  O   UNL d   1      10.917  10.298  37.139 -0.07 -0.63    -0.577 OA
DOCKED: ATOM     12  O   UNL d   1      11.092  11.964  35.217 -0.46 -1.25    -0.638 OA
DOCKED: ENDBRANCH   8   9
DOCKED: ENDBRANCH   7   8
DOCKED: ENDBRANCH   1   7
DOCKED: BRANCH   1  13
DOCKED: ATOM     13  C   UNL d   1       7.037  13.106  35.037 -0.15 +0.09    +0.073 C 
DOCKED: ATOM     14  O   UNL d   1       6.269  13.345  34.040 -0.35 -0.78    -0.547 OA
DOCKED: ATOM     15  O   UNL d   1       7.986  13.879  35.425 +0.00 -0.56    -0.547 OA
DOCKED: ENDBRANCH   1  13
DOCKED: TORSDOF 6
DOCKED: TER
DOCKED: ENDMDL
________________________________________________________________________________


	BEGINNING GENETIC ALGORITHM DOCKING 66 of 100
Run: 66 Seed: 1619860483 590671649 [ Run 66 of 100 GA/GALS ]
Beginning LAMARCKIAN GENETIC ALGORITHM (LGA), with a maximum of 25000000 energy evaluations.

Final-Value: -7.559


	FINAL GENETIC ALGORITHM DOCKED STATE
	_______________________________________________


Detailed state:  trans 7.877 -14.789 13.617 quatxyzw 0.935751 -0.095745 0.329046 -0.083255 center 0.015 0.083 0.031 ntor 6 -95.3518 140.4694 -49.8631 22.7654 12.3783 -37.2894
State:	  7.877 -14.789  13.617   0.939 -0.096  0.330 -170.449    -95.35  140.47  -49.86   22.77   12.38  -37.29

DOCKED: MODEL       66
DOCKED: USER    Run = 66
DOCKED: USER    DPF = D:/Protein_go_brrr/autodock/final/1A3N/2_3_BPG/dock.dpf
DOCKED: USER  
DOCKED: USER    Estimated Free Energy of Binding    =   -7.84 kcal/mol  [=(1)+(2)+(3)-(4)]
DOCKED: USER    Estimated Inhibition Constant, Ki   =    1.79 uM (micromolar)  [Temperature = 298.15 K]
DOCKED: USER    
DOCKED: USER    (1) Final Intermolecular Energy     =   -9.63 kcal/mol
DOCKED: USER        vdW + Hbond + desolv Energy     =   -3.52 kcal/mol
DOCKED: USER        Electrostatic Energy            =   -6.11 kcal/mol
DOCKED: USER    (2) Final Total Internal Energy     =   +2.07 kcal/mol
DOCKED: USER    (3) Torsional Free Energy           =   +1.79 kcal/mol
DOCKED: USER    (4) Unbound System's Energy  [=(2)] =   +2.07 kcal/mol
DOCKED: USER    
DOCKED: USER    
DOCKED: USER    NEWDPF move 2_3_BPG_opt.pdbqt
DOCKED: USER    NEWDPF about 0.015000 0.083000 0.031000
DOCKED: USER    NEWDPF tran0 7.877129 -14.788675 13.617448
DOCKED: USER    NEWDPF quaternion0 0.935751 -0.095745 0.329046 -0.083255
DOCKED: USER    NEWDPF axisangle0 0.939011 -0.096079 0.330192 -170.448592
DOCKED: USER    NEWDPF quat0 0.939011 -0.096079 0.330192 -170.448592
DOCKED: USER    NEWDPF dihe0 -95.35 140.47 -49.86 22.77 12.38 -37.29 
DOCKED: USER  keepresnum = 1 
DOCKED: USER  
DOCKED: REMARK  6 active torsions:
DOCKED: REMARK  status: ('A' for Active; 'I' for Inactive)
DOCKED: REMARK    1  A    between atoms: P_1  and  O_3 
DOCKED: REMARK    2  A    between atoms: P_2  and  O_4 
DOCKED: REMARK    3  A    between atoms: O_3  and  C_13 
DOCKED: REMARK    4  A    between atoms: O_4  and  C_14 
DOCKED: REMARK    5  A    between atoms: C_13  and  C_14 
DOCKED: REMARK    6  A    between atoms: C_13  and  C_15 
DOCKED: USER                              x       y       z     vdW  Elec       q    Type
DOCKED: USER                           _______ _______ _______ _____ _____    ______ ____
DOCKED: ROOT
DOCKED: ATOM      1  C   UNL d   1       7.558 -14.434  13.147 +0.05 +0.30    +0.193 C 
DOCKED: ENDROOT
DOCKED: BRANCH   1   2
DOCKED: ATOM      2  O   UNL d   1       6.182 -14.935  13.052 -0.08 -0.41    -0.356 OA
DOCKED: BRANCH   2   3
DOCKED: ATOM      3  P   UNL d   1       5.619 -15.791  11.766 -0.48 -0.02    -0.014 P 
DOCKED: ATOM      4  O   UNL d   1       6.168 -15.045  10.540 -0.33 -0.88    -0.577 OA
DOCKED: ATOM      5  O   UNL d   1       4.094 -15.737  11.819 -0.02 -0.38    -0.577 OA
DOCKED: ATOM      6  O   UNL d   1       6.181 -17.206  11.859 -0.35 -1.32    -0.638 OA
DOCKED: ENDBRANCH   2   3
DOCKED: ENDBRANCH   1   2
DOCKED: BRANCH   1   7
DOCKED: ATOM      7  C   UNL d   1       8.230 -15.045  14.431 -0.03 +0.25    +0.201 C 
DOCKED: BRANCH   7   8
DOCKED: ATOM      8  O   UNL d   1       9.438 -15.806  14.208 -0.62 -0.60    -0.364 OA
DOCKED: BRANCH   8   9
DOCKED: ATOM      9  P   UNL d   1      10.021 -16.803  15.393 -0.11 -0.02    -0.015 P 
DOCKED: ATOM     10  O   UNL d   1      10.326 -18.128  14.685 -0.01 -0.62    -0.577 OA
DOCKED: ATOM     11  O   UNL d   1       8.912 -16.954  16.434 +0.02 -0.58    -0.577 OA
DOCKED: ATOM     12  O   UNL d   1      11.282 -16.148  15.954 -0.50 -1.01    -0.638 OA
DOCKED: ENDBRANCH   8   9
DOCKED: ENDBRANCH   7   8
DOCKED: ENDBRANCH   1   7
DOCKED: BRANCH   1  13
DOCKED: ATOM     13  C   UNL d   1       7.553 -12.865  13.278 -0.23 +0.07    +0.073 C 
DOCKED: ATOM     14  O   UNL d   1       6.739 -12.194  12.551 -0.62 -0.49    -0.547 OA
DOCKED: ATOM     15  O   UNL d   1       8.330 -12.352  14.161 -0.20 -0.41    -0.547 OA
DOCKED: ENDBRANCH   1  13
DOCKED: TORSDOF 6
DOCKED: TER
DOCKED: ENDMDL
________________________________________________________________________________


	BEGINNING GENETIC ALGORITHM DOCKING 67 of 100
Run: 67 Seed: 554219242 1740072367 [ Run 67 of 100 GA/GALS ]
Beginning LAMARCKIAN GENETIC ALGORITHM (LGA), with a maximum of 25000000 energy evaluations.

Final-Value: -6.880


	FINAL GENETIC ALGORITHM DOCKED STATE
	_______________________________________________


Detailed state:  trans 8.433 12.612 35.311 quatxyzw 0.704131 0.708104 0.052724 0.002796 center 0.015 0.083 0.031 ntor 6 139.4237 98.8109 -5.2280 73.6652 -34.2794 17.8670
State:	  8.433  12.612  35.311   0.704  0.708  0.053 179.680    139.42   98.81   -5.23   73.67  -34.28   17.87

DOCKED: MODEL       67
DOCKED: USER    Run = 67
DOCKED: USER    DPF = D:/Protein_go_brrr/autodock/final/1A3N/2_3_BPG/dock.dpf
DOCKED: USER  
DOCKED: USER    Estimated Free Energy of Binding    =   -7.20 kcal/mol  [=(1)+(2)+(3)-(4)]
DOCKED: USER    Estimated Inhibition Constant, Ki   =    5.26 uM (micromolar)  [Temperature = 298.15 K]
DOCKED: USER    
DOCKED: USER    (1) Final Intermolecular Energy     =   -8.99 kcal/mol
DOCKED: USER        vdW + Hbond + desolv Energy     =   -2.95 kcal/mol
DOCKED: USER        Electrostatic Energy            =   -6.05 kcal/mol
DOCKED: USER    (2) Final Total Internal Energy     =   +2.11 kcal/mol
DOCKED: USER    (3) Torsional Free Energy           =   +1.79 kcal/mol
DOCKED: USER    (4) Unbound System's Energy  [=(2)] =   +2.11 kcal/mol
DOCKED: USER    
DOCKED: USER    
DOCKED: USER    NEWDPF move 2_3_BPG_opt.pdbqt
DOCKED: USER    NEWDPF about 0.015000 0.083000 0.031000
DOCKED: USER    NEWDPF tran0 8.432555 12.612127 35.310910
DOCKED: USER    NEWDPF quaternion0 0.704131 0.708104 0.052724 0.002796
DOCKED: USER    NEWDPF axisangle0 0.704134 0.708107 0.052724 179.679626
DOCKED: USER    NEWDPF quat0 0.704134 0.708107 0.052724 179.679626
DOCKED: USER    NEWDPF dihe0 139.42 98.81 -5.23 73.67 -34.28 17.87 
DOCKED: USER  keepresnum = 1 
DOCKED: USER  
DOCKED: REMARK  6 active torsions:
DOCKED: REMARK  status: ('A' for Active; 'I' for Inactive)
DOCKED: REMARK    1  A    between atoms: P_1  and  O_3 
DOCKED: REMARK    2  A    between atoms: P_2  and  O_4 
DOCKED: REMARK    3  A    between atoms: O_3  and  C_13 
DOCKED: REMARK    4  A    between atoms: O_4  and  C_14 
DOCKED: REMARK    5  A    between atoms: C_13  and  C_14 
DOCKED: REMARK    6  A    between atoms: C_13  and  C_15 
DOCKED: USER                              x       y       z     vdW  Elec       q    Type
DOCKED: USER                           _______ _______ _______ _____ _____    ______ ____
DOCKED: ROOT
DOCKED: ATOM      1  C   UNL d   1       8.133  12.034  35.151 -0.13 +0.14    +0.193 C 
DOCKED: ENDROOT
DOCKED: BRANCH   1   2
DOCKED: ATOM      2  O   UNL d   1       8.892  10.939  35.764 -0.30 -0.26    -0.356 OA
DOCKED: BRANCH   2   3
DOCKED: ATOM      3  P   UNL d   1      10.484  10.661  35.456 -0.26 -0.02    -0.014 P 
DOCKED: ATOM      4  O   UNL d   1      10.482   9.802  34.181 -0.03 -0.51    -0.577 OA
DOCKED: ATOM      5  O   UNL d   1      11.048   9.893  36.650 -0.07 -0.68    -0.577 OA
DOCKED: ATOM      6  O   UNL d   1      11.161  12.007  35.223 -0.47 -1.31    -0.638 OA
DOCKED: ENDBRANCH   2   3
DOCKED: ENDBRANCH   1   2
DOCKED: BRANCH   1   7
DOCKED: ATOM      7  C   UNL d   1       8.641  13.398  35.748 -0.08 +0.17    +0.201 C 
DOCKED: BRANCH   7   8
DOCKED: ATOM      8  O   UNL d   1       8.034  14.590  35.203 -0.10 -0.40    -0.364 OA
DOCKED: BRANCH   8   9
DOCKED: ATOM      9  P   UNL d   1       7.846  15.933  36.150 -0.07 -0.02    -0.015 P 
DOCKED: ATOM     10  O   UNL d   1       7.250  16.997  35.221 -0.63 -0.74    -0.577 OA
DOCKED: ATOM     11  O   UNL d   1       9.236  16.325  36.649 +0.01 -0.34    -0.577 OA
DOCKED: ATOM     12  O   UNL d   1       6.888  15.558  37.281 +0.00 -1.01    -0.638 OA
DOCKED: ENDBRANCH   8   9
DOCKED: ENDBRANCH   7   8
DOCKED: ENDBRANCH   1   7
DOCKED: BRANCH   1  13
DOCKED: ATOM     13  C   UNL d   1       6.601  11.879  35.480 -0.26 +0.06    +0.073 C 
DOCKED: ATOM     14  O   UNL d   1       5.760  12.589  34.824 -0.53 -0.79    -0.547 OA
DOCKED: ATOM     15  O   UNL d   1       6.279  10.994  36.351 -0.04 -0.35    -0.547 OA
DOCKED: ENDBRANCH   1  13
DOCKED: TORSDOF 6
DOCKED: TER
DOCKED: ENDMDL
________________________________________________________________________________


	BEGINNING GENETIC ALGORITHM DOCKING 68 of 100
Run: 68 Seed: 376078764 1976164572 [ Run 68 of 100 GA/GALS ]
Beginning LAMARCKIAN GENETIC ALGORITHM (LGA), with a maximum of 25000000 energy evaluations.

Final-Value: -7.345


	FINAL GENETIC ALGORITHM DOCKED STATE
	_______________________________________________


Detailed state:  trans 8.277 -18.450 13.523 quatxyzw 0.208328 -0.901828 -0.286122 0.247872 center 0.015 0.083 0.031 ntor 6 170.3823 -39.5781 145.9753 30.3631 36.5132 11.8734
State:	  8.277 -18.450  13.523   0.215 -0.931 -0.295 151.297    170.38  -39.58  145.98   30.36   36.51   11.87

DOCKED: MODEL       68
DOCKED: USER    Run = 68
DOCKED: USER    DPF = D:/Protein_go_brrr/autodock/final/1A3N/2_3_BPG/dock.dpf
DOCKED: USER  
DOCKED: USER    Estimated Free Energy of Binding    =   -7.52 kcal/mol  [=(1)+(2)+(3)-(4)]
DOCKED: USER    Estimated Inhibition Constant, Ki   =    3.08 uM (micromolar)  [Temperature = 298.15 K]
DOCKED: USER    
DOCKED: USER    (1) Final Intermolecular Energy     =   -9.31 kcal/mol
DOCKED: USER        vdW + Hbond + desolv Energy     =   -3.47 kcal/mol
DOCKED: USER        Electrostatic Energy            =   -5.84 kcal/mol
DOCKED: USER    (2) Final Total Internal Energy     =   +1.96 kcal/mol
DOCKED: USER    (3) Torsional Free Energy           =   +1.79 kcal/mol
DOCKED: USER    (4) Unbound System's Energy  [=(2)] =   +1.96 kcal/mol
DOCKED: USER    
DOCKED: USER    
DOCKED: USER    NEWDPF move 2_3_BPG_opt.pdbqt
DOCKED: USER    NEWDPF about 0.015000 0.083000 0.031000
DOCKED: USER    NEWDPF tran0 8.276509 -18.450176 13.522658
DOCKED: USER    NEWDPF quaternion0 0.208328 -0.901828 -0.286122 0.247872
DOCKED: USER    NEWDPF axisangle0 0.215039 -0.930878 -0.295338 151.296697
DOCKED: USER    NEWDPF quat0 0.215039 -0.930878 -0.295338 151.296697
DOCKED: USER    NEWDPF dihe0 170.38 -39.58 145.98 30.36 36.51 11.87 
DOCKED: USER  keepresnum = 1 
DOCKED: USER  
DOCKED: REMARK  6 active torsions:
DOCKED: REMARK  status: ('A' for Active; 'I' for Inactive)
DOCKED: REMARK    1  A    between atoms: P_1  and  O_3 
DOCKED: REMARK    2  A    between atoms: P_2  and  O_4 
DOCKED: REMARK    3  A    between atoms: O_3  and  C_13 
DOCKED: REMARK    4  A    between atoms: O_4  and  C_14 
DOCKED: REMARK    5  A    between atoms: C_13  and  C_14 
DOCKED: REMARK    6  A    between atoms: C_13  and  C_15 
DOCKED: USER                              x       y       z     vdW  Elec       q    Type
DOCKED: USER                           _______ _______ _______ _____ _____    ______ ____
DOCKED: ROOT
DOCKED: ATOM      1  C   UNL d   1       8.932 -18.489  13.659 -0.03 +0.26    +0.193 C 
DOCKED: ENDROOT
DOCKED: BRANCH   1   2
DOCKED: ATOM      2  O   UNL d   1       9.138 -18.044  15.042 -0.03 -0.37    -0.356 OA
DOCKED: BRANCH   2   3
DOCKED: ATOM      3  P   UNL d   1       9.710 -16.553  15.435 -0.10 -0.02    -0.014 P 
DOCKED: ATOM      4  O   UNL d   1       8.818 -16.094  16.598 +0.02 -0.55    -0.577 OA
DOCKED: ATOM      5  O   UNL d   1       9.534 -15.663  14.206 -0.58 -0.92    -0.577 OA
DOCKED: ATOM      6  O   UNL d   1      11.164 -16.707  15.870 -0.43 -1.03    -0.638 OA
DOCKED: ENDBRANCH   2   3
DOCKED: ENDBRANCH   1   2
DOCKED: BRANCH   1   7
DOCKED: ATOM      7  C   UNL d   1       7.389 -18.682  13.415 -0.06 +0.24    +0.201 C 
DOCKED: BRANCH   7   8
DOCKED: ATOM      8  O   UNL d   1       6.994 -18.932  12.049 -0.55 -0.52    -0.364 OA
DOCKED: BRANCH   8   9
DOCKED: ATOM      9  P   UNL d   1       5.621 -18.237  11.442 -0.54 -0.02    -0.015 P 
DOCKED: ATOM     10  O   UNL d   1       4.666 -18.129  12.638 -0.12 -0.35    -0.577 OA
DOCKED: ATOM     11  O   UNL d   1       5.083 -19.178  10.365 -0.59 -0.58    -0.577 OA
DOCKED: ATOM     12  O   UNL d   1       6.013 -16.865  10.896 -0.36 -1.31    -0.638 OA
DOCKED: ENDBRANCH   8   9
DOCKED: ENDBRANCH   7   8
DOCKED: ENDBRANCH   1   7
DOCKED: BRANCH   1  13
DOCKED: ATOM     13  C   UNL d   1       9.656 -19.867  13.423 -0.08 +0.06    +0.073 C 
DOCKED: ATOM     14  O   UNL d   1      10.330 -20.026  12.345 -0.03 -0.43    -0.547 OA
DOCKED: ATOM     15  O   UNL d   1       9.578 -20.735  14.365 +0.01 -0.29    -0.547 OA
DOCKED: ENDBRANCH   1  13
DOCKED: TORSDOF 6
DOCKED: TER
DOCKED: ENDMDL
________________________________________________________________________________


	BEGINNING GENETIC ALGORITHM DOCKING 69 of 100
Run: 69 Seed: 763956479 403274738 [ Run 69 of 100 GA/GALS ]
Beginning LAMARCKIAN GENETIC ALGORITHM (LGA), with a maximum of 25000000 energy evaluations.

Final-Value: -6.937


	FINAL GENETIC ALGORITHM DOCKED STATE
	_______________________________________________


Detailed state:  trans 7.577 11.435 35.843 quatxyzw -0.235084 -0.646372 -0.725693 -0.017568 center 0.015 0.083 0.031 ntor 6 169.6113 43.7201 -146.9203 15.2183 -40.2318 -9.3798
State:	  7.577  11.435  35.843  -0.235 -0.646 -0.726 -177.987    169.61   43.72 -146.92   15.22  -40.23   -9.38

DOCKED: MODEL       69
DOCKED: USER    Run = 69
DOCKED: USER    DPF = D:/Protein_go_brrr/autodock/final/1A3N/2_3_BPG/dock.dpf
DOCKED: USER  
DOCKED: USER    Estimated Free Energy of Binding    =   -7.10 kcal/mol  [=(1)+(2)+(3)-(4)]
DOCKED: USER    Estimated Inhibition Constant, Ki   =    6.22 uM (micromolar)  [Temperature = 298.15 K]
DOCKED: USER    
DOCKED: USER    (1) Final Intermolecular Energy     =   -8.89 kcal/mol
DOCKED: USER        vdW + Hbond + desolv Energy     =   -3.08 kcal/mol
DOCKED: USER        Electrostatic Energy            =   -5.81 kcal/mol
DOCKED: USER    (2) Final Total Internal Energy     =   +1.96 kcal/mol
DOCKED: USER    (3) Torsional Free Energy           =   +1.79 kcal/mol
DOCKED: USER    (4) Unbound System's Energy  [=(2)] =   +1.96 kcal/mol
DOCKED: USER    
DOCKED: USER    
DOCKED: USER    NEWDPF move 2_3_BPG_opt.pdbqt
DOCKED: USER    NEWDPF about 0.015000 0.083000 0.031000
DOCKED: USER    NEWDPF tran0 7.576700 11.434855 35.843185
DOCKED: USER    NEWDPF quaternion0 -0.235084 -0.646372 -0.725693 -0.017568
DOCKED: USER    NEWDPF axisangle0 -0.235121 -0.646472 -0.725805 -177.986770
DOCKED: USER    NEWDPF quat0 -0.235121 -0.646472 -0.725805 -177.986770
DOCKED: USER    NEWDPF dihe0 169.61 43.72 -146.92 15.22 -40.23 -9.38 
DOCKED: USER  keepresnum = 1 
DOCKED: USER  
DOCKED: REMARK  6 active torsions:
DOCKED: REMARK  status: ('A' for Active; 'I' for Inactive)
DOCKED: REMARK    1  A    between atoms: P_1  and  O_3 
DOCKED: REMARK    2  A    between atoms: P_2  and  O_4 
DOCKED: REMARK    3  A    between atoms: O_3  and  C_13 
DOCKED: REMARK    4  A    between atoms: O_4  and  C_14 
DOCKED: REMARK    5  A    between atoms: C_13  and  C_14 
DOCKED: REMARK    6  A    between atoms: C_13  and  C_15 
DOCKED: USER                              x       y       z     vdW  Elec       q    Type
DOCKED: USER                           _______ _______ _______ _____ _____    ______ ____
DOCKED: ROOT
DOCKED: ATOM      1  C   UNL d   1       8.024  11.411  35.345 -0.17 +0.13    +0.193 C 
DOCKED: ENDROOT
DOCKED: BRANCH   1   2
DOCKED: ATOM      2  O   UNL d   1       9.016  10.379  35.670 -0.64 -0.28    -0.356 OA
DOCKED: BRANCH   2   3
DOCKED: ATOM      3  P   UNL d   1      10.611  10.703  35.908 -0.24 -0.02    -0.014 P 
DOCKED: ATOM      4  O   UNL d   1      11.343   9.533  35.232 -0.03 -0.78    -0.577 OA
DOCKED: ATOM      5  O   UNL d   1      10.849  10.719  37.416 -0.05 -0.60    -0.577 OA
DOCKED: ATOM      6  O   UNL d   1      10.928  12.030  35.227 -0.50 -1.12    -0.638 OA
DOCKED: ENDBRANCH   2   3
DOCKED: ENDBRANCH   1   2
DOCKED: BRANCH   1   7
DOCKED: ATOM      7  C   UNL d   1       6.817  11.284  36.345 -0.18 +0.14    +0.201 C 
DOCKED: BRANCH   7   8
DOCKED: ATOM      8  O   UNL d   1       6.115  12.510  36.646 -0.10 -0.42    -0.364 OA
DOCKED: BRANCH   8   9
DOCKED: ATOM      9  P   UNL d   1       4.473  12.500  36.845 -0.12 -0.02    -0.015 P 
DOCKED: ATOM     10  O   UNL d   1       4.162  11.160  37.522 -0.01 -0.34    -0.577 OA
DOCKED: ATOM     11  O   UNL d   1       3.854  12.592  35.450 -0.33 -0.87    -0.577 OA
DOCKED: ATOM     12  O   UNL d   1       4.119  13.690  37.736 -0.18 -1.14    -0.638 OA
DOCKED: ENDBRANCH   8   9
DOCKED: ENDBRANCH   7   8
DOCKED: ENDBRANCH   1   7
DOCKED: BRANCH   1  13
DOCKED: ATOM     13  C   UNL d   1       7.489  11.202  33.879 -0.33 +0.04    +0.073 C 
DOCKED: ATOM     14  O   UNL d   1       7.356  12.229  33.125 -0.04 -0.30    -0.547 OA
DOCKED: ATOM     15  O   UNL d   1       7.276   9.993  33.503 -0.17 -0.22    -0.547 OA
DOCKED: ENDBRANCH   1  13
DOCKED: TORSDOF 6
DOCKED: TER
DOCKED: ENDMDL
________________________________________________________________________________


	BEGINNING GENETIC ALGORITHM DOCKING 70 of 100
Run: 70 Seed: 1029618907 454322468 [ Run 70 of 100 GA/GALS ]
Beginning LAMARCKIAN GENETIC ALGORITHM (LGA), with a maximum of 25000000 energy evaluations.

Final-Value: -6.867


	FINAL GENETIC ALGORITHM DOCKED STATE
	_______________________________________________


Detailed state:  trans 7.581 11.474 35.579 quatxyzw -0.213653 -0.645486 -0.732995 0.020434 center 0.015 0.083 0.031 ntor 6 -5.6608 55.4391 -179.5190 8.7194 -4.7261 3.9120
State:	  7.581  11.474  35.579  -0.214 -0.646 -0.733 177.658     -5.66   55.44 -179.52    8.72   -4.73    3.91

DOCKED: MODEL       70
DOCKED: USER    Run = 70
DOCKED: USER    DPF = D:/Protein_go_brrr/autodock/final/1A3N/2_3_BPG/dock.dpf
DOCKED: USER  
DOCKED: USER    Estimated Free Energy of Binding    =   -7.01 kcal/mol  [=(1)+(2)+(3)-(4)]
DOCKED: USER    Estimated Inhibition Constant, Ki   =    7.29 uM (micromolar)  [Temperature = 298.15 K]
DOCKED: USER    
DOCKED: USER    (1) Final Intermolecular Energy     =   -8.80 kcal/mol
DOCKED: USER        vdW + Hbond + desolv Energy     =   -3.08 kcal/mol
DOCKED: USER        Electrostatic Energy            =   -5.72 kcal/mol
DOCKED: USER    (2) Final Total Internal Energy     =   +1.93 kcal/mol
DOCKED: USER    (3) Torsional Free Energy           =   +1.79 kcal/mol
DOCKED: USER    (4) Unbound System's Energy  [=(2)] =   +1.93 kcal/mol
DOCKED: USER    
DOCKED: USER    
DOCKED: USER    NEWDPF move 2_3_BPG_opt.pdbqt
DOCKED: USER    NEWDPF about 0.015000 0.083000 0.031000
DOCKED: USER    NEWDPF tran0 7.580843 11.474092 35.579194
DOCKED: USER    NEWDPF quaternion0 -0.213653 -0.645486 -0.732995 0.020434
DOCKED: USER    NEWDPF axisangle0 -0.213698 -0.645621 -0.733148 177.658304
DOCKED: USER    NEWDPF quat0 -0.213698 -0.645621 -0.733148 177.658304
DOCKED: USER    NEWDPF dihe0 -5.66 55.44 -179.52 8.72 -4.73 3.91 
DOCKED: USER  keepresnum = 1 
DOCKED: USER  
DOCKED: REMARK  6 active torsions:
DOCKED: REMARK  status: ('A' for Active; 'I' for Inactive)
DOCKED: REMARK    1  A    between atoms: P_1  and  O_3 
DOCKED: REMARK    2  A    between atoms: P_2  and  O_4 
DOCKED: REMARK    3  A    between atoms: O_3  and  C_13 
DOCKED: REMARK    4  A    between atoms: O_4  and  C_14 
DOCKED: REMARK    5  A    between atoms: C_13  and  C_14 
DOCKED: REMARK    6  A    between atoms: C_13  and  C_15 
DOCKED: USER                              x       y       z     vdW  Elec       q    Type
DOCKED: USER                           _______ _______ _______ _____ _____    ______ ____
DOCKED: ROOT
DOCKED: ATOM      1  C   UNL d   1       8.068  11.434  35.120 -0.17 +0.13    +0.193 C 
DOCKED: ENDROOT
DOCKED: BRANCH   1   2
DOCKED: ATOM      2  O   UNL d   1       8.999  10.378  35.533 -0.64 -0.28    -0.356 OA
DOCKED: BRANCH   2   3
DOCKED: ATOM      3  P   UNL d   1      10.609  10.629  35.751 -0.25 -0.02    -0.014 P 
DOCKED: ATOM      4  O   UNL d   1      11.285   9.529  34.918 -0.02 -0.74    -0.577 OA
DOCKED: ATOM      5  O   UNL d   1      10.895  10.459  37.242 -0.06 -0.63    -0.577 OA
DOCKED: ATOM      6  O   UNL d   1      10.946  12.019  35.222 -0.49 -1.14    -0.638 OA
DOCKED: ENDBRANCH   2   3
DOCKED: ENDBRANCH   1   2
DOCKED: BRANCH   1   7
DOCKED: ATOM      7  C   UNL d   1       6.778  11.348  36.016 -0.19 +0.14    +0.201 C 
DOCKED: BRANCH   7   8
DOCKED: ATOM      8  O   UNL d   1       5.927  12.516  36.010 -0.23 -0.50    -0.364 OA
DOCKED: BRANCH   8   9
DOCKED: ATOM      9  P   UNL d   1       4.522  12.523  36.883 -0.12 -0.02    -0.015 P 
DOCKED: ATOM     10  O   UNL d   1       4.495  11.172  37.608 -0.01 -0.34    -0.577 OA
DOCKED: ATOM     11  O   UNL d   1       3.375  12.656  35.882 -0.15 -0.77    -0.577 OA
DOCKED: ATOM     12  O   UNL d   1       4.603  13.696  37.859 -0.21 -1.13    -0.638 OA
DOCKED: ENDBRANCH   8   9
DOCKED: ENDBRANCH   7   8
DOCKED: ENDBRANCH   1   7
DOCKED: BRANCH   1  13
DOCKED: ATOM     13  C   UNL d   1       7.651  11.229  33.616 -0.33 +0.04    +0.073 C 
DOCKED: ATOM     14  O   UNL d   1       7.280  10.063  33.238 -0.16 -0.20    -0.547 OA
DOCKED: ATOM     15  O   UNL d   1       7.649  12.270  32.865 -0.03 -0.28    -0.547 OA
DOCKED: ENDBRANCH   1  13
DOCKED: TORSDOF 6
DOCKED: TER
DOCKED: ENDMDL
________________________________________________________________________________


	BEGINNING GENETIC ALGORITHM DOCKING 71 of 100
Run: 71 Seed: 468846386 1236626529 [ Run 71 of 100 GA/GALS ]
Beginning LAMARCKIAN GENETIC ALGORITHM (LGA), with a maximum of 25000000 energy evaluations.

Final-Value: -7.663


	FINAL GENETIC ALGORITHM DOCKED STATE
	_______________________________________________


Detailed state:  trans 7.070 -15.083 14.073 quatxyzw -0.372882 0.295965 0.839684 0.261330 center 0.015 0.083 0.031 ntor 6 29.3464 17.0369 96.8626 142.2414 -54.7561 1.7172
State:	  7.070 -15.083  14.073  -0.386  0.307  0.870 149.702     29.35   17.04   96.86  142.24  -54.76    1.72

DOCKED: MODEL       71
DOCKED: USER    Run = 71
DOCKED: USER    DPF = D:/Protein_go_brrr/autodock/final/1A3N/2_3_BPG/dock.dpf
DOCKED: USER  
DOCKED: USER    Estimated Free Energy of Binding    =   -8.36 kcal/mol  [=(1)+(2)+(3)-(4)]
DOCKED: USER    Estimated Inhibition Constant, Ki   =  738.97 nM (nanomolar)  [Temperature = 298.15 K]
DOCKED: USER    
DOCKED: USER    (1) Final Intermolecular Energy     =  -10.15 kcal/mol
DOCKED: USER        vdW + Hbond + desolv Energy     =   -3.88 kcal/mol
DOCKED: USER        Electrostatic Energy            =   -6.28 kcal/mol
DOCKED: USER    (2) Final Total Internal Energy     =   +2.49 kcal/mol
DOCKED: USER    (3) Torsional Free Energy           =   +1.79 kcal/mol
DOCKED: USER    (4) Unbound System's Energy  [=(2)] =   +2.49 kcal/mol
DOCKED: USER    
DOCKED: USER    
DOCKED: USER    NEWDPF move 2_3_BPG_opt.pdbqt
DOCKED: USER    NEWDPF about 0.015000 0.083000 0.031000
DOCKED: USER    NEWDPF tran0 7.070315 -15.082585 14.073001
DOCKED: USER    NEWDPF quaternion0 -0.372882 0.295965 0.839684 0.261330
DOCKED: USER    NEWDPF axisangle0 -0.386307 0.306621 0.869914 149.702062
DOCKED: USER    NEWDPF quat0 -0.386307 0.306621 0.869914 149.702062
DOCKED: USER    NEWDPF dihe0 29.35 17.04 96.86 142.24 -54.76 1.72 
DOCKED: USER  keepresnum = 1 
DOCKED: USER  
DOCKED: REMARK  6 active torsions:
DOCKED: REMARK  status: ('A' for Active; 'I' for Inactive)
DOCKED: REMARK    1  A    between atoms: P_1  and  O_3 
DOCKED: REMARK    2  A    between atoms: P_2  and  O_4 
DOCKED: REMARK    3  A    between atoms: O_3  and  C_13 
DOCKED: REMARK    4  A    between atoms: O_4  and  C_14 
DOCKED: REMARK    5  A    between atoms: C_13  and  C_14 
DOCKED: REMARK    6  A    between atoms: C_13  and  C_15 
DOCKED: USER                              x       y       z     vdW  Elec       q    Type
DOCKED: USER                           _______ _______ _______ _____ _____    ______ ____
DOCKED: ROOT
DOCKED: ATOM      1  C   UNL d   1       7.273 -14.453  14.184 -0.08 +0.19    +0.193 C 
DOCKED: ENDROOT
DOCKED: BRANCH   1   2
DOCKED: ATOM      2  O   UNL d   1       8.563 -14.504  14.880 -0.05 -0.34    -0.356 OA
DOCKED: BRANCH   2   3
DOCKED: ATOM      3  P   UNL d   1       9.430 -15.888  15.074 -0.09 -0.02    -0.014 P 
DOCKED: ATOM      4  O   UNL d   1      10.498 -15.528  16.119 -0.16 -0.72    -0.577 OA
DOCKED: ATOM      5  O   UNL d   1      10.057 -16.223  13.722 -0.42 -1.09    -0.577 OA
DOCKED: ATOM      6  O   UNL d   1       8.485 -16.968  15.590 +0.01 -0.62    -0.638 OA
DOCKED: ENDBRANCH   2   3
DOCKED: ENDBRANCH   1   2
DOCKED: BRANCH   1   7
DOCKED: ATOM      7  C   UNL d   1       6.925 -15.895  13.659 +0.08 +0.30    +0.201 C 
DOCKED: BRANCH   7   8
DOCKED: ATOM      8  O   UNL d   1       5.537 -16.129  13.332 -0.07 -0.34    -0.364 OA
DOCKED: BRANCH   8   9
DOCKED: ATOM      9  P   UNL d   1       5.127 -16.759  11.858 -0.56 -0.02    -0.015 P 
DOCKED: ATOM     10  O   UNL d   1       5.156 -15.568  10.893 -0.17 -0.62    -0.577 OA
DOCKED: ATOM     11  O   UNL d   1       3.723 -17.346  12.000 -0.58 -0.37    -0.577 OA
DOCKED: ATOM     12  O   UNL d   1       6.182 -17.808  11.507 -0.68 -1.21    -0.638 OA
DOCKED: ENDBRANCH   8   9
DOCKED: ENDBRANCH   7   8
DOCKED: ENDBRANCH   1   7
DOCKED: BRANCH   1  13
DOCKED: ATOM     13  C   UNL d   1       7.361 -13.476  12.953 -0.28 +0.08    +0.073 C 
DOCKED: ATOM     14  O   UNL d   1       7.844 -13.921  11.853 -0.17 -1.03    -0.547 OA
DOCKED: ATOM     15  O   UNL d   1       6.880 -12.296  13.110 -0.68 -0.47    -0.547 OA
DOCKED: ENDBRANCH   1  13
DOCKED: TORSDOF 6
DOCKED: TER
DOCKED: ENDMDL
________________________________________________________________________________


	BEGINNING GENETIC ALGORITHM DOCKING 72 of 100
Run: 72 Seed: 1401936370 367935640 [ Run 72 of 100 GA/GALS ]
Beginning LAMARCKIAN GENETIC ALGORITHM (LGA), with a maximum of 25000000 energy evaluations.

Final-Value: -6.899


	FINAL GENETIC ALGORITHM DOCKED STATE
	_______________________________________________


Detailed state:  trans 8.103 13.963 33.792 quatxyzw -0.247364 -0.238975 0.925003 0.161468 center 0.015 0.083 0.031 ntor 6 173.5531 18.8104 -126.9363 20.4576 111.7752 11.8121
State:	  8.103  13.963  33.792  -0.251 -0.242  0.937 161.416    173.55   18.81 -126.94   20.46  111.78   11.81

DOCKED: MODEL       72
DOCKED: USER    Run = 72
DOCKED: USER    DPF = D:/Protein_go_brrr/autodock/final/1A3N/2_3_BPG/dock.dpf
DOCKED: USER  
DOCKED: USER    Estimated Free Energy of Binding    =   -7.49 kcal/mol  [=(1)+(2)+(3)-(4)]
DOCKED: USER    Estimated Inhibition Constant, Ki   =    3.23 uM (micromolar)  [Temperature = 298.15 K]
DOCKED: USER    
DOCKED: USER    (1) Final Intermolecular Energy     =   -9.28 kcal/mol
DOCKED: USER        vdW + Hbond + desolv Energy     =   -3.47 kcal/mol
DOCKED: USER        Electrostatic Energy            =   -5.81 kcal/mol
DOCKED: USER    (2) Final Total Internal Energy     =   +2.38 kcal/mol
DOCKED: USER    (3) Torsional Free Energy           =   +1.79 kcal/mol
DOCKED: USER    (4) Unbound System's Energy  [=(2)] =   +2.38 kcal/mol
DOCKED: USER    
DOCKED: USER    
DOCKED: USER    NEWDPF move 2_3_BPG_opt.pdbqt
DOCKED: USER    NEWDPF about 0.015000 0.083000 0.031000
DOCKED: USER    NEWDPF tran0 8.102748 13.963242 33.792005
DOCKED: USER    NEWDPF quaternion0 -0.247364 -0.238975 0.925003 0.161468
DOCKED: USER    NEWDPF axisangle0 -0.250653 -0.242153 0.937302 161.415754
DOCKED: USER    NEWDPF quat0 -0.250653 -0.242153 0.937302 161.415754
DOCKED: USER    NEWDPF dihe0 173.55 18.81 -126.94 20.46 111.78 11.81 
DOCKED: USER  keepresnum = 1 
DOCKED: USER  
DOCKED: REMARK  6 active torsions:
DOCKED: REMARK  status: ('A' for Active; 'I' for Inactive)
DOCKED: REMARK    1  A    between atoms: P_1  and  O_3 
DOCKED: REMARK    2  A    between atoms: P_2  and  O_4 
DOCKED: REMARK    3  A    between atoms: O_3  and  C_13 
DOCKED: REMARK    4  A    between atoms: O_4  and  C_14 
DOCKED: REMARK    5  A    between atoms: C_13  and  C_14 
DOCKED: REMARK    6  A    between atoms: C_13  and  C_15 
DOCKED: USER                              x       y       z     vdW  Elec       q    Type
DOCKED: USER                           _______ _______ _______ _____ _____    ______ ____
DOCKED: ROOT
DOCKED: ATOM      1  C   UNL d   1       8.421  14.281  34.289 -0.13 +0.16    +0.193 C 
DOCKED: ENDROOT
DOCKED: BRANCH   1   2
DOCKED: ATOM      2  O   UNL d   1       9.865  14.140  34.071 -0.11 -0.24    -0.356 OA
DOCKED: BRANCH   2   3
DOCKED: ATOM      3  P   UNL d   1      10.844  13.251  35.048 -0.23 -0.02    -0.014 P 
DOCKED: ATOM      4  O   UNL d   1      12.266  13.696  34.674 -0.32 -0.86    -0.577 OA
DOCKED: ATOM      5  O   UNL d   1      10.608  11.781  34.707 -0.47 -0.75    -0.577 OA
DOCKED: ATOM      6  O   UNL d   1      10.510  13.601  36.494 -0.01 -0.55    -0.638 OA
DOCKED: ENDBRANCH   2   3
DOCKED: ENDBRANCH   1   2
DOCKED: BRANCH   1   7
DOCKED: ATOM      7  C   UNL d   1       7.666  13.802  32.995 -0.20 +0.14    +0.201 C 
DOCKED: BRANCH   7   8
DOCKED: ATOM      8  O   UNL d   1       6.230  13.689  33.108 -0.30 -0.36    -0.364 OA
DOCKED: BRANCH   8   9
DOCKED: ATOM      9  P   UNL d   1       5.563  12.570  34.128 -0.28 -0.02    -0.015 P 
DOCKED: ATOM     10  O   UNL d   1       6.182  12.863  35.500 -0.16 -0.93    -0.577 OA
DOCKED: ATOM     11  O   UNL d   1       5.966  11.192  33.602 -0.09 -0.28    -0.577 OA
DOCKED: ATOM     12  O   UNL d   1       4.052  12.796  34.120 -0.51 -0.89    -0.638 OA
DOCKED: ENDBRANCH   8   9
DOCKED: ENDBRANCH   7   8
DOCKED: ENDBRANCH   1   7
DOCKED: BRANCH   1  13
DOCKED: ATOM     13  C   UNL d   1       8.059  15.789  34.555 -0.15 +0.07    +0.073 C 
DOCKED: ATOM     14  O   UNL d   1       7.294  16.070  35.543 -0.48 -0.95    -0.547 OA
DOCKED: ATOM     15  O   UNL d   1       8.612  16.664  33.794 -0.03 -0.32    -0.547 OA
DOCKED: ENDBRANCH   1  13
DOCKED: TORSDOF 6
DOCKED: TER
DOCKED: ENDMDL
________________________________________________________________________________


	BEGINNING GENETIC ALGORITHM DOCKING 73 of 100
Run: 73 Seed: 927395752 1068956685 [ Run 73 of 100 GA/GALS ]
Beginning LAMARCKIAN GENETIC ALGORITHM (LGA), with a maximum of 25000000 energy evaluations.

Final-Value: -7.486


	FINAL GENETIC ALGORITHM DOCKED STATE
	_______________________________________________


Detailed state:  trans -5.975 12.381 36.567 quatxyzw -0.473596 -0.364525 -0.023437 -0.801423 center 0.015 0.083 0.031 ntor 6 103.2532 -48.4140 -18.5066 23.2767 -55.8316 -108.1664
State:	 -5.975  12.381  36.567  -0.792 -0.609 -0.039 -73.468    103.25  -48.41  -18.51   23.28  -55.83 -108.17

DOCKED: MODEL       73
DOCKED: USER    Run = 73
DOCKED: USER    DPF = D:/Protein_go_brrr/autodock/final/1A3N/2_3_BPG/dock.dpf
DOCKED: USER  
DOCKED: USER    Estimated Free Energy of Binding    =   -7.91 kcal/mol  [=(1)+(2)+(3)-(4)]
DOCKED: USER    Estimated Inhibition Constant, Ki   =    1.60 uM (micromolar)  [Temperature = 298.15 K]
DOCKED: USER    
DOCKED: USER    (1) Final Intermolecular Energy     =   -9.70 kcal/mol
DOCKED: USER        vdW + Hbond + desolv Energy     =   -3.57 kcal/mol
DOCKED: USER        Electrostatic Energy            =   -6.12 kcal/mol
DOCKED: USER    (2) Final Total Internal Energy     =   +2.21 kcal/mol
DOCKED: USER    (3) Torsional Free Energy           =   +1.79 kcal/mol
DOCKED: USER    (4) Unbound System's Energy  [=(2)] =   +2.21 kcal/mol
DOCKED: USER    
DOCKED: USER    
DOCKED: USER    NEWDPF move 2_3_BPG_opt.pdbqt
DOCKED: USER    NEWDPF about 0.015000 0.083000 0.031000
DOCKED: USER    NEWDPF tran0 -5.974993 12.381046 36.566693
DOCKED: USER    NEWDPF quaternion0 -0.473596 -0.364525 -0.023437 -0.801423
DOCKED: USER    NEWDPF axisangle0 -0.791837 -0.609474 -0.039186 -73.467507
DOCKED: USER    NEWDPF quat0 -0.791837 -0.609474 -0.039186 -73.467507
DOCKED: USER    NEWDPF dihe0 103.25 -48.41 -18.51 23.28 -55.83 -108.17 
DOCKED: USER  keepresnum = 1 
DOCKED: USER  
DOCKED: REMARK  6 active torsions:
DOCKED: REMARK  status: ('A' for Active; 'I' for Inactive)
DOCKED: REMARK    1  A    between atoms: P_1  and  O_3 
DOCKED: REMARK    2  A    between atoms: P_2  and  O_4 
DOCKED: REMARK    3  A    between atoms: O_3  and  C_13 
DOCKED: REMARK    4  A    between atoms: O_4  and  C_14 
DOCKED: REMARK    5  A    between atoms: C_13  and  C_14 
DOCKED: REMARK    6  A    between atoms: C_13  and  C_15 
DOCKED: USER                              x       y       z     vdW  Elec       q    Type
DOCKED: USER                           _______ _______ _______ _____ _____    ______ ____
DOCKED: ROOT
DOCKED: ATOM      1  C   UNL d   1      -6.576  12.101  36.469 -0.19 +0.18    +0.193 C 
DOCKED: ENDROOT
DOCKED: BRANCH   1   2
DOCKED: ATOM      2  O   UNL d   1      -6.679  11.718  35.057 +0.00 -0.44    -0.356 OA
DOCKED: BRANCH   2   3
DOCKED: ATOM      3  P   UNL d   1      -7.654  12.490  33.981 -0.30 -0.02    -0.014 P 
DOCKED: ATOM      4  O   UNL d   1      -6.724  12.848  32.810 -0.27 -0.72    -0.577 OA
DOCKED: ATOM      5  O   UNL d   1      -8.192  13.741  34.673 -0.39 -0.83    -0.577 OA
DOCKED: ATOM      6  O   UNL d   1      -8.746  11.516  33.551 -0.55 -1.06    -0.638 OA
DOCKED: ENDBRANCH   2   3
DOCKED: ENDBRANCH   1   2
DOCKED: BRANCH   1   7
DOCKED: ATOM      7  C   UNL d   1      -5.083  12.487  36.780 -0.26 +0.15    +0.201 C 
DOCKED: BRANCH   7   8
DOCKED: ATOM      8  O   UNL d   1      -4.481  13.449  35.887 -0.23 -0.44    -0.364 OA
DOCKED: BRANCH   8   9
DOCKED: ATOM      9  P   UNL d   1      -3.756  14.806  36.495 -0.19 -0.02    -0.015 P 
DOCKED: ATOM     10  O   UNL d   1      -2.896  15.348  35.346 -0.20 -0.69    -0.577 OA
DOCKED: ATOM     11  O   UNL d   1      -2.906  14.362  37.685 +0.00 -0.32    -0.577 OA
DOCKED: ATOM     12  O   UNL d   1      -4.870  15.777  36.885 -0.51 -0.97    -0.638 OA
DOCKED: ENDBRANCH   8   9
DOCKED: ENDBRANCH   7   8
DOCKED: ENDBRANCH   1   7
DOCKED: BRANCH   1  13
DOCKED: ATOM     13  C   UNL d   1      -6.986  10.890  37.388 -0.22 +0.06    +0.073 C 
DOCKED: ATOM     14  O   UNL d   1      -6.551  10.862  38.592 -0.02 -0.27    -0.547 OA
DOCKED: ATOM     15  O   UNL d   1      -7.794  10.027  36.888 -0.25 -0.74    -0.547 OA
DOCKED: ENDBRANCH   1  13
DOCKED: TORSDOF 6
DOCKED: TER
DOCKED: ENDMDL
________________________________________________________________________________


	BEGINNING GENETIC ALGORITHM DOCKING 74 of 100
Run: 74 Seed: 364001823 1957699840 [ Run 74 of 100 GA/GALS ]
Beginning LAMARCKIAN GENETIC ALGORITHM (LGA), with a maximum of 25000000 energy evaluations.

Final-Value: -7.254


	FINAL GENETIC ALGORITHM DOCKED STATE
	_______________________________________________


Detailed state:  trans 6.719 -14.725 13.951 quatxyzw 0.560337 -0.060457 -0.826029 0.006573 center 0.015 0.083 0.031 ntor 6 92.0467 -27.2388 169.0151 -172.3610 -24.8387 -91.4016
State:	  6.719 -14.725  13.951   0.560 -0.060 -0.826 179.247     92.05  -27.24  169.02 -172.36  -24.84  -91.40

DOCKED: MODEL       74
DOCKED: USER    Run = 74
DOCKED: USER    DPF = D:/Protein_go_brrr/autodock/final/1A3N/2_3_BPG/dock.dpf
DOCKED: USER  
DOCKED: USER    Estimated Free Energy of Binding    =   -7.95 kcal/mol  [=(1)+(2)+(3)-(4)]
DOCKED: USER    Estimated Inhibition Constant, Ki   =    1.48 uM (micromolar)  [Temperature = 298.15 K]
DOCKED: USER    
DOCKED: USER    (1) Final Intermolecular Energy     =   -9.74 kcal/mol
DOCKED: USER        vdW + Hbond + desolv Energy     =   -3.77 kcal/mol
DOCKED: USER        Electrostatic Energy            =   -5.97 kcal/mol
DOCKED: USER    (2) Final Total Internal Energy     =   +2.49 kcal/mol
DOCKED: USER    (3) Torsional Free Energy           =   +1.79 kcal/mol
DOCKED: USER    (4) Unbound System's Energy  [=(2)] =   +2.49 kcal/mol
DOCKED: USER    
DOCKED: USER    
DOCKED: USER    NEWDPF move 2_3_BPG_opt.pdbqt
DOCKED: USER    NEWDPF about 0.015000 0.083000 0.031000
DOCKED: USER    NEWDPF tran0 6.719416 -14.725034 13.950806
DOCKED: USER    NEWDPF quaternion0 0.560337 -0.060457 -0.826029 0.006573
DOCKED: USER    NEWDPF axisangle0 0.560349 -0.060458 -0.826047 179.246769
DOCKED: USER    NEWDPF quat0 0.560349 -0.060458 -0.826047 179.246769
DOCKED: USER    NEWDPF dihe0 92.05 -27.24 169.02 -172.36 -24.84 -91.40 
DOCKED: USER  keepresnum = 1 
DOCKED: USER  
DOCKED: REMARK  6 active torsions:
DOCKED: REMARK  status: ('A' for Active; 'I' for Inactive)
DOCKED: REMARK    1  A    between atoms: P_1  and  O_3 
DOCKED: REMARK    2  A    between atoms: P_2  and  O_4 
DOCKED: REMARK    3  A    between atoms: O_3  and  C_13 
DOCKED: REMARK    4  A    between atoms: O_4  and  C_14 
DOCKED: REMARK    5  A    between atoms: C_13  and  C_14 
DOCKED: REMARK    6  A    between atoms: C_13  and  C_15 
DOCKED: USER                              x       y       z     vdW  Elec       q    Type
DOCKED: USER                           _______ _______ _______ _____ _____    ______ ____
DOCKED: ROOT
DOCKED: ATOM      1  C   UNL d   1       6.876 -14.372  14.499 -0.07 +0.16    +0.193 C 
DOCKED: ENDROOT
DOCKED: BRANCH   1   2
DOCKED: ATOM      2  O   UNL d   1       7.798 -15.173  15.311 -0.01 -0.31    -0.356 OA
DOCKED: BRANCH   2   3
DOCKED: ATOM      3  P   UNL d   1       9.213 -15.783  14.734 -0.06 -0.02    -0.014 P 
DOCKED: ATOM      4  O   UNL d   1      10.147 -15.802  15.954 -0.06 -0.69    -0.577 OA
DOCKED: ATOM      5  O   UNL d   1       9.714 -14.822  13.658 -0.41 -0.92    -0.577 OA
DOCKED: ATOM      6  O   UNL d   1       8.942 -17.191  14.214 -0.28 -1.01    -0.638 OA
DOCKED: ENDBRANCH   2   3
DOCKED: ENDBRANCH   1   2
DOCKED: BRANCH   1   7
DOCKED: ATOM      7  C   UNL d   1       6.728 -15.049  13.086 -0.03 +0.30    +0.201 C 
DOCKED: BRANCH   7   8
DOCKED: ATOM      8  O   UNL d   1       6.048 -16.323  13.066 -0.11 -0.48    -0.364 OA
DOCKED: BRANCH   8   9
DOCKED: ATOM      9  P   UNL d   1       5.358 -16.874  11.667 -0.48 -0.02    -0.015 P 
DOCKED: ATOM     10  O   UNL d   1       5.440 -15.694  10.691 -0.19 -0.73    -0.577 OA
DOCKED: ATOM     11  O   UNL d   1       3.912 -17.241  11.998 -0.53 -0.38    -0.577 OA
DOCKED: ATOM     12  O   UNL d   1       6.186 -18.068  11.195 -0.77 -1.12    -0.638 OA
DOCKED: ENDBRANCH   8   9
DOCKED: ENDBRANCH   7   8
DOCKED: ENDBRANCH   1   7
DOCKED: BRANCH   1  13
DOCKED: ATOM     13  C   UNL d   1       7.451 -12.919  14.304 -0.16 +0.05    +0.073 C 
DOCKED: ATOM     14  O   UNL d   1       7.226 -12.317  13.196 -0.62 -0.50    -0.547 OA
DOCKED: ATOM     15  O   UNL d   1       8.064 -12.397  15.304 +0.01 -0.31    -0.547 OA
DOCKED: ENDBRANCH   1  13
DOCKED: TORSDOF 6
DOCKED: TER
DOCKED: ENDMDL
________________________________________________________________________________


	BEGINNING GENETIC ALGORITHM DOCKING 75 of 100
Run: 75 Seed: 1819734787 1965818225 [ Run 75 of 100 GA/GALS ]
Beginning LAMARCKIAN GENETIC ALGORITHM (LGA), with a maximum of 25000000 energy evaluations.

Final-Value: -7.673


	FINAL GENETIC ALGORITHM DOCKED STATE
	_______________________________________________


Detailed state:  trans 7.610 -14.938 13.593 quatxyzw -0.924605 -0.105210 -0.365583 -0.019639 center 0.015 0.083 0.031 ntor 6 -20.5158 173.6093 -60.7452 -7.1752 31.0902 -56.3663
State:	  7.610 -14.938  13.593  -0.925 -0.105 -0.366 -177.749    -20.52  173.61  -60.75   -7.18   31.09  -56.37

DOCKED: MODEL       75
DOCKED: USER    Run = 75
DOCKED: USER    DPF = D:/Protein_go_brrr/autodock/final/1A3N/2_3_BPG/dock.dpf
DOCKED: USER  
DOCKED: USER    Estimated Free Energy of Binding    =   -7.96 kcal/mol  [=(1)+(2)+(3)-(4)]
DOCKED: USER    Estimated Inhibition Constant, Ki   =    1.47 uM (micromolar)  [Temperature = 298.15 K]
DOCKED: USER    
DOCKED: USER    (1) Final Intermolecular Energy     =   -9.75 kcal/mol
DOCKED: USER        vdW + Hbond + desolv Energy     =   -3.57 kcal/mol
DOCKED: USER        Electrostatic Energy            =   -6.17 kcal/mol
DOCKED: USER    (2) Final Total Internal Energy     =   +2.07 kcal/mol
DOCKED: USER    (3) Torsional Free Energy           =   +1.79 kcal/mol
DOCKED: USER    (4) Unbound System's Energy  [=(2)] =   +2.07 kcal/mol
DOCKED: USER    
DOCKED: USER    
DOCKED: USER    NEWDPF move 2_3_BPG_opt.pdbqt
DOCKED: USER    NEWDPF about 0.015000 0.083000 0.031000
DOCKED: USER    NEWDPF tran0 7.610336 -14.937995 13.592632
DOCKED: USER    NEWDPF quaternion0 -0.924605 -0.105210 -0.365583 -0.019639
DOCKED: USER    NEWDPF axisangle0 -0.924783 -0.105231 -0.365653 -177.749378
DOCKED: USER    NEWDPF quat0 -0.924783 -0.105231 -0.365653 -177.749378
DOCKED: USER    NEWDPF dihe0 -20.52 173.61 -60.75 -7.18 31.09 -56.37 
DOCKED: USER  keepresnum = 1 
DOCKED: USER  
DOCKED: REMARK  6 active torsions:
DOCKED: REMARK  status: ('A' for Active; 'I' for Inactive)
DOCKED: REMARK    1  A    between atoms: P_1  and  O_3 
DOCKED: REMARK    2  A    between atoms: P_2  and  O_4 
DOCKED: REMARK    3  A    between atoms: O_3  and  C_13 
DOCKED: REMARK    4  A    between atoms: O_4  and  C_14 
DOCKED: REMARK    5  A    between atoms: C_13  and  C_14 
DOCKED: REMARK    6  A    between atoms: C_13  and  C_15 
DOCKED: USER                              x       y       z     vdW  Elec       q    Type
DOCKED: USER                           _______ _______ _______ _____ _____    ______ ____
DOCKED: ROOT
DOCKED: ATOM      1  C   UNL d   1       7.191 -14.728  13.113 +0.14 +0.31    +0.193 C 
DOCKED: ENDROOT
DOCKED: BRANCH   1   2
DOCKED: ATOM      2  O   UNL d   1       6.180 -15.770  12.902 -0.08 -0.50    -0.356 OA
DOCKED: BRANCH   2   3
DOCKED: ATOM      3  P   UNL d   1       5.625 -16.201  11.415 -0.43 -0.02    -0.014 P 
DOCKED: ATOM      4  O   UNL d   1       6.184 -15.126  10.471 -0.33 -0.90    -0.577 OA
DOCKED: ATOM      5  O   UNL d   1       4.099 -16.161  11.473 -0.06 -0.43    -0.577 OA
DOCKED: ATOM      6  O   UNL d   1       6.185 -17.581  11.086 -0.65 -1.31    -0.638 OA
DOCKED: ENDBRANCH   2   3
DOCKED: ENDBRANCH   1   2
DOCKED: BRANCH   1   7
DOCKED: ATOM      7  C   UNL d   1       8.000 -15.067  14.419 -0.04 +0.25    +0.201 C 
DOCKED: BRANCH   7   8
DOCKED: ATOM      8  O   UNL d   1       9.317 -15.626  14.218 -0.62 -0.59    -0.364 OA
DOCKED: BRANCH   8   9
DOCKED: ATOM      9  P   UNL d   1       9.913 -16.748  15.278 -0.11 -0.02    -0.015 P 
DOCKED: ATOM     10  O   UNL d   1      10.209 -17.986  14.424 -0.03 -0.66    -0.577 OA
DOCKED: ATOM     11  O   UNL d   1       8.816 -17.015  16.309 +0.02 -0.56    -0.577 OA
DOCKED: ATOM     12  O   UNL d   1      11.181 -16.158  15.894 -0.49 -0.97    -0.638 OA
DOCKED: ENDBRANCH   8   9
DOCKED: ENDBRANCH   7   8
DOCKED: ENDBRANCH   1   7
DOCKED: BRANCH   1  13
DOCKED: ATOM     13  C   UNL d   1       6.494 -13.329  13.300 -0.27 +0.06    +0.073 C 
DOCKED: ATOM     14  O   UNL d   1       5.351 -13.288  13.878 +0.01 -0.30    -0.547 OA
DOCKED: ATOM     15  O   UNL d   1       7.150 -12.295  12.915 -0.62 -0.51    -0.547 OA
DOCKED: ENDBRANCH   1  13
DOCKED: TORSDOF 6
DOCKED: TER
DOCKED: ENDMDL
________________________________________________________________________________


	BEGINNING GENETIC ALGORITHM DOCKING 76 of 100
Run: 76 Seed: 650849626 1452722926 [ Run 76 of 100 GA/GALS ]
Beginning LAMARCKIAN GENETIC ALGORITHM (LGA), with a maximum of 25000000 energy evaluations.

Final-Value: -7.291


	FINAL GENETIC ALGORITHM DOCKED STATE
	_______________________________________________


Detailed state:  trans -7.298 12.340 36.246 quatxyzw 0.657219 0.206386 0.304297 -0.657930 center 0.015 0.083 0.031 ntor 6 87.1747 46.2863 4.5145 33.4214 2.3887 17.3001
State:	 -7.298  12.340  36.246   0.873  0.274  0.404 -97.716     87.17   46.29    4.51   33.42    2.39   17.30

DOCKED: MODEL       76
DOCKED: USER    Run = 76
DOCKED: USER    DPF = D:/Protein_go_brrr/autodock/final/1A3N/2_3_BPG/dock.dpf
DOCKED: USER  
DOCKED: USER    Estimated Free Energy of Binding    =   -7.60 kcal/mol  [=(1)+(2)+(3)-(4)]
DOCKED: USER    Estimated Inhibition Constant, Ki   =    2.69 uM (micromolar)  [Temperature = 298.15 K]
DOCKED: USER    
DOCKED: USER    (1) Final Intermolecular Energy     =   -9.39 kcal/mol
DOCKED: USER        vdW + Hbond + desolv Energy     =   -3.06 kcal/mol
DOCKED: USER        Electrostatic Energy            =   -6.33 kcal/mol
DOCKED: USER    (2) Final Total Internal Energy     =   +2.10 kcal/mol
DOCKED: USER    (3) Torsional Free Energy           =   +1.79 kcal/mol
DOCKED: USER    (4) Unbound System's Energy  [=(2)] =   +2.10 kcal/mol
DOCKED: USER    
DOCKED: USER    
DOCKED: USER    NEWDPF move 2_3_BPG_opt.pdbqt
DOCKED: USER    NEWDPF about 0.015000 0.083000 0.031000
DOCKED: USER    NEWDPF tran0 -7.297954 12.339896 36.245931
DOCKED: USER    NEWDPF quaternion0 0.657219 0.206386 0.304297 -0.657930
DOCKED: USER    NEWDPF axisangle0 0.872709 0.274056 0.404070 -97.715688
DOCKED: USER    NEWDPF quat0 0.872709 0.274056 0.404070 -97.715688
DOCKED: USER    NEWDPF dihe0 87.17 46.29 4.51 33.42 2.39 17.30 
DOCKED: USER  keepresnum = 1 
DOCKED: USER  
DOCKED: REMARK  6 active torsions:
DOCKED: REMARK  status: ('A' for Active; 'I' for Inactive)
DOCKED: REMARK    1  A    between atoms: P_1  and  O_3 
DOCKED: REMARK    2  A    between atoms: P_2  and  O_4 
DOCKED: REMARK    3  A    between atoms: O_3  and  C_13 
DOCKED: REMARK    4  A    between atoms: O_4  and  C_14 
DOCKED: REMARK    5  A    between atoms: C_13  and  C_14 
DOCKED: REMARK    6  A    between atoms: C_13  and  C_15 
DOCKED: USER                              x       y       z     vdW  Elec       q    Type
DOCKED: USER                           _______ _______ _______ _____ _____    ______ ____
DOCKED: ROOT
DOCKED: ATOM      1  C   UNL d   1      -7.623  11.893  35.866 -0.13 +0.22    +0.193 C 
DOCKED: ENDROOT
DOCKED: BRANCH   1   2
DOCKED: ATOM      2  O   UNL d   1      -8.924  11.624  36.489 -0.07 -0.38    -0.356 OA
DOCKED: BRANCH   2   3
DOCKED: ATOM      3  P   UNL d   1      -9.218  10.310  37.434 -0.10 -0.01    -0.014 P 
DOCKED: ATOM      4  O   UNL d   1     -10.606   9.822  36.989 -0.16 -0.66    -0.577 OA
DOCKED: ATOM      5  O   UNL d   1      -9.229  10.789  38.884 +0.01 -0.27    -0.577 OA
DOCKED: ATOM      6  O   UNL d   1      -8.140   9.271  37.145 -0.42 -0.98    -0.638 OA
DOCKED: ENDBRANCH   2   3
DOCKED: ENDBRANCH   1   2
DOCKED: BRANCH   1   7
DOCKED: ATOM      7  C   UNL d   1      -6.974  13.141  36.571 -0.11 +0.21    +0.201 C 
DOCKED: BRANCH   7   8
DOCKED: ATOM      8  O   UNL d   1      -5.648  13.499  36.123 -0.14 -0.53    -0.364 OA
DOCKED: BRANCH   8   9
DOCKED: ATOM      9  P   UNL d   1      -4.814  14.709  36.884 +0.01 -0.02    -0.015 P 
DOCKED: ATOM     10  O   UNL d   1      -3.551  14.914  36.039 -0.34 -0.77    -0.577 OA
DOCKED: ATOM     11  O   UNL d   1      -4.485  14.207  38.290 +0.02 -0.32    -0.577 OA
DOCKED: ATOM     12  O   UNL d   1      -5.712  15.945  36.884 -0.26 -1.03    -0.638 OA
DOCKED: ENDBRANCH   8   9
DOCKED: ENDBRANCH   7   8
DOCKED: ENDBRANCH   1   7
DOCKED: BRANCH   1  13
DOCKED: ATOM     13  C   UNL d   1      -7.813  12.219  34.338 -0.21 +0.10    +0.073 C 
DOCKED: ATOM     14  O   UNL d   1      -7.093  13.140  33.815 -0.61 -0.95    -0.547 OA
DOCKED: ATOM     15  O   UNL d   1      -8.645  11.490  33.686 -0.55 -0.93    -0.547 OA
DOCKED: ENDBRANCH   1  13
DOCKED: TORSDOF 6
DOCKED: TER
DOCKED: ENDMDL
________________________________________________________________________________


	BEGINNING GENETIC ALGORITHM DOCKING 77 of 100
Run: 77 Seed: 10611900 1479948887 [ Run 77 of 100 GA/GALS ]
Beginning LAMARCKIAN GENETIC ALGORITHM (LGA), with a maximum of 25000000 energy evaluations.

Final-Value: -7.430


	FINAL GENETIC ALGORITHM DOCKED STATE
	_______________________________________________


Detailed state:  trans 9.525 -14.508 14.661 quatxyzw 0.005865 0.907714 0.129896 -0.398934 center 0.015 0.083 0.031 ntor 6 -63.7475 52.3363 -101.8669 -24.3085 -23.4810 -15.5221
State:	  9.525 -14.508  14.661   0.006  0.990  0.142 -132.977    -63.75   52.34 -101.87  -24.31  -23.48  -15.52

DOCKED: MODEL       77
DOCKED: USER    Run = 77
DOCKED: USER    DPF = D:/Protein_go_brrr/autodock/final/1A3N/2_3_BPG/dock.dpf
DOCKED: USER  
DOCKED: USER    Estimated Free Energy of Binding    =   -8.05 kcal/mol  [=(1)+(2)+(3)-(4)]
DOCKED: USER    Estimated Inhibition Constant, Ki   =    1.25 uM (micromolar)  [Temperature = 298.15 K]
DOCKED: USER    
DOCKED: USER    (1) Final Intermolecular Energy     =   -9.84 kcal/mol
DOCKED: USER        vdW + Hbond + desolv Energy     =   -2.60 kcal/mol
DOCKED: USER        Electrostatic Energy            =   -7.25 kcal/mol
DOCKED: USER    (2) Final Total Internal Energy     =   +2.41 kcal/mol
DOCKED: USER    (3) Torsional Free Energy           =   +1.79 kcal/mol
DOCKED: USER    (4) Unbound System's Energy  [=(2)] =   +2.41 kcal/mol
DOCKED: USER    
DOCKED: USER    
DOCKED: USER    NEWDPF move 2_3_BPG_opt.pdbqt
DOCKED: USER    NEWDPF about 0.015000 0.083000 0.031000
DOCKED: USER    NEWDPF tran0 9.524771 -14.507953 14.660869
DOCKED: USER    NEWDPF quaternion0 0.005865 0.907714 0.129896 -0.398934
DOCKED: USER    NEWDPF axisangle0 0.006396 0.989895 0.141656 -132.976929
DOCKED: USER    NEWDPF quat0 0.006396 0.989895 0.141656 -132.976929
DOCKED: USER    NEWDPF dihe0 -63.75 52.34 -101.87 -24.31 -23.48 -15.52 
DOCKED: USER  keepresnum = 1 
DOCKED: USER  
DOCKED: REMARK  6 active torsions:
DOCKED: REMARK  status: ('A' for Active; 'I' for Inactive)
DOCKED: REMARK    1  A    between atoms: P_1  and  O_3 
DOCKED: REMARK    2  A    between atoms: P_2  and  O_4 
DOCKED: REMARK    3  A    between atoms: O_3  and  C_13 
DOCKED: REMARK    4  A    between atoms: O_4  and  C_14 
DOCKED: REMARK    5  A    between atoms: C_13  and  C_14 
DOCKED: REMARK    6  A    between atoms: C_13  and  C_15 
DOCKED: USER                              x       y       z     vdW  Elec       q    Type
DOCKED: USER                           _______ _______ _______ _____ _____    ______ ____
DOCKED: ROOT
DOCKED: ATOM      1  C   UNL d   1      10.021 -14.855  14.949 -0.04 +0.20    +0.193 C 
DOCKED: ENDROOT
DOCKED: BRANCH   1   2
DOCKED: ATOM      2  O   UNL d   1      10.196 -14.352  16.316 -0.02 -0.32    -0.356 OA
DOCKED: BRANCH   2   3
DOCKED: ATOM      3  P   UNL d   1      11.597 -14.507  17.163 -0.13 -0.02    -0.014 P 
DOCKED: ATOM      4  O   UNL d   1      11.160 -15.050  18.532 +0.06 -1.06    -0.577 OA
DOCKED: ATOM      5  O   UNL d   1      12.210 -13.113  17.281 +0.01 -0.42    -0.577 OA
DOCKED: ATOM      6  O   UNL d   1      12.487 -15.501  16.423 -0.45 -1.05    -0.638 OA
DOCKED: ENDBRANCH   2   3
DOCKED: ENDBRANCH   1   2
DOCKED: BRANCH   1   7
DOCKED: ATOM      7  C   UNL d   1       8.686 -14.265  14.361 -0.06 +0.22    +0.201 C 
DOCKED: BRANCH   7   8
DOCKED: ATOM      8  O   UNL d   1       8.707 -13.939  12.954 -0.20 -0.56    -0.364 OA
DOCKED: BRANCH   8   9
DOCKED: ATOM      9  P   UNL d   1       7.289 -13.801  12.113 -0.29 -0.02    -0.015 P 
DOCKED: ATOM     10  O   UNL d   1       6.763 -12.400  12.445 -0.53 -0.52    -0.577 OA
DOCKED: ATOM     11  O   UNL d   1       6.357 -14.898  12.628 +0.02 -0.80    -0.577 OA
DOCKED: ATOM     12  O   UNL d   1       7.627 -13.952  10.630 -0.56 -1.19    -0.638 OA
DOCKED: ENDBRANCH   8   9
DOCKED: ENDBRANCH   7   8
DOCKED: ENDBRANCH   1   7
DOCKED: BRANCH   1  13
DOCKED: ATOM     13  C   UNL d   1       9.915 -16.426  14.961 -0.08 +0.09    +0.073 C 
DOCKED: ATOM     14  O   UNL d   1      10.183 -17.048  16.048 -0.09 -0.76    -0.547 OA
DOCKED: ATOM     15  O   UNL d   1       9.501 -16.990  13.884 -0.25 -1.05    -0.547 OA
DOCKED: ENDBRANCH   1  13
DOCKED: TORSDOF 6
DOCKED: TER
DOCKED: ENDMDL
________________________________________________________________________________


	BEGINNING GENETIC ALGORITHM DOCKING 78 of 100
Run: 78 Seed: 718125603 854457157 [ Run 78 of 100 GA/GALS ]
Beginning LAMARCKIAN GENETIC ALGORITHM (LGA), with a maximum of 25000000 energy evaluations.

Final-Value: -8.345


	FINAL GENETIC ALGORITHM DOCKED STATE
	_______________________________________________


Detailed state:  trans 5.336 -16.378 11.230 quatxyzw -0.678192 -0.690885 0.249730 -0.019200 center 0.015 0.083 0.031 ntor 6 8.5322 -159.3815 52.2922 3.8059 -38.0844 145.7651
State:	  5.336 -16.378  11.230  -0.678 -0.691  0.250 -177.800      8.53 -159.38   52.29    3.81  -38.08  145.77

DOCKED: MODEL       78
DOCKED: USER    Run = 78
DOCKED: USER    DPF = D:/Protein_go_brrr/autodock/final/1A3N/2_3_BPG/dock.dpf
DOCKED: USER  
DOCKED: USER    Estimated Free Energy of Binding    =   -8.82 kcal/mol  [=(1)+(2)+(3)-(4)]
DOCKED: USER    Estimated Inhibition Constant, Ki   =  342.81 nM (nanomolar)  [Temperature = 298.15 K]
DOCKED: USER    
DOCKED: USER    (1) Final Intermolecular Energy     =  -10.61 kcal/mol
DOCKED: USER        vdW + Hbond + desolv Energy     =   -4.96 kcal/mol
DOCKED: USER        Electrostatic Energy            =   -5.65 kcal/mol
DOCKED: USER    (2) Final Total Internal Energy     =   +2.26 kcal/mol
DOCKED: USER    (3) Torsional Free Energy           =   +1.79 kcal/mol
DOCKED: USER    (4) Unbound System's Energy  [=(2)] =   +2.26 kcal/mol
DOCKED: USER    
DOCKED: USER    
DOCKED: USER    NEWDPF move 2_3_BPG_opt.pdbqt
DOCKED: USER    NEWDPF about 0.015000 0.083000 0.031000
DOCKED: USER    NEWDPF tran0 5.335666 -16.378116 11.230491
DOCKED: USER    NEWDPF quaternion0 -0.678192 -0.690885 0.249730 -0.019200
DOCKED: USER    NEWDPF axisangle0 -0.678317 -0.691012 0.249776 -177.799692
DOCKED: USER    NEWDPF quat0 -0.678317 -0.691012 0.249776 -177.799692
DOCKED: USER    NEWDPF dihe0 8.53 -159.38 52.29 3.81 -38.08 145.77 
DOCKED: USER  keepresnum = 1 
DOCKED: USER  
DOCKED: REMARK  6 active torsions:
DOCKED: REMARK  status: ('A' for Active; 'I' for Inactive)
DOCKED: REMARK    1  A    between atoms: P_1  and  O_3 
DOCKED: REMARK    2  A    between atoms: P_2  and  O_4 
DOCKED: REMARK    3  A    between atoms: O_3  and  C_13 
DOCKED: REMARK    4  A    between atoms: O_4  and  C_14 
DOCKED: REMARK    5  A    between atoms: C_13  and  C_14 
DOCKED: REMARK    6  A    between atoms: C_13  and  C_15 
DOCKED: USER                              x       y       z     vdW  Elec       q    Type
DOCKED: USER                           _______ _______ _______ _____ _____    ______ ____
DOCKED: ROOT
DOCKED: ATOM      1  C   UNL d   1       5.059 -16.949  11.448 -0.41 +0.22    +0.193 C 
DOCKED: ENDROOT
DOCKED: BRANCH   1   2
DOCKED: ATOM      2  O   UNL d   1       6.117 -17.773  12.042 -0.68 -0.60    -0.356 OA
DOCKED: BRANCH   2   3
DOCKED: ATOM      3  P   UNL d   1       6.377 -19.344  11.629 -0.41 -0.01    -0.014 P 
DOCKED: ATOM      4  O   UNL d   1       5.623 -19.520  10.302 -0.44 -0.55    -0.577 OA
DOCKED: ATOM      5  O   UNL d   1       5.777 -20.208  12.736 -0.02 -0.25    -0.577 OA
DOCKED: ATOM      6  O   UNL d   1       7.879 -19.541  11.450 -0.09 -0.82    -0.638 OA
DOCKED: ENDBRANCH   2   3
DOCKED: ENDBRANCH   1   2
DOCKED: BRANCH   1   7
DOCKED: ATOM      7  C   UNL d   1       5.625 -15.502  11.199 -0.40 +0.27    +0.201 C 
DOCKED: BRANCH   7   8
DOCKED: ATOM      8  O   UNL d   1       6.197 -14.843  12.350 -0.13 -0.49    -0.364 OA
DOCKED: BRANCH   8   9
DOCKED: ATOM      9  P   UNL d   1       7.505 -13.845  12.170 -0.10 -0.02    -0.015 P 
DOCKED: ATOM     10  O   UNL d   1       8.558 -14.388  13.143 -0.12 -1.06    -0.577 OA
DOCKED: ATOM     11  O   UNL d   1       7.047 -12.437  12.552 -0.52 -0.56    -0.577 OA
DOCKED: ATOM     12  O   UNL d   1       7.957 -13.953  10.715 -0.49 -1.31    -0.638 OA
DOCKED: ENDBRANCH   8   9
DOCKED: ENDBRANCH   7   8
DOCKED: ENDBRANCH   1   7
DOCKED: BRANCH   1  13
DOCKED: ATOM     13  C   UNL d   1       3.835 -16.849  12.434 -0.43 +0.04    +0.073 C 
DOCKED: ATOM     14  O   UNL d   1       4.015 -16.299  13.577 -0.02 -0.23    -0.547 OA
DOCKED: ATOM     15  O   UNL d   1       2.703 -17.273  12.002 -0.69 -0.26    -0.547 OA
DOCKED: ENDBRANCH   1  13
DOCKED: TORSDOF 6
DOCKED: TER
DOCKED: ENDMDL
________________________________________________________________________________


	BEGINNING GENETIC ALGORITHM DOCKING 79 of 100
Run: 79 Seed: 1978914682 146451361 [ Run 79 of 100 GA/GALS ]
Beginning LAMARCKIAN GENETIC ALGORITHM (LGA), with a maximum of 25000000 energy evaluations.

Final-Value: -6.930


	FINAL GENETIC ALGORITHM DOCKED STATE
	_______________________________________________


Detailed state:  trans -1.342 -3.133 -12.289 quatxyzw -0.343018 0.272231 0.250599 -0.863382 center 0.015 0.083 0.031 ntor 6 178.8353 -62.6995 -179.3153 -5.5619 -14.1020 -101.4676
State:	 -1.342  -3.133 -12.289  -0.680  0.540  0.497 -60.603    178.84  -62.70 -179.32   -5.56  -14.10 -101.47

DOCKED: MODEL       79
DOCKED: USER    Run = 79
DOCKED: USER    DPF = D:/Protein_go_brrr/autodock/final/1A3N/2_3_BPG/dock.dpf
DOCKED: USER  
DOCKED: USER    Estimated Free Energy of Binding    =   -7.15 kcal/mol  [=(1)+(2)+(3)-(4)]
DOCKED: USER    Estimated Inhibition Constant, Ki   =    5.74 uM (micromolar)  [Temperature = 298.15 K]
DOCKED: USER    
DOCKED: USER    (1) Final Intermolecular Energy     =   -8.94 kcal/mol
DOCKED: USER        vdW + Hbond + desolv Energy     =   -3.30 kcal/mol
DOCKED: USER        Electrostatic Energy            =   -5.64 kcal/mol
DOCKED: USER    (2) Final Total Internal Energy     =   +2.01 kcal/mol
DOCKED: USER    (3) Torsional Free Energy           =   +1.79 kcal/mol
DOCKED: USER    (4) Unbound System's Energy  [=(2)] =   +2.01 kcal/mol
DOCKED: USER    
DOCKED: USER    
DOCKED: USER    NEWDPF move 2_3_BPG_opt.pdbqt
DOCKED: USER    NEWDPF about 0.015000 0.083000 0.031000
DOCKED: USER    NEWDPF tran0 -1.341636 -3.133398 -12.289005
DOCKED: USER    NEWDPF quaternion0 -0.343018 0.272231 0.250599 -0.863382
DOCKED: USER    NEWDPF axisangle0 -0.679850 0.539551 0.496677 -60.602984
DOCKED: USER    NEWDPF quat0 -0.679850 0.539551 0.496677 -60.602984
DOCKED: USER    NEWDPF dihe0 178.84 -62.70 -179.32 -5.56 -14.10 -101.47 
DOCKED: USER  keepresnum = 1 
DOCKED: USER  
DOCKED: REMARK  6 active torsions:
DOCKED: REMARK  status: ('A' for Active; 'I' for Inactive)
DOCKED: REMARK    1  A    between atoms: P_1  and  O_3 
DOCKED: REMARK    2  A    between atoms: P_2  and  O_4 
DOCKED: REMARK    3  A    between atoms: O_3  and  C_13 
DOCKED: REMARK    4  A    between atoms: O_4  and  C_14 
DOCKED: REMARK    5  A    between atoms: C_13  and  C_14 
DOCKED: REMARK    6  A    between atoms: C_13  and  C_15 
DOCKED: USER                              x       y       z     vdW  Elec       q    Type
DOCKED: USER                           _______ _______ _______ _____ _____    ______ ____
DOCKED: ROOT
DOCKED: ATOM      1  C   UNL d   1      -1.546  -3.409 -11.713 -0.20 +0.17    +0.193 C 
DOCKED: ENDROOT
DOCKED: BRANCH   1   2
DOCKED: ATOM      2  O   UNL d   1      -2.995  -3.626 -11.799 -0.23 -0.37    -0.356 OA
DOCKED: BRANCH   2   3
DOCKED: ATOM      3  P   UNL d   1      -4.030  -3.312 -10.561 -0.49 -0.02    -0.014 P 
DOCKED: ATOM      4  O   UNL d   1      -4.886  -2.140 -11.065 -0.12 -0.38    -0.577 OA
DOCKED: ATOM      5  O   UNL d   1      -3.183  -2.912  -9.354 -0.20 -0.76    -0.577 OA
DOCKED: ATOM      6  O   UNL d   1      -4.874  -4.560 -10.324 -0.44 -0.89    -0.638 OA
DOCKED: ENDBRANCH   2   3
DOCKED: ENDBRANCH   1   2
DOCKED: BRANCH   1   7
DOCKED: ATOM      7  C   UNL d   1      -1.005  -3.040 -13.143 -0.15 +0.12    +0.201 C 
DOCKED: BRANCH   7   8
DOCKED: ATOM      8  O   UNL d   1      -1.598  -1.876 -13.761 -0.16 -0.27    -0.364 OA
DOCKED: BRANCH   8   9
DOCKED: ATOM      9  P   UNL d   1      -0.930  -1.231 -15.129 -0.32 -0.02    -0.015 P 
DOCKED: ATOM     10  O   UNL d   1       0.237  -2.162 -15.480 -0.03 -0.33    -0.577 OA
DOCKED: ATOM     11  O   UNL d   1      -0.450   0.175 -14.771 -0.11 -0.70    -0.577 OA
DOCKED: ATOM     12  O   UNL d   1      -2.013  -1.237 -16.207 -0.44 -0.93    -0.638 OA
DOCKED: ENDBRANCH   8   9
DOCKED: ENDBRANCH   7   8
DOCKED: ENDBRANCH   1   7
DOCKED: BRANCH   1  13
DOCKED: ATOM     13  C   UNL d   1      -0.831  -4.725 -11.228 -0.06 +0.10    +0.073 C 
DOCKED: ATOM     14  O   UNL d   1      -0.037  -4.656 -10.225 -0.26 -0.74    -0.547 OA
DOCKED: ATOM     15  O   UNL d   1      -1.140  -5.813 -11.835 -0.09 -0.64    -0.547 OA
DOCKED: ENDBRANCH   1  13
DOCKED: TORSDOF 6
DOCKED: TER
DOCKED: ENDMDL
________________________________________________________________________________


	BEGINNING GENETIC ALGORITHM DOCKING 80 of 100
Run: 80 Seed: 93927766 920787577 [ Run 80 of 100 GA/GALS ]
Beginning LAMARCKIAN GENETIC ALGORITHM (LGA), with a maximum of 25000000 energy evaluations.

Final-Value: -7.175


	FINAL GENETIC ALGORITHM DOCKED STATE
	_______________________________________________


Detailed state:  trans -1.373 -3.288 -12.184 quatxyzw -0.461387 0.289259 0.328548 -0.771691 center 0.015 0.083 0.031 ntor 6 -178.4282 30.6486 -173.5538 5.6664 -52.4867 -87.4377
State:	 -1.373  -3.288 -12.184  -0.725  0.455  0.517 -78.988   -178.43   30.65 -173.55    5.67  -52.49  -87.44

DOCKED: MODEL       80
DOCKED: USER    Run = 80
DOCKED: USER    DPF = D:/Protein_go_brrr/autodock/final/1A3N/2_3_BPG/dock.dpf
DOCKED: USER  
DOCKED: USER    Estimated Free Energy of Binding    =   -7.41 kcal/mol  [=(1)+(2)+(3)-(4)]
DOCKED: USER    Estimated Inhibition Constant, Ki   =    3.72 uM (micromolar)  [Temperature = 298.15 K]
DOCKED: USER    
DOCKED: USER    (1) Final Intermolecular Energy     =   -9.20 kcal/mol
DOCKED: USER        vdW + Hbond + desolv Energy     =   -3.44 kcal/mol
DOCKED: USER        Electrostatic Energy            =   -5.75 kcal/mol
DOCKED: USER    (2) Final Total Internal Energy     =   +2.02 kcal/mol
DOCKED: USER    (3) Torsional Free Energy           =   +1.79 kcal/mol
DOCKED: USER    (4) Unbound System's Energy  [=(2)] =   +2.02 kcal/mol
DOCKED: USER    
DOCKED: USER    
DOCKED: USER    NEWDPF move 2_3_BPG_opt.pdbqt
DOCKED: USER    NEWDPF about 0.015000 0.083000 0.031000
DOCKED: USER    NEWDPF tran0 -1.372936 -3.288343 -12.184130
DOCKED: USER    NEWDPF quaternion0 -0.461387 0.289259 0.328548 -0.771691
DOCKED: USER    NEWDPF axisangle0 -0.725454 0.454812 0.516588 -78.987964
DOCKED: USER    NEWDPF quat0 -0.725454 0.454812 0.516588 -78.987964
DOCKED: USER    NEWDPF dihe0 -178.43 30.65 -173.55 5.67 -52.49 -87.44 
DOCKED: USER  keepresnum = 1 
DOCKED: USER  
DOCKED: REMARK  6 active torsions:
DOCKED: REMARK  status: ('A' for Active; 'I' for Inactive)
DOCKED: REMARK    1  A    between atoms: P_1  and  O_3 
DOCKED: REMARK    2  A    between atoms: P_2  and  O_4 
DOCKED: REMARK    3  A    between atoms: O_3  and  C_13 
DOCKED: REMARK    4  A    between atoms: O_4  and  C_14 
DOCKED: REMARK    5  A    between atoms: C_13  and  C_14 
DOCKED: REMARK    6  A    between atoms: C_13  and  C_15 
DOCKED: USER                              x       y       z     vdW  Elec       q    Type
DOCKED: USER                           _______ _______ _______ _____ _____    ______ ____
DOCKED: ROOT
DOCKED: ATOM      1  C   UNL d   1      -1.480  -3.457 -11.544 -0.21 +0.18    +0.193 C 
DOCKED: ENDROOT
DOCKED: BRANCH   1   2
DOCKED: ATOM      2  O   UNL d   1      -2.837  -4.003 -11.435 -0.38 -0.50    -0.356 OA
DOCKED: BRANCH   2   3
DOCKED: ATOM      3  P   UNL d   1      -3.951  -3.446 -10.362 -0.35 -0.02    -0.014 P 
DOCKED: ATOM      4  O   UNL d   1      -4.877  -4.646 -10.113 -0.42 -0.86    -0.577 OA
DOCKED: ATOM      5  O   UNL d   1      -4.693  -2.294 -11.037 -0.12 -0.39    -0.577 OA
DOCKED: ATOM      6  O   UNL d   1      -3.216  -3.033  -9.091 -0.03 -0.94    -0.638 OA
DOCKED: ENDBRANCH   2   3
DOCKED: ENDBRANCH   1   2
DOCKED: BRANCH   1   7
DOCKED: ATOM      7  C   UNL d   1      -1.107  -3.329 -13.067 -0.13 +0.12    +0.201 C 
DOCKED: BRANCH   7   8
DOCKED: ATOM      8  O   UNL d   1      -1.780  -2.278 -13.794 -0.12 -0.25    -0.364 OA
DOCKED: BRANCH   8   9
DOCKED: ATOM      9  P   UNL d   1      -0.910  -1.229 -14.733 -0.37 -0.01    -0.015 P 
DOCKED: ATOM     10  O   UNL d   1       0.510  -1.806 -14.763 -0.09 -0.36    -0.577 OA
DOCKED: ATOM     11  O   UNL d   1      -0.958   0.133 -14.042 -0.09 -0.71    -0.577 OA
DOCKED: ATOM     12  O   UNL d   1      -1.555  -1.221 -16.118 -0.50 -0.87    -0.638 OA
DOCKED: ENDBRANCH   8   9
DOCKED: ENDBRANCH   7   8
DOCKED: ENDBRANCH   1   7
DOCKED: BRANCH   1  13
DOCKED: ATOM     13  C   UNL d   1      -0.450  -4.427 -10.853 -0.16 +0.09    +0.073 C 
DOCKED: ATOM     14  O   UNL d   1       0.312  -3.958  -9.937 -0.13 -0.49    -0.547 OA
DOCKED: ATOM     15  O   UNL d   1      -0.482  -5.660 -11.211 -0.34 -0.74    -0.547 OA
DOCKED: ENDBRANCH   1  13
DOCKED: TORSDOF 6
DOCKED: TER
DOCKED: ENDMDL
________________________________________________________________________________


	BEGINNING GENETIC ALGORITHM DOCKING 81 of 100
Run: 81 Seed: 556326122 1992077805 [ Run 81 of 100 GA/GALS ]
Beginning LAMARCKIAN GENETIC ALGORITHM (LGA), with a maximum of 25000000 energy evaluations.

Final-Value: -6.703


	FINAL GENETIC ALGORITHM DOCKED STATE
	_______________________________________________


Detailed state:  trans 7.178 12.982 35.535 quatxyzw -0.155176 -0.337194 -0.910274 -0.183364 center 0.015 0.083 0.031 ntor 6 5.5593 -80.2515 116.4266 76.5347 40.4651 67.2477
State:	  7.178  12.982  35.535  -0.158 -0.343 -0.926 -158.868      5.56  -80.25  116.43   76.53   40.47   67.25

DOCKED: MODEL       81
DOCKED: USER    Run = 81
DOCKED: USER    DPF = D:/Protein_go_brrr/autodock/final/1A3N/2_3_BPG/dock.dpf
DOCKED: USER  
DOCKED: USER    Estimated Free Energy of Binding    =   -6.99 kcal/mol  [=(1)+(2)+(3)-(4)]
DOCKED: USER    Estimated Inhibition Constant, Ki   =    7.47 uM (micromolar)  [Temperature = 298.15 K]
DOCKED: USER    
DOCKED: USER    (1) Final Intermolecular Energy     =   -8.78 kcal/mol
DOCKED: USER        vdW + Hbond + desolv Energy     =   -2.61 kcal/mol
DOCKED: USER        Electrostatic Energy            =   -6.18 kcal/mol
DOCKED: USER    (2) Final Total Internal Energy     =   +2.08 kcal/mol
DOCKED: USER    (3) Torsional Free Energy           =   +1.79 kcal/mol
DOCKED: USER    (4) Unbound System's Energy  [=(2)] =   +2.08 kcal/mol
DOCKED: USER    
DOCKED: USER    
DOCKED: USER    NEWDPF move 2_3_BPG_opt.pdbqt
DOCKED: USER    NEWDPF about 0.015000 0.083000 0.031000
DOCKED: USER    NEWDPF tran0 7.178003 12.981966 35.535168
DOCKED: USER    NEWDPF quaternion0 -0.155176 -0.337194 -0.910274 -0.183364
DOCKED: USER    NEWDPF axisangle0 -0.157852 -0.343010 -0.925974 -158.868416
DOCKED: USER    NEWDPF quat0 -0.157852 -0.343010 -0.925974 -158.868416
DOCKED: USER    NEWDPF dihe0 5.56 -80.25 116.43 76.53 40.47 67.25 
DOCKED: USER  keepresnum = 1 
DOCKED: USER  
DOCKED: REMARK  6 active torsions:
DOCKED: REMARK  status: ('A' for Active; 'I' for Inactive)
DOCKED: REMARK    1  A    between atoms: P_1  and  O_3 
DOCKED: REMARK    2  A    between atoms: P_2  and  O_4 
DOCKED: REMARK    3  A    between atoms: O_3  and  C_13 
DOCKED: REMARK    4  A    between atoms: O_4  and  C_14 
DOCKED: REMARK    5  A    between atoms: C_13  and  C_14 
DOCKED: REMARK    6  A    between atoms: C_13  and  C_15 
DOCKED: USER                              x       y       z     vdW  Elec       q    Type
DOCKED: USER                           _______ _______ _______ _____ _____    ______ ____
DOCKED: ROOT
DOCKED: ATOM      1  C   UNL d   1       7.574  13.399  35.191 -0.11 +0.21    +0.193 C 
DOCKED: ENDROOT
DOCKED: BRANCH   1   2
DOCKED: ATOM      2  O   UNL d   1       8.751  12.645  34.743 -0.05 -0.27    -0.356 OA
DOCKED: BRANCH   2   3
DOCKED: ATOM      3  P   UNL d   1       9.740  11.823  35.768 -0.24 -0.01    -0.014 P 
DOCKED: ATOM      4  O   UNL d   1       9.217  10.379  35.729 -0.49 -0.47    -0.577 OA
DOCKED: ATOM      5  O   UNL d   1       9.574  12.444  37.153 +0.02 -0.43    -0.577 OA
DOCKED: ATOM      6  O   UNL d   1      11.163  11.918  35.226 -0.43 -1.32    -0.638 OA
DOCKED: ENDBRANCH   2   3
DOCKED: ENDBRANCH   1   2
DOCKED: BRANCH   1   7
DOCKED: ATOM      7  C   UNL d   1       6.505  12.385  35.741 -0.15 +0.22    +0.201 C 
DOCKED: BRANCH   7   8
DOCKED: ATOM      8  O   UNL d   1       5.151  12.583  35.278 -0.56 -0.64    -0.364 OA
DOCKED: BRANCH   8   9
DOCKED: ATOM      9  P   UNL d   1       3.887  12.482  36.341 -0.17 -0.02    -0.015 P 
DOCKED: ATOM     10  O   UNL d   1       3.934  11.048  36.881 -0.04 -0.34    -0.577 OA
DOCKED: ATOM     11  O   UNL d   1       2.611  12.751  35.543 -0.12 -0.59    -0.577 OA
DOCKED: ATOM     12  O   UNL d   1       4.136  13.517  37.437 +0.00 -1.23    -0.638 OA
DOCKED: ENDBRANCH   8   9
DOCKED: ENDBRANCH   7   8
DOCKED: ENDBRANCH   1   7
DOCKED: BRANCH   1  13
DOCKED: ATOM     13  C   UNL d   1       6.946  14.187  33.982 -0.07 +0.10    +0.073 C 
DOCKED: ATOM     14  O   UNL d   1       6.546  13.524  32.961 -0.12 -0.44    -0.547 OA
DOCKED: ATOM     15  O   UNL d   1       6.814  15.456  34.120 -0.09 -0.96    -0.547 OA
DOCKED: ENDBRANCH   1  13
DOCKED: TORSDOF 6
DOCKED: TER
DOCKED: ENDMDL
________________________________________________________________________________


	BEGINNING GENETIC ALGORITHM DOCKING 82 of 100
Run: 82 Seed: 394332812 756945860 [ Run 82 of 100 GA/GALS ]
Beginning LAMARCKIAN GENETIC ALGORITHM (LGA), with a maximum of 25000000 energy evaluations.

Final-Value: -7.357


	FINAL GENETIC ALGORITHM DOCKED STATE
	_______________________________________________


Detailed state:  trans 7.776 12.113 35.024 quatxyzw 0.041372 -0.025747 -0.573903 -0.817472 center 0.015 0.083 0.031 ntor 6 102.6129 -65.2400 -144.5918 14.1580 43.9922 -37.9991
State:	  7.776  12.113  35.024   0.072 -0.045 -0.996 -70.335    102.61  -65.24 -144.59   14.16   43.99  -38.00

DOCKED: MODEL       82
DOCKED: USER    Run = 82
DOCKED: USER    DPF = D:/Protein_go_brrr/autodock/final/1A3N/2_3_BPG/dock.dpf
DOCKED: USER  
DOCKED: USER    Estimated Free Energy of Binding    =   -7.76 kcal/mol  [=(1)+(2)+(3)-(4)]
DOCKED: USER    Estimated Inhibition Constant, Ki   =    2.04 uM (micromolar)  [Temperature = 298.15 K]
DOCKED: USER    
DOCKED: USER    (1) Final Intermolecular Energy     =   -9.55 kcal/mol
DOCKED: USER        vdW + Hbond + desolv Energy     =   -3.16 kcal/mol
DOCKED: USER        Electrostatic Energy            =   -6.39 kcal/mol
DOCKED: USER    (2) Final Total Internal Energy     =   +2.20 kcal/mol
DOCKED: USER    (3) Torsional Free Energy           =   +1.79 kcal/mol
DOCKED: USER    (4) Unbound System's Energy  [=(2)] =   +2.20 kcal/mol
DOCKED: USER    
DOCKED: USER    
DOCKED: USER    NEWDPF move 2_3_BPG_opt.pdbqt
DOCKED: USER    NEWDPF about 0.015000 0.083000 0.031000
DOCKED: USER    NEWDPF tran0 7.776017 12.113344 35.024194
DOCKED: USER    NEWDPF quaternion0 0.041372 -0.025747 -0.573903 -0.817472
DOCKED: USER    NEWDPF axisangle0 0.071830 -0.044703 -0.996415 -70.334877
DOCKED: USER    NEWDPF quat0 0.071830 -0.044703 -0.996415 -70.334877
DOCKED: USER    NEWDPF dihe0 102.61 -65.24 -144.59 14.16 43.99 -38.00 
DOCKED: USER  keepresnum = 1 
DOCKED: USER  
DOCKED: REMARK  6 active torsions:
DOCKED: REMARK  status: ('A' for Active; 'I' for Inactive)
DOCKED: REMARK    1  A    between atoms: P_1  and  O_3 
DOCKED: REMARK    2  A    between atoms: P_2  and  O_4 
DOCKED: REMARK    3  A    between atoms: O_3  and  C_13 
DOCKED: REMARK    4  A    between atoms: O_4  and  C_14 
DOCKED: REMARK    5  A    between atoms: C_13  and  C_14 
DOCKED: REMARK    6  A    between atoms: C_13  and  C_15 
DOCKED: USER                              x       y       z     vdW  Elec       q    Type
DOCKED: USER                           _______ _______ _______ _____ _____    ______ ____
DOCKED: ROOT
DOCKED: ATOM      1  C   UNL d   1       7.276  12.555  35.090 -0.15 +0.18    +0.193 C 
DOCKED: ENDROOT
DOCKED: BRANCH   1   2
DOCKED: ATOM      2  O   UNL d   1       7.724  13.837  34.533 -0.08 -0.37    -0.356 OA
DOCKED: BRANCH   2   3
DOCKED: ATOM      3  P   UNL d   1       7.853  15.213  35.424 -0.09 -0.02    -0.014 P 
DOCKED: ATOM      4  O   UNL d   1       9.365  15.469  35.517 +0.00 -0.39    -0.577 OA
DOCKED: ATOM      5  O   UNL d   1       7.248  14.922  36.796 -0.02 -0.87    -0.577 OA
DOCKED: ATOM      6  O   UNL d   1       7.141  16.331  34.671 -0.42 -1.02    -0.638 OA
DOCKED: ENDBRANCH   2   3
DOCKED: ENDBRANCH   1   2
DOCKED: BRANCH   1   7
DOCKED: ATOM      7  C   UNL d   1       8.311  11.441  34.687 -0.17 +0.13    +0.201 C 
DOCKED: BRANCH   7   8
DOCKED: ATOM      8  O   UNL d   1       8.932  10.732  35.782 -0.43 -0.28    -0.364 OA
DOCKED: BRANCH   8   9
DOCKED: ATOM      9  P   UNL d   1      10.570  10.497  35.796 -0.27 -0.02    -0.015 P 
DOCKED: ATOM     10  O   UNL d   1      11.163  11.789  35.221 -0.41 -1.20    -0.577 OA
DOCKED: ATOM     11  O   UNL d   1      10.855   9.291  34.902 -0.06 -0.56    -0.577 OA
DOCKED: ATOM     12  O   UNL d   1      10.981  10.274  37.251 -0.05 -0.69    -0.638 OA
DOCKED: ENDBRANCH   8   9
DOCKED: ENDBRANCH   7   8
DOCKED: ENDBRANCH   1   7
DOCKED: BRANCH   1  13
DOCKED: ATOM     13  C   UNL d   1       5.868  12.173  34.499 -0.32 +0.07    +0.073 C 
DOCKED: ATOM     14  O   UNL d   1       5.525  10.939  34.487 -0.09 -0.32    -0.547 OA
DOCKED: ATOM     15  O   UNL d   1       5.114  13.140  34.119 -0.60 -1.04    -0.547 OA
DOCKED: ENDBRANCH   1  13
DOCKED: TORSDOF 6
DOCKED: TER
DOCKED: ENDMDL
________________________________________________________________________________


	BEGINNING GENETIC ALGORITHM DOCKING 83 of 100
Run: 83 Seed: 319054413 646197406 [ Run 83 of 100 GA/GALS ]
Beginning LAMARCKIAN GENETIC ALGORITHM (LGA), with a maximum of 25000000 energy evaluations.

Final-Value: -6.840


	FINAL GENETIC ALGORITHM DOCKED STATE
	_______________________________________________


Detailed state:  trans -2.103 -2.914 -12.514 quatxyzw 0.717770 0.561802 -0.410682 0.022905 center 0.015 0.083 0.031 ntor 6 85.6455 19.1410 -102.4523 23.1809 10.8827 -43.3142
State:	 -2.103  -2.914 -12.514   0.718  0.562 -0.411 177.375     85.65   19.14 -102.45   23.18   10.88  -43.31

DOCKED: MODEL       83
DOCKED: USER    Run = 83
DOCKED: USER    DPF = D:/Protein_go_brrr/autodock/final/1A3N/2_3_BPG/dock.dpf
DOCKED: USER  
DOCKED: USER    Estimated Free Energy of Binding    =   -7.13 kcal/mol  [=(1)+(2)+(3)-(4)]
DOCKED: USER    Estimated Inhibition Constant, Ki   =    5.96 uM (micromolar)  [Temperature = 298.15 K]
DOCKED: USER    
DOCKED: USER    (1) Final Intermolecular Energy     =   -8.92 kcal/mol
DOCKED: USER        vdW + Hbond + desolv Energy     =   -3.17 kcal/mol
DOCKED: USER        Electrostatic Energy            =   -5.75 kcal/mol
DOCKED: USER    (2) Final Total Internal Energy     =   +2.08 kcal/mol
DOCKED: USER    (3) Torsional Free Energy           =   +1.79 kcal/mol
DOCKED: USER    (4) Unbound System's Energy  [=(2)] =   +2.08 kcal/mol
DOCKED: USER    
DOCKED: USER    
DOCKED: USER    NEWDPF move 2_3_BPG_opt.pdbqt
DOCKED: USER    NEWDPF about 0.015000 0.083000 0.031000
DOCKED: USER    NEWDPF tran0 -2.102821 -2.913535 -12.513569
DOCKED: USER    NEWDPF quaternion0 0.717770 0.561802 -0.410682 0.022905
DOCKED: USER    NEWDPF axisangle0 0.717959 0.561949 -0.410790 177.375103
DOCKED: USER    NEWDPF quat0 0.717959 0.561949 -0.410790 177.375103
DOCKED: USER    NEWDPF dihe0 85.65 19.14 -102.45 23.18 10.88 -43.31 
DOCKED: USER  keepresnum = 1 
DOCKED: USER  
DOCKED: REMARK  6 active torsions:
DOCKED: REMARK  status: ('A' for Active; 'I' for Inactive)
DOCKED: REMARK    1  A    between atoms: P_1  and  O_3 
DOCKED: REMARK    2  A    between atoms: P_2  and  O_4 
DOCKED: REMARK    3  A    between atoms: O_3  and  C_13 
DOCKED: REMARK    4  A    between atoms: O_4  and  C_14 
DOCKED: REMARK    5  A    between atoms: C_13  and  C_14 
DOCKED: REMARK    6  A    between atoms: C_13  and  C_15 
DOCKED: USER                              x       y       z     vdW  Elec       q    Type
DOCKED: USER                           _______ _______ _______ _____ _____    ______ ____
DOCKED: ROOT
DOCKED: ATOM      1  C   UNL d   1      -2.424  -3.322 -12.090 -0.21 +0.17    +0.193 C 
DOCKED: ENDROOT
DOCKED: BRANCH   1   2
DOCKED: ATOM      2  O   UNL d   1      -1.433  -4.207 -11.468 -0.13 -0.45    -0.356 OA
DOCKED: BRANCH   2   3
DOCKED: ATOM      3  P   UNL d   1      -1.317  -5.812 -11.805 -0.02 -0.02    -0.014 P 
DOCKED: ATOM      4  O   UNL d   1      -0.445  -6.379 -10.674 -0.45 -0.99    -0.577 OA
DOCKED: ATOM      5  O   UNL d   1      -0.629  -5.940 -13.163 +0.01 -0.31    -0.577 OA
DOCKED: ATOM      6  O   UNL d   1      -2.723  -6.402 -11.777 -0.06 -0.87    -0.638 OA
DOCKED: ENDBRANCH   2   3
DOCKED: ENDBRANCH   1   2
DOCKED: BRANCH   1   7
DOCKED: ATOM      7  C   UNL d   1      -1.667  -2.175 -12.856 -0.22 +0.14    +0.201 C 
DOCKED: BRANCH   7   8
DOCKED: ATOM      8  O   UNL d   1      -1.846  -2.149 -14.289 -0.11 -0.28    -0.364 OA
DOCKED: BRANCH   8   9
DOCKED: ATOM      9  P   UNL d   1      -0.849  -1.226 -15.233 -0.30 -0.02    -0.015 P 
DOCKED: ATOM     10  O   UNL d   1       0.436  -2.051 -15.380 -0.06 -0.33    -0.577 OA
DOCKED: ATOM     11  O   UNL d   1      -0.605   0.081 -14.480 -0.10 -0.68    -0.577 OA
DOCKED: ATOM     12  O   UNL d   1      -1.556  -1.022 -16.572 -0.49 -0.97    -0.638 OA
DOCKED: ENDBRANCH   8   9
DOCKED: ENDBRANCH   7   8
DOCKED: ENDBRANCH   1   7
DOCKED: BRANCH   1  13
DOCKED: ATOM     13  C   UNL d   1      -3.338  -2.673 -10.985 -0.48 +0.07    +0.073 C 
DOCKED: ATOM     14  O   UNL d   1      -3.659  -1.439 -11.105 -0.13 -0.37    -0.547 OA
DOCKED: ATOM     15  O   UNL d   1      -3.763  -3.446 -10.053 -0.41 -0.83    -0.547 OA
DOCKED: ENDBRANCH   1  13
DOCKED: TORSDOF 6
DOCKED: TER
DOCKED: ENDMDL
________________________________________________________________________________


	BEGINNING GENETIC ALGORITHM DOCKING 84 of 100
Run: 84 Seed: 2132485498 865623850 [ Run 84 of 100 GA/GALS ]
Beginning LAMARCKIAN GENETIC ALGORITHM (LGA), with a maximum of 25000000 energy evaluations.

Final-Value: -8.225


	FINAL GENETIC ALGORITHM DOCKED STATE
	_______________________________________________


Detailed state:  trans 6.533 -14.921 13.725 quatxyzw -0.051165 0.276364 0.959363 0.025044 center 0.015 0.083 0.031 ntor 6 165.9760 29.4177 -144.5644 -8.8146 51.9456 -177.6709
State:	  6.533 -14.921  13.725  -0.051  0.276  0.960 177.130    165.98   29.42 -144.56   -8.81   51.95 -177.67

DOCKED: MODEL       84
DOCKED: USER    Run = 84
DOCKED: USER    DPF = D:/Protein_go_brrr/autodock/final/1A3N/2_3_BPG/dock.dpf
DOCKED: USER  
DOCKED: USER    Estimated Free Energy of Binding    =   -8.86 kcal/mol  [=(1)+(2)+(3)-(4)]
DOCKED: USER    Estimated Inhibition Constant, Ki   =  317.73 nM (nanomolar)  [Temperature = 298.15 K]
DOCKED: USER    
DOCKED: USER    (1) Final Intermolecular Energy     =  -10.65 kcal/mol
DOCKED: USER        vdW + Hbond + desolv Energy     =   -4.32 kcal/mol
DOCKED: USER        Electrostatic Energy            =   -6.33 kcal/mol
DOCKED: USER    (2) Final Total Internal Energy     =   +2.43 kcal/mol
DOCKED: USER    (3) Torsional Free Energy           =   +1.79 kcal/mol
DOCKED: USER    (4) Unbound System's Energy  [=(2)] =   +2.43 kcal/mol
DOCKED: USER    
DOCKED: USER    
DOCKED: USER    NEWDPF move 2_3_BPG_opt.pdbqt
DOCKED: USER    NEWDPF about 0.015000 0.083000 0.031000
DOCKED: USER    NEWDPF tran0 6.532658 -14.920593 13.724739
DOCKED: USER    NEWDPF quaternion0 -0.051165 0.276364 0.959363 0.025044
DOCKED: USER    NEWDPF axisangle0 -0.051181 0.276451 0.959664 177.129822
DOCKED: USER    NEWDPF quat0 -0.051181 0.276451 0.959664 177.129822
DOCKED: USER    NEWDPF dihe0 165.98 29.42 -144.56 -8.81 51.95 -177.67 
DOCKED: USER  keepresnum = 1 
DOCKED: USER  
DOCKED: REMARK  6 active torsions:
DOCKED: REMARK  status: ('A' for Active; 'I' for Inactive)
DOCKED: REMARK    1  A    between atoms: P_1  and  O_3 
DOCKED: REMARK    2  A    between atoms: P_2  and  O_4 
DOCKED: REMARK    3  A    between atoms: O_3  and  C_13 
DOCKED: REMARK    4  A    between atoms: O_4  and  C_14 
DOCKED: REMARK    5  A    between atoms: C_13  and  C_14 
DOCKED: REMARK    6  A    between atoms: C_13  and  C_15 
DOCKED: USER                              x       y       z     vdW  Elec       q    Type
DOCKED: USER                           _______ _______ _______ _____ _____    ______ ____
DOCKED: ROOT
DOCKED: ATOM      1  C   UNL d   1       7.098 -14.563  13.686 -0.10 +0.23    +0.193 C 
DOCKED: ENDROOT
DOCKED: BRANCH   1   2
DOCKED: ATOM      2  O   UNL d   1       8.229 -15.497  13.659 -0.13 -0.79    -0.356 OA
DOCKED: BRANCH   2   3
DOCKED: ATOM      3  P   UNL d   1       9.648 -15.221  14.444 -0.04 -0.02    -0.014 P 
DOCKED: ATOM      4  O   UNL d   1      10.686 -16.036  13.657 -0.32 -0.86    -0.577 OA
DOCKED: ATOM      5  O   UNL d   1       9.485 -15.745  15.869 +0.01 -0.61    -0.577 OA
DOCKED: ATOM      6  O   UNL d   1       9.941 -13.726  14.376 +0.02 -0.57    -0.638 OA
DOCKED: ENDBRANCH   2   3
DOCKED: ENDBRANCH   1   2
DOCKED: BRANCH   1   7
DOCKED: ATOM      7  C   UNL d   1       5.767 -15.376  13.483 -0.13 +0.18    +0.201 C 
DOCKED: BRANCH   7   8
DOCKED: ATOM      8  O   UNL d   1       5.915 -16.698  12.921 -0.17 -0.48    -0.364 OA
DOCKED: BRANCH   8   9
DOCKED: ATOM      9  P   UNL d   1       5.080 -17.119  11.557 -0.60 -0.02    -0.015 P 
DOCKED: ATOM     10  O   UNL d   1       5.082 -15.858  10.684 -0.16 -0.63    -0.577 OA
DOCKED: ATOM     11  O   UNL d   1       3.669 -17.505  11.999 -0.58 -0.36    -0.577 OA
DOCKED: ATOM     12  O   UNL d   1       5.838 -18.272  10.901 -0.84 -0.93    -0.638 OA
DOCKED: ENDBRANCH   8   9
DOCKED: ENDBRANCH   7   8
DOCKED: ENDBRANCH   1   7
DOCKED: BRANCH   1  13
DOCKED: ATOM     13  C   UNL d   1       7.234 -13.517  12.518 -0.33 +0.09    +0.073 C 
DOCKED: ATOM     14  O   UNL d   1       6.919 -12.297  12.750 -0.63 -0.50    -0.547 OA
DOCKED: ATOM     15  O   UNL d   1       7.717 -13.943  11.407 -0.31 -1.08    -0.547 OA
DOCKED: ENDBRANCH   1  13
DOCKED: TORSDOF 6
DOCKED: TER
DOCKED: ENDMDL
________________________________________________________________________________


	BEGINNING GENETIC ALGORITHM DOCKING 85 of 100
Run: 85 Seed: 1122581628 545843417 [ Run 85 of 100 GA/GALS ]
Beginning LAMARCKIAN GENETIC ALGORITHM (LGA), with a maximum of 25000000 energy evaluations.

Final-Value: -6.929


	FINAL GENETIC ALGORITHM DOCKED STATE
	_______________________________________________


Detailed state:  trans -1.094 -3.130 -12.032 quatxyzw 0.447479 -0.089175 -0.336316 0.823834 center 0.015 0.083 0.031 ntor 6 160.0680 45.0557 -146.5849 5.7785 -26.6255 -113.6907
State:	 -1.094  -3.130 -12.032   0.789 -0.157 -0.593 69.059    160.07   45.06 -146.58    5.78  -26.63 -113.69

DOCKED: MODEL       85
DOCKED: USER    Run = 85
DOCKED: USER    DPF = D:/Protein_go_brrr/autodock/final/1A3N/2_3_BPG/dock.dpf
DOCKED: USER  
DOCKED: USER    Estimated Free Energy of Binding    =   -7.19 kcal/mol  [=(1)+(2)+(3)-(4)]
DOCKED: USER    Estimated Inhibition Constant, Ki   =    5.40 uM (micromolar)  [Temperature = 298.15 K]
DOCKED: USER    
DOCKED: USER    (1) Final Intermolecular Energy     =   -8.98 kcal/mol
DOCKED: USER        vdW + Hbond + desolv Energy     =   -3.38 kcal/mol
DOCKED: USER        Electrostatic Energy            =   -5.59 kcal/mol
DOCKED: USER    (2) Final Total Internal Energy     =   +2.05 kcal/mol
DOCKED: USER    (3) Torsional Free Energy           =   +1.79 kcal/mol
DOCKED: USER    (4) Unbound System's Energy  [=(2)] =   +2.05 kcal/mol
DOCKED: USER    
DOCKED: USER    
DOCKED: USER    NEWDPF move 2_3_BPG_opt.pdbqt
DOCKED: USER    NEWDPF about 0.015000 0.083000 0.031000
DOCKED: USER    NEWDPF tran0 -1.094220 -3.130064 -12.032317
DOCKED: USER    NEWDPF quaternion0 0.447479 -0.089175 -0.336316 0.823834
DOCKED: USER    NEWDPF axisangle0 0.789439 -0.157322 -0.593326 69.059143
DOCKED: USER    NEWDPF quat0 0.789439 -0.157322 -0.593326 69.059143
DOCKED: USER    NEWDPF dihe0 160.07 45.06 -146.58 5.78 -26.63 -113.69 
DOCKED: USER  keepresnum = 1 
DOCKED: USER  
DOCKED: REMARK  6 active torsions:
DOCKED: REMARK  status: ('A' for Active; 'I' for Inactive)
DOCKED: REMARK    1  A    between atoms: P_1  and  O_3 
DOCKED: REMARK    2  A    between atoms: P_2  and  O_4 
DOCKED: REMARK    3  A    between atoms: O_3  and  C_13 
DOCKED: REMARK    4  A    between atoms: O_4  and  C_14 
DOCKED: REMARK    5  A    between atoms: C_13  and  C_14 
DOCKED: REMARK    6  A    between atoms: C_13  and  C_15 
DOCKED: USER                              x       y       z     vdW  Elec       q    Type
DOCKED: USER                           _______ _______ _______ _____ _____    ______ ____
DOCKED: ROOT
DOCKED: ATOM      1  C   UNL d   1      -1.355  -3.450 -11.504 -0.20 +0.18    +0.193 C 
DOCKED: ENDROOT
DOCKED: BRANCH   1   2
DOCKED: ATOM      2  O   UNL d   1      -2.557  -4.163 -11.950 -0.23 -0.40    -0.356 OA
DOCKED: BRANCH   2   3
DOCKED: ATOM      3  P   UNL d   1      -4.026  -3.996 -11.228 -0.22 -0.02    -0.014 P 
DOCKED: ATOM      4  O   UNL d   1      -4.597  -5.422 -11.187 -0.41 -0.78    -0.577 OA
DOCKED: ATOM      5  O   UNL d   1      -4.865  -3.079 -12.116 -0.02 -0.38    -0.577 OA
DOCKED: ATOM      6  O   UNL d   1      -3.800  -3.443  -9.824 -0.30 -0.98    -0.638 OA
DOCKED: ENDBRANCH   2   3
DOCKED: ENDBRANCH   1   2
DOCKED: BRANCH   1   7
DOCKED: ATOM      7  C   UNL d   1      -0.573  -2.938 -12.770 -0.14 +0.11    +0.201 C 
DOCKED: BRANCH   7   8
DOCKED: ATOM      8  O   UNL d   1      -1.374  -2.301 -13.790 -0.11 -0.24    -0.364 OA
DOCKED: BRANCH   8   9
DOCKED: ATOM      9  P   UNL d   1      -0.677  -1.235 -14.845 -0.37 -0.01    -0.015 P 
DOCKED: ATOM     10  O   UNL d   1       0.729  -1.790 -15.104 -0.13 -0.36    -0.577 OA
DOCKED: ATOM     11  O   UNL d   1      -0.635   0.123 -14.145 -0.13 -0.61    -0.577 OA
DOCKED: ATOM     12  O   UNL d   1      -1.533  -1.228 -16.111 -0.50 -0.85    -0.638 OA
DOCKED: ENDBRANCH   8   9
DOCKED: ENDBRANCH   7   8
DOCKED: ENDBRANCH   1   7
DOCKED: BRANCH   1  13
DOCKED: ATOM     13  C   UNL d   1      -0.420  -4.424 -10.694 -0.14 +0.10    +0.073 C 
DOCKED: ATOM     14  O   UNL d   1       0.265  -3.945  -9.723 -0.14 -0.51    -0.547 OA
DOCKED: ATOM     15  O   UNL d   1      -0.449  -5.665 -11.019 -0.36 -0.83    -0.547 OA
DOCKED: ENDBRANCH   1  13
DOCKED: TORSDOF 6
DOCKED: TER
DOCKED: ENDMDL
________________________________________________________________________________


	BEGINNING GENETIC ALGORITHM DOCKING 86 of 100
Run: 86 Seed: 665643371 1270514602 [ Run 86 of 100 GA/GALS ]
Beginning LAMARCKIAN GENETIC ALGORITHM (LGA), with a maximum of 25000000 energy evaluations.

Final-Value: -7.281


	FINAL GENETIC ALGORITHM DOCKED STATE
	_______________________________________________


Detailed state:  trans 7.161 -17.256 14.216 quatxyzw -0.035803 -0.771089 0.590380 0.235778 center 0.015 0.083 0.031 ntor 6 -168.1942 -35.7292 127.0085 14.4374 4.2879 -48.4769
State:	  7.161 -17.256  14.216  -0.037 -0.793  0.608 152.725   -168.19  -35.73  127.01   14.44    4.29  -48.48

DOCKED: MODEL       86
DOCKED: USER    Run = 86
DOCKED: USER    DPF = D:/Protein_go_brrr/autodock/final/1A3N/2_3_BPG/dock.dpf
DOCKED: USER  
DOCKED: USER    Estimated Free Energy of Binding    =   -7.44 kcal/mol  [=(1)+(2)+(3)-(4)]
DOCKED: USER    Estimated Inhibition Constant, Ki   =    3.52 uM (micromolar)  [Temperature = 298.15 K]
DOCKED: USER    
DOCKED: USER    (1) Final Intermolecular Energy     =   -9.23 kcal/mol
DOCKED: USER        vdW + Hbond + desolv Energy     =   -3.56 kcal/mol
DOCKED: USER        Electrostatic Energy            =   -5.67 kcal/mol
DOCKED: USER    (2) Final Total Internal Energy     =   +1.95 kcal/mol
DOCKED: USER    (3) Torsional Free Energy           =   +1.79 kcal/mol
DOCKED: USER    (4) Unbound System's Energy  [=(2)] =   +1.95 kcal/mol
DOCKED: USER    
DOCKED: USER    
DOCKED: USER    NEWDPF move 2_3_BPG_opt.pdbqt
DOCKED: USER    NEWDPF about 0.015000 0.083000 0.031000
DOCKED: USER    NEWDPF tran0 7.160505 -17.255891 14.216346
DOCKED: USER    NEWDPF quaternion0 -0.035803 -0.771089 0.590380 0.235778
DOCKED: USER    NEWDPF axisangle0 -0.036841 -0.793459 0.607507 152.725038
DOCKED: USER    NEWDPF quat0 -0.036841 -0.793459 0.607507 152.725038
DOCKED: USER    NEWDPF dihe0 -168.19 -35.73 127.01 14.44 4.29 -48.48 
DOCKED: USER  keepresnum = 1 
DOCKED: USER  
DOCKED: REMARK  6 active torsions:
DOCKED: REMARK  status: ('A' for Active; 'I' for Inactive)
DOCKED: REMARK    1  A    between atoms: P_1  and  O_3 
DOCKED: REMARK    2  A    between atoms: P_2  and  O_4 
DOCKED: REMARK    3  A    between atoms: O_3  and  C_13 
DOCKED: REMARK    4  A    between atoms: O_4  and  C_14 
DOCKED: REMARK    5  A    between atoms: C_13  and  C_14 
DOCKED: REMARK    6  A    between atoms: C_13  and  C_15 
DOCKED: USER                              x       y       z     vdW  Elec       q    Type
DOCKED: USER                           _______ _______ _______ _____ _____    ______ ____
DOCKED: ROOT
DOCKED: ATOM      1  C   UNL d   1       7.606 -17.305  14.715 -0.05 +0.20    +0.193 C 
DOCKED: ENDROOT
DOCKED: BRANCH   1   2
DOCKED: ATOM      2  O   UNL d   1       8.596 -16.235  14.552 -0.33 -0.52    -0.356 OA
DOCKED: BRANCH   2   3
DOCKED: ATOM      3  P   UNL d   1      10.196 -16.516  14.296 -0.05 -0.02    -0.014 P 
DOCKED: ATOM      4  O   UNL d   1      10.610 -15.459  13.260 -0.26 -0.93    -0.577 OA
DOCKED: ATOM      5  O   UNL d   1      10.322 -17.931  13.735 -0.05 -0.75    -0.577 OA
DOCKED: ATOM      6  O   UNL d   1      10.926 -16.320  15.620 -0.24 -0.88    -0.638 OA
DOCKED: ENDBRANCH   2   3
DOCKED: ENDBRANCH   1   2
DOCKED: BRANCH   1   7
DOCKED: ATOM      7  C   UNL d   1       6.403 -17.034  13.738 -0.08 +0.23    +0.201 C 
DOCKED: BRANCH   7   8
DOCKED: ATOM      8  O   UNL d   1       6.265 -17.957  12.636 -0.48 -0.52    -0.364 OA
DOCKED: BRANCH   8   9
DOCKED: ATOM      9  P   UNL d   1       5.153 -17.669  11.446 -0.57 -0.02    -0.015 P 
DOCKED: ATOM     10  O   UNL d   1       3.836 -17.403  12.187 -0.49 -0.34    -0.577 OA
DOCKED: ATOM     11  O   UNL d   1       5.080 -18.932  10.588 -0.67 -0.59    -0.577 OA
DOCKED: ATOM     12  O   UNL d   1       5.631 -16.444  10.668 -0.33 -0.99    -0.638 OA
DOCKED: ENDBRANCH   8   9
DOCKED: ENDBRANCH   7   8
DOCKED: ENDBRANCH   1   7
DOCKED: BRANCH   1  13
DOCKED: ATOM     13  C   UNL d   1       7.063 -17.317  16.193 -0.02 +0.05    +0.073 C 
DOCKED: ATOM     14  O   UNL d   1       7.321 -18.331  16.931 +0.03 -0.31    -0.547 OA
DOCKED: ATOM     15  O   UNL d   1       6.440 -16.268  16.593 +0.03 -0.29    -0.547 OA
DOCKED: ENDBRANCH   1  13
DOCKED: TORSDOF 6
DOCKED: TER
DOCKED: ENDMDL
________________________________________________________________________________


	BEGINNING GENETIC ALGORITHM DOCKING 87 of 100
Run: 87 Seed: 1969731372 2116195790 [ Run 87 of 100 GA/GALS ]
Beginning LAMARCKIAN GENETIC ALGORITHM (LGA), with a maximum of 25000000 energy evaluations.

Final-Value: -7.748


	FINAL GENETIC ALGORITHM DOCKED STATE
	_______________________________________________


Detailed state:  trans 9.073 -14.359 14.797 quatxyzw 0.006990 0.754288 0.413980 -0.509530 center 0.015 0.083 0.031 ntor 6 2.3284 -82.1866 -52.7538 1.8426 19.8181 73.9615
State:	  9.073 -14.359  14.797   0.008  0.877  0.481 -118.735      2.33  -82.19  -52.75    1.84   19.82   73.96

DOCKED: MODEL       87
DOCKED: USER    Run = 87
DOCKED: USER    DPF = D:/Protein_go_brrr/autodock/final/1A3N/2_3_BPG/dock.dpf
DOCKED: USER  
DOCKED: USER    Estimated Free Energy of Binding    =   -8.08 kcal/mol  [=(1)+(2)+(3)-(4)]
DOCKED: USER    Estimated Inhibition Constant, Ki   =    1.19 uM (micromolar)  [Temperature = 298.15 K]
DOCKED: USER    
DOCKED: USER    (1) Final Intermolecular Energy     =   -9.87 kcal/mol
DOCKED: USER        vdW + Hbond + desolv Energy     =   -2.81 kcal/mol
DOCKED: USER        Electrostatic Energy            =   -7.06 kcal/mol
DOCKED: USER    (2) Final Total Internal Energy     =   +2.12 kcal/mol
DOCKED: USER    (3) Torsional Free Energy           =   +1.79 kcal/mol
DOCKED: USER    (4) Unbound System's Energy  [=(2)] =   +2.12 kcal/mol
DOCKED: USER    
DOCKED: USER    
DOCKED: USER    NEWDPF move 2_3_BPG_opt.pdbqt
DOCKED: USER    NEWDPF about 0.015000 0.083000 0.031000
DOCKED: USER    NEWDPF tran0 9.072726 -14.358771 14.796885
DOCKED: USER    NEWDPF quaternion0 0.006990 0.754288 0.413980 -0.509530
DOCKED: USER    NEWDPF axisangle0 0.008124 0.876617 0.481119 -118.734910
DOCKED: USER    NEWDPF quat0 0.008124 0.876617 0.481119 -118.734910
DOCKED: USER    NEWDPF dihe0 2.33 -82.19 -52.75 1.84 19.82 73.96 
DOCKED: USER  keepresnum = 1 
DOCKED: USER  
DOCKED: REMARK  6 active torsions:
DOCKED: REMARK  status: ('A' for Active; 'I' for Inactive)
DOCKED: REMARK    1  A    between atoms: P_1  and  O_3 
DOCKED: REMARK    2  A    between atoms: P_2  and  O_4 
DOCKED: REMARK    3  A    between atoms: O_3  and  C_13 
DOCKED: REMARK    4  A    between atoms: O_4  and  C_14 
DOCKED: REMARK    5  A    between atoms: C_13  and  C_14 
DOCKED: REMARK    6  A    between atoms: C_13  and  C_15 
DOCKED: USER                              x       y       z     vdW  Elec       q    Type
DOCKED: USER                           _______ _______ _______ _____ _____    ______ ____
DOCKED: ROOT
DOCKED: ATOM      1  C   UNL d   1       9.555 -14.760  15.034 -0.04 +0.20    +0.193 C 
DOCKED: ENDROOT
DOCKED: BRANCH   1   2
DOCKED: ATOM      2  O   UNL d   1       9.233 -15.086  16.428 -0.01 -0.32    -0.356 OA
DOCKED: BRANCH   2   3
DOCKED: ATOM      3  P   UNL d   1      10.314 -14.948  17.660 -0.11 -0.02    -0.014 P 
DOCKED: ATOM      4  O   UNL d   1      10.059 -13.546  18.237 -0.00 -0.41    -0.577 OA
DOCKED: ATOM      5  O   UNL d   1      11.710 -15.059  17.052 -0.38 -0.98    -0.577 OA
DOCKED: ATOM      6  O   UNL d   1      10.006 -16.038  18.681 -0.08 -1.27    -0.638 OA
DOCKED: ENDBRANCH   2   3
DOCKED: ENDBRANCH   1   2
DOCKED: BRANCH   1   7
DOCKED: ATOM      7  C   UNL d   1       8.304 -14.069  14.376 -0.07 +0.20    +0.201 C 
DOCKED: BRANCH   7   8
DOCKED: ATOM      8  O   UNL d   1       7.833 -14.659  13.144 -0.04 -0.69    -0.364 OA
DOCKED: BRANCH   8   9
DOCKED: ATOM      9  P   UNL d   1       6.943 -13.758  12.080 -0.42 -0.02    -0.015 P 
DOCKED: ATOM     10  O   UNL d   1       7.629 -13.952  10.722 -0.58 -1.09    -0.577 OA
DOCKED: ATOM     11  O   UNL d   1       7.017 -12.306  12.554 -0.57 -0.56    -0.577 OA
DOCKED: ATOM     12  O   UNL d   1       5.522 -14.319  12.091 -0.02 -0.57    -0.638 OA
DOCKED: ENDBRANCH   8   9
DOCKED: ENDBRANCH   7   8
DOCKED: ENDBRANCH   1   7
DOCKED: BRANCH   1  13
DOCKED: ATOM     13  C   UNL d   1       9.883 -16.075  14.234 +0.01 +0.11    +0.073 C 
DOCKED: ATOM     14  O   UNL d   1       9.011 -17.013  14.214 -0.34 -0.89    -0.547 OA
DOCKED: ATOM     15  O   UNL d   1      10.993 -16.102  13.589 -0.17 -0.75    -0.547 OA
DOCKED: ENDBRANCH   1  13
DOCKED: TORSDOF 6
DOCKED: TER
DOCKED: ENDMDL
________________________________________________________________________________


	BEGINNING GENETIC ALGORITHM DOCKING 88 of 100
Run: 88 Seed: 1911347975 319316335 [ Run 88 of 100 GA/GALS ]
Beginning LAMARCKIAN GENETIC ALGORITHM (LGA), with a maximum of 25000000 energy evaluations.

Final-Value: -7.454


	FINAL GENETIC ALGORITHM DOCKED STATE
	_______________________________________________


Detailed state:  trans -5.999 12.374 36.546 quatxyzw 0.485956 0.357728 0.014578 0.797286 center 0.015 0.083 0.031 ntor 6 104.1766 -52.8154 -18.7318 27.3227 -54.4747 -105.9651
State:	 -5.999  12.374  36.546   0.805  0.593  0.024 74.257    104.18  -52.82  -18.73   27.32  -54.47 -105.97

DOCKED: MODEL       88
DOCKED: USER    Run = 88
DOCKED: USER    DPF = D:/Protein_go_brrr/autodock/final/1A3N/2_3_BPG/dock.dpf
DOCKED: USER  
DOCKED: USER    Estimated Free Energy of Binding    =   -7.87 kcal/mol  [=(1)+(2)+(3)-(4)]
DOCKED: USER    Estimated Inhibition Constant, Ki   =    1.70 uM (micromolar)  [Temperature = 298.15 K]
DOCKED: USER    
DOCKED: USER    (1) Final Intermolecular Energy     =   -9.66 kcal/mol
DOCKED: USER        vdW + Hbond + desolv Energy     =   -3.54 kcal/mol
DOCKED: USER        Electrostatic Energy            =   -6.12 kcal/mol
DOCKED: USER    (2) Final Total Internal Energy     =   +2.21 kcal/mol
DOCKED: USER    (3) Torsional Free Energy           =   +1.79 kcal/mol
DOCKED: USER    (4) Unbound System's Energy  [=(2)] =   +2.21 kcal/mol
DOCKED: USER    
DOCKED: USER    
DOCKED: USER    NEWDPF move 2_3_BPG_opt.pdbqt
DOCKED: USER    NEWDPF about 0.015000 0.083000 0.031000
DOCKED: USER    NEWDPF tran0 -5.998629 12.374053 36.546085
DOCKED: USER    NEWDPF quaternion0 0.485956 0.357728 0.014578 0.797286
DOCKED: USER    NEWDPF axisangle0 0.805093 0.592656 0.024152 74.256589
DOCKED: USER    NEWDPF quat0 0.805093 0.592656 0.024152 74.256589
DOCKED: USER    NEWDPF dihe0 104.18 -52.82 -18.73 27.32 -54.47 -105.97 
DOCKED: USER  keepresnum = 1 
DOCKED: USER  
DOCKED: REMARK  6 active torsions:
DOCKED: REMARK  status: ('A' for Active; 'I' for Inactive)
DOCKED: REMARK    1  A    between atoms: P_1  and  O_3 
DOCKED: REMARK    2  A    between atoms: P_2  and  O_4 
DOCKED: REMARK    3  A    between atoms: O_3  and  C_13 
DOCKED: REMARK    4  A    between atoms: O_4  and  C_14 
DOCKED: REMARK    5  A    between atoms: C_13  and  C_14 
DOCKED: REMARK    6  A    between atoms: C_13  and  C_15 
DOCKED: USER                              x       y       z     vdW  Elec       q    Type
DOCKED: USER                           _______ _______ _______ _____ _____    ______ ____
DOCKED: ROOT
DOCKED: ATOM      1  C   UNL d   1      -6.602  12.092  36.467 -0.19 +0.18    +0.193 C 
DOCKED: ENDROOT
DOCKED: BRANCH   1   2
DOCKED: ATOM      2  O   UNL d   1      -6.729  11.668  35.069 +0.02 -0.44    -0.356 OA
DOCKED: BRANCH   2   3
DOCKED: ATOM      3  P   UNL d   1      -7.646  12.467  33.962 -0.30 -0.02    -0.014 P 
DOCKED: ATOM      4  O   UNL d   1      -6.665  12.817  32.833 -0.27 -0.72    -0.577 OA
DOCKED: ATOM      5  O   UNL d   1      -8.189  13.721  34.645 -0.40 -0.82    -0.577 OA
DOCKED: ATOM      6  O   UNL d   1      -8.738  11.516  33.481 -0.54 -1.03    -0.638 OA
DOCKED: ENDBRANCH   2   3
DOCKED: ENDBRANCH   1   2
DOCKED: BRANCH   1   7
DOCKED: ATOM      7  C   UNL d   1      -5.103  12.485  36.742 -0.26 +0.15    +0.201 C 
DOCKED: BRANCH   7   8
DOCKED: ATOM      8  O   UNL d   1      -4.531  13.456  35.839 -0.23 -0.46    -0.364 OA
DOCKED: BRANCH   8   9
DOCKED: ATOM      9  P   UNL d   1      -3.768  14.797  36.437 -0.18 -0.02    -0.015 P 
DOCKED: ATOM     10  O   UNL d   1      -2.948  15.346  35.264 -0.19 -0.72    -0.577 OA
DOCKED: ATOM     11  O   UNL d   1      -2.877  14.327  37.587 -0.00 -0.32    -0.577 OA
DOCKED: ATOM     12  O   UNL d   1      -4.855  15.773  36.884 -0.51 -0.97    -0.638 OA
DOCKED: ENDBRANCH   8   9
DOCKED: ENDBRANCH   7   8
DOCKED: ENDBRANCH   1   7
DOCKED: BRANCH   1  13
DOCKED: ATOM     13  C   UNL d   1      -6.998  10.910  37.429 -0.22 +0.06    +0.073 C 
DOCKED: ATOM     14  O   UNL d   1      -6.557  10.926  38.631 -0.02 -0.27    -0.547 OA
DOCKED: ATOM     15  O   UNL d   1      -7.800  10.024  36.962 -0.25 -0.72    -0.547 OA
DOCKED: ENDBRANCH   1  13
DOCKED: TORSDOF 6
DOCKED: TER
DOCKED: ENDMDL
________________________________________________________________________________


	BEGINNING GENETIC ALGORITHM DOCKING 89 of 100
Run: 89 Seed: 778881860 993821426 [ Run 89 of 100 GA/GALS ]
Beginning LAMARCKIAN GENETIC ALGORITHM (LGA), with a maximum of 25000000 energy evaluations.

Final-Value: -7.273


	FINAL GENETIC ALGORITHM DOCKED STATE
	_______________________________________________


Detailed state:  trans -6.859 12.675 36.670 quatxyzw -0.309743 -0.587055 0.028006 -0.747424 center 0.015 0.083 0.031 ntor 6 -150.3766 119.1168 -118.4111 14.0899 34.0289 -105.7428
State:	 -6.859  12.675  36.670  -0.466 -0.884  0.042 -83.265   -150.38  119.12 -118.41   14.09   34.03 -105.74

DOCKED: MODEL       89
DOCKED: USER    Run = 89
DOCKED: USER    DPF = D:/Protein_go_brrr/autodock/final/1A3N/2_3_BPG/dock.dpf
DOCKED: USER  
DOCKED: USER    Estimated Free Energy of Binding    =   -7.74 kcal/mol  [=(1)+(2)+(3)-(4)]
DOCKED: USER    Estimated Inhibition Constant, Ki   =    2.11 uM (micromolar)  [Temperature = 298.15 K]
DOCKED: USER    
DOCKED: USER    (1) Final Intermolecular Energy     =   -9.53 kcal/mol
DOCKED: USER        vdW + Hbond + desolv Energy     =   -3.22 kcal/mol
DOCKED: USER        Electrostatic Energy            =   -6.31 kcal/mol
DOCKED: USER    (2) Final Total Internal Energy     =   +2.26 kcal/mol
DOCKED: USER    (3) Torsional Free Energy           =   +1.79 kcal/mol
DOCKED: USER    (4) Unbound System's Energy  [=(2)] =   +2.26 kcal/mol
DOCKED: USER    
DOCKED: USER    
DOCKED: USER    NEWDPF move 2_3_BPG_opt.pdbqt
DOCKED: USER    NEWDPF about 0.015000 0.083000 0.031000
DOCKED: USER    NEWDPF tran0 -6.858807 12.675241 36.670380
DOCKED: USER    NEWDPF quaternion0 -0.309743 -0.587055 0.028006 -0.747424
DOCKED: USER    NEWDPF axisangle0 -0.466236 -0.883656 0.042155 -83.264597
DOCKED: USER    NEWDPF quat0 -0.466236 -0.883656 0.042155 -83.264597
DOCKED: USER    NEWDPF dihe0 -150.38 119.12 -118.41 14.09 34.03 -105.74 
DOCKED: USER  keepresnum = 1 
DOCKED: USER  
DOCKED: REMARK  6 active torsions:
DOCKED: REMARK  status: ('A' for Active; 'I' for Inactive)
DOCKED: REMARK    1  A    between atoms: P_1  and  O_3 
DOCKED: REMARK    2  A    between atoms: P_2  and  O_4 
DOCKED: REMARK    3  A    between atoms: O_3  and  C_13 
DOCKED: REMARK    4  A    between atoms: O_4  and  C_14 
DOCKED: REMARK    5  A    between atoms: C_13  and  C_14 
DOCKED: REMARK    6  A    between atoms: C_13  and  C_15 
DOCKED: USER                              x       y       z     vdW  Elec       q    Type
DOCKED: USER                           _______ _______ _______ _____ _____    ______ ____
DOCKED: ROOT
DOCKED: ATOM      1  C   UNL d   1      -7.224  12.226  36.332 -0.16 +0.19    +0.193 C 
DOCKED: ENDROOT
DOCKED: BRANCH   1   2
DOCKED: ATOM      2  O   UNL d   1      -6.716  12.167  34.957 -0.29 -0.46    -0.356 OA
DOCKED: BRANCH   2   3
DOCKED: ATOM      3  P   UNL d   1      -7.625  12.553  33.642 -0.33 -0.02    -0.014 P 
DOCKED: ATOM      4  O   UNL d   1      -8.733  11.488  33.616 -0.57 -0.98    -0.577 OA
DOCKED: ATOM      5  O   UNL d   1      -6.717  12.448  32.418 -0.13 -0.55    -0.577 OA
DOCKED: ATOM      6  O   UNL d   1      -8.196  13.951  33.857 -0.31 -0.94    -0.638 OA
DOCKED: ENDBRANCH   2   3
DOCKED: ENDBRANCH   1   2
DOCKED: BRANCH   1   7
DOCKED: ATOM      7  C   UNL d   1      -6.209  13.047  37.210 -0.12 +0.16    +0.201 C 
DOCKED: BRANCH   7   8
DOCKED: ATOM      8  O   UNL d   1      -5.869  14.362  36.718 -0.08 -0.54    -0.364 OA
DOCKED: BRANCH   8   9
DOCKED: ATOM      9  P   UNL d   1      -4.328  14.939  36.887 -0.10 -0.02    -0.015 P 
DOCKED: ATOM     10  O   UNL d   1      -3.456  13.998  36.047 -0.11 -0.58    -0.577 OA
DOCKED: ATOM     11  O   UNL d   1      -3.983  14.861  38.374 +0.02 -0.31    -0.577 OA
DOCKED: ATOM     12  O   UNL d   1      -4.319  16.367  36.344 -0.53 -1.11    -0.638 OA
DOCKED: ENDBRANCH   8   9
DOCKED: ENDBRANCH   7   8
DOCKED: ENDBRANCH   1   7
DOCKED: BRANCH   1  13
DOCKED: ATOM     13  C   UNL d   1      -7.344  10.773  36.925 -0.14 +0.07    +0.073 C 
DOCKED: ATOM     14  O   UNL d   1      -8.483  10.188  36.885 -0.32 -0.83    -0.547 OA
DOCKED: ATOM     15  O   UNL d   1      -6.265  10.231  37.362 -0.06 -0.40    -0.547 OA
DOCKED: ENDBRANCH   1  13
DOCKED: TORSDOF 6
DOCKED: TER
DOCKED: ENDMDL
________________________________________________________________________________


	BEGINNING GENETIC ALGORITHM DOCKING 90 of 100
Run: 90 Seed: 1859618522 518142479 [ Run 90 of 100 GA/GALS ]
Beginning LAMARCKIAN GENETIC ALGORITHM (LGA), with a maximum of 25000000 energy evaluations.

Final-Value: -7.664


	FINAL GENETIC ALGORITHM DOCKED STATE
	_______________________________________________


Detailed state:  trans 7.720 -16.777 14.538 quatxyzw -0.180724 0.032619 0.963911 0.192743 center 0.015 0.083 0.031 ntor 6 168.5602 -39.5107 54.8166 36.4051 -36.7885 59.2762
State:	  7.720 -16.777  14.538  -0.184  0.033  0.982 157.774    168.56  -39.51   54.82   36.41  -36.79   59.28

DOCKED: MODEL       90
DOCKED: USER    Run = 90
DOCKED: USER    DPF = D:/Protein_go_brrr/autodock/final/1A3N/2_3_BPG/dock.dpf
DOCKED: USER  
DOCKED: USER    Estimated Free Energy of Binding    =   -7.97 kcal/mol  [=(1)+(2)+(3)-(4)]
DOCKED: USER    Estimated Inhibition Constant, Ki   =    1.44 uM (micromolar)  [Temperature = 298.15 K]
DOCKED: USER    
DOCKED: USER    (1) Final Intermolecular Energy     =   -9.76 kcal/mol
DOCKED: USER        vdW + Hbond + desolv Energy     =   -2.85 kcal/mol
DOCKED: USER        Electrostatic Energy            =   -6.91 kcal/mol
DOCKED: USER    (2) Final Total Internal Energy     =   +2.10 kcal/mol
DOCKED: USER    (3) Torsional Free Energy           =   +1.79 kcal/mol
DOCKED: USER    (4) Unbound System's Energy  [=(2)] =   +2.10 kcal/mol
DOCKED: USER    
DOCKED: USER    
DOCKED: USER    NEWDPF move 2_3_BPG_opt.pdbqt
DOCKED: USER    NEWDPF about 0.015000 0.083000 0.031000
DOCKED: USER    NEWDPF tran0 7.719966 -16.777338 14.538071
DOCKED: USER    NEWDPF quaternion0 -0.180724 0.032619 0.963911 0.192743
DOCKED: USER    NEWDPF axisangle0 -0.184177 0.033242 0.982331 157.774206
DOCKED: USER    NEWDPF quat0 -0.184177 0.033242 0.982331 157.774206
DOCKED: USER    NEWDPF dihe0 168.56 -39.51 54.82 36.41 -36.79 59.28 
DOCKED: USER  keepresnum = 1 
DOCKED: USER  
DOCKED: REMARK  6 active torsions:
DOCKED: REMARK  status: ('A' for Active; 'I' for Inactive)
DOCKED: REMARK    1  A    between atoms: P_1  and  O_3 
DOCKED: REMARK    2  A    between atoms: P_2  and  O_4 
DOCKED: REMARK    3  A    between atoms: O_3  and  C_13 
DOCKED: REMARK    4  A    between atoms: O_4  and  C_14 
DOCKED: REMARK    5  A    between atoms: C_13  and  C_14 
DOCKED: REMARK    6  A    between atoms: C_13  and  C_15 
DOCKED: USER                              x       y       z     vdW  Elec       q    Type
DOCKED: USER                           _______ _______ _______ _____ _____    ______ ____
DOCKED: ROOT
DOCKED: ATOM      1  C   UNL d   1       8.078 -16.265  14.780 -0.04 +0.23    +0.193 C 
DOCKED: ENDROOT
DOCKED: BRANCH   1   2
DOCKED: ATOM      2  O   UNL d   1       9.501 -16.595  14.639 -0.28 -0.50    -0.356 OA
DOCKED: BRANCH   2   3
DOCKED: ATOM      3  P   UNL d   1      10.400 -17.251  15.850 -0.08 -0.02    -0.014 P 
DOCKED: ATOM      4  O   UNL d   1      11.223 -18.352  15.162 -0.01 -0.63    -0.577 OA
DOCKED: ATOM      5  O   UNL d   1       9.426 -17.834  16.872 +0.01 -0.70    -0.577 OA
DOCKED: ATOM      6  O   UNL d   1      11.295 -16.156  16.419 -0.45 -1.29    -0.638 OA
DOCKED: ENDBRANCH   2   3
DOCKED: ENDBRANCH   1   2
DOCKED: BRANCH   1   7
DOCKED: ATOM      7  C   UNL d   1       7.234 -17.310  13.962 +0.02 +0.28    +0.201 C 
DOCKED: BRANCH   7   8
DOCKED: ATOM      8  O   UNL d   1       6.088 -16.783  13.259 -0.13 -0.46    -0.364 OA
DOCKED: BRANCH   8   9
DOCKED: ATOM      9  P   UNL d   1       5.631 -17.436  11.809 -0.42 -0.02    -0.015 P 
DOCKED: ATOM     10  O   UNL d   1       5.646 -16.263  10.821 -0.34 -0.89    -0.577 OA
DOCKED: ATOM     11  O   UNL d   1       4.225 -18.004  11.999 -0.37 -0.38    -0.577 OA
DOCKED: ATOM     12  O   UNL d   1       6.664 -18.502  11.449 -0.59 -1.17    -0.638 OA
DOCKED: ENDBRANCH   8   9
DOCKED: ENDBRANCH   7   8
DOCKED: ENDBRANCH   1   7
DOCKED: BRANCH   1  13
DOCKED: ATOM     13  C   UNL d   1       7.798 -14.828  14.203 -0.09 +0.09    +0.073 C 
DOCKED: ATOM     14  O   UNL d   1       7.021 -14.047  14.857 +0.04 -0.39    -0.547 OA
DOCKED: ATOM     15  O   UNL d   1       8.423 -14.498  13.131 -0.11 -1.06    -0.547 OA
DOCKED: ENDBRANCH   1  13
DOCKED: TORSDOF 6
DOCKED: TER
DOCKED: ENDMDL
________________________________________________________________________________


	BEGINNING GENETIC ALGORITHM DOCKING 91 of 100
Run: 91 Seed: 1656286613 2117410758 [ Run 91 of 100 GA/GALS ]
Beginning LAMARCKIAN GENETIC ALGORITHM (LGA), with a maximum of 25000000 energy evaluations.

Final-Value: -7.298


	FINAL GENETIC ALGORITHM DOCKED STATE
	_______________________________________________


Detailed state:  trans 8.105 13.371 35.725 quatxyzw -0.038351 -0.302658 0.921901 0.238801 center 0.015 0.083 0.031 ntor 6 20.3239 -115.0068 -9.5503 38.7474 -7.8842 17.2600
State:	  8.105  13.371  35.725  -0.039 -0.312  0.949 152.368     20.32 -115.01   -9.55   38.75   -7.88   17.26

DOCKED: MODEL       91
DOCKED: USER    Run = 91
DOCKED: USER    DPF = D:/Protein_go_brrr/autodock/final/1A3N/2_3_BPG/dock.dpf
DOCKED: USER  
DOCKED: USER    Estimated Free Energy of Binding    =   -7.46 kcal/mol  [=(1)+(2)+(3)-(4)]
DOCKED: USER    Estimated Inhibition Constant, Ki   =    3.42 uM (micromolar)  [Temperature = 298.15 K]
DOCKED: USER    
DOCKED: USER    (1) Final Intermolecular Energy     =   -9.25 kcal/mol
DOCKED: USER        vdW + Hbond + desolv Energy     =   -3.20 kcal/mol
DOCKED: USER        Electrostatic Energy            =   -6.05 kcal/mol
DOCKED: USER    (2) Final Total Internal Energy     =   +1.95 kcal/mol
DOCKED: USER    (3) Torsional Free Energy           =   +1.79 kcal/mol
DOCKED: USER    (4) Unbound System's Energy  [=(2)] =   +1.95 kcal/mol
DOCKED: USER    
DOCKED: USER    
DOCKED: USER    NEWDPF move 2_3_BPG_opt.pdbqt
DOCKED: USER    NEWDPF about 0.015000 0.083000 0.031000
DOCKED: USER    NEWDPF tran0 8.105494 13.371079 35.724578
DOCKED: USER    NEWDPF quaternion0 -0.038351 -0.302658 0.921901 0.238801
DOCKED: USER    NEWDPF axisangle0 -0.039494 -0.311675 0.949368 152.368436
DOCKED: USER    NEWDPF quat0 -0.039494 -0.311675 0.949368 152.368436
DOCKED: USER    NEWDPF dihe0 20.32 -115.01 -9.55 38.75 -7.88 17.26 
DOCKED: USER  keepresnum = 1 
DOCKED: USER  
DOCKED: REMARK  6 active torsions:
DOCKED: REMARK  status: ('A' for Active; 'I' for Inactive)
DOCKED: REMARK    1  A    between atoms: P_1  and  O_3 
DOCKED: REMARK    2  A    between atoms: P_2  and  O_4 
DOCKED: REMARK    3  A    between atoms: O_3  and  C_13 
DOCKED: REMARK    4  A    between atoms: O_4  and  C_14 
DOCKED: REMARK    5  A    between atoms: C_13  and  C_14 
DOCKED: REMARK    6  A    between atoms: C_13  and  C_15 
DOCKED: USER                              x       y       z     vdW  Elec       q    Type
DOCKED: USER                           _______ _______ _______ _____ _____    ______ ____
DOCKED: ROOT
DOCKED: ATOM      1  C   UNL d   1       8.485  13.781  36.095 -0.07 +0.17    +0.193 C 
DOCKED: ENDROOT
DOCKED: BRANCH   1   2
DOCKED: ATOM      2  O   UNL d   1       9.735  14.029  35.367 -0.05 -0.27    -0.356 OA
DOCKED: BRANCH   2   3
DOCKED: ATOM      3  P   UNL d   1      11.104  13.147  35.597 -0.11 -0.02    -0.014 P 
DOCKED: ATOM      4  O   UNL d   1      10.704  11.713  35.217 -0.48 -0.87    -0.577 OA
DOCKED: ATOM      5  O   UNL d   1      11.468  13.256  37.076 -0.05 -0.65    -0.577 OA
DOCKED: ATOM      6  O   UNL d   1      12.179  13.695  34.665 -0.30 -0.93    -0.638 OA
DOCKED: ENDBRANCH   2   3
DOCKED: ENDBRANCH   1   2
DOCKED: BRANCH   1   7
DOCKED: ATOM      7  C   UNL d   1       7.470  13.068  35.127 -0.12 +0.21    +0.201 C 
DOCKED: BRANCH   7   8
DOCKED: ATOM      8  O   UNL d   1       6.206  12.684  35.712 -0.25 -0.52    -0.364 OA
DOCKED: BRANCH   8   9
DOCKED: ATOM      9  P   UNL d   1       5.016  12.036  34.763 -0.49 -0.02    -0.015 P 
DOCKED: ATOM     10  O   UNL d   1       3.924  11.589  35.742 -0.16 -0.48    -0.577 OA
DOCKED: ATOM     11  O   UNL d   1       5.634  10.853  34.018 -0.08 -0.29    -0.577 OA
DOCKED: ATOM     12  O   UNL d   1       4.530  13.143  33.828 -0.54 -1.02    -0.638 OA
DOCKED: ENDBRANCH   8   9
DOCKED: ENDBRANCH   7   8
DOCKED: ENDBRANCH   1   7
DOCKED: BRANCH   1  13
DOCKED: ATOM     13  C   UNL d   1       7.857  15.145  36.568 -0.08 +0.08    +0.073 C 
DOCKED: ATOM     14  O   UNL d   1       7.295  15.895  35.695 -0.42 -1.00    -0.547 OA
DOCKED: ATOM     15  O   UNL d   1       7.891  15.396  37.827 -0.01 -0.44    -0.547 OA
DOCKED: ENDBRANCH   1  13
DOCKED: TORSDOF 6
DOCKED: TER
DOCKED: ENDMDL
________________________________________________________________________________


	BEGINNING GENETIC ALGORITHM DOCKING 92 of 100
Run: 92 Seed: 1818137112 1984116543 [ Run 92 of 100 GA/GALS ]
Beginning LAMARCKIAN GENETIC ALGORITHM (LGA), with a maximum of 25000000 energy evaluations.

Final-Value: -7.145


	FINAL GENETIC ALGORITHM DOCKED STATE
	_______________________________________________


Detailed state:  trans 7.923 11.653 35.010 quatxyzw -0.120338 0.012577 0.577738 0.807204 center 0.015 0.083 0.031 ntor 6 67.1409 -67.7634 -80.7907 7.2474 88.6615 -49.7483
State:	  7.923  11.653  35.010  -0.204  0.021  0.979 72.353     67.14  -67.76  -80.79    7.25   88.66  -49.75

DOCKED: MODEL       92
DOCKED: USER    Run = 92
DOCKED: USER    DPF = D:/Protein_go_brrr/autodock/final/1A3N/2_3_BPG/dock.dpf
DOCKED: USER  
DOCKED: USER    Estimated Free Energy of Binding    =   -7.97 kcal/mol  [=(1)+(2)+(3)-(4)]
DOCKED: USER    Estimated Inhibition Constant, Ki   =    1.43 uM (micromolar)  [Temperature = 298.15 K]
DOCKED: USER    
DOCKED: USER    (1) Final Intermolecular Energy     =   -9.76 kcal/mol
DOCKED: USER        vdW + Hbond + desolv Energy     =   -3.33 kcal/mol
DOCKED: USER        Electrostatic Energy            =   -6.43 kcal/mol
DOCKED: USER    (2) Final Total Internal Energy     =   +2.62 kcal/mol
DOCKED: USER    (3) Torsional Free Energy           =   +1.79 kcal/mol
DOCKED: USER    (4) Unbound System's Energy  [=(2)] =   +2.62 kcal/mol
DOCKED: USER    
DOCKED: USER    
DOCKED: USER    NEWDPF move 2_3_BPG_opt.pdbqt
DOCKED: USER    NEWDPF about 0.015000 0.083000 0.031000
DOCKED: USER    NEWDPF tran0 7.923335 11.652959 35.010287
DOCKED: USER    NEWDPF quaternion0 -0.120338 0.012577 0.577738 0.807204
DOCKED: USER    NEWDPF axisangle0 -0.203868 0.021307 0.978766 72.352631
DOCKED: USER    NEWDPF quat0 -0.203868 0.021307 0.978766 72.352631
DOCKED: USER    NEWDPF dihe0 67.14 -67.76 -80.79 7.25 88.66 -49.75 
DOCKED: USER  keepresnum = 1 
DOCKED: USER  
DOCKED: REMARK  6 active torsions:
DOCKED: REMARK  status: ('A' for Active; 'I' for Inactive)
DOCKED: REMARK    1  A    between atoms: P_1  and  O_3 
DOCKED: REMARK    2  A    between atoms: P_2  and  O_4 
DOCKED: REMARK    3  A    between atoms: O_3  and  C_13 
DOCKED: REMARK    4  A    between atoms: O_4  and  C_14 
DOCKED: REMARK    5  A    between atoms: C_13  and  C_14 
DOCKED: REMARK    6  A    between atoms: C_13  and  C_15 
DOCKED: USER                              x       y       z     vdW  Elec       q    Type
DOCKED: USER                           _______ _______ _______ _____ _____    ______ ____
DOCKED: ROOT
DOCKED: ATOM      1  C   UNL d   1       7.424  12.090  35.105 -0.16 +0.15    +0.193 C 
DOCKED: ENDROOT
DOCKED: BRANCH   1   2
DOCKED: ATOM      2  O   UNL d   1       7.919  13.430  34.772 -0.06 -0.33    -0.356 OA
DOCKED: BRANCH   2   3
DOCKED: ATOM      3  P   UNL d   1       7.845  14.704  35.810 -0.10 -0.02    -0.014 P 
DOCKED: ATOM      4  O   UNL d   1       9.301  14.929  36.245 +0.02 -0.41    -0.577 OA
DOCKED: ATOM      5  O   UNL d   1       6.966  14.279  36.985 +0.06 -0.88    -0.577 OA
DOCKED: ATOM      6  O   UNL d   1       7.298  15.904  35.044 -0.43 -1.09    -0.638 OA
DOCKED: ENDBRANCH   2   3
DOCKED: ENDBRANCH   1   2
DOCKED: BRANCH   1   7
DOCKED: ATOM      7  C   UNL d   1       8.475  11.027  34.616 -0.20 +0.13    +0.201 C 
DOCKED: BRANCH   7   8
DOCKED: ATOM      8  O   UNL d   1       9.206  10.338  35.655 -0.56 -0.30    -0.364 OA
DOCKED: BRANCH   8   9
DOCKED: ATOM      9  P   UNL d   1      10.612  10.979  36.246 -0.22 -0.02    -0.015 P 
DOCKED: ATOM     10  O   UNL d   1      10.225  11.630  37.579 -0.00 -0.47    -0.577 OA
DOCKED: ATOM     11  O   UNL d   1      11.094  12.010  35.226 -0.50 -1.13    -0.577 OA
DOCKED: ATOM     12  O   UNL d   1      11.591   9.822  36.435 +0.01 -1.00    -0.638 OA
DOCKED: ENDBRANCH   8   9
DOCKED: ENDBRANCH   7   8
DOCKED: ENDBRANCH   1   7
DOCKED: BRANCH   1  13
DOCKED: ATOM     13  C   UNL d   1       6.057  11.822  34.371 -0.37 +0.06    +0.073 C 
DOCKED: ATOM     14  O   UNL d   1       5.980  10.828  33.566 -0.13 -0.24    -0.547 OA
DOCKED: ATOM     15  O   UNL d   1       5.073  12.588  34.674 -0.69 -0.88    -0.547 OA
DOCKED: ENDBRANCH   1  13
DOCKED: TORSDOF 6
DOCKED: TER
DOCKED: ENDMDL
________________________________________________________________________________


	BEGINNING GENETIC ALGORITHM DOCKING 93 of 100
Run: 93 Seed: 1080460929 401082272 [ Run 93 of 100 GA/GALS ]
Beginning LAMARCKIAN GENETIC ALGORITHM (LGA), with a maximum of 25000000 energy evaluations.

Final-Value: -7.616


	FINAL GENETIC ALGORITHM DOCKED STATE
	_______________________________________________


Detailed state:  trans 7.508 -15.076 13.686 quatxyzw 0.939387 -0.036340 0.325746 0.100609 center 0.015 0.083 0.031 ntor 6 32.7103 30.6773 -55.8891 29.7360 22.1982 -19.9784
State:	  7.508 -15.076  13.686   0.944 -0.037  0.327 168.452     32.71   30.68  -55.89   29.74   22.20  -19.98

DOCKED: MODEL       93
DOCKED: USER    Run = 93
DOCKED: USER    DPF = D:/Protein_go_brrr/autodock/final/1A3N/2_3_BPG/dock.dpf
DOCKED: USER  
DOCKED: USER    Estimated Free Energy of Binding    =   -7.82 kcal/mol  [=(1)+(2)+(3)-(4)]
DOCKED: USER    Estimated Inhibition Constant, Ki   =    1.85 uM (micromolar)  [Temperature = 298.15 K]
DOCKED: USER    
DOCKED: USER    (1) Final Intermolecular Energy     =   -9.61 kcal/mol
DOCKED: USER        vdW + Hbond + desolv Energy     =   -3.53 kcal/mol
DOCKED: USER        Electrostatic Energy            =   -6.09 kcal/mol
DOCKED: USER    (2) Final Total Internal Energy     =   +2.00 kcal/mol
DOCKED: USER    (3) Torsional Free Energy           =   +1.79 kcal/mol
DOCKED: USER    (4) Unbound System's Energy  [=(2)] =   +2.00 kcal/mol
DOCKED: USER    
DOCKED: USER    
DOCKED: USER    NEWDPF move 2_3_BPG_opt.pdbqt
DOCKED: USER    NEWDPF about 0.015000 0.083000 0.031000
DOCKED: USER    NEWDPF tran0 7.508465 -15.076117 13.685589
DOCKED: USER    NEWDPF quaternion0 0.939387 -0.036340 0.325746 0.100609
DOCKED: USER    NEWDPF axisangle0 0.944177 -0.036525 0.327407 168.451533
DOCKED: USER    NEWDPF quat0 0.944177 -0.036525 0.327407 168.451533
DOCKED: USER    NEWDPF dihe0 32.71 30.68 -55.89 29.74 22.20 -19.98 
DOCKED: USER  keepresnum = 1 
DOCKED: USER  
DOCKED: REMARK  6 active torsions:
DOCKED: REMARK  status: ('A' for Active; 'I' for Inactive)
DOCKED: REMARK    1  A    between atoms: P_1  and  O_3 
DOCKED: REMARK    2  A    between atoms: P_2  and  O_4 
DOCKED: REMARK    3  A    between atoms: O_3  and  C_13 
DOCKED: REMARK    4  A    between atoms: O_4  and  C_14 
DOCKED: REMARK    5  A    between atoms: C_13  and  C_14 
DOCKED: REMARK    6  A    between atoms: C_13  and  C_15 
DOCKED: USER                              x       y       z     vdW  Elec       q    Type
DOCKED: USER                           _______ _______ _______ _____ _____    ______ ____
DOCKED: ROOT
DOCKED: ATOM      1  C   UNL d   1       7.107 -14.677  13.326 -0.00 +0.27    +0.193 C 
DOCKED: ENDROOT
DOCKED: BRANCH   1   2
DOCKED: ATOM      2  O   UNL d   1       5.882 -15.423  13.015 -0.08 -0.40    -0.356 OA
DOCKED: BRANCH   2   3
DOCKED: ATOM      3  P   UNL d   1       5.584 -16.096  11.545 -0.46 -0.02    -0.014 P 
DOCKED: ATOM      4  O   UNL d   1       4.051 -16.139  11.447 -0.03 -0.43    -0.577 OA
DOCKED: ATOM      5  O   UNL d   1       6.185 -17.500  11.559 -0.56 -1.19    -0.577 OA
DOCKED: ATOM      6  O   UNL d   1       6.188 -15.187  10.479 -0.26 -1.02    -0.638 OA
DOCKED: ENDBRANCH   2   3
DOCKED: ENDBRANCH   1   2
DOCKED: BRANCH   1   7
DOCKED: ATOM      7  C   UNL d   1       7.927 -15.480  14.403 -0.00 +0.27    +0.201 C 
DOCKED: BRANCH   7   8
DOCKED: ATOM      8  O   UNL d   1       9.358 -15.511  14.210 -0.61 -0.57    -0.364 OA
DOCKED: BRANCH   8   9
DOCKED: ATOM      9  P   UNL d   1      10.252 -16.756  14.832 -0.11 -0.02    -0.015 P 
DOCKED: ATOM     10  O   UNL d   1      11.048 -17.308  13.644 -0.05 -0.72    -0.577 OA
DOCKED: ATOM     11  O   UNL d   1       9.264 -17.783  15.384 +0.00 -0.60    -0.577 OA
DOCKED: ATOM     12  O   UNL d   1      11.163 -16.165  15.908 -0.49 -0.98    -0.638 OA
DOCKED: ENDBRANCH   8   9
DOCKED: ENDBRANCH   7   8
DOCKED: ENDBRANCH   1   7
DOCKED: BRANCH   1  13
DOCKED: ATOM     13  C   UNL d   1       6.743 -13.265  13.919 -0.20 +0.05    +0.073 C 
DOCKED: ATOM     14  O   UNL d   1       6.534 -13.167  15.179 +0.03 -0.29    -0.547 OA
DOCKED: ATOM     15  O   UNL d   1       6.739 -12.274  13.103 -0.70 -0.45    -0.547 OA
DOCKED: ENDBRANCH   1  13
DOCKED: TORSDOF 6
DOCKED: TER
DOCKED: ENDMDL
________________________________________________________________________________


	BEGINNING GENETIC ALGORITHM DOCKING 94 of 100
Run: 94 Seed: 6530611 1594927889 [ Run 94 of 100 GA/GALS ]
Beginning LAMARCKIAN GENETIC ALGORITHM (LGA), with a maximum of 25000000 energy evaluations.

Final-Value: -7.599


	FINAL GENETIC ALGORITHM DOCKED STATE
	_______________________________________________


Detailed state:  trans 8.351 -15.037 14.990 quatxyzw 0.027364 -0.825539 -0.308873 0.471523 center 0.015 0.083 0.031 ntor 6 -29.4475 164.9980 -158.6045 -9.0811 43.3361 32.5145
State:	  8.351 -15.037  14.990   0.031 -0.936 -0.350 123.734    -29.45  165.00 -158.60   -9.08   43.34   32.51

DOCKED: MODEL       94
DOCKED: USER    Run = 94
DOCKED: USER    DPF = D:/Protein_go_brrr/autodock/final/1A3N/2_3_BPG/dock.dpf
DOCKED: USER  
DOCKED: USER    Estimated Free Energy of Binding    =   -7.96 kcal/mol  [=(1)+(2)+(3)-(4)]
DOCKED: USER    Estimated Inhibition Constant, Ki   =    1.47 uM (micromolar)  [Temperature = 298.15 K]
DOCKED: USER    
DOCKED: USER    (1) Final Intermolecular Energy     =   -9.75 kcal/mol
DOCKED: USER        vdW + Hbond + desolv Energy     =   -2.59 kcal/mol
DOCKED: USER        Electrostatic Energy            =   -7.16 kcal/mol
DOCKED: USER    (2) Final Total Internal Energy     =   +2.15 kcal/mol
DOCKED: USER    (3) Torsional Free Energy           =   +1.79 kcal/mol
DOCKED: USER    (4) Unbound System's Energy  [=(2)] =   +2.15 kcal/mol
DOCKED: USER    
DOCKED: USER    
DOCKED: USER    NEWDPF move 2_3_BPG_opt.pdbqt
DOCKED: USER    NEWDPF about 0.015000 0.083000 0.031000
DOCKED: USER    NEWDPF tran0 8.350628 -15.036646 14.989619
DOCKED: USER    NEWDPF quaternion0 0.027364 -0.825539 -0.308873 0.471523
DOCKED: USER    NEWDPF axisangle0 0.031030 -0.936140 -0.350255 123.733632
DOCKED: USER    NEWDPF quat0 0.031030 -0.936140 -0.350255 123.733632
DOCKED: USER    NEWDPF dihe0 -29.45 165.00 -158.60 -9.08 43.34 32.51 
DOCKED: USER  keepresnum = 1 
DOCKED: USER  
DOCKED: REMARK  6 active torsions:
DOCKED: REMARK  status: ('A' for Active; 'I' for Inactive)
DOCKED: REMARK    1  A    between atoms: P_1  and  O_3 
DOCKED: REMARK    2  A    between atoms: P_2  and  O_4 
DOCKED: REMARK    3  A    between atoms: O_3  and  C_13 
DOCKED: REMARK    4  A    between atoms: O_4  and  C_14 
DOCKED: REMARK    5  A    between atoms: C_13  and  C_14 
DOCKED: REMARK    6  A    between atoms: C_13  and  C_15 
DOCKED: USER                              x       y       z     vdW  Elec       q    Type
DOCKED: USER                           _______ _______ _______ _____ _____    ______ ____
DOCKED: ROOT
DOCKED: ATOM      1  C   UNL d   1       8.851 -15.383  15.271 -0.03 +0.20    +0.193 C 
DOCKED: ENDROOT
DOCKED: BRANCH   1   2
DOCKED: ATOM      2  O   UNL d   1       8.674 -15.341  16.727 -0.00 -0.30    -0.356 OA
DOCKED: BRANCH   2   3
DOCKED: ATOM      3  P   UNL d   1       9.925 -15.197  17.784 -0.13 -0.02    -0.014 P 
DOCKED: ATOM      4  O   UNL d   1      11.163 -15.613  16.973 -0.37 -1.18    -0.577 OA
DOCKED: ATOM      5  O   UNL d   1       9.658 -16.163  18.937 -0.37 -1.00    -0.577 OA
DOCKED: ATOM      6  O   UNL d   1      10.007 -13.738  18.221 +0.01 -0.49    -0.638 OA
DOCKED: ENDBRANCH   2   3
DOCKED: ENDBRANCH   1   2
DOCKED: BRANCH   1   7
DOCKED: ATOM      7  C   UNL d   1       7.545 -14.833  14.588 -0.05 +0.20    +0.201 C 
DOCKED: BRANCH   7   8
DOCKED: ATOM      8  O   UNL d   1       7.438 -15.051  13.164 +0.05 -0.71    -0.364 OA
DOCKED: BRANCH   8   9
DOCKED: ATOM      9  P   UNL d   1       6.974 -13.815  12.167 -0.40 -0.02    -0.015 P 
DOCKED: ATOM     10  O   UNL d   1       7.324 -12.533  12.932 -0.51 -0.56    -0.577 OA
DOCKED: ATOM     11  O   UNL d   1       5.468 -13.958  11.951 -0.07 -0.47    -0.577 OA
DOCKED: ATOM     12  O   UNL d   1       7.779 -13.950  10.875 -0.47 -1.30    -0.638 OA
DOCKED: ENDBRANCH   8   9
DOCKED: ENDBRANCH   7   8
DOCKED: ENDBRANCH   1   7
DOCKED: BRANCH   1  13
DOCKED: ATOM     13  C   UNL d   1       9.081 -16.867  14.797 -0.07 +0.09    +0.073 C 
DOCKED: ATOM     14  O   UNL d   1       8.638 -17.818  15.531 +0.01 -0.51    -0.547 OA
DOCKED: ATOM     15  O   UNL d   1       9.651 -17.033  13.659 -0.19 -1.11    -0.547 OA
DOCKED: ENDBRANCH   1  13
DOCKED: TORSDOF 6
DOCKED: TER
DOCKED: ENDMDL
________________________________________________________________________________


	BEGINNING GENETIC ALGORITHM DOCKING 95 of 100
Run: 95 Seed: 899619743 1015767328 [ Run 95 of 100 GA/GALS ]
Beginning LAMARCKIAN GENETIC ALGORITHM (LGA), with a maximum of 25000000 energy evaluations.

Final-Value: -7.955


	FINAL GENETIC ALGORITHM DOCKED STATE
	_______________________________________________


Detailed state:  trans 6.402 -14.761 13.846 quatxyzw 0.003870 -0.305519 -0.951541 -0.034827 center 0.015 0.083 0.031 ntor 6 167.2950 -98.7230 -72.0203 -10.2081 -60.6269 122.3740
State:	  6.402 -14.761  13.846   0.004 -0.306 -0.952 -176.008    167.29  -98.72  -72.02  -10.21  -60.63  122.37

DOCKED: MODEL       95
DOCKED: USER    Run = 95
DOCKED: USER    DPF = D:/Protein_go_brrr/autodock/final/1A3N/2_3_BPG/dock.dpf
DOCKED: USER  
DOCKED: USER    Estimated Free Energy of Binding    =   -8.65 kcal/mol  [=(1)+(2)+(3)-(4)]
DOCKED: USER    Estimated Inhibition Constant, Ki   =  454.41 nM (nanomolar)  [Temperature = 298.15 K]
DOCKED: USER    
DOCKED: USER    (1) Final Intermolecular Energy     =  -10.44 kcal/mol
DOCKED: USER        vdW + Hbond + desolv Energy     =   -4.46 kcal/mol
DOCKED: USER        Electrostatic Energy            =   -5.98 kcal/mol
DOCKED: USER    (2) Final Total Internal Energy     =   +2.49 kcal/mol
DOCKED: USER    (3) Torsional Free Energy           =   +1.79 kcal/mol
DOCKED: USER    (4) Unbound System's Energy  [=(2)] =   +2.49 kcal/mol
DOCKED: USER    
DOCKED: USER    
DOCKED: USER    NEWDPF move 2_3_BPG_opt.pdbqt
DOCKED: USER    NEWDPF about 0.015000 0.083000 0.031000
DOCKED: USER    NEWDPF tran0 6.402381 -14.761351 13.845546
DOCKED: USER    NEWDPF quaternion0 0.003870 -0.305519 -0.951541 -0.034827
DOCKED: USER    NEWDPF axisangle0 0.003872 -0.305704 -0.952119 -176.008302
DOCKED: USER    NEWDPF quat0 0.003872 -0.305704 -0.952119 -176.008302
DOCKED: USER    NEWDPF dihe0 167.29 -98.72 -72.02 -10.21 -60.63 122.37 
DOCKED: USER  keepresnum = 1 
DOCKED: USER  
DOCKED: REMARK  6 active torsions:
DOCKED: REMARK  status: ('A' for Active; 'I' for Inactive)
DOCKED: REMARK    1  A    between atoms: P_1  and  O_3 
DOCKED: REMARK    2  A    between atoms: P_2  and  O_4 
DOCKED: REMARK    3  A    between atoms: O_3  and  C_13 
DOCKED: REMARK    4  A    between atoms: O_4  and  C_14 
DOCKED: REMARK    5  A    between atoms: C_13  and  C_14 
DOCKED: REMARK    6  A    between atoms: C_13  and  C_15 
DOCKED: USER                              x       y       z     vdW  Elec       q    Type
DOCKED: USER                           _______ _______ _______ _____ _____    ______ ____
DOCKED: ROOT
DOCKED: ATOM      1  C   UNL d   1       6.964 -14.414  13.732 -0.11 +0.21    +0.193 C 
DOCKED: ENDROOT
DOCKED: BRANCH   1   2
DOCKED: ATOM      2  O   UNL d   1       8.081 -15.363  13.658 -0.19 -0.72    -0.356 OA
DOCKED: BRANCH   2   3
DOCKED: ATOM      3  P   UNL d   1       9.578 -15.043  14.259 -0.05 -0.02    -0.014 P 
DOCKED: ATOM      4  O   UNL d   1       9.431 -15.234  15.777 +0.01 -0.57    -0.577 OA
DOCKED: ATOM      5  O   UNL d   1       9.908 -13.595  13.905 -0.01 -0.55    -0.577 OA
DOCKED: ATOM      6  O   UNL d   1      10.552 -16.053  13.660 -0.36 -1.00    -0.638 OA
DOCKED: ENDBRANCH   2   3
DOCKED: ENDBRANCH   1   2
DOCKED: BRANCH   1   7
DOCKED: ATOM      7  C   UNL d   1       5.614 -15.221  13.706 -0.12 +0.16    +0.201 C 
DOCKED: BRANCH   7   8
DOCKED: ATOM      8  O   UNL d   1       5.190 -15.699  12.410 -0.16 -0.35    -0.364 OA
DOCKED: BRANCH   8   9
DOCKED: ATOM      9  P   UNL d   1       4.933 -17.315  12.165 -0.56 -0.01    -0.015 P 
DOCKED: ATOM     10  O   UNL d   1       3.416 -17.457  11.999 -0.64 -0.34    -0.577 OA
DOCKED: ATOM     11  O   UNL d   1       5.442 -18.041  13.410 -0.01 -0.41    -0.577 OA
DOCKED: ATOM     12  O   UNL d   1       5.688 -17.703  10.895 -0.86 -1.00    -0.638 OA
DOCKED: ENDBRANCH   8   9
DOCKED: ENDBRANCH   7   8
DOCKED: ENDBRANCH   1   7
DOCKED: BRANCH   1  13
DOCKED: ATOM     13  C   UNL d   1       6.997 -13.446  12.491 -0.35 +0.08    +0.073 C 
DOCKED: ATOM     14  O   UNL d   1       6.739 -12.205  12.677 -0.64 -0.48    -0.547 OA
DOCKED: ATOM     15  O   UNL d   1       7.345 -13.953  11.365 -0.40 -0.96    -0.547 OA
DOCKED: ENDBRANCH   1  13
DOCKED: TORSDOF 6
DOCKED: TER
DOCKED: ENDMDL
________________________________________________________________________________


	BEGINNING GENETIC ALGORITHM DOCKING 96 of 100
Run: 96 Seed: 1394702720 1162098689 [ Run 96 of 100 GA/GALS ]
Beginning LAMARCKIAN GENETIC ALGORITHM (LGA), with a maximum of 25000000 energy evaluations.

Final-Value: -7.875


	FINAL GENETIC ALGORITHM DOCKED STATE
	_______________________________________________


Detailed state:  trans 6.740 -14.854 13.773 quatxyzw 0.729616 -0.050388 0.537874 -0.419300 center 0.015 0.083 0.031 ntor 6 -135.5412 103.5244 -123.8989 2.7268 -180.0000 -23.2270
State:	  6.740 -14.854  13.773   0.804 -0.056  0.592 -130.419   -135.54  103.52 -123.90    2.73 -180.00  -23.23

DOCKED: MODEL       96
DOCKED: USER    Run = 96
DOCKED: USER    DPF = D:/Protein_go_brrr/autodock/final/1A3N/2_3_BPG/dock.dpf
DOCKED: USER  
DOCKED: USER    Estimated Free Energy of Binding    =   -8.95 kcal/mol  [=(1)+(2)+(3)-(4)]
DOCKED: USER    Estimated Inhibition Constant, Ki   =  272.90 nM (nanomolar)  [Temperature = 298.15 K]
DOCKED: USER    
DOCKED: USER    (1) Final Intermolecular Energy     =  -10.74 kcal/mol
DOCKED: USER        vdW + Hbond + desolv Energy     =   -4.20 kcal/mol
DOCKED: USER        Electrostatic Energy            =   -6.54 kcal/mol
DOCKED: USER    (2) Final Total Internal Energy     =   +2.87 kcal/mol
DOCKED: USER    (3) Torsional Free Energy           =   +1.79 kcal/mol
DOCKED: USER    (4) Unbound System's Energy  [=(2)] =   +2.87 kcal/mol
DOCKED: USER    
DOCKED: USER    
DOCKED: USER    NEWDPF move 2_3_BPG_opt.pdbqt
DOCKED: USER    NEWDPF about 0.015000 0.083000 0.031000
DOCKED: USER    NEWDPF tran0 6.740002 -14.854202 13.772804
DOCKED: USER    NEWDPF quaternion0 0.729616 -0.050388 0.537874 -0.419300
DOCKED: USER    NEWDPF axisangle0 0.803677 -0.055503 0.592472 -130.419145
DOCKED: USER    NEWDPF quat0 0.803677 -0.055503 0.592472 -130.419145
DOCKED: USER    NEWDPF dihe0 -135.54 103.52 -123.90 2.73 -180.00 -23.23 
DOCKED: USER  keepresnum = 1 
DOCKED: USER  
DOCKED: REMARK  6 active torsions:
DOCKED: REMARK  status: ('A' for Active; 'I' for Inactive)
DOCKED: REMARK    1  A    between atoms: P_1  and  O_3 
DOCKED: REMARK    2  A    between atoms: P_2  and  O_4 
DOCKED: REMARK    3  A    between atoms: O_3  and  C_13 
DOCKED: REMARK    4  A    between atoms: O_4  and  C_14 
DOCKED: REMARK    5  A    between atoms: C_13  and  C_14 
DOCKED: REMARK    6  A    between atoms: C_13  and  C_15 
DOCKED: USER                              x       y       z     vdW  Elec       q    Type
DOCKED: USER                           _______ _______ _______ _____ _____    ______ ____
DOCKED: ROOT
DOCKED: ATOM      1  C   UNL d   1       6.729 -14.937  13.108 -0.07 +0.27    +0.193 C 
DOCKED: ENDROOT
DOCKED: BRANCH   1   2
DOCKED: ATOM      2  O   UNL d   1       5.396 -15.418  12.729 -0.12 -0.34    -0.356 OA
DOCKED: BRANCH   2   3
DOCKED: ATOM      3  P   UNL d   1       5.148 -16.733  11.773 -0.55 -0.02    -0.014 P 
DOCKED: ATOM      4  O   UNL d   1       5.361 -16.213  10.343 -0.20 -0.77    -0.577 OA
DOCKED: ATOM      5  O   UNL d   1       3.709 -17.191  11.997 -0.57 -0.37    -0.577 OA
DOCKED: ATOM      6  O   UNL d   1       6.186 -17.788  12.145 -0.53 -1.07    -0.638 OA
DOCKED: ENDBRANCH   2   3
DOCKED: ENDBRANCH   1   2
DOCKED: BRANCH   1   7
DOCKED: ATOM      7  C   UNL d   1       6.687 -14.463  14.607 -0.06 +0.15    +0.201 C 
DOCKED: BRANCH   7   8
DOCKED: ATOM      8  O   UNL d   1       7.803 -14.872  15.429 -0.00 -0.29    -0.364 OA
DOCKED: BRANCH   8   9
DOCKED: ATOM      9  P   UNL d   1       9.059 -15.718  14.761 -0.08 -0.02    -0.015 P 
DOCKED: ATOM     10  O   UNL d   1       9.598 -14.816  13.645 -0.42 -0.95    -0.577 OA
DOCKED: ATOM     11  O   UNL d   1       8.477 -17.020  14.212 -0.26 -0.93    -0.577 OA
DOCKED: ATOM     12  O   UNL d   1      10.090 -15.942  15.867 -0.04 -0.76    -0.638 OA
DOCKED: ENDBRANCH   8   9
DOCKED: ENDBRANCH   7   8
DOCKED: ENDBRANCH   1   7
DOCKED: BRANCH   1  13
DOCKED: ATOM     13  C   UNL d   1       7.138 -13.715  12.204 -0.32 +0.10    +0.073 C 
DOCKED: ATOM     14  O   UNL d   1       7.619 -13.949  11.040 -0.49 -1.06    -0.547 OA
DOCKED: ATOM     15  O   UNL d   1       6.903 -12.541  12.669 -0.51 -0.51    -0.547 OA
DOCKED: ENDBRANCH   1  13
DOCKED: TORSDOF 6
DOCKED: TER
DOCKED: ENDMDL
________________________________________________________________________________


	BEGINNING GENETIC ALGORITHM DOCKING 97 of 100
Run: 97 Seed: 1637012274 1605358146 [ Run 97 of 100 GA/GALS ]
Beginning LAMARCKIAN GENETIC ALGORITHM (LGA), with a maximum of 25000000 energy evaluations.

Final-Value: -7.670


	FINAL GENETIC ALGORITHM DOCKED STATE
	_______________________________________________


Detailed state:  trans 7.458 -16.377 14.548 quatxyzw 0.192085 -0.104974 -0.971137 -0.094748 center 0.015 0.083 0.031 ntor 6 158.6437 -48.7809 30.2359 25.2060 -28.6308 76.3199
State:	  7.458 -16.377  14.548   0.193 -0.105 -0.976 -169.126    158.64  -48.78   30.24   25.21  -28.63   76.32

DOCKED: MODEL       97
DOCKED: USER    Run = 97
DOCKED: USER    DPF = D:/Protein_go_brrr/autodock/final/1A3N/2_3_BPG/dock.dpf
DOCKED: USER  
DOCKED: USER    Estimated Free Energy of Binding    =   -7.98 kcal/mol  [=(1)+(2)+(3)-(4)]
DOCKED: USER    Estimated Inhibition Constant, Ki   =    1.41 uM (micromolar)  [Temperature = 298.15 K]
DOCKED: USER    
DOCKED: USER    (1) Final Intermolecular Energy     =   -9.77 kcal/mol
DOCKED: USER        vdW + Hbond + desolv Energy     =   -2.90 kcal/mol
DOCKED: USER        Electrostatic Energy            =   -6.88 kcal/mol
DOCKED: USER    (2) Final Total Internal Energy     =   +2.10 kcal/mol
DOCKED: USER    (3) Torsional Free Energy           =   +1.79 kcal/mol
DOCKED: USER    (4) Unbound System's Energy  [=(2)] =   +2.10 kcal/mol
DOCKED: USER    
DOCKED: USER    
DOCKED: USER    NEWDPF move 2_3_BPG_opt.pdbqt
DOCKED: USER    NEWDPF about 0.015000 0.083000 0.031000
DOCKED: USER    NEWDPF tran0 7.457858 -16.376666 14.547600
DOCKED: USER    NEWDPF quaternion0 0.192085 -0.104974 -0.971137 -0.094748
DOCKED: USER    NEWDPF axisangle0 0.192953 -0.105448 -0.975525 -169.126387
DOCKED: USER    NEWDPF quat0 0.192953 -0.105448 -0.975525 -169.126387
DOCKED: USER    NEWDPF dihe0 158.64 -48.78 30.24 25.21 -28.63 76.32 
DOCKED: USER  keepresnum = 1 
DOCKED: USER  
DOCKED: REMARK  6 active torsions:
DOCKED: REMARK  status: ('A' for Active; 'I' for Inactive)
DOCKED: REMARK    1  A    between atoms: P_1  and  O_3 
DOCKED: REMARK    2  A    between atoms: P_2  and  O_4 
DOCKED: REMARK    3  A    between atoms: O_3  and  C_13 
DOCKED: REMARK    4  A    between atoms: O_4  and  C_14 
DOCKED: REMARK    5  A    between atoms: C_13  and  C_14 
DOCKED: REMARK    6  A    between atoms: C_13  and  C_15 
DOCKED: USER                              x       y       z     vdW  Elec       q    Type
DOCKED: USER                           _______ _______ _______ _____ _____    ______ ____
DOCKED: ROOT
DOCKED: ATOM      1  C   UNL d   1       7.909 -15.930  14.764 -0.04 +0.22    +0.193 C 
DOCKED: ENDROOT
DOCKED: BRANCH   1   2
DOCKED: ATOM      2  O   UNL d   1       9.230 -16.568  14.745 -0.23 -0.47    -0.356 OA
DOCKED: BRANCH   2   3
DOCKED: ATOM      3  P   UNL d   1      10.028 -17.032  16.106 -0.08 -0.02    -0.014 P 
DOCKED: ATOM      4  O   UNL d   1      10.380 -18.508  15.859 -0.00 -0.66    -0.577 OA
DOCKED: ATOM      5  O   UNL d   1       9.058 -16.874  17.275 -0.00 -0.66    -0.577 OA
DOCKED: ATOM      6  O   UNL d   1      11.280 -16.172  16.234 -0.47 -1.19    -0.638 OA
DOCKED: ENDBRANCH   2   3
DOCKED: ENDBRANCH   1   2
DOCKED: BRANCH   1   7
DOCKED: ATOM      7  C   UNL d   1       6.892 -16.851  13.994 -0.01 +0.26    +0.201 C 
DOCKED: BRANCH   7   8
DOCKED: ATOM      8  O   UNL d   1       6.183 -16.230  12.899 -0.11 -0.54    -0.364 OA
DOCKED: BRANCH   8   9
DOCKED: ATOM      9  P   UNL d   1       5.605 -17.154  11.654 -0.39 -0.02    -0.015 P 
DOCKED: ATOM     10  O   UNL d   1       5.696 -16.255  10.415 -0.25 -0.89    -0.577 OA
DOCKED: ATOM     11  O   UNL d   1       4.159 -17.510  11.997 -0.43 -0.40    -0.577 OA
DOCKED: ATOM     12  O   UNL d   1       6.512 -18.378  11.542 -0.64 -1.14    -0.638 OA
DOCKED: ENDBRANCH   8   9
DOCKED: ENDBRANCH   7   8
DOCKED: ENDBRANCH   1   7
DOCKED: BRANCH   1  13
DOCKED: ATOM     13  C   UNL d   1       7.973 -14.534  14.039 -0.09 +0.09    +0.073 C 
DOCKED: ATOM     14  O   UNL d   1       7.208 -13.594  14.453 +0.01 -0.41    -0.547 OA
DOCKED: ATOM     15  O   UNL d   1       8.845 -14.402  13.106 -0.16 -1.03    -0.547 OA
DOCKED: ENDBRANCH   1  13
DOCKED: TORSDOF 6
DOCKED: TER
DOCKED: ENDMDL
________________________________________________________________________________


	BEGINNING GENETIC ALGORITHM DOCKING 98 of 100
Run: 98 Seed: 1610069509 2119265717 [ Run 98 of 100 GA/GALS ]
Beginning LAMARCKIAN GENETIC ALGORITHM (LGA), with a maximum of 25000000 energy evaluations.

Final-Value: -6.991


	FINAL GENETIC ALGORITHM DOCKED STATE
	_______________________________________________


Detailed state:  trans 8.107 13.426 34.560 quatxyzw 0.131550 0.368430 -0.893131 -0.221970 center 0.015 0.083 0.031 ntor 6 28.8034 -123.0510 2.3894 14.8624 88.3207 37.3470
State:	  8.107  13.426  34.560   0.135  0.378 -0.916 -154.350     28.80 -123.05    2.39   14.86   88.32   37.35

DOCKED: MODEL       98
DOCKED: USER    Run = 98
DOCKED: USER    DPF = D:/Protein_go_brrr/autodock/final/1A3N/2_3_BPG/dock.dpf
DOCKED: USER  
DOCKED: USER    Estimated Free Energy of Binding    =   -7.43 kcal/mol  [=(1)+(2)+(3)-(4)]
DOCKED: USER    Estimated Inhibition Constant, Ki   =    3.57 uM (micromolar)  [Temperature = 298.15 K]
DOCKED: USER    
DOCKED: USER    (1) Final Intermolecular Energy     =   -9.22 kcal/mol
DOCKED: USER        vdW + Hbond + desolv Energy     =   -3.31 kcal/mol
DOCKED: USER        Electrostatic Energy            =   -5.91 kcal/mol
DOCKED: USER    (2) Final Total Internal Energy     =   +2.23 kcal/mol
DOCKED: USER    (3) Torsional Free Energy           =   +1.79 kcal/mol
DOCKED: USER    (4) Unbound System's Energy  [=(2)] =   +2.23 kcal/mol
DOCKED: USER    
DOCKED: USER    
DOCKED: USER    NEWDPF move 2_3_BPG_opt.pdbqt
DOCKED: USER    NEWDPF about 0.015000 0.083000 0.031000
DOCKED: USER    NEWDPF tran0 8.107441 13.426283 34.560455
DOCKED: USER    NEWDPF quaternion0 0.131550 0.368430 -0.893131 -0.221970
DOCKED: USER    NEWDPF axisangle0 0.134916 0.377856 -0.915982 -154.350484
DOCKED: USER    NEWDPF quat0 0.134916 0.377856 -0.915982 -154.350484
DOCKED: USER    NEWDPF dihe0 28.80 -123.05 2.39 14.86 88.32 37.35 
DOCKED: USER  keepresnum = 1 
DOCKED: USER  
DOCKED: REMARK  6 active torsions:
DOCKED: REMARK  status: ('A' for Active; 'I' for Inactive)
DOCKED: REMARK    1  A    between atoms: P_1  and  O_3 
DOCKED: REMARK    2  A    between atoms: P_2  and  O_4 
DOCKED: REMARK    3  A    between atoms: O_3  and  C_13 
DOCKED: REMARK    4  A    between atoms: O_4  and  C_14 
DOCKED: REMARK    5  A    between atoms: C_13  and  C_14 
DOCKED: REMARK    6  A    between atoms: C_13  and  C_15 
DOCKED: USER                              x       y       z     vdW  Elec       q    Type
DOCKED: USER                           _______ _______ _______ _____ _____    ______ ____
DOCKED: ROOT
DOCKED: ATOM      1  C   UNL d   1       8.455  13.732  35.046 -0.10 +0.17    +0.193 C 
DOCKED: ENDROOT
DOCKED: BRANCH   1   2
DOCKED: ATOM      2  O   UNL d   1       9.805  14.004  34.539 -0.09 -0.26    -0.356 OA
DOCKED: BRANCH   2   3
DOCKED: ATOM      3  P   UNL d   1      11.164  13.354  35.197 -0.18 -0.02    -0.014 P 
DOCKED: ATOM      4  O   UNL d   1      10.892  11.841  35.222 -0.47 -1.00    -0.577 OA
DOCKED: ATOM      5  O   UNL d   1      11.301  13.923  36.608 -0.05 -0.55    -0.577 OA
DOCKED: ATOM      6  O   UNL d   1      12.339  13.696  34.287 -0.18 -0.88    -0.638 OA
DOCKED: ENDBRANCH   2   3
DOCKED: ENDBRANCH   1   2
DOCKED: BRANCH   1   7
DOCKED: ATOM      7  C   UNL d   1       7.545  13.287  33.842 -0.18 +0.17    +0.201 C 
DOCKED: BRANCH   7   8
DOCKED: ATOM      8  O   UNL d   1       6.120  13.342  34.075 -0.45 -0.56    -0.364 OA
DOCKED: BRANCH   8   9
DOCKED: ATOM      9  P   UNL d   1       5.333  12.038  34.720 -0.48 -0.02    -0.015 P 
DOCKED: ATOM     10  O   UNL d   1       3.848  12.422  34.708 -0.47 -0.73    -0.577 OA
DOCKED: ATOM     11  O   UNL d   1       5.863  11.855  36.142 -0.06 -0.55    -0.577 OA
DOCKED: ATOM     12  O   UNL d   1       5.623  10.843  33.814 -0.02 -0.30    -0.638 OA
DOCKED: ENDBRANCH   8   9
DOCKED: ENDBRANCH   7   8
DOCKED: ENDBRANCH   1   7
DOCKED: BRANCH   1  13
DOCKED: ATOM     13  C   UNL d   1       7.845  15.035  35.684 -0.09 +0.09    +0.073 C 
DOCKED: ATOM     14  O   UNL d   1       7.302  15.899  34.910 -0.45 -0.91    -0.547 OA
DOCKED: ATOM     15  O   UNL d   1       7.872  15.124  36.965 -0.04 -0.57    -0.547 OA
DOCKED: ENDBRANCH   1  13
DOCKED: TORSDOF 6
DOCKED: TER
DOCKED: ENDMDL
________________________________________________________________________________


	BEGINNING GENETIC ALGORITHM DOCKING 99 of 100
Run: 99 Seed: 1686647582 842002210 [ Run 99 of 100 GA/GALS ]
Beginning LAMARCKIAN GENETIC ALGORITHM (LGA), with a maximum of 25000000 energy evaluations.

Final-Value: -7.506


	FINAL GENETIC ALGORITHM DOCKED STATE
	_______________________________________________


Detailed state:  trans 7.914 -14.931 14.944 quatxyzw 0.102653 0.587385 0.119174 0.793876 center 0.015 0.083 0.031 ntor 6 178.0350 -83.8237 -171.4117 1.7879 -43.8597 28.7627
State:	  7.914 -14.931  14.944   0.169  0.966  0.196 74.902    178.04  -83.82 -171.41    1.79  -43.86   28.76

DOCKED: MODEL       99
DOCKED: USER    Run = 99
DOCKED: USER    DPF = D:/Protein_go_brrr/autodock/final/1A3N/2_3_BPG/dock.dpf
DOCKED: USER  
DOCKED: USER    Estimated Free Energy of Binding    =   -7.83 kcal/mol  [=(1)+(2)+(3)-(4)]
DOCKED: USER    Estimated Inhibition Constant, Ki   =    1.81 uM (micromolar)  [Temperature = 298.15 K]
DOCKED: USER    
DOCKED: USER    (1) Final Intermolecular Energy     =   -9.62 kcal/mol
DOCKED: USER        vdW + Hbond + desolv Energy     =   -2.42 kcal/mol
DOCKED: USER        Electrostatic Energy            =   -7.20 kcal/mol
DOCKED: USER    (2) Final Total Internal Energy     =   +2.12 kcal/mol
DOCKED: USER    (3) Torsional Free Energy           =   +1.79 kcal/mol
DOCKED: USER    (4) Unbound System's Energy  [=(2)] =   +2.12 kcal/mol
DOCKED: USER    
DOCKED: USER    
DOCKED: USER    NEWDPF move 2_3_BPG_opt.pdbqt
DOCKED: USER    NEWDPF about 0.015000 0.083000 0.031000
DOCKED: USER    NEWDPF tran0 7.914243 -14.931093 14.943535
DOCKED: USER    NEWDPF quaternion0 0.102653 0.587385 0.119174 0.793876
DOCKED: USER    NEWDPF axisangle0 0.168815 0.965967 0.195984 74.901647
DOCKED: USER    NEWDPF quat0 0.168815 0.965967 0.195984 74.901647
DOCKED: USER    NEWDPF dihe0 178.04 -83.82 -171.41 1.79 -43.86 28.76 
DOCKED: USER  keepresnum = 1 
DOCKED: USER  
DOCKED: REMARK  6 active torsions:
DOCKED: REMARK  status: ('A' for Active; 'I' for Inactive)
DOCKED: REMARK    1  A    between atoms: P_1  and  O_3 
DOCKED: REMARK    2  A    between atoms: P_2  and  O_4 
DOCKED: REMARK    3  A    between atoms: O_3  and  C_13 
DOCKED: REMARK    4  A    between atoms: O_4  and  C_14 
DOCKED: REMARK    5  A    between atoms: C_13  and  C_14 
DOCKED: REMARK    6  A    between atoms: C_13  and  C_15 
DOCKED: USER                              x       y       z     vdW  Elec       q    Type
DOCKED: USER                           _______ _______ _______ _____ _____    ______ ____
DOCKED: ROOT
DOCKED: ATOM      1  C   UNL d   1       7.568 -15.159  14.417 -0.05 +0.22    +0.193 C 
DOCKED: ENDROOT
DOCKED: BRANCH   1   2
DOCKED: ATOM      2  O   UNL d   1       8.104 -14.524  13.208 -0.15 -0.64    -0.356 OA
DOCKED: BRANCH   2   3
DOCKED: ATOM      3  P   UNL d   1       7.158 -13.797  12.075 -0.34 -0.02    -0.014 P 
DOCKED: ATOM      4  O   UNL d   1       7.100 -12.325  12.512 -0.51 -0.57    -0.577 OA
DOCKED: ATOM      5  O   UNL d   1       5.783 -14.457  12.143 -0.06 -0.59    -0.577 OA
DOCKED: ATOM      6  O   UNL d   1       7.841 -13.952  10.721 -0.52 -1.29    -0.638 OA
DOCKED: ENDBRANCH   2   3
DOCKED: ENDBRANCH   1   2
DOCKED: BRANCH   1   7
DOCKED: ATOM      7  C   UNL d   1       8.544 -14.866  15.616 -0.02 +0.17    +0.201 C 
DOCKED: BRANCH   7   8
DOCKED: ATOM      8  O   UNL d   1       8.264 -15.574  16.844 +0.00 -0.28    -0.364 OA
DOCKED: BRANCH   8   9
DOCKED: ATOM      9  P   UNL d   1       9.504 -16.201  17.741 -0.09 -0.02    -0.015 P 
DOCKED: ATOM     10  O   UNL d   1      10.779 -15.610  17.127 -0.24 -1.07    -0.577 OA
DOCKED: ATOM     11  O   UNL d   1       9.446 -17.720  17.584 -0.01 -0.81    -0.577 OA
DOCKED: ATOM     12  O   UNL d   1       9.295 -15.740  19.183 -0.44 -0.83    -0.638 OA
DOCKED: ENDBRANCH   8   9
DOCKED: ENDBRANCH   7   8
DOCKED: ENDBRANCH   1   7
DOCKED: BRANCH   1  13
DOCKED: ATOM     13  C   UNL d   1       7.475 -16.717  14.211 -0.04 +0.10    +0.073 C 
DOCKED: ATOM     14  O   UNL d   1       6.363 -17.301  14.460 +0.02 -0.46    -0.547 OA
DOCKED: ATOM     15  O   UNL d   1       8.514 -17.306  13.740 +0.02 -1.10    -0.547 OA
DOCKED: ENDBRANCH   1  13
DOCKED: TORSDOF 6
DOCKED: TER
DOCKED: ENDMDL
________________________________________________________________________________


	BEGINNING GENETIC ALGORITHM DOCKING 100 of 100
Run: 100 Seed: 278691246 379109505 [ Run 100 of 100 GA/GALS ]
Beginning LAMARCKIAN GENETIC ALGORITHM (LGA), with a maximum of 25000000 energy evaluations.

Final-Value: -7.737


	FINAL GENETIC ALGORITHM DOCKED STATE
	_______________________________________________


Detailed state:  trans 9.473 -14.662 14.971 quatxyzw -0.092064 -0.707362 -0.395981 0.578240 center 0.015 0.083 0.031 ntor 6 -4.2638 29.7457 -8.5751 32.0609 -24.8983 57.3846
State:	  9.473 -14.662  14.971  -0.113 -0.867 -0.485 109.346     -4.26   29.75   -8.58   32.06  -24.90   57.38

DOCKED: MODEL      100
DOCKED: USER    Run = 100
DOCKED: USER    DPF = D:/Protein_go_brrr/autodock/final/1A3N/2_3_BPG/dock.dpf
DOCKED: USER  
DOCKED: USER    Estimated Free Energy of Binding    =   -8.02 kcal/mol  [=(1)+(2)+(3)-(4)]
DOCKED: USER    Estimated Inhibition Constant, Ki   =    1.32 uM (micromolar)  [Temperature = 298.15 K]
DOCKED: USER    
DOCKED: USER    (1) Final Intermolecular Energy     =   -9.81 kcal/mol
DOCKED: USER        vdW + Hbond + desolv Energy     =   -2.76 kcal/mol
DOCKED: USER        Electrostatic Energy            =   -7.05 kcal/mol
DOCKED: USER    (2) Final Total Internal Energy     =   +2.08 kcal/mol
DOCKED: USER    (3) Torsional Free Energy           =   +1.79 kcal/mol
DOCKED: USER    (4) Unbound System's Energy  [=(2)] =   +2.08 kcal/mol
DOCKED: USER    
DOCKED: USER    
DOCKED: USER    NEWDPF move 2_3_BPG_opt.pdbqt
DOCKED: USER    NEWDPF about 0.015000 0.083000 0.031000
DOCKED: USER    NEWDPF tran0 9.473394 -14.662142 14.971319
DOCKED: USER    NEWDPF quaternion0 -0.092064 -0.707362 -0.395981 0.578240
DOCKED: USER    NEWDPF axisangle0 -0.112842 -0.867007 -0.485351 109.346265
DOCKED: USER    NEWDPF quat0 -0.112842 -0.867007 -0.485351 109.346265
DOCKED: USER    NEWDPF dihe0 -4.26 29.75 -8.58 32.06 -24.90 57.38 
DOCKED: USER  keepresnum = 1 
DOCKED: USER  
DOCKED: REMARK  6 active torsions:
DOCKED: REMARK  status: ('A' for Active; 'I' for Inactive)
DOCKED: REMARK    1  A    between atoms: P_1  and  O_3 
DOCKED: REMARK    2  A    between atoms: P_2  and  O_4 
DOCKED: REMARK    3  A    between atoms: O_3  and  C_13 
DOCKED: REMARK    4  A    between atoms: O_4  and  C_14 
DOCKED: REMARK    5  A    between atoms: C_13  and  C_14 
DOCKED: REMARK    6  A    between atoms: C_13  and  C_15 
DOCKED: USER                              x       y       z     vdW  Elec       q    Type
DOCKED: USER                           _______ _______ _______ _____ _____    ______ ____
DOCKED: ROOT
DOCKED: ATOM      1  C   UNL d   1       9.843 -15.173  15.198 -0.04 +0.21    +0.193 C 
DOCKED: ENDROOT
DOCKED: BRANCH   1   2
DOCKED: ATOM      2  O   UNL d   1       9.338 -15.549  16.524 -0.03 -0.36    -0.356 OA
DOCKED: BRANCH   2   3
DOCKED: ATOM      3  P   UNL d   1      10.056 -15.082  17.928 -0.16 -0.02    -0.014 P 
DOCKED: ATOM      4  O   UNL d   1       9.654 -16.164  18.942 -0.37 -1.00    -0.577 OA
DOCKED: ATOM      5  O   UNL d   1       9.476 -13.719  18.302 -0.00 -0.39    -0.577 OA
DOCKED: ATOM      6  O   UNL d   1      11.564 -15.059  17.702 -0.06 -1.22    -0.638 OA
DOCKED: ENDBRANCH   2   3
DOCKED: ENDBRANCH   1   2
DOCKED: BRANCH   1   7
DOCKED: ATOM      7  C   UNL d   1       8.819 -14.183  14.530 -0.05 +0.20    +0.201 C 
DOCKED: BRANCH   7   8
DOCKED: ATOM      8  O   UNL d   1       8.636 -14.332  13.105 -0.20 -0.66    -0.364 OA
DOCKED: BRANCH   8   9
DOCKED: ATOM      9  P   UNL d   1       7.259 -13.770  12.382 -0.34 -0.02    -0.015 P 
DOCKED: ATOM     10  O   UNL d   1       7.495 -13.954  10.878 -0.55 -1.07    -0.577 OA
DOCKED: ATOM     11  O   UNL d   1       7.125 -12.296  12.763 -0.58 -0.55    -0.577 OA
DOCKED: ATOM     12  O   UNL d   1       6.101 -14.627  12.890 +0.04 -0.68    -0.638 OA
DOCKED: ENDBRANCH   8   9
DOCKED: ENDBRANCH   7   8
DOCKED: ENDBRANCH   1   7
DOCKED: BRANCH   1  13
DOCKED: ATOM     13  C   UNL d   1       9.974 -16.452  14.289 -0.03 +0.11    +0.073 C 
DOCKED: ATOM     14  O   UNL d   1       8.977 -17.253  14.213 -0.28 -0.86    -0.547 OA
DOCKED: ATOM     15  O   UNL d   1      11.063 -16.583  13.622 -0.11 -0.73    -0.547 OA
DOCKED: ENDBRANCH   1  13
DOCKED: TORSDOF 6
DOCKED: TER
DOCKED: ENDMDL
________________________________________________________________________________

DPF> analysis                             # perform a ranked cluster analysis


		CLUSTER ANALYSIS OF CONFORMATIONS
		_________________________________

Number of conformations = 100

RMSD cluster analysis will be performed using the ligand atoms only (15 / 15 total atoms).

Outputting structurally similar clusters, ranked in order of increasing energy.


________________________________________________________________________________

Number of distinct conformational clusters found = 12,  out of 100 runs,
Using an rmsd-tolerance of 2.0 A


	CLUSTERING HISTOGRAM
	____________________

________________________________________________________________________________
     |           |     |           |     |                                    
Clus | Lowest    | Run | Mean      | Num | Histogram                          
-ter | Binding   |     | Binding   | in  |                                    
Rank | Energy    |     | Energy    | Clus|    5    10   15   20   25   30   35
_____|___________|_____|___________|_____|____:____|____:____|____:____|____:___
   1 |     -8.97 |  43 |     -8.29 |  24 |########################
   2 |     -8.92 |  12 |     -8.25 |   9 |#########
   3 |     -8.82 |  78 |     -8.69 |   2 |##
   4 |     -7.97 |  92 |     -7.48 |  21 |#####################
   5 |     -7.96 |  34 |     -7.66 |  22 |######################
   6 |     -7.75 |  65 |     -7.31 |   6 |######
   7 |     -7.72 |  17 |     -7.72 |   1 |#
   8 |     -7.71 |  61 |     -7.71 |   1 |#
   9 |     -7.52 |   1 |     -7.23 |   9 |#########
  10 |     -7.52 |  68 |     -7.48 |   2 |##
  11 |     -7.49 |  72 |     -7.47 |   2 |##
  12 |     -6.99 |  15 |     -6.99 |   1 |#
_____|___________|_____|___________|_____|______________________________________


Number of multi-member conformational clusters found = 9, out of 100 runs.

	RMSD TABLE
	__________

_____________________________________________________________________
     |      |      |           |         |                 |
Rank | Sub- | Run  | Binding   | Cluster | Reference       | Grep
     | Rank |      | Energy    | RMSD    | RMSD            | Pattern
_____|______|______|___________|_________|_________________|___________
   1      1     43       -8.97      0.00     20.01           RANKING
   1      2     96       -8.95      1.02     19.98           RANKING
   1      3     84       -8.86      0.50     19.90           RANKING
   1      4      3       -8.85      1.64     20.13           RANKING
   1      5     60       -8.81      1.84     20.20           RANKING
   1      6      7       -8.77      0.25     19.99           RANKING
   1      7     46       -8.65      1.05     20.42           RANKING
   1      8     95       -8.65      0.92     19.91           RANKING
   1      9     16       -8.37      1.14     20.63           RANKING
   1     10     71       -8.36      0.96     20.29           RANKING
   1     11     31       -8.33      1.03     20.55           RANKING
   1     12     53       -8.25      1.00     20.21           RANKING
   1     13     55       -8.19      1.05     20.00           RANKING
   1     14     62       -8.06      1.82     21.99           RANKING
   1     15     11       -8.01      1.98     20.18           RANKING
   1     16     56       -7.98      1.64     20.10           RANKING
   1     17     97       -7.98      1.53     21.44           RANKING
   1     18     90       -7.97      1.64     21.67           RANKING
   1     19     29       -7.97      1.43     20.37           RANKING
   1     20     75       -7.96      1.39     20.42           RANKING
   1     21     74       -7.95      1.07     20.25           RANKING
   1     22     66       -7.84      1.45     20.44           RANKING
   1     23     93       -7.82      1.45     20.47           RANKING
   1     24     47       -7.45      1.68     21.18           RANKING
   2      1     12       -8.92      0.00     22.00           RANKING
   2      2      2       -8.89      0.24     21.92           RANKING
   2      3     25       -8.49      0.72     21.78           RANKING
   2      4     87       -8.08      1.17     21.18           RANKING
   2      5     77       -8.05      1.49     21.34           RANKING
   2      6    100       -8.02      1.07     21.47           RANKING
   2      7     39       -8.00      1.11     21.53           RANKING
   2      8     94       -7.96      1.18     21.47           RANKING
   2      9     99       -7.83      1.39     21.43           RANKING
   3      1     78       -8.82      0.00     19.83           RANKING
   3      2     10       -8.55      1.50     20.04           RANKING
   4      1     92       -7.97      0.00     37.23           RANKING
   4      2     23       -7.85      0.85     37.16           RANKING
   4      3      9       -7.77      0.88     36.98           RANKING
   4      4     82       -7.76      0.81     37.06           RANKING
   4      5     36       -7.75      1.97     37.01           RANKING
   4      6     42       -7.65      1.90     37.26           RANKING
   4      7     50       -7.65      1.29     37.77           RANKING
   4      8      8       -7.64      1.23     37.00           RANKING
   4      9     40       -7.64      1.34     36.89           RANKING
   4     10     27       -7.58      1.91     37.32           RANKING
   4     11     19       -7.57      1.25     37.85           RANKING
   4     12     21       -7.45      0.87     37.18           RANKING
   4     13     45       -7.40      1.96     35.79           RANKING
   4     14     38       -7.37      1.84     37.52           RANKING
   4     15     37       -7.32      1.96     37.07           RANKING
   4     16     59       -7.29      1.07     37.23           RANKING
   4     17     67       -7.20      1.32     37.61           RANKING
   4     18     57       -7.12      1.98     36.70           RANKING
   4     19     69       -7.10      1.96     37.05           RANKING
   4     20      4       -7.05      1.83     38.09           RANKING
   4     21     70       -7.01      1.96     36.93           RANKING
   5      1     34       -7.96      0.00     36.78           RANKING
   5      2     73       -7.91      1.87     37.05           RANKING
   5      3     52       -7.88      0.23     36.74           RANKING
   5      4     88       -7.87      1.86     37.03           RANKING
   5      5     48       -7.86      1.80     37.09           RANKING
   5      6     33       -7.85      1.81     37.07           RANKING
   5      7      5       -7.83      0.65     36.87           RANKING
   5      8     54       -7.77      0.51     36.80           RANKING
   5      9     89       -7.74      1.76     37.06           RANKING
   5     10     58       -7.70      1.81     37.15           RANKING
   5     11     63       -7.69      1.89     37.26           RANKING
   5     12     32       -7.65      1.83     37.34           RANKING
   5     13     20       -7.63      1.58     37.33           RANKING
   5     14     22       -7.62      1.86     37.37           RANKING
   5     15     76       -7.60      1.92     37.53           RANKING
   5     16     49       -7.58      0.48     36.82           RANKING
   5     17     28       -7.56      0.78     37.02           RANKING
   5     18     18       -7.53      0.59     36.94           RANKING
   5     19     51       -7.45      1.56     37.11           RANKING
   5     20      6       -7.37      1.87     37.62           RANKING
   5     21     64       -7.20      1.87     37.60           RANKING
   5     22     44       -7.18      1.71     36.72           RANKING
   6      1     65       -7.75      0.00     37.41           RANKING
   6      2     98       -7.43      1.92     37.13           RANKING
   6      3     14       -7.39      1.05     37.20           RANKING
   6      4     24       -7.17      1.33     36.82           RANKING
   6      5     35       -7.14      1.42     37.77           RANKING
   6      6     81       -6.99      1.29     37.13           RANKING
   7      1     17       -7.72      0.00     23.29           RANKING
   8      1     61       -7.71      0.00     21.66           RANKING
   9      1      1       -7.52      0.00     12.16           RANKING
   9      2     80       -7.41      0.83     11.63           RANKING
   9      3     41       -7.39      0.85     11.63           RANKING
   9      4     85       -7.19      1.07     11.89           RANKING
   9      5     13       -7.16      1.15     11.65           RANKING
   9      6     79       -7.15      0.66     11.93           RANKING
   9      7     83       -7.13      1.55     12.34           RANKING
   9      8     30       -7.10      0.89     11.86           RANKING
   9      9     26       -7.04      0.91     11.89           RANKING
  10      1     68       -7.52      0.00     22.54           RANKING
  10      2     86       -7.44      1.68     21.76           RANKING
  11      1     72       -7.49      0.00     36.71           RANKING
  11      2     91       -7.46      1.34     37.57           RANKING
  12      1     15       -6.99      0.00     37.48           RANKING
_______________________________________________________________________



	INFORMATION ENTROPY ANALYSIS FOR THIS CLUSTERING
	________________________________________________


Information entropy for this clustering = 0.43  (rmstol = 2.00 Angstrom)

_______________________________________________________________________


	STATISTICAL MECHANICAL ANALYSIS
	_______________________________


Partition function, Q =   101.32            at Temperature, T = 298.15 K
Free energy,        A ~ -2736.25 kcal/mol   at Temperature, T = 298.15 K
Internal energy,    U =    -7.78 kcal/mol   at Temperature, T = 298.15 K
Entropy,            S =     9.15 kcal/mol/K at Temperature, T = 298.15 K

_______________________________________________________________________


	LOWEST ENERGY DOCKED CONFORMATION from EACH CLUSTER
	___________________________________________________



Keeping original residue number (specified in the input PDBQ file) for outputting.

MODEL       43
USER    Run = 43
USER    Cluster Rank = 1
USER    Number of conformations in this cluster = 24
USER  
USER    RMSD from reference structure       = 20.008 A
USER  
USER    Estimated Free Energy of Binding    =   -8.97 kcal/mol  [=(1)+(2)+(3)-(4)]
USER    Estimated Inhibition Constant, Ki   =  268.08 nM (nanomolar)  [Temperature = 298.15 K]
USER    
USER    (1) Final Intermolecular Energy     =  -10.76 kcal/mol
USER        vdW + Hbond + desolv Energy     =   -4.22 kcal/mol
USER        Electrostatic Energy            =   -6.53 kcal/mol
USER    (2) Final Total Internal Energy     =   +2.59 kcal/mol
USER    (3) Torsional Free Energy           =   +1.79 kcal/mol
USER    (4) Unbound System's Energy  [=(2)] =   +2.59 kcal/mol
USER    
USER    
USER  
USER    DPF = D:/Protein_go_brrr/autodock/final/1A3N/2_3_BPG/dock.dpf
USER    NEWDPF move	2_3_BPG_opt.pdbqt
USER    NEWDPF about	0.015000 0.083000 0.031000
USER    NEWDPF tran0	6.634753 -14.946696 13.772339
USER    NEWDPF axisangle0	-0.159550 0.255255 0.953619 -177.829060
USER    NEWDPF quaternion0	-0.159522 0.255210 0.953447 -0.018944
USER    NEWDPF dihe0	-8.66 80.00 -142.74 -43.10 33.85 -174.70 
USER  
USER                              x       y       z    vdW   Elec        q     RMS 
ATOM      1  C   UNL d   1       7.200 -14.603  13.882 -0.09 +0.22    +0.193    20.008
ATOM      2  O   UNL d   1       8.291 -15.566  14.069 -0.36 -0.63    -0.356    20.008
ATOM      3  P   UNL d   1       9.824 -15.126  14.471 -0.07 -0.02    -0.014    20.008
ATOM      4  O   UNL d   1      10.617 -15.262  13.162 -0.25 -0.91    -0.577    20.008
ATOM      5  O   UNL d   1      10.315 -16.112  15.529 -0.07 -0.71    -0.577    20.008
ATOM      6  O   UNL d   1       9.788 -13.681  14.956 +0.04 -0.51    -0.638    20.008
ATOM      7  C   UNL d   1       5.938 -15.369  13.339 -0.13 +0.21    +0.201    20.008
ATOM      8  O   UNL d   1       6.180 -16.697  12.822 -0.20 -0.57    -0.364    20.008
ATOM      9  P   UNL d   1       5.343 -17.239  11.503 -0.49 -0.02    -0.015    20.008
ATOM     10  O   UNL d   1       5.254 -16.031  10.563 -0.19 -0.71    -0.577    20.008
ATOM     11  O   UNL d   1       3.966 -17.680  11.999 -0.51 -0.37    -0.577    20.008
ATOM     12  O   UNL d   1       6.154 -18.382  10.893 -0.87 -0.99    -0.638    20.008
ATOM     13  C   UNL d   1       7.618 -13.510  12.830 -0.27 +0.09    +0.073    20.008
ATOM     14  O   UNL d   1       8.191 -13.891  11.748 -0.13 -1.08    -0.547    20.008
ATOM     15  O   UNL d   1       7.300 -12.295  13.093 -0.63 -0.52    -0.547    20.008
TER
ENDMDL
MODEL       12
USER    Run = 12
USER    Cluster Rank = 2
USER    Number of conformations in this cluster = 9
USER  
USER    RMSD from reference structure       = 21.998 A
USER  
USER    Estimated Free Energy of Binding    =   -8.92 kcal/mol  [=(1)+(2)+(3)-(4)]
USER    Estimated Inhibition Constant, Ki   =  288.53 nM (nanomolar)  [Temperature = 298.15 K]
USER    
USER    (1) Final Intermolecular Energy     =  -10.71 kcal/mol
USER        vdW + Hbond + desolv Energy     =   -3.34 kcal/mol
USER        Electrostatic Energy            =   -7.37 kcal/mol
USER    (2) Final Total Internal Energy     =   +2.49 kcal/mol
USER    (3) Torsional Free Energy           =   +1.79 kcal/mol
USER    (4) Unbound System's Energy  [=(2)] =   +2.49 kcal/mol
USER    
USER    
USER  
USER    DPF = D:/Protein_go_brrr/autodock/final/1A3N/2_3_BPG/dock.dpf
USER    NEWDPF move	2_3_BPG_opt.pdbqt
USER    NEWDPF about	0.015000 0.083000 0.031000
USER    NEWDPF tran0	8.745217 -14.815484 15.688635
USER    NEWDPF axisangle0	0.198947 -0.710252 -0.675250 112.865123
USER    NEWDPF quaternion0	0.165770 -0.591807 -0.562642 0.552918
USER    NEWDPF dihe0	-129.96 -58.23 -125.18 -12.00 10.31 52.67 
USER  
USER                              x       y       z    vdW   Elec        q     RMS 
ATOM      1  C   UNL d   1       9.240 -15.083  16.054 -0.03 +0.18    +0.193    21.998
ATOM      2  O   UNL d   1       8.636 -15.828  17.165 -0.02 -0.32    -0.356    21.998
ATOM      3  P   UNL d   1       9.304 -15.910  18.665 -0.06 -0.02    -0.014    21.998
ATOM      4  O   UNL d   1       8.265 -15.250  19.584 -0.41 -0.46    -0.577    21.998
ATOM      5  O   UNL d   1      10.606 -15.112  18.625 -0.05 -0.94    -0.577    21.998
ATOM      6  O   UNL d   1       9.504 -17.382  19.011 -0.38 -1.11    -0.638    21.998
ATOM      7  C   UNL d   1       8.108 -14.697  15.031 -0.03 +0.18    +0.201    21.998
ATOM      8  O   UNL d   1       8.506 -14.637  13.644 -0.35 -0.60    -0.364    21.998
ATOM      9  P   UNL d   1       7.513 -13.931  12.525 -0.22 -0.02    -0.015    21.998
ATOM     10  O   UNL d   1       7.284 -12.504  13.039 -0.54 -0.55    -0.577    21.998
ATOM     11  O   UNL d   1       6.218 -14.743  12.502 -0.01 -0.73    -0.577    21.998
ATOM     12  O   UNL d   1       8.253 -13.947  11.189 -0.21 -1.39    -0.638    21.998
ATOM     13  C   UNL d   1      10.301 -15.982  15.315 -0.08 +0.09    +0.073    21.998
ATOM     14  O   UNL d   1      11.442 -16.161  15.870 -0.54 -0.85    -0.547    21.998
ATOM     15  O   UNL d   1       9.931 -16.539  14.219 -0.41 -0.84    -0.547    21.998
TER
ENDMDL
MODEL       78
USER    Run = 78
USER    Cluster Rank = 3
USER    Number of conformations in this cluster = 2
USER  
USER    RMSD from reference structure       = 19.834 A
USER  
USER    Estimated Free Energy of Binding    =   -8.82 kcal/mol  [=(1)+(2)+(3)-(4)]
USER    Estimated Inhibition Constant, Ki   =  342.81 nM (nanomolar)  [Temperature = 298.15 K]
USER    
USER    (1) Final Intermolecular Energy     =  -10.61 kcal/mol
USER        vdW + Hbond + desolv Energy     =   -4.96 kcal/mol
USER        Electrostatic Energy            =   -5.65 kcal/mol
USER    (2) Final Total Internal Energy     =   +2.26 kcal/mol
USER    (3) Torsional Free Energy           =   +1.79 kcal/mol
USER    (4) Unbound System's Energy  [=(2)] =   +2.26 kcal/mol
USER    
USER    
USER  
USER    DPF = D:/Protein_go_brrr/autodock/final/1A3N/2_3_BPG/dock.dpf
USER    NEWDPF move	2_3_BPG_opt.pdbqt
USER    NEWDPF about	0.015000 0.083000 0.031000
USER    NEWDPF tran0	5.335666 -16.378116 11.230491
USER    NEWDPF axisangle0	-0.678317 -0.691012 0.249776 -177.799692
USER    NEWDPF quaternion0	-0.678192 -0.690885 0.249730 -0.019200
USER    NEWDPF dihe0	8.53 -159.38 52.29 3.81 -38.08 145.77 
USER  
USER                              x       y       z    vdW   Elec        q     RMS 
ATOM      1  C   UNL d   1       5.059 -16.949  11.448 -0.41 +0.22    +0.193    19.834
ATOM      2  O   UNL d   1       6.117 -17.773  12.042 -0.68 -0.60    -0.356    19.834
ATOM      3  P   UNL d   1       6.377 -19.344  11.629 -0.41 -0.01    -0.014    19.834
ATOM      4  O   UNL d   1       5.623 -19.520  10.302 -0.44 -0.55    -0.577    19.834
ATOM      5  O   UNL d   1       5.777 -20.208  12.736 -0.02 -0.25    -0.577    19.834
ATOM      6  O   UNL d   1       7.879 -19.541  11.450 -0.09 -0.82    -0.638    19.834
ATOM      7  C   UNL d   1       5.625 -15.502  11.199 -0.40 +0.27    +0.201    19.834
ATOM      8  O   UNL d   1       6.197 -14.843  12.350 -0.13 -0.49    -0.364    19.834
ATOM      9  P   UNL d   1       7.505 -13.845  12.170 -0.10 -0.02    -0.015    19.834
ATOM     10  O   UNL d   1       8.558 -14.388  13.143 -0.12 -1.06    -0.577    19.834
ATOM     11  O   UNL d   1       7.047 -12.437  12.552 -0.52 -0.56    -0.577    19.834
ATOM     12  O   UNL d   1       7.957 -13.953  10.715 -0.49 -1.31    -0.638    19.834
ATOM     13  C   UNL d   1       3.835 -16.849  12.434 -0.43 +0.04    +0.073    19.834
ATOM     14  O   UNL d   1       4.015 -16.299  13.577 -0.02 -0.23    -0.547    19.834
ATOM     15  O   UNL d   1       2.703 -17.273  12.002 -0.69 -0.26    -0.547    19.834
TER
ENDMDL
MODEL       92
USER    Run = 92
USER    Cluster Rank = 4
USER    Number of conformations in this cluster = 21
USER  
USER    RMSD from reference structure       = 37.228 A
USER  
USER    Estimated Free Energy of Binding    =   -7.97 kcal/mol  [=(1)+(2)+(3)-(4)]
USER    Estimated Inhibition Constant, Ki   =    1.43 uM (micromolar)  [Temperature = 298.15 K]
USER    
USER    (1) Final Intermolecular Energy     =   -9.76 kcal/mol
USER        vdW + Hbond + desolv Energy     =   -3.33 kcal/mol
USER        Electrostatic Energy            =   -6.43 kcal/mol
USER    (2) Final Total Internal Energy     =   +2.62 kcal/mol
USER    (3) Torsional Free Energy           =   +1.79 kcal/mol
USER    (4) Unbound System's Energy  [=(2)] =   +2.62 kcal/mol
USER    
USER    
USER  
USER    DPF = D:/Protein_go_brrr/autodock/final/1A3N/2_3_BPG/dock.dpf
USER    NEWDPF move	2_3_BPG_opt.pdbqt
USER    NEWDPF about	0.015000 0.083000 0.031000
USER    NEWDPF tran0	7.923335 11.652959 35.010287
USER    NEWDPF axisangle0	-0.203868 0.021307 0.978766 72.352631
USER    NEWDPF quaternion0	-0.120338 0.012577 0.577738 0.807204
USER    NEWDPF dihe0	67.14 -67.76 -80.79 7.25 88.66 -49.75 
USER  
USER                              x       y       z    vdW   Elec        q     RMS 
ATOM      1  C   UNL d   1       7.424  12.090  35.105 -0.16 +0.15    +0.193    37.228
ATOM      2  O   UNL d   1       7.919  13.430  34.772 -0.06 -0.33    -0.356    37.228
ATOM      3  P   UNL d   1       7.845  14.704  35.810 -0.10 -0.02    -0.014    37.228
ATOM      4  O   UNL d   1       9.301  14.929  36.245 +0.02 -0.41    -0.577    37.228
ATOM      5  O   UNL d   1       6.966  14.279  36.985 +0.06 -0.88    -0.577    37.228
ATOM      6  O   UNL d   1       7.298  15.904  35.044 -0.43 -1.09    -0.638    37.228
ATOM      7  C   UNL d   1       8.475  11.027  34.616 -0.20 +0.13    +0.201    37.228
ATOM      8  O   UNL d   1       9.206  10.338  35.655 -0.56 -0.30    -0.364    37.228
ATOM      9  P   UNL d   1      10.612  10.979  36.246 -0.22 -0.02    -0.015    37.228
ATOM     10  O   UNL d   1      10.225  11.630  37.579 -0.00 -0.47    -0.577    37.228
ATOM     11  O   UNL d   1      11.094  12.010  35.226 -0.50 -1.13    -0.577    37.228
ATOM     12  O   UNL d   1      11.591   9.822  36.435 +0.01 -1.00    -0.638    37.228
ATOM     13  C   UNL d   1       6.057  11.822  34.371 -0.37 +0.06    +0.073    37.228
ATOM     14  O   UNL d   1       5.980  10.828  33.566 -0.13 -0.24    -0.547    37.228
ATOM     15  O   UNL d   1       5.073  12.588  34.674 -0.69 -0.88    -0.547    37.228
TER
ENDMDL
MODEL       34
USER    Run = 34
USER    Cluster Rank = 5
USER    Number of conformations in this cluster = 22
USER  
USER    RMSD from reference structure       = 36.776 A
USER  
USER    Estimated Free Energy of Binding    =   -7.96 kcal/mol  [=(1)+(2)+(3)-(4)]
USER    Estimated Inhibition Constant, Ki   =    1.46 uM (micromolar)  [Temperature = 298.15 K]
USER    
USER    (1) Final Intermolecular Energy     =   -9.75 kcal/mol
USER        vdW + Hbond + desolv Energy     =   -3.37 kcal/mol
USER        Electrostatic Energy            =   -6.38 kcal/mol
USER    (2) Final Total Internal Energy     =   +2.25 kcal/mol
USER    (3) Torsional Free Energy           =   +1.79 kcal/mol
USER    (4) Unbound System's Energy  [=(2)] =   +2.25 kcal/mol
USER    
USER    
USER  
USER    DPF = D:/Protein_go_brrr/autodock/final/1A3N/2_3_BPG/dock.dpf
USER    NEWDPF move	2_3_BPG_opt.pdbqt
USER    NEWDPF about	0.015000 0.083000 0.031000
USER    NEWDPF tran0	-6.301808 11.920726 36.236583
USER    NEWDPF axisangle0	-0.713954 0.548316 -0.435453 160.586376
USER    NEWDPF quaternion0	-0.703733 0.540466 -0.429219 0.168607
USER    NEWDPF dihe0	-41.24 135.31 -133.32 27.71 38.17 -50.39 
USER  
USER                              x       y       z    vdW   Elec        q     RMS 
ATOM      1  C   UNL d   1      -6.008  12.328  35.793 -0.22 +0.21    +0.193    36.776
ATOM      2  O   UNL d   1      -7.051  13.140  35.156 -0.58 -0.58    -0.356    36.776
ATOM      3  P   UNL d   1      -7.595  12.873  33.627 -0.22 -0.02    -0.014    36.776
ATOM      4  O   UNL d   1      -6.317  12.750  32.782 -0.23 -0.69    -0.577    36.776
ATOM      5  O   UNL d   1      -8.421  14.092  33.221 -0.14 -0.69    -0.577    36.776
ATOM      6  O   UNL d   1      -8.391  11.572  33.630 -0.45 -1.01    -0.638    36.776
ATOM      7  C   UNL d   1      -6.632  11.583  37.029 -0.18 +0.16    +0.201    36.776
ATOM      8  O   UNL d   1      -6.803  10.155  36.885 -0.10 -0.36    -0.364    36.776
ATOM      9  P   UNL d   1      -8.178   9.423  37.441 -0.07 -0.02    -0.015    36.776
ATOM     10  O   UNL d   1      -9.332  10.267  36.887 -0.29 -0.87    -0.577    36.776
ATOM     11  O   UNL d   1      -8.120   9.468  38.968 -0.02 -0.28    -0.577    36.776
ATOM     12  O   UNL d   1      -8.188   8.000  36.884 -0.33 -0.97    -0.638    36.776
ATOM     13  C   UNL d   1      -4.839  13.254  36.300 -0.30 +0.08    +0.073    36.776
ATOM     14  O   UNL d   1      -5.032  14.520  36.332 -0.11 -1.01    -0.547    36.776
ATOM     15  O   UNL d   1      -3.773  12.671  36.715 -0.13 -0.32    -0.547    36.776
TER
ENDMDL
MODEL       65
USER    Run = 65
USER    Cluster Rank = 6
USER    Number of conformations in this cluster = 6
USER  
USER    RMSD from reference structure       = 37.409 A
USER  
USER    Estimated Free Energy of Binding    =   -7.75 kcal/mol  [=(1)+(2)+(3)-(4)]
USER    Estimated Inhibition Constant, Ki   =    2.07 uM (micromolar)  [Temperature = 298.15 K]
USER    
USER    (1) Final Intermolecular Energy     =   -9.54 kcal/mol
USER        vdW + Hbond + desolv Energy     =   -3.04 kcal/mol
USER        Electrostatic Energy            =   -6.51 kcal/mol
USER    (2) Final Total Internal Energy     =   +2.34 kcal/mol
USER    (3) Torsional Free Energy           =   +1.79 kcal/mol
USER    (4) Unbound System's Energy  [=(2)] =   +2.34 kcal/mol
USER    
USER    
USER  
USER    DPF = D:/Protein_go_brrr/autodock/final/1A3N/2_3_BPG/dock.dpf
USER    NEWDPF move	2_3_BPG_opt.pdbqt
USER    NEWDPF about	0.015000 0.083000 0.031000
USER    NEWDPF tran0	7.291131 11.480629 36.138292
USER    NEWDPF axisangle0	0.977253 -0.157834 -0.141647 -131.310768
USER    NEWDPF quaternion0	0.890359 -0.143800 -0.129052 -0.412224
USER    NEWDPF dihe0	-146.62 -69.28 -16.32 -23.00 -32.24 4.12 
USER  
USER                              x       y       z    vdW   Elec        q     RMS 
ATOM      1  C   UNL d   1       6.763  11.821  35.905 -0.18 +0.16    +0.193    37.409
ATOM      2  O   UNL d   1       5.896  12.156  37.040 -0.08 -0.34    -0.356    37.409
ATOM      3  P   UNL d   1       4.284  12.445  36.890 -0.20 -0.02    -0.014    37.409
ATOM      4  O   UNL d   1       3.615  11.194  37.481 -0.03 -0.33    -0.577    37.409
ATOM      5  O   UNL d   1       3.987  12.590  35.399 -0.37 -0.91    -0.577    37.409
ATOM      6  O   UNL d   1       3.952  13.693  37.701 -0.19 -1.12    -0.638    37.409
ATOM      7  C   UNL d   1       8.135  11.285  36.458 -0.14 +0.13    +0.201    37.409
ATOM      8  O   UNL d   1       8.961  10.572  35.511 -0.51 -0.28    -0.364    37.409
ATOM      9  P   UNL d   1      10.608  10.588  35.670 -0.26 -0.02    -0.015    37.409
ATOM     10  O   UNL d   1      11.108   9.469  34.748 -0.04 -0.65    -0.577    37.409
ATOM     11  O   UNL d   1      10.917  10.298  37.139 -0.07 -0.63    -0.577    37.409
ATOM     12  O   UNL d   1      11.092  11.964  35.217 -0.46 -1.25    -0.638    37.409
ATOM     13  C   UNL d   1       7.037  13.106  35.037 -0.15 +0.09    +0.073    37.409
ATOM     14  O   UNL d   1       6.269  13.345  34.040 -0.35 -0.78    -0.547    37.409
ATOM     15  O   UNL d   1       7.986  13.879  35.425 +0.00 -0.56    -0.547    37.409
TER
ENDMDL
MODEL       17
USER    Run = 17
USER    Cluster Rank = 7
USER    Number of conformations in this cluster = 1
USER  
USER    RMSD from reference structure       = 23.288 A
USER  
USER    Estimated Free Energy of Binding    =   -7.72 kcal/mol  [=(1)+(2)+(3)-(4)]
USER    Estimated Inhibition Constant, Ki   =    2.21 uM (micromolar)  [Temperature = 298.15 K]
USER    
USER    (1) Final Intermolecular Energy     =   -9.51 kcal/mol
USER        vdW + Hbond + desolv Energy     =   -2.77 kcal/mol
USER        Electrostatic Energy            =   -6.74 kcal/mol
USER    (2) Final Total Internal Energy     =   +2.15 kcal/mol
USER    (3) Torsional Free Energy           =   +1.79 kcal/mol
USER    (4) Unbound System's Energy  [=(2)] =   +2.15 kcal/mol
USER    
USER    
USER  
USER    DPF = D:/Protein_go_brrr/autodock/final/1A3N/2_3_BPG/dock.dpf
USER    NEWDPF move	2_3_BPG_opt.pdbqt
USER    NEWDPF about	0.015000 0.083000 0.031000
USER    NEWDPF tran0	8.459630 -17.279947 15.527648
USER    NEWDPF axisangle0	-0.546611 0.427654 0.719951 -166.126912
USER    NEWDPF quaternion0	-0.542610 0.424523 0.714681 -0.120770
USER    NEWDPF dihe0	-65.01 6.50 -80.39 -1.86 -19.52 -23.33 
USER  
USER                              x       y       z    vdW   Elec        q     RMS 
ATOM      1  C   UNL d   1       8.818 -16.852  15.899 -0.04 +0.19    +0.193    23.288
ATOM      2  O   UNL d   1       9.147 -17.511  17.168 -0.03 -0.41    -0.356    23.288
ATOM      3  P   UNL d   1       8.988 -16.780  18.632 -0.14 -0.02    -0.014    23.288
ATOM      4  O   UNL d   1       9.504 -17.821  19.638 -0.52 -0.90    -0.577    23.288
ATOM      5  O   UNL d   1       7.503 -16.490  18.835 -0.04 -0.38    -0.577    23.288
ATOM      6  O   UNL d   1       9.857 -15.526  18.629 -0.18 -0.96    -0.638    23.288
ATOM      7  C   UNL d   1       8.236 -17.926  14.908 -0.04 +0.20    +0.201    23.288
ATOM      8  O   UNL d   1       7.068 -17.525  14.158 -0.05 -0.41    -0.364    23.288
ATOM      9  P   UNL d   1       6.610 -18.378  12.817 -0.08 -0.02    -0.015    23.288
ATOM     10  O   UNL d   1       5.439 -19.253  13.281 -0.02 -0.28    -0.577    23.288
ATOM     11  O   UNL d   1       7.814 -19.216  12.388 -0.14 -0.78    -0.577    23.288
ATOM     12  O   UNL d   1       6.182 -17.361  11.760 -0.44 -1.31    -0.638    23.288
ATOM     13  C   UNL d   1      10.117 -16.230  15.262 -0.08 +0.09    +0.073    23.288
ATOM     14  O   UNL d   1      11.179 -16.168  15.976 -0.51 -0.87    -0.547    23.288
ATOM     15  O   UNL d   1      10.049 -15.876  14.030 -0.46 -0.88    -0.547    23.288
TER
ENDMDL
MODEL       61
USER    Run = 61
USER    Cluster Rank = 8
USER    Number of conformations in this cluster = 1
USER  
USER    RMSD from reference structure       = 21.662 A
USER  
USER    Estimated Free Energy of Binding    =   -7.71 kcal/mol  [=(1)+(2)+(3)-(4)]
USER    Estimated Inhibition Constant, Ki   =    2.22 uM (micromolar)  [Temperature = 298.15 K]
USER    
USER    (1) Final Intermolecular Energy     =   -9.50 kcal/mol
USER        vdW + Hbond + desolv Energy     =   -4.57 kcal/mol
USER        Electrostatic Energy            =   -4.93 kcal/mol
USER    (2) Final Total Internal Energy     =   +2.04 kcal/mol
USER    (3) Torsional Free Energy           =   +1.79 kcal/mol
USER    (4) Unbound System's Energy  [=(2)] =   +2.04 kcal/mol
USER    
USER    
USER  
USER    DPF = D:/Protein_go_brrr/autodock/final/1A3N/2_3_BPG/dock.dpf
USER    NEWDPF move	2_3_BPG_opt.pdbqt
USER    NEWDPF about	0.015000 0.083000 0.031000
USER    NEWDPF tran0	5.313086 -19.094070 11.436736
USER    NEWDPF axisangle0	0.365772 0.147327 -0.918970 -140.350943
USER    NEWDPF quaternion0	0.344094 0.138595 -0.864508 -0.339141
USER    NEWDPF dihe0	-20.76 -42.81 168.05 -9.76 -12.47 -111.93 
USER  
USER                              x       y       z    vdW   Elec        q     RMS 
ATOM      1  C   UNL d   1       5.366 -18.622  11.910 -0.36 +0.17    +0.193    21.662
ATOM      2  O   UNL d   1       6.792 -18.386  12.162 -0.58 -0.64    -0.356    21.662
ATOM      3  P   UNL d   1       7.408 -18.092  13.659 -0.05 -0.02    -0.014    21.662
ATOM      4  O   UNL d   1       8.634 -19.012  13.756 -0.02 -0.60    -0.577    21.662
ATOM      5  O   UNL d   1       6.334 -18.477  14.673 +0.04 -0.35    -0.577    21.662
ATOM      6  O   UNL d   1       7.805 -16.621  13.723 +0.10 -1.33    -0.638    21.662
ATOM      7  C   UNL d   1       5.222 -19.502  10.614 -0.28 +0.17    +0.201    21.662
ATOM      8  O   UNL d   1       6.073 -20.667  10.544 -0.24 -0.24    -0.364    21.662
ATOM      9  P   UNL d   1       5.849 -21.788   9.349 -0.39 -0.01    -0.015    21.662
ATOM     10  O   UNL d   1       4.526 -21.398   8.679 -1.08 -0.52    -0.577    21.662
ATOM     11  O   UNL d   1       5.763 -23.154  10.030 -0.20 -0.25    -0.577    21.662
ATOM     12  O   UNL d   1       7.034 -21.671   8.391 -0.04 -0.37    -0.638    21.662
ATOM     13  C   UNL d   1       4.626 -17.253  11.675 -0.46 +0.07    +0.073    21.662
ATOM     14  O   UNL d   1       5.267 -16.301  11.106 -0.34 -0.70    -0.547    21.662
ATOM     15  O   UNL d   1       3.390 -17.193  12.016 -0.67 -0.32    -0.547    21.662
TER
ENDMDL
MODEL        1
USER    Run = 1
USER    Cluster Rank = 9
USER    Number of conformations in this cluster = 9
USER  
USER    RMSD from reference structure       = 12.158 A
USER  
USER    Estimated Free Energy of Binding    =   -7.52 kcal/mol  [=(1)+(2)+(3)-(4)]
USER    Estimated Inhibition Constant, Ki   =    3.08 uM (micromolar)  [Temperature = 298.15 K]
USER    
USER    (1) Final Intermolecular Energy     =   -9.31 kcal/mol
USER        vdW + Hbond + desolv Energy     =   -3.23 kcal/mol
USER        Electrostatic Energy            =   -6.08 kcal/mol
USER    (2) Final Total Internal Energy     =   +2.46 kcal/mol
USER    (3) Torsional Free Energy           =   +1.79 kcal/mol
USER    (4) Unbound System's Energy  [=(2)] =   +2.46 kcal/mol
USER    
USER    
USER  
USER    DPF = D:/Protein_go_brrr/autodock/final/1A3N/2_3_BPG/dock.dpf
USER    NEWDPF move	2_3_BPG_opt.pdbqt
USER    NEWDPF about	0.015000 0.083000 0.031000
USER    NEWDPF tran0	-1.398252 -3.185230 -12.995512
USER    NEWDPF axisangle0	-0.681561 0.708740 0.182106 -75.177470
USER    NEWDPF quaternion0	-0.415745 0.432324 0.111083 -0.792410
USER    NEWDPF dihe0	-172.60 -31.75 -146.84 -55.50 -86.25 -110.08 
USER  
USER                              x       y       z    vdW   Elec        q     RMS 
ATOM      1  C   UNL d   1      -1.529  -3.204 -12.338 -0.18 +0.14    +0.193    12.158
ATOM      2  O   UNL d   1      -2.969  -2.994 -12.151 -0.14 -0.29    -0.356    12.158
ATOM      3  P   UNL d   1      -3.723  -3.155 -10.699 -0.53 -0.02    -0.014    12.158
ATOM      4  O   UNL d   1      -4.809  -2.067 -10.709 -0.14 -0.37    -0.577    12.158
ATOM      5  O   UNL d   1      -2.679  -2.896  -9.615 -0.19 -0.77    -0.577    12.158
ATOM      6  O   UNL d   1      -4.332  -4.552 -10.636 -0.50 -1.13    -0.638    12.158
ATOM      7  C   UNL d   1      -1.249  -3.453 -13.866 -0.08 +0.11    +0.201    12.158
ATOM      8  O   UNL d   1      -1.839  -2.501 -14.779 -0.07 -0.25    -0.364    12.158
ATOM      9  P   UNL d   1      -0.941  -1.235 -15.351 -0.28 -0.02    -0.015    12.158
ATOM     10  O   UNL d   1       0.478  -1.793 -15.513 -0.07 -0.35    -0.577    12.158
ATOM     11  O   UNL d   1      -1.004  -0.131 -14.296 -0.16 -0.75    -0.577    12.158
ATOM     12  O   UNL d   1      -1.550  -0.819 -16.689 -0.51 -1.09    -0.638    12.158
ATOM     13  C   UNL d   1      -1.057  -4.468 -11.526 -0.15 +0.09    +0.073    12.158
ATOM     14  O   UNL d   1      -0.181  -4.311 -10.606 -0.16 -0.63    -0.547    12.158
ATOM     15  O   UNL d   1      -1.634  -5.582 -11.797 -0.05 -0.74    -0.547    12.158
TER
ENDMDL
MODEL       68
USER    Run = 68
USER    Cluster Rank = 10
USER    Number of conformations in this cluster = 2
USER  
USER    RMSD from reference structure       = 22.537 A
USER  
USER    Estimated Free Energy of Binding    =   -7.52 kcal/mol  [=(1)+(2)+(3)-(4)]
USER    Estimated Inhibition Constant, Ki   =    3.08 uM (micromolar)  [Temperature = 298.15 K]
USER    
USER    (1) Final Intermolecular Energy     =   -9.31 kcal/mol
USER        vdW + Hbond + desolv Energy     =   -3.47 kcal/mol
USER        Electrostatic Energy            =   -5.84 kcal/mol
USER    (2) Final Total Internal Energy     =   +1.96 kcal/mol
USER    (3) Torsional Free Energy           =   +1.79 kcal/mol
USER    (4) Unbound System's Energy  [=(2)] =   +1.96 kcal/mol
USER    
USER    
USER  
USER    DPF = D:/Protein_go_brrr/autodock/final/1A3N/2_3_BPG/dock.dpf
USER    NEWDPF move	2_3_BPG_opt.pdbqt
USER    NEWDPF about	0.015000 0.083000 0.031000
USER    NEWDPF tran0	8.276509 -18.450176 13.522658
USER    NEWDPF axisangle0	0.215039 -0.930878 -0.295338 151.296697
USER    NEWDPF quaternion0	0.208328 -0.901828 -0.286122 0.247872
USER    NEWDPF dihe0	170.38 -39.58 145.98 30.36 36.51 11.87 
USER  
USER                              x       y       z    vdW   Elec        q     RMS 
ATOM      1  C   UNL d   1       8.932 -18.489  13.659 -0.03 +0.26    +0.193    22.537
ATOM      2  O   UNL d   1       9.138 -18.044  15.042 -0.03 -0.37    -0.356    22.537
ATOM      3  P   UNL d   1       9.710 -16.553  15.435 -0.10 -0.02    -0.014    22.537
ATOM      4  O   UNL d   1       8.818 -16.094  16.598 +0.02 -0.55    -0.577    22.537
ATOM      5  O   UNL d   1       9.534 -15.663  14.206 -0.58 -0.92    -0.577    22.537
ATOM      6  O   UNL d   1      11.164 -16.707  15.870 -0.43 -1.03    -0.638    22.537
ATOM      7  C   UNL d   1       7.389 -18.682  13.415 -0.06 +0.24    +0.201    22.537
ATOM      8  O   UNL d   1       6.994 -18.932  12.049 -0.55 -0.52    -0.364    22.537
ATOM      9  P   UNL d   1       5.621 -18.237  11.442 -0.54 -0.02    -0.015    22.537
ATOM     10  O   UNL d   1       4.666 -18.129  12.638 -0.12 -0.35    -0.577    22.537
ATOM     11  O   UNL d   1       5.083 -19.178  10.365 -0.59 -0.58    -0.577    22.537
ATOM     12  O   UNL d   1       6.013 -16.865  10.896 -0.36 -1.31    -0.638    22.537
ATOM     13  C   UNL d   1       9.656 -19.867  13.423 -0.08 +0.06    +0.073    22.537
ATOM     14  O   UNL d   1      10.330 -20.026  12.345 -0.03 -0.43    -0.547    22.537
ATOM     15  O   UNL d   1       9.578 -20.735  14.365 +0.01 -0.29    -0.547    22.537
TER
ENDMDL
MODEL       72
USER    Run = 72
USER    Cluster Rank = 11
USER    Number of conformations in this cluster = 2
USER  
USER    RMSD from reference structure       = 36.709 A
USER  
USER    Estimated Free Energy of Binding    =   -7.49 kcal/mol  [=(1)+(2)+(3)-(4)]
USER    Estimated Inhibition Constant, Ki   =    3.23 uM (micromolar)  [Temperature = 298.15 K]
USER    
USER    (1) Final Intermolecular Energy     =   -9.28 kcal/mol
USER        vdW + Hbond + desolv Energy     =   -3.47 kcal/mol
USER        Electrostatic Energy            =   -5.81 kcal/mol
USER    (2) Final Total Internal Energy     =   +2.38 kcal/mol
USER    (3) Torsional Free Energy           =   +1.79 kcal/mol
USER    (4) Unbound System's Energy  [=(2)] =   +2.38 kcal/mol
USER    
USER    
USER  
USER    DPF = D:/Protein_go_brrr/autodock/final/1A3N/2_3_BPG/dock.dpf
USER    NEWDPF move	2_3_BPG_opt.pdbqt
USER    NEWDPF about	0.015000 0.083000 0.031000
USER    NEWDPF tran0	8.102748 13.963242 33.792005
USER    NEWDPF axisangle0	-0.250653 -0.242153 0.937302 161.415754
USER    NEWDPF quaternion0	-0.247364 -0.238975 0.925003 0.161468
USER    NEWDPF dihe0	173.55 18.81 -126.94 20.46 111.78 11.81 
USER  
USER                              x       y       z    vdW   Elec        q     RMS 
ATOM      1  C   UNL d   1       8.421  14.281  34.289 -0.13 +0.16    +0.193    36.709
ATOM      2  O   UNL d   1       9.865  14.140  34.071 -0.11 -0.24    -0.356    36.709
ATOM      3  P   UNL d   1      10.844  13.251  35.048 -0.23 -0.02    -0.014    36.709
ATOM      4  O   UNL d   1      12.266  13.696  34.674 -0.32 -0.86    -0.577    36.709
ATOM      5  O   UNL d   1      10.608  11.781  34.707 -0.47 -0.75    -0.577    36.709
ATOM      6  O   UNL d   1      10.510  13.601  36.494 -0.01 -0.55    -0.638    36.709
ATOM      7  C   UNL d   1       7.666  13.802  32.995 -0.20 +0.14    +0.201    36.709
ATOM      8  O   UNL d   1       6.230  13.689  33.108 -0.30 -0.36    -0.364    36.709
ATOM      9  P   UNL d   1       5.563  12.570  34.128 -0.28 -0.02    -0.015    36.709
ATOM     10  O   UNL d   1       6.182  12.863  35.500 -0.16 -0.93    -0.577    36.709
ATOM     11  O   UNL d   1       5.966  11.192  33.602 -0.09 -0.28    -0.577    36.709
ATOM     12  O   UNL d   1       4.052  12.796  34.120 -0.51 -0.89    -0.638    36.709
ATOM     13  C   UNL d   1       8.059  15.789  34.555 -0.15 +0.07    +0.073    36.709
ATOM     14  O   UNL d   1       7.294  16.070  35.543 -0.48 -0.95    -0.547    36.709
ATOM     15  O   UNL d   1       8.612  16.664  33.794 -0.03 -0.32    -0.547    36.709
TER
ENDMDL
MODEL       15
USER    Run = 15
USER    Cluster Rank = 12
USER    Number of conformations in this cluster = 1
USER  
USER    RMSD from reference structure       = 37.476 A
USER  
USER    Estimated Free Energy of Binding    =   -6.99 kcal/mol  [=(1)+(2)+(3)-(4)]
USER    Estimated Inhibition Constant, Ki   =    7.54 uM (micromolar)  [Temperature = 298.15 K]
USER    
USER    (1) Final Intermolecular Energy     =   -8.78 kcal/mol
USER        vdW + Hbond + desolv Energy     =   -2.67 kcal/mol
USER        Electrostatic Energy            =   -6.11 kcal/mol
USER    (2) Final Total Internal Energy     =   +1.91 kcal/mol
USER    (3) Torsional Free Energy           =   +1.79 kcal/mol
USER    (4) Unbound System's Energy  [=(2)] =   +1.91 kcal/mol
USER    
USER    
USER  
USER    DPF = D:/Protein_go_brrr/autodock/final/1A3N/2_3_BPG/dock.dpf
USER    NEWDPF move	2_3_BPG_opt.pdbqt
USER    NEWDPF about	0.015000 0.083000 0.031000
USER    NEWDPF tran0	10.000253 13.525739 35.242786
USER    NEWDPF axisangle0	-0.282068 -0.160015 0.945956 -133.735338
USER    NEWDPF quaternion0	-0.259389 -0.147150 0.869901 -0.392856
USER    NEWDPF dihe0	174.98 3.41 -67.62 20.95 -6.82 -35.78 
USER  
USER                              x       y       z    vdW   Elec        q     RMS 
ATOM      1  C   UNL d   1      10.463  13.278  35.659 -0.14 +0.19    +0.193    37.476
ATOM      2  O   UNL d   1      10.928  11.996  35.116 -0.58 -0.62    -0.356    37.476
ATOM      3  P   UNL d   1      10.611  10.547  35.826 -0.26 -0.02    -0.014    37.476
ATOM      4  O   UNL d   1      11.275   9.515  34.901 -0.02 -0.73    -0.577    37.476
ATOM      5  O   UNL d   1       9.093  10.380  35.855 -0.51 -0.46    -0.577    37.476
ATOM      6  O   UNL d   1      11.249  10.551  37.211 -0.05 -0.84    -0.638    37.476
ATOM      7  C   UNL d   1       9.603  14.008  34.564 -0.14 +0.15    +0.201    37.476
ATOM      8  O   UNL d   1       8.259  14.370  34.954 -0.06 -0.35    -0.364    37.476
ATOM      9  P   UNL d   1       7.295  15.224  33.917 -0.15 -0.02    -0.015    37.476
ATOM     10  O   UNL d   1       6.147  14.271  33.563 -0.11 -0.90    -0.577    37.476
ATOM     11  O   UNL d   1       8.148  15.569  32.697 -0.01 -0.34    -0.577    37.476
ATOM     12  O   UNL d   1       6.803  16.459  34.671 -0.39 -1.22    -0.638    37.476
ATOM     13  C   UNL d   1      11.695  14.188  36.023 -0.20 +0.07    +0.073    37.476
ATOM     14  O   UNL d   1      11.722  14.750  37.174 -0.02 -0.37    -0.547    37.476
ATOM     15  O   UNL d   1      12.640  14.263  35.157 -0.02 -0.67    -0.547    37.476
TER
ENDMDL


AVSFLD: # AVS field file
AVSFLD: #
AVSFLD: # Created by AutoDock
AVSFLD: #
AVSFLD: ndim=2           # number of dimensions in the field
AVSFLD: nspace=1         # number of physical coordinates
AVSFLD: veclen=7         # vector size
AVSFLD: dim1=15          # atoms
AVSFLD: dim2=12          # conformations
AVSFLD: data=Real       # data type (byte,integer,Real,double)
AVSFLD: field=uniform    # field coordinate layout
AVSFLD: label= x y z vdW Elec q RMS
AVSFLD: variable 1 file = D:/Protein_go_brrr/autodock/final/1A3N/2_3_BPG/dock.dlg.pdb filetype = ascii offset = 5 stride = 12
AVSFLD: variable 2 file = D:/Protein_go_brrr/autodock/final/1A3N/2_3_BPG/dock.dlg.pdb filetype = ascii offset = 6 stride = 12
AVSFLD: variable 3 file = D:/Protein_go_brrr/autodock/final/1A3N/2_3_BPG/dock.dlg.pdb filetype = ascii offset = 7 stride = 12
AVSFLD: variable 4 file = D:/Protein_go_brrr/autodock/final/1A3N/2_3_BPG/dock.dlg.pdb filetype = ascii offset = 8 stride = 12
AVSFLD: variable 5 file = D:/Protein_go_brrr/autodock/final/1A3N/2_3_BPG/dock.dlg.pdb filetype = ascii offset = 9 stride = 12
AVSFLD: variable 6 file = D:/Protein_go_brrr/autodock/final/1A3N/2_3_BPG/dock.dlg.pdb filetype = ascii offset = 10 stride = 12
AVSFLD: variable 7 file = D:/Protein_go_brrr/autodock/final/1A3N/2_3_BPG/dock.dlg.pdb filetype = ascii offset = 11 stride = 12
AVSFLD: # end of file

>>> Closing the docking parameter file (DPF)...
This docking finished at:			5:29 03" a.m., 09/26/2025


________________________________________________________________________________

D:/autodockScripts/autodock4.exe: Successful Completion on "ACER"

Real= 3h 42m 50.86s,  CPU= 5m 47.88s,  System= 14.08s
________________________________________________________________________________

