          AutoDock 4.2 Release 4.2.6   
         (C) 1989-2012 The Scripps Research Institute
        AutoDock comes with ABSOLUTELY NO WARRANTY.
        AutoDock is free software, and you are welcome
        to redistribute it under certain conditions;
        for details type 'autodock4 -C'

                     main.cc  $Revision: 1.213 $

                   Compiled on Jul 18 2014 at 15:34:58


This file was created at:			2:29 12" a.m., 10/05/2025
                   on host:		"ACER"
Current Working Directory = "D:\Protein_go_brrr\autodock\final\mut_Y35F\2_3_BPG"

      ________________________________________________________________

                   SETTING UP DEFAULT PARAMETER LIBRARY
      ________________________________________________________________


Random number generator was seeded with values 184784, 1759624152.
Docking parameter file (DPF) used for this docking:		D:/Protein_go_brrr/autodock/final/mut_Y35F/2_3_BPG/dock.dpf
DPF> autodock_parameter_version 4.2       # used by autodock to validate parameter set

	Autodock parameter version 4.2.
DPF> outlev 1                             # diagnostic output level

Output Level = 1  ADT-COMPATIBLE OUTPUT DURING DOCKING.
DPF> intelec                              # calculate internal electrostatics

Electrostatic energies will be calculated for all non-bonds between moving atoms.
DPF> seed pid time                        # seeds for random generator

Random number generator was seeded with values 184784, 1759624152.
DPF> ligand_types P C OA                  # atoms types in ligand

DPF> fld mut_Y35F_m0.maps.fld             # grid_data_file

Opening Grid Map Dimensions file:		mut_Y35F_m0.maps.fld
Grid Point Spacing =				0.425 Angstroms

Even Number of User-specified Grid Points =	126 x-points
						126 y-points
						126 z-points

Coordinates of Central Grid Point of Maps =	(0.620, 0.306, 0.503)
Macromolecule file used to create Grid Maps =	mut_Y35F_m0.pdbqt
Grid Parameter file used to create Grid Maps =	D:/Protein_go_brrr/autodock/final/mut_Y35F/2_3_BPG/grid.gpf
Minimum coordinates in grid = (-26.155, -26.469, -26.272)
Maximum coordinates in grid = (27.395, 27.081, 27.278)

DPF> map mut_Y35F_m0.P.map                # atom-specific affinity map

DPF> map mut_Y35F_m0.C.map                # atom-specific affinity map

DPF> map mut_Y35F_m0.OA.map               # atom-specific affinity map

DPF> elecmap mut_Y35F_m0.e.map            # electrostatics map

DPF> desolvmap mut_Y35F_m0.d.map          # desolvation map

DPF> move 2_3_BPG_opt.pdbqt               # small molecule

1,4-interactions will be _ignored_ in the non-bonded internal energy calculation.

Ligand PDBQT file = "2_3_BPG_opt.pdbqt"

INPUT LIGAND PDBQT FILE:
________________________

INPUT-LIGAND-PDBQT: REMARK  6 active torsions:
INPUT-LIGAND-PDBQT: REMARK  status: ('A' for Active; 'I' for Inactive)
INPUT-LIGAND-PDBQT: REMARK    1  A    between atoms: P_1  and  O_3 
INPUT-LIGAND-PDBQT: REMARK    2  A    between atoms: P_2  and  O_4 
INPUT-LIGAND-PDBQT: REMARK    3  A    between atoms: O_3  and  C_13 
INPUT-LIGAND-PDBQT: REMARK    4  A    between atoms: O_4  and  C_14 
INPUT-LIGAND-PDBQT: REMARK    5  A    between atoms: C_13  and  C_14 
INPUT-LIGAND-PDBQT: REMARK    6  A    between atoms: C_13  and  C_15 
INPUT-LIGAND-PDBQT: ROOT
INPUT-LIGAND-PDBQT: ATOM      1  C   UNL d   1      -0.571  -0.229   0.124  0.00  0.00     0.193 C 
INPUT-LIGAND-PDBQT: ENDROOT
INPUT-LIGAND-PDBQT: BRANCH   1   2
INPUT-LIGAND-PDBQT: ATOM      2  O   UNL d   1      -1.621   0.569  -0.519  0.00  0.00    -0.356 OA
INPUT-LIGAND-PDBQT: BRANCH   2   3
INPUT-LIGAND-PDBQT: ATOM      3  P   UNL d   1      -3.039   0.957   0.218  0.00  0.00    -0.014 P 
INPUT-LIGAND-PDBQT: ATOM      4  O   UNL d   1      -3.756   1.871  -0.788  0.00  0.00    -0.577 OA
INPUT-LIGAND-PDBQT: ATOM      5  O   UNL d   1      -2.691   1.702   1.505  0.00  0.00    -0.577 OA
INPUT-LIGAND-PDBQT: ATOM      6  O   UNL d   1      -3.816  -0.334   0.454  0.00  0.00    -0.638 OA
INPUT-LIGAND-PDBQT: ENDBRANCH   2   3
INPUT-LIGAND-PDBQT: ENDBRANCH   1   2
INPUT-LIGAND-PDBQT: BRANCH   1   7
INPUT-LIGAND-PDBQT: ATOM      7  C   UNL d   1       0.831   0.324  -0.327  0.00  0.00     0.201 C 
INPUT-LIGAND-PDBQT: BRANCH   7   8
INPUT-LIGAND-PDBQT: ATOM      8  O   UNL d   1       1.946  -0.012   0.528  0.00  0.00    -0.364 OA
INPUT-LIGAND-PDBQT: BRANCH   8   9
INPUT-LIGAND-PDBQT: ATOM      9  P   UNL d   1       3.455   0.578   0.194  0.00  0.00    -0.015 P 
INPUT-LIGAND-PDBQT: ATOM     10  O   UNL d   1       4.367  -0.029   1.267  0.00  0.00    -0.577 OA
INPUT-LIGAND-PDBQT: ATOM     11  O   UNL d   1       3.374   2.100   0.308  0.00  0.00    -0.577 OA
INPUT-LIGAND-PDBQT: ATOM     12  O   UNL d   1       3.825   0.102  -1.210  0.00  0.00    -0.638 OA
INPUT-LIGAND-PDBQT: ENDBRANCH   8   9
INPUT-LIGAND-PDBQT: ENDBRANCH   7   8
INPUT-LIGAND-PDBQT: ENDBRANCH   1   7
INPUT-LIGAND-PDBQT: BRANCH   1  13
INPUT-LIGAND-PDBQT: ATOM     13  C   UNL d   1      -0.687  -1.734  -0.323  0.00  0.00     0.073 C 
INPUT-LIGAND-PDBQT: ATOM     14  O   UNL d   1      -0.704  -2.000  -1.576  0.00  0.00    -0.547 OA
INPUT-LIGAND-PDBQT: ATOM     15  O   UNL d   1      -0.694  -2.619   0.607  0.00  0.00    -0.547 OA
INPUT-LIGAND-PDBQT: ENDBRANCH   1  13
INPUT-LIGAND-PDBQT: TORSDOF 6
________________________________________________________________________________

Total charge on ligand                               =	-4.960 e
REMARK  6 active torsions:
REMARK  status: ('A' for Active; 'I' for Inactive)
REMARK    1  A    between atoms: P_1  and  O_3 
REMARK    2  A    between atoms: P_2  and  O_4 
REMARK    3  A    between atoms: O_3  and  C_13 
REMARK    4  A    between atoms: O_4  and  C_14 
REMARK    5  A    between atoms: C_13  and  C_14 
REMARK    6  A    between atoms: C_13  and  C_15 


Number of Rotatable Bonds in Small Molecule =	6 torsions
Number of atoms in ligand:  15

Number of non-hydrogen atoms in ligand:  15

Number of vibrational degrees of freedom of ligand:  39


Number of torsional degrees of freedom = 6
Estimated loss of torsional free energy upon binding = +1.7898 kcal/mol


DPF> about 0.015 0.083 0.031            # small molecule center

Small molecule center of rotation =	(+0.015, +0.083, +0.031)

DPF> tran0 random                         # initial coordinates/A or random

Initial translation =			(20.338, 25.644, 6.733) Angstroms
DPF> quaternion0 random                   # initial orientation

Each run will begin with a new, random initial orientation.
Initial quaternion,  (x,y,z,w) =	( -0.531, -0.349, -0.771, -0.047 ),
DPF> dihe0 random                         # initial dihedrals (relative) or random

DPF> torsdof 6                            # torsional degrees of freedom

Number of torsional degrees of freedom = 6
Free energy coefficient for torsional degrees of freedom = 0.2983, the factory default value.

Estimated loss of torsional free energy upon binding = +1.7898 kcal/mol

DPF> rmstol 2.0                           # cluster_tolerance/A

Maximum RMS tolerance for conformational cluster analysis = 2.00 Angstroms
DPF> extnrg 1000.0                        # external grid energy

External grid energy (beyond grid map walls) = 1000.00

DPF> e0max 0.0 10000                      # max initial energy; max number of retries

Using user-specified maximum number of retries for simanneal initialization, 10000 retries.
If the simanneal initial energy is greater than e0max, 0.000,
then a new, random initial state will be created.

DPF> ga_pop_size 150                      # number of individuals in population

A population of 150 individuals will be used
DPF> ga_num_evals 25000000                # maximum number of energy evaluations

There will be at most 25000000 function evaluations used.
DPF> ga_num_generations 27000             # maximum number of generations

The GA will run for at most 27000 generations.
DPF> ga_elitism 1                         # number of top individuals to survive to next generation

The 1 best will be preserved each GA generation.
DPF> ga_mutation_rate 0.02                # rate of gene mutation

The mutation rate is 0.020000.
DPF> ga_crossover_rate 0.8                # rate of crossover

The crossover rate is 0.800000.
DPF> ga_window_size 10                    # 

The GA's selection window is 10 generations.
DPF> ga_cauchy_alpha 0.0                  # Alpha parameter of Cauchy distribution

The alpha parameter (for the Cauchy distribution) is being set to 0.000000.
DPF> ga_cauchy_beta 1.0                   # Beta parameter Cauchy distribution

The beta parameter (for the Cauchy distribution) is being set to 1.000000.
DPF> set_ga                               # set the above parameters for GA or LGA

DPF> sw_max_its 300                       # iterations of Solis & Wets local search

Solis & Wets algorithms will perform at most 300 iterations.
DPF> sw_max_succ 4                        # consecutive successes before changing rho

Solis & Wets algorithms expand rho every 4 in a row successes.
DPF> sw_max_fail 4                        # consecutive failures before changing rho

Solis & Wets algorithms contract rho every 4 in a row failures.
DPF> sw_rho 1.0                           # size of local search space to sample

rho is set to 1.000000.
DPF> sw_lb_rho 0.01                       # lower bound on rho

rho will never get smaller than 0.010000.
DPF> ls_search_freq 0.06                  # probability of performing local search on individual

Local search will be performed with frequency 0.060000.
DPF> set_psw1                             # set the above pseudo-Solis & Wets parameters

Creating a new Local Search object using the pseudo-Solis-Wets algorithm (pSW1) with the current settings.

DPF> unbound_model bound                  # state of unbound ligand

DPF> ga_run 100                           # do this many hybrid GA-LS runs

centering ligand on specified point: 0.015 0.083 0.031
Furthest true ligand atom from "about" center is 4.525 Angstroms (maxrad).
Number of requested GA dockings = 100 runs
Unbound model to be used is 'same as bound' [AutoDock 4.2 default].

	BEGINNING GENETIC ALGORITHM DOCKING 1 of 100
Run: 1 Seed: 1709664286 2114100322 [ Run 1 of 100 GA/GALS ]
Beginning LAMARCKIAN GENETIC ALGORITHM (LGA), with a maximum of 25000000 energy evaluations.

Final-Value: -8.288


	FINAL GENETIC ALGORITHM DOCKED STATE
	_______________________________________________


Detailed state:  trans -13.707 6.042 8.405 quatxyzw -0.795441 -0.102661 0.505335 0.318387 center 0.015 0.083 0.031 ntor 6 4.2864 177.5429 162.9115 40.2687 12.6506 -32.0554
State:	-13.707   6.042   8.405  -0.839 -0.108  0.533 142.869      4.29  177.54  162.91   40.27   12.65  -32.06

DOCKED: MODEL        1
DOCKED: USER    Run = 1
DOCKED: USER    DPF = D:/Protein_go_brrr/autodock/final/mut_Y35F/2_3_BPG/dock.dpf
DOCKED: USER  
DOCKED: USER    Estimated Free Energy of Binding    =   -8.51 kcal/mol  [=(1)+(2)+(3)-(4)]
DOCKED: USER    Estimated Inhibition Constant, Ki   =  578.90 nM (nanomolar)  [Temperature = 298.15 K]
DOCKED: USER    
DOCKED: USER    (1) Final Intermolecular Energy     =  -10.30 kcal/mol
DOCKED: USER        vdW + Hbond + desolv Energy     =   -3.35 kcal/mol
DOCKED: USER        Electrostatic Energy            =   -6.95 kcal/mol
DOCKED: USER    (2) Final Total Internal Energy     =   +2.01 kcal/mol
DOCKED: USER    (3) Torsional Free Energy           =   +1.79 kcal/mol
DOCKED: USER    (4) Unbound System's Energy  [=(2)] =   +2.01 kcal/mol
DOCKED: USER    
DOCKED: USER    
DOCKED: USER    NEWDPF move 2_3_BPG_opt.pdbqt
DOCKED: USER    NEWDPF about 0.015000 0.083000 0.031000
DOCKED: USER    NEWDPF tran0 -13.706577 6.042171 8.404627
DOCKED: USER    NEWDPF quaternion0 -0.795441 -0.102661 0.505335 0.318387
DOCKED: USER    NEWDPF axisangle0 -0.839108 -0.108297 0.533076 142.869245
DOCKED: USER    NEWDPF quat0 -0.839108 -0.108297 0.533076 142.869245
DOCKED: USER    NEWDPF dihe0 4.29 177.54 162.91 40.27 12.65 -32.06 
DOCKED: USER  keepresnum = 1 
DOCKED: USER  
DOCKED: REMARK  6 active torsions:
DOCKED: REMARK  status: ('A' for Active; 'I' for Inactive)
DOCKED: REMARK    1  A    between atoms: P_1  and  O_3 
DOCKED: REMARK    2  A    between atoms: P_2  and  O_4 
DOCKED: REMARK    3  A    between atoms: O_3  and  C_13 
DOCKED: REMARK    4  A    between atoms: O_4  and  C_14 
DOCKED: REMARK    5  A    between atoms: C_13  and  C_14 
DOCKED: REMARK    6  A    between atoms: C_13  and  C_15 
DOCKED: USER                              x       y       z     vdW  Elec       q    Type
DOCKED: USER                           _______ _______ _______ _____ _____    ______ ____
DOCKED: ROOT
DOCKED: ATOM      1  C   UNL d   1     -14.201   6.320   8.762 -0.13 +0.29    +0.193 C 
DOCKED: ENDROOT
DOCKED: BRANCH   1   2
DOCKED: ATOM      2  O   UNL d   1     -13.831   6.260  10.180 +0.01 -0.69    -0.356 OA
DOCKED: BRANCH   2   3
DOCKED: ATOM      3  P   UNL d   1     -14.257   5.020  11.173 -0.20 -0.02    -0.014 P 
DOCKED: ATOM      4  O   UNL d   1     -15.197   4.153  10.320 +0.17 -1.03    -0.577 OA
DOCKED: ATOM      5  O   UNL d   1     -14.985   5.628  12.369 -0.02 -0.53    -0.577 OA
DOCKED: ATOM      6  O   UNL d   1     -12.989   4.263  11.553 -0.63 -1.23    -0.638 OA
DOCKED: ENDBRANCH   2   3
DOCKED: ENDBRANCH   1   2
DOCKED: BRANCH   1   7
DOCKED: ATOM      7  C   UNL d   1     -12.943   5.944   7.895 -0.16 +0.31    +0.201 C 
DOCKED: BRANCH   7   8
DOCKED: ATOM      8  O   UNL d   1     -13.141   4.898   6.918 -0.26 -0.59    -0.364 OA
DOCKED: BRANCH   8   9
DOCKED: ATOM      9  P   UNL d   1     -11.836   4.150   6.229 -0.54 -0.02    -0.015 P 
DOCKED: ATOM     10  O   UNL d   1     -10.640   5.052   6.556 -0.04 -0.51    -0.577 OA
DOCKED: ATOM     11  O   UNL d   1     -12.105   4.081   4.726 -0.64 -0.46    -0.577 OA
DOCKED: ATOM     12  O   UNL d   1     -11.711   2.772   6.878 -0.39 -1.20    -0.638 OA
DOCKED: ENDBRANCH   8   9
DOCKED: ENDBRANCH   7   8
DOCKED: ENDBRANCH   1   7
DOCKED: BRANCH   1  13
DOCKED: ATOM     13  C   UNL d   1     -14.655   7.780   8.384 -0.08 +0.08    +0.073 C 
DOCKED: ATOM     14  O   UNL d   1     -13.834   8.744   8.574 -0.45 -1.01    -0.547 OA
DOCKED: ATOM     15  O   UNL d   1     -15.813   7.908   7.844 +0.02 -0.34    -0.547 OA
DOCKED: ENDBRANCH   1  13
DOCKED: TORSDOF 6
DOCKED: TER
DOCKED: ENDMDL
________________________________________________________________________________


	BEGINNING GENETIC ALGORITHM DOCKING 2 of 100
Run: 2 Seed: 1864476123 2089874169 [ Run 2 of 100 GA/GALS ]
Beginning LAMARCKIAN GENETIC ALGORITHM (LGA), with a maximum of 25000000 energy evaluations.

Final-Value: -7.960


	FINAL GENETIC ALGORITHM DOCKED STATE
	_______________________________________________


Detailed state:  trans -14.124 4.784 11.385 quatxyzw 0.774058 -0.135625 -0.143333 -0.601577 center 0.015 0.083 0.031 ntor 6 -11.0373 124.8605 14.3342 156.6888 -40.2227 -34.3840
State:	-14.124   4.784  11.385   0.969 -0.170 -0.179 -106.034    -11.04  124.86   14.33  156.69  -40.22  -34.38

DOCKED: MODEL        2
DOCKED: USER    Run = 2
DOCKED: USER    DPF = D:/Protein_go_brrr/autodock/final/mut_Y35F/2_3_BPG/dock.dpf
DOCKED: USER  
DOCKED: USER    Estimated Free Energy of Binding    =   -8.62 kcal/mol  [=(1)+(2)+(3)-(4)]
DOCKED: USER    Estimated Inhibition Constant, Ki   =  477.49 nM (nanomolar)  [Temperature = 298.15 K]
DOCKED: USER    
DOCKED: USER    (1) Final Intermolecular Energy     =  -10.41 kcal/mol
DOCKED: USER        vdW + Hbond + desolv Energy     =   -3.77 kcal/mol
DOCKED: USER        Electrostatic Energy            =   -6.65 kcal/mol
DOCKED: USER    (2) Final Total Internal Energy     =   +2.45 kcal/mol
DOCKED: USER    (3) Torsional Free Energy           =   +1.79 kcal/mol
DOCKED: USER    (4) Unbound System's Energy  [=(2)] =   +2.45 kcal/mol
DOCKED: USER    
DOCKED: USER    
DOCKED: USER    NEWDPF move 2_3_BPG_opt.pdbqt
DOCKED: USER    NEWDPF about 0.015000 0.083000 0.031000
DOCKED: USER    NEWDPF tran0 -14.124207 4.784024 11.385400
DOCKED: USER    NEWDPF quaternion0 0.774058 -0.135625 -0.143333 -0.601577
DOCKED: USER    NEWDPF axisangle0 0.969009 -0.169783 -0.179432 -106.034102
DOCKED: USER    NEWDPF quat0 0.969009 -0.169783 -0.179432 -106.034102
DOCKED: USER    NEWDPF dihe0 -11.04 124.86 14.33 156.69 -40.22 -34.38 
DOCKED: USER  keepresnum = 1 
DOCKED: USER  
DOCKED: REMARK  6 active torsions:
DOCKED: REMARK  status: ('A' for Active; 'I' for Inactive)
DOCKED: REMARK    1  A    between atoms: P_1  and  O_3 
DOCKED: REMARK    2  A    between atoms: P_2  and  O_4 
DOCKED: REMARK    3  A    between atoms: O_3  and  C_13 
DOCKED: REMARK    4  A    between atoms: O_4  and  C_14 
DOCKED: REMARK    5  A    between atoms: C_13  and  C_14 
DOCKED: REMARK    6  A    between atoms: C_13  and  C_15 
DOCKED: USER                              x       y       z     vdW  Elec       q    Type
DOCKED: USER                           _______ _______ _______ _____ _____    ______ ____
DOCKED: ROOT
DOCKED: ATOM      1  C   UNL d   1     -14.689   5.000  11.095 -0.17 +0.28    +0.193 C 
DOCKED: ENDROOT
DOCKED: BRANCH   1   2
DOCKED: ATOM      2  O   UNL d   1     -15.439   5.784  12.082 -0.05 -0.31    -0.356 OA
DOCKED: BRANCH   2   3
DOCKED: ATOM      3  P   UNL d   1     -14.734   6.532  13.366 -0.14 -0.01    -0.014 P 
DOCKED: ATOM      4  O   UNL d   1     -14.059   5.394  14.149 +0.02 -0.33    -0.577 OA
DOCKED: ATOM      5  O   UNL d   1     -15.851   7.186  14.177 +0.02 -0.26    -0.577 OA
DOCKED: ATOM      6  O   UNL d   1     -13.710   7.526  12.829 -0.38 -1.29    -0.638 OA
DOCKED: ENDBRANCH   2   3
DOCKED: ENDBRANCH   1   2
DOCKED: BRANCH   1   7
DOCKED: ATOM      7  C   UNL d   1     -13.243   4.734  11.655 -0.10 +0.34    +0.201 C 
DOCKED: BRANCH   7   8
DOCKED: ATOM      8  O   UNL d   1     -12.834   3.349  11.713 -0.60 -0.68    -0.364 OA
DOCKED: BRANCH   8   9
DOCKED: ATOM      9  P   UNL d   1     -11.270   2.931  11.375 -0.63 -0.02    -0.015 P 
DOCKED: ATOM     10  O   UNL d   1     -11.307   1.420  11.121 -0.58 -0.65    -0.577 OA
DOCKED: ATOM     11  O   UNL d   1     -10.438   3.283  12.609 -0.71 -0.58    -0.577 OA
DOCKED: ATOM     12  O   UNL d   1     -10.853   3.713  10.130 -0.14 -1.16    -0.638 OA
DOCKED: ENDBRANCH   8   9
DOCKED: ENDBRANCH   7   8
DOCKED: ENDBRANCH   1   7
DOCKED: BRANCH   1  13
DOCKED: ATOM     13  C   UNL d   1     -14.567   5.803   9.747 -0.18 +0.12    +0.073 C 
DOCKED: ATOM     14  O   UNL d   1     -14.297   7.054   9.803 +0.06 -1.00    -0.547 OA
DOCKED: ATOM     15  O   UNL d   1     -14.685   5.135   8.658 -0.17 -1.09    -0.547 OA
DOCKED: ENDBRANCH   1  13
DOCKED: TORSDOF 6
DOCKED: TER
DOCKED: ENDMDL
________________________________________________________________________________


	BEGINNING GENETIC ALGORITHM DOCKING 3 of 100
Run: 3 Seed: 1323584959 1412099997 [ Run 3 of 100 GA/GALS ]
Beginning LAMARCKIAN GENETIC ALGORITHM (LGA), with a maximum of 25000000 energy evaluations.

Final-Value: -8.591


	FINAL GENETIC ALGORITHM DOCKED STATE
	_______________________________________________


Detailed state:  trans -13.647 4.961 12.422 quatxyzw 0.369570 -0.252236 -0.432798 -0.782612 center 0.015 0.083 0.031 ntor 6 -175.5322 -103.5220 90.4575 12.7012 -24.3350 55.4822
State:	-13.647   4.961  12.422   0.594 -0.405 -0.695 -76.999   -175.53 -103.52   90.46   12.70  -24.33   55.48

DOCKED: MODEL        3
DOCKED: USER    Run = 3
DOCKED: USER    DPF = D:/Protein_go_brrr/autodock/final/mut_Y35F/2_3_BPG/dock.dpf
DOCKED: USER  
DOCKED: USER    Estimated Free Energy of Binding    =   -8.91 kcal/mol  [=(1)+(2)+(3)-(4)]
DOCKED: USER    Estimated Inhibition Constant, Ki   =  295.64 nM (nanomolar)  [Temperature = 298.15 K]
DOCKED: USER    
DOCKED: USER    (1) Final Intermolecular Energy     =  -10.70 kcal/mol
DOCKED: USER        vdW + Hbond + desolv Energy     =   -4.36 kcal/mol
DOCKED: USER        Electrostatic Energy            =   -6.34 kcal/mol
DOCKED: USER    (2) Final Total Internal Energy     =   +2.11 kcal/mol
DOCKED: USER    (3) Torsional Free Energy           =   +1.79 kcal/mol
DOCKED: USER    (4) Unbound System's Energy  [=(2)] =   +2.11 kcal/mol
DOCKED: USER    
DOCKED: USER    
DOCKED: USER    NEWDPF move 2_3_BPG_opt.pdbqt
DOCKED: USER    NEWDPF about 0.015000 0.083000 0.031000
DOCKED: USER    NEWDPF tran0 -13.646912 4.960531 12.422442
DOCKED: USER    NEWDPF quaternion0 0.369570 -0.252236 -0.432798 -0.782612
DOCKED: USER    NEWDPF axisangle0 0.593677 -0.405192 -0.695246 -76.999328
DOCKED: USER    NEWDPF quat0 0.593677 -0.405192 -0.695246 -76.999328
DOCKED: USER    NEWDPF dihe0 -175.53 -103.52 90.46 12.70 -24.33 55.48 
DOCKED: USER  keepresnum = 1 
DOCKED: USER  
DOCKED: REMARK  6 active torsions:
DOCKED: REMARK  status: ('A' for Active; 'I' for Inactive)
DOCKED: REMARK    1  A    between atoms: P_1  and  O_3 
DOCKED: REMARK    2  A    between atoms: P_2  and  O_4 
DOCKED: REMARK    3  A    between atoms: O_3  and  C_13 
DOCKED: REMARK    4  A    between atoms: O_4  and  C_14 
DOCKED: REMARK    5  A    between atoms: C_13  and  C_14 
DOCKED: REMARK    6  A    between atoms: C_13  and  C_15 
DOCKED: USER                              x       y       z     vdW  Elec       q    Type
DOCKED: USER                           _______ _______ _______ _____ _____    ______ ____
DOCKED: ROOT
DOCKED: ATOM      1  C   UNL d   1     -14.158   5.323  12.186 -0.17 +0.23    +0.193 C 
DOCKED: ENDROOT
DOCKED: BRANCH   1   2
DOCKED: ATOM      2  O   UNL d   1     -13.830   6.743  12.357 -0.36 -0.61    -0.356 OA
DOCKED: BRANCH   2   3
DOCKED: ATOM      3  P   UNL d   1     -14.733   7.775  13.265 -0.09 -0.01    -0.014 P 
DOCKED: ATOM      4  O   UNL d   1     -14.444   7.362  14.716 -0.00 -0.32    -0.577 OA
DOCKED: ATOM      5  O   UNL d   1     -16.196   7.541  12.895 +0.00 -0.35    -0.577 OA
DOCKED: ATOM      6  O   UNL d   1     -14.254   9.195  12.981 -0.38 -1.00    -0.638 OA
DOCKED: ENDBRANCH   2   3
DOCKED: ENDBRANCH   1   2
DOCKED: BRANCH   1   7
DOCKED: ATOM      7  C   UNL d   1     -12.866   4.469  12.461 -0.24 +0.24    +0.201 C 
DOCKED: BRANCH   7   8
DOCKED: ATOM      8  O   UNL d   1     -12.713   3.280  11.656 -0.58 -0.70    -0.364 OA
DOCKED: BRANCH   8   9
DOCKED: ATOM      9  P   UNL d   1     -11.219   2.599  11.456 -0.69 -0.02    -0.015 P 
DOCKED: ATOM     10  O   UNL d   1     -10.610   3.323  10.249 -0.27 -0.93    -0.577 OA
DOCKED: ATOM     11  O   UNL d   1     -11.439   1.113  11.178 -0.58 -0.58    -0.577 OA
DOCKED: ATOM     12  O   UNL d   1     -10.430   2.858  12.739 -0.69 -0.56    -0.638 OA
DOCKED: ENDBRANCH   8   9
DOCKED: ENDBRANCH   7   8
DOCKED: ENDBRANCH   1   7
DOCKED: BRANCH   1  13
DOCKED: ATOM     13  C   UNL d   1     -14.636   5.054  10.710 -0.15 +0.12    +0.073 C 
DOCKED: ATOM     14  O   UNL d   1     -15.800   4.553  10.526 -0.07 -0.62    -0.547 OA
DOCKED: ATOM     15  O   UNL d   1     -13.844   5.417   9.766 -0.08 -1.20    -0.547 OA
DOCKED: ENDBRANCH   1  13
DOCKED: TORSDOF 6
DOCKED: TER
DOCKED: ENDMDL
________________________________________________________________________________


	BEGINNING GENETIC ALGORITHM DOCKING 4 of 100
Run: 4 Seed: 1280645147 1589944066 [ Run 4 of 100 GA/GALS ]
Beginning LAMARCKIAN GENETIC ALGORITHM (LGA), with a maximum of 25000000 energy evaluations.

Final-Value: -8.452


	FINAL GENETIC ALGORITHM DOCKED STATE
	_______________________________________________


Detailed state:  trans -13.957 5.304 11.409 quatxyzw -0.509326 0.316754 0.265263 0.754910 center 0.015 0.083 0.031 ntor 6 -178.8937 174.0162 0.8899 85.3721 -33.3768 15.2940
State:	-13.957   5.304  11.409  -0.777  0.483  0.404 81.965   -178.89  174.02    0.89   85.37  -33.38   15.29

DOCKED: MODEL        4
DOCKED: USER    Run = 4
DOCKED: USER    DPF = D:/Protein_go_brrr/autodock/final/mut_Y35F/2_3_BPG/dock.dpf
DOCKED: USER  
DOCKED: USER    Estimated Free Energy of Binding    =   -8.72 kcal/mol  [=(1)+(2)+(3)-(4)]
DOCKED: USER    Estimated Inhibition Constant, Ki   =  403.49 nM (nanomolar)  [Temperature = 298.15 K]
DOCKED: USER    
DOCKED: USER    (1) Final Intermolecular Energy     =  -10.51 kcal/mol
DOCKED: USER        vdW + Hbond + desolv Energy     =   -3.55 kcal/mol
DOCKED: USER        Electrostatic Energy            =   -6.96 kcal/mol
DOCKED: USER    (2) Final Total Internal Energy     =   +2.06 kcal/mol
DOCKED: USER    (3) Torsional Free Energy           =   +1.79 kcal/mol
DOCKED: USER    (4) Unbound System's Energy  [=(2)] =   +2.06 kcal/mol
DOCKED: USER    
DOCKED: USER    
DOCKED: USER    NEWDPF move 2_3_BPG_opt.pdbqt
DOCKED: USER    NEWDPF about 0.015000 0.083000 0.031000
DOCKED: USER    NEWDPF tran0 -13.957146 5.304265 11.408859
DOCKED: USER    NEWDPF quaternion0 -0.509326 0.316754 0.265263 0.754910
DOCKED: USER    NEWDPF axisangle0 -0.776615 0.482983 0.404471 81.965042
DOCKED: USER    NEWDPF quat0 -0.776615 0.482983 0.404471 81.965042
DOCKED: USER    NEWDPF dihe0 -178.89 174.02 0.89 85.37 -33.38 15.29 
DOCKED: USER  keepresnum = 1 
DOCKED: USER  
DOCKED: REMARK  6 active torsions:
DOCKED: REMARK  status: ('A' for Active; 'I' for Inactive)
DOCKED: REMARK    1  A    between atoms: P_1  and  O_3 
DOCKED: REMARK    2  A    between atoms: P_2  and  O_4 
DOCKED: REMARK    3  A    between atoms: O_3  and  C_13 
DOCKED: REMARK    4  A    between atoms: O_4  and  C_14 
DOCKED: REMARK    5  A    between atoms: C_13  and  C_14 
DOCKED: REMARK    6  A    between atoms: C_13  and  C_15 
DOCKED: USER                              x       y       z     vdW  Elec       q    Type
DOCKED: USER                           _______ _______ _______ _____ _____    ______ ____
DOCKED: ROOT
DOCKED: ATOM      1  C   UNL d   1     -14.437   5.566  11.021 -0.16 +0.29    +0.193 C 
DOCKED: ENDROOT
DOCKED: BRANCH   1   2
DOCKED: ATOM      2  O   UNL d   1     -14.585   6.983  11.370 -0.19 -0.61    -0.356 OA
DOCKED: BRANCH   2   3
DOCKED: ATOM      3  P   UNL d   1     -14.691   7.525  12.919 -0.03 -0.02    -0.014 P 
DOCKED: ATOM      4  O   UNL d   1     -14.858   6.251  13.760 +0.00 -0.37    -0.577 OA
DOCKED: ATOM      5  O   UNL d   1     -15.926   8.420  13.002 -0.02 -0.39    -0.577 OA
DOCKED: ATOM      6  O   UNL d   1     -13.392   8.251  13.253 -0.39 -1.25    -0.638 OA
DOCKED: ENDBRANCH   2   3
DOCKED: ENDBRANCH   1   2
DOCKED: BRANCH   1   7
DOCKED: ATOM      7  C   UNL d   1     -13.133   5.011  11.704 -0.11 +0.33    +0.201 C 
DOCKED: BRANCH   7   8
DOCKED: ATOM      8  O   UNL d   1     -12.899   3.593  11.558 -0.66 -0.76    -0.364 OA
DOCKED: BRANCH   8   9
DOCKED: ATOM      9  P   UNL d   1     -11.352   3.007  11.523 -0.65 -0.02    -0.015 P 
DOCKED: ATOM     10  O   UNL d   1     -11.503   1.500  11.281 -0.41 -0.66    -0.577 OA
DOCKED: ATOM     11  O   UNL d   1     -10.731   3.306  12.887 -0.70 -0.49    -0.577 OA
DOCKED: ATOM     12  O   UNL d   1     -10.631   3.704  10.371 -0.22 -1.02    -0.638 OA
DOCKED: ENDBRANCH   8   9
DOCKED: ENDBRANCH   7   8
DOCKED: ENDBRANCH   1   7
DOCKED: BRANCH   1  13
DOCKED: ATOM     13  C   UNL d   1     -14.296   5.406   9.461 +0.08 +0.15    +0.073 C 
DOCKED: ATOM     14  O   UNL d   1     -15.106   4.624   8.851 -0.10 -1.13    -0.547 OA
DOCKED: ATOM     15  O   UNL d   1     -13.407   6.127   8.879 -0.00 -1.01    -0.547 OA
DOCKED: ENDBRANCH   1  13
DOCKED: TORSDOF 6
DOCKED: TER
DOCKED: ENDMDL
________________________________________________________________________________


	BEGINNING GENETIC ALGORITHM DOCKING 5 of 100
Run: 5 Seed: 427226510 1922746278 [ Run 5 of 100 GA/GALS ]
Beginning LAMARCKIAN GENETIC ALGORITHM (LGA), with a maximum of 25000000 energy evaluations.

Final-Value: -8.487


	FINAL GENETIC ALGORITHM DOCKED STATE
	_______________________________________________


Detailed state:  trans -13.672 5.320 11.357 quatxyzw 0.729741 -0.044469 0.528946 0.430949 center 0.015 0.083 0.031 ntor 6 -173.6174 -134.1123 175.5764 35.9884 5.6987 -65.4566
State:	-13.672   5.320  11.357   0.809 -0.049  0.586 128.944   -173.62 -134.11  175.58   35.99    5.70  -65.46

DOCKED: MODEL        5
DOCKED: USER    Run = 5
DOCKED: USER    DPF = D:/Protein_go_brrr/autodock/final/mut_Y35F/2_3_BPG/dock.dpf
DOCKED: USER  
DOCKED: USER    Estimated Free Energy of Binding    =   -8.80 kcal/mol  [=(1)+(2)+(3)-(4)]
DOCKED: USER    Estimated Inhibition Constant, Ki   =  352.02 nM (nanomolar)  [Temperature = 298.15 K]
DOCKED: USER    
DOCKED: USER    (1) Final Intermolecular Energy     =  -10.59 kcal/mol
DOCKED: USER        vdW + Hbond + desolv Energy     =   -4.17 kcal/mol
DOCKED: USER        Electrostatic Energy            =   -6.42 kcal/mol
DOCKED: USER    (2) Final Total Internal Energy     =   +2.11 kcal/mol
DOCKED: USER    (3) Torsional Free Energy           =   +1.79 kcal/mol
DOCKED: USER    (4) Unbound System's Energy  [=(2)] =   +2.11 kcal/mol
DOCKED: USER    
DOCKED: USER    
DOCKED: USER    NEWDPF move 2_3_BPG_opt.pdbqt
DOCKED: USER    NEWDPF about 0.015000 0.083000 0.031000
DOCKED: USER    NEWDPF tran0 -13.672371 5.320067 11.356960
DOCKED: USER    NEWDPF quaternion0 0.729741 -0.044469 0.528946 0.430949
DOCKED: USER    NEWDPF axisangle0 0.808688 -0.049280 0.586170 128.944374
DOCKED: USER    NEWDPF quat0 0.808688 -0.049280 0.586170 128.944374
DOCKED: USER    NEWDPF dihe0 -173.62 -134.11 175.58 35.99 5.70 -65.46 
DOCKED: USER  keepresnum = 1 
DOCKED: USER  
DOCKED: REMARK  6 active torsions:
DOCKED: REMARK  status: ('A' for Active; 'I' for Inactive)
DOCKED: REMARK    1  A    between atoms: P_1  and  O_3 
DOCKED: REMARK    2  A    between atoms: P_2  and  O_4 
DOCKED: REMARK    3  A    between atoms: O_3  and  C_13 
DOCKED: REMARK    4  A    between atoms: O_4  and  C_14 
DOCKED: REMARK    5  A    between atoms: C_13  and  C_14 
DOCKED: REMARK    6  A    between atoms: C_13  and  C_15 
DOCKED: USER                              x       y       z     vdW  Elec       q    Type
DOCKED: USER                           _______ _______ _______ _____ _____    ______ ____
DOCKED: ROOT
DOCKED: ATOM      1  C   UNL d   1     -13.975   5.874  11.132 -0.02 +0.32    +0.193 C 
DOCKED: ENDROOT
DOCKED: BRANCH   1   2
DOCKED: ATOM      2  O   UNL d   1     -14.642   5.548   9.866 -0.14 -0.60    -0.356 OA
DOCKED: BRANCH   2   3
DOCKED: ATOM      3  P   UNL d   1     -13.970   5.831   8.392 -0.17 -0.02    -0.014 P 
DOCKED: ATOM      4  O   UNL d   1     -12.500   5.414   8.555 +0.05 -1.23    -0.577 OA
DOCKED: ATOM      5  O   UNL d   1     -14.101   7.327   8.114 -0.05 -0.70    -0.577 OA
DOCKED: ATOM      6  O   UNL d   1     -14.690   4.957   7.370 -0.51 -0.98    -0.638 OA
DOCKED: ENDBRANCH   2   3
DOCKED: ENDBRANCH   1   2
DOCKED: BRANCH   1   7
DOCKED: ATOM      7  C   UNL d   1     -13.512   4.536  11.817 -0.13 +0.31    +0.201 C 
DOCKED: BRANCH   7   8
DOCKED: ATOM      8  O   UNL d   1     -12.155   4.124  11.543 -0.73 -0.64    -0.364 OA
DOCKED: BRANCH   8   9
DOCKED: ATOM      9  P   UNL d   1     -11.627   2.633  12.028 -0.75 -0.02    -0.015 P 
DOCKED: ATOM     10  O   UNL d   1     -12.815   2.011  12.772 -0.12 -0.34    -0.577 OA
DOCKED: ATOM     11  O   UNL d   1     -10.432   2.862  12.953 -0.71 -0.46    -0.577 OA
DOCKED: ATOM     12  O   UNL d   1     -11.266   1.849  10.767 -0.26 -0.93    -0.638 OA
DOCKED: ENDBRANCH   8   9
DOCKED: ENDBRANCH   7   8
DOCKED: ENDBRANCH   1   7
DOCKED: BRANCH   1  13
DOCKED: ATOM     13  C   UNL d   1     -14.976   6.615  12.095 -0.12 +0.08    +0.073 C 
DOCKED: ATOM     14  O   UNL d   1     -14.683   7.797  12.490 -0.54 -0.86    -0.547 OA
DOCKED: ATOM     15  O   UNL d   1     -16.070   6.005  12.378 +0.01 -0.35    -0.547 OA
DOCKED: ENDBRANCH   1  13
DOCKED: TORSDOF 6
DOCKED: TER
DOCKED: ENDMDL
________________________________________________________________________________


	BEGINNING GENETIC ALGORITHM DOCKING 6 of 100
Run: 6 Seed: 216558523 900697606 [ Run 6 of 100 GA/GALS ]
Beginning LAMARCKIAN GENETIC ALGORITHM (LGA), with a maximum of 25000000 energy evaluations.

Final-Value: -8.383


	FINAL GENETIC ALGORITHM DOCKED STATE
	_______________________________________________


Detailed state:  trans -13.971 5.012 11.157 quatxyzw -0.338900 -0.479888 0.809080 0.015596 center 0.015 0.083 0.031 ntor 6 -125.0112 -172.6239 55.7388 27.7200 -34.2840 180.0000
State:	-13.971   5.012  11.157  -0.339 -0.480  0.809 178.213   -125.01 -172.62   55.74   27.72  -34.28  180.00

DOCKED: MODEL        6
DOCKED: USER    Run = 6
DOCKED: USER    DPF = D:/Protein_go_brrr/autodock/final/mut_Y35F/2_3_BPG/dock.dpf
DOCKED: USER  
DOCKED: USER    Estimated Free Energy of Binding    =   -8.89 kcal/mol  [=(1)+(2)+(3)-(4)]
DOCKED: USER    Estimated Inhibition Constant, Ki   =  302.81 nM (nanomolar)  [Temperature = 298.15 K]
DOCKED: USER    
DOCKED: USER    (1) Final Intermolecular Energy     =  -10.68 kcal/mol
DOCKED: USER        vdW + Hbond + desolv Energy     =   -3.86 kcal/mol
DOCKED: USER        Electrostatic Energy            =   -6.82 kcal/mol
DOCKED: USER    (2) Final Total Internal Energy     =   +2.30 kcal/mol
DOCKED: USER    (3) Torsional Free Energy           =   +1.79 kcal/mol
DOCKED: USER    (4) Unbound System's Energy  [=(2)] =   +2.30 kcal/mol
DOCKED: USER    
DOCKED: USER    
DOCKED: USER    NEWDPF move 2_3_BPG_opt.pdbqt
DOCKED: USER    NEWDPF about 0.015000 0.083000 0.031000
DOCKED: USER    NEWDPF tran0 -13.970563 5.011608 11.157386
DOCKED: USER    NEWDPF quaternion0 -0.338900 -0.479888 0.809080 0.015596
DOCKED: USER    NEWDPF axisangle0 -0.338941 -0.479947 0.809179 178.212778
DOCKED: USER    NEWDPF quat0 -0.338941 -0.479947 0.809179 178.212778
DOCKED: USER    NEWDPF dihe0 -125.01 -172.62 55.74 27.72 -34.28 180.00 
DOCKED: USER  keepresnum = 1 
DOCKED: USER  
DOCKED: REMARK  6 active torsions:
DOCKED: REMARK  status: ('A' for Active; 'I' for Inactive)
DOCKED: REMARK    1  A    between atoms: P_1  and  O_3 
DOCKED: REMARK    2  A    between atoms: P_2  and  O_4 
DOCKED: REMARK    3  A    between atoms: O_3  and  C_13 
DOCKED: REMARK    4  A    between atoms: O_4  and  C_14 
DOCKED: REMARK    5  A    between atoms: C_13  and  C_14 
DOCKED: REMARK    6  A    between atoms: C_13  and  C_15 
DOCKED: USER                              x       y       z     vdW  Elec       q    Type
DOCKED: USER                           _______ _______ _______ _____ _____    ______ ____
DOCKED: ROOT
DOCKED: ATOM      1  C   UNL d   1     -13.678   4.931  11.755 -0.19 +0.29    +0.193 C 
DOCKED: ENDROOT
DOCKED: BRANCH   1   2
DOCKED: ATOM      2  O   UNL d   1     -12.247   4.692  11.536 -0.52 -0.61    -0.356 OA
DOCKED: BRANCH   2   3
DOCKED: ATOM      3  P   UNL d   1     -11.547   3.211  11.679 -0.60 -0.02    -0.014 P 
DOCKED: ATOM      4  O   UNL d   1     -12.718   2.261  11.979 -0.20 -0.71    -0.577 OA
DOCKED: ATOM      5  O   UNL d   1     -10.569   3.283  12.850 -0.70 -0.51    -0.577 OA
DOCKED: ATOM      6  O   UNL d   1     -10.880   2.875  10.350 -0.16 -1.11    -0.638 OA
DOCKED: ENDBRANCH   2   3
DOCKED: ENDBRANCH   1   2
DOCKED: BRANCH   1   7
DOCKED: ATOM      7  C   UNL d   1     -14.323   5.408  10.402 -0.11 +0.36    +0.201 C 
DOCKED: BRANCH   7   8
DOCKED: ATOM      8  O   UNL d   1     -13.408   5.949   9.424 -0.03 -0.75    -0.364 OA
DOCKED: BRANCH   8   9
DOCKED: ATOM      9  P   UNL d   1     -13.720   5.771   7.809 -0.16 -0.02    -0.015 P 
DOCKED: ATOM     10  O   UNL d   1     -12.499   5.035   7.245 -0.08 -0.99    -0.577 OA
DOCKED: ATOM     11  O   UNL d   1     -13.859   7.177   7.225 +0.01 -0.53    -0.577 OA
DOCKED: ATOM     12  O   UNL d   1     -14.998   4.943   7.685 -0.50 -0.98    -0.638 OA
DOCKED: ENDBRANCH   8   9
DOCKED: ENDBRANCH   7   8
DOCKED: ENDBRANCH   1   7
DOCKED: BRANCH   1  13
DOCKED: ATOM     13  C   UNL d   1     -13.878   6.059  12.835 -0.15 +0.08    +0.073 C 
DOCKED: ATOM     14  O   UNL d   1     -13.604   5.791  14.057 -0.01 -0.37    -0.547 OA
DOCKED: ATOM     15  O   UNL d   1     -14.249   7.212  12.410 -0.46 -0.95    -0.547 OA
DOCKED: ENDBRANCH   1  13
DOCKED: TORSDOF 6
DOCKED: TER
DOCKED: ENDMDL
________________________________________________________________________________


	BEGINNING GENETIC ALGORITHM DOCKING 7 of 100
Run: 7 Seed: 1034931612 1743047526 [ Run 7 of 100 GA/GALS ]
Beginning LAMARCKIAN GENETIC ALGORITHM (LGA), with a maximum of 25000000 energy evaluations.

Final-Value: -8.510


	FINAL GENETIC ALGORITHM DOCKED STATE
	_______________________________________________


Detailed state:  trans -14.155 4.809 12.123 quatxyzw 0.094843 0.391262 -0.913064 0.065056 center 0.015 0.083 0.031 ntor 6 -132.7129 -134.2317 -131.0856 21.0718 52.3363 -145.4421
State:	-14.155   4.809  12.123   0.095  0.392 -0.915 172.540   -132.71 -134.23 -131.09   21.07   52.34 -145.44

DOCKED: MODEL        7
DOCKED: USER    Run = 7
DOCKED: USER    DPF = D:/Protein_go_brrr/autodock/final/mut_Y35F/2_3_BPG/dock.dpf
DOCKED: USER  
DOCKED: USER    Estimated Free Energy of Binding    =   -9.12 kcal/mol  [=(1)+(2)+(3)-(4)]
DOCKED: USER    Estimated Inhibition Constant, Ki   =  205.99 nM (nanomolar)  [Temperature = 298.15 K]
DOCKED: USER    
DOCKED: USER    (1) Final Intermolecular Energy     =  -10.91 kcal/mol
DOCKED: USER        vdW + Hbond + desolv Energy     =   -4.05 kcal/mol
DOCKED: USER        Electrostatic Energy            =   -6.86 kcal/mol
DOCKED: USER    (2) Final Total Internal Energy     =   +2.40 kcal/mol
DOCKED: USER    (3) Torsional Free Energy           =   +1.79 kcal/mol
DOCKED: USER    (4) Unbound System's Energy  [=(2)] =   +2.40 kcal/mol
DOCKED: USER    
DOCKED: USER    
DOCKED: USER    NEWDPF move 2_3_BPG_opt.pdbqt
DOCKED: USER    NEWDPF about 0.015000 0.083000 0.031000
DOCKED: USER    NEWDPF tran0 -14.154939 4.809181 12.122918
DOCKED: USER    NEWDPF quaternion0 0.094843 0.391262 -0.913064 0.065056
DOCKED: USER    NEWDPF axisangle0 0.095044 0.392093 -0.915003 172.539833
DOCKED: USER    NEWDPF quat0 0.095044 0.392093 -0.915003 172.539833
DOCKED: USER    NEWDPF dihe0 -132.71 -134.23 -131.09 21.07 52.34 -145.44 
DOCKED: USER  keepresnum = 1 
DOCKED: USER  
DOCKED: REMARK  6 active torsions:
DOCKED: REMARK  status: ('A' for Active; 'I' for Inactive)
DOCKED: REMARK    1  A    between atoms: P_1  and  O_3 
DOCKED: REMARK    2  A    between atoms: P_2  and  O_4 
DOCKED: REMARK    3  A    between atoms: O_3  and  C_13 
DOCKED: REMARK    4  A    between atoms: O_4  and  C_14 
DOCKED: REMARK    5  A    between atoms: C_13  and  C_14 
DOCKED: REMARK    6  A    between atoms: C_13  and  C_15 
DOCKED: USER                              x       y       z     vdW  Elec       q    Type
DOCKED: USER                           _______ _______ _______ _____ _____    ______ ____
DOCKED: ROOT
DOCKED: ATOM      1  C   UNL d   1     -13.591   4.845  12.484 -0.20 +0.22    +0.193 C 
DOCKED: ENDROOT
DOCKED: BRANCH   1   2
DOCKED: ATOM      2  O   UNL d   1     -12.461   4.547  11.598 -0.71 -0.62    -0.356 OA
DOCKED: BRANCH   2   3
DOCKED: ATOM      3  P   UNL d   1     -11.554   3.180  11.720 -0.61 -0.02    -0.014 P 
DOCKED: ATOM      4  O   UNL d   1     -12.578   2.063  11.978 -0.19 -0.65    -0.577 OA
DOCKED: ATOM      5  O   UNL d   1     -10.613   3.365  12.908 -0.66 -0.50    -0.577 OA
DOCKED: ATOM      6  O   UNL d   1     -10.827   2.977  10.394 -0.21 -1.08    -0.638 OA
DOCKED: ENDBRANCH   2   3
DOCKED: ENDBRANCH   1   2
DOCKED: BRANCH   1   7
DOCKED: ATOM      7  C   UNL d   1     -14.880   5.053  11.606 -0.17 +0.23    +0.201 C 
DOCKED: BRANCH   7   8
DOCKED: ATOM      8  O   UNL d   1     -14.785   4.614  10.233 -0.06 -0.73    -0.364 OA
DOCKED: BRANCH   8   9
DOCKED: ATOM      9  P   UNL d   1     -15.109   5.669   9.000 -0.19 -0.02    -0.015 P 
DOCKED: ATOM     10  O   UNL d   1     -14.256   6.907   9.300 -0.02 -0.94    -0.577 OA
DOCKED: ATOM     11  O   UNL d   1     -16.605   5.979   9.061 +0.02 -0.41    -0.577 OA
DOCKED: ATOM     12  O   UNL d   1     -14.692   4.985   7.699 -0.46 -1.11    -0.638 OA
DOCKED: ENDBRANCH   8   9
DOCKED: ENDBRANCH   7   8
DOCKED: ENDBRANCH   1   7
DOCKED: BRANCH   1  13
DOCKED: ATOM     13  C   UNL d   1     -13.311   6.168  13.290 -0.07 +0.08    +0.073 C 
DOCKED: ATOM     14  O   UNL d   1     -12.538   6.110  14.310 -0.03 -0.38    -0.547 OA
DOCKED: ATOM     15  O   UNL d   1     -13.831   7.249  12.834 -0.49 -0.94    -0.547 OA
DOCKED: ENDBRANCH   1  13
DOCKED: TORSDOF 6
DOCKED: TER
DOCKED: ENDMDL
________________________________________________________________________________


	BEGINNING GENETIC ALGORITHM DOCKING 8 of 100
Run: 8 Seed: 1485018355 1705553284 [ Run 8 of 100 GA/GALS ]
Beginning LAMARCKIAN GENETIC ALGORITHM (LGA), with a maximum of 25000000 energy evaluations.

Final-Value: -8.385


	FINAL GENETIC ALGORITHM DOCKED STATE
	_______________________________________________


Detailed state:  trans -13.963 4.609 12.033 quatxyzw -0.135042 -0.391643 0.910145 0.003879 center 0.015 0.083 0.031 ntor 6 -139.8837 -138.5633 -75.2544 28.6898 7.3210 -177.1622
State:	-13.963   4.609  12.033  -0.135 -0.392  0.910 179.556   -139.88 -138.56  -75.25   28.69    7.32 -177.16

DOCKED: MODEL        8
DOCKED: USER    Run = 8
DOCKED: USER    DPF = D:/Protein_go_brrr/autodock/final/mut_Y35F/2_3_BPG/dock.dpf
DOCKED: USER  
DOCKED: USER    Estimated Free Energy of Binding    =   -8.76 kcal/mol  [=(1)+(2)+(3)-(4)]
DOCKED: USER    Estimated Inhibition Constant, Ki   =  377.94 nM (nanomolar)  [Temperature = 298.15 K]
DOCKED: USER    
DOCKED: USER    (1) Final Intermolecular Energy     =  -10.55 kcal/mol
DOCKED: USER        vdW + Hbond + desolv Energy     =   -4.35 kcal/mol
DOCKED: USER        Electrostatic Energy            =   -6.21 kcal/mol
DOCKED: USER    (2) Final Total Internal Energy     =   +2.17 kcal/mol
DOCKED: USER    (3) Torsional Free Energy           =   +1.79 kcal/mol
DOCKED: USER    (4) Unbound System's Energy  [=(2)] =   +2.17 kcal/mol
DOCKED: USER    
DOCKED: USER    
DOCKED: USER    NEWDPF move 2_3_BPG_opt.pdbqt
DOCKED: USER    NEWDPF about 0.015000 0.083000 0.031000
DOCKED: USER    NEWDPF tran0 -13.963287 4.609350 12.032843
DOCKED: USER    NEWDPF quaternion0 -0.135042 -0.391643 0.910145 0.003879
DOCKED: USER    NEWDPF axisangle0 -0.135043 -0.391646 0.910152 179.555520
DOCKED: USER    NEWDPF quat0 -0.135043 -0.391646 0.910152 179.555520
DOCKED: USER    NEWDPF dihe0 -139.88 -138.56 -75.25 28.69 7.32 -177.16 
DOCKED: USER  keepresnum = 1 
DOCKED: USER  
DOCKED: REMARK  6 active torsions:
DOCKED: REMARK  status: ('A' for Active; 'I' for Inactive)
DOCKED: REMARK    1  A    between atoms: P_1  and  O_3 
DOCKED: REMARK    2  A    between atoms: P_2  and  O_4 
DOCKED: REMARK    3  A    between atoms: O_3  and  C_13 
DOCKED: REMARK    4  A    between atoms: O_4  and  C_14 
DOCKED: REMARK    5  A    between atoms: C_13  and  C_14 
DOCKED: REMARK    6  A    between atoms: C_13  and  C_15 
DOCKED: USER                              x       y       z     vdW  Elec       q    Type
DOCKED: USER                           _______ _______ _______ _____ _____    ______ ____
DOCKED: ROOT
DOCKED: ATOM      1  C   UNL d   1     -13.456   4.701  12.462 -0.22 +0.22    +0.193 C 
DOCKED: ENDROOT
DOCKED: BRANCH   1   2
DOCKED: ATOM      2  O   UNL d   1     -12.199   4.504  11.733 -0.56 -0.57    -0.356 OA
DOCKED: BRANCH   2   3
DOCKED: ATOM      3  P   UNL d   1     -11.283   3.144  11.864 -0.72 -0.02    -0.014 P 
DOCKED: ATOM      4  O   UNL d   1     -12.306   2.002  11.975 -0.21 -0.61    -0.577 OA
DOCKED: ATOM      5  O   UNL d   1     -10.453   3.279  13.139 -0.65 -0.45    -0.577 OA
DOCKED: ATOM      6  O   UNL d   1     -10.440   3.020  10.600 -0.42 -0.89    -0.638 OA
DOCKED: ENDBRANCH   2   3
DOCKED: ENDBRANCH   1   2
DOCKED: BRANCH   1   7
DOCKED: ATOM      7  C   UNL d   1     -14.635   4.778  11.423 -0.16 +0.28    +0.201 C 
DOCKED: BRANCH   7   8
DOCKED: ATOM      8  O   UNL d   1     -14.254   5.045  10.055 -0.08 -0.80    -0.364 OA
DOCKED: BRANCH   8   9
DOCKED: ATOM      9  P   UNL d   1     -15.409   5.402   8.926 -0.18 -0.02    -0.015 P 
DOCKED: ATOM     10  O   UNL d   1     -15.253   6.903   8.657 -0.00 -0.58    -0.577 OA
DOCKED: ATOM     11  O   UNL d   1     -16.763   5.072   9.554 -0.02 -0.43    -0.577 OA
DOCKED: ATOM     12  O   UNL d   1     -15.104   4.561   7.687 -0.56 -1.09    -0.638 OA
DOCKED: ENDBRANCH   8   9
DOCKED: ENDBRANCH   7   8
DOCKED: ENDBRANCH   1   7
DOCKED: BRANCH   1  13
DOCKED: ATOM     13  C   UNL d   1     -13.406   6.052  13.268 -0.13 +0.08    +0.073 C 
DOCKED: ATOM     14  O   UNL d   1     -12.890   6.045  14.441 -0.02 -0.35    -0.547 OA
DOCKED: ATOM     15  O   UNL d   1     -13.833   7.105  12.670 -0.42 -0.97    -0.547 OA
DOCKED: ENDBRANCH   1  13
DOCKED: TORSDOF 6
DOCKED: TER
DOCKED: ENDMDL
________________________________________________________________________________


	BEGINNING GENETIC ALGORITHM DOCKING 9 of 100
Run: 9 Seed: 517451759 777230594 [ Run 9 of 100 GA/GALS ]
Beginning LAMARCKIAN GENETIC ALGORITHM (LGA), with a maximum of 25000000 energy evaluations.

Final-Value: -8.808


	FINAL GENETIC ALGORITHM DOCKED STATE
	_______________________________________________


Detailed state:  trans -13.579 4.884 12.537 quatxyzw 0.347810 -0.252445 -0.460465 -0.776706 center 0.015 0.083 0.031 ntor 6 -4.7211 -29.2044 -160.6853 -11.1846 -22.3530 70.3522
State:	-13.579   4.884  12.537   0.552 -0.401 -0.731 -78.080     -4.72  -29.20 -160.69  -11.18  -22.35   70.35

DOCKED: MODEL        9
DOCKED: USER    Run = 9
DOCKED: USER    DPF = D:/Protein_go_brrr/autodock/final/mut_Y35F/2_3_BPG/dock.dpf
DOCKED: USER  
DOCKED: USER    Estimated Free Energy of Binding    =   -9.24 kcal/mol  [=(1)+(2)+(3)-(4)]
DOCKED: USER    Estimated Inhibition Constant, Ki   =  168.06 nM (nanomolar)  [Temperature = 298.15 K]
DOCKED: USER    
DOCKED: USER    (1) Final Intermolecular Energy     =  -11.03 kcal/mol
DOCKED: USER        vdW + Hbond + desolv Energy     =   -4.45 kcal/mol
DOCKED: USER        Electrostatic Energy            =   -6.59 kcal/mol
DOCKED: USER    (2) Final Total Internal Energy     =   +2.22 kcal/mol
DOCKED: USER    (3) Torsional Free Energy           =   +1.79 kcal/mol
DOCKED: USER    (4) Unbound System's Energy  [=(2)] =   +2.22 kcal/mol
DOCKED: USER    
DOCKED: USER    
DOCKED: USER    NEWDPF move 2_3_BPG_opt.pdbqt
DOCKED: USER    NEWDPF about 0.015000 0.083000 0.031000
DOCKED: USER    NEWDPF tran0 -13.578541 4.883946 12.536973
DOCKED: USER    NEWDPF quaternion0 0.347810 -0.252445 -0.460465 -0.776706
DOCKED: USER    NEWDPF axisangle0 0.552199 -0.400793 -0.731055 -78.080124
DOCKED: USER    NEWDPF quat0 0.552199 -0.400793 -0.731055 -78.080124
DOCKED: USER    NEWDPF dihe0 -4.72 -29.20 -160.69 -11.18 -22.35 70.35 
DOCKED: USER  keepresnum = 1 
DOCKED: USER  
DOCKED: REMARK  6 active torsions:
DOCKED: REMARK  status: ('A' for Active; 'I' for Inactive)
DOCKED: REMARK    1  A    between atoms: P_1  and  O_3 
DOCKED: REMARK    2  A    between atoms: P_2  and  O_4 
DOCKED: REMARK    3  A    between atoms: O_3  and  C_13 
DOCKED: REMARK    4  A    between atoms: O_4  and  C_14 
DOCKED: REMARK    5  A    between atoms: C_13  and  C_14 
DOCKED: REMARK    6  A    between atoms: C_13  and  C_15 
DOCKED: USER                              x       y       z     vdW  Elec       q    Type
DOCKED: USER                           _______ _______ _______ _____ _____    ______ ____
DOCKED: ROOT
DOCKED: ATOM      1  C   UNL d   1     -14.076   5.273  12.312 -0.18 +0.22    +0.193 C 
DOCKED: ENDROOT
DOCKED: BRANCH   1   2
DOCKED: ATOM      2  O   UNL d   1     -13.658   6.673  12.448 -0.29 -0.60    -0.356 OA
DOCKED: BRANCH   2   3
DOCKED: ATOM      3  P   UNL d   1     -14.689   7.887  12.859 +0.13 -0.02    -0.014 P 
DOCKED: ATOM      4  O   UNL d   1     -13.826   8.861  13.677 -0.43 -0.72    -0.577 OA
DOCKED: ATOM      5  O   UNL d   1     -15.798   7.270  13.708 +0.01 -0.32    -0.577 OA
DOCKED: ATOM      6  O   UNL d   1     -15.194   8.532  11.573 -0.18 -0.96    -0.638 OA
DOCKED: ENDBRANCH   2   3
DOCKED: ENDBRANCH   1   2
DOCKED: BRANCH   1   7
DOCKED: ATOM      7  C   UNL d   1     -12.827   4.348  12.556 -0.25 +0.22    +0.201 C 
DOCKED: BRANCH   7   8
DOCKED: ATOM      8  O   UNL d   1     -12.593   3.330  11.558 -0.59 -0.73    -0.364 OA
DOCKED: BRANCH   8   9
DOCKED: ATOM      9  P   UNL d   1     -11.102   2.625  11.426 -0.66 -0.02    -0.015 P 
DOCKED: ATOM     10  O   UNL d   1     -10.431   2.854  12.786 -0.74 -0.50    -0.577 OA
DOCKED: ATOM     11  O   UNL d   1     -10.365   3.347  10.298 -0.32 -0.83    -0.577 OA
DOCKED: ATOM     12  O   UNL d   1     -11.328   1.142  11.140 -0.61 -0.65    -0.638 OA
DOCKED: ENDBRANCH   8   9
DOCKED: ENDBRANCH   7   8
DOCKED: ENDBRANCH   1   7
DOCKED: BRANCH   1  13
DOCKED: ATOM     13  C   UNL d   1     -14.622   5.011  10.859 -0.17 +0.12    +0.073 C 
DOCKED: ATOM     14  O   UNL d   1     -13.921   5.407   9.862 -0.11 -1.17    -0.547 OA
DOCKED: ATOM     15  O   UNL d   1     -15.720   4.353  10.759 -0.05 -0.63    -0.547 OA
DOCKED: ENDBRANCH   1  13
DOCKED: TORSDOF 6
DOCKED: TER
DOCKED: ENDMDL
________________________________________________________________________________


	BEGINNING GENETIC ALGORITHM DOCKING 10 of 100
Run: 10 Seed: 1835918592 846389401 [ Run 10 of 100 GA/GALS ]
Beginning LAMARCKIAN GENETIC ALGORITHM (LGA), with a maximum of 25000000 energy evaluations.

Final-Value: -8.108


	FINAL GENETIC ALGORITHM DOCKED STATE
	_______________________________________________


Detailed state:  trans -14.017 5.734 8.722 quatxyzw -0.446893 -0.098733 -0.888840 0.022415 center 0.015 0.083 0.031 ntor 6 -13.6081 152.4512 -161.9300 -7.3839 76.0165 14.4273
State:	-14.017   5.734   8.722  -0.447 -0.099 -0.889 177.431    -13.61  152.45 -161.93   -7.38   76.02   14.43

DOCKED: MODEL       10
DOCKED: USER    Run = 10
DOCKED: USER    DPF = D:/Protein_go_brrr/autodock/final/mut_Y35F/2_3_BPG/dock.dpf
DOCKED: USER  
DOCKED: USER    Estimated Free Energy of Binding    =   -8.51 kcal/mol  [=(1)+(2)+(3)-(4)]
DOCKED: USER    Estimated Inhibition Constant, Ki   =  575.11 nM (nanomolar)  [Temperature = 298.15 K]
DOCKED: USER    
DOCKED: USER    (1) Final Intermolecular Energy     =  -10.30 kcal/mol
DOCKED: USER        vdW + Hbond + desolv Energy     =   -3.82 kcal/mol
DOCKED: USER        Electrostatic Energy            =   -6.49 kcal/mol
DOCKED: USER    (2) Final Total Internal Energy     =   +2.19 kcal/mol
DOCKED: USER    (3) Torsional Free Energy           =   +1.79 kcal/mol
DOCKED: USER    (4) Unbound System's Energy  [=(2)] =   +2.19 kcal/mol
DOCKED: USER    
DOCKED: USER    
DOCKED: USER    NEWDPF move 2_3_BPG_opt.pdbqt
DOCKED: USER    NEWDPF about 0.015000 0.083000 0.031000
DOCKED: USER    NEWDPF tran0 -14.016916 5.733989 8.722081
DOCKED: USER    NEWDPF quaternion0 -0.446893 -0.098733 -0.888840 0.022415
DOCKED: USER    NEWDPF axisangle0 -0.447005 -0.098758 -0.889063 177.431201
DOCKED: USER    NEWDPF quat0 -0.447005 -0.098758 -0.889063 177.431201
DOCKED: USER    NEWDPF dihe0 -13.61 152.45 -161.93 -7.38 76.02 14.43 
DOCKED: USER  keepresnum = 1 
DOCKED: USER  
DOCKED: REMARK  6 active torsions:
DOCKED: REMARK  status: ('A' for Active; 'I' for Inactive)
DOCKED: REMARK    1  A    between atoms: P_1  and  O_3 
DOCKED: REMARK    2  A    between atoms: P_2  and  O_4 
DOCKED: REMARK    3  A    between atoms: O_3  and  C_13 
DOCKED: REMARK    4  A    between atoms: O_4  and  C_14 
DOCKED: REMARK    5  A    between atoms: C_13  and  C_14 
DOCKED: REMARK    6  A    between atoms: C_13  and  C_15 
DOCKED: USER                              x       y       z     vdW  Elec       q    Type
DOCKED: USER                           _______ _______ _______ _____ _____    ______ ____
DOCKED: ROOT
DOCKED: ATOM      1  C   UNL d   1     -13.606   5.979   8.252 -0.13 +0.32    +0.193 C 
DOCKED: ENDROOT
DOCKED: BRANCH   1   2
DOCKED: ATOM      2  O   UNL d   1     -13.452   4.963   7.205 -0.28 -0.65    -0.356 OA
DOCKED: BRANCH   2   3
DOCKED: ATOM      3  P   UNL d   1     -12.019   4.640   6.465 -0.50 -0.02    -0.014 P 
DOCKED: ATOM      4  O   UNL d   1     -11.280   5.987   6.457 +0.07 -0.53    -0.577 OA
DOCKED: ATOM      5  O   UNL d   1     -12.338   4.165   5.049 -0.65 -0.48    -0.577 OA
DOCKED: ATOM      6  O   UNL d   1     -11.281   3.601   7.302 -0.55 -1.25    -0.638 OA
DOCKED: ENDBRANCH   2   3
DOCKED: ENDBRANCH   1   2
DOCKED: BRANCH   1   7
DOCKED: ATOM      7  C   UNL d   1     -14.780   5.547   9.206 -0.07 +0.33    +0.201 C 
DOCKED: BRANCH   7   8
DOCKED: ATOM      8  O   UNL d   1     -14.978   6.371  10.376 -0.08 -0.49    -0.364 OA
DOCKED: BRANCH   8   9
DOCKED: ATOM      9  P   UNL d   1     -14.411   5.872  11.848 -0.22 -0.02    -0.015 P 
DOCKED: ATOM     10  O   UNL d   1     -13.333   4.829  11.527 -0.56 -1.01    -0.577 OA
DOCKED: ATOM     11  O   UNL d   1     -15.594   5.258  12.596 -0.00 -0.40    -0.577 OA
DOCKED: ATOM     12  O   UNL d   1     -13.832   7.100  12.548 -0.36 -1.19    -0.638 OA
DOCKED: ENDBRANCH   8   9
DOCKED: ENDBRANCH   7   8
DOCKED: ENDBRANCH   1   7
DOCKED: BRANCH   1  13
DOCKED: ATOM     13  C   UNL d   1     -13.967   7.369   7.606 -0.12 +0.08    +0.073 C 
DOCKED: ATOM     14  O   UNL d   1     -14.787   7.392   6.623 +0.03 -0.33    -0.547 OA
DOCKED: ATOM     15  O   UNL d   1     -13.459   8.414   8.152 -0.39 -0.83    -0.547 OA
DOCKED: ENDBRANCH   1  13
DOCKED: TORSDOF 6
DOCKED: TER
DOCKED: ENDMDL
________________________________________________________________________________


	BEGINNING GENETIC ALGORITHM DOCKING 11 of 100
Run: 11 Seed: 1759510518 1638291549 [ Run 11 of 100 GA/GALS ]
Beginning LAMARCKIAN GENETIC ALGORITHM (LGA), with a maximum of 25000000 energy evaluations.

Final-Value: -8.472


	FINAL GENETIC ALGORITHM DOCKED STATE
	_______________________________________________


Detailed state:  trans -11.883 6.244 7.144 quatxyzw 0.482701 0.760782 0.198635 -0.385687 center 0.015 0.083 0.031 ntor 6 -12.5116 -104.0778 12.5838 4.8945 4.6207 148.4130
State:	-11.883   6.244   7.144   0.523  0.825  0.215 -134.627    -12.51 -104.08   12.58    4.89    4.62  148.41

DOCKED: MODEL       11
DOCKED: USER    Run = 11
DOCKED: USER    DPF = D:/Protein_go_brrr/autodock/final/mut_Y35F/2_3_BPG/dock.dpf
DOCKED: USER  
DOCKED: USER    Estimated Free Energy of Binding    =   -8.80 kcal/mol  [=(1)+(2)+(3)-(4)]
DOCKED: USER    Estimated Inhibition Constant, Ki   =  356.63 nM (nanomolar)  [Temperature = 298.15 K]
DOCKED: USER    
DOCKED: USER    (1) Final Intermolecular Energy     =  -10.59 kcal/mol
DOCKED: USER        vdW + Hbond + desolv Energy     =   -3.91 kcal/mol
DOCKED: USER        Electrostatic Energy            =   -6.68 kcal/mol
DOCKED: USER    (2) Final Total Internal Energy     =   +2.11 kcal/mol
DOCKED: USER    (3) Torsional Free Energy           =   +1.79 kcal/mol
DOCKED: USER    (4) Unbound System's Energy  [=(2)] =   +2.11 kcal/mol
DOCKED: USER    
DOCKED: USER    
DOCKED: USER    NEWDPF move 2_3_BPG_opt.pdbqt
DOCKED: USER    NEWDPF about 0.015000 0.083000 0.031000
DOCKED: USER    NEWDPF tran0 -11.882925 6.244359 7.143798
DOCKED: USER    NEWDPF quaternion0 0.482701 0.760782 0.198635 -0.385687
DOCKED: USER    NEWDPF axisangle0 0.523180 0.824580 0.215293 -134.627223
DOCKED: USER    NEWDPF quat0 0.523180 0.824580 0.215293 -134.627223
DOCKED: USER    NEWDPF dihe0 -12.51 -104.08 12.58 4.89 4.62 148.41 
DOCKED: USER  keepresnum = 1 
DOCKED: USER  
DOCKED: REMARK  6 active torsions:
DOCKED: REMARK  status: ('A' for Active; 'I' for Inactive)
DOCKED: REMARK    1  A    between atoms: P_1  and  O_3 
DOCKED: REMARK    2  A    between atoms: P_2  and  O_4 
DOCKED: REMARK    3  A    between atoms: O_3  and  C_13 
DOCKED: REMARK    4  A    between atoms: O_4  and  C_14 
DOCKED: REMARK    5  A    between atoms: C_13  and  C_14 
DOCKED: REMARK    6  A    between atoms: C_13  and  C_15 
DOCKED: USER                              x       y       z     vdW  Elec       q    Type
DOCKED: USER                           _______ _______ _______ _____ _____    ______ ____
DOCKED: ROOT
DOCKED: ATOM      1  C   UNL d   1     -11.853   5.576   7.107 -0.29 +0.24    +0.193 C 
DOCKED: ENDROOT
DOCKED: BRANCH   1   2
DOCKED: ATOM      2  O   UNL d   1     -11.642   5.052   8.461 -0.20 -0.71    -0.356 OA
DOCKED: BRANCH   2   3
DOCKED: ATOM      3  P   UNL d   1     -10.433   4.006   8.846 -0.59 -0.02    -0.014 P 
DOCKED: ATOM      4  O   UNL d   1      -9.155   4.858   8.784 +0.04 -0.46    -0.577 OA
DOCKED: ATOM      5  O   UNL d   1     -10.428   2.909   7.783 -0.70 -0.79    -0.577 OA
DOCKED: ATOM      6  O   UNL d   1     -10.691   3.485  10.256 -0.19 -1.07    -0.638 OA
DOCKED: ENDBRANCH   2   3
DOCKED: ENDBRANCH   1   2
DOCKED: BRANCH   1   7
DOCKED: ATOM      7  C   UNL d   1     -12.215   7.103   7.207 -0.19 +0.20    +0.201 C 
DOCKED: BRANCH   7   8
DOCKED: ATOM      8  O   UNL d   1     -13.295   7.438   8.106 -0.14 -0.52    -0.364 OA
DOCKED: BRANCH   8   9
DOCKED: ATOM      9  P   UNL d   1     -13.889   8.982   8.151 +0.14 -0.02    -0.015 P 
DOCKED: ATOM     10  O   UNL d   1     -14.722   9.051   9.437 -0.28 -0.98    -0.577 OA
DOCKED: ATOM     11  O   UNL d   1     -14.750   9.165   6.902 +0.02 -0.30    -0.577 OA
DOCKED: ATOM     12  O   UNL d   1     -12.688   9.925   8.194 -0.34 -0.84    -0.638 OA
DOCKED: ENDBRANCH   8   9
DOCKED: ENDBRANCH   7   8
DOCKED: ENDBRANCH   1   7
DOCKED: BRANCH   1  13
DOCKED: ATOM     13  C   UNL d   1     -13.049   4.819   6.416 -0.27 +0.09    +0.073 C 
DOCKED: ATOM     14  O   UNL d   1     -14.091   4.558   7.113 -0.33 -1.08    -0.547 OA
DOCKED: ATOM     15  O   UNL d   1     -12.930   4.563   5.164 -0.57 -0.44    -0.547 OA
DOCKED: ENDBRANCH   1  13
DOCKED: TORSDOF 6
DOCKED: TER
DOCKED: ENDMDL
________________________________________________________________________________


	BEGINNING GENETIC ALGORITHM DOCKING 12 of 100
Run: 12 Seed: 1555299146 1250277371 [ Run 12 of 100 GA/GALS ]
Beginning LAMARCKIAN GENETIC ALGORITHM (LGA), with a maximum of 25000000 energy evaluations.

Final-Value: -9.441


	FINAL GENETIC ALGORITHM DOCKED STATE
	_______________________________________________


Detailed state:  trans -13.295 5.003 11.888 quatxyzw 0.769784 -0.084358 0.516560 0.365353 center 0.015 0.083 0.031 ntor 6 179.3648 -125.8792 -28.5256 10.8170 -74.6871 -117.2671
State:	-13.295   5.003  11.888   0.827 -0.091  0.555 137.141    179.36 -125.88  -28.53   10.82  -74.69 -117.27

DOCKED: MODEL       12
DOCKED: USER    Run = 12
DOCKED: USER    DPF = D:/Protein_go_brrr/autodock/final/mut_Y35F/2_3_BPG/dock.dpf
DOCKED: USER  
DOCKED: USER    Estimated Free Energy of Binding    =   -9.99 kcal/mol  [=(1)+(2)+(3)-(4)]
DOCKED: USER    Estimated Inhibition Constant, Ki   =   47.60 nM (nanomolar)  [Temperature = 298.15 K]
DOCKED: USER    
DOCKED: USER    (1) Final Intermolecular Energy     =  -11.78 kcal/mol
DOCKED: USER        vdW + Hbond + desolv Energy     =   -4.53 kcal/mol
DOCKED: USER        Electrostatic Energy            =   -7.25 kcal/mol
DOCKED: USER    (2) Final Total Internal Energy     =   +2.34 kcal/mol
DOCKED: USER    (3) Torsional Free Energy           =   +1.79 kcal/mol
DOCKED: USER    (4) Unbound System's Energy  [=(2)] =   +2.34 kcal/mol
DOCKED: USER    
DOCKED: USER    
DOCKED: USER    NEWDPF move 2_3_BPG_opt.pdbqt
DOCKED: USER    NEWDPF about 0.015000 0.083000 0.031000
DOCKED: USER    NEWDPF tran0 -13.294827 5.002585 11.888404
DOCKED: USER    NEWDPF quaternion0 0.769784 -0.084358 0.516560 0.365353
DOCKED: USER    NEWDPF axisangle0 0.826952 -0.090623 0.554922 137.141437
DOCKED: USER    NEWDPF quat0 0.826952 -0.090623 0.554922 137.141437
DOCKED: USER    NEWDPF dihe0 179.36 -125.88 -28.53 10.82 -74.69 -117.27 
DOCKED: USER  keepresnum = 1 
DOCKED: USER  
DOCKED: REMARK  6 active torsions:
DOCKED: REMARK  status: ('A' for Active; 'I' for Inactive)
DOCKED: REMARK    1  A    between atoms: P_1  and  O_3 
DOCKED: REMARK    2  A    between atoms: P_2  and  O_4 
DOCKED: REMARK    3  A    between atoms: O_3  and  C_13 
DOCKED: REMARK    4  A    between atoms: O_4  and  C_14 
DOCKED: REMARK    5  A    between atoms: C_13  and  C_14 
DOCKED: REMARK    6  A    between atoms: C_13  and  C_15 
DOCKED: USER                              x       y       z     vdW  Elec       q    Type
DOCKED: USER                           _______ _______ _______ _____ _____    ______ ____
DOCKED: ROOT
DOCKED: ATOM      1  C   UNL d   1     -13.557   5.568  11.643 +0.01 +0.31    +0.193 C 
DOCKED: ENDROOT
DOCKED: BRANCH   1   2
DOCKED: ATOM      2  O   UNL d   1     -14.385   5.222  10.482 -0.25 -0.65    -0.356 OA
DOCKED: BRANCH   2   3
DOCKED: ATOM      3  P   UNL d   1     -14.128   5.829   8.976 -0.16 -0.02    -0.014 P 
DOCKED: ATOM      4  O   UNL d   1     -12.631   5.598   8.720 +0.08 -1.21    -0.577 OA
DOCKED: ATOM      5  O   UNL d   1     -14.466   7.318   9.025 -0.07 -0.85    -0.577 OA
DOCKED: ATOM      6  O   UNL d   1     -14.992   5.042   7.996 -0.41 -1.03    -0.638 OA
DOCKED: ENDBRANCH   2   3
DOCKED: ENDBRANCH   1   2
DOCKED: BRANCH   1   7
DOCKED: ATOM      7  C   UNL d   1     -13.173   4.245  12.402 -0.25 +0.24    +0.201 C 
DOCKED: BRANCH   7   8
DOCKED: ATOM      8  O   UNL d   1     -12.794   3.127  11.569 -0.46 -0.73    -0.364 OA
DOCKED: BRANCH   8   9
DOCKED: ATOM      9  P   UNL d   1     -11.216   2.637  11.505 -0.71 -0.02    -0.015 P 
DOCKED: ATOM     10  O   UNL d   1     -11.275   1.150  11.136 -0.71 -0.58    -0.577 OA
DOCKED: ATOM     11  O   UNL d   1     -10.625   2.856  12.898 -0.72 -0.46    -0.577 OA
DOCKED: ATOM     12  O   UNL d   1     -10.527   3.469  10.425 -0.28 -0.97    -0.638 OA
DOCKED: ENDBRANCH   8   9
DOCKED: ENDBRANCH   7   8
DOCKED: ENDBRANCH   1   7
DOCKED: BRANCH   1  13
DOCKED: ATOM     13  C   UNL d   1     -14.365   6.497  12.624 -0.12 +0.09    +0.073 C 
DOCKED: ATOM     14  O   UNL d   1     -13.840   7.608  12.986 -0.49 -0.99    -0.547 OA
DOCKED: ATOM     15  O   UNL d   1     -15.543   6.108  12.957 +0.00 -0.37    -0.547 OA
DOCKED: ENDBRANCH   1  13
DOCKED: TORSDOF 6
DOCKED: TER
DOCKED: ENDMDL
________________________________________________________________________________


	BEGINNING GENETIC ALGORITHM DOCKING 13 of 100
Run: 13 Seed: 893857946 880789399 [ Run 13 of 100 GA/GALS ]
Beginning LAMARCKIAN GENETIC ALGORITHM (LGA), with a maximum of 25000000 energy evaluations.

Final-Value: -8.453


	FINAL GENETIC ALGORITHM DOCKED STATE
	_______________________________________________


Detailed state:  trans -13.894 6.121 8.650 quatxyzw 0.766721 0.226757 -0.510184 -0.316911 center 0.015 0.083 0.031 ntor 6 -164.3138 172.3791 178.5347 23.8806 24.7786 -52.1456
State:	-13.894   6.121   8.650   0.808  0.239 -0.538 -143.048   -164.31  172.38  178.53   23.88   24.78  -52.15

DOCKED: MODEL       13
DOCKED: USER    Run = 13
DOCKED: USER    DPF = D:/Protein_go_brrr/autodock/final/mut_Y35F/2_3_BPG/dock.dpf
DOCKED: USER  
DOCKED: USER    Estimated Free Energy of Binding    =   -8.75 kcal/mol  [=(1)+(2)+(3)-(4)]
DOCKED: USER    Estimated Inhibition Constant, Ki   =  382.90 nM (nanomolar)  [Temperature = 298.15 K]
DOCKED: USER    
DOCKED: USER    (1) Final Intermolecular Energy     =  -10.54 kcal/mol
DOCKED: USER        vdW + Hbond + desolv Energy     =   -3.57 kcal/mol
DOCKED: USER        Electrostatic Energy            =   -6.97 kcal/mol
DOCKED: USER    (2) Final Total Internal Energy     =   +2.09 kcal/mol
DOCKED: USER    (3) Torsional Free Energy           =   +1.79 kcal/mol
DOCKED: USER    (4) Unbound System's Energy  [=(2)] =   +2.09 kcal/mol
DOCKED: USER    
DOCKED: USER    
DOCKED: USER    NEWDPF move 2_3_BPG_opt.pdbqt
DOCKED: USER    NEWDPF about 0.015000 0.083000 0.031000
DOCKED: USER    NEWDPF tran0 -13.894306 6.120549 8.649678
DOCKED: USER    NEWDPF quaternion0 0.766721 0.226757 -0.510184 -0.316911
DOCKED: USER    NEWDPF axisangle0 0.808390 0.239080 -0.537910 -143.047606
DOCKED: USER    NEWDPF quat0 0.808390 0.239080 -0.537910 -143.047606
DOCKED: USER    NEWDPF dihe0 -164.31 172.38 178.53 23.88 24.78 -52.15 
DOCKED: USER  keepresnum = 1 
DOCKED: USER  
DOCKED: REMARK  6 active torsions:
DOCKED: REMARK  status: ('A' for Active; 'I' for Inactive)
DOCKED: REMARK    1  A    between atoms: P_1  and  O_3 
DOCKED: REMARK    2  A    between atoms: P_2  and  O_4 
DOCKED: REMARK    3  A    between atoms: O_3  and  C_13 
DOCKED: REMARK    4  A    between atoms: O_4  and  C_14 
DOCKED: REMARK    5  A    between atoms: C_13  and  C_14 
DOCKED: REMARK    6  A    between atoms: C_13  and  C_15 
DOCKED: USER                              x       y       z     vdW  Elec       q    Type
DOCKED: USER                           _______ _______ _______ _____ _____    ______ ____
DOCKED: ROOT
DOCKED: ATOM      1  C   UNL d   1     -14.384   6.257   9.087 -0.13 +0.29    +0.193 C 
DOCKED: ENDROOT
DOCKED: BRANCH   1   2
DOCKED: ATOM      2  O   UNL d   1     -13.833   6.137  10.442 -0.03 -0.68    -0.356 OA
DOCKED: BRANCH   2   3
DOCKED: ATOM      3  P   UNL d   1     -14.213   4.907  11.465 -0.23 -0.02    -0.014 P 
DOCKED: ATOM      4  O   UNL d   1     -15.408   4.208  10.797 -0.02 -0.79    -0.577 OA
DOCKED: ATOM      5  O   UNL d   1     -14.605   5.535  12.801 -0.02 -0.51    -0.577 OA
DOCKED: ATOM      6  O   UNL d   1     -13.004   3.982  11.559 -0.60 -1.29    -0.638 OA
DOCKED: ENDBRANCH   2   3
DOCKED: ENDBRANCH   1   2
DOCKED: BRANCH   1   7
DOCKED: ATOM      7  C   UNL d   1     -13.197   6.229   8.055 -0.14 +0.30    +0.201 C 
DOCKED: BRANCH   7   8
DOCKED: ATOM      8  O   UNL d   1     -13.065   5.019   7.278 -0.20 -0.67    -0.364 OA
DOCKED: BRANCH   8   9
DOCKED: ATOM      9  P   UNL d   1     -11.582   4.556   6.707 -0.53 -0.02    -0.015 P 
DOCKED: ATOM     10  O   UNL d   1     -10.609   5.629   7.210 -0.11 -0.54    -0.577 OA
DOCKED: ATOM     11  O   UNL d   1     -11.677   4.541   5.182 -0.56 -0.52    -0.577 OA
DOCKED: ATOM     12  O   UNL d   1     -11.279   3.182   7.302 -0.56 -1.32    -0.638 OA
DOCKED: ENDBRANCH   8   9
DOCKED: ENDBRANCH   7   8
DOCKED: ENDBRANCH   1   7
DOCKED: BRANCH   1  13
DOCKED: ATOM     13  C   UNL d   1     -15.152   7.623   8.936 -0.08 +0.08    +0.073 C 
DOCKED: ATOM     14  O   UNL d   1     -16.428   7.597   8.822 +0.02 -0.34    -0.547 OA
DOCKED: ATOM     15  O   UNL d   1     -14.450   8.696   9.000 -0.36 -0.95    -0.547 OA
DOCKED: ENDBRANCH   1  13
DOCKED: TORSDOF 6
DOCKED: TER
DOCKED: ENDMDL
________________________________________________________________________________


	BEGINNING GENETIC ALGORITHM DOCKING 14 of 100
Run: 14 Seed: 227003426 2086351601 [ Run 14 of 100 GA/GALS ]
Beginning LAMARCKIAN GENETIC ALGORITHM (LGA), with a maximum of 25000000 energy evaluations.

Final-Value: -8.439


	FINAL GENETIC ALGORITHM DOCKED STATE
	_______________________________________________


Detailed state:  trans -13.811 5.370 11.414 quatxyzw -0.810828 0.134147 -0.398053 -0.407574 center 0.015 0.083 0.031 ntor 6 -174.6687 177.8804 -176.2269 36.2032 10.3478 -42.3191
State:	-13.811   5.370  11.414  -0.888  0.147 -0.436 -131.895   -174.67  177.88 -176.23   36.20   10.35  -42.32

DOCKED: MODEL       14
DOCKED: USER    Run = 14
DOCKED: USER    DPF = D:/Protein_go_brrr/autodock/final/mut_Y35F/2_3_BPG/dock.dpf
DOCKED: USER  
DOCKED: USER    Estimated Free Energy of Binding    =   -8.66 kcal/mol  [=(1)+(2)+(3)-(4)]
DOCKED: USER    Estimated Inhibition Constant, Ki   =  448.36 nM (nanomolar)  [Temperature = 298.15 K]
DOCKED: USER    
DOCKED: USER    (1) Final Intermolecular Energy     =  -10.45 kcal/mol
DOCKED: USER        vdW + Hbond + desolv Energy     =   -4.03 kcal/mol
DOCKED: USER        Electrostatic Energy            =   -6.42 kcal/mol
DOCKED: USER    (2) Final Total Internal Energy     =   +2.01 kcal/mol
DOCKED: USER    (3) Torsional Free Energy           =   +1.79 kcal/mol
DOCKED: USER    (4) Unbound System's Energy  [=(2)] =   +2.01 kcal/mol
DOCKED: USER    
DOCKED: USER    
DOCKED: USER    NEWDPF move 2_3_BPG_opt.pdbqt
DOCKED: USER    NEWDPF about 0.015000 0.083000 0.031000
DOCKED: USER    NEWDPF tran0 -13.810566 5.369614 11.413810
DOCKED: USER    NEWDPF quaternion0 -0.810828 0.134147 -0.398053 -0.407574
DOCKED: USER    NEWDPF axisangle0 -0.887924 0.146903 -0.435902 -131.894949
DOCKED: USER    NEWDPF quat0 -0.887924 0.146903 -0.435902 -131.894949
DOCKED: USER    NEWDPF dihe0 -174.67 177.88 -176.23 36.20 10.35 -42.32 
DOCKED: USER  keepresnum = 1 
DOCKED: USER  
DOCKED: REMARK  6 active torsions:
DOCKED: REMARK  status: ('A' for Active; 'I' for Inactive)
DOCKED: REMARK    1  A    between atoms: P_1  and  O_3 
DOCKED: REMARK    2  A    between atoms: P_2  and  O_4 
DOCKED: REMARK    3  A    between atoms: O_3  and  C_13 
DOCKED: REMARK    4  A    between atoms: O_4  and  C_14 
DOCKED: REMARK    5  A    between atoms: C_13  and  C_14 
DOCKED: REMARK    6  A    between atoms: C_13  and  C_15 
DOCKED: USER                              x       y       z     vdW  Elec       q    Type
DOCKED: USER                           _______ _______ _______ _____ _____    ______ ____
DOCKED: ROOT
DOCKED: ATOM      1  C   UNL d   1     -14.153   5.936  11.307 -0.07 +0.30    +0.193 C 
DOCKED: ENDROOT
DOCKED: BRANCH   1   2
DOCKED: ATOM      2  O   UNL d   1     -15.232   5.645  10.357 -0.10 -0.45    -0.356 OA
DOCKED: BRANCH   2   3
DOCKED: ATOM      3  P   UNL d   1     -15.108   5.912   8.739 -0.20 -0.02    -0.014 P 
DOCKED: ATOM      4  O   UNL d   1     -13.760   6.631   8.572 -0.02 -0.89    -0.577 OA
DOCKED: ATOM      5  O   UNL d   1     -16.277   6.809   8.337 +0.03 -0.38    -0.577 OA
DOCKED: ATOM      6  O   UNL d   1     -15.111   4.558   8.036 -0.44 -1.23    -0.638 OA
DOCKED: ENDBRANCH   2   3
DOCKED: ENDBRANCH   1   2
DOCKED: BRANCH   1   7
DOCKED: ATOM      7  C   UNL d   1     -13.527   4.577  11.792 -0.14 +0.31    +0.201 C 
DOCKED: BRANCH   7   8
DOCKED: ATOM      8  O   UNL d   1     -12.137   4.368  11.457 -0.66 -0.66    -0.364 OA
DOCKED: BRANCH   8   9
DOCKED: ATOM      9  P   UNL d   1     -11.463   2.865  11.614 -0.66 -0.02    -0.015 P 
DOCKED: ATOM     10  O   UNL d   1     -12.630   1.941  11.982 -0.15 -0.62    -0.577 OA
DOCKED: ATOM     11  O   UNL d   1     -10.430   2.954  12.737 -0.74 -0.52    -0.577 OA
DOCKED: ATOM     12  O   UNL d   1     -10.848   2.503  10.263 -0.17 -1.06    -0.638 OA
DOCKED: ENDBRANCH   8   9
DOCKED: ENDBRANCH   7   8
DOCKED: ENDBRANCH   1   7
DOCKED: BRANCH   1  13
DOCKED: ATOM     13  C   UNL d   1     -14.726   6.702  12.557 -0.11 +0.08    +0.073 C 
DOCKED: ATOM     14  O   UNL d   1     -14.257   7.862  12.831 -0.61 -0.95    -0.547 OA
DOCKED: ATOM     15  O   UNL d   1     -15.686   6.138  13.196 +0.01 -0.33    -0.547 OA
DOCKED: ENDBRANCH   1  13
DOCKED: TORSDOF 6
DOCKED: TER
DOCKED: ENDMDL
________________________________________________________________________________


	BEGINNING GENETIC ALGORITHM DOCKING 15 of 100
Run: 15 Seed: 1551022825 1333471947 [ Run 15 of 100 GA/GALS ]
Beginning LAMARCKIAN GENETIC ALGORITHM (LGA), with a maximum of 25000000 energy evaluations.

Final-Value: -8.550


	FINAL GENETIC ALGORITHM DOCKED STATE
	_______________________________________________


Detailed state:  trans -14.282 4.894 12.085 quatxyzw 0.088587 0.397732 -0.908976 0.087883 center 0.015 0.083 0.031 ntor 6 43.8379 -128.8123 -125.0897 12.6117 59.0922 -134.9575
State:	-14.282   4.894  12.085   0.089  0.399 -0.913 169.916     43.84 -128.81 -125.09   12.61   59.09 -134.96

DOCKED: MODEL       15
DOCKED: USER    Run = 15
DOCKED: USER    DPF = D:/Protein_go_brrr/autodock/final/mut_Y35F/2_3_BPG/dock.dpf
DOCKED: USER  
DOCKED: USER    Estimated Free Energy of Binding    =   -9.22 kcal/mol  [=(1)+(2)+(3)-(4)]
DOCKED: USER    Estimated Inhibition Constant, Ki   =  173.22 nM (nanomolar)  [Temperature = 298.15 K]
DOCKED: USER    
DOCKED: USER    (1) Final Intermolecular Energy     =  -11.01 kcal/mol
DOCKED: USER        vdW + Hbond + desolv Energy     =   -4.13 kcal/mol
DOCKED: USER        Electrostatic Energy            =   -6.88 kcal/mol
DOCKED: USER    (2) Final Total Internal Energy     =   +2.46 kcal/mol
DOCKED: USER    (3) Torsional Free Energy           =   +1.79 kcal/mol
DOCKED: USER    (4) Unbound System's Energy  [=(2)] =   +2.46 kcal/mol
DOCKED: USER    
DOCKED: USER    
DOCKED: USER    NEWDPF move 2_3_BPG_opt.pdbqt
DOCKED: USER    NEWDPF about 0.015000 0.083000 0.031000
DOCKED: USER    NEWDPF tran0 -14.281739 4.893738 12.085186
DOCKED: USER    NEWDPF quaternion0 0.088587 0.397732 -0.908976 0.087883
DOCKED: USER    NEWDPF axisangle0 0.088931 0.399277 -0.912507 169.916320
DOCKED: USER    NEWDPF quat0 0.088931 0.399277 -0.912507 169.916320
DOCKED: USER    NEWDPF dihe0 43.84 -128.81 -125.09 12.61 59.09 -134.96 
DOCKED: USER  keepresnum = 1 
DOCKED: USER  
DOCKED: REMARK  6 active torsions:
DOCKED: REMARK  status: ('A' for Active; 'I' for Inactive)
DOCKED: REMARK    1  A    between atoms: P_1  and  O_3 
DOCKED: REMARK    2  A    between atoms: P_2  and  O_4 
DOCKED: REMARK    3  A    between atoms: O_3  and  C_13 
DOCKED: REMARK    4  A    between atoms: O_4  and  C_14 
DOCKED: REMARK    5  A    between atoms: C_13  and  C_14 
DOCKED: REMARK    6  A    between atoms: C_13  and  C_15 
DOCKED: USER                              x       y       z     vdW  Elec       q    Type
DOCKED: USER                           _______ _______ _______ _____ _____    ______ ____
DOCKED: ROOT
DOCKED: ATOM      1  C   UNL d   1     -13.708   4.901  12.431 -0.20 +0.22    +0.193 C 
DOCKED: ENDROOT
DOCKED: BRANCH   1   2
DOCKED: ATOM      2  O   UNL d   1     -12.613   4.581  11.508 -0.74 -0.65    -0.356 OA
DOCKED: BRANCH   2   3
DOCKED: ATOM      3  P   UNL d   1     -11.624   3.281  11.696 -0.57 -0.02    -0.014 P 
DOCKED: ATOM      4  O   UNL d   1     -12.579   2.111  11.980 -0.20 -0.66    -0.577 OA
DOCKED: ATOM      5  O   UNL d   1     -10.720   3.570  12.893 -0.60 -0.50    -0.577 OA
DOCKED: ATOM      6  O   UNL d   1     -10.860   3.077  10.392 -0.20 -1.10    -0.638 OA
DOCKED: ENDBRANCH   2   3
DOCKED: ENDBRANCH   1   2
DOCKED: BRANCH   1   7
DOCKED: ATOM      7  C   UNL d   1     -15.011   5.174  11.594 -0.16 +0.22    +0.201 C 
DOCKED: BRANCH   7   8
DOCKED: ATOM      8  O   UNL d   1     -15.062   4.557  10.288 -0.13 -0.63    -0.364 OA
DOCKED: BRANCH   8   9
DOCKED: ATOM      9  P   UNL d   1     -15.156   5.496   8.930 -0.17 -0.02    -0.015 P 
DOCKED: ATOM     10  O   UNL d   1     -13.931   6.416   8.995 -0.02 -0.96    -0.577 OA
DOCKED: ATOM     11  O   UNL d   1     -16.465   6.280   9.020 +0.02 -0.41    -0.577 OA
DOCKED: ATOM     12  O   UNL d   1     -15.104   4.555   7.727 -0.55 -1.12    -0.638 OA
DOCKED: ENDBRANCH   8   9
DOCKED: ENDBRANCH   7   8
DOCKED: ENDBRANCH   1   7
DOCKED: BRANCH   1  13
DOCKED: ATOM     13  C   UNL d   1     -13.358   6.197  13.255 -0.08 +0.08    +0.073 C 
DOCKED: ATOM     14  O   UNL d   1     -13.830   7.319  12.859 -0.50 -0.96    -0.547 OA
DOCKED: ATOM     15  O   UNL d   1     -12.663   6.038  14.323 -0.03 -0.37    -0.547 OA
DOCKED: ENDBRANCH   1  13
DOCKED: TORSDOF 6
DOCKED: TER
DOCKED: ENDMDL
________________________________________________________________________________


	BEGINNING GENETIC ALGORITHM DOCKING 16 of 100
Run: 16 Seed: 1001102506 1658159502 [ Run 16 of 100 GA/GALS ]
Beginning LAMARCKIAN GENETIC ALGORITHM (LGA), with a maximum of 25000000 energy evaluations.

Final-Value: -8.771


	FINAL GENETIC ALGORITHM DOCKED STATE
	_______________________________________________


Detailed state:  trans -12.594 6.464 7.997 quatxyzw -0.438665 0.036257 -0.897697 0.019951 center 0.015 0.083 0.031 ntor 6 95.2473 6.1975 -20.6817 100.8556 -24.3859 -48.7828
State:	-12.594   6.464   7.997  -0.439  0.036 -0.898 177.714     95.25    6.20  -20.68  100.86  -24.39  -48.78

DOCKED: MODEL       16
DOCKED: USER    Run = 16
DOCKED: USER    DPF = D:/Protein_go_brrr/autodock/final/mut_Y35F/2_3_BPG/dock.dpf
DOCKED: USER  
DOCKED: USER    Estimated Free Energy of Binding    =   -9.27 kcal/mol  [=(1)+(2)+(3)-(4)]
DOCKED: USER    Estimated Inhibition Constant, Ki   =  159.29 nM (nanomolar)  [Temperature = 298.15 K]
DOCKED: USER    
DOCKED: USER    (1) Final Intermolecular Energy     =  -11.06 kcal/mol
DOCKED: USER        vdW + Hbond + desolv Energy     =   -3.90 kcal/mol
DOCKED: USER        Electrostatic Energy            =   -7.17 kcal/mol
DOCKED: USER    (2) Final Total Internal Energy     =   +2.29 kcal/mol
DOCKED: USER    (3) Torsional Free Energy           =   +1.79 kcal/mol
DOCKED: USER    (4) Unbound System's Energy  [=(2)] =   +2.29 kcal/mol
DOCKED: USER    
DOCKED: USER    
DOCKED: USER    NEWDPF move 2_3_BPG_opt.pdbqt
DOCKED: USER    NEWDPF about 0.015000 0.083000 0.031000
DOCKED: USER    NEWDPF tran0 -12.594190 6.464066 7.997453
DOCKED: USER    NEWDPF quaternion0 -0.438665 0.036257 -0.897697 0.019951
DOCKED: USER    NEWDPF axisangle0 -0.438753 0.036264 -0.897876 177.713577
DOCKED: USER    NEWDPF quat0 -0.438753 0.036264 -0.897876 177.713577
DOCKED: USER    NEWDPF dihe0 95.25 6.20 -20.68 100.86 -24.39 -48.78 
DOCKED: USER  keepresnum = 1 
DOCKED: USER  
DOCKED: REMARK  6 active torsions:
DOCKED: REMARK  status: ('A' for Active; 'I' for Inactive)
DOCKED: REMARK    1  A    between atoms: P_1  and  O_3 
DOCKED: REMARK    2  A    between atoms: P_2  and  O_4 
DOCKED: REMARK    3  A    between atoms: O_3  and  C_13 
DOCKED: REMARK    4  A    between atoms: O_4  and  C_14 
DOCKED: REMARK    5  A    between atoms: C_13  and  C_14 
DOCKED: REMARK    6  A    between atoms: C_13  and  C_15 
DOCKED: USER                              x       y       z     vdW  Elec       q    Type
DOCKED: USER                           _______ _______ _______ _____ _____    ______ ____
DOCKED: ROOT
DOCKED: ATOM      1  C   UNL d   1     -12.140   6.765   7.607 -0.14 +0.23    +0.193 C 
DOCKED: ENDROOT
DOCKED: BRANCH   1   2
DOCKED: ATOM      2  O   UNL d   1     -12.054   6.019   6.347 -0.19 -0.33    -0.356 OA
DOCKED: BRANCH   2   3
DOCKED: ATOM      3  P   UNL d   1     -12.300   4.396   6.240 -0.45 -0.02    -0.014 P 
DOCKED: ATOM      4  O   UNL d   1     -12.053   4.068   4.759 -0.65 -0.46    -0.577 OA
DOCKED: ATOM      5  O   UNL d   1     -13.749   4.130   6.640 -0.25 -1.00    -0.577 OA
DOCKED: ATOM      6  O   UNL d   1     -11.283   3.705   7.143 -0.56 -1.13    -0.638 OA
DOCKED: ENDBRANCH   2   3
DOCKED: ENDBRANCH   1   2
DOCKED: BRANCH   1   7
DOCKED: ATOM      7  C   UNL d   1     -13.393   6.257   8.411 -0.09 +0.33    +0.201 C 
DOCKED: BRANCH   7   8
DOCKED: ATOM      8  O   UNL d   1     -13.110   5.510   9.614 +0.01 -0.86    -0.364 OA
DOCKED: BRANCH   8   9
DOCKED: ATOM      9  P   UNL d   1     -14.257   5.379  10.799 -0.21 -0.03    -0.015 P 
DOCKED: ATOM     10  O   UNL d   1     -13.816   4.183  11.651 -0.53 -0.99    -0.577 OA
DOCKED: ATOM     11  O   UNL d   1     -15.592   5.120  10.100 -0.05 -0.71    -0.577 OA
DOCKED: ATOM     12  O   UNL d   1     -14.240   6.685  11.591 -0.16 -1.12    -0.638 OA
DOCKED: ENDBRANCH   8   9
DOCKED: ENDBRANCH   7   8
DOCKED: ENDBRANCH   1   7
DOCKED: BRANCH   1  13
DOCKED: ATOM     13  C   UNL d   1     -12.318   8.301   7.313 -0.21 +0.07    +0.073 C 
DOCKED: ATOM     14  O   UNL d   1     -12.985   9.010   8.147 -0.39 -0.88    -0.547 OA
DOCKED: ATOM     15  O   UNL d   1     -11.724   8.769   6.275 -0.05 -0.29    -0.547 OA
DOCKED: ENDBRANCH   1  13
DOCKED: TORSDOF 6
DOCKED: TER
DOCKED: ENDMDL
________________________________________________________________________________


	BEGINNING GENETIC ALGORITHM DOCKING 17 of 100
Run: 17 Seed: 1683663306 1518345113 [ Run 17 of 100 GA/GALS ]
Beginning LAMARCKIAN GENETIC ALGORITHM (LGA), with a maximum of 25000000 energy evaluations.

Final-Value: -8.713


	FINAL GENETIC ALGORITHM DOCKED STATE
	_______________________________________________


Detailed state:  trans -14.374 6.230 7.821 quatxyzw -0.688118 -0.140041 0.656805 0.274753 center 0.015 0.083 0.031 ntor 6 158.4994 66.1284 -148.3469 15.0072 29.5627 -90.5465
State:	-14.374   6.230   7.821  -0.716 -0.146  0.683 148.105    158.50   66.13 -148.35   15.01   29.56  -90.55

DOCKED: MODEL       17
DOCKED: USER    Run = 17
DOCKED: USER    DPF = D:/Protein_go_brrr/autodock/final/mut_Y35F/2_3_BPG/dock.dpf
DOCKED: USER  
DOCKED: USER    Estimated Free Energy of Binding    =   -9.08 kcal/mol  [=(1)+(2)+(3)-(4)]
DOCKED: USER    Estimated Inhibition Constant, Ki   =  219.63 nM (nanomolar)  [Temperature = 298.15 K]
DOCKED: USER    
DOCKED: USER    (1) Final Intermolecular Energy     =  -10.87 kcal/mol
DOCKED: USER        vdW + Hbond + desolv Energy     =   -3.77 kcal/mol
DOCKED: USER        Electrostatic Energy            =   -7.10 kcal/mol
DOCKED: USER    (2) Final Total Internal Energy     =   +2.16 kcal/mol
DOCKED: USER    (3) Torsional Free Energy           =   +1.79 kcal/mol
DOCKED: USER    (4) Unbound System's Energy  [=(2)] =   +2.16 kcal/mol
DOCKED: USER    
DOCKED: USER    
DOCKED: USER    NEWDPF move 2_3_BPG_opt.pdbqt
DOCKED: USER    NEWDPF about 0.015000 0.083000 0.031000
DOCKED: USER    NEWDPF tran0 -14.373518 6.229574 7.821201
DOCKED: USER    NEWDPF quaternion0 -0.688118 -0.140041 0.656805 0.274753
DOCKED: USER    NEWDPF axisangle0 -0.715660 -0.145646 0.683094 148.105462
DOCKED: USER    NEWDPF quat0 -0.715660 -0.145646 0.683094 148.105462
DOCKED: USER    NEWDPF dihe0 158.50 66.13 -148.35 15.01 29.56 -90.55 
DOCKED: USER  keepresnum = 1 
DOCKED: USER  
DOCKED: REMARK  6 active torsions:
DOCKED: REMARK  status: ('A' for Active; 'I' for Inactive)
DOCKED: REMARK    1  A    between atoms: P_1  and  O_3 
DOCKED: REMARK    2  A    between atoms: P_2  and  O_4 
DOCKED: REMARK    3  A    between atoms: O_3  and  C_13 
DOCKED: REMARK    4  A    between atoms: O_4  and  C_14 
DOCKED: REMARK    5  A    between atoms: C_13  and  C_14 
DOCKED: REMARK    6  A    between atoms: C_13  and  C_15 
DOCKED: USER                              x       y       z     vdW  Elec       q    Type
DOCKED: USER                           _______ _______ _______ _____ _____    ______ ____
DOCKED: ROOT
DOCKED: ATOM      1  C   UNL d   1     -14.681   6.529   8.337 -0.11 +0.23    +0.193 C 
DOCKED: ENDROOT
DOCKED: BRANCH   1   2
DOCKED: ATOM      2  O   UNL d   1     -13.810   6.420   9.513 -0.00 -0.66    -0.356 OA
DOCKED: BRANCH   2   3
DOCKED: ATOM      3  P   UNL d   1     -14.234   5.607  10.878 -0.21 -0.02    -0.014 P 
DOCKED: ATOM      4  O   UNL d   1     -14.247   6.683  11.976 -0.29 -0.93    -0.577 OA
DOCKED: ATOM      5  O   UNL d   1     -13.154   4.558  11.133 -0.56 -1.32    -0.577 OA
DOCKED: ATOM      6  O   UNL d   1     -15.621   5.012  10.660 -0.03 -0.72    -0.638 OA
DOCKED: ENDBRANCH   2   3
DOCKED: ENDBRANCH   1   2
DOCKED: BRANCH   1   7
DOCKED: ATOM      7  C   UNL d   1     -13.864   6.098   7.063 -0.13 +0.22    +0.201 C 
DOCKED: BRANCH   7   8
DOCKED: ATOM      8  O   UNL d   1     -13.519   4.698   6.978 -0.29 -0.67    -0.364 OA
DOCKED: BRANCH   8   9
DOCKED: ATOM      9  P   UNL d   1     -12.106   4.234   6.254 -0.48 -0.02    -0.015 P 
DOCKED: ATOM     10  O   UNL d   1     -11.107   5.352   6.576 -0.06 -0.56    -0.577 OA
DOCKED: ATOM     11  O   UNL d   1     -12.385   4.133   4.755 -0.65 -0.45    -0.577 OA
DOCKED: ATOM     12  O   UNL d   1     -11.696   2.901   6.878 -0.42 -1.21    -0.638 OA
DOCKED: ENDBRANCH   8   9
DOCKED: ENDBRANCH   7   8
DOCKED: ENDBRANCH   1   7
DOCKED: BRANCH   1  13
DOCKED: ATOM     13  C   UNL d   1     -15.156   8.018   8.152 -0.06 +0.06    +0.073 C 
DOCKED: ATOM     14  O   UNL d   1     -16.316   8.232   7.653 +0.02 -0.26    -0.547 OA
DOCKED: ATOM     15  O   UNL d   1     -14.367   8.938   8.577 -0.50 -0.78    -0.547 OA
DOCKED: ENDBRANCH   1  13
DOCKED: TORSDOF 6
DOCKED: TER
DOCKED: ENDMDL
________________________________________________________________________________


	BEGINNING GENETIC ALGORITHM DOCKING 18 of 100
Run: 18 Seed: 498811887 1649261642 [ Run 18 of 100 GA/GALS ]
Beginning LAMARCKIAN GENETIC ALGORITHM (LGA), with a maximum of 25000000 energy evaluations.

Final-Value: -8.720


	FINAL GENETIC ALGORITHM DOCKED STATE
	_______________________________________________


Detailed state:  trans -13.869 4.904 12.559 quatxyzw -0.333592 0.334835 0.469684 0.745654 center 0.015 0.083 0.031 ntor 6 170.0661 47.1370 -35.2141 51.2825 -49.1705 75.9919
State:	-13.869   4.904  12.559  -0.501  0.503  0.705 83.569    170.07   47.14  -35.21   51.28  -49.17   75.99

DOCKED: MODEL       18
DOCKED: USER    Run = 18
DOCKED: USER    DPF = D:/Protein_go_brrr/autodock/final/mut_Y35F/2_3_BPG/dock.dpf
DOCKED: USER  
DOCKED: USER    Estimated Free Energy of Binding    =   -9.18 kcal/mol  [=(1)+(2)+(3)-(4)]
DOCKED: USER    Estimated Inhibition Constant, Ki   =  186.60 nM (nanomolar)  [Temperature = 298.15 K]
DOCKED: USER    
DOCKED: USER    (1) Final Intermolecular Energy     =  -10.97 kcal/mol
DOCKED: USER        vdW + Hbond + desolv Energy     =   -4.37 kcal/mol
DOCKED: USER        Electrostatic Energy            =   -6.60 kcal/mol
DOCKED: USER    (2) Final Total Internal Energy     =   +2.25 kcal/mol
DOCKED: USER    (3) Torsional Free Energy           =   +1.79 kcal/mol
DOCKED: USER    (4) Unbound System's Energy  [=(2)] =   +2.25 kcal/mol
DOCKED: USER    
DOCKED: USER    
DOCKED: USER    NEWDPF move 2_3_BPG_opt.pdbqt
DOCKED: USER    NEWDPF about 0.015000 0.083000 0.031000
DOCKED: USER    NEWDPF tran0 -13.868864 4.904260 12.558765
DOCKED: USER    NEWDPF quaternion0 -0.333592 0.334835 0.469684 0.745654
DOCKED: USER    NEWDPF axisangle0 -0.500639 0.502503 0.704877 83.569474
DOCKED: USER    NEWDPF quat0 -0.500639 0.502503 0.704877 83.569474
DOCKED: USER    NEWDPF dihe0 170.07 47.14 -35.21 51.28 -49.17 75.99 
DOCKED: USER  keepresnum = 1 
DOCKED: USER  
DOCKED: REMARK  6 active torsions:
DOCKED: REMARK  status: ('A' for Active; 'I' for Inactive)
DOCKED: REMARK    1  A    between atoms: P_1  and  O_3 
DOCKED: REMARK    2  A    between atoms: P_2  and  O_4 
DOCKED: REMARK    3  A    between atoms: O_3  and  C_13 
DOCKED: REMARK    4  A    between atoms: O_4  and  C_14 
DOCKED: REMARK    5  A    between atoms: C_13  and  C_14 
DOCKED: REMARK    6  A    between atoms: C_13  and  C_15 
DOCKED: USER                              x       y       z     vdW  Elec       q    Type
DOCKED: USER                           _______ _______ _______ _____ _____    ______ ____
DOCKED: ROOT
DOCKED: ATOM      1  C   UNL d   1     -14.289   5.324  12.248 -0.17 +0.22    +0.193 C 
DOCKED: ENDROOT
DOCKED: BRANCH   1   2
DOCKED: ATOM      2  O   UNL d   1     -13.737   6.680  12.345 -0.30 -0.61    -0.356 OA
DOCKED: BRANCH   2   3
DOCKED: ATOM      3  P   UNL d   1     -13.902   7.628  13.678 -0.11 -0.02    -0.014 P 
DOCKED: ATOM      4  O   UNL d   1     -14.245   9.018  13.119 -0.45 -0.87    -0.577 OA
DOCKED: ATOM      5  O   UNL d   1     -12.557   7.630  14.401 -0.07 -0.50    -0.577 OA
DOCKED: ATOM      6  O   UNL d   1     -15.044   7.066  14.519 +0.02 -0.32    -0.638 OA
DOCKED: ENDBRANCH   2   3
DOCKED: ENDBRANCH   1   2
DOCKED: BRANCH   1   7
DOCKED: ATOM      7  C   UNL d   1     -13.190   4.297  12.708 -0.24 +0.21    +0.201 C 
DOCKED: BRANCH   7   8
DOCKED: ATOM      8  O   UNL d   1     -12.862   3.257  11.760 -0.58 -0.66    -0.364 OA
DOCKED: BRANCH   8   9
DOCKED: ATOM      9  P   UNL d   1     -11.280   2.889  11.447 -0.68 -0.02    -0.015 P 
DOCKED: ATOM     10  O   UNL d   1     -11.270   1.382  11.161 -0.62 -0.63    -0.577 OA
DOCKED: ATOM     11  O   UNL d   1     -10.484   3.236  12.705 -0.72 -0.55    -0.577 OA
DOCKED: ATOM     12  O   UNL d   1     -10.858   3.707  10.228 -0.15 -1.15    -0.638 OA
DOCKED: ENDBRANCH   8   9
DOCKED: ENDBRANCH   7   8
DOCKED: ENDBRANCH   1   7
DOCKED: BRANCH   1  13
DOCKED: ATOM     13  C   UNL d   1     -14.683   5.007  10.757 -0.17 +0.12    +0.073 C 
DOCKED: ATOM     14  O   UNL d   1     -15.801   4.425  10.530 -0.05 -0.64    -0.547 OA
DOCKED: ATOM     15  O   UNL d   1     -13.877   5.412   9.843 -0.10 -1.19    -0.547 OA
DOCKED: ENDBRANCH   1  13
DOCKED: TORSDOF 6
DOCKED: TER
DOCKED: ENDMDL
________________________________________________________________________________


	BEGINNING GENETIC ALGORITHM DOCKING 19 of 100
Run: 19 Seed: 100044322 874109353 [ Run 19 of 100 GA/GALS ]
Beginning LAMARCKIAN GENETIC ALGORITHM (LGA), with a maximum of 25000000 energy evaluations.

Final-Value: -9.430


	FINAL GENETIC ALGORITHM DOCKED STATE
	_______________________________________________


Detailed state:  trans -13.283 4.996 11.974 quatxyzw 0.754238 -0.100137 0.522307 0.385088 center 0.015 0.083 0.031 ntor 6 180.0000 -9.5474 85.4037 19.3476 -74.2612 -117.7613
State:	-13.283   4.996  11.974   0.817 -0.109  0.566 134.702    180.00   -9.55   85.40   19.35  -74.26 -117.76

DOCKED: MODEL       19
DOCKED: USER    Run = 19
DOCKED: USER    DPF = D:/Protein_go_brrr/autodock/final/mut_Y35F/2_3_BPG/dock.dpf
DOCKED: USER  
DOCKED: USER    Estimated Free Energy of Binding    =  -10.03 kcal/mol  [=(1)+(2)+(3)-(4)]
DOCKED: USER    Estimated Inhibition Constant, Ki   =   44.22 nM (nanomolar)  [Temperature = 298.15 K]
DOCKED: USER    
DOCKED: USER    (1) Final Intermolecular Energy     =  -11.82 kcal/mol
DOCKED: USER        vdW + Hbond + desolv Energy     =   -4.51 kcal/mol
DOCKED: USER        Electrostatic Energy            =   -7.31 kcal/mol
DOCKED: USER    (2) Final Total Internal Energy     =   +2.39 kcal/mol
DOCKED: USER    (3) Torsional Free Energy           =   +1.79 kcal/mol
DOCKED: USER    (4) Unbound System's Energy  [=(2)] =   +2.39 kcal/mol
DOCKED: USER    
DOCKED: USER    
DOCKED: USER    NEWDPF move 2_3_BPG_opt.pdbqt
DOCKED: USER    NEWDPF about 0.015000 0.083000 0.031000
DOCKED: USER    NEWDPF tran0 -13.282775 4.995539 11.973862
DOCKED: USER    NEWDPF quaternion0 0.754238 -0.100137 0.522307 0.385088
DOCKED: USER    NEWDPF axisangle0 0.817266 -0.108505 0.565954 134.701579
DOCKED: USER    NEWDPF quat0 0.817266 -0.108505 0.565954 134.701579
DOCKED: USER    NEWDPF dihe0 180.00 -9.55 85.40 19.35 -74.26 -117.76 
DOCKED: USER  keepresnum = 1 
DOCKED: USER  
DOCKED: REMARK  6 active torsions:
DOCKED: REMARK  status: ('A' for Active; 'I' for Inactive)
DOCKED: REMARK    1  A    between atoms: P_1  and  O_3 
DOCKED: REMARK    2  A    between atoms: P_2  and  O_4 
DOCKED: REMARK    3  A    between atoms: O_3  and  C_13 
DOCKED: REMARK    4  A    between atoms: O_4  and  C_14 
DOCKED: REMARK    5  A    between atoms: C_13  and  C_14 
DOCKED: REMARK    6  A    between atoms: C_13  and  C_15 
DOCKED: USER                              x       y       z     vdW  Elec       q    Type
DOCKED: USER                           _______ _______ _______ _____ _____    ______ ____
DOCKED: ROOT
DOCKED: ATOM      1  C   UNL d   1     -13.535   5.577  11.757 +0.00 +0.30    +0.193 C 
DOCKED: ENDROOT
DOCKED: BRANCH   1   2
DOCKED: ATOM      2  O   UNL d   1     -14.347   5.307  10.565 -0.26 -0.63    -0.356 OA
DOCKED: BRANCH   2   3
DOCKED: ATOM      3  P   UNL d   1     -13.944   5.832   9.059 -0.12 -0.03    -0.014 P 
DOCKED: ATOM      4  O   UNL d   1     -14.861   5.036   8.118 -0.38 -1.03    -0.577 OA
DOCKED: ATOM      5  O   UNL d   1     -12.473   5.484   8.838 +0.11 -1.26    -0.577 OA
DOCKED: ATOM      6  O   UNL d   1     -14.231   7.328   8.989 -0.07 -1.02    -0.638 OA
DOCKED: ENDBRANCH   2   3
DOCKED: ENDBRANCH   1   2
DOCKED: BRANCH   1   7
DOCKED: ATOM      7  C   UNL d   1     -13.177   4.209  12.445 -0.25 +0.23    +0.201 C 
DOCKED: BRANCH   7   8
DOCKED: ATOM      8  O   UNL d   1     -12.807   3.133  11.555 -0.46 -0.74    -0.364 OA
DOCKED: BRANCH   8   9
DOCKED: ATOM      9  P   UNL d   1     -11.237   2.616  11.487 -0.71 -0.02    -0.015 P 
DOCKED: ATOM     10  O   UNL d   1     -10.597   3.431  10.356 -0.30 -0.91    -0.577 OA
DOCKED: ATOM     11  O   UNL d   1     -11.273   1.122  11.164 -0.71 -0.57    -0.577 OA
DOCKED: ATOM     12  O   UNL d   1     -10.602   2.920  12.843 -0.68 -0.53    -0.638 OA
DOCKED: ENDBRANCH   8   9
DOCKED: ENDBRANCH   7   8
DOCKED: ENDBRANCH   1   7
DOCKED: BRANCH   1  13
DOCKED: ATOM     13  C   UNL d   1     -14.350   6.457  12.776 -0.13 +0.08    +0.073 C 
DOCKED: ATOM     14  O   UNL d   1     -13.825   7.546  13.200 -0.56 -0.84    -0.547 OA
DOCKED: ATOM     15  O   UNL d   1     -15.533   6.056  13.076 +0.00 -0.36    -0.547 OA
DOCKED: ENDBRANCH   1  13
DOCKED: TORSDOF 6
DOCKED: TER
DOCKED: ENDMDL
________________________________________________________________________________


	BEGINNING GENETIC ALGORITHM DOCKING 20 of 100
Run: 20 Seed: 705640218 1424494461 [ Run 20 of 100 GA/GALS ]
Beginning LAMARCKIAN GENETIC ALGORITHM (LGA), with a maximum of 25000000 energy evaluations.

Final-Value: -8.638


	FINAL GENETIC ALGORITHM DOCKED STATE
	_______________________________________________


Detailed state:  trans -13.223 5.183 12.275 quatxyzw -0.561341 -0.535155 -0.628924 0.054417 center 0.015 0.083 0.031 ntor 6 -178.4921 137.7464 26.4106 24.3357 -78.0329 -30.5637
State:	-13.223   5.183  12.275  -0.562 -0.536 -0.630 173.761   -178.49  137.75   26.41   24.34  -78.03  -30.56

DOCKED: MODEL       20
DOCKED: USER    Run = 20
DOCKED: USER    DPF = D:/Protein_go_brrr/autodock/final/mut_Y35F/2_3_BPG/dock.dpf
DOCKED: USER  
DOCKED: USER    Estimated Free Energy of Binding    =   -8.97 kcal/mol  [=(1)+(2)+(3)-(4)]
DOCKED: USER    Estimated Inhibition Constant, Ki   =  266.56 nM (nanomolar)  [Temperature = 298.15 K]
DOCKED: USER    
DOCKED: USER    (1) Final Intermolecular Energy     =  -10.76 kcal/mol
DOCKED: USER        vdW + Hbond + desolv Energy     =   -4.01 kcal/mol
DOCKED: USER        Electrostatic Energy            =   -6.75 kcal/mol
DOCKED: USER    (2) Final Total Internal Energy     =   +2.12 kcal/mol
DOCKED: USER    (3) Torsional Free Energy           =   +1.79 kcal/mol
DOCKED: USER    (4) Unbound System's Energy  [=(2)] =   +2.12 kcal/mol
DOCKED: USER    
DOCKED: USER    
DOCKED: USER    NEWDPF move 2_3_BPG_opt.pdbqt
DOCKED: USER    NEWDPF about 0.015000 0.083000 0.031000
DOCKED: USER    NEWDPF tran0 -13.223361 5.183315 12.275215
DOCKED: USER    NEWDPF quaternion0 -0.561341 -0.535155 -0.628924 0.054417
DOCKED: USER    NEWDPF axisangle0 -0.562174 -0.535949 -0.629857 173.761224
DOCKED: USER    NEWDPF quat0 -0.562174 -0.535949 -0.629857 173.761224
DOCKED: USER    NEWDPF dihe0 -178.49 137.75 26.41 24.34 -78.03 -30.56 
DOCKED: USER  keepresnum = 1 
DOCKED: USER  
DOCKED: REMARK  6 active torsions:
DOCKED: REMARK  status: ('A' for Active; 'I' for Inactive)
DOCKED: REMARK    1  A    between atoms: P_1  and  O_3 
DOCKED: REMARK    2  A    between atoms: P_2  and  O_4 
DOCKED: REMARK    3  A    between atoms: O_3  and  C_13 
DOCKED: REMARK    4  A    between atoms: O_4  and  C_14 
DOCKED: REMARK    5  A    between atoms: C_13  and  C_14 
DOCKED: REMARK    6  A    between atoms: C_13  and  C_15 
DOCKED: USER                              x       y       z     vdW  Elec       q    Type
DOCKED: USER                           _______ _______ _______ _____ _____    ______ ____
DOCKED: ROOT
DOCKED: ATOM      1  C   UNL d   1     -13.105   4.979  11.648 -0.12 +0.32    +0.193 C 
DOCKED: ENDROOT
DOCKED: BRANCH   1   2
DOCKED: ATOM      2  O   UNL d   1     -12.790   3.547  11.684 -0.67 -0.68    -0.356 OA
DOCKED: BRANCH   2   3
DOCKED: ATOM      3  P   UNL d   1     -11.279   2.949  11.431 -0.66 -0.02    -0.014 P 
DOCKED: ATOM      4  O   UNL d   1     -10.776   3.693  10.184 -0.21 -1.01    -0.577 OA
DOCKED: ATOM      5  O   UNL d   1     -11.423   1.451  11.171 -0.48 -0.67    -0.577 OA
DOCKED: ATOM      6  O   UNL d   1     -10.432   3.274  12.657 -0.66 -0.63    -0.638 OA
DOCKED: ENDBRANCH   2   3
DOCKED: ENDBRANCH   1   2
DOCKED: BRANCH   1   7
DOCKED: ATOM      7  C   UNL d   1     -13.666   5.409  13.053 -0.15 +0.19    +0.201 C 
DOCKED: BRANCH   7   8
DOCKED: ATOM      8  O   UNL d   1     -13.038   6.562  13.657 -0.13 -0.37    -0.364 OA
DOCKED: BRANCH   8   9
DOCKED: ATOM      9  P   UNL d   1     -13.823   8.018  13.678 -0.06 -0.02    -0.015 P 
DOCKED: ATOM     10  O   UNL d   1     -12.709   9.071  13.678 -0.23 -0.85    -0.577 OA
DOCKED: ATOM     11  O   UNL d   1     -14.649   8.060  14.963 +0.01 -0.28    -0.577 OA
DOCKED: ATOM     12  O   UNL d   1     -14.679   8.087  12.414 -0.50 -1.09    -0.638 OA
DOCKED: ENDBRANCH   8   9
DOCKED: ENDBRANCH   7   8
DOCKED: ENDBRANCH   1   7
DOCKED: BRANCH   1  13
DOCKED: ATOM     13  C   UNL d   1     -14.206   5.262  10.558 -0.02 +0.14    +0.073 C 
DOCKED: ATOM     14  O   UNL d   1     -13.956   6.127   9.647 -0.03 -1.00    -0.547 OA
DOCKED: ATOM     15  O   UNL d   1     -15.275   4.554  10.613 -0.10 -0.79    -0.547 OA
DOCKED: ENDBRANCH   1  13
DOCKED: TORSDOF 6
DOCKED: TER
DOCKED: ENDMDL
________________________________________________________________________________


	BEGINNING GENETIC ALGORITHM DOCKING 21 of 100
Run: 21 Seed: 2120457151 1590658054 [ Run 21 of 100 GA/GALS ]
Beginning LAMARCKIAN GENETIC ALGORITHM (LGA), with a maximum of 25000000 energy evaluations.

Final-Value: -8.493


	FINAL GENETIC ALGORITHM DOCKED STATE
	_______________________________________________


Detailed state:  trans -13.792 5.923 8.668 quatxyzw -0.391698 -0.116079 -0.909261 0.079641 center 0.015 0.083 0.031 ntor 6 -37.0853 176.9483 84.2680 -10.6412 89.2379 -7.7449
State:	-13.792   5.923   8.668  -0.393 -0.116 -0.912 170.864    -37.09  176.95   84.27  -10.64   89.24   -7.74

DOCKED: MODEL       21
DOCKED: USER    Run = 21
DOCKED: USER    DPF = D:/Protein_go_brrr/autodock/final/mut_Y35F/2_3_BPG/dock.dpf
DOCKED: USER  
DOCKED: USER    Estimated Free Energy of Binding    =   -9.06 kcal/mol  [=(1)+(2)+(3)-(4)]
DOCKED: USER    Estimated Inhibition Constant, Ki   =  228.33 nM (nanomolar)  [Temperature = 298.15 K]
DOCKED: USER    
DOCKED: USER    (1) Final Intermolecular Energy     =  -10.85 kcal/mol
DOCKED: USER        vdW + Hbond + desolv Energy     =   -3.87 kcal/mol
DOCKED: USER        Electrostatic Energy            =   -6.98 kcal/mol
DOCKED: USER    (2) Final Total Internal Energy     =   +2.36 kcal/mol
DOCKED: USER    (3) Torsional Free Energy           =   +1.79 kcal/mol
DOCKED: USER    (4) Unbound System's Energy  [=(2)] =   +2.36 kcal/mol
DOCKED: USER    
DOCKED: USER    
DOCKED: USER    NEWDPF move 2_3_BPG_opt.pdbqt
DOCKED: USER    NEWDPF about 0.015000 0.083000 0.031000
DOCKED: USER    NEWDPF tran0 -13.792228 5.922666 8.668462
DOCKED: USER    NEWDPF quaternion0 -0.391698 -0.116079 -0.909261 0.079641
DOCKED: USER    NEWDPF axisangle0 -0.392946 -0.116449 -0.912159 170.864123
DOCKED: USER    NEWDPF quat0 -0.392946 -0.116449 -0.912159 170.864123
DOCKED: USER    NEWDPF dihe0 -37.09 176.95 84.27 -10.64 89.24 -7.74 
DOCKED: USER  keepresnum = 1 
DOCKED: USER  
DOCKED: REMARK  6 active torsions:
DOCKED: REMARK  status: ('A' for Active; 'I' for Inactive)
DOCKED: REMARK    1  A    between atoms: P_1  and  O_3 
DOCKED: REMARK    2  A    between atoms: P_2  and  O_4 
DOCKED: REMARK    3  A    between atoms: O_3  and  C_13 
DOCKED: REMARK    4  A    between atoms: O_4  and  C_14 
DOCKED: REMARK    5  A    between atoms: C_13  and  C_14 
DOCKED: REMARK    6  A    between atoms: C_13  and  C_15 
DOCKED: USER                              x       y       z     vdW  Elec       q    Type
DOCKED: USER                           _______ _______ _______ _____ _____    ______ ____
DOCKED: ROOT
DOCKED: ATOM      1  C   UNL d   1     -13.309   6.098   8.239 -0.12 +0.31    +0.193 C 
DOCKED: ENDROOT
DOCKED: BRANCH   1   2
DOCKED: ATOM      2  O   UNL d   1     -13.107   4.988   7.300 -0.21 -0.67    -0.356 OA
DOCKED: BRANCH   2   3
DOCKED: ATOM      3  P   UNL d   1     -11.631   4.555   6.718 -0.52 -0.02    -0.014 P 
DOCKED: ATOM      4  O   UNL d   1     -10.682   5.650   7.228 -0.12 -0.56    -0.577 OA
DOCKED: ATOM      5  O   UNL d   1     -11.727   4.560   5.194 -0.57 -0.52    -0.577 OA
DOCKED: ATOM      6  O   UNL d   1     -11.277   3.191   7.301 -0.56 -1.32    -0.638 OA
DOCKED: ENDBRANCH   2   3
DOCKED: ENDBRANCH   1   2
DOCKED: BRANCH   1   7
DOCKED: ATOM      7  C   UNL d   1     -14.622   5.830   9.062 -0.14 +0.31    +0.201 C 
DOCKED: BRANCH   7   8
DOCKED: ATOM      8  O   UNL d   1     -14.663   6.403  10.388 -0.09 -0.55    -0.364 OA
DOCKED: BRANCH   8   9
DOCKED: ATOM      9  P   UNL d   1     -14.056   5.559  11.675 -0.23 -0.02    -0.015 P 
DOCKED: ATOM     10  O   UNL d   1     -15.258   4.813  12.265 -0.04 -0.49    -0.577 OA
DOCKED: ATOM     11  O   UNL d   1     -13.486   6.587  12.653 -0.20 -0.91    -0.577 OA
DOCKED: ATOM     12  O   UNL d   1     -12.997   4.602  11.128 -0.54 -1.46    -0.638 OA
DOCKED: ENDBRANCH   8   9
DOCKED: ENDBRANCH   7   8
DOCKED: ENDBRANCH   1   7
DOCKED: BRANCH   1  13
DOCKED: ATOM     13  C   UNL d   1     -13.475   7.450   7.449 -0.14 +0.08    +0.073 C 
DOCKED: ATOM     14  O   UNL d   1     -13.742   7.397   6.197 +0.01 -0.34    -0.547 OA
DOCKED: ATOM     15  O   UNL d   1     -13.395   8.535   8.129 -0.40 -0.84    -0.547 OA
DOCKED: ENDBRANCH   1  13
DOCKED: TORSDOF 6
DOCKED: TER
DOCKED: ENDMDL
________________________________________________________________________________


	BEGINNING GENETIC ALGORITHM DOCKING 22 of 100
Run: 22 Seed: 175614986 1074992209 [ Run 22 of 100 GA/GALS ]
Beginning LAMARCKIAN GENETIC ALGORITHM (LGA), with a maximum of 25000000 energy evaluations.

Final-Value: -8.148


	FINAL GENETIC ALGORITHM DOCKED STATE
	_______________________________________________


Detailed state:  trans -13.350 6.029 8.847 quatxyzw -0.511519 -0.181403 -0.839769 0.015115 center 0.015 0.083 0.031 ntor 6 -44.3969 178.6890 -2.1865 6.7920 -35.8776 -71.1178
State:	-13.350   6.029   8.847  -0.512 -0.181 -0.840 178.268    -44.40  178.69   -2.19    6.79  -35.88  -71.12

DOCKED: MODEL       22
DOCKED: USER    Run = 22
DOCKED: USER    DPF = D:/Protein_go_brrr/autodock/final/mut_Y35F/2_3_BPG/dock.dpf
DOCKED: USER  
DOCKED: USER    Estimated Free Energy of Binding    =   -8.36 kcal/mol  [=(1)+(2)+(3)-(4)]
DOCKED: USER    Estimated Inhibition Constant, Ki   =  739.50 nM (nanomolar)  [Temperature = 298.15 K]
DOCKED: USER    
DOCKED: USER    (1) Final Intermolecular Energy     =  -10.15 kcal/mol
DOCKED: USER        vdW + Hbond + desolv Energy     =   -3.65 kcal/mol
DOCKED: USER        Electrostatic Energy            =   -6.50 kcal/mol
DOCKED: USER    (2) Final Total Internal Energy     =   +2.01 kcal/mol
DOCKED: USER    (3) Torsional Free Energy           =   +1.79 kcal/mol
DOCKED: USER    (4) Unbound System's Energy  [=(2)] =   +2.01 kcal/mol
DOCKED: USER    
DOCKED: USER    
DOCKED: USER    NEWDPF move 2_3_BPG_opt.pdbqt
DOCKED: USER    NEWDPF about 0.015000 0.083000 0.031000
DOCKED: USER    NEWDPF tran0 -13.350281 6.028699 8.846677
DOCKED: USER    NEWDPF quaternion0 -0.511519 -0.181403 -0.839769 0.015115
DOCKED: USER    NEWDPF axisangle0 -0.511578 -0.181424 -0.839865 178.267931
DOCKED: USER    NEWDPF quat0 -0.511578 -0.181424 -0.839865 178.267931
DOCKED: USER    NEWDPF dihe0 -44.40 178.69 -2.19 6.79 -35.88 -71.12 
DOCKED: USER  keepresnum = 1 
DOCKED: USER  
DOCKED: REMARK  6 active torsions:
DOCKED: REMARK  status: ('A' for Active; 'I' for Inactive)
DOCKED: REMARK    1  A    between atoms: P_1  and  O_3 
DOCKED: REMARK    2  A    between atoms: P_2  and  O_4 
DOCKED: REMARK    3  A    between atoms: O_3  and  C_13 
DOCKED: REMARK    4  A    between atoms: O_4  and  C_14 
DOCKED: REMARK    5  A    between atoms: C_13  and  C_14 
DOCKED: REMARK    6  A    between atoms: C_13  and  C_15 
DOCKED: USER                              x       y       z     vdW  Elec       q    Type
DOCKED: USER                           _______ _______ _______ _____ _____    ______ ____
DOCKED: ROOT
DOCKED: ATOM      1  C   UNL d   1     -13.041   6.223   8.285 -0.05 +0.31    +0.193 C 
DOCKED: ENDROOT
DOCKED: BRANCH   1   2
DOCKED: ATOM      2  O   UNL d   1     -12.969   5.071   7.380 -0.15 -0.67    -0.356 OA
DOCKED: BRANCH   2   3
DOCKED: ATOM      3  P   UNL d   1     -11.563   4.525   6.723 -0.53 -0.02    -0.014 P 
DOCKED: ATOM      4  O   UNL d   1     -10.509   5.552   7.166 -0.11 -0.53    -0.577 OA
DOCKED: ATOM      5  O   UNL d   1     -11.743   4.523   5.206 -0.58 -0.52    -0.577 OA
DOCKED: ATOM      6  O   UNL d   1     -11.278   3.143   7.303 -0.56 -1.32    -0.638 OA
DOCKED: ENDBRANCH   2   3
DOCKED: ENDBRANCH   1   2
DOCKED: BRANCH   1   7
DOCKED: ATOM      7  C   UNL d   1     -14.010   5.872   9.473 -0.08 +0.37    +0.201 C 
DOCKED: BRANCH   7   8
DOCKED: ATOM      8  O   UNL d   1     -13.401   5.228  10.614 -0.41 -0.82    -0.364 OA
DOCKED: BRANCH   8   9
DOCKED: ATOM      9  P   UNL d   1     -13.982   5.513  12.136 -0.25 -0.02    -0.015 P 
DOCKED: ATOM     10  O   UNL d   1     -13.099   4.670  13.065 -0.05 -0.52    -0.577 OA
DOCKED: ATOM     11  O   UNL d   1     -15.437   5.047  12.153 -0.03 -0.47    -0.577 OA
DOCKED: ATOM     12  O   UNL d   1     -13.830   7.010  12.404 -0.30 -1.23    -0.638 OA
DOCKED: ENDBRANCH   8   9
DOCKED: ENDBRANCH   7   8
DOCKED: ENDBRANCH   1   7
DOCKED: BRANCH   1  13
DOCKED: ATOM     13  C   UNL d   1     -13.613   7.475   7.520 -0.13 +0.08    +0.073 C 
DOCKED: ATOM     14  O   UNL d   1     -14.094   7.306   6.345 +0.02 -0.35    -0.547 OA
DOCKED: ATOM     15  O   UNL d   1     -13.621   8.591   8.154 -0.45 -0.80    -0.547 OA
DOCKED: ENDBRANCH   1  13
DOCKED: TORSDOF 6
DOCKED: TER
DOCKED: ENDMDL
________________________________________________________________________________


	BEGINNING GENETIC ALGORITHM DOCKING 23 of 100
Run: 23 Seed: 1040540438 1271980222 [ Run 23 of 100 GA/GALS ]
Beginning LAMARCKIAN GENETIC ALGORITHM (LGA), with a maximum of 25000000 energy evaluations.

Final-Value: -8.886


	FINAL GENETIC ALGORITHM DOCKED STATE
	_______________________________________________


Detailed state:  trans -13.774 4.751 12.676 quatxyzw -0.377989 0.396960 0.482966 0.682856 center 0.015 0.083 0.031 ntor 6 169.4465 -9.7145 -26.4992 11.3025 -63.8345 71.6188
State:	-13.774   4.751  12.676  -0.517  0.543  0.661 93.866    169.45   -9.71  -26.50   11.30  -63.83   71.62

DOCKED: MODEL       23
DOCKED: USER    Run = 23
DOCKED: USER    DPF = D:/Protein_go_brrr/autodock/final/mut_Y35F/2_3_BPG/dock.dpf
DOCKED: USER  
DOCKED: USER    Estimated Free Energy of Binding    =   -9.58 kcal/mol  [=(1)+(2)+(3)-(4)]
DOCKED: USER    Estimated Inhibition Constant, Ki   =   94.79 nM (nanomolar)  [Temperature = 298.15 K]
DOCKED: USER    
DOCKED: USER    (1) Final Intermolecular Energy     =  -11.37 kcal/mol
DOCKED: USER        vdW + Hbond + desolv Energy     =   -4.41 kcal/mol
DOCKED: USER        Electrostatic Energy            =   -6.96 kcal/mol
DOCKED: USER    (2) Final Total Internal Energy     =   +2.49 kcal/mol
DOCKED: USER    (3) Torsional Free Energy           =   +1.79 kcal/mol
DOCKED: USER    (4) Unbound System's Energy  [=(2)] =   +2.49 kcal/mol
DOCKED: USER    
DOCKED: USER    
DOCKED: USER    NEWDPF move 2_3_BPG_opt.pdbqt
DOCKED: USER    NEWDPF about 0.015000 0.083000 0.031000
DOCKED: USER    NEWDPF tran0 -13.773703 4.750593 12.676074
DOCKED: USER    NEWDPF quaternion0 -0.377989 0.396960 0.482966 0.682856
DOCKED: USER    NEWDPF axisangle0 -0.517400 0.543368 0.661096 93.865623
DOCKED: USER    NEWDPF quat0 -0.517400 0.543368 0.661096 93.865623
DOCKED: USER    NEWDPF dihe0 169.45 -9.71 -26.50 11.30 -63.83 71.62 
DOCKED: USER  keepresnum = 1 
DOCKED: USER  
DOCKED: REMARK  6 active torsions:
DOCKED: REMARK  status: ('A' for Active; 'I' for Inactive)
DOCKED: REMARK    1  A    between atoms: P_1  and  O_3 
DOCKED: REMARK    2  A    between atoms: P_2  and  O_4 
DOCKED: REMARK    3  A    between atoms: O_3  and  C_13 
DOCKED: REMARK    4  A    between atoms: O_4  and  C_14 
DOCKED: REMARK    5  A    between atoms: C_13  and  C_14 
DOCKED: REMARK    6  A    between atoms: C_13  and  C_15 
DOCKED: USER                              x       y       z     vdW  Elec       q    Type
DOCKED: USER                           _______ _______ _______ _____ _____    ______ ____
DOCKED: ROOT
DOCKED: ATOM      1  C   UNL d   1     -14.098   5.223  12.329 -0.18 +0.22    +0.193 C 
DOCKED: ENDROOT
DOCKED: BRANCH   1   2
DOCKED: ATOM      2  O   UNL d   1     -13.457   6.514  12.604 -0.23 -0.56    -0.356 OA
DOCKED: BRANCH   2   3
DOCKED: ATOM      3  P   UNL d   1     -14.254   7.798  13.253 +0.08 -0.02    -0.014 P 
DOCKED: ATOM      4  O   UNL d   1     -13.139   8.766  13.679 -0.35 -0.84    -0.577 OA
DOCKED: ATOM      5  O   UNL d   1     -15.040   7.281  14.456 +0.01 -0.30    -0.577 OA
DOCKED: ATOM      6  O   UNL d   1     -15.136   8.403  12.166 -0.37 -0.88    -0.638 OA
DOCKED: ENDBRANCH   2   3
DOCKED: ENDBRANCH   1   2
DOCKED: BRANCH   1   7
DOCKED: ATOM      7  C   UNL d   1     -13.184   4.075  12.894 -0.25 +0.18    +0.201 C 
DOCKED: BRANCH   7   8
DOCKED: ATOM      8  O   UNL d   1     -12.871   3.007  11.973 -0.59 -0.54    -0.364 OA
DOCKED: BRANCH   8   9
DOCKED: ATOM      9  P   UNL d   1     -11.298   2.700  11.563 -0.74 -0.02    -0.015 P 
DOCKED: ATOM     10  O   UNL d   1     -11.278   1.229  11.130 -0.68 -0.60    -0.577 OA
DOCKED: ATOM     11  O   UNL d   1     -10.456   2.937  12.816 -0.73 -0.50    -0.577 OA
DOCKED: ATOM     12  O   UNL d   1     -10.939   3.641  10.414 -0.17 -1.15    -0.638 OA
DOCKED: ENDBRANCH   8   9
DOCKED: ENDBRANCH   7   8
DOCKED: ENDBRANCH   1   7
DOCKED: BRANCH   1  13
DOCKED: ATOM     13  C   UNL d   1     -14.259   5.021  10.776 -0.04 +0.13    +0.073 C 
DOCKED: ATOM     14  O   UNL d   1     -15.364   4.549  10.332 -0.07 -0.81    -0.547 OA
DOCKED: ATOM     15  O   UNL d   1     -13.284   5.405  10.034 -0.11 -1.27    -0.547 OA
DOCKED: ENDBRANCH   1  13
DOCKED: TORSDOF 6
DOCKED: TER
DOCKED: ENDMDL
________________________________________________________________________________


	BEGINNING GENETIC ALGORITHM DOCKING 24 of 100
Run: 24 Seed: 152784655 96008880 [ Run 24 of 100 GA/GALS ]
Beginning LAMARCKIAN GENETIC ALGORITHM (LGA), with a maximum of 25000000 energy evaluations.

Final-Value: -8.281


	FINAL GENETIC ALGORITHM DOCKED STATE
	_______________________________________________


Detailed state:  trans -13.967 5.809 7.747 quatxyzw 0.616929 0.635655 0.402350 0.231205 center 0.015 0.083 0.031 ntor 6 165.1194 -38.6010 119.0372 60.9230 -25.2859 118.4316
State:	-13.967   5.809   7.747   0.634  0.653  0.414 153.264    165.12  -38.60  119.04   60.92  -25.29  118.43

DOCKED: MODEL       24
DOCKED: USER    Run = 24
DOCKED: USER    DPF = D:/Protein_go_brrr/autodock/final/mut_Y35F/2_3_BPG/dock.dpf
DOCKED: USER  
DOCKED: USER    Estimated Free Energy of Binding    =   -8.72 kcal/mol  [=(1)+(2)+(3)-(4)]
DOCKED: USER    Estimated Inhibition Constant, Ki   =  403.10 nM (nanomolar)  [Temperature = 298.15 K]
DOCKED: USER    
DOCKED: USER    (1) Final Intermolecular Energy     =  -10.51 kcal/mol
DOCKED: USER        vdW + Hbond + desolv Energy     =   -3.79 kcal/mol
DOCKED: USER        Electrostatic Energy            =   -6.72 kcal/mol
DOCKED: USER    (2) Final Total Internal Energy     =   +2.23 kcal/mol
DOCKED: USER    (3) Torsional Free Energy           =   +1.79 kcal/mol
DOCKED: USER    (4) Unbound System's Energy  [=(2)] =   +2.23 kcal/mol
DOCKED: USER    
DOCKED: USER    
DOCKED: USER    NEWDPF move 2_3_BPG_opt.pdbqt
DOCKED: USER    NEWDPF about 0.015000 0.083000 0.031000
DOCKED: USER    NEWDPF tran0 -13.967183 5.808752 7.746845
DOCKED: USER    NEWDPF quaternion0 0.616929 0.635655 0.402350 0.231205
DOCKED: USER    NEWDPF axisangle0 0.634110 0.653358 0.413556 153.263994
DOCKED: USER    NEWDPF quat0 0.634110 0.653358 0.413556 153.263994
DOCKED: USER    NEWDPF dihe0 165.12 -38.60 119.04 60.92 -25.29 118.43 
DOCKED: USER  keepresnum = 1 
DOCKED: USER  
DOCKED: REMARK  6 active torsions:
DOCKED: REMARK  status: ('A' for Active; 'I' for Inactive)
DOCKED: REMARK    1  A    between atoms: P_1  and  O_3 
DOCKED: REMARK    2  A    between atoms: P_2  and  O_4 
DOCKED: REMARK    3  A    between atoms: O_3  and  C_13 
DOCKED: REMARK    4  A    between atoms: O_4  and  C_14 
DOCKED: REMARK    5  A    between atoms: C_13  and  C_14 
DOCKED: REMARK    6  A    between atoms: C_13  and  C_15 
DOCKED: USER                              x       y       z     vdW  Elec       q    Type
DOCKED: USER                           _______ _______ _______ _____ _____    ______ ____
DOCKED: ROOT
DOCKED: ATOM      1  C   UNL d   1     -14.174   5.559   7.160 -0.12 +0.24    +0.193 C 
DOCKED: ENDROOT
DOCKED: BRANCH   1   2
DOCKED: ATOM      2  O   UNL d   1     -13.391   4.350   6.877 -0.21 -0.70    -0.356 OA
DOCKED: BRANCH   2   3
DOCKED: ATOM      3  P   UNL d   1     -11.801   4.382   6.457 -0.53 -0.02    -0.014 P 
DOCKED: ATOM      4  O   UNL d   1     -11.170   3.236   7.263 -0.65 -1.09    -0.577 OA
DOCKED: ATOM      5  O   UNL d   1     -11.248   5.740   6.884 -0.09 -0.58    -0.577 OA
DOCKED: ATOM      6  O   UNL d   1     -11.705   4.131   4.956 -0.58 -0.53    -0.638 OA
DOCKED: ENDBRANCH   2   3
DOCKED: ENDBRANCH   1   2
DOCKED: BRANCH   1   7
DOCKED: ATOM      7  C   UNL d   1     -13.913   5.991   8.650 -0.11 +0.34    +0.201 C 
DOCKED: BRANCH   7   8
DOCKED: ATOM      8  O   UNL d   1     -14.686   5.295   9.653 -0.13 -0.66    -0.364 OA
DOCKED: BRANCH   8   9
DOCKED: ATOM      9  P   UNL d   1     -14.153   5.236  11.218 -0.22 -0.02    -0.015 P 
DOCKED: ATOM     10  O   UNL d   1     -12.777   4.565  11.145 -0.57 -1.30    -0.577 OA
DOCKED: ATOM     11  O   UNL d   1     -15.159   4.391  12.000 -0.08 -0.55    -0.577 OA
DOCKED: ATOM     12  O   UNL d   1     -14.064   6.676  11.719 -0.10 -1.16    -0.638 OA
DOCKED: ENDBRANCH   8   9
DOCKED: ENDBRANCH   7   8
DOCKED: ENDBRANCH   1   7
DOCKED: BRANCH   1  13
DOCKED: ATOM     13  C   UNL d   1     -15.709   5.261   6.982 -0.13 +0.06    +0.073 C 
DOCKED: ATOM     14  O   UNL d   1     -16.449   6.162   6.451 +0.03 -0.25    -0.547 OA
DOCKED: ATOM     15  O   UNL d   1     -16.121   4.095   7.328 -0.30 -0.49    -0.547 OA
DOCKED: ENDBRANCH   1  13
DOCKED: TORSDOF 6
DOCKED: TER
DOCKED: ENDMDL
________________________________________________________________________________


	BEGINNING GENETIC ALGORITHM DOCKING 25 of 100
Run: 25 Seed: 1959667346 1599097336 [ Run 25 of 100 GA/GALS ]
Beginning LAMARCKIAN GENETIC ALGORITHM (LGA), with a maximum of 25000000 energy evaluations.

Final-Value: -8.701


	FINAL GENETIC ALGORITHM DOCKED STATE
	_______________________________________________


Detailed state:  trans -14.054 6.369 7.521 quatxyzw -0.656092 0.167523 0.735850 0.002181 center 0.015 0.083 0.031 ntor 6 -145.8935 -17.0003 -125.4102 30.9470 61.0975 -154.6629
State:	-14.054   6.369   7.521  -0.656  0.168  0.736 179.750   -145.89  -17.00 -125.41   30.95   61.10 -154.66

DOCKED: MODEL       25
DOCKED: USER    Run = 25
DOCKED: USER    DPF = D:/Protein_go_brrr/autodock/final/mut_Y35F/2_3_BPG/dock.dpf
DOCKED: USER  
DOCKED: USER    Estimated Free Energy of Binding    =   -9.42 kcal/mol  [=(1)+(2)+(3)-(4)]
DOCKED: USER    Estimated Inhibition Constant, Ki   =  125.08 nM (nanomolar)  [Temperature = 298.15 K]
DOCKED: USER    
DOCKED: USER    (1) Final Intermolecular Energy     =  -11.21 kcal/mol
DOCKED: USER        vdW + Hbond + desolv Energy     =   -3.70 kcal/mol
DOCKED: USER        Electrostatic Energy            =   -7.51 kcal/mol
DOCKED: USER    (2) Final Total Internal Energy     =   +2.51 kcal/mol
DOCKED: USER    (3) Torsional Free Energy           =   +1.79 kcal/mol
DOCKED: USER    (4) Unbound System's Energy  [=(2)] =   +2.51 kcal/mol
DOCKED: USER    
DOCKED: USER    
DOCKED: USER    NEWDPF move 2_3_BPG_opt.pdbqt
DOCKED: USER    NEWDPF about 0.015000 0.083000 0.031000
DOCKED: USER    NEWDPF tran0 -14.054456 6.369090 7.521363
DOCKED: USER    NEWDPF quaternion0 -0.656092 0.167523 0.735850 0.002181
DOCKED: USER    NEWDPF axisangle0 -0.656093 0.167523 0.735852 179.750092
DOCKED: USER    NEWDPF quat0 -0.656093 0.167523 0.735852 179.750092
DOCKED: USER    NEWDPF dihe0 -145.89 -17.00 -125.41 30.95 61.10 -154.66 
DOCKED: USER  keepresnum = 1 
DOCKED: USER  
DOCKED: REMARK  6 active torsions:
DOCKED: REMARK  status: ('A' for Active; 'I' for Inactive)
DOCKED: REMARK    1  A    between atoms: P_1  and  O_3 
DOCKED: REMARK    2  A    between atoms: P_2  and  O_4 
DOCKED: REMARK    3  A    between atoms: O_3  and  C_13 
DOCKED: REMARK    4  A    between atoms: O_4  and  C_14 
DOCKED: REMARK    5  A    between atoms: C_13  and  C_14 
DOCKED: REMARK    6  A    between atoms: C_13  and  C_15 
DOCKED: USER                              x       y       z     vdW  Elec       q    Type
DOCKED: USER                           _______ _______ _______ _____ _____    ______ ____
DOCKED: ROOT
DOCKED: ATOM      1  C   UNL d   1     -13.995   6.817   8.017 -0.11 +0.24    +0.193 C 
DOCKED: ENDROOT
DOCKED: BRANCH   1   2
DOCKED: ATOM      2  O   UNL d   1     -13.401   6.141   9.175 -0.00 -0.69    -0.356 OA
DOCKED: BRANCH   2   3
DOCKED: ATOM      3  P   UNL d   1     -14.276   5.632  10.471 -0.18 -0.02    -0.014 P 
DOCKED: ATOM      4  O   UNL d   1     -13.397   4.558  11.129 -0.54 -1.31    -0.577 OA
DOCKED: ATOM      5  O   UNL d   1     -15.578   5.040   9.933 -0.05 -0.74    -0.577 OA
DOCKED: ATOM      6  O   UNL d   1     -14.488   6.826  11.396 -0.10 -1.09    -0.638 OA
DOCKED: ENDBRANCH   2   3
DOCKED: ENDBRANCH   1   2
DOCKED: BRANCH   1   7
DOCKED: ATOM      7  C   UNL d   1     -13.874   5.872   6.764 -0.13 +0.21    +0.201 C 
DOCKED: BRANCH   7   8
DOCKED: ATOM      8  O   UNL d   1     -13.335   4.556   7.017 -0.17 -0.74    -0.364 OA
DOCKED: BRANCH   8   9
DOCKED: ATOM      9  P   UNL d   1     -11.896   4.104   6.337 -0.50 -0.02    -0.015 P 
DOCKED: ATOM     10  O   UNL d   1     -10.886   5.159   6.804 -0.13 -0.57    -0.577 OA
DOCKED: ATOM     11  O   UNL d   1     -12.091   4.132   4.821 -0.66 -0.47    -0.577 OA
DOCKED: ATOM     12  O   UNL d   1     -11.562   2.713   6.872 -0.45 -1.11    -0.638 OA
DOCKED: ENDBRANCH   8   9
DOCKED: ENDBRANCH   7   8
DOCKED: ENDBRANCH   1   7
DOCKED: BRANCH   1  13
DOCKED: ATOM     13  C   UNL d   1     -13.221   8.154   7.716 -0.11 +0.09    +0.073 C 
DOCKED: ATOM     14  O   UNL d   1     -13.645   9.239   8.250 -0.52 -0.82    -0.547 OA
DOCKED: ATOM     15  O   UNL d   1     -12.162   8.065   6.997 -0.04 -0.46    -0.547 OA
DOCKED: ENDBRANCH   1  13
DOCKED: TORSDOF 6
DOCKED: TER
DOCKED: ENDMDL
________________________________________________________________________________


	BEGINNING GENETIC ALGORITHM DOCKING 26 of 100
Run: 26 Seed: 755923579 1428407760 [ Run 26 of 100 GA/GALS ]
Beginning LAMARCKIAN GENETIC ALGORITHM (LGA), with a maximum of 25000000 energy evaluations.

Final-Value: -8.437


	FINAL GENETIC ALGORITHM DOCKED STATE
	_______________________________________________


Detailed state:  trans -14.258 4.788 11.659 quatxyzw 0.174082 0.387442 -0.905158 0.016526 center 0.015 0.083 0.031 ntor 6 52.2908 -144.3606 -70.7913 24.8701 -15.6306 175.3571
State:	-14.258   4.788  11.659   0.174  0.387 -0.905 178.106     52.29 -144.36  -70.79   24.87  -15.63  175.36

DOCKED: MODEL       26
DOCKED: USER    Run = 26
DOCKED: USER    DPF = D:/Protein_go_brrr/autodock/final/mut_Y35F/2_3_BPG/dock.dpf
DOCKED: USER  
DOCKED: USER    Estimated Free Energy of Binding    =   -8.83 kcal/mol  [=(1)+(2)+(3)-(4)]
DOCKED: USER    Estimated Inhibition Constant, Ki   =  335.81 nM (nanomolar)  [Temperature = 298.15 K]
DOCKED: USER    
DOCKED: USER    (1) Final Intermolecular Energy     =  -10.62 kcal/mol
DOCKED: USER        vdW + Hbond + desolv Energy     =   -4.20 kcal/mol
DOCKED: USER        Electrostatic Energy            =   -6.42 kcal/mol
DOCKED: USER    (2) Final Total Internal Energy     =   +2.18 kcal/mol
DOCKED: USER    (3) Torsional Free Energy           =   +1.79 kcal/mol
DOCKED: USER    (4) Unbound System's Energy  [=(2)] =   +2.18 kcal/mol
DOCKED: USER    
DOCKED: USER    
DOCKED: USER    NEWDPF move 2_3_BPG_opt.pdbqt
DOCKED: USER    NEWDPF about 0.015000 0.083000 0.031000
DOCKED: USER    NEWDPF tran0 -14.257846 4.787707 11.659194
DOCKED: USER    NEWDPF quaternion0 0.174082 0.387442 -0.905158 0.016526
DOCKED: USER    NEWDPF axisangle0 0.174106 0.387495 -0.905282 178.106195
DOCKED: USER    NEWDPF quat0 0.174106 0.387495 -0.905282 178.106195
DOCKED: USER    NEWDPF dihe0 52.29 -144.36 -70.79 24.87 -15.63 175.36 
DOCKED: USER  keepresnum = 1 
DOCKED: USER  
DOCKED: REMARK  6 active torsions:
DOCKED: REMARK  status: ('A' for Active; 'I' for Inactive)
DOCKED: REMARK    1  A    between atoms: P_1  and  O_3 
DOCKED: REMARK    2  A    between atoms: P_2  and  O_4 
DOCKED: REMARK    3  A    between atoms: O_3  and  C_13 
DOCKED: REMARK    4  A    between atoms: O_4  and  C_14 
DOCKED: REMARK    5  A    between atoms: C_13  and  C_14 
DOCKED: REMARK    6  A    between atoms: C_13  and  C_15 
DOCKED: USER                              x       y       z     vdW  Elec       q    Type
DOCKED: USER                           _______ _______ _______ _____ _____    ______ ____
DOCKED: ROOT
DOCKED: ATOM      1  C   UNL d   1     -13.771   4.845  12.116 -0.21 +0.25    +0.193 C 
DOCKED: ENDROOT
DOCKED: BRANCH   1   2
DOCKED: ATOM      2  O   UNL d   1     -12.491   4.561  11.459 -0.73 -0.66    -0.356 OA
DOCKED: BRANCH   2   3
DOCKED: ATOM      3  P   UNL d   1     -11.635   3.179  11.707 -0.58 -0.02    -0.014 P 
DOCKED: ATOM      4  O   UNL d   1     -12.704   2.110  11.980 -0.16 -0.67    -0.577 OA
DOCKED: ATOM      5  O   UNL d   1     -10.747   3.410  12.928 -0.65 -0.48    -0.577 OA
DOCKED: ATOM      6  O   UNL d   1     -10.851   2.874  10.434 -0.22 -1.07    -0.638 OA
DOCKED: ENDBRANCH   2   3
DOCKED: ENDBRANCH   1   2
DOCKED: BRANCH   1   7
DOCKED: ATOM      7  C   UNL d   1     -14.881   5.003  11.013 -0.16 +0.28    +0.201 C 
DOCKED: BRANCH   7   8
DOCKED: ATOM      8  O   UNL d   1     -14.418   5.408   9.706 -0.15 -0.69    -0.364 OA
DOCKED: BRANCH   8   9
DOCKED: ATOM      9  P   UNL d   1     -15.428   5.307   8.400 -0.14 -0.02    -0.015 P 
DOCKED: ATOM     10  O   UNL d   1     -15.721   6.761   8.009 +0.02 -0.44    -0.577 OA
DOCKED: ATOM     11  O   UNL d   1     -16.688   4.577   8.866 -0.06 -0.48    -0.577 OA
DOCKED: ATOM     12  O   UNL d   1     -14.674   4.558   7.302 -0.55 -1.14    -0.638 OA
DOCKED: ENDBRANCH   8   9
DOCKED: ENDBRANCH   7   8
DOCKED: ENDBRANCH   1   7
DOCKED: BRANCH   1  13
DOCKED: ATOM     13  C   UNL d   1     -13.673   6.189  12.930 -0.10 +0.09    +0.073 C 
DOCKED: ATOM     14  O   UNL d   1     -14.256   7.230  12.463 -0.48 -0.94    -0.547 OA
DOCKED: ATOM     15  O   UNL d   1     -13.061   6.144  14.058 -0.03 -0.42    -0.547 OA
DOCKED: ENDBRANCH   1  13
DOCKED: TORSDOF 6
DOCKED: TER
DOCKED: ENDMDL
________________________________________________________________________________


	BEGINNING GENETIC ALGORITHM DOCKING 27 of 100
Run: 27 Seed: 1752197140 185173009 [ Run 27 of 100 GA/GALS ]
Beginning LAMARCKIAN GENETIC ALGORITHM (LGA), with a maximum of 25000000 energy evaluations.

Final-Value: -8.327


	FINAL GENETIC ALGORITHM DOCKED STATE
	_______________________________________________


Detailed state:  trans -13.638 5.004 11.881 quatxyzw -0.334508 0.046970 0.393925 0.854822 center 0.015 0.083 0.031 ntor 6 17.8213 -138.9197 10.1970 55.4064 3.9822 13.2726
State:	-13.638   5.004  11.881  -0.645  0.091  0.759 62.520     17.82 -138.92   10.20   55.41    3.98   13.27

DOCKED: MODEL       27
DOCKED: USER    Run = 27
DOCKED: USER    DPF = D:/Protein_go_brrr/autodock/final/mut_Y35F/2_3_BPG/dock.dpf
DOCKED: USER  
DOCKED: USER    Estimated Free Energy of Binding    =   -8.50 kcal/mol  [=(1)+(2)+(3)-(4)]
DOCKED: USER    Estimated Inhibition Constant, Ki   =  587.86 nM (nanomolar)  [Temperature = 298.15 K]
DOCKED: USER    
DOCKED: USER    (1) Final Intermolecular Energy     =  -10.29 kcal/mol
DOCKED: USER        vdW + Hbond + desolv Energy     =   -4.14 kcal/mol
DOCKED: USER        Electrostatic Energy            =   -6.15 kcal/mol
DOCKED: USER    (2) Final Total Internal Energy     =   +1.96 kcal/mol
DOCKED: USER    (3) Torsional Free Energy           =   +1.79 kcal/mol
DOCKED: USER    (4) Unbound System's Energy  [=(2)] =   +1.96 kcal/mol
DOCKED: USER    
DOCKED: USER    
DOCKED: USER    NEWDPF move 2_3_BPG_opt.pdbqt
DOCKED: USER    NEWDPF about 0.015000 0.083000 0.031000
DOCKED: USER    NEWDPF tran0 -13.637869 5.003909 11.881375
DOCKED: USER    NEWDPF quaternion0 -0.334508 0.046970 0.393925 0.854822
DOCKED: USER    NEWDPF axisangle0 -0.644622 0.090515 0.759124 62.519818
DOCKED: USER    NEWDPF quat0 -0.644622 0.090515 0.759124 62.519818
DOCKED: USER    NEWDPF dihe0 17.82 -138.92 10.20 55.41 3.98 13.27 
DOCKED: USER  keepresnum = 1 
DOCKED: USER  
DOCKED: REMARK  6 active torsions:
DOCKED: REMARK  status: ('A' for Active; 'I' for Inactive)
DOCKED: REMARK    1  A    between atoms: P_1  and  O_3 
DOCKED: REMARK    2  A    between atoms: P_2  and  O_4 
DOCKED: REMARK    3  A    between atoms: O_3  and  C_13 
DOCKED: REMARK    4  A    between atoms: O_4  and  C_14 
DOCKED: REMARK    5  A    between atoms: C_13  and  C_14 
DOCKED: REMARK    6  A    between atoms: C_13  and  C_15 
DOCKED: USER                              x       y       z     vdW  Elec       q    Type
DOCKED: USER                           _______ _______ _______ _____ _____    ______ ____
DOCKED: ROOT
DOCKED: ATOM      1  C   UNL d   1     -14.272   5.222  11.871 -0.18 +0.24    +0.193 C 
DOCKED: ENDROOT
DOCKED: BRANCH   1   2
DOCKED: ATOM      2  O   UNL d   1     -14.258   6.678  12.053 -0.36 -0.56    -0.356 OA
DOCKED: BRANCH   2   3
DOCKED: ATOM      3  P   UNL d   1     -14.019   7.403  13.509 -0.05 -0.02    -0.014 P 
DOCKED: ATOM      4  O   UNL d   1     -12.979   6.516  14.213 -0.04 -0.45    -0.577 OA
DOCKED: ATOM      5  O   UNL d   1     -15.357   7.392  14.245 +0.01 -0.31    -0.577 OA
DOCKED: ATOM      6  O   UNL d   1     -13.477   8.806  13.253 -0.33 -1.23    -0.638 OA
DOCKED: ENDBRANCH   2   3
DOCKED: ENDBRANCH   1   2
DOCKED: BRANCH   1   7
DOCKED: ATOM      7  C   UNL d   1     -12.801   4.732  11.602 -0.01 +0.35    +0.201 C 
DOCKED: BRANCH   7   8
DOCKED: ATOM      8  O   UNL d   1     -12.610   3.301  11.561 -0.58 -0.73    -0.364 OA
DOCKED: BRANCH   8   9
DOCKED: ATOM      9  P   UNL d   1     -11.085   2.670  11.461 -0.67 -0.02    -0.015 P 
DOCKED: ATOM     10  O   UNL d   1     -11.288   1.188  11.123 -0.69 -0.60    -0.577 OA
DOCKED: ATOM     11  O   UNL d   1     -10.432   2.859  12.830 -0.73 -0.49    -0.577 OA
DOCKED: ATOM     12  O   UNL d   1     -10.359   3.418  10.344 -0.27 -0.91    -0.638 OA
DOCKED: ENDBRANCH   8   9
DOCKED: ENDBRANCH   7   8
DOCKED: ENDBRANCH   1   7
DOCKED: BRANCH   1  13
DOCKED: ATOM     13  C   UNL d   1     -15.164   4.842  10.630 -0.15 +0.10    +0.073 C 
DOCKED: ATOM     14  O   UNL d   1     -14.726   5.111   9.457 -0.02 -1.07    -0.547 OA
DOCKED: ATOM     15  O   UNL d   1     -16.261   4.220  10.871 -0.07 -0.48    -0.547 OA
DOCKED: ENDBRANCH   1  13
DOCKED: TORSDOF 6
DOCKED: TER
DOCKED: ENDMDL
________________________________________________________________________________


	BEGINNING GENETIC ALGORITHM DOCKING 28 of 100
Run: 28 Seed: 1666704925 376353267 [ Run 28 of 100 GA/GALS ]
Beginning LAMARCKIAN GENETIC ALGORITHM (LGA), with a maximum of 25000000 energy evaluations.

Final-Value: -8.704


	FINAL GENETIC ALGORITHM DOCKED STATE
	_______________________________________________


Detailed state:  trans -13.786 5.020 12.460 quatxyzw -0.238375 0.199137 0.406393 0.859283 center 0.015 0.083 0.031 ntor 6 175.0466 -86.6783 -153.6531 46.5421 -17.1393 74.3262
State:	-13.786   5.020  12.460  -0.466  0.389  0.795 61.528    175.05  -86.68 -153.65   46.54  -17.14   74.33

DOCKED: MODEL       28
DOCKED: USER    Run = 28
DOCKED: USER    DPF = D:/Protein_go_brrr/autodock/final/mut_Y35F/2_3_BPG/dock.dpf
DOCKED: USER  
DOCKED: USER    Estimated Free Energy of Binding    =   -8.98 kcal/mol  [=(1)+(2)+(3)-(4)]
DOCKED: USER    Estimated Inhibition Constant, Ki   =  263.14 nM (nanomolar)  [Temperature = 298.15 K]
DOCKED: USER    
DOCKED: USER    (1) Final Intermolecular Energy     =  -10.77 kcal/mol
DOCKED: USER        vdW + Hbond + desolv Energy     =   -4.22 kcal/mol
DOCKED: USER        Electrostatic Energy            =   -6.55 kcal/mol
DOCKED: USER    (2) Final Total Internal Energy     =   +2.06 kcal/mol
DOCKED: USER    (3) Torsional Free Energy           =   +1.79 kcal/mol
DOCKED: USER    (4) Unbound System's Energy  [=(2)] =   +2.06 kcal/mol
DOCKED: USER    
DOCKED: USER    
DOCKED: USER    NEWDPF move 2_3_BPG_opt.pdbqt
DOCKED: USER    NEWDPF about 0.015000 0.083000 0.031000
DOCKED: USER    NEWDPF tran0 -13.786405 5.019800 12.460273
DOCKED: USER    NEWDPF quaternion0 -0.238375 0.199137 0.406393 0.859283
DOCKED: USER    NEWDPF axisangle0 -0.466030 0.389319 0.794510 61.527665
DOCKED: USER    NEWDPF quat0 -0.466030 0.389319 0.794510 61.527665
DOCKED: USER    NEWDPF dihe0 175.05 -86.68 -153.65 46.54 -17.14 74.33 
DOCKED: USER  keepresnum = 1 
DOCKED: USER  
DOCKED: REMARK  6 active torsions:
DOCKED: REMARK  status: ('A' for Active; 'I' for Inactive)
DOCKED: REMARK    1  A    between atoms: P_1  and  O_3 
DOCKED: REMARK    2  A    between atoms: P_2  and  O_4 
DOCKED: REMARK    3  A    between atoms: O_3  and  C_13 
DOCKED: REMARK    4  A    between atoms: O_4  and  C_14 
DOCKED: REMARK    5  A    between atoms: C_13  and  C_14 
DOCKED: REMARK    6  A    between atoms: C_13  and  C_15 
DOCKED: USER                              x       y       z     vdW  Elec       q    Type
DOCKED: USER                           _______ _______ _______ _____ _____    ______ ____
DOCKED: ROOT
DOCKED: ATOM      1  C   UNL d   1     -14.370   5.288  12.270 -0.17 +0.21    +0.193 C 
DOCKED: ENDROOT
DOCKED: BRANCH   1   2
DOCKED: ATOM      2  O   UNL d   1     -14.164   6.724  12.051 -0.33 -0.59    -0.356 OA
DOCKED: BRANCH   2   3
DOCKED: ATOM      3  P   UNL d   1     -14.255   7.843  13.253 +0.09 -0.02    -0.014 P 
DOCKED: ATOM      4  O   UNL d   1     -12.826   7.922  13.812 -0.23 -0.75    -0.577 OA
DOCKED: ATOM      5  O   UNL d   1     -15.237   7.309  14.294 +0.01 -0.31    -0.577 OA
DOCKED: ATOM      6  O   UNL d   1     -14.687   9.167  12.633 -0.35 -0.93    -0.638 OA
DOCKED: ENDBRANCH   2   3
DOCKED: ENDBRANCH   1   2
DOCKED: BRANCH   1   7
DOCKED: ATOM      7  C   UNL d   1     -12.967   4.595  12.430 -0.23 +0.24    +0.201 C 
DOCKED: BRANCH   7   8
DOCKED: ATOM      8  O   UNL d   1     -12.713   3.476  11.553 -0.62 -0.74    -0.364 OA
DOCKED: BRANCH   8   9
DOCKED: ATOM      9  P   UNL d   1     -11.176   2.891  11.378 -0.64 -0.02    -0.015 P 
DOCKED: ATOM     10  O   UNL d   1     -10.476   3.203  12.706 -0.72 -0.54    -0.577 OA
DOCKED: ATOM     11  O   UNL d   1     -10.543   3.646  10.209 -0.25 -0.91    -0.577 OA
DOCKED: ATOM     12  O   UNL d   1     -11.290   1.388  11.128 -0.55 -0.71    -0.638 OA
DOCKED: ENDBRANCH   8   9
DOCKED: ENDBRANCH   7   8
DOCKED: ENDBRANCH   1   7
DOCKED: BRANCH   1  13
DOCKED: ATOM     13  C   UNL d   1     -15.108   4.654  11.032 -0.16 +0.10    +0.073 C 
DOCKED: ATOM     14  O   UNL d   1     -16.126   3.906  11.244 -0.02 -0.48    -0.547 OA
DOCKED: ATOM     15  O   UNL d   1     -14.676   4.980   9.867 -0.03 -1.08    -0.547 OA
DOCKED: ENDBRANCH   1  13
DOCKED: TORSDOF 6
DOCKED: TER
DOCKED: ENDMDL
________________________________________________________________________________


	BEGINNING GENETIC ALGORITHM DOCKING 29 of 100
Run: 29 Seed: 1620078692 642666152 [ Run 29 of 100 GA/GALS ]
Beginning LAMARCKIAN GENETIC ALGORITHM (LGA), with a maximum of 25000000 energy evaluations.

Final-Value: -8.333


	FINAL GENETIC ALGORITHM DOCKED STATE
	_______________________________________________


Detailed state:  trans -14.384 5.858 7.881 quatxyzw -0.653941 -0.071067 0.721644 0.215733 center 0.015 0.083 0.031 ntor 6 -30.9310 -29.2943 -82.3536 11.3292 -21.3377 -155.0817
State:	-14.384   5.858   7.881  -0.670 -0.073  0.739 155.083    -30.93  -29.29  -82.35   11.33  -21.34 -155.08

DOCKED: MODEL       29
DOCKED: USER    Run = 29
DOCKED: USER    DPF = D:/Protein_go_brrr/autodock/final/mut_Y35F/2_3_BPG/dock.dpf
DOCKED: USER  
DOCKED: USER    Estimated Free Energy of Binding    =   -8.64 kcal/mol  [=(1)+(2)+(3)-(4)]
DOCKED: USER    Estimated Inhibition Constant, Ki   =  461.78 nM (nanomolar)  [Temperature = 298.15 K]
DOCKED: USER    
DOCKED: USER    (1) Final Intermolecular Energy     =  -10.43 kcal/mol
DOCKED: USER        vdW + Hbond + desolv Energy     =   -3.37 kcal/mol
DOCKED: USER        Electrostatic Energy            =   -7.06 kcal/mol
DOCKED: USER    (2) Final Total Internal Energy     =   +2.10 kcal/mol
DOCKED: USER    (3) Torsional Free Energy           =   +1.79 kcal/mol
DOCKED: USER    (4) Unbound System's Energy  [=(2)] =   +2.10 kcal/mol
DOCKED: USER    
DOCKED: USER    
DOCKED: USER    NEWDPF move 2_3_BPG_opt.pdbqt
DOCKED: USER    NEWDPF about 0.015000 0.083000 0.031000
DOCKED: USER    NEWDPF tran0 -14.383865 5.857973 7.881140
DOCKED: USER    NEWDPF quaternion0 -0.653941 -0.071067 0.721644 0.215733
DOCKED: USER    NEWDPF axisangle0 -0.669711 -0.072781 0.739047 155.082937
DOCKED: USER    NEWDPF quat0 -0.669711 -0.072781 0.739047 155.082937
DOCKED: USER    NEWDPF dihe0 -30.93 -29.29 -82.35 11.33 -21.34 -155.08 
DOCKED: USER  keepresnum = 1 
DOCKED: USER  
DOCKED: REMARK  6 active torsions:
DOCKED: REMARK  status: ('A' for Active; 'I' for Inactive)
DOCKED: REMARK    1  A    between atoms: P_1  and  O_3 
DOCKED: REMARK    2  A    between atoms: P_2  and  O_4 
DOCKED: REMARK    3  A    between atoms: O_3  and  C_13 
DOCKED: REMARK    4  A    between atoms: O_4  and  C_14 
DOCKED: REMARK    5  A    between atoms: C_13  and  C_14 
DOCKED: REMARK    6  A    between atoms: C_13  and  C_15 
DOCKED: USER                              x       y       z     vdW  Elec       q    Type
DOCKED: USER                           _______ _______ _______ _____ _____    ______ ____
DOCKED: ROOT
DOCKED: ATOM      1  C   UNL d   1     -14.565   6.230   8.409 -0.12 +0.25    +0.193 C 
DOCKED: ENDROOT
DOCKED: BRANCH   1   2
DOCKED: ATOM      2  O   UNL d   1     -13.601   5.991   9.489 -0.04 -0.71    -0.356 OA
DOCKED: BRANCH   2   3
DOCKED: ATOM      3  P   UNL d   1     -14.026   5.408  10.966 -0.20 -0.02    -0.014 P 
DOCKED: ATOM      4  O   UNL d   1     -12.825   4.556  11.403 -0.63 -1.14    -0.577 OA
DOCKED: ATOM      5  O   UNL d   1     -15.279   4.557  10.773 -0.10 -0.79    -0.577 OA
DOCKED: ATOM      6  O   UNL d   1     -14.237   6.597  11.899 -0.22 -1.02    -0.638 OA
DOCKED: ENDBRANCH   2   3
DOCKED: ENDBRANCH   1   2
DOCKED: BRANCH   1   7
DOCKED: ATOM      7  C   UNL d   1     -14.002   5.601   7.081 -0.13 +0.25    +0.201 C 
DOCKED: BRANCH   7   8
DOCKED: ATOM      8  O   UNL d   1     -12.765   4.865   7.207 -0.14 -0.69    -0.364 OA
DOCKED: BRANCH   8   9
DOCKED: ATOM      9  P   UNL d   1     -12.311   3.798   6.027 -0.50 -0.02    -0.015 P 
DOCKED: ATOM     10  O   UNL d   1     -11.283   4.557   5.178 -0.38 -0.50    -0.577 OA
DOCKED: ATOM     11  O   UNL d   1     -13.568   3.454   5.229 -0.07 -0.38    -0.577 OA
DOCKED: ATOM     12  O   UNL d   1     -11.696   2.587   6.726 -0.38 -1.04    -0.638 OA
DOCKED: ENDBRANCH   8   9
DOCKED: ENDBRANCH   7   8
DOCKED: ENDBRANCH   1   7
DOCKED: BRANCH   1  13
DOCKED: ATOM     13  C   UNL d   1     -14.759   7.777   8.191 -0.08 +0.07    +0.073 C 
DOCKED: ATOM     14  O   UNL d   1     -13.830   8.570   8.578 -0.41 -1.01    -0.547 OA
DOCKED: ATOM     15  O   UNL d   1     -15.822   8.150   7.575 +0.02 -0.31    -0.547 OA
DOCKED: ENDBRANCH   1  13
DOCKED: TORSDOF 6
DOCKED: TER
DOCKED: ENDMDL
________________________________________________________________________________


	BEGINNING GENETIC ALGORITHM DOCKING 30 of 100
Run: 30 Seed: 833124585 72079053 [ Run 30 of 100 GA/GALS ]
Beginning LAMARCKIAN GENETIC ALGORITHM (LGA), with a maximum of 25000000 energy evaluations.

Final-Value: -8.283


	FINAL GENETIC ALGORITHM DOCKED STATE
	_______________________________________________


Detailed state:  trans -14.294 5.009 11.273 quatxyzw 0.928511 -0.042776 0.294593 0.221931 center 0.015 0.083 0.031 ntor 6 128.6799 96.8542 -179.7836 20.5675 34.4321 -23.3028
State:	-14.294   5.009  11.273   0.952 -0.044  0.302 154.355    128.68   96.85 -179.78   20.57   34.43  -23.30

DOCKED: MODEL       30
DOCKED: USER    Run = 30
DOCKED: USER    DPF = D:/Protein_go_brrr/autodock/final/mut_Y35F/2_3_BPG/dock.dpf
DOCKED: USER  
DOCKED: USER    Estimated Free Energy of Binding    =   -8.59 kcal/mol  [=(1)+(2)+(3)-(4)]
DOCKED: USER    Estimated Inhibition Constant, Ki   =  501.60 nM (nanomolar)  [Temperature = 298.15 K]
DOCKED: USER    
DOCKED: USER    (1) Final Intermolecular Energy     =  -10.38 kcal/mol
DOCKED: USER        vdW + Hbond + desolv Energy     =   -4.15 kcal/mol
DOCKED: USER        Electrostatic Energy            =   -6.23 kcal/mol
DOCKED: USER    (2) Final Total Internal Energy     =   +2.10 kcal/mol
DOCKED: USER    (3) Torsional Free Energy           =   +1.79 kcal/mol
DOCKED: USER    (4) Unbound System's Energy  [=(2)] =   +2.10 kcal/mol
DOCKED: USER    
DOCKED: USER    
DOCKED: USER    NEWDPF move 2_3_BPG_opt.pdbqt
DOCKED: USER    NEWDPF about 0.015000 0.083000 0.031000
DOCKED: USER    NEWDPF tran0 -14.293986 5.008818 11.273192
DOCKED: USER    NEWDPF quaternion0 0.928511 -0.042776 0.294593 0.221931
DOCKED: USER    NEWDPF axisangle0 0.952258 -0.043870 0.302127 154.355043
DOCKED: USER    NEWDPF quat0 0.952258 -0.043870 0.302127 154.355043
DOCKED: USER    NEWDPF dihe0 128.68 96.85 -179.78 20.57 34.43 -23.30 
DOCKED: USER  keepresnum = 1 
DOCKED: USER  
DOCKED: REMARK  6 active torsions:
DOCKED: REMARK  status: ('A' for Active; 'I' for Inactive)
DOCKED: REMARK    1  A    between atoms: P_1  and  O_3 
DOCKED: REMARK    2  A    between atoms: P_2  and  O_4 
DOCKED: REMARK    3  A    between atoms: O_3  and  C_13 
DOCKED: REMARK    4  A    between atoms: O_4  and  C_14 
DOCKED: REMARK    5  A    between atoms: C_13  and  C_14 
DOCKED: REMARK    6  A    between atoms: C_13  and  C_15 
DOCKED: USER                              x       y       z     vdW  Elec       q    Type
DOCKED: USER                           _______ _______ _______ _____ _____    ______ ____
DOCKED: ROOT
DOCKED: ATOM      1  C   UNL d   1     -14.739   5.448  11.032 -0.17 +0.27    +0.193 C 
DOCKED: ENDROOT
DOCKED: BRANCH   1   2
DOCKED: ATOM      2  O   UNL d   1     -15.926   4.704  10.597 -0.11 -0.37    -0.356 OA
DOCKED: BRANCH   2   3
DOCKED: ATOM      3  P   UNL d   1     -16.372   4.557   9.021 -0.24 -0.01    -0.014 P 
DOCKED: ATOM      4  O   UNL d   1     -17.236   5.798   8.750 +0.02 -0.31    -0.577 OA
DOCKED: ATOM      5  O   UNL d   1     -17.185   3.269   8.898 -0.33 -0.42    -0.577 OA
DOCKED: ATOM      6  O   UNL d   1     -15.106   4.560   8.171 -0.38 -1.28    -0.638 OA
DOCKED: ENDBRANCH   2   3
DOCKED: ENDBRANCH   1   2
DOCKED: BRANCH   1   7
DOCKED: ATOM      7  C   UNL d   1     -13.813   4.482  11.859 -0.16 +0.29    +0.201 C 
DOCKED: BRANCH   7   8
DOCKED: ATOM      8  O   UNL d   1     -12.401   4.555  11.562 -0.71 -0.64    -0.364 OA
DOCKED: BRANCH   8   9
DOCKED: ATOM      9  P   UNL d   1     -11.482   3.180  11.558 -0.59 -0.02    -0.015 P 
DOCKED: ATOM     10  O   UNL d   1     -12.467   2.041  11.847 -0.12 -0.70    -0.577 OA
DOCKED: ATOM     11  O   UNL d   1     -10.445   3.334  12.670 -0.68 -0.57    -0.577 OA
DOCKED: ATOM     12  O   UNL d   1     -10.856   3.058  10.169 -0.13 -1.16    -0.638 OA
DOCKED: ENDBRANCH   8   9
DOCKED: ENDBRANCH   7   8
DOCKED: ENDBRANCH   1   7
DOCKED: BRANCH   1  13
DOCKED: ATOM     13  C   UNL d   1     -15.165   6.651  11.955 -0.12 +0.08    +0.073 C 
DOCKED: ATOM     14  O   UNL d   1     -14.254   7.439  12.390 -0.46 -1.05    -0.547 OA
DOCKED: ATOM     15  O   UNL d   1     -16.422   6.807  12.165 +0.01 -0.34    -0.547 OA
DOCKED: ENDBRANCH   1  13
DOCKED: TORSDOF 6
DOCKED: TER
DOCKED: ENDMDL
________________________________________________________________________________


	BEGINNING GENETIC ALGORITHM DOCKING 31 of 100
Run: 31 Seed: 36785919 567836794 [ Run 31 of 100 GA/GALS ]
Beginning LAMARCKIAN GENETIC ALGORITHM (LGA), with a maximum of 25000000 energy evaluations.

Final-Value: -8.494


	FINAL GENETIC ALGORITHM DOCKED STATE
	_______________________________________________


Detailed state:  trans -13.932 5.103 11.870 quatxyzw 0.354914 0.421639 -0.833991 -0.026739 center 0.015 0.083 0.031 ntor 6 -141.1262 174.4445 10.2718 60.2919 -1.0724 -164.2927
State:	-13.932   5.103  11.870   0.355  0.422 -0.834 -176.936   -141.13  174.44   10.27   60.29   -1.07 -164.29

DOCKED: MODEL       31
DOCKED: USER    Run = 31
DOCKED: USER    DPF = D:/Protein_go_brrr/autodock/final/mut_Y35F/2_3_BPG/dock.dpf
DOCKED: USER  
DOCKED: USER    Estimated Free Energy of Binding    =   -9.16 kcal/mol  [=(1)+(2)+(3)-(4)]
DOCKED: USER    Estimated Inhibition Constant, Ki   =  193.98 nM (nanomolar)  [Temperature = 298.15 K]
DOCKED: USER    
DOCKED: USER    (1) Final Intermolecular Energy     =  -10.95 kcal/mol
DOCKED: USER        vdW + Hbond + desolv Energy     =   -3.64 kcal/mol
DOCKED: USER        Electrostatic Energy            =   -7.31 kcal/mol
DOCKED: USER    (2) Final Total Internal Energy     =   +2.45 kcal/mol
DOCKED: USER    (3) Torsional Free Energy           =   +1.79 kcal/mol
DOCKED: USER    (4) Unbound System's Energy  [=(2)] =   +2.45 kcal/mol
DOCKED: USER    
DOCKED: USER    
DOCKED: USER    NEWDPF move 2_3_BPG_opt.pdbqt
DOCKED: USER    NEWDPF about 0.015000 0.083000 0.031000
DOCKED: USER    NEWDPF tran0 -13.931692 5.103342 11.870240
DOCKED: USER    NEWDPF quaternion0 0.354914 0.421639 -0.833991 -0.026739
DOCKED: USER    NEWDPF axisangle0 0.355041 0.421789 -0.834290 -176.935600
DOCKED: USER    NEWDPF quat0 0.355041 0.421789 -0.834290 -176.935600
DOCKED: USER    NEWDPF dihe0 -141.13 174.44 10.27 60.29 -1.07 -164.29 
DOCKED: USER  keepresnum = 1 
DOCKED: USER  
DOCKED: REMARK  6 active torsions:
DOCKED: REMARK  status: ('A' for Active; 'I' for Inactive)
DOCKED: REMARK    1  A    between atoms: P_1  and  O_3 
DOCKED: REMARK    2  A    between atoms: P_2  and  O_4 
DOCKED: REMARK    3  A    between atoms: O_3  and  C_13 
DOCKED: REMARK    4  A    between atoms: O_4  and  C_14 
DOCKED: REMARK    5  A    between atoms: C_13  and  C_14 
DOCKED: REMARK    6  A    between atoms: C_13  and  C_15 
DOCKED: USER                              x       y       z     vdW  Elec       q    Type
DOCKED: USER                           _______ _______ _______ _____ _____    ______ ____
DOCKED: ROOT
DOCKED: ATOM      1  C   UNL d   1     -13.654   5.088  12.480 -0.19 +0.22    +0.193 C 
DOCKED: ENDROOT
DOCKED: BRANCH   1   2
DOCKED: ATOM      2  O   UNL d   1     -12.230   4.771  12.327 -0.16 -0.45    -0.356 OA
DOCKED: BRANCH   2   3
DOCKED: ATOM      3  P   UNL d   1     -11.676   3.282  11.904 -0.65 -0.02    -0.014 P 
DOCKED: ATOM      4  O   UNL d   1     -12.915   2.377  11.980 -0.21 -0.75    -0.577 OA
DOCKED: ATOM      5  O   UNL d   1     -10.623   2.881  12.935 -0.70 -0.45    -0.577 OA
DOCKED: ATOM      6  O   UNL d   1     -11.132   3.368  10.482 -0.08 -1.25    -0.638 OA
DOCKED: ENDBRANCH   2   3
DOCKED: ENDBRANCH   1   2
DOCKED: BRANCH   1   7
DOCKED: ATOM      7  C   UNL d   1     -14.254   5.415  11.063 -0.17 +0.32    +0.201 C 
DOCKED: BRANCH   7   8
DOCKED: ATOM      8  O   UNL d   1     -13.309   5.448   9.971 -0.15 -0.84    -0.364 OA
DOCKED: BRANCH   8   9
DOCKED: ATOM      9  P   UNL d   1     -13.819   5.830   8.444 -0.15 -0.03    -0.015 P 
DOCKED: ATOM     10  O   UNL d   1     -12.647   5.457   7.528 -0.04 -0.94    -0.577 OA
DOCKED: ATOM     11  O   UNL d   1     -14.099   7.332   8.431 -0.08 -0.79    -0.577 OA
DOCKED: ATOM     12  O   UNL d   1     -15.061   4.987   8.159 -0.41 -1.06    -0.638 OA
DOCKED: ENDBRANCH   8   9
DOCKED: ENDBRANCH   7   8
DOCKED: ENDBRANCH   1   7
DOCKED: BRANCH   1  13
DOCKED: ATOM     13  C   UNL d   1     -13.831   6.349  13.406 -0.14 +0.07    +0.073 C 
DOCKED: ATOM     14  O   UNL d   1     -13.901   6.172  14.673 +0.01 -0.29    -0.547 OA
DOCKED: ATOM     15  O   UNL d   1     -13.830   7.497  12.832 -0.52 -1.04    -0.547 OA
DOCKED: ENDBRANCH   1  13
DOCKED: TORSDOF 6
DOCKED: TER
DOCKED: ENDMDL
________________________________________________________________________________


	BEGINNING GENETIC ALGORITHM DOCKING 32 of 100
Run: 32 Seed: 1351234929 1830707269 [ Run 32 of 100 GA/GALS ]
Beginning LAMARCKIAN GENETIC ALGORITHM (LGA), with a maximum of 25000000 energy evaluations.

Final-Value: -8.062


	FINAL GENETIC ALGORITHM DOCKED STATE
	_______________________________________________


Detailed state:  trans -13.826 6.375 8.360 quatxyzw -0.421189 -0.001914 -0.891470 -0.166964 center 0.015 0.083 0.031 ntor 6 175.1598 146.1536 -38.2728 91.1300 82.2656 11.1442
State:	-13.826   6.375   8.360  -0.427 -0.002 -0.904 -160.777    175.16  146.15  -38.27   91.13   82.27   11.14

DOCKED: MODEL       32
DOCKED: USER    Run = 32
DOCKED: USER    DPF = D:/Protein_go_brrr/autodock/final/mut_Y35F/2_3_BPG/dock.dpf
DOCKED: USER  
DOCKED: USER    Estimated Free Energy of Binding    =   -8.57 kcal/mol  [=(1)+(2)+(3)-(4)]
DOCKED: USER    Estimated Inhibition Constant, Ki   =  521.30 nM (nanomolar)  [Temperature = 298.15 K]
DOCKED: USER    
DOCKED: USER    (1) Final Intermolecular Energy     =  -10.36 kcal/mol
DOCKED: USER        vdW + Hbond + desolv Energy     =   -3.14 kcal/mol
DOCKED: USER        Electrostatic Energy            =   -7.22 kcal/mol
DOCKED: USER    (2) Final Total Internal Energy     =   +2.30 kcal/mol
DOCKED: USER    (3) Torsional Free Energy           =   +1.79 kcal/mol
DOCKED: USER    (4) Unbound System's Energy  [=(2)] =   +2.30 kcal/mol
DOCKED: USER    
DOCKED: USER    
DOCKED: USER    NEWDPF move 2_3_BPG_opt.pdbqt
DOCKED: USER    NEWDPF about 0.015000 0.083000 0.031000
DOCKED: USER    NEWDPF tran0 -13.826256 6.375128 8.359878
DOCKED: USER    NEWDPF quaternion0 -0.421189 -0.001914 -0.891470 -0.166964
DOCKED: USER    NEWDPF axisangle0 -0.427185 -0.001941 -0.904162 -160.777271
DOCKED: USER    NEWDPF quat0 -0.427185 -0.001941 -0.904162 -160.777271
DOCKED: USER    NEWDPF dihe0 175.16 146.15 -38.27 91.13 82.27 11.14 
DOCKED: USER  keepresnum = 1 
DOCKED: USER  
DOCKED: REMARK  6 active torsions:
DOCKED: REMARK  status: ('A' for Active; 'I' for Inactive)
DOCKED: REMARK    1  A    between atoms: P_1  and  O_3 
DOCKED: REMARK    2  A    between atoms: P_2  and  O_4 
DOCKED: REMARK    3  A    between atoms: O_3  and  C_13 
DOCKED: REMARK    4  A    between atoms: O_4  and  C_14 
DOCKED: REMARK    5  A    between atoms: C_13  and  C_14 
DOCKED: REMARK    6  A    between atoms: C_13  and  C_15 
DOCKED: USER                              x       y       z     vdW  Elec       q    Type
DOCKED: USER                           _______ _______ _______ _____ _____    ______ ____
DOCKED: ROOT
DOCKED: ATOM      1  C   UNL d   1     -13.504   6.857   8.022 -0.10 +0.26    +0.193 C 
DOCKED: ENDROOT
DOCKED: BRANCH   1   2
DOCKED: ATOM      2  O   UNL d   1     -13.129   6.321   6.709 -0.10 -0.34    -0.356 OA
DOCKED: BRANCH   2   3
DOCKED: ATOM      3  P   UNL d   1     -12.546   4.800   6.487 -0.39 -0.02    -0.014 P 
DOCKED: ATOM      4  O   UNL d   1     -11.644   4.554   7.707 -0.20 -1.17    -0.577 OA
DOCKED: ATOM      5  O   UNL d   1     -11.744   4.808   5.187 -0.43 -0.54    -0.577 OA
DOCKED: ATOM      6  O   UNL d   1     -13.730   3.840   6.464 -0.12 -0.97    -0.638 OA
DOCKED: ENDBRANCH   2   3
DOCKED: ENDBRANCH   1   2
DOCKED: BRANCH   1   7
DOCKED: ATOM      7  C   UNL d   1     -14.504   5.854   8.709 -0.13 +0.31    +0.201 C 
DOCKED: BRANCH   7   8
DOCKED: ATOM      8  O   UNL d   1     -14.811   6.122  10.095 -0.10 -0.52    -0.364 OA
DOCKED: BRANCH   8   9
DOCKED: ATOM      9  P   UNL d   1     -13.962   5.363  11.295 -0.23 -0.02    -0.015 P 
DOCKED: ATOM     10  O   UNL d   1     -13.829   6.407  12.411 -0.22 -0.86    -0.577 OA
DOCKED: ATOM     11  O   UNL d   1     -12.604   4.981  10.706 -0.34 -1.34    -0.577 OA
DOCKED: ATOM     12  O   UNL d   1     -14.785   4.153  11.735 -0.16 -0.79    -0.638 OA
DOCKED: ENDBRANCH   8   9
DOCKED: ENDBRANCH   7   8
DOCKED: ENDBRANCH   1   7
DOCKED: BRANCH   1  13
DOCKED: ATOM     13  C   UNL d   1     -14.222   8.248   7.853 -0.08 +0.08    +0.073 C 
DOCKED: ATOM     14  O   UNL d   1     -13.830   9.230   8.576 -0.56 -0.98    -0.547 OA
DOCKED: ATOM     15  O   UNL d   1     -15.125   8.331   6.945 +0.02 -0.30    -0.547 OA
DOCKED: ENDBRANCH   1  13
DOCKED: TORSDOF 6
DOCKED: TER
DOCKED: ENDMDL
________________________________________________________________________________


	BEGINNING GENETIC ALGORITHM DOCKING 33 of 100
Run: 33 Seed: 1714994902 193011652 [ Run 33 of 100 GA/GALS ]
Beginning LAMARCKIAN GENETIC ALGORITHM (LGA), with a maximum of 25000000 energy evaluations.

Final-Value: -8.420


	FINAL GENETIC ALGORITHM DOCKED STATE
	_______________________________________________


Detailed state:  trans -13.912 4.921 12.557 quatxyzw 0.267390 -0.275724 -0.489933 -0.782588 center 0.015 0.083 0.031 ntor 6 -18.8542 -43.0051 1.4553 25.9421 11.8242 128.3468
State:	-13.912   4.921  12.557   0.430 -0.443 -0.787 -77.004    -18.85  -43.01    1.46   25.94   11.82  128.35

DOCKED: MODEL       33
DOCKED: USER    Run = 33
DOCKED: USER    DPF = D:/Protein_go_brrr/autodock/final/mut_Y35F/2_3_BPG/dock.dpf
DOCKED: USER  
DOCKED: USER    Estimated Free Energy of Binding    =   -8.69 kcal/mol  [=(1)+(2)+(3)-(4)]
DOCKED: USER    Estimated Inhibition Constant, Ki   =  424.23 nM (nanomolar)  [Temperature = 298.15 K]
DOCKED: USER    
DOCKED: USER    (1) Final Intermolecular Energy     =  -10.48 kcal/mol
DOCKED: USER        vdW + Hbond + desolv Energy     =   -4.18 kcal/mol
DOCKED: USER        Electrostatic Energy            =   -6.31 kcal/mol
DOCKED: USER    (2) Final Total Internal Energy     =   +2.06 kcal/mol
DOCKED: USER    (3) Torsional Free Energy           =   +1.79 kcal/mol
DOCKED: USER    (4) Unbound System's Energy  [=(2)] =   +2.06 kcal/mol
DOCKED: USER    
DOCKED: USER    
DOCKED: USER    NEWDPF move 2_3_BPG_opt.pdbqt
DOCKED: USER    NEWDPF about 0.015000 0.083000 0.031000
DOCKED: USER    NEWDPF tran0 -13.911530 4.921125 12.557479
DOCKED: USER    NEWDPF quaternion0 0.267390 -0.275724 -0.489933 -0.782588
DOCKED: USER    NEWDPF axisangle0 0.429515 -0.442902 -0.786991 -77.003710
DOCKED: USER    NEWDPF quat0 0.429515 -0.442902 -0.786991 -77.003710
DOCKED: USER    NEWDPF dihe0 -18.85 -43.01 1.46 25.94 11.82 128.35 
DOCKED: USER  keepresnum = 1 
DOCKED: USER  
DOCKED: REMARK  6 active torsions:
DOCKED: REMARK  status: ('A' for Active; 'I' for Inactive)
DOCKED: REMARK    1  A    between atoms: P_1  and  O_3 
DOCKED: REMARK    2  A    between atoms: P_2  and  O_4 
DOCKED: REMARK    3  A    between atoms: O_3  and  C_13 
DOCKED: REMARK    4  A    between atoms: O_4  and  C_14 
DOCKED: REMARK    5  A    between atoms: C_13  and  C_14 
DOCKED: REMARK    6  A    between atoms: C_13  and  C_15 
DOCKED: USER                              x       y       z     vdW  Elec       q    Type
DOCKED: USER                           _______ _______ _______ _____ _____    ______ ____
DOCKED: ROOT
DOCKED: ATOM      1  C   UNL d   1     -14.385   5.325  12.309 -0.16 +0.21    +0.193 C 
DOCKED: ENDROOT
DOCKED: BRANCH   1   2
DOCKED: ATOM      2  O   UNL d   1     -13.831   6.682  12.227 -0.32 -0.62    -0.356 OA
DOCKED: BRANCH   2   3
DOCKED: ATOM      3  P   UNL d   1     -14.256   7.894  13.254 +0.11 -0.02    -0.014 P 
DOCKED: ATOM      4  O   UNL d   1     -12.919   8.518  13.684 -0.31 -0.86    -0.577 OA
DOCKED: ATOM      5  O   UNL d   1     -14.982   7.253  14.435 +0.00 -0.31    -0.577 OA
DOCKED: ATOM      6  O   UNL d   1     -15.115   8.888  12.479 -0.34 -0.79    -0.638 OA
DOCKED: ENDBRANCH   2   3
DOCKED: ENDBRANCH   1   2
DOCKED: BRANCH   1   7
DOCKED: ATOM      7  C   UNL d   1     -13.214   4.319  12.609 -0.24 +0.22    +0.201 C 
DOCKED: BRANCH   7   8
DOCKED: ATOM      8  O   UNL d   1     -12.301   4.069  11.518 -0.71 -0.68    -0.364 OA
DOCKED: BRANCH   8   9
DOCKED: ATOM      9  P   UNL d   1     -11.267   2.779  11.579 -0.74 -0.02    -0.015 P 
DOCKED: ATOM     10  O   UNL d   1     -10.410   2.895  10.313 -0.32 -0.82    -0.577 OA
DOCKED: ATOM     11  O   UNL d   1     -12.129   1.517  11.571 -0.15 -0.64    -0.577 OA
DOCKED: ATOM     12  O   UNL d   1     -10.435   2.928  12.852 -0.67 -0.54    -0.638 OA
DOCKED: ENDBRANCH   8   9
DOCKED: ENDBRANCH   7   8
DOCKED: ENDBRANCH   1   7
DOCKED: BRANCH   1  13
DOCKED: ATOM     13  C   UNL d   1     -15.050   4.931  10.938 -0.19 +0.10    +0.073 C 
DOCKED: ATOM     14  O   UNL d   1     -14.518   5.360   9.854 -0.08 -1.01    -0.547 OA
DOCKED: ATOM     15  O   UNL d   1     -16.060   4.140  10.986 -0.07 -0.52    -0.547 OA
DOCKED: ENDBRANCH   1  13
DOCKED: TORSDOF 6
DOCKED: TER
DOCKED: ENDMDL
________________________________________________________________________________


	BEGINNING GENETIC ALGORITHM DOCKING 34 of 100
Run: 34 Seed: 681825861 1685641623 [ Run 34 of 100 GA/GALS ]
Beginning LAMARCKIAN GENETIC ALGORITHM (LGA), with a maximum of 25000000 energy evaluations.

Final-Value: -8.230


	FINAL GENETIC ALGORITHM DOCKED STATE
	_______________________________________________


Detailed state:  trans -14.601 5.954 8.791 quatxyzw -0.948936 -0.052666 0.294704 0.099483 center 0.015 0.083 0.031 ntor 6 74.4825 2.1923 152.7825 -174.7066 -23.8982 -48.7024
State:	-14.601   5.954   8.791  -0.954 -0.053  0.296 168.581     74.48    2.19  152.78 -174.71  -23.90  -48.70

DOCKED: MODEL       34
DOCKED: USER    Run = 34
DOCKED: USER    DPF = D:/Protein_go_brrr/autodock/final/mut_Y35F/2_3_BPG/dock.dpf
DOCKED: USER  
DOCKED: USER    Estimated Free Energy of Binding    =   -8.81 kcal/mol  [=(1)+(2)+(3)-(4)]
DOCKED: USER    Estimated Inhibition Constant, Ki   =  348.48 nM (nanomolar)  [Temperature = 298.15 K]
DOCKED: USER    
DOCKED: USER    (1) Final Intermolecular Energy     =  -10.60 kcal/mol
DOCKED: USER        vdW + Hbond + desolv Energy     =   -3.57 kcal/mol
DOCKED: USER        Electrostatic Energy            =   -7.03 kcal/mol
DOCKED: USER    (2) Final Total Internal Energy     =   +2.37 kcal/mol
DOCKED: USER    (3) Torsional Free Energy           =   +1.79 kcal/mol
DOCKED: USER    (4) Unbound System's Energy  [=(2)] =   +2.37 kcal/mol
DOCKED: USER    
DOCKED: USER    
DOCKED: USER    NEWDPF move 2_3_BPG_opt.pdbqt
DOCKED: USER    NEWDPF about 0.015000 0.083000 0.031000
DOCKED: USER    NEWDPF tran0 -14.601224 5.954478 8.790995
DOCKED: USER    NEWDPF quaternion0 -0.948936 -0.052666 0.294704 0.099483
DOCKED: USER    NEWDPF axisangle0 -0.953667 -0.052928 0.296174 168.581175
DOCKED: USER    NEWDPF quat0 -0.953667 -0.052928 0.296174 168.581175
DOCKED: USER    NEWDPF dihe0 74.48 2.19 152.78 -174.71 -23.90 -48.70 
DOCKED: USER  keepresnum = 1 
DOCKED: USER  
DOCKED: REMARK  6 active torsions:
DOCKED: REMARK  status: ('A' for Active; 'I' for Inactive)
DOCKED: REMARK    1  A    between atoms: P_1  and  O_3 
DOCKED: REMARK    2  A    between atoms: P_2  and  O_4 
DOCKED: REMARK    3  A    between atoms: O_3  and  C_13 
DOCKED: REMARK    4  A    between atoms: O_4  and  C_14 
DOCKED: REMARK    5  A    between atoms: C_13  and  C_14 
DOCKED: REMARK    6  A    between atoms: C_13  and  C_15 
DOCKED: USER                              x       y       z     vdW  Elec       q    Type
DOCKED: USER                           _______ _______ _______ _____ _____    ______ ____
DOCKED: ROOT
DOCKED: ATOM      1  C   UNL d   1     -15.183   6.214   9.001 -0.12 +0.23    +0.193 C 
DOCKED: ENDROOT
DOCKED: BRANCH   1   2
DOCKED: ATOM      2  O   UNL d   1     -15.565   5.534  10.243 -0.09 -0.40    -0.356 OA
DOCKED: BRANCH   2   3
DOCKED: ATOM      3  P   UNL d   1     -14.569   5.407  11.546 -0.26 -0.02    -0.014 P 
DOCKED: ATOM      4  O   UNL d   1     -15.410   4.670  12.600 -0.03 -0.41    -0.577 OA
DOCKED: ATOM      5  O   UNL d   1     -14.226   6.826  11.993 -0.28 -1.00    -0.577 OA
DOCKED: ATOM      6  O   UNL d   1     -13.351   4.589  11.130 -0.51 -1.44    -0.638 OA
DOCKED: ENDBRANCH   2   3
DOCKED: ENDBRANCH   1   2
DOCKED: BRANCH   1   7
DOCKED: ATOM      7  C   UNL d   1     -13.697   5.832   8.653 -0.08 +0.37    +0.201 C 
DOCKED: BRANCH   7   8
DOCKED: ATOM      8  O   UNL d   1     -13.517   4.990   7.493 -0.18 -0.76    -0.364 OA
DOCKED: BRANCH   8   9
DOCKED: ATOM      9  P   UNL d   1     -12.053   4.937   6.724 -0.46 -0.02    -0.015 P 
DOCKED: ATOM     10  O   UNL d   1     -11.382   6.277   7.052 -0.06 -0.57    -0.577 OA
DOCKED: ATOM     11  O   UNL d   1     -12.339   4.793   5.230 -0.56 -0.52    -0.577 OA
DOCKED: ATOM     12  O   UNL d   1     -11.282   3.752   7.303 -0.54 -1.21    -0.638 OA
DOCKED: ENDBRANCH   8   9
DOCKED: ENDBRANCH   7   8
DOCKED: ENDBRANCH   1   7
DOCKED: BRANCH   1  13
DOCKED: ATOM     13  C   UNL d   1     -15.271   7.774   9.190 -0.07 +0.08    +0.073 C 
DOCKED: ATOM     14  O   UNL d   1     -14.255   8.487   8.873 -0.33 -0.98    -0.547 OA
DOCKED: ATOM     15  O   UNL d   1     -16.393   8.249   9.595 +0.01 -0.37    -0.547 OA
DOCKED: ENDBRANCH   1  13
DOCKED: TORSDOF 6
DOCKED: TER
DOCKED: ENDMDL
________________________________________________________________________________


	BEGINNING GENETIC ALGORITHM DOCKING 35 of 100
Run: 35 Seed: 594138266 1726635354 [ Run 35 of 100 GA/GALS ]
Beginning LAMARCKIAN GENETIC ALGORITHM (LGA), with a maximum of 25000000 energy evaluations.

Final-Value: -8.006


	FINAL GENETIC ALGORITHM DOCKED STATE
	_______________________________________________


Detailed state:  trans -12.095 5.999 7.396 quatxyzw -0.129643 0.118272 0.251821 0.951730 center 0.015 0.083 0.031 ntor 6 -163.9390 25.6206 -145.5878 45.2396 89.8026 33.5945
State:	-12.095   5.999   7.396  -0.422  0.385  0.820 35.749   -163.94   25.62 -145.59   45.24   89.80   33.59

DOCKED: MODEL       35
DOCKED: USER    Run = 35
DOCKED: USER    DPF = D:/Protein_go_brrr/autodock/final/mut_Y35F/2_3_BPG/dock.dpf
DOCKED: USER  
DOCKED: USER    Estimated Free Energy of Binding    =   -8.37 kcal/mol  [=(1)+(2)+(3)-(4)]
DOCKED: USER    Estimated Inhibition Constant, Ki   =  730.07 nM (nanomolar)  [Temperature = 298.15 K]
DOCKED: USER    
DOCKED: USER    (1) Final Intermolecular Energy     =  -10.16 kcal/mol
DOCKED: USER        vdW + Hbond + desolv Energy     =   -3.40 kcal/mol
DOCKED: USER        Electrostatic Energy            =   -6.76 kcal/mol
DOCKED: USER    (2) Final Total Internal Energy     =   +2.16 kcal/mol
DOCKED: USER    (3) Torsional Free Energy           =   +1.79 kcal/mol
DOCKED: USER    (4) Unbound System's Energy  [=(2)] =   +2.16 kcal/mol
DOCKED: USER    
DOCKED: USER    
DOCKED: USER    NEWDPF move 2_3_BPG_opt.pdbqt
DOCKED: USER    NEWDPF about 0.015000 0.083000 0.031000
DOCKED: USER    NEWDPF tran0 -12.095420 5.999342 7.395654
DOCKED: USER    NEWDPF quaternion0 -0.129643 0.118272 0.251821 0.951730
DOCKED: USER    NEWDPF axisangle0 -0.422378 0.385332 0.820436 35.749283
DOCKED: USER    NEWDPF quat0 -0.422378 0.385332 0.820436 35.749283
DOCKED: USER    NEWDPF dihe0 -163.94 25.62 -145.59 45.24 89.80 33.59 
DOCKED: USER  keepresnum = 1 
DOCKED: USER  
DOCKED: REMARK  6 active torsions:
DOCKED: REMARK  status: ('A' for Active; 'I' for Inactive)
DOCKED: REMARK    1  A    between atoms: P_1  and  O_3 
DOCKED: REMARK    2  A    between atoms: P_2  and  O_4 
DOCKED: REMARK    3  A    between atoms: O_3  and  C_13 
DOCKED: REMARK    4  A    between atoms: O_4  and  C_14 
DOCKED: REMARK    5  A    between atoms: C_13  and  C_14 
DOCKED: REMARK    6  A    between atoms: C_13  and  C_15 
DOCKED: USER                              x       y       z     vdW  Elec       q    Type
DOCKED: USER                           _______ _______ _______ _____ _____    ______ ____
DOCKED: ROOT
DOCKED: ATOM      1  C   UNL d   1     -12.758   6.019   7.294 -0.21 +0.24    +0.193 C 
DOCKED: ENDROOT
DOCKED: BRANCH   1   2
DOCKED: ATOM      2  O   UNL d   1     -13.100   7.345   6.767 -0.08 -0.29    -0.356 OA
DOCKED: BRANCH   2   3
DOCKED: ATOM      3  P   UNL d   1     -13.428   8.640   7.726 -0.10 -0.02    -0.014 P 
DOCKED: ATOM      4  O   UNL d   1     -14.240   9.586   6.827 +0.02 -0.30    -0.577 OA
DOCKED: ATOM      5  O   UNL d   1     -12.089   9.257   8.126 -0.17 -0.82    -0.577 OA
DOCKED: ATOM      6  O   UNL d   1     -14.251   8.151   8.913 -0.22 -1.12    -0.638 OA
DOCKED: ENDBRANCH   2   3
DOCKED: ENDBRANCH   1   2
DOCKED: BRANCH   1   7
DOCKED: ATOM      7  C   UNL d   1     -11.194   5.853   7.264 -0.32 +0.22    +0.201 C 
DOCKED: BRANCH   7   8
DOCKED: ATOM      8  O   UNL d   1     -10.698   4.511   7.469 -0.53 -0.45    -0.364 OA
DOCKED: BRANCH   8   9
DOCKED: ATOM      9  P   UNL d   1     -10.429   3.951   9.002 -0.58 -0.02    -0.015 P 
DOCKED: ATOM     10  O   UNL d   1     -11.552   4.558   9.851 +0.12 -1.36    -0.577 OA
DOCKED: ATOM     11  O   UNL d   1      -9.052   4.461   9.428 +0.15 -0.49    -0.577 OA
DOCKED: ATOM     12  O   UNL d   1     -10.511   2.426   8.946 -0.23 -1.05    -0.638 OA
DOCKED: ENDBRANCH   8   9
DOCKED: ENDBRANCH   7   8
DOCKED: ENDBRANCH   1   7
DOCKED: BRANCH   1  13
DOCKED: ATOM     13  C   UNL d   1     -13.401   4.898   6.395 -0.24 +0.09    +0.073 C 
DOCKED: ATOM     14  O   UNL d   1     -14.364   4.204   6.878 -0.48 -0.94    -0.547 OA
DOCKED: ATOM     15  O   UNL d   1     -12.959   4.789   5.194 -0.53 -0.44    -0.547 OA
DOCKED: ENDBRANCH   1  13
DOCKED: TORSDOF 6
DOCKED: TER
DOCKED: ENDMDL
________________________________________________________________________________


	BEGINNING GENETIC ALGORITHM DOCKING 36 of 100
Run: 36 Seed: 1987264792 1874108351 [ Run 36 of 100 GA/GALS ]
Beginning LAMARCKIAN GENETIC ALGORITHM (LGA), with a maximum of 25000000 energy evaluations.

Final-Value: -8.521


	FINAL GENETIC ALGORITHM DOCKED STATE
	_______________________________________________


Detailed state:  trans -13.983 4.861 11.536 quatxyzw 0.234902 0.467914 -0.850588 0.048770 center 0.015 0.083 0.031 ntor 6 -129.3009 -155.9416 -58.5756 19.5652 -10.2525 -164.1290
State:	-13.983   4.861  11.536   0.235  0.468 -0.852 174.409   -129.30 -155.94  -58.58   19.57  -10.25 -164.13

DOCKED: MODEL       36
DOCKED: USER    Run = 36
DOCKED: USER    DPF = D:/Protein_go_brrr/autodock/final/mut_Y35F/2_3_BPG/dock.dpf
DOCKED: USER  
DOCKED: USER    Estimated Free Energy of Binding    =   -8.89 kcal/mol  [=(1)+(2)+(3)-(4)]
DOCKED: USER    Estimated Inhibition Constant, Ki   =  302.79 nM (nanomolar)  [Temperature = 298.15 K]
DOCKED: USER    
DOCKED: USER    (1) Final Intermolecular Energy     =  -10.68 kcal/mol
DOCKED: USER        vdW + Hbond + desolv Energy     =   -4.15 kcal/mol
DOCKED: USER        Electrostatic Energy            =   -6.53 kcal/mol
DOCKED: USER    (2) Final Total Internal Energy     =   +2.16 kcal/mol
DOCKED: USER    (3) Torsional Free Energy           =   +1.79 kcal/mol
DOCKED: USER    (4) Unbound System's Energy  [=(2)] =   +2.16 kcal/mol
DOCKED: USER    
DOCKED: USER    
DOCKED: USER    NEWDPF move 2_3_BPG_opt.pdbqt
DOCKED: USER    NEWDPF about 0.015000 0.083000 0.031000
DOCKED: USER    NEWDPF tran0 -13.982589 4.860717 11.535673
DOCKED: USER    NEWDPF quaternion0 0.234902 0.467914 -0.850588 0.048770
DOCKED: USER    NEWDPF axisangle0 0.235182 0.468471 -0.851601 174.409187
DOCKED: USER    NEWDPF quat0 0.235182 0.468471 -0.851601 174.409187
DOCKED: USER    NEWDPF dihe0 -129.30 -155.94 -58.58 19.57 -10.25 -164.13 
DOCKED: USER  keepresnum = 1 
DOCKED: USER  
DOCKED: REMARK  6 active torsions:
DOCKED: REMARK  status: ('A' for Active; 'I' for Inactive)
DOCKED: REMARK    1  A    between atoms: P_1  and  O_3 
DOCKED: REMARK    2  A    between atoms: P_2  and  O_4 
DOCKED: REMARK    3  A    between atoms: O_3  and  C_13 
DOCKED: REMARK    4  A    between atoms: O_4  and  C_14 
DOCKED: REMARK    5  A    between atoms: C_13  and  C_14 
DOCKED: REMARK    6  A    between atoms: C_13  and  C_15 
DOCKED: USER                              x       y       z     vdW  Elec       q    Type
DOCKED: USER                           _______ _______ _______ _____ _____    ______ ____
DOCKED: ROOT
DOCKED: ATOM      1  C   UNL d   1     -13.548   4.785  12.041 -0.21 +0.26    +0.193 C 
DOCKED: ENDROOT
DOCKED: BRANCH   1   2
DOCKED: ATOM      2  O   UNL d   1     -12.224   4.520  11.468 -0.66 -0.64    -0.356 OA
DOCKED: BRANCH   2   3
DOCKED: ATOM      3  P   UNL d   1     -11.443   3.081  11.627 -0.64 -0.02    -0.014 P 
DOCKED: ATOM      4  O   UNL d   1     -12.555   2.079  11.976 -0.19 -0.65    -0.577 OA
DOCKED: ATOM      5  O   UNL d   1     -10.444   3.232  12.772 -0.71 -0.54    -0.577 OA
DOCKED: ATOM      6  O   UNL d   1     -10.790   2.749  10.290 -0.17 -1.06    -0.638 OA
DOCKED: ENDBRANCH   2   3
DOCKED: ENDBRANCH   1   2
DOCKED: BRANCH   1   7
DOCKED: ATOM      7  C   UNL d   1     -14.512   5.250  10.888 -0.14 +0.32    +0.201 C 
DOCKED: BRANCH   7   8
DOCKED: ATOM      8  O   UNL d   1     -13.905   5.419   9.588 -0.11 -0.79    -0.364 OA
DOCKED: BRANCH   8   9
DOCKED: ATOM      9  P   UNL d   1     -14.849   5.730   8.265 -0.16 -0.02    -0.015 P 
DOCKED: ATOM     10  O   UNL d   1     -14.299   7.037   7.681 +0.00 -0.58    -0.577 OA
DOCKED: ATOM     11  O   UNL d   1     -16.283   5.889   8.769 +0.01 -0.46    -0.577 OA
DOCKED: ATOM     12  O   UNL d   1     -14.679   4.556   7.303 -0.55 -1.14    -0.638 OA
DOCKED: ENDBRANCH   8   9
DOCKED: ENDBRANCH   7   8
DOCKED: ENDBRANCH   1   7
DOCKED: BRANCH   1  13
DOCKED: ATOM     13  C   UNL d   1     -13.452   5.935  13.112 -0.13 +0.08    +0.073 C 
DOCKED: ATOM     14  O   UNL d   1     -12.953   5.661  14.259 -0.02 -0.35    -0.547 OA
DOCKED: ATOM     15  O   UNL d   1     -13.828   7.106  12.745 -0.45 -0.93    -0.547 OA
DOCKED: ENDBRANCH   1  13
DOCKED: TORSDOF 6
DOCKED: TER
DOCKED: ENDMDL
________________________________________________________________________________


	BEGINNING GENETIC ALGORITHM DOCKING 37 of 100
Run: 37 Seed: 1396997461 675475697 [ Run 37 of 100 GA/GALS ]
Beginning LAMARCKIAN GENETIC ALGORITHM (LGA), with a maximum of 25000000 energy evaluations.

Final-Value: -9.261


	FINAL GENETIC ALGORITHM DOCKED STATE
	_______________________________________________


Detailed state:  trans -13.352 5.059 11.964 quatxyzw 0.820465 -0.074587 0.422211 0.378170 center 0.015 0.083 0.031 ntor 6 25.1090 -141.2103 86.3555 15.7295 -56.7125 -116.6728
State:	-13.352   5.059  11.964   0.886 -0.081  0.456 135.559     25.11 -141.21   86.36   15.73  -56.71 -116.67

DOCKED: MODEL       37
DOCKED: USER    Run = 37
DOCKED: USER    DPF = D:/Protein_go_brrr/autodock/final/mut_Y35F/2_3_BPG/dock.dpf
DOCKED: USER  
DOCKED: USER    Estimated Free Energy of Binding    =   -9.66 kcal/mol  [=(1)+(2)+(3)-(4)]
DOCKED: USER    Estimated Inhibition Constant, Ki   =   83.45 nM (nanomolar)  [Temperature = 298.15 K]
DOCKED: USER    
DOCKED: USER    (1) Final Intermolecular Energy     =  -11.45 kcal/mol
DOCKED: USER        vdW + Hbond + desolv Energy     =   -4.74 kcal/mol
DOCKED: USER        Electrostatic Energy            =   -6.70 kcal/mol
DOCKED: USER    (2) Final Total Internal Energy     =   +2.19 kcal/mol
DOCKED: USER    (3) Torsional Free Energy           =   +1.79 kcal/mol
DOCKED: USER    (4) Unbound System's Energy  [=(2)] =   +2.19 kcal/mol
DOCKED: USER    
DOCKED: USER    
DOCKED: USER    NEWDPF move 2_3_BPG_opt.pdbqt
DOCKED: USER    NEWDPF about 0.015000 0.083000 0.031000
DOCKED: USER    NEWDPF tran0 -13.352410 5.059271 11.964271
DOCKED: USER    NEWDPF quaternion0 0.820465 -0.074587 0.422211 0.378170
DOCKED: USER    NEWDPF axisangle0 0.886283 -0.080570 0.456081 135.559267
DOCKED: USER    NEWDPF quat0 0.886283 -0.080570 0.456081 135.559267
DOCKED: USER    NEWDPF dihe0 25.11 -141.21 86.36 15.73 -56.71 -116.67 
DOCKED: USER  keepresnum = 1 
DOCKED: USER  
DOCKED: REMARK  6 active torsions:
DOCKED: REMARK  status: ('A' for Active; 'I' for Inactive)
DOCKED: REMARK    1  A    between atoms: P_1  and  O_3 
DOCKED: REMARK    2  A    between atoms: P_2  and  O_4 
DOCKED: REMARK    3  A    between atoms: O_3  and  C_13 
DOCKED: REMARK    4  A    between atoms: O_4  and  C_14 
DOCKED: REMARK    5  A    between atoms: C_13  and  C_14 
DOCKED: REMARK    6  A    between atoms: C_13  and  C_15 
DOCKED: USER                              x       y       z     vdW  Elec       q    Type
DOCKED: USER                           _______ _______ _______ _____ _____    ______ ____
DOCKED: ROOT
DOCKED: ATOM      1  C   UNL d   1     -13.715   5.589  11.771 -0.08 +0.29    +0.193 C 
DOCKED: ENDROOT
DOCKED: BRANCH   1   2
DOCKED: ATOM      2  O   UNL d   1     -14.703   5.134  10.788 -0.23 -0.55    -0.356 OA
DOCKED: BRANCH   2   3
DOCKED: ATOM      3  P   UNL d   1     -14.725   5.646   9.225 -0.13 -0.02    -0.014 P 
DOCKED: ATOM      4  O   UNL d   1     -13.243   5.830   8.862 -0.01 -1.14    -0.577 OA
DOCKED: ATOM      5  O   UNL d   1     -15.479   6.974   9.195 -0.00 -0.58    -0.577 OA
DOCKED: ATOM      6  O   UNL d   1     -15.377   4.557   8.381 -0.35 -1.11    -0.638 OA
DOCKED: ENDBRANCH   2   3
DOCKED: ENDBRANCH   1   2
DOCKED: BRANCH   1   7
DOCKED: ATOM      7  C   UNL d   1     -13.057   4.330  12.447 -0.25 +0.24    +0.201 C 
DOCKED: BRANCH   7   8
DOCKED: ATOM      8  O   UNL d   1     -12.712   3.245  11.557 -0.54 -0.74    -0.364 OA
DOCKED: BRANCH   8   9
DOCKED: ATOM      9  P   UNL d   1     -11.173   2.638  11.547 -0.71 -0.02    -0.015 P 
DOCKED: ATOM     10  O   UNL d   1     -10.433   3.445  10.474 -0.38 -0.83    -0.577 OA
DOCKED: ATOM     11  O   UNL d   1     -11.280   1.159  11.177 -0.70 -0.58    -0.577 OA
DOCKED: ATOM     12  O   UNL d   1     -10.589   2.866  12.941 -0.65 -0.50    -0.638 OA
DOCKED: ENDBRANCH   8   9
DOCKED: ENDBRANCH   7   8
DOCKED: ENDBRANCH   1   7
DOCKED: BRANCH   1  13
DOCKED: ATOM     13  C   UNL d   1     -14.419   6.449  12.886 -0.13 +0.08    +0.073 C 
DOCKED: ATOM     14  O   UNL d   1     -15.058   5.841  13.815 +0.01 -0.31    -0.547 OA
DOCKED: ATOM     15  O   UNL d   1     -14.256   7.721  12.830 -0.60 -0.92    -0.547 OA
DOCKED: ENDBRANCH   1  13
DOCKED: TORSDOF 6
DOCKED: TER
DOCKED: ENDMDL
________________________________________________________________________________


	BEGINNING GENETIC ALGORITHM DOCKING 38 of 100
Run: 38 Seed: 295330045 292100564 [ Run 38 of 100 GA/GALS ]
Beginning LAMARCKIAN GENETIC ALGORITHM (LGA), with a maximum of 25000000 energy evaluations.

Final-Value: -9.466


	FINAL GENETIC ALGORITHM DOCKED STATE
	_______________________________________________


Detailed state:  trans -13.205 5.022 11.984 quatxyzw -0.783609 0.080068 -0.474388 -0.393068 center 0.015 0.083 0.031 ntor 6 -152.3149 -128.2602 84.6738 14.1008 -65.0796 -121.9088
State:	-13.205   5.022  11.984  -0.852  0.087 -0.516 -133.709   -152.31 -128.26   84.67   14.10  -65.08 -121.91

DOCKED: MODEL       38
DOCKED: USER    Run = 38
DOCKED: USER    DPF = D:/Protein_go_brrr/autodock/final/mut_Y35F/2_3_BPG/dock.dpf
DOCKED: USER  
DOCKED: USER    Estimated Free Energy of Binding    =   -9.97 kcal/mol  [=(1)+(2)+(3)-(4)]
DOCKED: USER    Estimated Inhibition Constant, Ki   =   49.06 nM (nanomolar)  [Temperature = 298.15 K]
DOCKED: USER    
DOCKED: USER    (1) Final Intermolecular Energy     =  -11.76 kcal/mol
DOCKED: USER        vdW + Hbond + desolv Energy     =   -4.66 kcal/mol
DOCKED: USER        Electrostatic Energy            =   -7.10 kcal/mol
DOCKED: USER    (2) Final Total Internal Energy     =   +2.30 kcal/mol
DOCKED: USER    (3) Torsional Free Energy           =   +1.79 kcal/mol
DOCKED: USER    (4) Unbound System's Energy  [=(2)] =   +2.30 kcal/mol
DOCKED: USER    
DOCKED: USER    
DOCKED: USER    NEWDPF move 2_3_BPG_opt.pdbqt
DOCKED: USER    NEWDPF about 0.015000 0.083000 0.031000
DOCKED: USER    NEWDPF tran0 -13.204552 5.022352 11.984020
DOCKED: USER    NEWDPF quaternion0 -0.783609 0.080068 -0.474388 -0.393068
DOCKED: USER    NEWDPF axisangle0 -0.852203 0.087077 -0.515914 -133.708872
DOCKED: USER    NEWDPF quat0 -0.852203 0.087077 -0.515914 -133.708872
DOCKED: USER    NEWDPF dihe0 -152.31 -128.26 84.67 14.10 -65.08 -121.91 
DOCKED: USER  keepresnum = 1 
DOCKED: USER  
DOCKED: REMARK  6 active torsions:
DOCKED: REMARK  status: ('A' for Active; 'I' for Inactive)
DOCKED: REMARK    1  A    between atoms: P_1  and  O_3 
DOCKED: REMARK    2  A    between atoms: P_2  and  O_4 
DOCKED: REMARK    3  A    between atoms: O_3  and  C_13 
DOCKED: REMARK    4  A    between atoms: O_4  and  C_14 
DOCKED: REMARK    5  A    between atoms: C_13  and  C_14 
DOCKED: REMARK    6  A    between atoms: C_13  and  C_15 
DOCKED: USER                              x       y       z     vdW  Elec       q    Type
DOCKED: USER                           _______ _______ _______ _____ _____    ______ ____
DOCKED: ROOT
DOCKED: ATOM      1  C   UNL d   1     -13.521   5.576  11.779 +0.00 +0.30    +0.193 C 
DOCKED: ENDROOT
DOCKED: BRANCH   1   2
DOCKED: ATOM      2  O   UNL d   1     -14.407   5.211  10.667 -0.28 -0.62    -0.356 OA
DOCKED: BRANCH   2   3
DOCKED: ATOM      3  P   UNL d   1     -14.251   5.826   9.150 -0.18 -0.02    -0.014 P 
DOCKED: ATOM      4  O   UNL d   1     -12.754   5.687   8.831 +0.10 -1.20    -0.577 OA
DOCKED: ATOM      5  O   UNL d   1     -14.679   7.291   9.210 -0.05 -0.82    -0.577 OA
DOCKED: ATOM      6  O   UNL d   1     -15.105   4.982   8.209 -0.40 -1.05    -0.638 OA
DOCKED: ENDBRANCH   2   3
DOCKED: ENDBRANCH   1   2
DOCKED: BRANCH   1   7
DOCKED: ATOM      7  C   UNL d   1     -12.995   4.259  12.459 -0.25 +0.23    +0.201 C 
DOCKED: BRANCH   7   8
DOCKED: ATOM      8  O   UNL d   1     -12.703   3.162  11.566 -0.50 -0.73    -0.364 OA
DOCKED: BRANCH   8   9
DOCKED: ATOM      9  P   UNL d   1     -11.162   2.568  11.458 -0.68 -0.02    -0.015 P 
DOCKED: ATOM     10  O   UNL d   1     -10.521   3.331  10.293 -0.31 -0.89    -0.577 OA
DOCKED: ATOM     11  O   UNL d   1     -11.281   1.072  11.164 -0.72 -0.56    -0.577 OA
DOCKED: ATOM     12  O   UNL d   1     -10.471   2.863  12.788 -0.69 -0.55    -0.638 OA
DOCKED: ENDBRANCH   8   9
DOCKED: ENDBRANCH   7   8
DOCKED: ENDBRANCH   1   7
DOCKED: BRANCH   1  13
DOCKED: ATOM     13  C   UNL d   1     -14.317   6.413  12.849 -0.13 +0.08    +0.073 C 
DOCKED: ATOM     14  O   UNL d   1     -14.209   7.690  12.830 -0.57 -0.93    -0.547 OA
DOCKED: ATOM     15  O   UNL d   1     -15.084   5.761  13.646 +0.01 -0.33    -0.547 OA
DOCKED: ENDBRANCH   1  13
DOCKED: TORSDOF 6
DOCKED: TER
DOCKED: ENDMDL
________________________________________________________________________________


	BEGINNING GENETIC ALGORITHM DOCKING 39 of 100
Run: 39 Seed: 1220690503 1209572049 [ Run 39 of 100 GA/GALS ]
Beginning LAMARCKIAN GENETIC ALGORITHM (LGA), with a maximum of 25000000 energy evaluations.

Final-Value: -8.438


	FINAL GENETIC ALGORITHM DOCKED STATE
	_______________________________________________


Detailed state:  trans -14.135 5.039 11.422 quatxyzw -0.296522 -0.403234 0.863963 -0.055177 center 0.015 0.083 0.031 ntor 6 -106.3596 -164.5089 61.3577 19.1337 -43.8697 157.0300
State:	-14.135   5.039  11.422  -0.297 -0.404  0.865 -173.674   -106.36 -164.51   61.36   19.13  -43.87  157.03

DOCKED: MODEL       39
DOCKED: USER    Run = 39
DOCKED: USER    DPF = D:/Protein_go_brrr/autodock/final/mut_Y35F/2_3_BPG/dock.dpf
DOCKED: USER  
DOCKED: USER    Estimated Free Energy of Binding    =   -9.00 kcal/mol  [=(1)+(2)+(3)-(4)]
DOCKED: USER    Estimated Inhibition Constant, Ki   =  254.70 nM (nanomolar)  [Temperature = 298.15 K]
DOCKED: USER    
DOCKED: USER    (1) Final Intermolecular Energy     =  -10.79 kcal/mol
DOCKED: USER        vdW + Hbond + desolv Energy     =   -4.03 kcal/mol
DOCKED: USER        Electrostatic Energy            =   -6.76 kcal/mol
DOCKED: USER    (2) Final Total Internal Energy     =   +2.35 kcal/mol
DOCKED: USER    (3) Torsional Free Energy           =   +1.79 kcal/mol
DOCKED: USER    (4) Unbound System's Energy  [=(2)] =   +2.35 kcal/mol
DOCKED: USER    
DOCKED: USER    
DOCKED: USER    NEWDPF move 2_3_BPG_opt.pdbqt
DOCKED: USER    NEWDPF about 0.015000 0.083000 0.031000
DOCKED: USER    NEWDPF tran0 -14.134532 5.039465 11.422118
DOCKED: USER    NEWDPF quaternion0 -0.296522 -0.403234 0.863963 -0.055177
DOCKED: USER    NEWDPF axisangle0 -0.296975 -0.403849 0.865282 -173.674022
DOCKED: USER    NEWDPF quat0 -0.296975 -0.403849 0.865282 -173.674022
DOCKED: USER    NEWDPF dihe0 -106.36 -164.51 61.36 19.13 -43.87 157.03 
DOCKED: USER  keepresnum = 1 
DOCKED: USER  
DOCKED: REMARK  6 active torsions:
DOCKED: REMARK  status: ('A' for Active; 'I' for Inactive)
DOCKED: REMARK    1  A    between atoms: P_1  and  O_3 
DOCKED: REMARK    2  A    between atoms: P_2  and  O_4 
DOCKED: REMARK    3  A    between atoms: O_3  and  C_13 
DOCKED: REMARK    4  A    between atoms: O_4  and  C_14 
DOCKED: REMARK    5  A    between atoms: C_13  and  C_14 
DOCKED: REMARK    6  A    between atoms: C_13  and  C_15 
DOCKED: USER                              x       y       z     vdW  Elec       q    Type
DOCKED: USER                           _______ _______ _______ _____ _____    ______ ____
DOCKED: ROOT
DOCKED: ATOM      1  C   UNL d   1     -13.752   4.990  11.970 -0.20 +0.26    +0.193 C 
DOCKED: ENDROOT
DOCKED: BRANCH   1   2
DOCKED: ATOM      2  O   UNL d   1     -12.420   4.532  11.559 -0.72 -0.63    -0.356 OA
DOCKED: BRANCH   2   3
DOCKED: ATOM      3  P   UNL d   1     -11.803   3.065  11.970 -0.67 -0.02    -0.014 P 
DOCKED: ATOM      4  O   UNL d   1     -13.000   2.295  12.550 -0.16 -0.48    -0.577 OA
DOCKED: ATOM      5  O   UNL d   1     -10.726   3.306  13.025 -0.65 -0.46    -0.577 OA
DOCKED: ATOM      6  O   UNL d   1     -11.274   2.404  10.701 -0.12 -1.10    -0.638 OA
DOCKED: ENDBRANCH   2   3
DOCKED: ENDBRANCH   1   2
DOCKED: BRANCH   1   7
DOCKED: ATOM      7  C   UNL d   1     -14.568   5.389  10.686 -0.16 +0.32    +0.201 C 
DOCKED: BRANCH   7   8
DOCKED: ATOM      8  O   UNL d   1     -13.849   6.156   9.695 -0.07 -0.69    -0.364 OA
DOCKED: BRANCH   8   9
DOCKED: ATOM      9  P   UNL d   1     -14.052   5.831   8.086 -0.20 -0.02    -0.015 P 
DOCKED: ATOM     10  O   UNL d   1     -12.676   5.362   7.597 -0.03 -1.00    -0.577 OA
DOCKED: ATOM     11  O   UNL d   1     -14.481   7.137   7.417 +0.02 -0.51    -0.577 OA
DOCKED: ATOM     12  O   UNL d   1     -15.106   4.729   7.978 -0.46 -1.12    -0.638 OA
DOCKED: ENDBRANCH   8   9
DOCKED: ENDBRANCH   7   8
DOCKED: ENDBRANCH   1   7
DOCKED: BRANCH   1  13
DOCKED: ATOM     13  C   UNL d   1     -13.624   6.255  12.899 -0.08 +0.09    +0.073 C 
DOCKED: ATOM     14  O   UNL d   1     -12.856   6.187  13.922 -0.03 -0.46    -0.547 OA
DOCKED: ATOM     15  O   UNL d   1     -14.257   7.311  12.536 -0.50 -0.94    -0.547 OA
DOCKED: ENDBRANCH   1  13
DOCKED: TORSDOF 6
DOCKED: TER
DOCKED: ENDMDL
________________________________________________________________________________


	BEGINNING GENETIC ALGORITHM DOCKING 40 of 100
Run: 40 Seed: 1093602945 466726858 [ Run 40 of 100 GA/GALS ]
Beginning LAMARCKIAN GENETIC ALGORITHM (LGA), with a maximum of 25000000 energy evaluations.

Final-Value: -8.427


	FINAL GENETIC ALGORITHM DOCKED STATE
	_______________________________________________


Detailed state:  trans -13.881 4.887 11.951 quatxyzw 0.311917 0.420846 -0.849833 -0.058150 center 0.015 0.083 0.031 ntor 6 -146.7343 -173.8203 8.1329 56.1822 4.7323 -173.3326
State:	-13.881   4.887  11.951   0.312  0.422 -0.851 -173.333   -146.73 -173.82    8.13   56.18    4.73 -173.33

DOCKED: MODEL       40
DOCKED: USER    Run = 40
DOCKED: USER    DPF = D:/Protein_go_brrr/autodock/final/mut_Y35F/2_3_BPG/dock.dpf
DOCKED: USER  
DOCKED: USER    Estimated Free Energy of Binding    =   -8.97 kcal/mol  [=(1)+(2)+(3)-(4)]
DOCKED: USER    Estimated Inhibition Constant, Ki   =  267.47 nM (nanomolar)  [Temperature = 298.15 K]
DOCKED: USER    
DOCKED: USER    (1) Final Intermolecular Energy     =  -10.76 kcal/mol
DOCKED: USER        vdW + Hbond + desolv Energy     =   -3.89 kcal/mol
DOCKED: USER        Electrostatic Energy            =   -6.87 kcal/mol
DOCKED: USER    (2) Final Total Internal Energy     =   +2.33 kcal/mol
DOCKED: USER    (3) Torsional Free Energy           =   +1.79 kcal/mol
DOCKED: USER    (4) Unbound System's Energy  [=(2)] =   +2.33 kcal/mol
DOCKED: USER    
DOCKED: USER    
DOCKED: USER    NEWDPF move 2_3_BPG_opt.pdbqt
DOCKED: USER    NEWDPF about 0.015000 0.083000 0.031000
DOCKED: USER    NEWDPF tran0 -13.881084 4.886771 11.951393
DOCKED: USER    NEWDPF quaternion0 0.311917 0.420846 -0.849833 -0.058150
DOCKED: USER    NEWDPF axisangle0 0.312445 0.421559 -0.851273 -173.332789
DOCKED: USER    NEWDPF quat0 0.312445 0.421559 -0.851273 -173.332789
DOCKED: USER    NEWDPF dihe0 -146.73 -173.82 8.13 56.18 4.73 -173.33 
DOCKED: USER  keepresnum = 1 
DOCKED: USER  
DOCKED: REMARK  6 active torsions:
DOCKED: REMARK  status: ('A' for Active; 'I' for Inactive)
DOCKED: REMARK    1  A    between atoms: P_1  and  O_3 
DOCKED: REMARK    2  A    between atoms: P_2  and  O_4 
DOCKED: REMARK    3  A    between atoms: O_3  and  C_13 
DOCKED: REMARK    4  A    between atoms: O_4  and  C_14 
DOCKED: REMARK    5  A    between atoms: C_13  and  C_14 
DOCKED: REMARK    6  A    between atoms: C_13  and  C_15 
DOCKED: USER                              x       y       z     vdW  Elec       q    Type
DOCKED: USER                           _______ _______ _______ _____ _____    ______ ____
DOCKED: ROOT
DOCKED: ATOM      1  C   UNL d   1     -13.571   4.920  12.545 -0.20 +0.21    +0.193 C 
DOCKED: ENDROOT
DOCKED: BRANCH   1   2
DOCKED: ATOM      2  O   UNL d   1     -12.134   4.722  12.321 -0.16 -0.44    -0.356 OA
DOCKED: BRANCH   2   3
DOCKED: ATOM      3  P   UNL d   1     -11.463   3.252  12.017 -0.70 -0.02    -0.014 P 
DOCKED: ATOM      4  O   UNL d   1     -12.656   2.285  11.983 -0.22 -0.70    -0.577 OA
DOCKED: ATOM      5  O   UNL d   1     -10.518   2.938  13.176 -0.63 -0.41    -0.577 OA
DOCKED: ATOM      6  O   UNL d   1     -10.762   3.324  10.664 -0.34 -1.01    -0.638 OA
DOCKED: ENDBRANCH   2   3
DOCKED: ENDBRANCH   1   2
DOCKED: BRANCH   1   7
DOCKED: ATOM      7  C   UNL d   1     -14.273   5.135  11.154 -0.16 +0.32    +0.201 C 
DOCKED: BRANCH   7   8
DOCKED: ATOM      8  O   UNL d   1     -13.395   5.406  10.039 -0.22 -0.84    -0.364 OA
DOCKED: BRANCH   8   9
DOCKED: ATOM      9  P   UNL d   1     -14.026   5.839   8.572 -0.16 -0.03    -0.015 P 
DOCKED: ATOM     10  O   UNL d   1     -12.844   5.783   7.597 -0.03 -0.86    -0.577 OA
DOCKED: ATOM     11  O   UNL d   1     -14.575   7.257   8.723 -0.05 -0.75    -0.577 OA
DOCKED: ATOM     12  O   UNL d   1     -15.105   4.814   8.225 -0.38 -1.15    -0.638 OA
DOCKED: ENDBRANCH   8   9
DOCKED: ENDBRANCH   7   8
DOCKED: ENDBRANCH   1   7
DOCKED: BRANCH   1  13
DOCKED: ATOM     13  C   UNL d   1     -13.807   6.199  13.432 -0.14 +0.07    +0.073 C 
DOCKED: ATOM     14  O   UNL d   1     -13.900   6.053  14.701 +0.01 -0.28    -0.547 OA
DOCKED: ATOM     15  O   UNL d   1     -13.828   7.332  12.828 -0.50 -0.98    -0.547 OA
DOCKED: ENDBRANCH   1  13
DOCKED: TORSDOF 6
DOCKED: TER
DOCKED: ENDMDL
________________________________________________________________________________


	BEGINNING GENETIC ALGORITHM DOCKING 41 of 100
Run: 41 Seed: 1477903539 665435331 [ Run 41 of 100 GA/GALS ]
Beginning LAMARCKIAN GENETIC ALGORITHM (LGA), with a maximum of 25000000 energy evaluations.

Final-Value: -8.496


	FINAL GENETIC ALGORITHM DOCKED STATE
	_______________________________________________


Detailed state:  trans -13.599 5.312 11.276 quatxyzw -0.756653 0.049891 -0.515084 -0.399594 center 0.015 0.083 0.031 ntor 6 -19.3831 -143.4012 -177.2344 27.5312 5.0381 -67.7053
State:	-13.599   5.312  11.276  -0.825  0.054 -0.562 -132.894    -19.38 -143.40 -177.23   27.53    5.04  -67.71

DOCKED: MODEL       41
DOCKED: USER    Run = 41
DOCKED: USER    DPF = D:/Protein_go_brrr/autodock/final/mut_Y35F/2_3_BPG/dock.dpf
DOCKED: USER  
DOCKED: USER    Estimated Free Energy of Binding    =   -8.75 kcal/mol  [=(1)+(2)+(3)-(4)]
DOCKED: USER    Estimated Inhibition Constant, Ki   =  387.70 nM (nanomolar)  [Temperature = 298.15 K]
DOCKED: USER    
DOCKED: USER    (1) Final Intermolecular Energy     =  -10.54 kcal/mol
DOCKED: USER        vdW + Hbond + desolv Energy     =   -4.18 kcal/mol
DOCKED: USER        Electrostatic Energy            =   -6.36 kcal/mol
DOCKED: USER    (2) Final Total Internal Energy     =   +2.04 kcal/mol
DOCKED: USER    (3) Torsional Free Energy           =   +1.79 kcal/mol
DOCKED: USER    (4) Unbound System's Energy  [=(2)] =   +2.04 kcal/mol
DOCKED: USER    
DOCKED: USER    
DOCKED: USER    NEWDPF move 2_3_BPG_opt.pdbqt
DOCKED: USER    NEWDPF about 0.015000 0.083000 0.031000
DOCKED: USER    NEWDPF tran0 -13.598512 5.312031 11.275989
DOCKED: USER    NEWDPF quaternion0 -0.756653 0.049891 -0.515084 -0.399594
DOCKED: USER    NEWDPF axisangle0 -0.825417 0.054426 -0.561894 -132.894413
DOCKED: USER    NEWDPF quat0 -0.825417 0.054426 -0.561894 -132.894413
DOCKED: USER    NEWDPF dihe0 -19.38 -143.40 -177.23 27.53 5.04 -67.71 
DOCKED: USER  keepresnum = 1 
DOCKED: USER  
DOCKED: REMARK  6 active torsions:
DOCKED: REMARK  status: ('A' for Active; 'I' for Inactive)
DOCKED: REMARK    1  A    between atoms: P_1  and  O_3 
DOCKED: REMARK    2  A    between atoms: P_2  and  O_4 
DOCKED: REMARK    3  A    between atoms: O_3  and  C_13 
DOCKED: REMARK    4  A    between atoms: O_4  and  C_14 
DOCKED: REMARK    5  A    between atoms: C_13  and  C_14 
DOCKED: REMARK    6  A    between atoms: C_13  and  C_15 
DOCKED: USER                              x       y       z     vdW  Elec       q    Type
DOCKED: USER                           _______ _______ _______ _____ _____    ______ ____
DOCKED: ROOT
DOCKED: ATOM      1  C   UNL d   1     -13.899   5.860  11.033 +0.01 +0.33    +0.193 C 
DOCKED: ENDROOT
DOCKED: BRANCH   1   2
DOCKED: ATOM      2  O   UNL d   1     -14.646   5.476   9.830 -0.15 -0.61    -0.356 OA
DOCKED: BRANCH   2   3
DOCKED: ATOM      3  P   UNL d   1     -14.142   5.830   8.305 -0.19 -0.02    -0.014 P 
DOCKED: ATOM      4  O   UNL d   1     -12.608   5.790   8.388 +0.00 -1.06    -0.577 OA
DOCKED: ATOM      5  O   UNL d   1     -14.650   7.232   7.974 -0.01 -0.58    -0.577 OA
DOCKED: ATOM      6  O   UNL d   1     -14.681   4.753   7.369 -0.50 -1.09    -0.638 OA
DOCKED: ENDBRANCH   2   3
DOCKED: ENDBRANCH   1   2
DOCKED: BRANCH   1   7
DOCKED: ATOM      7  C   UNL d   1     -13.432   4.554  11.775 -0.12 +0.32    +0.201 C 
DOCKED: BRANCH   7   8
DOCKED: ATOM      8  O   UNL d   1     -12.123   4.058  11.415 -0.68 -0.69    -0.364 OA
DOCKED: BRANCH   8   9
DOCKED: ATOM      9  P   UNL d   1     -11.609   2.589  11.977 -0.75 -0.02    -0.015 P 
DOCKED: ATOM     10  O   UNL d   1     -12.813   2.004  12.724 -0.12 -0.36    -0.577 OA
DOCKED: ATOM     11  O   UNL d   1     -10.431   2.858  12.913 -0.71 -0.47    -0.577 OA
DOCKED: ATOM     12  O   UNL d   1     -11.226   1.750  10.759 -0.30 -0.90    -0.638 OA
DOCKED: ENDBRANCH   8   9
DOCKED: ENDBRANCH   7   8
DOCKED: ENDBRANCH   1   7
DOCKED: BRANCH   1  13
DOCKED: ATOM     13  C   UNL d   1     -14.825   6.686  12.002 -0.11 +0.09    +0.073 C 
DOCKED: ATOM     14  O   UNL d   1     -16.070   6.389  12.059 +0.00 -0.39    -0.547 OA
DOCKED: ATOM     15  O   UNL d   1     -14.258   7.577  12.732 -0.56 -0.93    -0.547 OA
DOCKED: ENDBRANCH   1  13
DOCKED: TORSDOF 6
DOCKED: TER
DOCKED: ENDMDL
________________________________________________________________________________


	BEGINNING GENETIC ALGORITHM DOCKING 42 of 100
Run: 42 Seed: 837093053 874696015 [ Run 42 of 100 GA/GALS ]
Beginning LAMARCKIAN GENETIC ALGORITHM (LGA), with a maximum of 25000000 energy evaluations.

Final-Value: -9.331


	FINAL GENETIC ALGORITHM DOCKED STATE
	_______________________________________________


Detailed state:  trans -13.275 5.020 11.832 quatxyzw -0.810430 0.030506 -0.441436 -0.383937 center 0.015 0.083 0.031 ntor 6 5.6681 -140.6205 89.7741 3.7432 -59.4635 -126.5388
State:	-13.275   5.020  11.832  -0.878  0.033 -0.478 -134.845      5.67 -140.62   89.77    3.74  -59.46 -126.54

DOCKED: MODEL       42
DOCKED: USER    Run = 42
DOCKED: USER    DPF = D:/Protein_go_brrr/autodock/final/mut_Y35F/2_3_BPG/dock.dpf
DOCKED: USER  
DOCKED: USER    Estimated Free Energy of Binding    =   -9.71 kcal/mol  [=(1)+(2)+(3)-(4)]
DOCKED: USER    Estimated Inhibition Constant, Ki   =   75.67 nM (nanomolar)  [Temperature = 298.15 K]
DOCKED: USER    
DOCKED: USER    (1) Final Intermolecular Energy     =  -11.50 kcal/mol
DOCKED: USER        vdW + Hbond + desolv Energy     =   -4.63 kcal/mol
DOCKED: USER        Electrostatic Energy            =   -6.87 kcal/mol
DOCKED: USER    (2) Final Total Internal Energy     =   +2.17 kcal/mol
DOCKED: USER    (3) Torsional Free Energy           =   +1.79 kcal/mol
DOCKED: USER    (4) Unbound System's Energy  [=(2)] =   +2.17 kcal/mol
DOCKED: USER    
DOCKED: USER    
DOCKED: USER    NEWDPF move 2_3_BPG_opt.pdbqt
DOCKED: USER    NEWDPF about 0.015000 0.083000 0.031000
DOCKED: USER    NEWDPF tran0 -13.275470 5.020255 11.832247
DOCKED: USER    NEWDPF quaternion0 -0.810430 0.030506 -0.441436 -0.383937
DOCKED: USER    NEWDPF axisangle0 -0.877697 0.033038 -0.478076 -134.844534
DOCKED: USER    NEWDPF quat0 -0.877697 0.033038 -0.478076 -134.844534
DOCKED: USER    NEWDPF dihe0 5.67 -140.62 89.77 3.74 -59.46 -126.54 
DOCKED: USER  keepresnum = 1 
DOCKED: USER  
DOCKED: REMARK  6 active torsions:
DOCKED: REMARK  status: ('A' for Active; 'I' for Inactive)
DOCKED: REMARK    1  A    between atoms: P_1  and  O_3 
DOCKED: REMARK    2  A    between atoms: P_2  and  O_4 
DOCKED: REMARK    3  A    between atoms: O_3  and  C_13 
DOCKED: REMARK    4  A    between atoms: O_4  and  C_14 
DOCKED: REMARK    5  A    between atoms: C_13  and  C_14 
DOCKED: REMARK    6  A    between atoms: C_13  and  C_15 
DOCKED: USER                              x       y       z     vdW  Elec       q    Type
DOCKED: USER                           _______ _______ _______ _____ _____    ______ ____
DOCKED: ROOT
DOCKED: ATOM      1  C   UNL d   1     -13.654   5.523  11.600 -0.06 +0.31    +0.193 C 
DOCKED: ENDROOT
DOCKED: BRANCH   1   2
DOCKED: ATOM      2  O   UNL d   1     -14.537   4.986  10.558 -0.27 -0.64    -0.356 OA
DOCKED: BRANCH   2   3
DOCKED: ATOM      3  P   UNL d   1     -14.675   5.653   9.061 -0.10 -0.02    -0.014 P 
DOCKED: ATOM      4  O   UNL d   1     -13.261   6.159   8.735 +0.04 -1.04    -0.577 OA
DOCKED: ATOM      5  O   UNL d   1     -15.673   6.804   9.168 +0.01 -0.54    -0.577 OA
DOCKED: ATOM      6  O   UNL d   1     -15.113   4.556   8.096 -0.41 -1.25    -0.638 OA
DOCKED: ENDBRANCH   2   3
DOCKED: ENDBRANCH   1   2
DOCKED: BRANCH   1   7
DOCKED: ATOM      7  C   UNL d   1     -12.974   4.321  12.353 -0.25 +0.25    +0.201 C 
DOCKED: BRANCH   7   8
DOCKED: ATOM      8  O   UNL d   1     -12.699   3.149  11.553 -0.49 -0.73    -0.364 OA
DOCKED: BRANCH   8   9
DOCKED: ATOM      9  P   UNL d   1     -11.159   2.554  11.457 -0.68 -0.02    -0.015 P 
DOCKED: ATOM     10  O   UNL d   1     -10.511   3.310  10.290 -0.31 -0.88    -0.577 OA
DOCKED: ATOM     11  O   UNL d   1     -11.277   1.057  11.171 -0.72 -0.55    -0.577 OA
DOCKED: ATOM     12  O   UNL d   1     -10.473   2.857  12.788 -0.69 -0.55    -0.638 OA
DOCKED: ENDBRANCH   8   9
DOCKED: ENDBRANCH   7   8
DOCKED: ENDBRANCH   1   7
DOCKED: BRANCH   1  13
DOCKED: ATOM     13  C   UNL d   1     -14.490   6.360  12.638 -0.13 +0.08    +0.073 C 
DOCKED: ATOM     14  O   UNL d   1     -15.435   5.775  13.275 +0.01 -0.34    -0.547 OA
DOCKED: ATOM     15  O   UNL d   1     -14.129   7.577  12.830 -0.56 -0.94    -0.547 OA
DOCKED: ENDBRANCH   1  13
DOCKED: TORSDOF 6
DOCKED: TER
DOCKED: ENDMDL
________________________________________________________________________________


	BEGINNING GENETIC ALGORITHM DOCKING 43 of 100
Run: 43 Seed: 1620998338 1552413627 [ Run 43 of 100 GA/GALS ]
Beginning LAMARCKIAN GENETIC ALGORITHM (LGA), with a maximum of 25000000 energy evaluations.

Final-Value: -8.430


	FINAL GENETIC ALGORITHM DOCKED STATE
	_______________________________________________


Detailed state:  trans -14.177 4.870 12.196 quatxyzw -0.317879 0.317840 0.483102 0.751361 center 0.015 0.083 0.031 ntor 6 -16.2218 -46.4584 -16.7891 18.8567 10.3342 137.7880
State:	-14.177   4.870  12.196  -0.482  0.482  0.732 82.583    -16.22  -46.46  -16.79   18.86   10.33  137.79

DOCKED: MODEL       43
DOCKED: USER    Run = 43
DOCKED: USER    DPF = D:/Protein_go_brrr/autodock/final/mut_Y35F/2_3_BPG/dock.dpf
DOCKED: USER  
DOCKED: USER    Estimated Free Energy of Binding    =   -8.71 kcal/mol  [=(1)+(2)+(3)-(4)]
DOCKED: USER    Estimated Inhibition Constant, Ki   =  410.39 nM (nanomolar)  [Temperature = 298.15 K]
DOCKED: USER    
DOCKED: USER    (1) Final Intermolecular Energy     =  -10.50 kcal/mol
DOCKED: USER        vdW + Hbond + desolv Energy     =   -4.05 kcal/mol
DOCKED: USER        Electrostatic Energy            =   -6.45 kcal/mol
DOCKED: USER    (2) Final Total Internal Energy     =   +2.07 kcal/mol
DOCKED: USER    (3) Torsional Free Energy           =   +1.79 kcal/mol
DOCKED: USER    (4) Unbound System's Energy  [=(2)] =   +2.07 kcal/mol
DOCKED: USER    
DOCKED: USER    
DOCKED: USER    NEWDPF move 2_3_BPG_opt.pdbqt
DOCKED: USER    NEWDPF about 0.015000 0.083000 0.031000
DOCKED: USER    NEWDPF tran0 -14.176719 4.869796 12.195971
DOCKED: USER    NEWDPF quaternion0 -0.317879 0.317840 0.483102 0.751361
DOCKED: USER    NEWDPF axisangle0 -0.481714 0.481655 0.732093 82.583201
DOCKED: USER    NEWDPF quat0 -0.481714 0.481655 0.732093 82.583201
DOCKED: USER    NEWDPF dihe0 -16.22 -46.46 -16.79 18.86 10.33 137.79 
DOCKED: USER  keepresnum = 1 
DOCKED: USER  
DOCKED: REMARK  6 active torsions:
DOCKED: REMARK  status: ('A' for Active; 'I' for Inactive)
DOCKED: REMARK    1  A    between atoms: P_1  and  O_3 
DOCKED: REMARK    2  A    between atoms: P_2  and  O_4 
DOCKED: REMARK    3  A    between atoms: O_3  and  C_13 
DOCKED: REMARK    4  A    between atoms: O_4  and  C_14 
DOCKED: REMARK    5  A    between atoms: C_13  and  C_14 
DOCKED: REMARK    6  A    between atoms: C_13  and  C_15 
DOCKED: USER                              x       y       z     vdW  Elec       q    Type
DOCKED: USER                           _______ _______ _______ _____ _____    ______ ____
DOCKED: ROOT
DOCKED: ATOM      1  C   UNL d   1     -14.607   5.294  11.907 -0.17 +0.22    +0.193 C 
DOCKED: ENDROOT
DOCKED: BRANCH   1   2
DOCKED: ATOM      2  O   UNL d   1     -14.032   6.643  11.971 -0.27 -0.62    -0.356 OA
DOCKED: BRANCH   2   3
DOCKED: ATOM      3  P   UNL d   1     -14.682   7.860  12.866 +0.11 -0.02    -0.014 P 
DOCKED: ATOM      4  O   UNL d   1     -13.501   8.407  13.683 -0.46 -0.79    -0.577 OA
DOCKED: ATOM      5  O   UNL d   1     -15.749   7.240  13.766 +0.01 -0.32    -0.577 OA
DOCKED: ATOM      6  O   UNL d   1     -15.233   8.909  11.905 -0.21 -0.86    -0.638 OA
DOCKED: ENDBRANCH   2   3
DOCKED: ENDBRANCH   1   2
DOCKED: BRANCH   1   7
DOCKED: ATOM      7  C   UNL d   1     -13.499   4.253  12.311 -0.22 +0.25    +0.201 C 
DOCKED: BRANCH   7   8
DOCKED: ATOM      8  O   UNL d   1     -12.343   4.195  11.446 -0.69 -0.71    -0.364 OA
DOCKED: BRANCH   8   9
DOCKED: ATOM      9  P   UNL d   1     -11.279   2.934  11.567 -0.73 -0.02    -0.015 P 
DOCKED: ATOM     10  O   UNL d   1     -10.430   3.006  10.292 -0.32 -0.84    -0.577 OA
DOCKED: ATOM     11  O   UNL d   1     -12.111   1.653  11.628 -0.17 -0.65    -0.577 OA
DOCKED: ATOM     12  O   UNL d   1     -10.446   3.166  12.826 -0.66 -0.57    -0.638 OA
DOCKED: ENDBRANCH   8   9
DOCKED: ENDBRANCH   7   8
DOCKED: ENDBRANCH   1   7
DOCKED: BRANCH   1  13
DOCKED: ATOM     13  C   UNL d   1     -15.083   4.980  10.439 -0.16 +0.11    +0.073 C 
DOCKED: ATOM     14  O   UNL d   1     -14.376   5.410   9.462 -0.07 -1.06    -0.547 OA
DOCKED: ATOM     15  O   UNL d   1     -16.131   4.249  10.311 -0.04 -0.58    -0.547 OA
DOCKED: ENDBRANCH   1  13
DOCKED: TORSDOF 6
DOCKED: TER
DOCKED: ENDMDL
________________________________________________________________________________


	BEGINNING GENETIC ALGORITHM DOCKING 44 of 100
Run: 44 Seed: 1715349634 2079135537 [ Run 44 of 100 GA/GALS ]
Beginning LAMARCKIAN GENETIC ALGORITHM (LGA), with a maximum of 25000000 energy evaluations.

Final-Value: -8.608


	FINAL GENETIC ALGORITHM DOCKED STATE
	_______________________________________________


Detailed state:  trans -13.564 5.424 11.525 quatxyzw 0.755536 -0.085821 0.500223 0.414219 center 0.015 0.083 0.031 ntor 6 180.0000 -141.2407 -170.8691 41.3932 1.3822 -69.9170
State:	-13.564   5.424  11.525   0.830 -0.094  0.550 131.060    180.00 -141.24 -170.87   41.39    1.38  -69.92

DOCKED: MODEL       44
DOCKED: USER    Run = 44
DOCKED: USER    DPF = D:/Protein_go_brrr/autodock/final/mut_Y35F/2_3_BPG/dock.dpf
DOCKED: USER  
DOCKED: USER    Estimated Free Energy of Binding    =   -8.96 kcal/mol  [=(1)+(2)+(3)-(4)]
DOCKED: USER    Estimated Inhibition Constant, Ki   =  271.21 nM (nanomolar)  [Temperature = 298.15 K]
DOCKED: USER    
DOCKED: USER    (1) Final Intermolecular Energy     =  -10.75 kcal/mol
DOCKED: USER        vdW + Hbond + desolv Energy     =   -4.08 kcal/mol
DOCKED: USER        Electrostatic Energy            =   -6.67 kcal/mol
DOCKED: USER    (2) Final Total Internal Energy     =   +2.14 kcal/mol
DOCKED: USER    (3) Torsional Free Energy           =   +1.79 kcal/mol
DOCKED: USER    (4) Unbound System's Energy  [=(2)] =   +2.14 kcal/mol
DOCKED: USER    
DOCKED: USER    
DOCKED: USER    NEWDPF move 2_3_BPG_opt.pdbqt
DOCKED: USER    NEWDPF about 0.015000 0.083000 0.031000
DOCKED: USER    NEWDPF tran0 -13.563732 5.423864 11.524626
DOCKED: USER    NEWDPF quaternion0 0.755536 -0.085821 0.500223 0.414219
DOCKED: USER    NEWDPF axisangle0 0.830097 -0.094290 0.549589 131.059776
DOCKED: USER    NEWDPF quat0 0.830097 -0.094290 0.549589 131.059776
DOCKED: USER    NEWDPF dihe0 180.00 -141.24 -170.87 41.39 1.38 -69.92 
DOCKED: USER  keepresnum = 1 
DOCKED: USER  
DOCKED: REMARK  6 active torsions:
DOCKED: REMARK  status: ('A' for Active; 'I' for Inactive)
DOCKED: REMARK    1  A    between atoms: P_1  and  O_3 
DOCKED: REMARK    2  A    between atoms: P_2  and  O_4 
DOCKED: REMARK    3  A    between atoms: O_3  and  C_13 
DOCKED: REMARK    4  A    between atoms: O_4  and  C_14 
DOCKED: REMARK    5  A    between atoms: C_13  and  C_14 
DOCKED: REMARK    6  A    between atoms: C_13  and  C_15 
DOCKED: USER                              x       y       z     vdW  Elec       q    Type
DOCKED: USER                           _______ _______ _______ _____ _____    ______ ____
DOCKED: ROOT
DOCKED: ATOM      1  C   UNL d   1     -13.860   5.993  11.331 +0.11 +0.33    +0.193 C 
DOCKED: ENDROOT
DOCKED: BRANCH   1   2
DOCKED: ATOM      2  O   UNL d   1     -14.673   5.705  10.144 -0.14 -0.56    -0.356 OA
DOCKED: BRANCH   2   3
DOCKED: ATOM      3  P   UNL d   1     -14.105   5.834   8.607 -0.17 -0.02    -0.014 P 
DOCKED: ATOM      4  O   UNL d   1     -12.632   5.406   8.705 +0.09 -1.28    -0.577 OA
DOCKED: ATOM      5  O   UNL d   1     -14.237   7.299   8.197 -0.04 -0.70    -0.577 OA
DOCKED: ATOM      6  O   UNL d   1     -14.907   4.882   7.726 -0.46 -1.08    -0.638 OA
DOCKED: ENDBRANCH   2   3
DOCKED: ENDBRANCH   1   2
DOCKED: BRANCH   1   7
DOCKED: ATOM      7  C   UNL d   1     -13.396   4.632  11.968 -0.21 +0.29    +0.201 C 
DOCKED: BRANCH   7   8
DOCKED: ATOM      8  O   UNL d   1     -12.145   4.101  11.478 -0.70 -0.67    -0.364 OA
DOCKED: BRANCH   8   9
DOCKED: ATOM      9  P   UNL d   1     -11.612   2.622  11.995 -0.75 -0.02    -0.015 P 
DOCKED: ATOM     10  O   UNL d   1     -12.806   2.003  12.731 -0.12 -0.36    -0.577 OA
DOCKED: ATOM     11  O   UNL d   1     -10.432   2.876  12.932 -0.71 -0.47    -0.577 OA
DOCKED: ATOM     12  O   UNL d   1     -11.226   1.822  10.751 -0.28 -0.92    -0.638 OA
DOCKED: ENDBRANCH   8   9
DOCKED: ENDBRANCH   7   8
DOCKED: ENDBRANCH   1   7
DOCKED: BRANCH   1  13
DOCKED: ATOM     13  C   UNL d   1     -14.714   6.781  12.393 -0.10 +0.09    +0.073 C 
DOCKED: ATOM     14  O   UNL d   1     -14.258   7.890  12.843 -0.61 -0.95    -0.547 OA
DOCKED: ATOM     15  O   UNL d   1     -15.860   6.290  12.699 +0.00 -0.36    -0.547 OA
DOCKED: ENDBRANCH   1  13
DOCKED: TORSDOF 6
DOCKED: TER
DOCKED: ENDMDL
________________________________________________________________________________


	BEGINNING GENETIC ALGORITHM DOCKING 45 of 100
Run: 45 Seed: 1142382106 680297984 [ Run 45 of 100 GA/GALS ]
Beginning LAMARCKIAN GENETIC ALGORITHM (LGA), with a maximum of 25000000 energy evaluations.

Final-Value: -8.762


	FINAL GENETIC ALGORITHM DOCKED STATE
	_______________________________________________


Detailed state:  trans -13.656 4.740 12.822 quatxyzw -0.192443 0.196896 0.478635 0.833730 center 0.015 0.083 0.031 ntor 6 174.5361 -50.4538 -177.7684 16.0594 -15.3971 104.7895
State:	-13.656   4.740  12.822  -0.349  0.357  0.867 67.032    174.54  -50.45 -177.77   16.06  -15.40  104.79

DOCKED: MODEL       45
DOCKED: USER    Run = 45
DOCKED: USER    DPF = D:/Protein_go_brrr/autodock/final/mut_Y35F/2_3_BPG/dock.dpf
DOCKED: USER  
DOCKED: USER    Estimated Free Energy of Binding    =   -9.10 kcal/mol  [=(1)+(2)+(3)-(4)]
DOCKED: USER    Estimated Inhibition Constant, Ki   =  214.16 nM (nanomolar)  [Temperature = 298.15 K]
DOCKED: USER    
DOCKED: USER    (1) Final Intermolecular Energy     =  -10.89 kcal/mol
DOCKED: USER        vdW + Hbond + desolv Energy     =   -4.61 kcal/mol
DOCKED: USER        Electrostatic Energy            =   -6.28 kcal/mol
DOCKED: USER    (2) Final Total Internal Energy     =   +2.13 kcal/mol
DOCKED: USER    (3) Torsional Free Energy           =   +1.79 kcal/mol
DOCKED: USER    (4) Unbound System's Energy  [=(2)] =   +2.13 kcal/mol
DOCKED: USER    
DOCKED: USER    
DOCKED: USER    NEWDPF move 2_3_BPG_opt.pdbqt
DOCKED: USER    NEWDPF about 0.015000 0.083000 0.031000
DOCKED: USER    NEWDPF tran0 -13.656400 4.740379 12.822137
DOCKED: USER    NEWDPF quaternion0 -0.192443 0.196896 0.478635 0.833730
DOCKED: USER    NEWDPF axisangle0 -0.348521 0.356585 0.866822 67.032293
DOCKED: USER    NEWDPF quat0 -0.348521 0.356585 0.866822 67.032293
DOCKED: USER    NEWDPF dihe0 174.54 -50.45 -177.77 16.06 -15.40 104.79 
DOCKED: USER  keepresnum = 1 
DOCKED: USER  
DOCKED: REMARK  6 active torsions:
DOCKED: REMARK  status: ('A' for Active; 'I' for Inactive)
DOCKED: REMARK    1  A    between atoms: P_1  and  O_3 
DOCKED: REMARK    2  A    between atoms: P_2  and  O_4 
DOCKED: REMARK    3  A    between atoms: O_3  and  C_13 
DOCKED: REMARK    4  A    between atoms: O_4  and  C_14 
DOCKED: REMARK    5  A    between atoms: C_13  and  C_14 
DOCKED: REMARK    6  A    between atoms: C_13  and  C_15 
DOCKED: USER                              x       y       z     vdW  Elec       q    Type
DOCKED: USER                           _______ _______ _______ _____ _____    ______ ____
DOCKED: ROOT
DOCKED: ATOM      1  C   UNL d   1     -14.201   5.094  12.658 -0.17 +0.19    +0.193 C 
DOCKED: ENDROOT
DOCKED: BRANCH   1   2
DOCKED: ATOM      2  O   UNL d   1     -13.783   6.470  12.367 -0.29 -0.56    -0.356 OA
DOCKED: BRANCH   2   3
DOCKED: ATOM      3  P   UNL d   1     -14.266   7.767  13.255 +0.06 -0.02    -0.014 P 
DOCKED: ATOM      4  O   UNL d   1     -12.957   8.452  13.677 -0.33 -0.86    -0.577 OA
DOCKED: ATOM      5  O   UNL d   1     -15.033   7.229  14.462 +0.01 -0.30    -0.577 OA
DOCKED: ATOM      6  O   UNL d   1     -15.105   8.668  12.355 -0.39 -0.84    -0.638 OA
DOCKED: ENDBRANCH   2   3
DOCKED: ENDBRANCH   1   2
DOCKED: BRANCH   1   7
DOCKED: ATOM      7  C   UNL d   1     -12.920   4.187  12.759 -0.26 +0.20    +0.201 C 
DOCKED: BRANCH   7   8
DOCKED: ATOM      8  O   UNL d   1     -12.555   3.476  11.556 -0.64 -0.73    -0.364 OA
DOCKED: BRANCH   8   9
DOCKED: ATOM      9  P   UNL d   1     -11.077   2.742  11.442 -0.66 -0.02    -0.015 P 
DOCKED: ATOM     10  O   UNL d   1     -10.431   2.929  12.821 -0.73 -0.50    -0.577 OA
DOCKED: ATOM     11  O   UNL d   1     -10.300   3.469  10.345 -0.31 -0.81    -0.577 OA
DOCKED: ATOM     12  O   UNL d   1     -11.328   1.269  11.122 -0.56 -0.69    -0.638 OA
DOCKED: ENDBRANCH   8   9
DOCKED: ENDBRANCH   7   8
DOCKED: ENDBRANCH   1   7
DOCKED: BRANCH   1  13
DOCKED: ATOM     13  C   UNL d   1     -15.113   4.551  11.495 -0.20 +0.08    +0.073 C 
DOCKED: ATOM     14  O   UNL d   1     -16.217   3.976  11.801 -0.06 -0.39    -0.547 OA
DOCKED: ATOM     15  O   UNL d   1     -14.721   4.775  10.294 -0.07 -1.05    -0.547 OA
DOCKED: ENDBRANCH   1  13
DOCKED: TORSDOF 6
DOCKED: TER
DOCKED: ENDMDL
________________________________________________________________________________


	BEGINNING GENETIC ALGORITHM DOCKING 46 of 100
Run: 46 Seed: 379062183 897132189 [ Run 46 of 100 GA/GALS ]
Beginning LAMARCKIAN GENETIC ALGORITHM (LGA), with a maximum of 25000000 energy evaluations.

Final-Value: -8.592


	FINAL GENETIC ALGORITHM DOCKED STATE
	_______________________________________________


Detailed state:  trans -13.127 6.114 7.859 quatxyzw -0.796691 -0.280757 0.461758 0.270627 center 0.015 0.083 0.031 ntor 6 -163.2083 -39.1277 149.6222 -30.3460 -112.7552 -96.5828
State:	-13.127   6.114   7.859  -0.828 -0.292  0.480 148.597   -163.21  -39.13  149.62  -30.35 -112.76  -96.58

DOCKED: MODEL       46
DOCKED: USER    Run = 46
DOCKED: USER    DPF = D:/Protein_go_brrr/autodock/final/mut_Y35F/2_3_BPG/dock.dpf
DOCKED: USER  
DOCKED: USER    Estimated Free Energy of Binding    =   -9.27 kcal/mol  [=(1)+(2)+(3)-(4)]
DOCKED: USER    Estimated Inhibition Constant, Ki   =  161.48 nM (nanomolar)  [Temperature = 298.15 K]
DOCKED: USER    
DOCKED: USER    (1) Final Intermolecular Energy     =  -11.06 kcal/mol
DOCKED: USER        vdW + Hbond + desolv Energy     =   -3.74 kcal/mol
DOCKED: USER        Electrostatic Energy            =   -7.32 kcal/mol
DOCKED: USER    (2) Final Total Internal Energy     =   +2.46 kcal/mol
DOCKED: USER    (3) Torsional Free Energy           =   +1.79 kcal/mol
DOCKED: USER    (4) Unbound System's Energy  [=(2)] =   +2.46 kcal/mol
DOCKED: USER    
DOCKED: USER    
DOCKED: USER    NEWDPF move 2_3_BPG_opt.pdbqt
DOCKED: USER    NEWDPF about 0.015000 0.083000 0.031000
DOCKED: USER    NEWDPF tran0 -13.126576 6.113502 7.858578
DOCKED: USER    NEWDPF quaternion0 -0.796691 -0.280757 0.461758 0.270627
DOCKED: USER    NEWDPF axisangle0 -0.827572 -0.291640 0.479657 148.596899
DOCKED: USER    NEWDPF quat0 -0.827572 -0.291640 0.479657 148.596899
DOCKED: USER    NEWDPF dihe0 -163.21 -39.13 149.62 -30.35 -112.76 -96.58 
DOCKED: USER  keepresnum = 1 
DOCKED: USER  
DOCKED: REMARK  6 active torsions:
DOCKED: REMARK  status: ('A' for Active; 'I' for Inactive)
DOCKED: REMARK    1  A    between atoms: P_1  and  O_3 
DOCKED: REMARK    2  A    between atoms: P_2  and  O_4 
DOCKED: REMARK    3  A    between atoms: O_3  and  C_13 
DOCKED: REMARK    4  A    between atoms: O_4  and  C_14 
DOCKED: REMARK    5  A    between atoms: C_13  and  C_14 
DOCKED: REMARK    6  A    between atoms: C_13  and  C_15 
DOCKED: USER                              x       y       z     vdW  Elec       q    Type
DOCKED: USER                           _______ _______ _______ _____ _____    ______ ____
DOCKED: ROOT
DOCKED: ATOM      1  C   UNL d   1     -13.642   6.151   8.285 -0.13 +0.30    +0.193 C 
DOCKED: ENDROOT
DOCKED: BRANCH   1   2
DOCKED: ATOM      2  O   UNL d   1     -13.147   5.832   9.629 +0.15 -0.77    -0.356 OA
DOCKED: BRANCH   2   3
DOCKED: ATOM      3  P   UNL d   1     -14.131   5.411  10.878 -0.20 -0.02    -0.014 P 
DOCKED: ATOM      4  O   UNL d   1     -13.410   4.233  11.553 -0.62 -1.10    -0.577 OA
DOCKED: ATOM      5  O   UNL d   1     -15.467   4.980  10.275 -0.05 -0.75    -0.577 OA
DOCKED: ATOM      6  O   UNL d   1     -14.244   6.609  11.814 -0.21 -1.04    -0.638 OA
DOCKED: ENDBRANCH   2   3
DOCKED: ENDBRANCH   1   2
DOCKED: BRANCH   1   7
DOCKED: ATOM      7  C   UNL d   1     -12.410   6.354   7.329 -0.21 +0.24    +0.201 C 
DOCKED: BRANCH   7   8
DOCKED: ATOM      8  O   UNL d   1     -11.565   5.199   7.135 -0.28 -0.47    -0.364 OA
DOCKED: BRANCH   8   9
DOCKED: ATOM      9  P   UNL d   1     -12.117   3.903   6.267 -0.40 -0.02    -0.015 P 
DOCKED: ATOM     10  O   UNL d   1     -13.640   3.920   6.449 -0.19 -0.87    -0.577 OA
DOCKED: ATOM     11  O   UNL d   1     -11.483   2.654   6.878 -0.53 -0.96    -0.577 OA
DOCKED: ATOM     12  O   UNL d   1     -11.711   4.129   4.811 -0.57 -0.53    -0.638 OA
DOCKED: ENDBRANCH   8   9
DOCKED: ENDBRANCH   7   8
DOCKED: ENDBRANCH   1   7
DOCKED: BRANCH   1  13
DOCKED: ATOM     13  C   UNL d   1     -14.479   7.484   8.321 -0.09 +0.09    +0.073 C 
DOCKED: ATOM     14  O   UNL d   1     -15.747   7.414   8.157 +0.02 -0.40    -0.547 OA
DOCKED: ATOM     15  O   UNL d   1     -13.839   8.567   8.577 -0.41 -1.00    -0.547 OA
DOCKED: ENDBRANCH   1  13
DOCKED: TORSDOF 6
DOCKED: TER
DOCKED: ENDMDL
________________________________________________________________________________


	BEGINNING GENETIC ALGORITHM DOCKING 47 of 100
Run: 47 Seed: 17366088 1545046073 [ Run 47 of 100 GA/GALS ]
Beginning LAMARCKIAN GENETIC ALGORITHM (LGA), with a maximum of 25000000 energy evaluations.

Final-Value: -8.603


	FINAL GENETIC ALGORITHM DOCKED STATE
	_______________________________________________


Detailed state:  trans -13.939 6.327 7.515 quatxyzw -0.780904 0.064297 0.594761 0.179760 center 0.015 0.083 0.031 ntor 6 114.0435 -152.8265 -83.6026 43.2431 5.4905 -154.0259
State:	-13.939   6.327   7.515  -0.794  0.065  0.605 159.288    114.04 -152.83  -83.60   43.24    5.49 -154.03

DOCKED: MODEL       47
DOCKED: USER    Run = 47
DOCKED: USER    DPF = D:/Protein_go_brrr/autodock/final/mut_Y35F/2_3_BPG/dock.dpf
DOCKED: USER  
DOCKED: USER    Estimated Free Energy of Binding    =   -9.04 kcal/mol  [=(1)+(2)+(3)-(4)]
DOCKED: USER    Estimated Inhibition Constant, Ki   =  235.89 nM (nanomolar)  [Temperature = 298.15 K]
DOCKED: USER    
DOCKED: USER    (1) Final Intermolecular Energy     =  -10.83 kcal/mol
DOCKED: USER        vdW + Hbond + desolv Energy     =   -3.69 kcal/mol
DOCKED: USER        Electrostatic Energy            =   -7.15 kcal/mol
DOCKED: USER    (2) Final Total Internal Energy     =   +2.23 kcal/mol
DOCKED: USER    (3) Torsional Free Energy           =   +1.79 kcal/mol
DOCKED: USER    (4) Unbound System's Energy  [=(2)] =   +2.23 kcal/mol
DOCKED: USER    
DOCKED: USER    
DOCKED: USER    NEWDPF move 2_3_BPG_opt.pdbqt
DOCKED: USER    NEWDPF about 0.015000 0.083000 0.031000
DOCKED: USER    NEWDPF tran0 -13.939417 6.326964 7.514751
DOCKED: USER    NEWDPF quaternion0 -0.780904 0.064297 0.594761 0.179760
DOCKED: USER    NEWDPF axisangle0 -0.793836 0.065362 0.604610 159.288495
DOCKED: USER    NEWDPF quat0 -0.793836 0.065362 0.604610 159.288495
DOCKED: USER    NEWDPF dihe0 114.04 -152.83 -83.60 43.24 5.49 -154.03 
DOCKED: USER  keepresnum = 1 
DOCKED: USER  
DOCKED: REMARK  6 active torsions:
DOCKED: REMARK  status: ('A' for Active; 'I' for Inactive)
DOCKED: REMARK    1  A    between atoms: P_1  and  O_3 
DOCKED: REMARK    2  A    between atoms: P_2  and  O_4 
DOCKED: REMARK    3  A    between atoms: O_3  and  C_13 
DOCKED: REMARK    4  A    between atoms: O_4  and  C_14 
DOCKED: REMARK    5  A    between atoms: C_13  and  C_14 
DOCKED: REMARK    6  A    between atoms: C_13  and  C_15 
DOCKED: USER                              x       y       z     vdW  Elec       q    Type
DOCKED: USER                           _______ _______ _______ _____ _____    ______ ____
DOCKED: ROOT
DOCKED: ATOM      1  C   UNL d   1     -14.230   6.781   7.913 -0.10 +0.22    +0.193 C 
DOCKED: ENDROOT
DOCKED: BRANCH   1   2
DOCKED: ATOM      2  O   UNL d   1     -13.826   6.503   9.296 -0.04 -0.64    -0.356 OA
DOCKED: BRANCH   2   3
DOCKED: ATOM      3  P   UNL d   1     -14.652   5.488  10.291 -0.21 -0.02    -0.014 P 
DOCKED: ATOM      4  O   UNL d   1     -15.421   4.559   9.338 -0.09 -0.98    -0.577 OA
DOCKED: ATOM      5  O   UNL d   1     -15.601   6.345  11.126 -0.01 -0.57    -0.577 OA
DOCKED: ATOM      6  O   UNL d   1     -13.636   4.716  11.126 -0.47 -1.33    -0.638 OA
DOCKED: ENDBRANCH   2   3
DOCKED: ENDBRANCH   1   2
DOCKED: BRANCH   1   7
DOCKED: ATOM      7  C   UNL d   1     -13.339   5.920   6.943 -0.17 +0.23    +0.201 C 
DOCKED: BRANCH   7   8
DOCKED: ATOM      8  O   UNL d   1     -12.440   4.984   7.578 -0.11 -0.72    -0.364 OA
DOCKED: BRANCH   8   9
DOCKED: ATOM      9  P   UNL d   1     -11.310   4.179   6.677 -0.57 -0.02    -0.015 P 
DOCKED: ATOM     10  O   UNL d   1     -10.007   4.963   6.880 -0.12 -0.41    -0.577 OA
DOCKED: ATOM     11  O   UNL d   1     -11.782   4.224   5.225 -0.62 -0.50    -0.577 OA
DOCKED: ATOM     12  O   UNL d   1     -11.217   2.759   7.233 -0.56 -1.20    -0.638 OA
DOCKED: ENDBRANCH   8   9
DOCKED: ENDBRANCH   7   8
DOCKED: ENDBRANCH   1   7
DOCKED: BRANCH   1  13
DOCKED: ATOM     13  C   UNL d   1     -14.008   8.304   7.582 -0.09 +0.07    +0.073 C 
DOCKED: ATOM     14  O   UNL d   1     -14.079   8.681   6.360 +0.02 -0.28    -0.547 OA
DOCKED: ATOM     15  O   UNL d   1     -13.830   9.096   8.577 -0.53 -0.99    -0.547 OA
DOCKED: ENDBRANCH   1  13
DOCKED: TORSDOF 6
DOCKED: TER
DOCKED: ENDMDL
________________________________________________________________________________


	BEGINNING GENETIC ALGORITHM DOCKING 48 of 100
Run: 48 Seed: 1169665964 1652167617 [ Run 48 of 100 GA/GALS ]
Beginning LAMARCKIAN GENETIC ALGORITHM (LGA), with a maximum of 25000000 energy evaluations.

Final-Value: -8.720


	FINAL GENETIC ALGORITHM DOCKED STATE
	_______________________________________________


Detailed state:  trans -13.034 6.592 8.005 quatxyzw 0.352721 -0.077251 0.930810 -0.056683 center 0.015 0.083 0.031 ntor 6 91.8165 -115.7997 -141.9095 86.4427 66.8552 14.7998
State:	-13.034   6.592   8.005   0.353 -0.077  0.932 -173.501     91.82 -115.80 -141.91   86.44   66.86   14.80

DOCKED: MODEL       48
DOCKED: USER    Run = 48
DOCKED: USER    DPF = D:/Protein_go_brrr/autodock/final/mut_Y35F/2_3_BPG/dock.dpf
DOCKED: USER  
DOCKED: USER    Estimated Free Energy of Binding    =   -9.29 kcal/mol  [=(1)+(2)+(3)-(4)]
DOCKED: USER    Estimated Inhibition Constant, Ki   =  155.75 nM (nanomolar)  [Temperature = 298.15 K]
DOCKED: USER    
DOCKED: USER    (1) Final Intermolecular Energy     =  -11.08 kcal/mol
DOCKED: USER        vdW + Hbond + desolv Energy     =   -3.84 kcal/mol
DOCKED: USER        Electrostatic Energy            =   -7.24 kcal/mol
DOCKED: USER    (2) Final Total Internal Energy     =   +2.36 kcal/mol
DOCKED: USER    (3) Torsional Free Energy           =   +1.79 kcal/mol
DOCKED: USER    (4) Unbound System's Energy  [=(2)] =   +2.36 kcal/mol
DOCKED: USER    
DOCKED: USER    
DOCKED: USER    NEWDPF move 2_3_BPG_opt.pdbqt
DOCKED: USER    NEWDPF about 0.015000 0.083000 0.031000
DOCKED: USER    NEWDPF tran0 -13.033899 6.592099 8.005128
DOCKED: USER    NEWDPF quaternion0 0.352721 -0.077251 0.930810 -0.056683
DOCKED: USER    NEWDPF axisangle0 0.353289 -0.077375 0.932309 -173.501137
DOCKED: USER    NEWDPF quat0 0.353289 -0.077375 0.932309 -173.501137
DOCKED: USER    NEWDPF dihe0 91.82 -115.80 -141.91 86.44 66.86 14.80 
DOCKED: USER  keepresnum = 1 
DOCKED: USER  
DOCKED: REMARK  6 active torsions:
DOCKED: REMARK  status: ('A' for Active; 'I' for Inactive)
DOCKED: REMARK    1  A    between atoms: P_1  and  O_3 
DOCKED: REMARK    2  A    between atoms: P_2  and  O_4 
DOCKED: REMARK    3  A    between atoms: O_3  and  C_13 
DOCKED: REMARK    4  A    between atoms: O_4  and  C_14 
DOCKED: REMARK    5  A    between atoms: C_13  and  C_14 
DOCKED: REMARK    6  A    between atoms: C_13  and  C_15 
DOCKED: USER                              x       y       z     vdW  Elec       q    Type
DOCKED: USER                           _______ _______ _______ _____ _____    ______ ____
DOCKED: ROOT
DOCKED: ATOM      1  C   UNL d   1     -12.487   6.851   7.716 -0.11 +0.24    +0.193 C 
DOCKED: ENDROOT
DOCKED: BRANCH   1   2
DOCKED: ATOM      2  O   UNL d   1     -12.250   6.133   6.460 -0.16 -0.33    -0.356 OA
DOCKED: BRANCH   2   3
DOCKED: ATOM      3  P   UNL d   1     -12.310   4.494   6.331 -0.44 -0.02    -0.014 P 
DOCKED: ATOM      4  O   UNL d   1     -13.744   4.130   6.745 -0.20 -1.09    -0.577 OA
DOCKED: ATOM      5  O   UNL d   1     -11.282   3.926   7.307 -0.56 -1.05    -0.577 OA
DOCKED: ATOM      6  O   UNL d   1     -12.036   4.125   4.877 -0.62 -0.53    -0.638 OA
DOCKED: ENDBRANCH   2   3
DOCKED: ENDBRANCH   1   2
DOCKED: BRANCH   1   7
DOCKED: ATOM      7  C   UNL d   1     -13.912   6.463   8.258 -0.12 +0.28    +0.201 C 
DOCKED: BRANCH   7   8
DOCKED: ATOM      8  O   UNL d   1     -14.255   6.986   9.561 -0.04 -0.63    -0.364 OA
DOCKED: BRANCH   8   9
DOCKED: ATOM      9  P   UNL d   1     -14.372   5.968  10.859 -0.16 -0.02    -0.015 P 
DOCKED: ATOM     10  O   UNL d   1     -13.208   4.983  10.700 -0.38 -1.37    -0.577 OA
DOCKED: ATOM     11  O   UNL d   1     -15.728   5.270  10.759 -0.03 -0.59    -0.577 OA
DOCKED: ATOM     12  O   UNL d   1     -14.232   6.824  12.117 -0.30 -1.06    -0.638 OA
DOCKED: ENDBRANCH   8   9
DOCKED: ENDBRANCH   7   8
DOCKED: ENDBRANCH   1   7
DOCKED: BRANCH   1  13
DOCKED: ATOM     13  C   UNL d   1     -12.450   8.405   7.465 -0.16 +0.08    +0.073 C 
DOCKED: ATOM     14  O   UNL d   1     -13.230   9.154   8.151 -0.48 -0.83    -0.547 OA
DOCKED: ATOM     15  O   UNL d   1     -11.584   8.838   6.622 -0.06 -0.32    -0.547 OA
DOCKED: ENDBRANCH   1  13
DOCKED: TORSDOF 6
DOCKED: TER
DOCKED: ENDMDL
________________________________________________________________________________


	BEGINNING GENETIC ALGORITHM DOCKING 49 of 100
Run: 49 Seed: 1139390181 255678516 [ Run 49 of 100 GA/GALS ]
Beginning LAMARCKIAN GENETIC ALGORITHM (LGA), with a maximum of 25000000 energy evaluations.

Final-Value: -8.402


	FINAL GENETIC ALGORITHM DOCKED STATE
	_______________________________________________


Detailed state:  trans -14.226 5.096 11.260 quatxyzw 0.253412 0.433261 -0.863191 0.054492 center 0.015 0.083 0.031 ntor 6 -114.5360 -146.4790 110.8664 12.0356 22.7846 -54.2347
State:	-14.226   5.096  11.260   0.254  0.434 -0.864 173.753   -114.54 -146.48  110.87   12.04   22.78  -54.23

DOCKED: MODEL       49
DOCKED: USER    Run = 49
DOCKED: USER    DPF = D:/Protein_go_brrr/autodock/final/mut_Y35F/2_3_BPG/dock.dpf
DOCKED: USER  
DOCKED: USER    Estimated Free Energy of Binding    =   -8.75 kcal/mol  [=(1)+(2)+(3)-(4)]
DOCKED: USER    Estimated Inhibition Constant, Ki   =  387.63 nM (nanomolar)  [Temperature = 298.15 K]
DOCKED: USER    
DOCKED: USER    (1) Final Intermolecular Energy     =  -10.54 kcal/mol
DOCKED: USER        vdW + Hbond + desolv Energy     =   -4.35 kcal/mol
DOCKED: USER        Electrostatic Energy            =   -6.18 kcal/mol
DOCKED: USER    (2) Final Total Internal Energy     =   +2.13 kcal/mol
DOCKED: USER    (3) Torsional Free Energy           =   +1.79 kcal/mol
DOCKED: USER    (4) Unbound System's Energy  [=(2)] =   +2.13 kcal/mol
DOCKED: USER    
DOCKED: USER    
DOCKED: USER    NEWDPF move 2_3_BPG_opt.pdbqt
DOCKED: USER    NEWDPF about 0.015000 0.083000 0.031000
DOCKED: USER    NEWDPF tran0 -14.225555 5.095824 11.259609
DOCKED: USER    NEWDPF quaternion0 0.253412 0.433261 -0.863191 0.054492
DOCKED: USER    NEWDPF axisangle0 0.253790 0.433905 -0.864475 173.752588
DOCKED: USER    NEWDPF quat0 0.253790 0.433905 -0.864475 173.752588
DOCKED: USER    NEWDPF dihe0 -114.54 -146.48 110.87 12.04 22.78 -54.23 
DOCKED: USER  keepresnum = 1 
DOCKED: USER  
DOCKED: REMARK  6 active torsions:
DOCKED: REMARK  status: ('A' for Active; 'I' for Inactive)
DOCKED: REMARK    1  A    between atoms: P_1  and  O_3 
DOCKED: REMARK    2  A    between atoms: P_2  and  O_4 
DOCKED: REMARK    3  A    between atoms: O_3  and  C_13 
DOCKED: REMARK    4  A    between atoms: O_4  and  C_14 
DOCKED: REMARK    5  A    between atoms: C_13  and  C_14 
DOCKED: REMARK    6  A    between atoms: C_13  and  C_15 
DOCKED: USER                              x       y       z     vdW  Elec       q    Type
DOCKED: USER                           _______ _______ _______ _____ _____    ______ ____
DOCKED: ROOT
DOCKED: ATOM      1  C   UNL d   1     -13.803   5.038  11.776 -0.19 +0.28    +0.193 C 
DOCKED: ENDROOT
DOCKED: BRANCH   1   2
DOCKED: ATOM      2  O   UNL d   1     -12.482   4.678  11.248 -0.64 -0.72    -0.356 OA
DOCKED: BRANCH   2   3
DOCKED: ATOM      3  P   UNL d   1     -11.688   3.299  11.664 -0.53 -0.02    -0.014 P 
DOCKED: ATOM      4  O   UNL d   1     -12.807   2.293  11.977 -0.20 -0.72    -0.577 OA
DOCKED: ATOM      5  O   UNL d   1     -10.853   3.614  12.904 -0.61 -0.49    -0.577 OA
DOCKED: ATOM      6  O   UNL d   1     -10.855   2.856  10.467 -0.23 -1.06    -0.638 OA
DOCKED: ENDBRANCH   2   3
DOCKED: ENDBRANCH   1   2
DOCKED: BRANCH   1   7
DOCKED: ATOM      7  C   UNL d   1     -14.728   5.461  10.577 -0.16 +0.30    +0.201 C 
DOCKED: BRANCH   7   8
DOCKED: ATOM      8  O   UNL d   1     -15.732   4.498  10.185 -0.11 -0.47    -0.364 OA
DOCKED: BRANCH   8   9
DOCKED: ATOM      9  P   UNL d   1     -16.313   4.489   8.636 -0.23 -0.02    -0.015 P 
DOCKED: ATOM     10  O   UNL d   1     -17.087   5.806   8.494 +0.02 -0.32    -0.577 OA
DOCKED: ATOM     11  O   UNL d   1     -17.230   3.272   8.511 -0.41 -0.41    -0.577 OA
DOCKED: ATOM     12  O   UNL d   1     -15.107   4.428   7.701 -0.48 -1.16    -0.638 OA
DOCKED: ENDBRANCH   8   9
DOCKED: ENDBRANCH   7   8
DOCKED: ENDBRANCH   1   7
DOCKED: BRANCH   1  13
DOCKED: ATOM     13  C   UNL d   1     -13.674   6.255  12.767 -0.06 +0.09    +0.073 C 
DOCKED: ATOM     14  O   UNL d   1     -12.953   6.115  13.817 -0.04 -0.47    -0.547 OA
DOCKED: ATOM     15  O   UNL d   1     -14.257   7.347  12.427 -0.48 -1.00    -0.547 OA
DOCKED: ENDBRANCH   1  13
DOCKED: TORSDOF 6
DOCKED: TER
DOCKED: ENDMDL
________________________________________________________________________________


	BEGINNING GENETIC ALGORITHM DOCKING 50 of 100
Run: 50 Seed: 939093227 298072469 [ Run 50 of 100 GA/GALS ]
Beginning LAMARCKIAN GENETIC ALGORITHM (LGA), with a maximum of 25000000 energy evaluations.

Final-Value: -8.431


	FINAL GENETIC ALGORITHM DOCKED STATE
	_______________________________________________


Detailed state:  trans -13.813 4.867 11.944 quatxyzw -0.253793 -0.408729 0.876649 -0.004132 center 0.015 0.083 0.031 ntor 6 -126.7675 -166.1485 177.6546 45.6189 9.8848 -176.5225
State:	-13.813   4.867  11.944  -0.254 -0.409  0.877 -179.527   -126.77 -166.15  177.65   45.62    9.88 -176.52

DOCKED: MODEL       50
DOCKED: USER    Run = 50
DOCKED: USER    DPF = D:/Protein_go_brrr/autodock/final/mut_Y35F/2_3_BPG/dock.dpf
DOCKED: USER  
DOCKED: USER    Estimated Free Energy of Binding    =   -8.88 kcal/mol  [=(1)+(2)+(3)-(4)]
DOCKED: USER    Estimated Inhibition Constant, Ki   =  311.46 nM (nanomolar)  [Temperature = 298.15 K]
DOCKED: USER    
DOCKED: USER    (1) Final Intermolecular Energy     =  -10.67 kcal/mol
DOCKED: USER        vdW + Hbond + desolv Energy     =   -3.97 kcal/mol
DOCKED: USER        Electrostatic Energy            =   -6.70 kcal/mol
DOCKED: USER    (2) Final Total Internal Energy     =   +2.23 kcal/mol
DOCKED: USER    (3) Torsional Free Energy           =   +1.79 kcal/mol
DOCKED: USER    (4) Unbound System's Energy  [=(2)] =   +2.23 kcal/mol
DOCKED: USER    
DOCKED: USER    
DOCKED: USER    NEWDPF move 2_3_BPG_opt.pdbqt
DOCKED: USER    NEWDPF about 0.015000 0.083000 0.031000
DOCKED: USER    NEWDPF tran0 -13.812755 4.866582 11.943889
DOCKED: USER    NEWDPF quaternion0 -0.253793 -0.408729 0.876649 -0.004132
DOCKED: USER    NEWDPF axisangle0 -0.253795 -0.408733 0.876656 -179.526506
DOCKED: USER    NEWDPF quat0 -0.253795 -0.408733 0.876656 -179.526506
DOCKED: USER    NEWDPF dihe0 -126.77 -166.15 177.65 45.62 9.88 -176.52 
DOCKED: USER  keepresnum = 1 
DOCKED: USER  
DOCKED: REMARK  6 active torsions:
DOCKED: REMARK  status: ('A' for Active; 'I' for Inactive)
DOCKED: REMARK    1  A    between atoms: P_1  and  O_3 
DOCKED: REMARK    2  A    between atoms: P_2  and  O_4 
DOCKED: REMARK    3  A    between atoms: O_3  and  C_13 
DOCKED: REMARK    4  A    between atoms: O_4  and  C_14 
DOCKED: REMARK    5  A    between atoms: C_13  and  C_14 
DOCKED: REMARK    6  A    between atoms: C_13  and  C_15 
DOCKED: USER                              x       y       z     vdW  Elec       q    Type
DOCKED: USER                           _______ _______ _______ _____ _____    ______ ____
DOCKED: ROOT
DOCKED: ATOM      1  C   UNL d   1     -13.406   4.882  12.477 -0.21 +0.22    +0.193 C 
DOCKED: ENDROOT
DOCKED: BRANCH   1   2
DOCKED: ATOM      2  O   UNL d   1     -12.044   4.585  12.022 -0.28 -0.49    -0.356 OA
DOCKED: BRANCH   2   3
DOCKED: ATOM      3  P   UNL d   1     -11.454   3.057  11.876 -0.70 -0.02    -0.014 P 
DOCKED: ATOM      4  O   UNL d   1     -12.682   2.152  12.062 -0.18 -0.64    -0.577 OA
DOCKED: ATOM      5  O   UNL d   1     -10.435   2.857  12.996 -0.69 -0.45    -0.577 OA
DOCKED: ATOM      6  O   UNL d   1     -10.858   2.912  10.480 -0.23 -1.06    -0.638 OA
DOCKED: ENDBRANCH   2   3
DOCKED: ENDBRANCH   1   2
DOCKED: BRANCH   1   7
DOCKED: ATOM      7  C   UNL d   1     -14.315   5.137  11.218 -0.16 +0.31    +0.201 C 
DOCKED: BRANCH   7   8
DOCKED: ATOM      8  O   UNL d   1     -13.618   5.413   9.983 -0.21 -0.82    -0.364 OA
DOCKED: BRANCH   8   9
DOCKED: ATOM      9  P   UNL d   1     -14.444   6.006   8.679 -0.20 -0.02    -0.015 P 
DOCKED: ATOM     10  O   UNL d   1     -15.898   6.128   9.149 +0.00 -0.53    -0.577 OA
DOCKED: ATOM     11  O   UNL d   1     -14.292   4.985   7.552 -0.39 -1.09    -0.577 OA
DOCKED: ATOM     12  O   UNL d   1     -13.835   7.366   8.340 -0.07 -0.91    -0.638 OA
DOCKED: ENDBRANCH   8   9
DOCKED: ENDBRANCH   7   8
DOCKED: ENDBRANCH   1   7
DOCKED: BRANCH   1  13
DOCKED: ATOM     13  C   UNL d   1     -13.406   6.179  13.370 -0.13 +0.07    +0.073 C 
DOCKED: ATOM     14  O   UNL d   1     -12.921   6.106  14.553 -0.01 -0.33    -0.547 OA
DOCKED: ATOM     15  O   UNL d   1     -13.840   7.259  12.828 -0.50 -0.95    -0.547 OA
DOCKED: ENDBRANCH   1  13
DOCKED: TORSDOF 6
DOCKED: TER
DOCKED: ENDMDL
________________________________________________________________________________


	BEGINNING GENETIC ALGORITHM DOCKING 51 of 100
Run: 51 Seed: 883991059 1457140560 [ Run 51 of 100 GA/GALS ]
Beginning LAMARCKIAN GENETIC ALGORITHM (LGA), with a maximum of 25000000 energy evaluations.

Final-Value: -8.443


	FINAL GENETIC ALGORITHM DOCKED STATE
	_______________________________________________


Detailed state:  trans -14.346 6.021 7.987 quatxyzw 0.688067 0.002181 -0.669047 -0.280954 center 0.015 0.083 0.031 ntor 6 134.9341 -60.3422 -43.7240 28.7442 0.6285 -164.2147
State:	-14.346   6.021   7.987   0.717  0.002 -0.697 -147.366    134.93  -60.34  -43.72   28.74    0.63 -164.21

DOCKED: MODEL       51
DOCKED: USER    Run = 51
DOCKED: USER    DPF = D:/Protein_go_brrr/autodock/final/mut_Y35F/2_3_BPG/dock.dpf
DOCKED: USER  
DOCKED: USER    Estimated Free Energy of Binding    =   -8.77 kcal/mol  [=(1)+(2)+(3)-(4)]
DOCKED: USER    Estimated Inhibition Constant, Ki   =  372.45 nM (nanomolar)  [Temperature = 298.15 K]
DOCKED: USER    
DOCKED: USER    (1) Final Intermolecular Energy     =  -10.56 kcal/mol
DOCKED: USER        vdW + Hbond + desolv Energy     =   -3.60 kcal/mol
DOCKED: USER        Electrostatic Energy            =   -6.96 kcal/mol
DOCKED: USER    (2) Final Total Internal Energy     =   +2.12 kcal/mol
DOCKED: USER    (3) Torsional Free Energy           =   +1.79 kcal/mol
DOCKED: USER    (4) Unbound System's Energy  [=(2)] =   +2.12 kcal/mol
DOCKED: USER    
DOCKED: USER    
DOCKED: USER    NEWDPF move 2_3_BPG_opt.pdbqt
DOCKED: USER    NEWDPF about 0.015000 0.083000 0.031000
DOCKED: USER    NEWDPF tran0 -14.346208 6.020659 7.987351
DOCKED: USER    NEWDPF quaternion0 0.688067 0.002181 -0.669047 -0.280954
DOCKED: USER    NEWDPF axisangle0 0.716945 0.002272 -0.697126 -147.365735
DOCKED: USER    NEWDPF quat0 0.716945 0.002272 -0.697126 -147.365735
DOCKED: USER    NEWDPF dihe0 134.93 -60.34 -43.72 28.74 0.63 -164.21 
DOCKED: USER  keepresnum = 1 
DOCKED: USER  
DOCKED: REMARK  6 active torsions:
DOCKED: REMARK  status: ('A' for Active; 'I' for Inactive)
DOCKED: REMARK    1  A    between atoms: P_1  and  O_3 
DOCKED: REMARK    2  A    between atoms: P_2  and  O_4 
DOCKED: REMARK    3  A    between atoms: O_3  and  C_13 
DOCKED: REMARK    4  A    between atoms: O_4  and  C_14 
DOCKED: REMARK    5  A    between atoms: C_13  and  C_14 
DOCKED: REMARK    6  A    between atoms: C_13  and  C_15 
DOCKED: USER                              x       y       z     vdW  Elec       q    Type
DOCKED: USER                           _______ _______ _______ _____ _____    ______ ____
DOCKED: ROOT
DOCKED: ATOM      1  C   UNL d   1     -14.611   6.466   8.413 -0.11 +0.24    +0.193 C 
DOCKED: ENDROOT
DOCKED: BRANCH   1   2
DOCKED: ATOM      2  O   UNL d   1     -13.828   6.436   9.653 +0.02 -0.67    -0.356 OA
DOCKED: BRANCH   2   3
DOCKED: ATOM      3  P   UNL d   1     -14.344   5.699  11.029 -0.23 -0.02    -0.014 P 
DOCKED: ATOM      4  O   UNL d   1     -13.340   4.557  11.252 -0.57 -1.23    -0.577 OA
DOCKED: ATOM      5  O   UNL d   1     -15.749   5.166  10.758 -0.04 -0.59    -0.577 OA
DOCKED: ATOM      6  O   UNL d   1     -14.289   6.721  12.160 -0.30 -0.98    -0.638 OA
DOCKED: ENDBRANCH   2   3
DOCKED: ENDBRANCH   1   2
DOCKED: BRANCH   1   7
DOCKED: ATOM      7  C   UNL d   1     -13.840   5.653   7.309 -0.12 +0.27    +0.201 C 
DOCKED: BRANCH   7   8
DOCKED: ATOM      8  O   UNL d   1     -12.534   5.162   7.684 -0.09 -0.71    -0.364 OA
DOCKED: BRANCH   8   9
DOCKED: ATOM      9  P   UNL d   1     -11.594   4.373   6.574 -0.52 -0.02    -0.015 P 
DOCKED: ATOM     10  O   UNL d   1     -10.176   4.909   6.801 -0.09 -0.44    -0.577 OA
DOCKED: ATOM     11  O   UNL d   1     -12.131   4.743   5.192 -0.57 -0.53    -0.577 OA
DOCKED: ATOM     12  O   UNL d   1     -11.698   2.878   6.876 -0.42 -1.21    -0.638 OA
DOCKED: ENDBRANCH   8   9
DOCKED: ENDBRANCH   7   8
DOCKED: ENDBRANCH   1   7
DOCKED: BRANCH   1  13
DOCKED: ATOM     13  C   UNL d   1     -14.783   7.950   7.919 -0.07 +0.07    +0.073 C 
DOCKED: ATOM     14  O   UNL d   1     -15.580   8.182   6.943 +0.03 -0.27    -0.547 OA
DOCKED: ATOM     15  O   UNL d   1     -14.153   8.858   8.572 -0.50 -0.87    -0.547 OA
DOCKED: ENDBRANCH   1  13
DOCKED: TORSDOF 6
DOCKED: TER
DOCKED: ENDMDL
________________________________________________________________________________


	BEGINNING GENETIC ALGORITHM DOCKING 52 of 100
Run: 52 Seed: 1952500223 966405294 [ Run 52 of 100 GA/GALS ]
Beginning LAMARCKIAN GENETIC ALGORITHM (LGA), with a maximum of 25000000 energy evaluations.

Final-Value: -8.347


	FINAL GENETIC ALGORITHM DOCKED STATE
	_______________________________________________


Detailed state:  trans -13.275 5.385 12.146 quatxyzw 0.584019 0.628887 0.507866 -0.074126 center 0.015 0.083 0.031 ntor 6 -168.4083 35.4457 -154.8212 21.3698 38.0591 28.9429
State:	-13.275   5.385  12.146   0.586  0.631  0.509 -171.498   -168.41   35.45 -154.82   21.37   38.06   28.94

DOCKED: MODEL       52
DOCKED: USER    Run = 52
DOCKED: USER    DPF = D:/Protein_go_brrr/autodock/final/mut_Y35F/2_3_BPG/dock.dpf
DOCKED: USER  
DOCKED: USER    Estimated Free Energy of Binding    =   -8.53 kcal/mol  [=(1)+(2)+(3)-(4)]
DOCKED: USER    Estimated Inhibition Constant, Ki   =  555.38 nM (nanomolar)  [Temperature = 298.15 K]
DOCKED: USER    
DOCKED: USER    (1) Final Intermolecular Energy     =  -10.32 kcal/mol
DOCKED: USER        vdW + Hbond + desolv Energy     =   -3.77 kcal/mol
DOCKED: USER        Electrostatic Energy            =   -6.56 kcal/mol
DOCKED: USER    (2) Final Total Internal Energy     =   +1.98 kcal/mol
DOCKED: USER    (3) Torsional Free Energy           =   +1.79 kcal/mol
DOCKED: USER    (4) Unbound System's Energy  [=(2)] =   +1.98 kcal/mol
DOCKED: USER    
DOCKED: USER    
DOCKED: USER    NEWDPF move 2_3_BPG_opt.pdbqt
DOCKED: USER    NEWDPF about 0.015000 0.083000 0.031000
DOCKED: USER    NEWDPF tran0 -13.274953 5.385204 12.146260
DOCKED: USER    NEWDPF quaternion0 0.584019 0.628887 0.507866 -0.074126
DOCKED: USER    NEWDPF axisangle0 0.585630 0.630622 0.509267 -171.497937
DOCKED: USER    NEWDPF quat0 0.585630 0.630622 0.509267 -171.497937
DOCKED: USER    NEWDPF dihe0 -168.41 35.45 -154.82 21.37 38.06 28.94 
DOCKED: USER  keepresnum = 1 
DOCKED: USER  
DOCKED: REMARK  6 active torsions:
DOCKED: REMARK  status: ('A' for Active; 'I' for Inactive)
DOCKED: REMARK    1  A    between atoms: P_1  and  O_3 
DOCKED: REMARK    2  A    between atoms: P_2  and  O_4 
DOCKED: REMARK    3  A    between atoms: O_3  and  C_13 
DOCKED: REMARK    4  A    between atoms: O_4  and  C_14 
DOCKED: REMARK    5  A    between atoms: C_13  and  C_14 
DOCKED: REMARK    6  A    between atoms: C_13  and  C_15 
DOCKED: USER                              x       y       z     vdW  Elec       q    Type
DOCKED: USER                           _______ _______ _______ _____ _____    ______ ____
DOCKED: ROOT
DOCKED: ATOM      1  C   UNL d   1     -13.237   5.024  11.583 -0.11 +0.32    +0.193 C 
DOCKED: ENDROOT
DOCKED: BRANCH   1   2
DOCKED: ATOM      2  O   UNL d   1     -12.830   3.660  11.941 -0.73 -0.56    -0.356 OA
DOCKED: BRANCH   2   3
DOCKED: ATOM      3  P   UNL d   1     -11.363   3.026  11.556 -0.67 -0.02    -0.014 P 
DOCKED: ATOM      4  O   UNL d   1     -11.633   1.525  11.363 -0.33 -0.66    -0.577 OA
DOCKED: ATOM      5  O   UNL d   1     -10.434   3.281  12.741 -0.70 -0.55    -0.577 OA
DOCKED: ATOM      6  O   UNL d   1     -10.891   3.681  10.262 -0.14 -1.16    -0.638 OA
DOCKED: ENDBRANCH   2   3
DOCKED: ENDBRANCH   1   2
DOCKED: BRANCH   1   7
DOCKED: ATOM      7  C   UNL d   1     -13.612   5.801  12.898 -0.11 +0.22    +0.201 C 
DOCKED: BRANCH   7   8
DOCKED: ATOM      8  O   UNL d   1     -14.216   7.100  12.713 -0.55 -0.54    -0.364 OA
DOCKED: BRANCH   8   9
DOCKED: ATOM      9  P   UNL d   1     -13.777   8.365  13.684 -0.00 -0.02    -0.015 P 
DOCKED: ATOM     10  O   UNL d   1     -12.341   8.052  14.122 -0.08 -0.61    -0.577 OA
DOCKED: ATOM     11  O   UNL d   1     -14.745   8.376  14.867 +0.00 -0.29    -0.577 OA
DOCKED: ATOM     12  O   UNL d   1     -13.855   9.634  12.836 -0.16 -1.16    -0.638 OA
DOCKED: ENDBRANCH   8   9
DOCKED: ENDBRANCH   7   8
DOCKED: ENDBRANCH   1   7
DOCKED: BRANCH   1  13
DOCKED: ATOM     13  C   UNL d   1     -14.500   4.981  10.645 -0.05 +0.13    +0.073 C 
DOCKED: ATOM     14  O   UNL d   1     -14.382   5.401   9.440 -0.07 -1.06    -0.547 OA
DOCKED: ATOM     15  O   UNL d   1     -15.570   4.462  11.131 -0.08 -0.60    -0.547 OA
DOCKED: ENDBRANCH   1  13
DOCKED: TORSDOF 6
DOCKED: TER
DOCKED: ENDMDL
________________________________________________________________________________


	BEGINNING GENETIC ALGORITHM DOCKING 53 of 100
Run: 53 Seed: 695815742 758644000 [ Run 53 of 100 GA/GALS ]
Beginning LAMARCKIAN GENETIC ALGORITHM (LGA), with a maximum of 25000000 energy evaluations.

Final-Value: -8.468


	FINAL GENETIC ALGORITHM DOCKED STATE
	_______________________________________________


Detailed state:  trans -13.884 5.322 11.329 quatxyzw 0.832753 -0.065600 0.412093 0.363865 center 0.015 0.083 0.031 ntor 6 153.7236 -157.8393 179.0864 34.4762 24.6427 -43.2385
State:	-13.884   5.322  11.329   0.894 -0.070  0.442 137.324    153.72 -157.84  179.09   34.48   24.64  -43.24

DOCKED: MODEL       53
DOCKED: USER    Run = 53
DOCKED: USER    DPF = D:/Protein_go_brrr/autodock/final/mut_Y35F/2_3_BPG/dock.dpf
DOCKED: USER  
DOCKED: USER    Estimated Free Energy of Binding    =   -8.78 kcal/mol  [=(1)+(2)+(3)-(4)]
DOCKED: USER    Estimated Inhibition Constant, Ki   =  366.37 nM (nanomolar)  [Temperature = 298.15 K]
DOCKED: USER    
DOCKED: USER    (1) Final Intermolecular Energy     =  -10.57 kcal/mol
DOCKED: USER        vdW + Hbond + desolv Energy     =   -4.04 kcal/mol
DOCKED: USER        Electrostatic Energy            =   -6.53 kcal/mol
DOCKED: USER    (2) Final Total Internal Energy     =   +2.10 kcal/mol
DOCKED: USER    (3) Torsional Free Energy           =   +1.79 kcal/mol
DOCKED: USER    (4) Unbound System's Energy  [=(2)] =   +2.10 kcal/mol
DOCKED: USER    
DOCKED: USER    
DOCKED: USER    NEWDPF move 2_3_BPG_opt.pdbqt
DOCKED: USER    NEWDPF about 0.015000 0.083000 0.031000
DOCKED: USER    NEWDPF tran0 -13.883697 5.321690 11.328989
DOCKED: USER    NEWDPF quaternion0 0.832753 -0.065600 0.412093 0.363865
DOCKED: USER    NEWDPF axisangle0 0.894038 -0.070428 0.442420 137.324476
DOCKED: USER    NEWDPF quat0 0.894038 -0.070428 0.442420 137.324476
DOCKED: USER    NEWDPF dihe0 153.72 -157.84 179.09 34.48 24.64 -43.24 
DOCKED: USER  keepresnum = 1 
DOCKED: USER  
DOCKED: REMARK  6 active torsions:
DOCKED: REMARK  status: ('A' for Active; 'I' for Inactive)
DOCKED: REMARK    1  A    between atoms: P_1  and  O_3 
DOCKED: REMARK    2  A    between atoms: P_2  and  O_4 
DOCKED: REMARK    3  A    between atoms: O_3  and  C_13 
DOCKED: REMARK    4  A    between atoms: O_4  and  C_14 
DOCKED: REMARK    5  A    between atoms: C_13  and  C_14 
DOCKED: REMARK    6  A    between atoms: C_13  and  C_15 
DOCKED: USER                              x       y       z     vdW  Elec       q    Type
DOCKED: USER                           _______ _______ _______ _____ _____    ______ ____
DOCKED: ROOT
DOCKED: ATOM      1  C   UNL d   1     -14.257   5.839  11.124 -0.14 +0.30    +0.193 C 
DOCKED: ENDROOT
DOCKED: BRANCH   1   2
DOCKED: ATOM      2  O   UNL d   1     -15.261   5.334  10.181 -0.12 -0.48    -0.356 OA
DOCKED: BRANCH   2   3
DOCKED: ATOM      3  P   UNL d   1     -15.085   5.410   8.548 -0.13 -0.02    -0.014 P 
DOCKED: ATOM      4  O   UNL d   1     -13.580   5.639   8.335 -0.05 -1.10    -0.577 OA
DOCKED: ATOM      5  O   UNL d   1     -15.909   6.600   8.059 +0.02 -0.43    -0.577 OA
DOCKED: ATOM      6  O   UNL d   1     -15.536   4.076   7.962 -0.46 -1.05    -0.638 OA
DOCKED: ENDBRANCH   2   3
DOCKED: ENDBRANCH   1   2
DOCKED: BRANCH   1   7
DOCKED: ATOM      7  C   UNL d   1     -13.569   4.615  11.833 -0.16 +0.31    +0.201 C 
DOCKED: BRANCH   7   8
DOCKED: ATOM      8  O   UNL d   1     -12.156   4.451  11.578 -0.64 -0.62    -0.364 OA
DOCKED: BRANCH   8   9
DOCKED: ATOM      9  P   UNL d   1     -11.469   2.948  11.648 -0.65 -0.02    -0.015 P 
DOCKED: ATOM     10  O   UNL d   1     -12.626   1.996  11.972 -0.15 -0.64    -0.577 OA
DOCKED: ATOM     11  O   UNL d   1     -10.430   2.985  12.769 -0.73 -0.51    -0.577 OA
DOCKED: ATOM     12  O   UNL d   1     -10.859   2.666  10.276 -0.16 -1.09    -0.638 OA
DOCKED: ENDBRANCH   8   9
DOCKED: ENDBRANCH   7   8
DOCKED: ENDBRANCH   1   7
DOCKED: BRANCH   1  13
DOCKED: ATOM     13  C   UNL d   1     -14.947   6.734  12.220 -0.11 +0.08    +0.073 C 
DOCKED: ATOM     14  O   UNL d   1     -14.258   7.659  12.778 -0.57 -0.93    -0.547 OA
DOCKED: ATOM     15  O   UNL d   1     -16.193   6.520  12.446 +0.01 -0.35    -0.547 OA
DOCKED: ENDBRANCH   1  13
DOCKED: TORSDOF 6
DOCKED: TER
DOCKED: ENDMDL
________________________________________________________________________________


	BEGINNING GENETIC ALGORITHM DOCKING 54 of 100
Run: 54 Seed: 1125516868 1602347766 [ Run 54 of 100 GA/GALS ]
Beginning LAMARCKIAN GENETIC ALGORITHM (LGA), with a maximum of 25000000 energy evaluations.

Final-Value: -9.354


	FINAL GENETIC ALGORITHM DOCKED STATE
	_______________________________________________


Detailed state:  trans -13.196 4.931 12.101 quatxyzw -0.780322 0.171418 -0.475669 -0.368038 center 0.015 0.083 0.031 ntor 6 63.8009 -137.6200 77.3060 24.7204 -70.8886 -106.6659
State:	-13.196   4.931  12.101  -0.839  0.184 -0.512 -136.811     63.80 -137.62   77.31   24.72  -70.89 -106.67

DOCKED: MODEL       54
DOCKED: USER    Run = 54
DOCKED: USER    DPF = D:/Protein_go_brrr/autodock/final/mut_Y35F/2_3_BPG/dock.dpf
DOCKED: USER  
DOCKED: USER    Estimated Free Energy of Binding    =   -9.94 kcal/mol  [=(1)+(2)+(3)-(4)]
DOCKED: USER    Estimated Inhibition Constant, Ki   =   51.96 nM (nanomolar)  [Temperature = 298.15 K]
DOCKED: USER    
DOCKED: USER    (1) Final Intermolecular Energy     =  -11.73 kcal/mol
DOCKED: USER        vdW + Hbond + desolv Energy     =   -4.52 kcal/mol
DOCKED: USER        Electrostatic Energy            =   -7.21 kcal/mol
DOCKED: USER    (2) Final Total Internal Energy     =   +2.37 kcal/mol
DOCKED: USER    (3) Torsional Free Energy           =   +1.79 kcal/mol
DOCKED: USER    (4) Unbound System's Energy  [=(2)] =   +2.37 kcal/mol
DOCKED: USER    
DOCKED: USER    
DOCKED: USER    NEWDPF move 2_3_BPG_opt.pdbqt
DOCKED: USER    NEWDPF about 0.015000 0.083000 0.031000
DOCKED: USER    NEWDPF tran0 -13.196346 4.931091 12.101313
DOCKED: USER    NEWDPF quaternion0 -0.780322 0.171418 -0.475669 -0.368038
DOCKED: USER    NEWDPF axisangle0 -0.839227 0.184358 -0.511576 -136.810635
DOCKED: USER    NEWDPF quat0 -0.839227 0.184358 -0.511576 -136.810635
DOCKED: USER    NEWDPF dihe0 63.80 -137.62 77.31 24.72 -70.89 -106.67 
DOCKED: USER  keepresnum = 1 
DOCKED: USER  
DOCKED: REMARK  6 active torsions:
DOCKED: REMARK  status: ('A' for Active; 'I' for Inactive)
DOCKED: REMARK    1  A    between atoms: P_1  and  O_3 
DOCKED: REMARK    2  A    between atoms: P_2  and  O_4 
DOCKED: REMARK    3  A    between atoms: O_3  and  C_13 
DOCKED: REMARK    4  A    between atoms: O_4  and  C_14 
DOCKED: REMARK    5  A    between atoms: C_13  and  C_14 
DOCKED: REMARK    6  A    between atoms: C_13  and  C_15 
DOCKED: USER                              x       y       z     vdW  Elec       q    Type
DOCKED: USER                           _______ _______ _______ _____ _____    ______ ____
DOCKED: ROOT
DOCKED: ATOM      1  C   UNL d   1     -13.428   5.540  11.945 -0.02 +0.29    +0.193 C 
DOCKED: ENDROOT
DOCKED: BRANCH   1   2
DOCKED: ATOM      2  O   UNL d   1     -14.433   5.390  10.887 -0.24 -0.56    -0.356 OA
DOCKED: BRANCH   2   3
DOCKED: ATOM      3  P   UNL d   1     -14.173   5.831   9.324 -0.17 -0.02    -0.014 P 
DOCKED: ATOM      4  O   UNL d   1     -12.713   5.438   9.053 +0.13 -1.34    -0.577 OA
DOCKED: ATOM      5  O   UNL d   1     -14.373   7.343   9.242 -0.04 -0.95    -0.577 OA
DOCKED: ATOM      6  O   UNL d   1     -15.138   5.042   8.445 -0.31 -1.04    -0.638 OA
DOCKED: ENDBRANCH   2   3
DOCKED: ENDBRANCH   1   2
DOCKED: BRANCH   1   7
DOCKED: ATOM      7  C   UNL d   1     -13.089   4.118  12.525 -0.26 +0.23    +0.201 C 
DOCKED: BRANCH   7   8
DOCKED: ATOM      8  O   UNL d   1     -12.710   3.116  11.557 -0.47 -0.73    -0.364 OA
DOCKED: BRANCH   8   9
DOCKED: ATOM      9  P   UNL d   1     -11.161   2.535  11.526 -0.71 -0.02    -0.015 P 
DOCKED: ATOM     10  O   UNL d   1     -10.478   3.281  10.374 -0.36 -0.86    -0.577 OA
DOCKED: ATOM     11  O   UNL d   1     -11.254   1.033  11.258 -0.69 -0.53    -0.577 OA
DOCKED: ATOM     12  O   UNL d   1     -10.529   2.863  12.878 -0.67 -0.52    -0.638 OA
DOCKED: ENDBRANCH   8   9
DOCKED: ENDBRANCH   7   8
DOCKED: ENDBRANCH   1   7
DOCKED: BRANCH   1  13
DOCKED: ATOM     13  C   UNL d   1     -13.997   6.437  13.107 -0.13 +0.08    +0.073 C 
DOCKED: ATOM     14  O   UNL d   1     -14.126   5.919  14.271 +0.01 -0.32    -0.547 OA
DOCKED: ATOM     15  O   UNL d   1     -14.241   7.666  12.828 -0.59 -0.91    -0.547 OA
DOCKED: ENDBRANCH   1  13
DOCKED: TORSDOF 6
DOCKED: TER
DOCKED: ENDMDL
________________________________________________________________________________


	BEGINNING GENETIC ALGORITHM DOCKING 55 of 100
Run: 55 Seed: 1008530837 1700541236 [ Run 55 of 100 GA/GALS ]
Beginning LAMARCKIAN GENETIC ALGORITHM (LGA), with a maximum of 25000000 energy evaluations.

Final-Value: -8.305


	FINAL GENETIC ALGORITHM DOCKED STATE
	_______________________________________________


Detailed state:  trans -13.970 5.977 8.169 quatxyzw 0.749807 0.136209 -0.596430 -0.252007 center 0.015 0.083 0.031 ntor 6 -171.5556 -51.6323 -171.1456 6.3112 -25.1326 -153.9672
State:	-13.970   5.977   8.169   0.775  0.141 -0.616 -150.807   -171.56  -51.63 -171.15    6.31  -25.13 -153.97

DOCKED: MODEL       55
DOCKED: USER    Run = 55
DOCKED: USER    DPF = D:/Protein_go_brrr/autodock/final/mut_Y35F/2_3_BPG/dock.dpf
DOCKED: USER  
DOCKED: USER    Estimated Free Energy of Binding    =   -8.62 kcal/mol  [=(1)+(2)+(3)-(4)]
DOCKED: USER    Estimated Inhibition Constant, Ki   =  480.05 nM (nanomolar)  [Temperature = 298.15 K]
DOCKED: USER    
DOCKED: USER    (1) Final Intermolecular Energy     =  -10.41 kcal/mol
DOCKED: USER        vdW + Hbond + desolv Energy     =   -3.70 kcal/mol
DOCKED: USER        Electrostatic Energy            =   -6.71 kcal/mol
DOCKED: USER    (2) Final Total Internal Energy     =   +2.10 kcal/mol
DOCKED: USER    (3) Torsional Free Energy           =   +1.79 kcal/mol
DOCKED: USER    (4) Unbound System's Energy  [=(2)] =   +2.10 kcal/mol
DOCKED: USER    
DOCKED: USER    
DOCKED: USER    NEWDPF move 2_3_BPG_opt.pdbqt
DOCKED: USER    NEWDPF about 0.015000 0.083000 0.031000
DOCKED: USER    NEWDPF tran0 -13.969575 5.977257 8.169051
DOCKED: USER    NEWDPF quaternion0 0.749807 0.136209 -0.596430 -0.252007
DOCKED: USER    NEWDPF axisangle0 0.774814 0.140752 -0.616322 -150.807420
DOCKED: USER    NEWDPF quat0 0.774814 0.140752 -0.616322 -150.807420
DOCKED: USER    NEWDPF dihe0 -171.56 -51.63 -171.15 6.31 -25.13 -153.97 
DOCKED: USER  keepresnum = 1 
DOCKED: USER  
DOCKED: REMARK  6 active torsions:
DOCKED: REMARK  status: ('A' for Active; 'I' for Inactive)
DOCKED: REMARK    1  A    between atoms: P_1  and  O_3 
DOCKED: REMARK    2  A    between atoms: P_2  and  O_4 
DOCKED: REMARK    3  A    between atoms: O_3  and  C_13 
DOCKED: REMARK    4  A    between atoms: O_4  and  C_14 
DOCKED: REMARK    5  A    between atoms: C_13  and  C_14 
DOCKED: REMARK    6  A    between atoms: C_13  and  C_15 
DOCKED: USER                              x       y       z     vdW  Elec       q    Type
DOCKED: USER                           _______ _______ _______ _____ _____    ______ ____
DOCKED: ROOT
DOCKED: ATOM      1  C   UNL d   1     -14.351   6.244   8.651 -0.14 +0.28    +0.193 C 
DOCKED: ENDROOT
DOCKED: BRANCH   1   2
DOCKED: ATOM      2  O   UNL d   1     -13.681   6.026   9.938 +0.02 -0.71    -0.356 OA
DOCKED: BRANCH   2   3
DOCKED: ATOM      3  P   UNL d   1     -14.409   5.302  11.223 -0.26 -0.02    -0.014 P 
DOCKED: ATOM      4  O   UNL d   1     -13.479   4.131  11.580 -0.61 -1.10    -0.577 OA
DOCKED: ATOM      5  O   UNL d   1     -15.775   4.810  10.751 -0.05 -0.61    -0.577 OA
DOCKED: ATOM      6  O   UNL d   1     -14.487   6.320  12.356 -0.11 -0.76    -0.638 OA
DOCKED: ENDBRANCH   2   3
DOCKED: ENDBRANCH   1   2
DOCKED: BRANCH   1   7
DOCKED: ATOM      7  C   UNL d   1     -13.347   5.891   7.493 -0.16 +0.28    +0.201 C 
DOCKED: BRANCH   7   8
DOCKED: ATOM      8  O   UNL d   1     -12.082   5.329   7.905 -0.17 -0.65    -0.364 OA
DOCKED: BRANCH   8   9
DOCKED: ATOM      9  P   UNL d   1     -11.187   4.430   6.843 -0.60 -0.02    -0.015 P 
DOCKED: ATOM     10  O   UNL d   1     -11.854   4.645   5.479 -0.55 -0.54    -0.577 OA
DOCKED: ATOM     11  O   UNL d   1     -11.279   2.975   7.301 -0.60 -1.19    -0.577 OA
DOCKED: ATOM     12  O   UNL d   1      -9.761   4.979   6.876 +0.04 -0.39    -0.638 OA
DOCKED: ENDBRANCH   8   9
DOCKED: ENDBRANCH   7   8
DOCKED: ENDBRANCH   1   7
DOCKED: BRANCH   1  13
DOCKED: ATOM     13  C   UNL d   1     -14.771   7.755   8.511 -0.08 +0.08    +0.073 C 
DOCKED: ATOM     14  O   UNL d   1     -16.016   8.036   8.404 +0.01 -0.36    -0.547 OA
DOCKED: ATOM     15  O   UNL d   1     -13.833   8.629   8.576 -0.42 -1.01    -0.547 OA
DOCKED: ENDBRANCH   1  13
DOCKED: TORSDOF 6
DOCKED: TER
DOCKED: ENDMDL
________________________________________________________________________________


	BEGINNING GENETIC ALGORITHM DOCKING 56 of 100
Run: 56 Seed: 837894223 1023478276 [ Run 56 of 100 GA/GALS ]
Beginning LAMARCKIAN GENETIC ALGORITHM (LGA), with a maximum of 25000000 energy evaluations.

Final-Value: -9.033


	FINAL GENETIC ALGORITHM DOCKED STATE
	_______________________________________________


Detailed state:  trans -14.033 5.988 7.950 quatxyzw -0.693890 -0.182020 0.653003 0.242841 center 0.015 0.083 0.031 ntor 6 179.7170 -32.9658 -158.9708 -1.8360 42.2335 -89.9334
State:	-14.033   5.988   7.950  -0.715 -0.188  0.673 151.891    179.72  -32.97 -158.97   -1.84   42.23  -89.93

DOCKED: MODEL       56
DOCKED: USER    Run = 56
DOCKED: USER    DPF = D:/Protein_go_brrr/autodock/final/mut_Y35F/2_3_BPG/dock.dpf
DOCKED: USER  
DOCKED: USER    Estimated Free Energy of Binding    =   -9.45 kcal/mol  [=(1)+(2)+(3)-(4)]
DOCKED: USER    Estimated Inhibition Constant, Ki   =  117.41 nM (nanomolar)  [Temperature = 298.15 K]
DOCKED: USER    
DOCKED: USER    (1) Final Intermolecular Energy     =  -11.24 kcal/mol
DOCKED: USER        vdW + Hbond + desolv Energy     =   -3.99 kcal/mol
DOCKED: USER        Electrostatic Energy            =   -7.25 kcal/mol
DOCKED: USER    (2) Final Total Internal Energy     =   +2.21 kcal/mol
DOCKED: USER    (3) Torsional Free Energy           =   +1.79 kcal/mol
DOCKED: USER    (4) Unbound System's Energy  [=(2)] =   +2.21 kcal/mol
DOCKED: USER    
DOCKED: USER    
DOCKED: USER    NEWDPF move 2_3_BPG_opt.pdbqt
DOCKED: USER    NEWDPF about 0.015000 0.083000 0.031000
DOCKED: USER    NEWDPF tran0 -14.032686 5.987641 7.949719
DOCKED: USER    NEWDPF quaternion0 -0.693890 -0.182020 0.653003 0.242841
DOCKED: USER    NEWDPF axisangle0 -0.715302 -0.187637 0.673153 151.891492
DOCKED: USER    NEWDPF quat0 -0.715302 -0.187637 0.673153 151.891492
DOCKED: USER    NEWDPF dihe0 179.72 -32.97 -158.97 -1.84 42.23 -89.93 
DOCKED: USER  keepresnum = 1 
DOCKED: USER  
DOCKED: REMARK  6 active torsions:
DOCKED: REMARK  status: ('A' for Active; 'I' for Inactive)
DOCKED: REMARK    1  A    between atoms: P_1  and  O_3 
DOCKED: REMARK    2  A    between atoms: P_2  and  O_4 
DOCKED: REMARK    3  A    between atoms: O_3  and  C_13 
DOCKED: REMARK    4  A    between atoms: O_4  and  C_14 
DOCKED: REMARK    5  A    between atoms: C_13  and  C_14 
DOCKED: REMARK    6  A    between atoms: C_13  and  C_15 
DOCKED: USER                              x       y       z     vdW  Elec       q    Type
DOCKED: USER                           _______ _______ _______ _____ _____    ______ ____
DOCKED: ROOT
DOCKED: ATOM      1  C   UNL d   1     -14.334   6.227   8.499 -0.13 +0.27    +0.193 C 
DOCKED: ENDROOT
DOCKED: BRANCH   1   2
DOCKED: ATOM      2  O   UNL d   1     -13.438   6.013   9.641 +0.07 -0.73    -0.356 OA
DOCKED: BRANCH   2   3
DOCKED: ATOM      3  P   UNL d   1     -13.944   5.405  11.083 -0.21 -0.02    -0.014 P 
DOCKED: ATOM      4  O   UNL d   1     -12.782   4.515  11.552 -0.65 -1.05    -0.577 OA
DOCKED: ATOM      5  O   UNL d   1     -15.205   4.587  10.812 -0.11 -0.80    -0.577 OA
DOCKED: ATOM      6  O   UNL d   1     -14.171   6.575  12.034 -0.23 -1.01    -0.638 OA
DOCKED: ENDBRANCH   2   3
DOCKED: ENDBRANCH   1   2
DOCKED: BRANCH   1   7
DOCKED: ATOM      7  C   UNL d   1     -13.537   5.944   7.172 -0.15 +0.24    +0.201 C 
DOCKED: BRANCH   7   8
DOCKED: ATOM      8  O   UNL d   1     -13.184   4.564   6.931 -0.22 -0.69    -0.364 OA
DOCKED: BRANCH   8   9
DOCKED: ATOM      9  P   UNL d   1     -11.657   4.174   6.427 -0.56 -0.02    -0.015 P 
DOCKED: ATOM     10  O   UNL d   1     -10.775   5.342   6.886 -0.12 -0.55    -0.577 OA
DOCKED: ATOM     11  O   UNL d   1     -11.705   4.058   4.904 -0.61 -0.47    -0.577 OA
DOCKED: ATOM     12  O   UNL d   1     -11.277   2.863   7.115 -0.57 -1.18    -0.638 OA
DOCKED: ENDBRANCH   8   9
DOCKED: ENDBRANCH   7   8
DOCKED: ENDBRANCH   1   7
DOCKED: BRANCH   1  13
DOCKED: ATOM     13  C   UNL d   1     -14.835   7.719   8.478 -0.08 +0.08    +0.073 C 
DOCKED: ATOM     14  O   UNL d   1     -16.096   7.939   8.429 +0.01 -0.36    -0.547 OA
DOCKED: ATOM     15  O   UNL d   1     -13.941   8.635   8.576 -0.43 -0.96    -0.547 OA
DOCKED: ENDBRANCH   1  13
DOCKED: TORSDOF 6
DOCKED: TER
DOCKED: ENDMDL
________________________________________________________________________________


	BEGINNING GENETIC ALGORITHM DOCKING 57 of 100
Run: 57 Seed: 229282224 1987195992 [ Run 57 of 100 GA/GALS ]
Beginning LAMARCKIAN GENETIC ALGORITHM (LGA), with a maximum of 25000000 energy evaluations.

Final-Value: -8.484


	FINAL GENETIC ALGORITHM DOCKED STATE
	_______________________________________________


Detailed state:  trans -14.262 4.953 11.962 quatxyzw 0.138480 0.411737 -0.896331 0.088806 center 0.015 0.083 0.031 ntor 6 -131.1660 -126.1914 -121.6516 9.3556 49.4942 -127.7461
State:	-14.262   4.953  11.962   0.139  0.413 -0.900 169.810   -131.17 -126.19 -121.65    9.36   49.49 -127.75

DOCKED: MODEL       57
DOCKED: USER    Run = 57
DOCKED: USER    DPF = D:/Protein_go_brrr/autodock/final/mut_Y35F/2_3_BPG/dock.dpf
DOCKED: USER  
DOCKED: USER    Estimated Free Energy of Binding    =   -9.10 kcal/mol  [=(1)+(2)+(3)-(4)]
DOCKED: USER    Estimated Inhibition Constant, Ki   =  214.44 nM (nanomolar)  [Temperature = 298.15 K]
DOCKED: USER    
DOCKED: USER    (1) Final Intermolecular Energy     =  -10.89 kcal/mol
DOCKED: USER        vdW + Hbond + desolv Energy     =   -4.16 kcal/mol
DOCKED: USER        Electrostatic Energy            =   -6.72 kcal/mol
DOCKED: USER    (2) Final Total Internal Energy     =   +2.40 kcal/mol
DOCKED: USER    (3) Torsional Free Energy           =   +1.79 kcal/mol
DOCKED: USER    (4) Unbound System's Energy  [=(2)] =   +2.40 kcal/mol
DOCKED: USER    
DOCKED: USER    
DOCKED: USER    NEWDPF move 2_3_BPG_opt.pdbqt
DOCKED: USER    NEWDPF about 0.015000 0.083000 0.031000
DOCKED: USER    NEWDPF tran0 -14.261649 4.953052 11.961983
DOCKED: USER    NEWDPF quaternion0 0.138480 0.411737 -0.896331 0.088806
DOCKED: USER    NEWDPF axisangle0 0.139030 0.413371 -0.899886 169.810112
DOCKED: USER    NEWDPF quat0 0.139030 0.413371 -0.899886 169.810112
DOCKED: USER    NEWDPF dihe0 -131.17 -126.19 -121.65 9.36 49.49 -127.75 
DOCKED: USER  keepresnum = 1 
DOCKED: USER  
DOCKED: REMARK  6 active torsions:
DOCKED: REMARK  status: ('A' for Active; 'I' for Inactive)
DOCKED: REMARK    1  A    between atoms: P_1  and  O_3 
DOCKED: REMARK    2  A    between atoms: P_2  and  O_4 
DOCKED: REMARK    3  A    between atoms: O_3  and  C_13 
DOCKED: REMARK    4  A    between atoms: O_4  and  C_14 
DOCKED: REMARK    5  A    between atoms: C_13  and  C_14 
DOCKED: REMARK    6  A    between atoms: C_13  and  C_15 
DOCKED: USER                              x       y       z     vdW  Elec       q    Type
DOCKED: USER                           _______ _______ _______ _____ _____    ______ ____
DOCKED: ROOT
DOCKED: ATOM      1  C   UNL d   1     -13.723   4.928  12.360 -0.20 +0.22    +0.193 C 
DOCKED: ENDROOT
DOCKED: BRANCH   1   2
DOCKED: ATOM      2  O   UNL d   1     -12.559   4.585  11.535 -0.74 -0.64    -0.356 OA
DOCKED: BRANCH   2   3
DOCKED: ATOM      3  P   UNL d   1     -11.599   3.282  11.826 -0.63 -0.02    -0.014 P 
DOCKED: ATOM      4  O   UNL d   1     -12.581   2.110  11.982 -0.20 -0.66    -0.577 OA
DOCKED: ATOM      5  O   UNL d   1     -10.842   3.557  13.123 -0.54 -0.44    -0.577 OA
DOCKED: ATOM      6  O   UNL d   1     -10.687   3.090  10.618 -0.35 -0.98    -0.638 OA
DOCKED: ENDBRANCH   2   3
DOCKED: ENDBRANCH   1   2
DOCKED: BRANCH   1   7
DOCKED: ATOM      7  C   UNL d   1     -14.929   5.276  11.412 -0.16 +0.24    +0.201 C 
DOCKED: BRANCH   7   8
DOCKED: ATOM      8  O   UNL d   1     -14.966   4.569  10.153 -0.06 -0.69    -0.364 OA
DOCKED: BRANCH   8   9
DOCKED: ATOM      9  P   UNL d   1     -15.102   5.409   8.734 -0.15 -0.02    -0.015 P 
DOCKED: ATOM     10  O   UNL d   1     -13.863   6.312   8.685 -0.03 -0.92    -0.577 OA
DOCKED: ATOM     11  O   UNL d   1     -16.395   6.218   8.817 +0.02 -0.42    -0.577 OA
DOCKED: ATOM     12  O   UNL d   1     -15.109   4.383   7.602 -0.49 -1.13    -0.638 OA
DOCKED: ENDBRANCH   8   9
DOCKED: ENDBRANCH   7   8
DOCKED: ENDBRANCH   1   7
DOCKED: BRANCH   1  13
DOCKED: ATOM     13  C   UNL d   1     -13.402   6.186  13.250 -0.11 +0.08    +0.073 C 
DOCKED: ATOM     14  O   UNL d   1     -12.681   6.026  14.298 -0.03 -0.37    -0.547 OA
DOCKED: ATOM     15  O   UNL d   1     -13.834   7.321  12.833 -0.50 -0.97    -0.547 OA
DOCKED: ENDBRANCH   1  13
DOCKED: TORSDOF 6
DOCKED: TER
DOCKED: ENDMDL
________________________________________________________________________________


	BEGINNING GENETIC ALGORITHM DOCKING 58 of 100
Run: 58 Seed: 880328955 775224886 [ Run 58 of 100 GA/GALS ]
Beginning LAMARCKIAN GENETIC ALGORITHM (LGA), with a maximum of 25000000 energy evaluations.

Final-Value: -7.372


	FINAL GENETIC ALGORITHM DOCKED STATE
	_______________________________________________


Detailed state:  trans -13.513 3.943 12.838 quatxyzw 0.473490 0.594399 -0.416932 0.498663 center 0.015 0.083 0.031 ntor 6 39.0507 1.9413 59.2393 166.2063 58.2901 5.3823
State:	-13.513   3.943  12.838   0.546  0.686 -0.481 120.177     39.05    1.94   59.24  166.21   58.29    5.38

DOCKED: MODEL       58
DOCKED: USER    Run = 58
DOCKED: USER    DPF = D:/Protein_go_brrr/autodock/final/mut_Y35F/2_3_BPG/dock.dpf
DOCKED: USER  
DOCKED: USER    Estimated Free Energy of Binding    =   -7.96 kcal/mol  [=(1)+(2)+(3)-(4)]
DOCKED: USER    Estimated Inhibition Constant, Ki   =    1.46 uM (micromolar)  [Temperature = 298.15 K]
DOCKED: USER    
DOCKED: USER    (1) Final Intermolecular Energy     =   -9.75 kcal/mol
DOCKED: USER        vdW + Hbond + desolv Energy     =   -3.98 kcal/mol
DOCKED: USER        Electrostatic Energy            =   -5.78 kcal/mol
DOCKED: USER    (2) Final Total Internal Energy     =   +2.38 kcal/mol
DOCKED: USER    (3) Torsional Free Energy           =   +1.79 kcal/mol
DOCKED: USER    (4) Unbound System's Energy  [=(2)] =   +2.38 kcal/mol
DOCKED: USER    
DOCKED: USER    
DOCKED: USER    NEWDPF move 2_3_BPG_opt.pdbqt
DOCKED: USER    NEWDPF about 0.015000 0.083000 0.031000
DOCKED: USER    NEWDPF tran0 -13.512563 3.943257 12.837563
DOCKED: USER    NEWDPF quaternion0 0.473490 0.594399 -0.416932 0.498663
DOCKED: USER    NEWDPF axisangle0 0.546253 0.685743 -0.481003 120.176820
DOCKED: USER    NEWDPF quat0 0.546253 0.685743 -0.481003 120.176820
DOCKED: USER    NEWDPF dihe0 39.05 1.94 59.24 166.21 58.29 5.38 
DOCKED: USER  keepresnum = 1 
DOCKED: USER  
DOCKED: REMARK  6 active torsions:
DOCKED: REMARK  status: ('A' for Active; 'I' for Inactive)
DOCKED: REMARK    1  A    between atoms: P_1  and  O_3 
DOCKED: REMARK    2  A    between atoms: P_2  and  O_4 
DOCKED: REMARK    3  A    between atoms: O_3  and  C_13 
DOCKED: REMARK    4  A    between atoms: O_4  and  C_14 
DOCKED: REMARK    5  A    between atoms: C_13  and  C_14 
DOCKED: REMARK    6  A    between atoms: C_13  and  C_15 
DOCKED: USER                              x       y       z     vdW  Elec       q    Type
DOCKED: USER                           _______ _______ _______ _____ _____    ______ ____
DOCKED: ROOT
DOCKED: ATOM      1  C   UNL d   1     -13.618   3.304  13.009 -0.24 +0.15    +0.193 C 
DOCKED: ENDROOT
DOCKED: BRANCH   1   2
DOCKED: ATOM      2  O   UNL d   1     -12.809   2.454  12.129 -0.38 -0.42    -0.356 OA
DOCKED: BRANCH   2   3
DOCKED: ATOM      3  P   UNL d   1     -11.334   2.897  11.552 -0.71 -0.02    -0.014 P 
DOCKED: ATOM      4  O   UNL d   1     -10.861   1.684  10.736 -0.52 -0.72    -0.577 OA
DOCKED: ATOM      5  O   UNL d   1     -10.433   3.148  12.760 -0.71 -0.53    -0.577 OA
DOCKED: ATOM      6  O   UNL d   1     -11.523   4.127  10.670 -0.18 -1.35    -0.638 OA
DOCKED: ENDBRANCH   2   3
DOCKED: ENDBRANCH   1   2
DOCKED: BRANCH   1   7
DOCKED: ATOM      7  C   UNL d   1     -13.168   4.799  12.821 -0.20 +0.20    +0.201 C 
DOCKED: BRANCH   7   8
DOCKED: ATOM      8  O   UNL d   1     -14.069   5.800  13.345 -0.08 -0.31    -0.364 OA
DOCKED: BRANCH   8   9
DOCKED: ATOM      9  P   UNL d   1     -14.757   6.910  12.329 -0.07 -0.02    -0.015 P 
DOCKED: ATOM     10  O   UNL d   1     -14.258   8.271  12.829 -0.57 -1.07    -0.577 OA
DOCKED: ATOM     11  O   UNL d   1     -16.272   6.769  12.474 +0.01 -0.36    -0.577 OA
DOCKED: ATOM     12  O   UNL d   1     -14.259   6.600  10.918 -0.01 -1.15    -0.638 OA
DOCKED: ENDBRANCH   8   9
DOCKED: ENDBRANCH   7   8
DOCKED: ENDBRANCH   1   7
DOCKED: BRANCH   1  13
DOCKED: ATOM     13  C   UNL d   1     -13.392   2.894  14.512 -0.25 +0.02    +0.073 C 
DOCKED: ATOM     14  O   UNL d   1     -12.490   3.507  15.184 -0.04 -0.13    -0.547 OA
DOCKED: ATOM     15  O   UNL d   1     -14.178   2.003  14.998 -0.02 -0.08    -0.547 OA
DOCKED: ENDBRANCH   1  13
DOCKED: TORSDOF 6
DOCKED: TER
DOCKED: ENDMDL
________________________________________________________________________________


	BEGINNING GENETIC ALGORITHM DOCKING 59 of 100
Run: 59 Seed: 1248836575 724061126 [ Run 59 of 100 GA/GALS ]
Beginning LAMARCKIAN GENETIC ALGORITHM (LGA), with a maximum of 25000000 energy evaluations.

Final-Value: -8.546


	FINAL GENETIC ALGORITHM DOCKED STATE
	_______________________________________________


Detailed state:  trans -13.637 5.322 11.485 quatxyzw -0.815359 0.053291 -0.419430 -0.395510 center 0.015 0.083 0.031 ntor 6 169.0393 -159.0125 -159.8031 20.0680 14.7234 -65.8775
State:	-13.637   5.322  11.485  -0.888  0.058 -0.457 -133.404    169.04 -159.01 -159.80   20.07   14.72  -65.88

DOCKED: MODEL       59
DOCKED: USER    Run = 59
DOCKED: USER    DPF = D:/Protein_go_brrr/autodock/final/mut_Y35F/2_3_BPG/dock.dpf
DOCKED: USER  
DOCKED: USER    Estimated Free Energy of Binding    =   -8.79 kcal/mol  [=(1)+(2)+(3)-(4)]
DOCKED: USER    Estimated Inhibition Constant, Ki   =  358.65 nM (nanomolar)  [Temperature = 298.15 K]
DOCKED: USER    
DOCKED: USER    (1) Final Intermolecular Energy     =  -10.58 kcal/mol
DOCKED: USER        vdW + Hbond + desolv Energy     =   -4.26 kcal/mol
DOCKED: USER        Electrostatic Energy            =   -6.33 kcal/mol
DOCKED: USER    (2) Final Total Internal Energy     =   +2.04 kcal/mol
DOCKED: USER    (3) Torsional Free Energy           =   +1.79 kcal/mol
DOCKED: USER    (4) Unbound System's Energy  [=(2)] =   +2.04 kcal/mol
DOCKED: USER    
DOCKED: USER    
DOCKED: USER    NEWDPF move 2_3_BPG_opt.pdbqt
DOCKED: USER    NEWDPF about 0.015000 0.083000 0.031000
DOCKED: USER    NEWDPF tran0 -13.636593 5.322030 11.484682
DOCKED: USER    NEWDPF quaternion0 -0.815359 0.053291 -0.419430 -0.395510
DOCKED: USER    NEWDPF axisangle0 -0.887744 0.058023 -0.456666 -133.404461
DOCKED: USER    NEWDPF quat0 -0.887744 0.058023 -0.456666 -133.404461
DOCKED: USER    NEWDPF dihe0 169.04 -159.01 -159.80 20.07 14.72 -65.88 
DOCKED: USER  keepresnum = 1 
DOCKED: USER  
DOCKED: REMARK  6 active torsions:
DOCKED: REMARK  status: ('A' for Active; 'I' for Inactive)
DOCKED: REMARK    1  A    between atoms: P_1  and  O_3 
DOCKED: REMARK    2  A    between atoms: P_2  and  O_4 
DOCKED: REMARK    3  A    between atoms: O_3  and  C_13 
DOCKED: REMARK    4  A    between atoms: O_4  and  C_14 
DOCKED: REMARK    5  A    between atoms: C_13  and  C_14 
DOCKED: REMARK    6  A    between atoms: C_13  and  C_15 
DOCKED: USER                              x       y       z     vdW  Elec       q    Type
DOCKED: USER                           _______ _______ _______ _____ _____    ______ ____
DOCKED: ROOT
DOCKED: ATOM      1  C   UNL d   1     -14.022   5.836  11.293 -0.08 +0.31    +0.193 C 
DOCKED: ENDROOT
DOCKED: BRANCH   1   2
DOCKED: ATOM      2  O   UNL d   1     -14.968   5.346  10.284 -0.14 -0.53    -0.356 OA
DOCKED: BRANCH   2   3
DOCKED: ATOM      3  P   UNL d   1     -14.922   5.803   8.705 -0.20 -0.02    -0.014 P 
DOCKED: ATOM      4  O   UNL d   1     -13.521   6.408   8.522 -0.01 -0.93    -0.577 OA
DOCKED: ATOM      5  O   UNL d   1     -16.016   6.850   8.505 +0.02 -0.43    -0.577 OA
DOCKED: ATOM      6  O   UNL d   1     -15.110   4.556   7.847 -0.51 -1.16    -0.638 OA
DOCKED: ENDBRANCH   2   3
DOCKED: ENDBRANCH   1   2
DOCKED: BRANCH   1   7
DOCKED: ATOM      7  C   UNL d   1     -13.313   4.601  11.962 -0.21 +0.29    +0.201 C 
DOCKED: BRANCH   7   8
DOCKED: ATOM      8  O   UNL d   1     -12.052   4.205  11.379 -0.65 -0.68    -0.364 OA
DOCKED: BRANCH   8   9
DOCKED: ATOM      9  P   UNL d   1     -11.433   2.702  11.683 -0.70 -0.02    -0.015 P 
DOCKED: ATOM     10  O   UNL d   1     -12.640   1.848  12.091 -0.13 -0.55    -0.577 OA
DOCKED: ATOM     11  O   UNL d   1     -10.430   2.855  12.826 -0.73 -0.49    -0.577 OA
DOCKED: ATOM     12  O   UNL d   1     -10.792   2.207  10.387 -0.21 -0.95    -0.638 OA
DOCKED: ENDBRANCH   8   9
DOCKED: ENDBRANCH   7   8
DOCKED: ENDBRANCH   1   7
DOCKED: BRANCH   1  13
DOCKED: ATOM     13  C   UNL d   1     -14.790   6.642  12.406 -0.12 +0.08    +0.073 C 
DOCKED: ATOM     14  O   UNL d   1     -14.279   7.738  12.829 -0.60 -0.91    -0.547 OA
DOCKED: ATOM     15  O   UNL d   1     -15.926   6.178  12.782 +0.01 -0.34    -0.547 OA
DOCKED: ENDBRANCH   1  13
DOCKED: TORSDOF 6
DOCKED: TER
DOCKED: ENDMDL
________________________________________________________________________________


	BEGINNING GENETIC ALGORITHM DOCKING 60 of 100
Run: 60 Seed: 210244388 968775484 [ Run 60 of 100 GA/GALS ]
Beginning LAMARCKIAN GENETIC ALGORITHM (LGA), with a maximum of 25000000 energy evaluations.

Final-Value: -8.755


	FINAL GENETIC ALGORITHM DOCKED STATE
	_______________________________________________


Detailed state:  trans -13.646 5.024 12.484 quatxyzw 0.330636 -0.252295 -0.429340 -0.801682 center 0.015 0.083 0.031 ntor 6 176.8892 -100.1210 -145.5101 56.9815 -26.7637 61.8013
State:	-13.646   5.024  12.484   0.553 -0.422 -0.718 -73.418    176.89 -100.12 -145.51   56.98  -26.76   61.80

DOCKED: MODEL       60
DOCKED: USER    Run = 60
DOCKED: USER    DPF = D:/Protein_go_brrr/autodock/final/mut_Y35F/2_3_BPG/dock.dpf
DOCKED: USER  
DOCKED: USER    Estimated Free Energy of Binding    =   -9.04 kcal/mol  [=(1)+(2)+(3)-(4)]
DOCKED: USER    Estimated Inhibition Constant, Ki   =  234.70 nM (nanomolar)  [Temperature = 298.15 K]
DOCKED: USER    
DOCKED: USER    (1) Final Intermolecular Energy     =  -10.83 kcal/mol
DOCKED: USER        vdW + Hbond + desolv Energy     =   -4.46 kcal/mol
DOCKED: USER        Electrostatic Energy            =   -6.37 kcal/mol
DOCKED: USER    (2) Final Total Internal Energy     =   +2.08 kcal/mol
DOCKED: USER    (3) Torsional Free Energy           =   +1.79 kcal/mol
DOCKED: USER    (4) Unbound System's Energy  [=(2)] =   +2.08 kcal/mol
DOCKED: USER    
DOCKED: USER    
DOCKED: USER    NEWDPF move 2_3_BPG_opt.pdbqt
DOCKED: USER    NEWDPF about 0.015000 0.083000 0.031000
DOCKED: USER    NEWDPF tran0 -13.645662 5.023968 12.484471
DOCKED: USER    NEWDPF quaternion0 0.330636 -0.252295 -0.429340 -0.801682
DOCKED: USER    NEWDPF axisangle0 0.553134 -0.422074 -0.718260 -73.417962
DOCKED: USER    NEWDPF quat0 0.553134 -0.422074 -0.718260 -73.417962
DOCKED: USER    NEWDPF dihe0 176.89 -100.12 -145.51 56.98 -26.76 61.80 
DOCKED: USER  keepresnum = 1 
DOCKED: USER  
DOCKED: REMARK  6 active torsions:
DOCKED: REMARK  status: ('A' for Active; 'I' for Inactive)
DOCKED: REMARK    1  A    between atoms: P_1  and  O_3 
DOCKED: REMARK    2  A    between atoms: P_2  and  O_4 
DOCKED: REMARK    3  A    between atoms: O_3  and  C_13 
DOCKED: REMARK    4  A    between atoms: O_4  and  C_14 
DOCKED: REMARK    5  A    between atoms: C_13  and  C_14 
DOCKED: REMARK    6  A    between atoms: C_13  and  C_15 
DOCKED: USER                              x       y       z     vdW  Elec       q    Type
DOCKED: USER                           _______ _______ _______ _____ _____    ______ ____
DOCKED: ROOT
DOCKED: ATOM      1  C   UNL d   1     -14.168   5.367  12.242 -0.17 +0.22    +0.193 C 
DOCKED: ENDROOT
DOCKED: BRANCH   1   2
DOCKED: ATOM      2  O   UNL d   1     -13.838   6.796  12.290 -0.32 -0.64    -0.356 OA
DOCKED: BRANCH   2   3
DOCKED: ATOM      3  P   UNL d   1     -13.843   7.677  13.679 -0.10 -0.02    -0.014 P 
DOCKED: ATOM      4  O   UNL d   1     -12.553   7.258  14.403 -0.05 -0.47    -0.577 OA
DOCKED: ATOM      5  O   UNL d   1     -15.086   7.272  14.468 +0.01 -0.30    -0.577 OA
DOCKED: ATOM      6  O   UNL d   1     -13.818   9.154  13.300 -0.37 -1.00    -0.638 OA
DOCKED: ENDBRANCH   2   3
DOCKED: ENDBRANCH   1   2
DOCKED: BRANCH   1   7
DOCKED: ATOM      7  C   UNL d   1     -12.862   4.538  12.529 -0.23 +0.23    +0.201 C 
DOCKED: BRANCH   7   8
DOCKED: ATOM      8  O   UNL d   1     -12.669   3.363  11.710 -0.62 -0.67    -0.364 OA
DOCKED: BRANCH   8   9
DOCKED: ATOM      9  P   UNL d   1     -11.148   2.754  11.479 -0.68 -0.02    -0.015 P 
DOCKED: ATOM     10  O   UNL d   1     -10.430   2.956  12.819 -0.73 -0.50    -0.577 OA
DOCKED: ATOM     11  O   UNL d   1     -10.505   3.571  10.359 -0.30 -0.87    -0.577 OA
DOCKED: ATOM     12  O   UNL d   1     -11.303   1.275  11.128 -0.59 -0.68    -0.638 OA
DOCKED: ENDBRANCH   8   9
DOCKED: ENDBRANCH   7   8
DOCKED: ENDBRANCH   1   7
DOCKED: BRANCH   1  13
DOCKED: ATOM     13  C   UNL d   1     -14.703   4.985  10.811 -0.17 +0.11    +0.073 C 
DOCKED: ATOM     14  O   UNL d   1     -15.805   4.338  10.724 -0.05 -0.61    -0.547 OA
DOCKED: ATOM     15  O   UNL d   1     -14.027   5.406   9.805 -0.10 -1.15    -0.547 OA
DOCKED: ENDBRANCH   1  13
DOCKED: TORSDOF 6
DOCKED: TER
DOCKED: ENDMDL
________________________________________________________________________________


	BEGINNING GENETIC ALGORITHM DOCKING 61 of 100
Run: 61 Seed: 1650343875 925217357 [ Run 61 of 100 GA/GALS ]
Beginning LAMARCKIAN GENETIC ALGORITHM (LGA), with a maximum of 25000000 energy evaluations.

Final-Value: -9.213


	FINAL GENETIC ALGORITHM DOCKED STATE
	_______________________________________________


Detailed state:  trans -13.221 4.756 11.949 quatxyzw 0.813033 -0.200765 0.457472 0.298981 center 0.015 0.083 0.031 ntor 6 80.9793 -158.6431 -34.5506 15.7911 -83.9082 -98.0107
State:	-13.221   4.756  11.949   0.852 -0.210  0.479 145.207     80.98 -158.64  -34.55   15.79  -83.91  -98.01

DOCKED: MODEL       61
DOCKED: USER    Run = 61
DOCKED: USER    DPF = D:/Protein_go_brrr/autodock/final/mut_Y35F/2_3_BPG/dock.dpf
DOCKED: USER  
DOCKED: USER    Estimated Free Energy of Binding    =   -9.79 kcal/mol  [=(1)+(2)+(3)-(4)]
DOCKED: USER    Estimated Inhibition Constant, Ki   =   66.88 nM (nanomolar)  [Temperature = 298.15 K]
DOCKED: USER    
DOCKED: USER    (1) Final Intermolecular Energy     =  -11.58 kcal/mol
DOCKED: USER        vdW + Hbond + desolv Energy     =   -4.20 kcal/mol
DOCKED: USER        Electrostatic Energy            =   -7.38 kcal/mol
DOCKED: USER    (2) Final Total Internal Energy     =   +2.37 kcal/mol
DOCKED: USER    (3) Torsional Free Energy           =   +1.79 kcal/mol
DOCKED: USER    (4) Unbound System's Energy  [=(2)] =   +2.37 kcal/mol
DOCKED: USER    
DOCKED: USER    
DOCKED: USER    NEWDPF move 2_3_BPG_opt.pdbqt
DOCKED: USER    NEWDPF about 0.015000 0.083000 0.031000
DOCKED: USER    NEWDPF tran0 -13.220688 4.755766 11.948592
DOCKED: USER    NEWDPF quaternion0 0.813033 -0.200765 0.457472 0.298981
DOCKED: USER    NEWDPF axisangle0 0.852005 -0.210389 0.479400 145.207151
DOCKED: USER    NEWDPF quat0 0.852005 -0.210389 0.479400 145.207151
DOCKED: USER    NEWDPF dihe0 80.98 -158.64 -34.55 15.79 -83.91 -98.01 
DOCKED: USER  keepresnum = 1 
DOCKED: USER  
DOCKED: REMARK  6 active torsions:
DOCKED: REMARK  status: ('A' for Active; 'I' for Inactive)
DOCKED: REMARK    1  A    between atoms: P_1  and  O_3 
DOCKED: REMARK    2  A    between atoms: P_2  and  O_4 
DOCKED: REMARK    3  A    between atoms: O_3  and  C_13 
DOCKED: REMARK    4  A    between atoms: O_4  and  C_14 
DOCKED: REMARK    5  A    between atoms: C_13  and  C_14 
DOCKED: REMARK    6  A    between atoms: C_13  and  C_15 
DOCKED: USER                              x       y       z     vdW  Elec       q    Type
DOCKED: USER                           _______ _______ _______ _____ _____    ______ ____
DOCKED: ROOT
DOCKED: ATOM      1  C   UNL d   1     -13.417   5.367  11.755 -0.10 +0.30    +0.193 C 
DOCKED: ENDROOT
DOCKED: BRANCH   1   2
DOCKED: ATOM      2  O   UNL d   1     -14.541   5.211  10.824 -0.25 -0.57    -0.356 OA
DOCKED: BRANCH   2   3
DOCKED: ATOM      3  P   UNL d   1     -14.480   5.680   9.249 -0.07 -0.02    -0.014 P 
DOCKED: ATOM      4  O   UNL d   1     -12.980   5.834   8.953 +0.05 -1.17    -0.577 OA
DOCKED: ATOM      5  O   UNL d   1     -15.214   7.016   9.146 -0.01 -0.64    -0.577 OA
DOCKED: ATOM      6  O   UNL d   1     -15.107   4.576   8.404 -0.26 -1.31    -0.638 OA
DOCKED: ENDBRANCH   2   3
DOCKED: ENDBRANCH   1   2
DOCKED: BRANCH   1   7
DOCKED: ATOM      7  C   UNL d   1     -13.134   3.979  12.440 -0.26 +0.23    +0.201 C 
DOCKED: BRANCH   7   8
DOCKED: ATOM      8  O   UNL d   1     -12.754   2.904  11.554 -0.35 -0.72    -0.364 OA
DOCKED: BRANCH   8   9
DOCKED: ATOM      9  P   UNL d   1     -11.160   2.499  11.376 -0.66 -0.02    -0.015 P 
DOCKED: ATOM     10  O   UNL d   1     -11.159   0.986  11.122 -0.73 -0.55    -0.577 OA
DOCKED: ATOM     11  O   UNL d   1     -10.460   2.858  12.686 -0.75 -0.52    -0.577 OA
DOCKED: ATOM     12  O   UNL d   1     -10.627   3.282  10.178 -0.20 -1.05    -0.638 OA
DOCKED: ENDBRANCH   8   9
DOCKED: ENDBRANCH   7   8
DOCKED: ENDBRANCH   1   7
DOCKED: BRANCH   1  13
DOCKED: ATOM     13  C   UNL d   1     -13.782   6.416  12.870 -0.09 +0.09    +0.073 C 
DOCKED: ATOM     14  O   UNL d   1     -13.508   6.132  14.089 -0.02 -0.39    -0.547 OA
DOCKED: ATOM     15  O   UNL d   1     -14.281   7.532  12.479 -0.50 -1.03    -0.547 OA
DOCKED: ENDBRANCH   1  13
DOCKED: TORSDOF 6
DOCKED: TER
DOCKED: ENDMDL
________________________________________________________________________________


	BEGINNING GENETIC ALGORITHM DOCKING 62 of 100
Run: 62 Seed: 508039281 454999365 [ Run 62 of 100 GA/GALS ]
Beginning LAMARCKIAN GENETIC ALGORITHM (LGA), with a maximum of 25000000 energy evaluations.

Final-Value: -8.529


	FINAL GENETIC ALGORITHM DOCKED STATE
	_______________________________________________


Detailed state:  trans -13.596 5.253 11.515 quatxyzw 0.718906 -0.144087 0.522948 0.434671 center 0.015 0.083 0.031 ntor 6 21.1264 -149.7394 -178.9939 47.5058 -15.4191 -58.7831
State:	-13.596   5.253  11.515   0.798 -0.160  0.581 128.471     21.13 -149.74 -178.99   47.51  -15.42  -58.78

DOCKED: MODEL       62
DOCKED: USER    Run = 62
DOCKED: USER    DPF = D:/Protein_go_brrr/autodock/final/mut_Y35F/2_3_BPG/dock.dpf
DOCKED: USER  
DOCKED: USER    Estimated Free Energy of Binding    =   -8.81 kcal/mol  [=(1)+(2)+(3)-(4)]
DOCKED: USER    Estimated Inhibition Constant, Ki   =  347.81 nM (nanomolar)  [Temperature = 298.15 K]
DOCKED: USER    
DOCKED: USER    (1) Final Intermolecular Energy     =  -10.60 kcal/mol
DOCKED: USER        vdW + Hbond + desolv Energy     =   -4.25 kcal/mol
DOCKED: USER        Electrostatic Energy            =   -6.35 kcal/mol
DOCKED: USER    (2) Final Total Internal Energy     =   +2.07 kcal/mol
DOCKED: USER    (3) Torsional Free Energy           =   +1.79 kcal/mol
DOCKED: USER    (4) Unbound System's Energy  [=(2)] =   +2.07 kcal/mol
DOCKED: USER    
DOCKED: USER    
DOCKED: USER    NEWDPF move 2_3_BPG_opt.pdbqt
DOCKED: USER    NEWDPF about 0.015000 0.083000 0.031000
DOCKED: USER    NEWDPF tran0 -13.595708 5.253138 11.514893
DOCKED: USER    NEWDPF quaternion0 0.718906 -0.144087 0.522948 0.434671
DOCKED: USER    NEWDPF axisangle0 0.798262 -0.159992 0.580673 128.471309
DOCKED: USER    NEWDPF quat0 0.798262 -0.159992 0.580673 128.471309
DOCKED: USER    NEWDPF dihe0 21.13 -149.74 -178.99 47.51 -15.42 -58.78 
DOCKED: USER  keepresnum = 1 
DOCKED: USER  
DOCKED: REMARK  6 active torsions:
DOCKED: REMARK  status: ('A' for Active; 'I' for Inactive)
DOCKED: REMARK    1  A    between atoms: P_1  and  O_3 
DOCKED: REMARK    2  A    between atoms: P_2  and  O_4 
DOCKED: REMARK    3  A    between atoms: O_3  and  C_13 
DOCKED: REMARK    4  A    between atoms: O_4  and  C_14 
DOCKED: REMARK    5  A    between atoms: C_13  and  C_14 
DOCKED: REMARK    6  A    between atoms: C_13  and  C_15 
DOCKED: USER                              x       y       z     vdW  Elec       q    Type
DOCKED: USER                           _______ _______ _______ _____ _____    ______ ____
DOCKED: ROOT
DOCKED: ATOM      1  C   UNL d   1     -13.832   5.866  11.383 -0.01 +0.32    +0.193 C 
DOCKED: ENDROOT
DOCKED: BRANCH   1   2
DOCKED: ATOM      2  O   UNL d   1     -14.631   5.793  10.154 -0.13 -0.55    -0.356 OA
DOCKED: BRANCH   2   3
DOCKED: ATOM      3  P   UNL d   1     -13.981   5.898   8.647 -0.16 -0.02    -0.014 P 
DOCKED: ATOM      4  O   UNL d   1     -12.535   5.406   8.818 +0.09 -1.29    -0.577 OA
DOCKED: ATOM      5  O   UNL d   1     -14.029   7.368   8.235 -0.07 -0.75    -0.577 OA
DOCKED: ATOM      6  O   UNL d   1     -14.779   4.982   7.725 -0.47 -1.08    -0.638 OA
DOCKED: ENDBRANCH   2   3
DOCKED: ENDBRANCH   1   2
DOCKED: BRANCH   1   7
DOCKED: ATOM      7  C   UNL d   1     -13.514   4.403  11.866 -0.11 +0.31    +0.201 C 
DOCKED: BRANCH   7   8
DOCKED: ATOM      8  O   UNL d   1     -12.194   3.909  11.552 -0.71 -0.66    -0.364 OA
DOCKED: BRANCH   8   9
DOCKED: ATOM      9  P   UNL d   1     -11.636   2.523  12.263 -0.74 -0.01    -0.015 P 
DOCKED: ATOM     10  O   UNL d   1     -12.806   2.011  13.111 -0.06 -0.25    -0.577 OA
DOCKED: ATOM     11  O   UNL d   1     -10.435   2.915  13.123 -0.66 -0.43    -0.577 OA
DOCKED: ATOM     12  O   UNL d   1     -11.276   1.553  11.138 -0.50 -0.75    -0.638 OA
DOCKED: ENDBRANCH   8   9
DOCKED: ENDBRANCH   7   8
DOCKED: ENDBRANCH   1   7
DOCKED: BRANCH   1  13
DOCKED: ATOM     13  C   UNL d   1     -14.645   6.605  12.511 -0.12 +0.08    +0.073 C 
DOCKED: ATOM     14  O   UNL d   1     -15.599   5.975  13.089 +0.00 -0.35    -0.547 OA
DOCKED: ATOM     15  O   UNL d   1     -14.255   7.785  12.831 -0.60 -0.93    -0.547 OA
DOCKED: ENDBRANCH   1  13
DOCKED: TORSDOF 6
DOCKED: TER
DOCKED: ENDMDL
________________________________________________________________________________


	BEGINNING GENETIC ALGORITHM DOCKING 63 of 100
Run: 63 Seed: 1528612055 1201813991 [ Run 63 of 100 GA/GALS ]
Beginning LAMARCKIAN GENETIC ALGORITHM (LGA), with a maximum of 25000000 energy evaluations.

Final-Value: -8.671


	FINAL GENETIC ALGORITHM DOCKED STATE
	_______________________________________________


Detailed state:  trans -13.535 5.346 11.509 quatxyzw -0.783845 0.099617 -0.440948 -0.425710 center 0.015 0.083 0.031 ntor 6 -170.6045 -152.1665 -151.9631 38.9496 1.2548 -73.1925
State:	-13.535   5.346  11.509  -0.866  0.110 -0.487 -129.609   -170.60 -152.17 -151.96   38.95    1.25  -73.19

DOCKED: MODEL       63
DOCKED: USER    Run = 63
DOCKED: USER    DPF = D:/Protein_go_brrr/autodock/final/mut_Y35F/2_3_BPG/dock.dpf
DOCKED: USER  
DOCKED: USER    Estimated Free Energy of Binding    =   -9.00 kcal/mol  [=(1)+(2)+(3)-(4)]
DOCKED: USER    Estimated Inhibition Constant, Ki   =  252.94 nM (nanomolar)  [Temperature = 298.15 K]
DOCKED: USER    
DOCKED: USER    (1) Final Intermolecular Energy     =  -10.79 kcal/mol
DOCKED: USER        vdW + Hbond + desolv Energy     =   -4.11 kcal/mol
DOCKED: USER        Electrostatic Energy            =   -6.68 kcal/mol
DOCKED: USER    (2) Final Total Internal Energy     =   +2.12 kcal/mol
DOCKED: USER    (3) Torsional Free Energy           =   +1.79 kcal/mol
DOCKED: USER    (4) Unbound System's Energy  [=(2)] =   +2.12 kcal/mol
DOCKED: USER    
DOCKED: USER    
DOCKED: USER    NEWDPF move 2_3_BPG_opt.pdbqt
DOCKED: USER    NEWDPF about 0.015000 0.083000 0.031000
DOCKED: USER    NEWDPF tran0 -13.534595 5.345987 11.508870
DOCKED: USER    NEWDPF quaternion0 -0.783845 0.099617 -0.440948 -0.425710
DOCKED: USER    NEWDPF axisangle0 -0.866261 0.110091 -0.487311 -129.608784
DOCKED: USER    NEWDPF quat0 -0.866261 0.110091 -0.487311 -129.608784
DOCKED: USER    NEWDPF dihe0 -170.60 -152.17 -151.96 38.95 1.25 -73.19 
DOCKED: USER  keepresnum = 1 
DOCKED: USER  
DOCKED: REMARK  6 active torsions:
DOCKED: REMARK  status: ('A' for Active; 'I' for Inactive)
DOCKED: REMARK    1  A    between atoms: P_1  and  O_3 
DOCKED: REMARK    2  A    between atoms: P_2  and  O_4 
DOCKED: REMARK    3  A    between atoms: O_3  and  C_13 
DOCKED: REMARK    4  A    between atoms: O_4  and  C_14 
DOCKED: REMARK    5  A    between atoms: C_13  and  C_14 
DOCKED: REMARK    6  A    between atoms: C_13  and  C_15 
DOCKED: USER                              x       y       z     vdW  Elec       q    Type
DOCKED: USER                           _______ _______ _______ _____ _____    ______ ____
DOCKED: ROOT
DOCKED: ATOM      1  C   UNL d   1     -13.877   5.904  11.366 +0.02 +0.32    +0.193 C 
DOCKED: ENDROOT
DOCKED: BRANCH   1   2
DOCKED: ATOM      2  O   UNL d   1     -14.822   5.597  10.286 -0.14 -0.53    -0.356 OA
DOCKED: BRANCH   2   3
DOCKED: ATOM      3  P   UNL d   1     -14.481   5.830   8.695 -0.19 -0.02    -0.014 P 
DOCKED: ATOM      4  O   UNL d   1     -12.947   5.795   8.623 +0.00 -1.12    -0.577 OA
DOCKED: ATOM      5  O   UNL d   1     -15.030   7.202   8.310 -0.00 -0.57    -0.577 OA
DOCKED: ATOM      6  O   UNL d   1     -15.105   4.683   7.906 -0.48 -1.12    -0.638 OA
DOCKED: ENDBRANCH   2   3
DOCKED: ENDBRANCH   1   2
DOCKED: BRANCH   1   7
DOCKED: ATOM      7  C   UNL d   1     -13.277   4.556  11.911 -0.18 +0.30    +0.201 C 
DOCKED: BRANCH   7   8
DOCKED: ATOM      8  O   UNL d   1     -12.120   4.052  11.208 -0.62 -0.77    -0.364 OA
DOCKED: BRANCH   8   9
DOCKED: ATOM      9  P   UNL d   1     -11.469   2.589  11.624 -0.68 -0.02    -0.015 P 
DOCKED: ATOM     10  O   UNL d   1     -12.651   1.758  12.139 -0.11 -0.51    -0.577 OA
DOCKED: ATOM     11  O   UNL d   1     -10.438   2.855  12.721 -0.75 -0.51    -0.577 OA
DOCKED: ATOM     12  O   UNL d   1     -10.855   1.992  10.359 -0.26 -0.93    -0.638 OA
DOCKED: ENDBRANCH   8   9
DOCKED: ENDBRANCH   7   8
DOCKED: ENDBRANCH   1   7
DOCKED: BRANCH   1  13
DOCKED: ATOM     13  C   UNL d   1     -14.623   6.636  12.543 -0.12 +0.08    +0.073 C 
DOCKED: ATOM     14  O   UNL d   1     -14.277   7.835  12.835 -0.61 -0.93    -0.547 OA
DOCKED: ATOM     15  O   UNL d   1     -15.587   6.003  13.106 +0.00 -0.35    -0.547 OA
DOCKED: ENDBRANCH   1  13
DOCKED: TORSDOF 6
DOCKED: TER
DOCKED: ENDMDL
________________________________________________________________________________


	BEGINNING GENETIC ALGORITHM DOCKING 64 of 100
Run: 64 Seed: 574092439 873475576 [ Run 64 of 100 GA/GALS ]
Beginning LAMARCKIAN GENETIC ALGORITHM (LGA), with a maximum of 25000000 energy evaluations.

Final-Value: -9.517


	FINAL GENETIC ALGORITHM DOCKED STATE
	_______________________________________________


Detailed state:  trans -13.126 4.940 11.846 quatxyzw 0.763222 -0.044841 0.526458 0.371919 center 0.015 0.083 0.031 ntor 6 179.2425 -118.6056 -147.7263 -1.2881 -77.7921 -128.2777
State:	-13.126   4.940  11.846   0.822 -0.048  0.567 136.332    179.24 -118.61 -147.73   -1.29  -77.79 -128.28

DOCKED: MODEL       64
DOCKED: USER    Run = 64
DOCKED: USER    DPF = D:/Protein_go_brrr/autodock/final/mut_Y35F/2_3_BPG/dock.dpf
DOCKED: USER  
DOCKED: USER    Estimated Free Energy of Binding    =  -10.07 kcal/mol  [=(1)+(2)+(3)-(4)]
DOCKED: USER    Estimated Inhibition Constant, Ki   =   41.78 nM (nanomolar)  [Temperature = 298.15 K]
DOCKED: USER    
DOCKED: USER    (1) Final Intermolecular Energy     =  -11.86 kcal/mol
DOCKED: USER        vdW + Hbond + desolv Energy     =   -4.49 kcal/mol
DOCKED: USER        Electrostatic Energy            =   -7.37 kcal/mol
DOCKED: USER    (2) Final Total Internal Energy     =   +2.34 kcal/mol
DOCKED: USER    (3) Torsional Free Energy           =   +1.79 kcal/mol
DOCKED: USER    (4) Unbound System's Energy  [=(2)] =   +2.34 kcal/mol
DOCKED: USER    
DOCKED: USER    
DOCKED: USER    NEWDPF move 2_3_BPG_opt.pdbqt
DOCKED: USER    NEWDPF about 0.015000 0.083000 0.031000
DOCKED: USER    NEWDPF tran0 -13.126090 4.939646 11.845531
DOCKED: USER    NEWDPF quaternion0 0.763222 -0.044841 0.526458 0.371919
DOCKED: USER    NEWDPF axisangle0 0.822202 -0.048306 0.567142 136.332007
DOCKED: USER    NEWDPF quat0 0.822202 -0.048306 0.567142 136.332007
DOCKED: USER    NEWDPF dihe0 179.24 -118.61 -147.73 -1.29 -77.79 -128.28 
DOCKED: USER  keepresnum = 1 
DOCKED: USER  
DOCKED: REMARK  6 active torsions:
DOCKED: REMARK  status: ('A' for Active; 'I' for Inactive)
DOCKED: REMARK    1  A    between atoms: P_1  and  O_3 
DOCKED: REMARK    2  A    between atoms: P_2  and  O_4 
DOCKED: REMARK    3  A    between atoms: O_3  and  C_13 
DOCKED: REMARK    4  A    between atoms: O_4  and  C_14 
DOCKED: REMARK    5  A    between atoms: C_13  and  C_14 
DOCKED: REMARK    6  A    between atoms: C_13  and  C_15 
DOCKED: USER                              x       y       z     vdW  Elec       q    Type
DOCKED: USER                           _______ _______ _______ _____ _____    ______ ____
DOCKED: ROOT
DOCKED: ATOM      1  C   UNL d   1     -13.408   5.482  11.570 +0.02 +0.32    +0.193 C 
DOCKED: ENDROOT
DOCKED: BRANCH   1   2
DOCKED: ATOM      2  O   UNL d   1     -14.152   5.056  10.380 -0.25 -0.75    -0.356 OA
DOCKED: BRANCH   2   3
DOCKED: ATOM      3  P   UNL d   1     -14.059   5.832   8.932 -0.15 -0.02    -0.014 P 
DOCKED: ATOM      4  O   UNL d   1     -12.565   5.802   8.577 +0.03 -1.10    -0.577 OA
DOCKED: ATOM      5  O   UNL d   1     -14.557   7.259   9.151 -0.05 -0.85    -0.577 OA
DOCKED: ATOM      6  O   UNL d   1     -14.891   5.046   7.923 -0.41 -1.06    -0.638 OA
DOCKED: ENDBRANCH   2   3
DOCKED: ENDBRANCH   1   2
DOCKED: BRANCH   1   7
DOCKED: ATOM      7  C   UNL d   1     -12.987   4.205  12.386 -0.26 +0.24    +0.201 C 
DOCKED: BRANCH   7   8
DOCKED: ATOM      8  O   UNL d   1     -12.738   3.013  11.608 -0.43 -0.70    -0.364 OA
DOCKED: BRANCH   8   9
DOCKED: ATOM      9  P   UNL d   1     -11.186   2.498  11.354 -0.65 -0.02    -0.015 P 
DOCKED: ATOM     10  O   UNL d   1     -10.432   2.854  12.641 -0.76 -0.53    -0.577 OA
DOCKED: ATOM     11  O   UNL d   1     -10.652   3.270  10.148 -0.24 -0.97    -0.577 OA
DOCKED: ATOM     12  O   UNL d   1     -11.244   0.989  11.121 -0.68 -0.60    -0.638 OA
DOCKED: ENDBRANCH   8   9
DOCKED: ENDBRANCH   7   8
DOCKED: ENDBRANCH   1   7
DOCKED: BRANCH   1  13
DOCKED: ATOM     13  C   UNL d   1     -14.320   6.385  12.482 -0.13 +0.09    +0.073 C 
DOCKED: ATOM     14  O   UNL d   1     -13.879   7.534  12.840 -0.52 -1.03    -0.547 OA
DOCKED: ATOM     15  O   UNL d   1     -15.489   5.937  12.763 -0.00 -0.39    -0.547 OA
DOCKED: ENDBRANCH   1  13
DOCKED: TORSDOF 6
DOCKED: TER
DOCKED: ENDMDL
________________________________________________________________________________


	BEGINNING GENETIC ALGORITHM DOCKING 65 of 100
Run: 65 Seed: 1106474440 1893693603 [ Run 65 of 100 GA/GALS ]
Beginning LAMARCKIAN GENETIC ALGORITHM (LGA), with a maximum of 25000000 energy evaluations.

Final-Value: -8.463


	FINAL GENETIC ALGORITHM DOCKED STATE
	_______________________________________________


Detailed state:  trans -13.839 4.812 11.944 quatxyzw -0.222913 -0.403688 0.887272 -0.009693 center 0.015 0.083 0.031 ntor 6 50.4035 -161.9310 -57.0729 44.1855 11.1121 180.0000
State:	-13.839   4.812  11.944  -0.223 -0.404  0.887 -178.889     50.40 -161.93  -57.07   44.19   11.11  180.00

DOCKED: MODEL       65
DOCKED: USER    Run = 65
DOCKED: USER    DPF = D:/Protein_go_brrr/autodock/final/mut_Y35F/2_3_BPG/dock.dpf
DOCKED: USER  
DOCKED: USER    Estimated Free Energy of Binding    =   -8.88 kcal/mol  [=(1)+(2)+(3)-(4)]
DOCKED: USER    Estimated Inhibition Constant, Ki   =  308.99 nM (nanomolar)  [Temperature = 298.15 K]
DOCKED: USER    
DOCKED: USER    (1) Final Intermolecular Energy     =  -10.67 kcal/mol
DOCKED: USER        vdW + Hbond + desolv Energy     =   -4.08 kcal/mol
DOCKED: USER        Electrostatic Energy            =   -6.59 kcal/mol
DOCKED: USER    (2) Final Total Internal Energy     =   +2.21 kcal/mol
DOCKED: USER    (3) Torsional Free Energy           =   +1.79 kcal/mol
DOCKED: USER    (4) Unbound System's Energy  [=(2)] =   +2.21 kcal/mol
DOCKED: USER    
DOCKED: USER    
DOCKED: USER    NEWDPF move 2_3_BPG_opt.pdbqt
DOCKED: USER    NEWDPF about 0.015000 0.083000 0.031000
DOCKED: USER    NEWDPF tran0 -13.839343 4.811820 11.944193
DOCKED: USER    NEWDPF quaternion0 -0.222913 -0.403688 0.887272 -0.009693
DOCKED: USER    NEWDPF axisangle0 -0.222923 -0.403707 0.887314 -178.889199
DOCKED: USER    NEWDPF quat0 -0.222923 -0.403707 0.887314 -178.889199
DOCKED: USER    NEWDPF dihe0 50.40 -161.93 -57.07 44.19 11.11 180.00 
DOCKED: USER  keepresnum = 1 
DOCKED: USER  
DOCKED: REMARK  6 active torsions:
DOCKED: REMARK  status: ('A' for Active; 'I' for Inactive)
DOCKED: REMARK    1  A    between atoms: P_1  and  O_3 
DOCKED: REMARK    2  A    between atoms: P_2  and  O_4 
DOCKED: REMARK    3  A    between atoms: O_3  and  C_13 
DOCKED: REMARK    4  A    between atoms: O_4  and  C_14 
DOCKED: REMARK    5  A    between atoms: C_13  and  C_14 
DOCKED: REMARK    6  A    between atoms: C_13  and  C_15 
DOCKED: USER                              x       y       z     vdW  Elec       q    Type
DOCKED: USER                           _______ _______ _______ _____ _____    ______ ____
DOCKED: ROOT
DOCKED: ATOM      1  C   UNL d   1     -13.400   4.840  12.450 -0.21 +0.23    +0.193 C 
DOCKED: ENDROOT
DOCKED: BRANCH   1   2
DOCKED: ATOM      2  O   UNL d   1     -12.065   4.553  11.912 -0.38 -0.52    -0.356 OA
DOCKED: BRANCH   2   3
DOCKED: ATOM      3  P   UNL d   1     -11.452   3.033  11.782 -0.68 -0.02    -0.014 P 
DOCKED: ATOM      4  O   UNL d   1     -12.666   2.112  11.979 -0.17 -0.67    -0.577 OA
DOCKED: ATOM      5  O   UNL d   1     -10.429   2.861  12.903 -0.72 -0.47    -0.577 OA
DOCKED: ATOM      6  O   UNL d   1     -10.855   2.883  10.387 -0.20 -1.09    -0.638 OA
DOCKED: ENDBRANCH   2   3
DOCKED: ENDBRANCH   1   2
DOCKED: BRANCH   1   7
DOCKED: ATOM      7  C   UNL d   1     -14.390   5.065  11.248 -0.16 +0.30    +0.201 C 
DOCKED: BRANCH   7   8
DOCKED: ATOM      8  O   UNL d   1     -13.781   5.408   9.984 -0.22 -0.79    -0.364 OA
DOCKED: BRANCH   8   9
DOCKED: ATOM      9  P   UNL d   1     -14.707   6.006   8.751 -0.21 -0.02    -0.015 P 
DOCKED: ATOM     10  O   UNL d   1     -14.044   7.332   8.360 -0.07 -0.78    -0.577 OA
DOCKED: ATOM     11  O   UNL d   1     -16.114   6.215   9.311 +0.01 -0.49    -0.577 OA
DOCKED: ATOM     12  O   UNL d   1     -14.661   4.984   7.616 -0.47 -1.08    -0.638 OA
DOCKED: ENDBRANCH   8   9
DOCKED: ENDBRANCH   7   8
DOCKED: ENDBRANCH   1   7
DOCKED: BRANCH   1  13
DOCKED: ATOM     13  C   UNL d   1     -13.360   6.150  13.322 -0.10 +0.08    +0.073 C 
DOCKED: ATOM     14  O   UNL d   1     -13.841   7.229  12.827 -0.49 -0.94    -0.547 OA
DOCKED: ATOM     15  O   UNL d   1     -12.900   6.041  14.516 -0.01 -0.33    -0.547 OA
DOCKED: ENDBRANCH   1  13
DOCKED: TORSDOF 6
DOCKED: TER
DOCKED: ENDMDL
________________________________________________________________________________


	BEGINNING GENETIC ALGORITHM DOCKING 66 of 100
Run: 66 Seed: 611203890 514232524 [ Run 66 of 100 GA/GALS ]
Beginning LAMARCKIAN GENETIC ALGORITHM (LGA), with a maximum of 25000000 energy evaluations.

Final-Value: -8.445


	FINAL GENETIC ALGORITHM DOCKED STATE
	_______________________________________________


Detailed state:  trans -13.668 5.341 11.453 quatxyzw 0.813778 -0.028695 0.437267 0.381758 center 0.015 0.083 0.031 ntor 6 -20.5415 -154.3374 -168.4609 14.1286 21.3820 -63.1992
State:	-13.668   5.341  11.453   0.880 -0.031  0.473 135.115    -20.54 -154.34 -168.46   14.13   21.38  -63.20

DOCKED: MODEL       66
DOCKED: USER    Run = 66
DOCKED: USER    DPF = D:/Protein_go_brrr/autodock/final/mut_Y35F/2_3_BPG/dock.dpf
DOCKED: USER  
DOCKED: USER    Estimated Free Energy of Binding    =   -8.70 kcal/mol  [=(1)+(2)+(3)-(4)]
DOCKED: USER    Estimated Inhibition Constant, Ki   =  418.51 nM (nanomolar)  [Temperature = 298.15 K]
DOCKED: USER    
DOCKED: USER    (1) Final Intermolecular Energy     =  -10.49 kcal/mol
DOCKED: USER        vdW + Hbond + desolv Energy     =   -4.27 kcal/mol
DOCKED: USER        Electrostatic Energy            =   -6.22 kcal/mol
DOCKED: USER    (2) Final Total Internal Energy     =   +2.05 kcal/mol
DOCKED: USER    (3) Torsional Free Energy           =   +1.79 kcal/mol
DOCKED: USER    (4) Unbound System's Energy  [=(2)] =   +2.05 kcal/mol
DOCKED: USER    
DOCKED: USER    
DOCKED: USER    NEWDPF move 2_3_BPG_opt.pdbqt
DOCKED: USER    NEWDPF about 0.015000 0.083000 0.031000
DOCKED: USER    NEWDPF tran0 -13.668149 5.341352 11.453217
DOCKED: USER    NEWDPF quaternion0 0.813778 -0.028695 0.437267 0.381758
DOCKED: USER    NEWDPF axisangle0 0.880462 -0.031046 0.473098 135.114790
DOCKED: USER    NEWDPF quat0 0.880462 -0.031046 0.473098 135.114790
DOCKED: USER    NEWDPF dihe0 -20.54 -154.34 -168.46 14.13 21.38 -63.20 
DOCKED: USER  keepresnum = 1 
DOCKED: USER  
DOCKED: REMARK  6 active torsions:
DOCKED: REMARK  status: ('A' for Active; 'I' for Inactive)
DOCKED: REMARK    1  A    between atoms: P_1  and  O_3 
DOCKED: REMARK    2  A    between atoms: P_2  and  O_4 
DOCKED: REMARK    3  A    between atoms: O_3  and  C_13 
DOCKED: REMARK    4  A    between atoms: O_4  and  C_14 
DOCKED: REMARK    5  A    between atoms: C_13  and  C_14 
DOCKED: REMARK    6  A    between atoms: C_13  and  C_15 
DOCKED: USER                              x       y       z     vdW  Elec       q    Type
DOCKED: USER                           _______ _______ _______ _____ _____    ______ ____
DOCKED: ROOT
DOCKED: ATOM      1  C   UNL d   1     -14.050   5.840  11.220 -0.08 +0.31    +0.193 C 
DOCKED: ENDROOT
DOCKED: BRANCH   1   2
DOCKED: ATOM      2  O   UNL d   1     -14.940   5.292  10.190 -0.15 -0.55    -0.356 OA
DOCKED: BRANCH   2   3
DOCKED: ATOM      3  P   UNL d   1     -14.916   5.786   8.622 -0.19 -0.02    -0.014 P 
DOCKED: ATOM      4  O   UNL d   1     -13.522   6.407   8.436 -0.02 -0.91    -0.577 OA
DOCKED: ATOM      5  O   UNL d   1     -16.021   6.828   8.459 +0.02 -0.43    -0.577 OA
DOCKED: ATOM      6  O   UNL d   1     -15.104   4.558   7.738 -0.55 -1.12    -0.638 OA
DOCKED: ENDBRANCH   2   3
DOCKED: ENDBRANCH   1   2
DOCKED: BRANCH   1   7
DOCKED: ATOM      7  C   UNL d   1     -13.359   4.647  11.977 -0.21 +0.29    +0.201 C 
DOCKED: BRANCH   7   8
DOCKED: ATOM      8  O   UNL d   1     -12.040   4.285  11.511 -0.64 -0.63    -0.364 OA
DOCKED: BRANCH   8   9
DOCKED: ATOM      9  P   UNL d   1     -11.463   2.755  11.761 -0.70 -0.02    -0.015 P 
DOCKED: ATOM     10  O   UNL d   1     -12.688   1.930  12.176 -0.13 -0.54    -0.577 OA
DOCKED: ATOM     11  O   UNL d   1     -10.430   2.845  12.883 -0.71 -0.48    -0.577 OA
DOCKED: ATOM     12  O   UNL d   1     -10.869   2.275  10.438 -0.21 -0.98    -0.638 OA
DOCKED: ENDBRANCH   8   9
DOCKED: ENDBRANCH   7   8
DOCKED: ENDBRANCH   1   7
DOCKED: BRANCH   1  13
DOCKED: ATOM     13  C   UNL d   1     -14.882   6.682  12.259 -0.11 +0.08    +0.073 C 
DOCKED: ATOM     14  O   UNL d   1     -16.079   6.313  12.526 +0.01 -0.35    -0.547 OA
DOCKED: ATOM     15  O   UNL d   1     -14.280   7.662  12.829 -0.60 -0.89    -0.547 OA
DOCKED: ENDBRANCH   1  13
DOCKED: TORSDOF 6
DOCKED: TER
DOCKED: ENDMDL
________________________________________________________________________________


	BEGINNING GENETIC ALGORITHM DOCKING 67 of 100
Run: 67 Seed: 977923707 686919195 [ Run 67 of 100 GA/GALS ]
Beginning LAMARCKIAN GENETIC ALGORITHM (LGA), with a maximum of 25000000 energy evaluations.

Final-Value: -8.279


	FINAL GENETIC ALGORITHM DOCKED STATE
	_______________________________________________


Detailed state:  trans -13.745 5.313 11.206 quatxyzw -0.783128 -0.010379 -0.488674 -0.384449 center 0.015 0.083 0.031 ntor 6 -6.8891 -153.2082 180.0000 10.3477 20.9488 -62.8791
State:	-13.745   5.313  11.206  -0.848 -0.011 -0.529 -134.781     -6.89 -153.21  180.00   10.35   20.95  -62.88

DOCKED: MODEL       67
DOCKED: USER    Run = 67
DOCKED: USER    DPF = D:/Protein_go_brrr/autodock/final/mut_Y35F/2_3_BPG/dock.dpf
DOCKED: USER  
DOCKED: USER    Estimated Free Energy of Binding    =   -8.52 kcal/mol  [=(1)+(2)+(3)-(4)]
DOCKED: USER    Estimated Inhibition Constant, Ki   =  567.91 nM (nanomolar)  [Temperature = 298.15 K]
DOCKED: USER    
DOCKED: USER    (1) Final Intermolecular Energy     =  -10.31 kcal/mol
DOCKED: USER        vdW + Hbond + desolv Energy     =   -4.07 kcal/mol
DOCKED: USER        Electrostatic Energy            =   -6.24 kcal/mol
DOCKED: USER    (2) Final Total Internal Energy     =   +2.03 kcal/mol
DOCKED: USER    (3) Torsional Free Energy           =   +1.79 kcal/mol
DOCKED: USER    (4) Unbound System's Energy  [=(2)] =   +2.03 kcal/mol
DOCKED: USER    
DOCKED: USER    
DOCKED: USER    NEWDPF move 2_3_BPG_opt.pdbqt
DOCKED: USER    NEWDPF about 0.015000 0.083000 0.031000
DOCKED: USER    NEWDPF tran0 -13.745291 5.313253 11.205525
DOCKED: USER    NEWDPF quaternion0 -0.783128 -0.010379 -0.488674 -0.384449
DOCKED: USER    NEWDPF axisangle0 -0.848325 -0.011243 -0.529357 -134.780961
DOCKED: USER    NEWDPF quat0 -0.848325 -0.011243 -0.529357 -134.780961
DOCKED: USER    NEWDPF dihe0 -6.89 -153.21 180.00 10.35 20.95 -62.88 
DOCKED: USER  keepresnum = 1 
DOCKED: USER  
DOCKED: REMARK  6 active torsions:
DOCKED: REMARK  status: ('A' for Active; 'I' for Inactive)
DOCKED: REMARK    1  A    between atoms: P_1  and  O_3 
DOCKED: REMARK    2  A    between atoms: P_2  and  O_4 
DOCKED: REMARK    3  A    between atoms: O_3  and  C_13 
DOCKED: REMARK    4  A    between atoms: O_4  and  C_14 
DOCKED: REMARK    5  A    between atoms: C_13  and  C_14 
DOCKED: REMARK    6  A    between atoms: C_13  and  C_15 
DOCKED: USER                              x       y       z     vdW  Elec       q    Type
DOCKED: USER                           _______ _______ _______ _____ _____    ______ ____
DOCKED: ROOT
DOCKED: ATOM      1  C   UNL d   1     -14.103   5.801  10.916 -0.09 +0.32    +0.193 C 
DOCKED: ENDROOT
DOCKED: BRANCH   1   2
DOCKED: ATOM      2  O   UNL d   1     -14.826   5.222   9.777 -0.13 -0.62    -0.356 OA
DOCKED: BRANCH   2   3
DOCKED: ATOM      3  P   UNL d   1     -14.661   5.765   8.234 -0.17 -0.02    -0.014 P 
DOCKED: ATOM      4  O   UNL d   1     -13.293   6.465   8.218 -0.01 -0.87    -0.577 OA
DOCKED: ATOM      5  O   UNL d   1     -15.799   6.751   7.977 +0.02 -0.43    -0.577 OA
DOCKED: ATOM      6  O   UNL d   1     -14.683   4.556   7.304 -0.55 -1.14    -0.638 OA
DOCKED: ENDBRANCH   2   3
DOCKED: ENDBRANCH   1   2
DOCKED: BRANCH   1   7
DOCKED: ATOM      7  C   UNL d   1     -13.496   4.631  11.775 -0.14 +0.32    +0.201 C 
DOCKED: BRANCH   7   8
DOCKED: ATOM      8  O   UNL d   1     -12.114   4.304  11.508 -0.67 -0.64    -0.364 OA
DOCKED: BRANCH   8   9
DOCKED: ATOM      9  P   UNL d   1     -11.535   2.795  11.862 -0.71 -0.02    -0.015 P 
DOCKED: ATOM     10  O   UNL d   1     -12.745   2.019  12.395 -0.16 -0.47    -0.577 OA
DOCKED: ATOM     11  O   UNL d   1     -10.455   2.971  12.928 -0.70 -0.47    -0.577 OA
DOCKED: ATOM     12  O   UNL d   1     -11.000   2.200  10.560 -0.18 -0.99    -0.638 OA
DOCKED: ENDBRANCH   8   9
DOCKED: ENDBRANCH   7   8
DOCKED: ENDBRANCH   1   7
DOCKED: BRANCH   1  13
DOCKED: ATOM     13  C   UNL d   1     -15.092   6.628  11.819 -0.12 +0.08    +0.073 C 
DOCKED: ATOM     14  O   UNL d   1     -16.216   6.102  12.136 +0.01 -0.36    -0.547 OA
DOCKED: ATOM     15  O   UNL d   1     -14.681   7.770  12.239 -0.46 -0.94    -0.547 OA
DOCKED: ENDBRANCH   1  13
DOCKED: TORSDOF 6
DOCKED: TER
DOCKED: ENDMDL
________________________________________________________________________________


	BEGINNING GENETIC ALGORITHM DOCKING 68 of 100
Run: 68 Seed: 48957124 1781837367 [ Run 68 of 100 GA/GALS ]
Beginning LAMARCKIAN GENETIC ALGORITHM (LGA), with a maximum of 25000000 energy evaluations.

Final-Value: -8.201


	FINAL GENETIC ALGORITHM DOCKED STATE
	_______________________________________________


Detailed state:  trans -12.166 6.343 7.651 quatxyzw 0.145405 0.309499 0.352121 -0.871251 center 0.015 0.083 0.031 ntor 6 -149.9504 37.6622 -101.1687 31.0578 -38.9917 -120.9278
State:	-12.166   6.343   7.651   0.296  0.631  0.717 -58.791   -149.95   37.66 -101.17   31.06  -38.99 -120.93

DOCKED: MODEL       68
DOCKED: USER    Run = 68
DOCKED: USER    DPF = D:/Protein_go_brrr/autodock/final/mut_Y35F/2_3_BPG/dock.dpf
DOCKED: USER  
DOCKED: USER    Estimated Free Energy of Binding    =   -8.64 kcal/mol  [=(1)+(2)+(3)-(4)]
DOCKED: USER    Estimated Inhibition Constant, Ki   =  465.54 nM (nanomolar)  [Temperature = 298.15 K]
DOCKED: USER    
DOCKED: USER    (1) Final Intermolecular Energy     =  -10.43 kcal/mol
DOCKED: USER        vdW + Hbond + desolv Energy     =   -3.25 kcal/mol
DOCKED: USER        Electrostatic Energy            =   -7.18 kcal/mol
DOCKED: USER    (2) Final Total Internal Energy     =   +2.23 kcal/mol
DOCKED: USER    (3) Torsional Free Energy           =   +1.79 kcal/mol
DOCKED: USER    (4) Unbound System's Energy  [=(2)] =   +2.23 kcal/mol
DOCKED: USER    
DOCKED: USER    
DOCKED: USER    NEWDPF move 2_3_BPG_opt.pdbqt
DOCKED: USER    NEWDPF about 0.015000 0.083000 0.031000
DOCKED: USER    NEWDPF tran0 -12.166438 6.342705 7.651328
DOCKED: USER    NEWDPF quaternion0 0.145405 0.309499 0.352121 -0.871251
DOCKED: USER    NEWDPF axisangle0 0.296239 0.630553 0.717388 -58.791300
DOCKED: USER    NEWDPF quat0 0.296239 0.630553 0.717388 -58.791300
DOCKED: USER    NEWDPF dihe0 -149.95 37.66 -101.17 31.06 -38.99 -120.93 
DOCKED: USER  keepresnum = 1 
DOCKED: USER  
DOCKED: REMARK  6 active torsions:
DOCKED: REMARK  status: ('A' for Active; 'I' for Inactive)
DOCKED: REMARK    1  A    between atoms: P_1  and  O_3 
DOCKED: REMARK    2  A    between atoms: P_2  and  O_4 
DOCKED: REMARK    3  A    between atoms: O_3  and  C_13 
DOCKED: REMARK    4  A    between atoms: O_4  and  C_14 
DOCKED: REMARK    5  A    between atoms: C_13  and  C_14 
DOCKED: REMARK    6  A    between atoms: C_13  and  C_15 
DOCKED: USER                              x       y       z     vdW  Elec       q    Type
DOCKED: USER                           _______ _______ _______ _____ _____    ______ ____
DOCKED: ROOT
DOCKED: ATOM      1  C   UNL d   1     -12.272   5.706   7.832 -0.19 +0.30    +0.193 C 
DOCKED: ENDROOT
DOCKED: BRANCH   1   2
DOCKED: ATOM      2  O   UNL d   1     -13.691   5.556   8.174 -0.18 -0.68    -0.356 OA
DOCKED: BRANCH   2   3
DOCKED: ATOM      3  P   UNL d   1     -14.247   5.521   9.721 +0.07 -0.03    -0.014 P 
DOCKED: ATOM      4  O   UNL d   1     -15.446   4.560   9.675 -0.06 -0.93    -0.577 OA
DOCKED: ATOM      5  O   UNL d   1     -14.680   6.941  10.079 -0.02 -0.91    -0.577 OA
DOCKED: ATOM      6  O   UNL d   1     -13.132   4.982  10.611 -0.28 -1.57    -0.638 OA
DOCKED: ENDBRANCH   2   3
DOCKED: ENDBRANCH   1   2
DOCKED: BRANCH   1   7
DOCKED: ATOM      7  C   UNL d   1     -12.065   7.101   7.134 -0.21 +0.20    +0.201 C 
DOCKED: BRANCH   7   8
DOCKED: ATOM      8  O   UNL d   1     -12.837   8.196   7.674 -0.21 -0.44    -0.364 OA
DOCKED: BRANCH   8   9
DOCKED: ATOM      9  P   UNL d   1     -12.187   9.716   7.739 -0.25 -0.01    -0.015 P 
DOCKED: ATOM     10  O   UNL d   1     -12.366  10.286   6.326 +0.03 -0.21    -0.577 OA
DOCKED: ATOM     11  O   UNL d   1     -10.712   9.556   8.107 -0.10 -0.49    -0.577 OA
DOCKED: ATOM     12  O   UNL d   1     -12.981  10.503   8.780 -0.29 -0.92    -0.638 OA
DOCKED: ENDBRANCH   8   9
DOCKED: ENDBRANCH   7   8
DOCKED: ENDBRANCH   1   7
DOCKED: BRANCH   1  13
DOCKED: ATOM     13  C   UNL d   1     -11.836   4.572   6.830 -0.36 +0.11    +0.073 C 
DOCKED: ATOM     14  O   UNL d   1     -11.275   3.521   7.303 -0.63 -1.08    -0.547 OA
DOCKED: ATOM     15  O   UNL d   1     -12.129   4.743   5.592 -0.58 -0.52    -0.547 OA
DOCKED: ENDBRANCH   1  13
DOCKED: TORSDOF 6
DOCKED: TER
DOCKED: ENDMDL
________________________________________________________________________________


	BEGINNING GENETIC ALGORITHM DOCKING 69 of 100
Run: 69 Seed: 1249062186 2082509334 [ Run 69 of 100 GA/GALS ]
Beginning LAMARCKIAN GENETIC ALGORITHM (LGA), with a maximum of 25000000 energy evaluations.

Final-Value: -9.496


	FINAL GENETIC ALGORITHM DOCKED STATE
	_______________________________________________


Detailed state:  trans -13.326 4.985 12.028 quatxyzw 0.761384 -0.119980 0.509282 0.382794 center 0.015 0.083 0.031 ntor 6 -144.3155 -130.9373 86.1456 21.6276 -72.8177 -113.6020
State:	-13.326   4.985  12.028   0.824 -0.130  0.551 134.986   -144.32 -130.94   86.15   21.63  -72.82 -113.60

DOCKED: MODEL       69
DOCKED: USER    Run = 69
DOCKED: USER    DPF = D:/Protein_go_brrr/autodock/final/mut_Y35F/2_3_BPG/dock.dpf
DOCKED: USER  
DOCKED: USER    Estimated Free Energy of Binding    =  -10.11 kcal/mol  [=(1)+(2)+(3)-(4)]
DOCKED: USER    Estimated Inhibition Constant, Ki   =   38.78 nM (nanomolar)  [Temperature = 298.15 K]
DOCKED: USER    
DOCKED: USER    (1) Final Intermolecular Energy     =  -11.90 kcal/mol
DOCKED: USER        vdW + Hbond + desolv Energy     =   -4.57 kcal/mol
DOCKED: USER        Electrostatic Energy            =   -7.33 kcal/mol
DOCKED: USER    (2) Final Total Internal Energy     =   +2.41 kcal/mol
DOCKED: USER    (3) Torsional Free Energy           =   +1.79 kcal/mol
DOCKED: USER    (4) Unbound System's Energy  [=(2)] =   +2.41 kcal/mol
DOCKED: USER    
DOCKED: USER    
DOCKED: USER    NEWDPF move 2_3_BPG_opt.pdbqt
DOCKED: USER    NEWDPF about 0.015000 0.083000 0.031000
DOCKED: USER    NEWDPF tran0 -13.326241 4.985042 12.027562
DOCKED: USER    NEWDPF quaternion0 0.761384 -0.119980 0.509282 0.382794
DOCKED: USER    NEWDPF axisangle0 0.824157 -0.129871 0.551270 134.986344
DOCKED: USER    NEWDPF quat0 0.824157 -0.129871 0.551270 134.986344
DOCKED: USER    NEWDPF dihe0 -144.32 -130.94 86.15 21.63 -72.82 -113.60 
DOCKED: USER  keepresnum = 1 
DOCKED: USER  
DOCKED: REMARK  6 active torsions:
DOCKED: REMARK  status: ('A' for Active; 'I' for Inactive)
DOCKED: REMARK    1  A    between atoms: P_1  and  O_3 
DOCKED: REMARK    2  A    between atoms: P_2  and  O_4 
DOCKED: REMARK    3  A    between atoms: O_3  and  C_13 
DOCKED: REMARK    4  A    between atoms: O_4  and  C_14 
DOCKED: REMARK    5  A    between atoms: C_13  and  C_14 
DOCKED: REMARK    6  A    between atoms: C_13  and  C_15 
DOCKED: USER                              x       y       z     vdW  Elec       q    Type
DOCKED: USER                           _______ _______ _______ _____ _____    ______ ____
DOCKED: ROOT
DOCKED: ATOM      1  C   UNL d   1     -13.575   5.575  11.829 -0.03 +0.29    +0.193 C 
DOCKED: ENDROOT
DOCKED: BRANCH   1   2
DOCKED: ATOM      2  O   UNL d   1     -14.443   5.339  10.670 -0.25 -0.59    -0.356 OA
DOCKED: BRANCH   2   3
DOCKED: ATOM      3  P   UNL d   1     -14.067   5.831   9.146 -0.14 -0.03    -0.014 P 
DOCKED: ATOM      4  O   UNL d   1     -12.592   5.437   8.970 +0.12 -1.32    -0.577 OA
DOCKED: ATOM      5  O   UNL d   1     -14.254   7.346   9.101 -0.07 -0.95    -0.577 OA
DOCKED: ATOM      6  O   UNL d   1     -14.968   5.078   8.173 -0.36 -1.07    -0.638 OA
DOCKED: ENDBRANCH   2   3
DOCKED: ENDBRANCH   1   2
DOCKED: BRANCH   1   7
DOCKED: ATOM      7  C   UNL d   1     -13.218   4.189  12.483 -0.25 +0.23    +0.201 C 
DOCKED: BRANCH   7   8
DOCKED: ATOM      8  O   UNL d   1     -12.818   3.145  11.568 -0.47 -0.74    -0.364 OA
DOCKED: BRANCH   8   9
DOCKED: ATOM      9  P   UNL d   1     -11.249   2.621  11.542 -0.74 -0.02    -0.015 P 
DOCKED: ATOM     10  O   UNL d   1     -10.557   3.487  10.482 -0.35 -0.88    -0.577 OA
DOCKED: ATOM     11  O   UNL d   1     -11.278   1.146  11.143 -0.71 -0.58    -0.577 OA
DOCKED: ATOM     12  O   UNL d   1     -10.672   2.853  12.938 -0.65 -0.49    -0.638 OA
DOCKED: ENDBRANCH   8   9
DOCKED: ENDBRANCH   7   8
DOCKED: ENDBRANCH   1   7
DOCKED: BRANCH   1  13
DOCKED: ATOM     13  C   UNL d   1     -14.327   6.456  12.895 -0.13 +0.08    +0.073 C 
DOCKED: ATOM     14  O   UNL d   1     -14.210   7.730  12.828 -0.57 -0.94    -0.547 OA
DOCKED: ATOM     15  O   UNL d   1     -15.073   5.839  13.740 +0.01 -0.32    -0.547 OA
DOCKED: ENDBRANCH   1  13
DOCKED: TORSDOF 6
DOCKED: TER
DOCKED: ENDMDL
________________________________________________________________________________


	BEGINNING GENETIC ALGORITHM DOCKING 70 of 100
Run: 70 Seed: 1877769633 713390795 [ Run 70 of 100 GA/GALS ]
Beginning LAMARCKIAN GENETIC ALGORITHM (LGA), with a maximum of 25000000 energy evaluations.

Final-Value: -8.973


	FINAL GENETIC ALGORITHM DOCKED STATE
	_______________________________________________


Detailed state:  trans -14.091 5.902 8.010 quatxyzw -0.673740 -0.226595 0.651481 0.265144 center 0.015 0.083 0.031 ntor 6 171.3416 -39.5600 -166.0868 -7.3893 47.7673 -84.9980
State:	-14.091   5.902   8.010  -0.699 -0.235  0.676 149.249    171.34  -39.56 -166.09   -7.39   47.77  -85.00

DOCKED: MODEL       70
DOCKED: USER    Run = 70
DOCKED: USER    DPF = D:/Protein_go_brrr/autodock/final/mut_Y35F/2_3_BPG/dock.dpf
DOCKED: USER  
DOCKED: USER    Estimated Free Energy of Binding    =   -9.43 kcal/mol  [=(1)+(2)+(3)-(4)]
DOCKED: USER    Estimated Inhibition Constant, Ki   =  121.76 nM (nanomolar)  [Temperature = 298.15 K]
DOCKED: USER    
DOCKED: USER    (1) Final Intermolecular Energy     =  -11.22 kcal/mol
DOCKED: USER        vdW + Hbond + desolv Energy     =   -3.91 kcal/mol
DOCKED: USER        Electrostatic Energy            =   -7.31 kcal/mol
DOCKED: USER    (2) Final Total Internal Energy     =   +2.25 kcal/mol
DOCKED: USER    (3) Torsional Free Energy           =   +1.79 kcal/mol
DOCKED: USER    (4) Unbound System's Energy  [=(2)] =   +2.25 kcal/mol
DOCKED: USER    
DOCKED: USER    
DOCKED: USER    NEWDPF move 2_3_BPG_opt.pdbqt
DOCKED: USER    NEWDPF about 0.015000 0.083000 0.031000
DOCKED: USER    NEWDPF tran0 -14.091203 5.901697 8.010281
DOCKED: USER    NEWDPF quaternion0 -0.673740 -0.226595 0.651481 0.265144
DOCKED: USER    NEWDPF axisangle0 -0.698749 -0.235006 0.675664 149.249012
DOCKED: USER    NEWDPF quat0 -0.698749 -0.235006 0.675664 149.249012
DOCKED: USER    NEWDPF dihe0 171.34 -39.56 -166.09 -7.39 47.77 -85.00 
DOCKED: USER  keepresnum = 1 
DOCKED: USER  
DOCKED: REMARK  6 active torsions:
DOCKED: REMARK  status: ('A' for Active; 'I' for Inactive)
DOCKED: REMARK    1  A    between atoms: P_1  and  O_3 
DOCKED: REMARK    2  A    between atoms: P_2  and  O_4 
DOCKED: REMARK    3  A    between atoms: O_3  and  C_13 
DOCKED: REMARK    4  A    between atoms: O_4  and  C_14 
DOCKED: REMARK    5  A    between atoms: C_13  and  C_14 
DOCKED: REMARK    6  A    between atoms: C_13  and  C_15 
DOCKED: USER                              x       y       z     vdW  Elec       q    Type
DOCKED: USER                           _______ _______ _______ _____ _____    ______ ____
DOCKED: ROOT
DOCKED: ATOM      1  C   UNL d   1     -14.393   6.101   8.575 -0.13 +0.28    +0.193 C 
DOCKED: ENDROOT
DOCKED: BRANCH   1   2
DOCKED: ATOM      2  O   UNL d   1     -13.437   5.958   9.679 +0.04 -0.74    -0.356 OA
DOCKED: BRANCH   2   3
DOCKED: ATOM      3  P   UNL d   1     -13.856   5.402  11.169 -0.21 -0.02    -0.014 P 
DOCKED: ATOM      4  O   UNL d   1     -12.729   4.428  11.544 -0.64 -1.07    -0.577 OA
DOCKED: ATOM      5  O   UNL d   1     -15.195   4.683  11.024 -0.10 -0.75    -0.577 OA
DOCKED: ATOM      6  O   UNL d   1     -13.905   6.594  12.120 -0.19 -1.09    -0.638 OA
DOCKED: ENDBRANCH   2   3
DOCKED: ENDBRANCH   1   2
DOCKED: BRANCH   1   7
DOCKED: ATOM      7  C   UNL d   1     -13.624   5.920   7.215 -0.15 +0.25    +0.201 C 
DOCKED: BRANCH   7   8
DOCKED: ATOM      8  O   UNL d   1     -13.243   4.567   6.880 -0.28 -0.66    -0.364 OA
DOCKED: BRANCH   8   9
DOCKED: ATOM      9  P   UNL d   1     -11.683   4.226   6.448 -0.55 -0.02    -0.015 P 
DOCKED: ATOM     10  O   UNL d   1     -10.869   5.443   6.903 -0.11 -0.56    -0.577 OA
DOCKED: ATOM     11  O   UNL d   1     -11.666   4.064   4.929 -0.59 -0.47    -0.577 OA
DOCKED: ATOM     12  O   UNL d   1     -11.277   2.954   7.190 -0.57 -1.23    -0.638 OA
DOCKED: ENDBRANCH   8   9
DOCKED: ENDBRANCH   7   8
DOCKED: ENDBRANCH   1   7
DOCKED: BRANCH   1  13
DOCKED: ATOM     13  C   UNL d   1     -15.040   7.536   8.602 -0.08 +0.08    +0.073 C 
DOCKED: ATOM     14  O   UNL d   1     -16.306   7.639   8.440 +0.02 -0.34    -0.547 OA
DOCKED: ATOM     15  O   UNL d   1     -14.257   8.523   8.851 -0.35 -0.97    -0.547 OA
DOCKED: ENDBRANCH   1  13
DOCKED: TORSDOF 6
DOCKED: TER
DOCKED: ENDMDL
________________________________________________________________________________


	BEGINNING GENETIC ALGORITHM DOCKING 71 of 100
Run: 71 Seed: 744739278 719623266 [ Run 71 of 100 GA/GALS ]
Beginning LAMARCKIAN GENETIC ALGORITHM (LGA), with a maximum of 25000000 energy evaluations.

Final-Value: -9.006


	FINAL GENETIC ALGORITHM DOCKED STATE
	_______________________________________________


Detailed state:  trans -14.014 6.158 7.652 quatxyzw -0.710526 -0.100363 0.651613 0.245928 center 0.015 0.083 0.031 ntor 6 149.2203 -44.1707 -153.1435 11.9051 38.0551 -97.4836
State:	-14.014   6.158   7.652  -0.733 -0.104  0.672 151.527    149.22  -44.17 -153.14   11.91   38.06  -97.48

DOCKED: MODEL       71
DOCKED: USER    Run = 71
DOCKED: USER    DPF = D:/Protein_go_brrr/autodock/final/mut_Y35F/2_3_BPG/dock.dpf
DOCKED: USER  
DOCKED: USER    Estimated Free Energy of Binding    =   -9.44 kcal/mol  [=(1)+(2)+(3)-(4)]
DOCKED: USER    Estimated Inhibition Constant, Ki   =  119.72 nM (nanomolar)  [Temperature = 298.15 K]
DOCKED: USER    
DOCKED: USER    (1) Final Intermolecular Energy     =  -11.23 kcal/mol
DOCKED: USER        vdW + Hbond + desolv Energy     =   -3.67 kcal/mol
DOCKED: USER        Electrostatic Energy            =   -7.56 kcal/mol
DOCKED: USER    (2) Final Total Internal Energy     =   +2.23 kcal/mol
DOCKED: USER    (3) Torsional Free Energy           =   +1.79 kcal/mol
DOCKED: USER    (4) Unbound System's Energy  [=(2)] =   +2.23 kcal/mol
DOCKED: USER    
DOCKED: USER    
DOCKED: USER    NEWDPF move 2_3_BPG_opt.pdbqt
DOCKED: USER    NEWDPF about 0.015000 0.083000 0.031000
DOCKED: USER    NEWDPF tran0 -14.013721 6.157693 7.652145
DOCKED: USER    NEWDPF quaternion0 -0.710526 -0.100363 0.651613 0.245928
DOCKED: USER    NEWDPF axisangle0 -0.733039 -0.103543 0.672259 151.526599
DOCKED: USER    NEWDPF quat0 -0.733039 -0.103543 0.672259 151.526599
DOCKED: USER    NEWDPF dihe0 149.22 -44.17 -153.14 11.91 38.06 -97.48 
DOCKED: USER  keepresnum = 1 
DOCKED: USER  
DOCKED: REMARK  6 active torsions:
DOCKED: REMARK  status: ('A' for Active; 'I' for Inactive)
DOCKED: REMARK    1  A    between atoms: P_1  and  O_3 
DOCKED: REMARK    2  A    between atoms: P_2  and  O_4 
DOCKED: REMARK    3  A    between atoms: O_3  and  C_13 
DOCKED: REMARK    4  A    between atoms: O_4  and  C_14 
DOCKED: REMARK    5  A    between atoms: C_13  and  C_14 
DOCKED: REMARK    6  A    between atoms: C_13  and  C_15 
DOCKED: USER                              x       y       z     vdW  Elec       q    Type
DOCKED: USER                           _______ _______ _______ _____ _____    ______ ____
DOCKED: ROOT
DOCKED: ATOM      1  C   UNL d   1     -14.316   6.485   8.153 -0.12 +0.24    +0.193 C 
DOCKED: ENDROOT
DOCKED: BRANCH   1   2
DOCKED: ATOM      2  O   UNL d   1     -13.520   6.295   9.370 +0.09 -0.69    -0.356 OA
DOCKED: BRANCH   2   3
DOCKED: ATOM      3  P   UNL d   1     -14.111   5.594  10.735 -0.14 -0.02    -0.014 P 
DOCKED: ATOM      4  O   UNL d   1     -13.044   4.561  11.128 -0.57 -1.33    -0.577 OA
DOCKED: ATOM      5  O   UNL d   1     -15.432   4.923  10.364 -0.06 -0.76    -0.577 OA
DOCKED: ATOM      6  O   UNL d   1     -14.258   6.679  11.797 -0.23 -1.06    -0.638 OA
DOCKED: ENDBRANCH   2   3
DOCKED: ENDBRANCH   1   2
DOCKED: BRANCH   1   7
DOCKED: ATOM      7  C   UNL d   1     -13.482   5.977   6.920 -0.15 +0.22    +0.201 C 
DOCKED: BRANCH   7   8
DOCKED: ATOM      8  O   UNL d   1     -13.135   4.575   6.927 -0.22 -0.68    -0.364 OA
DOCKED: BRANCH   8   9
DOCKED: ATOM      9  P   UNL d   1     -11.628   4.090   6.447 -0.56 -0.02    -0.015 P 
DOCKED: ATOM     10  O   UNL d   1     -10.705   5.267   6.782 -0.07 -0.53    -0.577 OA
DOCKED: ATOM     11  O   UNL d   1     -11.701   3.832   4.942 -0.56 -0.45    -0.577 OA
DOCKED: ATOM     12  O   UNL d   1     -11.279   2.839   7.253 -0.55 -1.27    -0.638 OA
DOCKED: ENDBRANCH   8   9
DOCKED: ENDBRANCH   7   8
DOCKED: ENDBRANCH   1   7
DOCKED: BRANCH   1  13
DOCKED: ATOM     13  C   UNL d   1     -14.637   8.013   7.950 -0.08 +0.07    +0.073 C 
DOCKED: ATOM     14  O   UNL d   1     -15.651   8.336   7.237 +0.02 -0.29    -0.547 OA
DOCKED: ATOM     15  O   UNL d   1     -13.889   8.852   8.571 -0.48 -0.99    -0.547 OA
DOCKED: ENDBRANCH   1  13
DOCKED: TORSDOF 6
DOCKED: TER
DOCKED: ENDMDL
________________________________________________________________________________


	BEGINNING GENETIC ALGORITHM DOCKING 72 of 100
Run: 72 Seed: 795261292 2019467954 [ Run 72 of 100 GA/GALS ]
Beginning LAMARCKIAN GENETIC ALGORITHM (LGA), with a maximum of 25000000 energy evaluations.

Final-Value: -8.251


	FINAL GENETIC ALGORITHM DOCKED STATE
	_______________________________________________


Detailed state:  trans -13.542 4.994 12.344 quatxyzw 0.246515 0.019967 -0.389739 -0.887094 center 0.015 0.083 0.031 ntor 6 -154.6946 -135.2536 114.9720 54.2881 14.7527 34.7829
State:	-13.542   4.994  12.344   0.534  0.043 -0.844 -54.979   -154.69 -135.25  114.97   54.29   14.75   34.78

DOCKED: MODEL       72
DOCKED: USER    Run = 72
DOCKED: USER    DPF = D:/Protein_go_brrr/autodock/final/mut_Y35F/2_3_BPG/dock.dpf
DOCKED: USER  
DOCKED: USER    Estimated Free Energy of Binding    =   -8.47 kcal/mol  [=(1)+(2)+(3)-(4)]
DOCKED: USER    Estimated Inhibition Constant, Ki   =  623.27 nM (nanomolar)  [Temperature = 298.15 K]
DOCKED: USER    
DOCKED: USER    (1) Final Intermolecular Energy     =  -10.26 kcal/mol
DOCKED: USER        vdW + Hbond + desolv Energy     =   -4.36 kcal/mol
DOCKED: USER        Electrostatic Energy            =   -5.89 kcal/mol
DOCKED: USER    (2) Final Total Internal Energy     =   +2.00 kcal/mol
DOCKED: USER    (3) Torsional Free Energy           =   +1.79 kcal/mol
DOCKED: USER    (4) Unbound System's Energy  [=(2)] =   +2.00 kcal/mol
DOCKED: USER    
DOCKED: USER    
DOCKED: USER    NEWDPF move 2_3_BPG_opt.pdbqt
DOCKED: USER    NEWDPF about 0.015000 0.083000 0.031000
DOCKED: USER    NEWDPF tran0 -13.542062 4.994087 12.344458
DOCKED: USER    NEWDPF quaternion0 0.246515 0.019967 -0.389739 -0.887094
DOCKED: USER    NEWDPF axisangle0 0.534057 0.043256 -0.844341 -54.979386
DOCKED: USER    NEWDPF quat0 0.534057 0.043256 -0.844341 -54.979386
DOCKED: USER    NEWDPF dihe0 -154.69 -135.25 114.97 54.29 14.75 34.78 
DOCKED: USER  keepresnum = 1 
DOCKED: USER  
DOCKED: REMARK  6 active torsions:
DOCKED: REMARK  status: ('A' for Active; 'I' for Inactive)
DOCKED: REMARK    1  A    between atoms: P_1  and  O_3 
DOCKED: REMARK    2  A    between atoms: P_2  and  O_4 
DOCKED: REMARK    3  A    between atoms: O_3  and  C_13 
DOCKED: REMARK    4  A    between atoms: O_4  and  C_14 
DOCKED: REMARK    5  A    between atoms: C_13  and  C_14 
DOCKED: REMARK    6  A    between atoms: C_13  and  C_15 
DOCKED: USER                              x       y       z     vdW  Elec       q    Type
DOCKED: USER                           _______ _______ _______ _____ _____    ______ ____
DOCKED: ROOT
DOCKED: ATOM      1  C   UNL d   1     -14.183   5.172  12.428 -0.17 +0.20    +0.193 C 
DOCKED: ENDROOT
DOCKED: BRANCH   1   2
DOCKED: ATOM      2  O   UNL d   1     -14.253   6.638  12.439 -0.38 -0.49    -0.356 OA
DOCKED: BRANCH   2   3
DOCKED: ATOM      3  P   UNL d   1     -13.841   7.551  13.743 -0.12 -0.02    -0.014 P 
DOCKED: ATOM      4  O   UNL d   1     -12.581   6.873  14.303 -0.03 -0.47    -0.577 OA
DOCKED: ATOM      5  O   UNL d   1     -15.004   7.479  14.731 +0.01 -0.28    -0.577 OA
DOCKED: ATOM      6  O   UNL d   1     -13.546   8.965  13.254 -0.33 -1.17    -0.638 OA
DOCKED: ENDBRANCH   2   3
DOCKED: ENDBRANCH   1   2
DOCKED: BRANCH   1   7
DOCKED: ATOM      7  C   UNL d   1     -12.749   4.739  11.946 -0.10 +0.30    +0.201 C 
DOCKED: BRANCH   7   8
DOCKED: ATOM      8  O   UNL d   1     -12.603   3.351  11.570 -0.60 -0.72    -0.364 OA
DOCKED: BRANCH   8   9
DOCKED: ATOM      9  P   UNL d   1     -11.098   2.671  11.475 -0.67 -0.02    -0.015 P 
DOCKED: ATOM     10  O   UNL d   1     -10.380   3.448  10.365 -0.33 -0.83    -0.577 OA
DOCKED: ATOM     11  O   UNL d   1     -11.296   1.201  11.106 -0.67 -0.61    -0.577 OA
DOCKED: ATOM     12  O   UNL d   1     -10.430   2.863  12.835 -0.68 -0.54    -0.638 OA
DOCKED: ENDBRANCH   8   9
DOCKED: ENDBRANCH   7   8
DOCKED: ENDBRANCH   1   7
DOCKED: BRANCH   1  13
DOCKED: ATOM     13  C   UNL d   1     -15.249   4.589  11.427 -0.19 +0.08    +0.073 C 
DOCKED: ATOM     14  O   UNL d   1     -16.343   4.121  11.903 -0.06 -0.36    -0.547 OA
DOCKED: ATOM     15  O   UNL d   1     -14.981   4.676  10.175 -0.03 -0.99    -0.547 OA
DOCKED: ENDBRANCH   1  13
DOCKED: TORSDOF 6
DOCKED: TER
DOCKED: ENDMDL
________________________________________________________________________________


	BEGINNING GENETIC ALGORITHM DOCKING 73 of 100
Run: 73 Seed: 918352050 2020990595 [ Run 73 of 100 GA/GALS ]
Beginning LAMARCKIAN GENETIC ALGORITHM (LGA), with a maximum of 25000000 energy evaluations.

Final-Value: -8.747


	FINAL GENETIC ALGORITHM DOCKED STATE
	_______________________________________________


Detailed state:  trans -13.698 4.435 12.982 quatxyzw -0.275606 0.226164 0.548415 0.756394 center 0.015 0.083 0.031 ntor 6 -8.1714 -18.6908 -180.0000 -15.1596 -34.6024 100.5102
State:	-13.698   4.435  12.982  -0.421  0.346  0.838 81.705     -8.17  -18.69 -180.00  -15.16  -34.60  100.51

DOCKED: MODEL       73
DOCKED: USER    Run = 73
DOCKED: USER    DPF = D:/Protein_go_brrr/autodock/final/mut_Y35F/2_3_BPG/dock.dpf
DOCKED: USER  
DOCKED: USER    Estimated Free Energy of Binding    =   -9.31 kcal/mol  [=(1)+(2)+(3)-(4)]
DOCKED: USER    Estimated Inhibition Constant, Ki   =  150.60 nM (nanomolar)  [Temperature = 298.15 K]
DOCKED: USER    
DOCKED: USER    (1) Final Intermolecular Energy     =  -11.10 kcal/mol
DOCKED: USER        vdW + Hbond + desolv Energy     =   -4.65 kcal/mol
DOCKED: USER        Electrostatic Energy            =   -6.45 kcal/mol
DOCKED: USER    (2) Final Total Internal Energy     =   +2.35 kcal/mol
DOCKED: USER    (3) Torsional Free Energy           =   +1.79 kcal/mol
DOCKED: USER    (4) Unbound System's Energy  [=(2)] =   +2.35 kcal/mol
DOCKED: USER    
DOCKED: USER    
DOCKED: USER    NEWDPF move 2_3_BPG_opt.pdbqt
DOCKED: USER    NEWDPF about 0.015000 0.083000 0.031000
DOCKED: USER    NEWDPF tran0 -13.697765 4.435167 12.982174
DOCKED: USER    NEWDPF quaternion0 -0.275606 0.226164 0.548415 0.756394
DOCKED: USER    NEWDPF axisangle0 -0.421341 0.345755 0.838406 81.705291
DOCKED: USER    NEWDPF quat0 -0.421341 0.345755 0.838406 81.705291
DOCKED: USER    NEWDPF dihe0 -8.17 -18.69 -180.00 -15.16 -34.60 100.51 
DOCKED: USER  keepresnum = 1 
DOCKED: USER  
DOCKED: REMARK  6 active torsions:
DOCKED: REMARK  status: ('A' for Active; 'I' for Inactive)
DOCKED: REMARK    1  A    between atoms: P_1  and  O_3 
DOCKED: REMARK    2  A    between atoms: P_2  and  O_4 
DOCKED: REMARK    3  A    between atoms: O_3  and  C_13 
DOCKED: REMARK    4  A    between atoms: O_4  and  C_14 
DOCKED: REMARK    5  A    between atoms: C_13  and  C_14 
DOCKED: REMARK    6  A    between atoms: C_13  and  C_15 
DOCKED: USER                              x       y       z     vdW  Elec       q    Type
DOCKED: USER                           _______ _______ _______ _____ _____    ______ ____
DOCKED: ROOT
DOCKED: ATOM      1  C   UNL d   1     -14.151   4.902  12.821 -0.17 +0.17    +0.193 C 
DOCKED: ENDROOT
DOCKED: BRANCH   1   2
DOCKED: ATOM      2  O   UNL d   1     -13.485   6.209  12.830 -0.18 -0.45    -0.356 OA
DOCKED: BRANCH   2   3
DOCKED: ATOM      3  P   UNL d   1     -14.244   7.606  13.253 +0.01 -0.02    -0.014 P 
DOCKED: ATOM      4  O   UNL d   1     -13.105   8.546  13.678 -0.36 -0.85    -0.577 OA
DOCKED: ATOM      5  O   UNL d   1     -15.170   7.281  14.423 +0.01 -0.30    -0.577 OA
DOCKED: ATOM      6  O   UNL d   1     -14.978   8.134  12.025 -0.36 -1.02    -0.638 OA
DOCKED: ENDBRANCH   2   3
DOCKED: ENDBRANCH   1   2
DOCKED: BRANCH   1   7
DOCKED: ATOM      7  C   UNL d   1     -13.055   3.776  12.908 -0.27 +0.18    +0.201 C 
DOCKED: BRANCH   7   8
DOCKED: ATOM      8  O   UNL d   1     -12.705   3.140  11.659 -0.52 -0.68    -0.364 OA
DOCKED: BRANCH   8   9
DOCKED: ATOM      9  P   UNL d   1     -11.168   2.577  11.418 -0.67 -0.02    -0.015 P 
DOCKED: ATOM     10  O   UNL d   1     -10.431   2.853  12.734 -0.75 -0.51    -0.577 OA
DOCKED: ATOM     11  O   UNL d   1     -10.579   3.375  10.255 -0.28 -0.92    -0.577 OA
DOCKED: ATOM     12  O   UNL d   1     -11.276   1.082  11.124 -0.67 -0.63    -0.638 OA
DOCKED: ENDBRANCH   8   9
DOCKED: ENDBRANCH   7   8
DOCKED: ENDBRANCH   1   7
DOCKED: BRANCH   1  13
DOCKED: ATOM     13  C   UNL d   1     -14.958   4.717  11.482 -0.20 +0.09    +0.073 C 
DOCKED: ATOM     14  O   UNL d   1     -14.391   5.032  10.377 -0.17 -1.07    -0.547 OA
DOCKED: ATOM     15  O   UNL d   1     -16.128   4.196  11.574 -0.07 -0.43    -0.547 OA
DOCKED: ENDBRANCH   1  13
DOCKED: TORSDOF 6
DOCKED: TER
DOCKED: ENDMDL
________________________________________________________________________________


	BEGINNING GENETIC ALGORITHM DOCKING 74 of 100
Run: 74 Seed: 1939952588 336630412 [ Run 74 of 100 GA/GALS ]
Beginning LAMARCKIAN GENETIC ALGORITHM (LGA), with a maximum of 25000000 energy evaluations.

Final-Value: -8.420


	FINAL GENETIC ALGORITHM DOCKED STATE
	_______________________________________________


Detailed state:  trans -13.924 4.775 12.233 quatxyzw -0.264536 -0.374319 0.885756 0.073086 center 0.015 0.083 0.031 ntor 6 26.8256 -178.2132 -42.6891 70.4979 19.9794 168.8534
State:	-13.924   4.775  12.233  -0.265 -0.375  0.888 171.617     26.83 -178.21  -42.69   70.50   19.98  168.85

DOCKED: MODEL       74
DOCKED: USER    Run = 74
DOCKED: USER    DPF = D:/Protein_go_brrr/autodock/final/mut_Y35F/2_3_BPG/dock.dpf
DOCKED: USER  
DOCKED: USER    Estimated Free Energy of Binding    =   -9.01 kcal/mol  [=(1)+(2)+(3)-(4)]
DOCKED: USER    Estimated Inhibition Constant, Ki   =  247.96 nM (nanomolar)  [Temperature = 298.15 K]
DOCKED: USER    
DOCKED: USER    (1) Final Intermolecular Energy     =  -10.80 kcal/mol
DOCKED: USER        vdW + Hbond + desolv Energy     =   -3.88 kcal/mol
DOCKED: USER        Electrostatic Energy            =   -6.92 kcal/mol
DOCKED: USER    (2) Final Total Internal Energy     =   +2.38 kcal/mol
DOCKED: USER    (3) Torsional Free Energy           =   +1.79 kcal/mol
DOCKED: USER    (4) Unbound System's Energy  [=(2)] =   +2.38 kcal/mol
DOCKED: USER    
DOCKED: USER    
DOCKED: USER    NEWDPF move 2_3_BPG_opt.pdbqt
DOCKED: USER    NEWDPF about 0.015000 0.083000 0.031000
DOCKED: USER    NEWDPF tran0 -13.923585 4.774522 12.232525
DOCKED: USER    NEWDPF quaternion0 -0.264536 -0.374319 0.885756 0.073086
DOCKED: USER    NEWDPF axisangle0 -0.265246 -0.375323 0.888132 171.617434
DOCKED: USER    NEWDPF quat0 -0.265246 -0.375323 0.888132 171.617434
DOCKED: USER    NEWDPF dihe0 26.83 -178.21 -42.69 70.50 19.98 168.85 
DOCKED: USER  keepresnum = 1 
DOCKED: USER  
DOCKED: REMARK  6 active torsions:
DOCKED: REMARK  status: ('A' for Active; 'I' for Inactive)
DOCKED: REMARK    1  A    between atoms: P_1  and  O_3 
DOCKED: REMARK    2  A    between atoms: P_2  and  O_4 
DOCKED: REMARK    3  A    between atoms: O_3  and  C_13 
DOCKED: REMARK    4  A    between atoms: O_4  and  C_14 
DOCKED: REMARK    5  A    between atoms: C_13  and  C_14 
DOCKED: REMARK    6  A    between atoms: C_13  and  C_15 
DOCKED: USER                              x       y       z     vdW  Elec       q    Type
DOCKED: USER                           _______ _______ _______ _____ _____    ______ ____
DOCKED: ROOT
DOCKED: ATOM      1  C   UNL d   1     -13.567   4.890  12.788 -0.19 +0.19    +0.193 C 
DOCKED: ENDROOT
DOCKED: BRANCH   1   2
DOCKED: ATOM      2  O   UNL d   1     -12.147   4.704  12.466 -0.16 -0.42    -0.356 OA
DOCKED: BRANCH   2   3
DOCKED: ATOM      3  P   UNL d   1     -11.518   3.273  11.956 -0.68 -0.02    -0.014 P 
DOCKED: ATOM      4  O   UNL d   1     -12.708   2.301  11.979 -0.22 -0.71    -0.577 OA
DOCKED: ATOM      5  O   UNL d   1     -10.441   2.868  12.961 -0.70 -0.46    -0.577 OA
DOCKED: ATOM      6  O   UNL d   1     -10.984   3.471  10.541 -0.20 -1.15    -0.638 OA
DOCKED: ENDBRANCH   2   3
DOCKED: ENDBRANCH   1   2
DOCKED: BRANCH   1   7
DOCKED: ATOM      7  C   UNL d   1     -14.390   4.911  11.447 -0.17 +0.29    +0.201 C 
DOCKED: BRANCH   7   8
DOCKED: ATOM      8  O   UNL d   1     -13.705   5.452  10.296 -0.30 -0.77    -0.364 OA
DOCKED: BRANCH   8   9
DOCKED: ATOM      9  P   UNL d   1     -14.573   6.053   9.022 -0.21 -0.02    -0.015 P 
DOCKED: ATOM     10  O   UNL d   1     -13.822   7.318   8.590 -0.09 -0.90    -0.577 OA
DOCKED: ATOM     11  O   UNL d   1     -15.973   6.372   9.546 +0.01 -0.51    -0.577 OA
DOCKED: ATOM     12  O   UNL d   1     -14.572   4.984   7.930 -0.33 -1.25    -0.638 OA
DOCKED: ENDBRANCH   8   9
DOCKED: ENDBRANCH   7   8
DOCKED: ENDBRANCH   1   7
DOCKED: BRANCH   1  13
DOCKED: ATOM     13  C   UNL d   1     -13.776   6.263  13.529 -0.14 +0.07    +0.073 C 
DOCKED: ATOM     14  O   UNL d   1     -13.830   7.334  12.829 -0.50 -0.98    -0.547 OA
DOCKED: ATOM     15  O   UNL d   1     -13.945   6.219  14.801 +0.01 -0.27    -0.547 OA
DOCKED: ENDBRANCH   1  13
DOCKED: TORSDOF 6
DOCKED: TER
DOCKED: ENDMDL
________________________________________________________________________________


	BEGINNING GENETIC ALGORITHM DOCKING 75 of 100
Run: 75 Seed: 841640211 2132600732 [ Run 75 of 100 GA/GALS ]
Beginning LAMARCKIAN GENETIC ALGORITHM (LGA), with a maximum of 25000000 energy evaluations.

Final-Value: -9.366


	FINAL GENETIC ALGORITHM DOCKED STATE
	_______________________________________________


Detailed state:  trans -13.469 4.897 11.818 quatxyzw -0.797907 0.085745 -0.496055 -0.331543 center 0.015 0.083 0.031 ntor 6 -2.4452 -142.4263 -24.1145 6.3228 -77.1201 -111.0675
State:	-13.469   4.897  11.818  -0.846  0.091 -0.526 -141.275     -2.45 -142.43  -24.11    6.32  -77.12 -111.07

DOCKED: MODEL       75
DOCKED: USER    Run = 75
DOCKED: USER    DPF = D:/Protein_go_brrr/autodock/final/mut_Y35F/2_3_BPG/dock.dpf
DOCKED: USER  
DOCKED: USER    Estimated Free Energy of Binding    =   -9.83 kcal/mol  [=(1)+(2)+(3)-(4)]
DOCKED: USER    Estimated Inhibition Constant, Ki   =   61.91 nM (nanomolar)  [Temperature = 298.15 K]
DOCKED: USER    
DOCKED: USER    (1) Final Intermolecular Energy     =  -11.62 kcal/mol
DOCKED: USER        vdW + Hbond + desolv Energy     =   -4.50 kcal/mol
DOCKED: USER        Electrostatic Energy            =   -7.13 kcal/mol
DOCKED: USER    (2) Final Total Internal Energy     =   +2.26 kcal/mol
DOCKED: USER    (3) Torsional Free Energy           =   +1.79 kcal/mol
DOCKED: USER    (4) Unbound System's Energy  [=(2)] =   +2.26 kcal/mol
DOCKED: USER    
DOCKED: USER    
DOCKED: USER    NEWDPF move 2_3_BPG_opt.pdbqt
DOCKED: USER    NEWDPF about 0.015000 0.083000 0.031000
DOCKED: USER    NEWDPF tran0 -13.468524 4.897382 11.818224
DOCKED: USER    NEWDPF quaternion0 -0.797907 0.085745 -0.496055 -0.331543
DOCKED: USER    NEWDPF axisangle0 -0.845742 0.090885 -0.525794 -141.275072
DOCKED: USER    NEWDPF quat0 -0.845742 0.090885 -0.525794 -141.275072
DOCKED: USER    NEWDPF dihe0 -2.45 -142.43 -24.11 6.32 -77.12 -111.07 
DOCKED: USER  keepresnum = 1 
DOCKED: USER  
DOCKED: REMARK  6 active torsions:
DOCKED: REMARK  status: ('A' for Active; 'I' for Inactive)
DOCKED: REMARK    1  A    between atoms: P_1  and  O_3 
DOCKED: REMARK    2  A    between atoms: P_2  and  O_4 
DOCKED: REMARK    3  A    between atoms: O_3  and  C_13 
DOCKED: REMARK    4  A    between atoms: O_4  and  C_14 
DOCKED: REMARK    5  A    between atoms: C_13  and  C_14 
DOCKED: REMARK    6  A    between atoms: C_13  and  C_15 
DOCKED: USER                              x       y       z     vdW  Elec       q    Type
DOCKED: USER                           _______ _______ _______ _____ _____    ______ ____
DOCKED: ROOT
DOCKED: ATOM      1  C   UNL d   1     -13.739   5.450  11.552 -0.13 +0.30    +0.193 C 
DOCKED: ENDROOT
DOCKED: BRANCH   1   2
DOCKED: ATOM      2  O   UNL d   1     -14.649   5.043  10.476 -0.23 -0.62    -0.356 OA
DOCKED: BRANCH   2   3
DOCKED: ATOM      3  P   UNL d   1     -14.550   5.626   8.942 -0.01 -0.02    -0.014 P 
DOCKED: ATOM      4  O   UNL d   1     -13.047   5.850   8.713 +0.00 -1.12    -0.577 OA
DOCKED: ATOM      5  O   UNL d   1     -15.326   6.941   8.906 -0.00 -0.59    -0.577 OA
DOCKED: ATOM      6  O   UNL d   1     -15.108   4.566   7.998 -0.45 -1.21    -0.638 OA
DOCKED: ENDBRANCH   2   3
DOCKED: ENDBRANCH   1   2
DOCKED: BRANCH   1   7
DOCKED: ATOM      7  C   UNL d   1     -13.324   4.174  12.373 -0.24 +0.24    +0.201 C 
DOCKED: BRANCH   7   8
DOCKED: ATOM      8  O   UNL d   1     -12.885   3.039  11.594 -0.40 -0.72    -0.364 OA
DOCKED: BRANCH   8   9
DOCKED: ATOM      9  P   UNL d   1     -11.280   2.642  11.536 -0.74 -0.02    -0.015 P 
DOCKED: ATOM     10  O   UNL d   1     -11.250   1.162  11.135 -0.70 -0.59    -0.577 OA
DOCKED: ATOM     11  O   UNL d   1     -10.716   2.864  12.939 -0.70 -0.44    -0.577 OA
DOCKED: ATOM     12  O   UNL d   1     -10.632   3.536  10.481 -0.27 -1.00    -0.638 OA
DOCKED: ENDBRANCH   8   9
DOCKED: ENDBRANCH   7   8
DOCKED: ENDBRANCH   1   7
DOCKED: BRANCH   1  13
DOCKED: ATOM     13  C   UNL d   1     -14.464   6.458  12.520 -0.12 +0.09    +0.073 C 
DOCKED: ATOM     14  O   UNL d   1     -15.609   6.133  12.994 +0.00 -0.36    -0.547 OA
DOCKED: ATOM     15  O   UNL d   1     -13.828   7.529  12.829 -0.52 -1.06    -0.547 OA
DOCKED: ENDBRANCH   1  13
DOCKED: TORSDOF 6
DOCKED: TER
DOCKED: ENDMDL
________________________________________________________________________________


	BEGINNING GENETIC ALGORITHM DOCKING 76 of 100
Run: 76 Seed: 760111701 634717965 [ Run 76 of 100 GA/GALS ]
Beginning LAMARCKIAN GENETIC ALGORITHM (LGA), with a maximum of 25000000 energy evaluations.

Final-Value: -8.541


	FINAL GENETIC ALGORITHM DOCKED STATE
	_______________________________________________


Detailed state:  trans -13.518 4.905 12.646 quatxyzw -0.400579 0.264070 0.480148 0.734344 center 0.015 0.083 0.031 ntor 6 2.6093 -26.3678 -172.0018 -9.9252 -19.2992 71.9702
State:	-13.518   4.905  12.646  -0.590  0.389  0.707 85.496      2.61  -26.37 -172.00   -9.93  -19.30   71.97

DOCKED: MODEL       76
DOCKED: USER    Run = 76
DOCKED: USER    DPF = D:/Protein_go_brrr/autodock/final/mut_Y35F/2_3_BPG/dock.dpf
DOCKED: USER  
DOCKED: USER    Estimated Free Energy of Binding    =   -8.98 kcal/mol  [=(1)+(2)+(3)-(4)]
DOCKED: USER    Estimated Inhibition Constant, Ki   =  262.92 nM (nanomolar)  [Temperature = 298.15 K]
DOCKED: USER    
DOCKED: USER    (1) Final Intermolecular Energy     =  -10.77 kcal/mol
DOCKED: USER        vdW + Hbond + desolv Energy     =   -4.41 kcal/mol
DOCKED: USER        Electrostatic Energy            =   -6.36 kcal/mol
DOCKED: USER    (2) Final Total Internal Energy     =   +2.23 kcal/mol
DOCKED: USER    (3) Torsional Free Energy           =   +1.79 kcal/mol
DOCKED: USER    (4) Unbound System's Energy  [=(2)] =   +2.23 kcal/mol
DOCKED: USER    
DOCKED: USER    
DOCKED: USER    NEWDPF move 2_3_BPG_opt.pdbqt
DOCKED: USER    NEWDPF about 0.015000 0.083000 0.031000
DOCKED: USER    NEWDPF tran0 -13.518143 4.905187 12.646103
DOCKED: USER    NEWDPF quaternion0 -0.400579 0.264070 0.480148 0.734344
DOCKED: USER    NEWDPF axisangle0 -0.590148 0.389037 0.707372 85.496376
DOCKED: USER    NEWDPF quat0 -0.590148 0.389037 0.707372 85.496376
DOCKED: USER    NEWDPF dihe0 2.61 -26.37 -172.00 -9.93 -19.30 71.97 
DOCKED: USER  keepresnum = 1 
DOCKED: USER  
DOCKED: REMARK  6 active torsions:
DOCKED: REMARK  status: ('A' for Active; 'I' for Inactive)
DOCKED: REMARK    1  A    between atoms: P_1  and  O_3 
DOCKED: REMARK    2  A    between atoms: P_2  and  O_4 
DOCKED: REMARK    3  A    between atoms: O_3  and  C_13 
DOCKED: REMARK    4  A    between atoms: O_4  and  C_14 
DOCKED: REMARK    5  A    between atoms: C_13  and  C_14 
DOCKED: REMARK    6  A    between atoms: C_13  and  C_15 
DOCKED: USER                              x       y       z     vdW  Elec       q    Type
DOCKED: USER                           _______ _______ _______ _____ _____    ______ ____
DOCKED: ROOT
DOCKED: ATOM      1  C   UNL d   1     -13.978   5.343  12.432 -0.17 +0.22    +0.193 C 
DOCKED: ENDROOT
DOCKED: BRANCH   1   2
DOCKED: ATOM      2  O   UNL d   1     -13.507   6.695  12.753 -0.34 -0.55    -0.356 OA
DOCKED: BRANCH   2   3
DOCKED: ATOM      3  P   UNL d   1     -14.504   7.904  13.252 +0.00 -0.02    -0.014 P 
DOCKED: ATOM      4  O   UNL d   1     -13.625   8.773  14.166 -0.15 -0.55    -0.577 OA
DOCKED: ATOM      5  O   UNL d   1     -15.649   7.255  14.027 +0.01 -0.30    -0.577 OA
DOCKED: ATOM      6  O   UNL d   1     -14.964   8.675  12.019 -0.28 -1.05    -0.638 OA
DOCKED: ENDBRANCH   2   3
DOCKED: ENDBRANCH   1   2
DOCKED: BRANCH   1   7
DOCKED: ATOM      7  C   UNL d   1     -12.797   4.329  12.658 -0.25 +0.21    +0.201 C 
DOCKED: BRANCH   7   8
DOCKED: ATOM      8  O   UNL d   1     -12.510   3.439  11.557 -0.63 -0.72    -0.364 OA
DOCKED: BRANCH   8   9
DOCKED: ATOM      9  P   UNL d   1     -11.073   2.622  11.504 -0.67 -0.02    -0.015 P 
DOCKED: ATOM     10  O   UNL d   1     -10.434   2.847  12.880 -0.72 -0.48    -0.577 OA
DOCKED: ATOM     11  O   UNL d   1     -10.245   3.248  10.382 -0.34 -0.79    -0.577 OA
DOCKED: ATOM     12  O   UNL d   1     -11.400   1.150  11.257 -0.54 -0.63    -0.638 OA
DOCKED: ENDBRANCH   8   9
DOCKED: ENDBRANCH   7   8
DOCKED: ENDBRANCH   1   7
DOCKED: BRANCH   1  13
DOCKED: ATOM     13  C   UNL d   1     -14.422   5.271  10.923 -0.18 +0.12    +0.073 C 
DOCKED: ATOM     14  O   UNL d   1     -13.575   5.600  10.020 -0.08 -1.18    -0.547 OA
DOCKED: ATOM     15  O   UNL d   1     -15.600   4.821  10.683 -0.06 -0.63    -0.547 OA
DOCKED: ENDBRANCH   1  13
DOCKED: TORSDOF 6
DOCKED: TER
DOCKED: ENDMDL
________________________________________________________________________________


	BEGINNING GENETIC ALGORITHM DOCKING 77 of 100
Run: 77 Seed: 1860933616 25821108 [ Run 77 of 100 GA/GALS ]
Beginning LAMARCKIAN GENETIC ALGORITHM (LGA), with a maximum of 25000000 energy evaluations.

Final-Value: -9.476


	FINAL GENETIC ALGORITHM DOCKED STATE
	_______________________________________________


Detailed state:  trans -13.196 4.758 12.041 quatxyzw 0.762207 -0.163719 0.508544 0.365540 center 0.015 0.083 0.031 ntor 6 40.9875 -11.0479 -36.9213 16.4616 -82.3056 -105.5168
State:	-13.196   4.758  12.041   0.819 -0.176  0.546 137.118     40.99  -11.05  -36.92   16.46  -82.31 -105.52

DOCKED: MODEL       77
DOCKED: USER    Run = 77
DOCKED: USER    DPF = D:/Protein_go_brrr/autodock/final/mut_Y35F/2_3_BPG/dock.dpf
DOCKED: USER  
DOCKED: USER    Estimated Free Energy of Binding    =  -10.08 kcal/mol  [=(1)+(2)+(3)-(4)]
DOCKED: USER    Estimated Inhibition Constant, Ki   =   40.63 nM (nanomolar)  [Temperature = 298.15 K]
DOCKED: USER    
DOCKED: USER    (1) Final Intermolecular Energy     =  -11.87 kcal/mol
DOCKED: USER        vdW + Hbond + desolv Energy     =   -4.41 kcal/mol
DOCKED: USER        Electrostatic Energy            =   -7.46 kcal/mol
DOCKED: USER    (2) Final Total Internal Energy     =   +2.40 kcal/mol
DOCKED: USER    (3) Torsional Free Energy           =   +1.79 kcal/mol
DOCKED: USER    (4) Unbound System's Energy  [=(2)] =   +2.40 kcal/mol
DOCKED: USER    
DOCKED: USER    
DOCKED: USER    NEWDPF move 2_3_BPG_opt.pdbqt
DOCKED: USER    NEWDPF about 0.015000 0.083000 0.031000
DOCKED: USER    NEWDPF tran0 -13.195709 4.757528 12.040723
DOCKED: USER    NEWDPF quaternion0 0.762207 -0.163719 0.508544 0.365540
DOCKED: USER    NEWDPF axisangle0 0.818877 -0.175892 0.546354 137.118389
DOCKED: USER    NEWDPF quat0 0.818877 -0.175892 0.546354 137.118389
DOCKED: USER    NEWDPF dihe0 40.99 -11.05 -36.92 16.46 -82.31 -105.52 
DOCKED: USER  keepresnum = 1 
DOCKED: USER  
DOCKED: REMARK  6 active torsions:
DOCKED: REMARK  status: ('A' for Active; 'I' for Inactive)
DOCKED: REMARK    1  A    between atoms: P_1  and  O_3 
DOCKED: REMARK    2  A    between atoms: P_2  and  O_4 
DOCKED: REMARK    3  A    between atoms: O_3  and  C_13 
DOCKED: REMARK    4  A    between atoms: O_4  and  C_14 
DOCKED: REMARK    5  A    between atoms: C_13  and  C_14 
DOCKED: REMARK    6  A    between atoms: C_13  and  C_15 
DOCKED: USER                              x       y       z     vdW  Elec       q    Type
DOCKED: USER                           _______ _______ _______ _____ _____    ______ ____
DOCKED: ROOT
DOCKED: ATOM      1  C   UNL d   1     -13.402   5.370  11.862 -0.10 +0.29    +0.193 C 
DOCKED: ENDROOT
DOCKED: BRANCH   1   2
DOCKED: ATOM      2  O   UNL d   1     -14.331   5.229  10.735 -0.30 -0.62    -0.356 OA
DOCKED: BRANCH   2   3
DOCKED: ATOM      3  P   UNL d   1     -14.025   5.827   9.234 -0.12 -0.03    -0.014 P 
DOCKED: ATOM      4  O   UNL d   1     -15.047   5.124   8.326 -0.34 -0.94    -0.577 OA
DOCKED: ATOM      5  O   UNL d   1     -12.593   5.437   8.874 +0.10 -1.30    -0.577 OA
DOCKED: ATOM      6  O   UNL d   1     -14.254   7.335   9.272 -0.01 -1.10    -0.638 OA
DOCKED: ENDBRANCH   2   3
DOCKED: ENDBRANCH   1   2
DOCKED: BRANCH   1   7
DOCKED: ATOM      7  C   UNL d   1     -13.136   3.947  12.478 -0.26 +0.23    +0.201 C 
DOCKED: BRANCH   7   8
DOCKED: ATOM      8  O   UNL d   1     -12.684   2.934  11.553 -0.39 -0.71    -0.364 OA
DOCKED: BRANCH   8   9
DOCKED: ATOM      9  P   UNL d   1     -11.080   2.535  11.478 -0.67 -0.02    -0.015 P 
DOCKED: ATOM     10  O   UNL d   1     -11.057   1.031  11.181 -0.67 -0.55    -0.577 OA
DOCKED: ATOM     11  O   UNL d   1     -10.477   2.856  12.845 -0.73 -0.48    -0.577 OA
DOCKED: ATOM     12  O   UNL d   1     -10.464   3.354  10.345 -0.28 -0.95    -0.638 OA
DOCKED: ENDBRANCH   8   9
DOCKED: ENDBRANCH   7   8
DOCKED: ENDBRANCH   1   7
DOCKED: BRANCH   1  13
DOCKED: ATOM     13  C   UNL d   1     -14.036   6.289  12.972 -0.14 +0.08    +0.073 C 
DOCKED: ATOM     14  O   UNL d   1     -14.662   5.734  13.942 +0.01 -0.32    -0.547 OA
DOCKED: ATOM     15  O   UNL d   1     -13.830   7.552  12.869 -0.50 -1.04    -0.547 OA
DOCKED: ENDBRANCH   1  13
DOCKED: TORSDOF 6
DOCKED: TER
DOCKED: ENDMDL
________________________________________________________________________________


	BEGINNING GENETIC ALGORITHM DOCKING 78 of 100
Run: 78 Seed: 1600557193 1775500370 [ Run 78 of 100 GA/GALS ]
Beginning LAMARCKIAN GENETIC ALGORITHM (LGA), with a maximum of 25000000 energy evaluations.

Final-Value: -8.632


	FINAL GENETIC ALGORITHM DOCKED STATE
	_______________________________________________


Detailed state:  trans -13.839 6.435 8.047 quatxyzw -0.777266 -0.132935 0.529684 0.312444 center 0.015 0.083 0.031 ntor 6 172.3540 176.7931 -159.8003 34.8590 22.6370 -70.3007
State:	-13.839   6.435   8.047  -0.818 -0.140  0.558 143.587    172.35  176.79 -159.80   34.86   22.64  -70.30

DOCKED: MODEL       78
DOCKED: USER    Run = 78
DOCKED: USER    DPF = D:/Protein_go_brrr/autodock/final/mut_Y35F/2_3_BPG/dock.dpf
DOCKED: USER  
DOCKED: USER    Estimated Free Energy of Binding    =   -9.02 kcal/mol  [=(1)+(2)+(3)-(4)]
DOCKED: USER    Estimated Inhibition Constant, Ki   =  242.80 nM (nanomolar)  [Temperature = 298.15 K]
DOCKED: USER    
DOCKED: USER    (1) Final Intermolecular Energy     =  -10.81 kcal/mol
DOCKED: USER        vdW + Hbond + desolv Energy     =   -3.51 kcal/mol
DOCKED: USER        Electrostatic Energy            =   -7.31 kcal/mol
DOCKED: USER    (2) Final Total Internal Energy     =   +2.18 kcal/mol
DOCKED: USER    (3) Torsional Free Energy           =   +1.79 kcal/mol
DOCKED: USER    (4) Unbound System's Energy  [=(2)] =   +2.18 kcal/mol
DOCKED: USER    
DOCKED: USER    
DOCKED: USER    NEWDPF move 2_3_BPG_opt.pdbqt
DOCKED: USER    NEWDPF about 0.015000 0.083000 0.031000
DOCKED: USER    NEWDPF tran0 -13.839026 6.435309 8.047240
DOCKED: USER    NEWDPF quaternion0 -0.777266 -0.132935 0.529684 0.312444
DOCKED: USER    NEWDPF axisangle0 -0.818229 -0.139941 0.557599 143.586884
DOCKED: USER    NEWDPF quat0 -0.818229 -0.139941 0.557599 143.586884
DOCKED: USER    NEWDPF dihe0 172.35 176.79 -159.80 34.86 22.64 -70.30 
DOCKED: USER  keepresnum = 1 
DOCKED: USER  
DOCKED: REMARK  6 active torsions:
DOCKED: REMARK  status: ('A' for Active; 'I' for Inactive)
DOCKED: REMARK    1  A    between atoms: P_1  and  O_3 
DOCKED: REMARK    2  A    between atoms: P_2  and  O_4 
DOCKED: REMARK    3  A    between atoms: O_3  and  C_13 
DOCKED: REMARK    4  A    between atoms: O_4  and  C_14 
DOCKED: REMARK    5  A    between atoms: C_13  and  C_14 
DOCKED: REMARK    6  A    between atoms: C_13  and  C_15 
DOCKED: USER                              x       y       z     vdW  Elec       q    Type
DOCKED: USER                           _______ _______ _______ _____ _____    ______ ____
DOCKED: ROOT
DOCKED: ATOM      1  C   UNL d   1     -14.312   6.690   8.448 -0.11 +0.25    +0.193 C 
DOCKED: ENDROOT
DOCKED: BRANCH   1   2
DOCKED: ATOM      2  O   UNL d   1     -13.831   6.609   9.832 +0.15 -0.70    -0.356 OA
DOCKED: BRANCH   2   3
DOCKED: ATOM      3  P   UNL d   1     -14.248   5.399  10.864 -0.23 -0.02    -0.014 P 
DOCKED: ATOM      4  O   UNL d   1     -15.319   4.600  10.104 -0.05 -0.91    -0.577 OA
DOCKED: ATOM      5  O   UNL d   1     -14.820   6.052  12.120 -0.06 -0.63    -0.577 OA
DOCKED: ATOM      6  O   UNL d   1     -13.004   4.557  11.129 -0.54 -1.47    -0.638 OA
DOCKED: ENDBRANCH   2   3
DOCKED: ENDBRANCH   1   2
DOCKED: BRANCH   1   7
DOCKED: ATOM      7  C   UNL d   1     -13.115   6.373   7.478 -0.17 +0.25    +0.201 C 
DOCKED: BRANCH   7   8
DOCKED: ATOM      8  O   UNL d   1     -12.932   4.981   7.137 -0.20 -0.64    -0.364 OA
DOCKED: BRANCH   8   9
DOCKED: ATOM      9  P   UNL d   1     -11.438   4.425   6.693 -0.54 -0.02    -0.015 P 
DOCKED: ATOM     10  O   UNL d   1     -10.445   5.433   7.285 -0.15 -0.53    -0.577 OA
DOCKED: ATOM     11  O   UNL d   1     -11.402   4.418   5.165 -0.46 -0.50    -0.577 OA
DOCKED: ATOM     12  O   UNL d   1     -11.275   3.033   7.301 -0.56 -1.31    -0.638 OA
DOCKED: ENDBRANCH   8   9
DOCKED: ENDBRANCH   7   8
DOCKED: ENDBRANCH   1   7
DOCKED: BRANCH   1  13
DOCKED: ATOM     13  C   UNL d   1     -14.837   8.142   8.143 -0.07 +0.07    +0.073 C 
DOCKED: ATOM     14  O   UNL d   1     -15.960   8.273   7.541 +0.02 -0.29    -0.547 OA
DOCKED: ATOM     15  O   UNL d   1     -14.129   9.121   8.578 -0.55 -0.86    -0.547 OA
DOCKED: ENDBRANCH   1  13
DOCKED: TORSDOF 6
DOCKED: TER
DOCKED: ENDMDL
________________________________________________________________________________


	BEGINNING GENETIC ALGORITHM DOCKING 79 of 100
Run: 79 Seed: 641811993 1478064376 [ Run 79 of 100 GA/GALS ]
Beginning LAMARCKIAN GENETIC ALGORITHM (LGA), with a maximum of 25000000 energy evaluations.

Final-Value: -8.752


	FINAL GENETIC ALGORITHM DOCKED STATE
	_______________________________________________


Detailed state:  trans -13.824 4.446 12.849 quatxyzw -0.249820 0.234043 0.547222 0.763781 center 0.015 0.083 0.031 ntor 6 -12.0104 -27.9561 48.7435 -1.7887 -28.4704 115.3195
State:	-13.824   4.446  12.849  -0.387  0.363  0.848 80.403    -12.01  -27.96   48.74   -1.79  -28.47  115.32

DOCKED: MODEL       79
DOCKED: USER    Run = 79
DOCKED: USER    DPF = D:/Protein_go_brrr/autodock/final/mut_Y35F/2_3_BPG/dock.dpf
DOCKED: USER  
DOCKED: USER    Estimated Free Energy of Binding    =   -9.19 kcal/mol  [=(1)+(2)+(3)-(4)]
DOCKED: USER    Estimated Inhibition Constant, Ki   =  182.38 nM (nanomolar)  [Temperature = 298.15 K]
DOCKED: USER    
DOCKED: USER    (1) Final Intermolecular Energy     =  -10.98 kcal/mol
DOCKED: USER        vdW + Hbond + desolv Energy     =   -4.71 kcal/mol
DOCKED: USER        Electrostatic Energy            =   -6.28 kcal/mol
DOCKED: USER    (2) Final Total Internal Energy     =   +2.23 kcal/mol
DOCKED: USER    (3) Torsional Free Energy           =   +1.79 kcal/mol
DOCKED: USER    (4) Unbound System's Energy  [=(2)] =   +2.23 kcal/mol
DOCKED: USER    
DOCKED: USER    
DOCKED: USER    NEWDPF move 2_3_BPG_opt.pdbqt
DOCKED: USER    NEWDPF about 0.015000 0.083000 0.031000
DOCKED: USER    NEWDPF tran0 -13.824344 4.446448 12.848799
DOCKED: USER    NEWDPF quaternion0 -0.249820 0.234043 0.547222 0.763781
DOCKED: USER    NEWDPF axisangle0 -0.387032 0.362591 0.847782 80.402618
DOCKED: USER    NEWDPF quat0 -0.387032 0.362591 0.847782 80.402618
DOCKED: USER    NEWDPF dihe0 -12.01 -27.96 48.74 -1.79 -28.47 115.32 
DOCKED: USER  keepresnum = 1 
DOCKED: USER  
DOCKED: REMARK  6 active torsions:
DOCKED: REMARK  status: ('A' for Active; 'I' for Inactive)
DOCKED: REMARK    1  A    between atoms: P_1  and  O_3 
DOCKED: REMARK    2  A    between atoms: P_2  and  O_4 
DOCKED: REMARK    3  A    between atoms: O_3  and  C_13 
DOCKED: REMARK    4  A    between atoms: O_4  and  C_14 
DOCKED: REMARK    5  A    between atoms: C_13  and  C_14 
DOCKED: REMARK    6  A    between atoms: C_13  and  C_15 
DOCKED: USER                              x       y       z     vdW  Elec       q    Type
DOCKED: USER                           _______ _______ _______ _____ _____    ______ ____
DOCKED: ROOT
DOCKED: ATOM      1  C   UNL d   1     -14.278   4.907  12.672 -0.17 +0.18    +0.193 C 
DOCKED: ENDROOT
DOCKED: BRANCH   1   2
DOCKED: ATOM      2  O   UNL d   1     -13.605   6.209  12.600 -0.19 -0.48    -0.356 OA
DOCKED: BRANCH   2   3
DOCKED: ATOM      3  P   UNL d   1     -14.225   7.583  13.256 +0.02 -0.02    -0.014 P 
DOCKED: ATOM      4  O   UNL d   1     -12.992   8.395  13.682 -0.35 -0.86    -0.577 OA
DOCKED: ATOM      5  O   UNL d   1     -15.069   7.169  14.460 +0.01 -0.30    -0.577 OA
DOCKED: ATOM      6  O   UNL d   1     -15.023   8.303  12.174 -0.39 -0.95    -0.638 OA
DOCKED: ENDBRANCH   2   3
DOCKED: ENDBRANCH   1   2
DOCKED: BRANCH   1   7
DOCKED: ATOM      7  C   UNL d   1     -13.187   3.780  12.797 -0.26 +0.19    +0.201 C 
DOCKED: BRANCH   7   8
DOCKED: ATOM      8  O   UNL d   1     -12.623   3.308  11.554 -0.58 -0.73    -0.364 OA
DOCKED: BRANCH   8   9
DOCKED: ATOM      9  P   UNL d   1     -11.109   2.642  11.530 -0.69 -0.02    -0.015 P 
DOCKED: ATOM     10  O   UNL d   1     -10.363   3.386  10.415 -0.36 -0.82    -0.577 OA
DOCKED: ATOM     11  O   UNL d   1     -11.280   1.157  11.210 -0.69 -0.57    -0.577 OA
DOCKED: ATOM     12  O   UNL d   1     -10.485   2.890  12.902 -0.66 -0.52    -0.638 OA
DOCKED: ENDBRANCH   8   9
DOCKED: ENDBRANCH   7   8
DOCKED: ENDBRANCH   1   7
DOCKED: BRANCH   1  13
DOCKED: ATOM     13  C   UNL d   1     -15.112   4.658  11.360 -0.19 +0.09    +0.073 C 
DOCKED: ATOM     14  O   UNL d   1     -14.592   4.981  10.235 -0.13 -1.04    -0.547 OA
DOCKED: ATOM     15  O   UNL d   1     -16.251   4.080  11.494 -0.07 -0.42    -0.547 OA
DOCKED: ENDBRANCH   1  13
DOCKED: TORSDOF 6
DOCKED: TER
DOCKED: ENDMDL
________________________________________________________________________________


	BEGINNING GENETIC ALGORITHM DOCKING 80 of 100
Run: 80 Seed: 1356303881 512232968 [ Run 80 of 100 GA/GALS ]
Beginning LAMARCKIAN GENETIC ALGORITHM (LGA), with a maximum of 25000000 energy evaluations.

Final-Value: -9.395


	FINAL GENETIC ALGORITHM DOCKED STATE
	_______________________________________________


Detailed state:  trans -13.399 5.115 11.916 quatxyzw -0.783335 0.061655 -0.481149 -0.388692 center 0.015 0.083 0.031 ntor 6 17.0241 -132.7488 -29.3652 14.1145 -65.6892 -118.8504
State:	-13.399   5.115  11.916  -0.850  0.067 -0.522 -134.254     17.02 -132.75  -29.37   14.11  -65.69 -118.85

DOCKED: MODEL       80
DOCKED: USER    Run = 80
DOCKED: USER    DPF = D:/Protein_go_brrr/autodock/final/mut_Y35F/2_3_BPG/dock.dpf
DOCKED: USER  
DOCKED: USER    Estimated Free Energy of Binding    =   -9.88 kcal/mol  [=(1)+(2)+(3)-(4)]
DOCKED: USER    Estimated Inhibition Constant, Ki   =   57.74 nM (nanomolar)  [Temperature = 298.15 K]
DOCKED: USER    
DOCKED: USER    (1) Final Intermolecular Energy     =  -11.66 kcal/mol
DOCKED: USER        vdW + Hbond + desolv Energy     =   -4.73 kcal/mol
DOCKED: USER        Electrostatic Energy            =   -6.93 kcal/mol
DOCKED: USER    (2) Final Total Internal Energy     =   +2.27 kcal/mol
DOCKED: USER    (3) Torsional Free Energy           =   +1.79 kcal/mol
DOCKED: USER    (4) Unbound System's Energy  [=(2)] =   +2.27 kcal/mol
DOCKED: USER    
DOCKED: USER    
DOCKED: USER    NEWDPF move 2_3_BPG_opt.pdbqt
DOCKED: USER    NEWDPF about 0.015000 0.083000 0.031000
DOCKED: USER    NEWDPF tran0 -13.398616 5.114945 11.916186
DOCKED: USER    NEWDPF quaternion0 -0.783335 0.061655 -0.481149 -0.388692
DOCKED: USER    NEWDPF axisangle0 -0.850186 0.066917 -0.522212 -134.253782
DOCKED: USER    NEWDPF quat0 -0.850186 0.066917 -0.522212 -134.253782
DOCKED: USER    NEWDPF dihe0 17.02 -132.75 -29.37 14.11 -65.69 -118.85 
DOCKED: USER  keepresnum = 1 
DOCKED: USER  
DOCKED: REMARK  6 active torsions:
DOCKED: REMARK  status: ('A' for Active; 'I' for Inactive)
DOCKED: REMARK    1  A    between atoms: P_1  and  O_3 
DOCKED: REMARK    2  A    between atoms: P_2  and  O_4 
DOCKED: REMARK    3  A    between atoms: O_3  and  C_13 
DOCKED: REMARK    4  A    between atoms: O_4  and  C_14 
DOCKED: REMARK    5  A    between atoms: C_13  and  C_14 
DOCKED: REMARK    6  A    between atoms: C_13  and  C_15 
DOCKED: USER                              x       y       z     vdW  Elec       q    Type
DOCKED: USER                           _______ _______ _______ _____ _____    ______ ____
DOCKED: ROOT
DOCKED: ATOM      1  C   UNL d   1     -13.721   5.657  11.689 -0.05 +0.30    +0.193 C 
DOCKED: ENDROOT
DOCKED: BRANCH   1   2
DOCKED: ATOM      2  O   UNL d   1     -14.571   5.247  10.566 -0.23 -0.59    -0.356 OA
DOCKED: BRANCH   2   3
DOCKED: ATOM      3  P   UNL d   1     -14.389   5.827   9.038 -0.19 -0.02    -0.014 P 
DOCKED: ATOM      4  O   UNL d   1     -12.871   5.817   8.802 +0.05 -1.15    -0.577 OA
DOCKED: ATOM      5  O   UNL d   1     -14.950   7.247   9.023 -0.03 -0.70    -0.577 OA
DOCKED: ATOM      6  O   UNL d   1     -15.110   4.879   8.085 -0.43 -1.07    -0.638 OA
DOCKED: ENDBRANCH   2   3
DOCKED: ENDBRANCH   1   2
DOCKED: BRANCH   1   7
DOCKED: ATOM      7  C   UNL d   1     -13.187   4.368  12.415 -0.24 +0.24    +0.201 C 
DOCKED: BRANCH   7   8
DOCKED: ATOM      8  O   UNL d   1     -12.786   3.279  11.554 -0.54 -0.75    -0.364 OA
DOCKED: BRANCH   8   9
DOCKED: ATOM      9  P   UNL d   1     -11.215   2.762  11.546 -0.72 -0.02    -0.015 P 
DOCKED: ATOM     10  O   UNL d   1     -11.283   1.287  11.131 -0.66 -0.62    -0.577 OA
DOCKED: ATOM     11  O   UNL d   1     -10.683   2.931  12.969 -0.68 -0.44    -0.577 OA
DOCKED: ATOM     12  O   UNL d   1     -10.465   3.612  10.522 -0.29 -0.93    -0.638 OA
DOCKED: ENDBRANCH   8   9
DOCKED: ENDBRANCH   7   8
DOCKED: ENDBRANCH   1   7
DOCKED: BRANCH   1  13
DOCKED: ATOM     13  C   UNL d   1     -14.558   6.505  12.718 -0.12 +0.08    +0.073 C 
DOCKED: ATOM     14  O   UNL d   1     -15.445   5.908  13.424 +0.01 -0.32    -0.547 OA
DOCKED: ATOM     15  O   UNL d   1     -14.254   7.747  12.833 -0.60 -0.92    -0.547 OA
DOCKED: ENDBRANCH   1  13
DOCKED: TORSDOF 6
DOCKED: TER
DOCKED: ENDMDL
________________________________________________________________________________


	BEGINNING GENETIC ALGORITHM DOCKING 81 of 100
Run: 81 Seed: 142573219 1017044951 [ Run 81 of 100 GA/GALS ]
Beginning LAMARCKIAN GENETIC ALGORITHM (LGA), with a maximum of 25000000 energy evaluations.

Final-Value: -8.636


	FINAL GENETIC ALGORITHM DOCKED STATE
	_______________________________________________


Detailed state:  trans -13.099 6.739 7.942 quatxyzw 0.353996 -0.069378 0.928446 -0.088663 center 0.015 0.083 0.031 ntor 6 105.2073 123.4074 98.6866 83.9320 66.0653 11.5063
State:	-13.099   6.739   7.942   0.355 -0.070  0.932 -169.827    105.21  123.41   98.69   83.93   66.07   11.51

DOCKED: MODEL       81
DOCKED: USER    Run = 81
DOCKED: USER    DPF = D:/Protein_go_brrr/autodock/final/mut_Y35F/2_3_BPG/dock.dpf
DOCKED: USER  
DOCKED: USER    Estimated Free Energy of Binding    =   -9.23 kcal/mol  [=(1)+(2)+(3)-(4)]
DOCKED: USER    Estimated Inhibition Constant, Ki   =  171.30 nM (nanomolar)  [Temperature = 298.15 K]
DOCKED: USER    
DOCKED: USER    (1) Final Intermolecular Energy     =  -11.02 kcal/mol
DOCKED: USER        vdW + Hbond + desolv Energy     =   -3.59 kcal/mol
DOCKED: USER        Electrostatic Energy            =   -7.43 kcal/mol
DOCKED: USER    (2) Final Total Internal Energy     =   +2.38 kcal/mol
DOCKED: USER    (3) Torsional Free Energy           =   +1.79 kcal/mol
DOCKED: USER    (4) Unbound System's Energy  [=(2)] =   +2.38 kcal/mol
DOCKED: USER    
DOCKED: USER    
DOCKED: USER    NEWDPF move 2_3_BPG_opt.pdbqt
DOCKED: USER    NEWDPF about 0.015000 0.083000 0.031000
DOCKED: USER    NEWDPF tran0 -13.099223 6.738714 7.942261
DOCKED: USER    NEWDPF quaternion0 0.353996 -0.069378 0.928446 -0.088663
DOCKED: USER    NEWDPF axisangle0 0.355395 -0.069653 0.932117 -169.826603
DOCKED: USER    NEWDPF quat0 0.355395 -0.069653 0.932117 -169.826603
DOCKED: USER    NEWDPF dihe0 105.21 123.41 98.69 83.93 66.07 11.51 
DOCKED: USER  keepresnum = 1 
DOCKED: USER  
DOCKED: REMARK  6 active torsions:
DOCKED: REMARK  status: ('A' for Active; 'I' for Inactive)
DOCKED: REMARK    1  A    between atoms: P_1  and  O_3 
DOCKED: REMARK    2  A    between atoms: P_2  and  O_4 
DOCKED: REMARK    3  A    between atoms: O_3  and  C_13 
DOCKED: REMARK    4  A    between atoms: O_4  and  C_14 
DOCKED: REMARK    5  A    between atoms: C_13  and  C_14 
DOCKED: REMARK    6  A    between atoms: C_13  and  C_15 
DOCKED: USER                              x       y       z     vdW  Elec       q    Type
DOCKED: USER                           _______ _______ _______ _____ _____    ______ ____
DOCKED: ROOT
DOCKED: ATOM      1  C   UNL d   1     -12.543   6.957   7.639 -0.12 +0.24    +0.193 C 
DOCKED: ENDROOT
DOCKED: BRANCH   1   2
DOCKED: ATOM      2  O   UNL d   1     -12.358   6.181   6.408 -0.16 -0.33    -0.356 OA
DOCKED: BRANCH   2   3
DOCKED: ATOM      3  P   UNL d   1     -12.448   4.540   6.352 -0.42 -0.02    -0.014 P 
DOCKED: ATOM      4  O   UNL d   1     -11.334   4.063   7.297 -0.50 -1.03    -0.577 OA
DOCKED: ATOM      5  O   UNL d   1     -12.180   4.121   4.909 -0.66 -0.47    -0.577 OA
DOCKED: ATOM      6  O   UNL d   1     -13.827   4.127   6.859 -0.17 -1.30    -0.638 OA
DOCKED: ENDBRANCH   2   3
DOCKED: ENDBRANCH   1   2
DOCKED: BRANCH   1   7
DOCKED: ATOM      7  C   UNL d   1     -13.980   6.667   8.208 -0.11 +0.27    +0.201 C 
DOCKED: BRANCH   7   8
DOCKED: ATOM      8  O   UNL d   1     -14.255   7.192   9.525 -0.02 -0.65    -0.364 OA
DOCKED: BRANCH   8   9
DOCKED: ATOM      9  P   UNL d   1     -14.439   6.163  10.808 -0.11 -0.02    -0.015 P 
DOCKED: ATOM     10  O   UNL d   1     -15.867   5.619  10.681 -0.02 -0.55    -0.577 OA
DOCKED: ATOM     11  O   UNL d   1     -14.255   6.995  12.077 -0.32 -1.03    -0.577 OA
DOCKED: ATOM     12  O   UNL d   1     -13.389   5.063  10.657 -0.31 -1.49    -0.638 OA
DOCKED: ENDBRANCH   8   9
DOCKED: ENDBRANCH   7   8
DOCKED: ENDBRANCH   1   7
DOCKED: BRANCH   1  13
DOCKED: ATOM     13  C   UNL d   1     -12.424   8.496   7.330 -0.19 +0.07    +0.073 C 
DOCKED: ATOM     14  O   UNL d   1     -12.947   9.327   8.154 -0.43 -0.84    -0.547 OA
DOCKED: ATOM     15  O   UNL d   1     -11.748   8.832   6.292 -0.05 -0.29    -0.547 OA
DOCKED: ENDBRANCH   1  13
DOCKED: TORSDOF 6
DOCKED: TER
DOCKED: ENDMDL
________________________________________________________________________________


	BEGINNING GENETIC ALGORITHM DOCKING 82 of 100
Run: 82 Seed: 1230075970 1868416680 [ Run 82 of 100 GA/GALS ]
Beginning LAMARCKIAN GENETIC ALGORITHM (LGA), with a maximum of 25000000 energy evaluations.

Final-Value: -8.518


	FINAL GENETIC ALGORITHM DOCKED STATE
	_______________________________________________


Detailed state:  trans -14.074 4.846 12.545 quatxyzw -0.284177 0.335024 0.487217 0.754733 center 0.015 0.083 0.031 ntor 6 -8.0401 -45.1203 -165.2875 32.5892 -44.8503 90.1877
State:	-14.074   4.846  12.545  -0.433  0.511  0.743 81.996     -8.04  -45.12 -165.29   32.59  -44.85   90.19

DOCKED: MODEL       82
DOCKED: USER    Run = 82
DOCKED: USER    DPF = D:/Protein_go_brrr/autodock/final/mut_Y35F/2_3_BPG/dock.dpf
DOCKED: USER  
DOCKED: USER    Estimated Free Energy of Binding    =   -8.95 kcal/mol  [=(1)+(2)+(3)-(4)]
DOCKED: USER    Estimated Inhibition Constant, Ki   =  272.88 nM (nanomolar)  [Temperature = 298.15 K]
DOCKED: USER    
DOCKED: USER    (1) Final Intermolecular Energy     =  -10.74 kcal/mol
DOCKED: USER        vdW + Hbond + desolv Energy     =   -4.04 kcal/mol
DOCKED: USER        Electrostatic Energy            =   -6.71 kcal/mol
DOCKED: USER    (2) Final Total Internal Energy     =   +2.23 kcal/mol
DOCKED: USER    (3) Torsional Free Energy           =   +1.79 kcal/mol
DOCKED: USER    (4) Unbound System's Energy  [=(2)] =   +2.23 kcal/mol
DOCKED: USER    
DOCKED: USER    
DOCKED: USER    NEWDPF move 2_3_BPG_opt.pdbqt
DOCKED: USER    NEWDPF about 0.015000 0.083000 0.031000
DOCKED: USER    NEWDPF tran0 -14.074488 4.846365 12.544550
DOCKED: USER    NEWDPF quaternion0 -0.284177 0.335024 0.487217 0.754733
DOCKED: USER    NEWDPF axisangle0 -0.433176 0.510683 0.742672 81.995878
DOCKED: USER    NEWDPF quat0 -0.433176 0.510683 0.742672 81.995878
DOCKED: USER    NEWDPF dihe0 -8.04 -45.12 -165.29 32.59 -44.85 90.19 
DOCKED: USER  keepresnum = 1 
DOCKED: USER  
DOCKED: REMARK  6 active torsions:
DOCKED: REMARK  status: ('A' for Active; 'I' for Inactive)
DOCKED: REMARK    1  A    between atoms: P_1  and  O_3 
DOCKED: REMARK    2  A    between atoms: P_2  and  O_4 
DOCKED: REMARK    3  A    between atoms: O_3  and  C_13 
DOCKED: REMARK    4  A    between atoms: O_4  and  C_14 
DOCKED: REMARK    5  A    between atoms: C_13  and  C_14 
DOCKED: REMARK    6  A    between atoms: C_13  and  C_15 
DOCKED: USER                              x       y       z     vdW  Elec       q    Type
DOCKED: USER                           _______ _______ _______ _____ _____    ______ ____
DOCKED: ROOT
DOCKED: ATOM      1  C   UNL d   1     -14.494   5.266  12.232 -0.16 +0.21    +0.193 C 
DOCKED: ENDROOT
DOCKED: BRANCH   1   2
DOCKED: ATOM      2  O   UNL d   1     -13.871   6.594  12.200 -0.29 -0.60    -0.356 OA
DOCKED: BRANCH   2   3
DOCKED: ATOM      3  P   UNL d   1     -14.256   7.797  13.252 +0.08 -0.02    -0.014 P 
DOCKED: ATOM      4  O   UNL d   1     -12.900   8.305  13.767 -0.29 -0.81    -0.577 OA
DOCKED: ATOM      5  O   UNL d   1     -15.083   7.171  14.373 +0.01 -0.31    -0.577 OA
DOCKED: ATOM      6  O   UNL d   1     -15.003   8.879  12.479 -0.35 -0.86    -0.638 OA
DOCKED: ENDBRANCH   2   3
DOCKED: ENDBRANCH   1   2
DOCKED: BRANCH   1   7
DOCKED: ATOM      7  C   UNL d   1     -13.418   4.215  12.693 -0.23 +0.20    +0.201 C 
DOCKED: BRANCH   7   8
DOCKED: ATOM      8  O   UNL d   1     -12.970   3.285  11.682 -0.56 -0.71    -0.364 OA
DOCKED: BRANCH   8   9
DOCKED: ATOM      9  P   UNL d   1     -11.367   2.896  11.564 -0.69 -0.02    -0.015 P 
DOCKED: ATOM     10  O   UNL d   1     -10.750   3.337  12.898 -0.68 -0.48    -0.577 OA
DOCKED: ATOM     11  O   UNL d   1     -10.802   3.687  10.385 -0.25 -0.98    -0.577 OA
DOCKED: ATOM     12  O   UNL d   1     -11.283   1.383  11.365 -0.54 -0.65    -0.638 OA
DOCKED: ENDBRANCH   8   9
DOCKED: ENDBRANCH   7   8
DOCKED: ENDBRANCH   1   7
DOCKED: BRANCH   1  13
DOCKED: ATOM     13  C   UNL d   1     -14.999   4.872  10.794 -0.15 +0.11    +0.073 C 
DOCKED: ATOM     14  O   UNL d   1     -14.219   5.067   9.797 +0.14 -1.27    -0.547 OA
DOCKED: ATOM     15  O   UNL d   1     -16.152   4.313  10.715 -0.06 -0.52    -0.547 OA
DOCKED: ENDBRANCH   1  13
DOCKED: TORSDOF 6
DOCKED: TER
DOCKED: ENDMDL
________________________________________________________________________________


	BEGINNING GENETIC ALGORITHM DOCKING 83 of 100
Run: 83 Seed: 1107424490 947665850 [ Run 83 of 100 GA/GALS ]
Beginning LAMARCKIAN GENETIC ALGORITHM (LGA), with a maximum of 25000000 energy evaluations.

Final-Value: -8.046


	FINAL GENETIC ALGORITHM DOCKED STATE
	_______________________________________________


Detailed state:  trans -12.497 5.904 7.809 quatxyzw 0.161141 -0.810813 -0.225651 -0.515458 center 0.015 0.083 0.031 ntor 6 44.5832 83.3569 152.2546 66.0290 -0.6881 -31.8505
State:	-12.497   5.904   7.809   0.188 -0.946 -0.263 -117.944     44.58   83.36  152.25   66.03   -0.69  -31.85

DOCKED: MODEL       83
DOCKED: USER    Run = 83
DOCKED: USER    DPF = D:/Protein_go_brrr/autodock/final/mut_Y35F/2_3_BPG/dock.dpf
DOCKED: USER  
DOCKED: USER    Estimated Free Energy of Binding    =   -8.40 kcal/mol  [=(1)+(2)+(3)-(4)]
DOCKED: USER    Estimated Inhibition Constant, Ki   =  697.77 nM (nanomolar)  [Temperature = 298.15 K]
DOCKED: USER    
DOCKED: USER    (1) Final Intermolecular Energy     =  -10.19 kcal/mol
DOCKED: USER        vdW + Hbond + desolv Energy     =   -3.59 kcal/mol
DOCKED: USER        Electrostatic Energy            =   -6.60 kcal/mol
DOCKED: USER    (2) Final Total Internal Energy     =   +2.14 kcal/mol
DOCKED: USER    (3) Torsional Free Energy           =   +1.79 kcal/mol
DOCKED: USER    (4) Unbound System's Energy  [=(2)] =   +2.14 kcal/mol
DOCKED: USER    
DOCKED: USER    
DOCKED: USER    NEWDPF move 2_3_BPG_opt.pdbqt
DOCKED: USER    NEWDPF about 0.015000 0.083000 0.031000
DOCKED: USER    NEWDPF tran0 -12.496832 5.903515 7.808914
DOCKED: USER    NEWDPF quaternion0 0.161141 -0.810813 -0.225651 -0.515458
DOCKED: USER    NEWDPF axisangle0 0.188047 -0.946201 -0.263329 -117.943802
DOCKED: USER    NEWDPF quat0 0.188047 -0.946201 -0.263329 -117.943802
DOCKED: USER    NEWDPF dihe0 44.58 83.36 152.25 66.03 -0.69 -31.85 
DOCKED: USER  keepresnum = 1 
DOCKED: USER  
DOCKED: REMARK  6 active torsions:
DOCKED: REMARK  status: ('A' for Active; 'I' for Inactive)
DOCKED: REMARK    1  A    between atoms: P_1  and  O_3 
DOCKED: REMARK    2  A    between atoms: P_2  and  O_4 
DOCKED: REMARK    3  A    between atoms: O_3  and  C_13 
DOCKED: REMARK    4  A    between atoms: O_4  and  C_14 
DOCKED: REMARK    5  A    between atoms: C_13  and  C_14 
DOCKED: REMARK    6  A    between atoms: C_13  and  C_15 
DOCKED: USER                              x       y       z     vdW  Elec       q    Type
DOCKED: USER                           _______ _______ _______ _____ _____    ______ ____
DOCKED: ROOT
DOCKED: ATOM      1  C   UNL d   1     -12.328   5.948   7.162 -0.24 +0.23    +0.193 C 
DOCKED: ENDROOT
DOCKED: BRANCH   1   2
DOCKED: ATOM      2  O   UNL d   1     -11.329   7.013   7.021 -0.19 -0.32    -0.356 OA
DOCKED: BRANCH   2   3
DOCKED: ATOM      3  P   UNL d   1     -11.658   8.601   7.295 -0.36 -0.01    -0.014 P 
DOCKED: ATOM      4  O   UNL d   1     -11.848   9.200   5.893 -0.02 -0.23    -0.577 OA
DOCKED: ATOM      5  O   UNL d   1     -10.444   9.199   8.002 -0.13 -0.45    -0.577 OA
DOCKED: ATOM      6  O   UNL d   1     -12.941   8.681   8.116 -0.28 -1.03    -0.638 OA
DOCKED: ENDBRANCH   2   3
DOCKED: ENDBRANCH   1   2
DOCKED: BRANCH   1   7
DOCKED: ATOM      7  C   UNL d   1     -12.518   5.633   8.691 +0.40 +0.41    +0.201 C 
DOCKED: BRANCH   7   8
DOCKED: ATOM      8  O   UNL d   1     -13.879   5.659   9.176 -0.10 -0.74    -0.364 OA
DOCKED: BRANCH   8   9
DOCKED: ATOM      9  P   UNL d   1     -14.194   5.401  10.779 -0.20 -0.03    -0.015 P 
DOCKED: ATOM     10  O   UNL d   1     -13.015   4.563  11.287 -0.61 -1.23    -0.577 OA
DOCKED: ATOM     11  O   UNL d   1     -15.514   4.634  10.857 -0.07 -0.68    -0.577 OA
DOCKED: ATOM     12  O   UNL d   1     -14.258   6.771  11.453 -0.10 -1.17    -0.638 OA
DOCKED: ENDBRANCH   8   9
DOCKED: ENDBRANCH   7   8
DOCKED: ENDBRANCH   1   7
DOCKED: BRANCH   1  13
DOCKED: ATOM     13  C   UNL d   1     -11.831   4.642   6.436 -0.42 +0.09    +0.073 C 
DOCKED: ATOM     14  O   UNL d   1     -11.282   3.723   7.140 -0.63 -0.96    -0.547 OA
DOCKED: ATOM     15  O   UNL d   1     -12.064   4.550   5.177 -0.64 -0.49    -0.547 OA
DOCKED: ENDBRANCH   1  13
DOCKED: TORSDOF 6
DOCKED: TER
DOCKED: ENDMDL
________________________________________________________________________________


	BEGINNING GENETIC ALGORITHM DOCKING 84 of 100
Run: 84 Seed: 1990746229 2079539651 [ Run 84 of 100 GA/GALS ]
Beginning LAMARCKIAN GENETIC ALGORITHM (LGA), with a maximum of 25000000 energy evaluations.

Final-Value: -8.265


	FINAL GENETIC ALGORITHM DOCKED STATE
	_______________________________________________


Detailed state:  trans -12.814 6.491 6.874 quatxyzw -0.257958 -0.856755 -0.282015 0.346261 center 0.015 0.083 0.031 ntor 6 4.9742 27.9038 -112.9670 -29.0348 -38.6069 -180.0000
State:	-12.814   6.491   6.874  -0.275 -0.913 -0.301 139.482      4.97   27.90 -112.97  -29.03  -38.61 -180.00

DOCKED: MODEL       84
DOCKED: USER    Run = 84
DOCKED: USER    DPF = D:/Protein_go_brrr/autodock/final/mut_Y35F/2_3_BPG/dock.dpf
DOCKED: USER  
DOCKED: USER    Estimated Free Energy of Binding    =   -8.88 kcal/mol  [=(1)+(2)+(3)-(4)]
DOCKED: USER    Estimated Inhibition Constant, Ki   =  308.49 nM (nanomolar)  [Temperature = 298.15 K]
DOCKED: USER    
DOCKED: USER    (1) Final Intermolecular Energy     =  -10.67 kcal/mol
DOCKED: USER        vdW + Hbond + desolv Energy     =   -3.59 kcal/mol
DOCKED: USER        Electrostatic Energy            =   -7.08 kcal/mol
DOCKED: USER    (2) Final Total Internal Energy     =   +2.41 kcal/mol
DOCKED: USER    (3) Torsional Free Energy           =   +1.79 kcal/mol
DOCKED: USER    (4) Unbound System's Energy  [=(2)] =   +2.41 kcal/mol
DOCKED: USER    
DOCKED: USER    
DOCKED: USER    NEWDPF move 2_3_BPG_opt.pdbqt
DOCKED: USER    NEWDPF about 0.015000 0.083000 0.031000
DOCKED: USER    NEWDPF tran0 -12.814192 6.491269 6.873764
DOCKED: USER    NEWDPF quaternion0 -0.257958 -0.856755 -0.282015 0.346261
DOCKED: USER    NEWDPF axisangle0 -0.274968 -0.913250 -0.300611 139.482399
DOCKED: USER    NEWDPF quat0 -0.274968 -0.913250 -0.300611 139.482399
DOCKED: USER    NEWDPF dihe0 4.97 27.90 -112.97 -29.03 -38.61 -180.00 
DOCKED: USER  keepresnum = 1 
DOCKED: USER  
DOCKED: REMARK  6 active torsions:
DOCKED: REMARK  status: ('A' for Active; 'I' for Inactive)
DOCKED: REMARK    1  A    between atoms: P_1  and  O_3 
DOCKED: REMARK    2  A    between atoms: P_2  and  O_4 
DOCKED: REMARK    3  A    between atoms: O_3  and  C_13 
DOCKED: REMARK    4  A    between atoms: O_4  and  C_14 
DOCKED: REMARK    5  A    between atoms: C_13  and  C_14 
DOCKED: REMARK    6  A    between atoms: C_13  and  C_15 
DOCKED: USER                              x       y       z     vdW  Elec       q    Type
DOCKED: USER                           _______ _______ _______ _____ _____    ______ ____
DOCKED: ROOT
DOCKED: ATOM      1  C   UNL d   1     -12.455   5.925   6.874 -0.23 +0.22    +0.193 C 
DOCKED: ENDROOT
DOCKED: BRANCH   1   2
DOCKED: ATOM      2  O   UNL d   1     -12.075   5.625   8.259 -0.14 -0.63    -0.356 OA
DOCKED: BRANCH   2   3
DOCKED: ATOM      3  P   UNL d   1     -10.849   4.604   8.657 -0.40 -0.02    -0.014 P 
DOCKED: ATOM      4  O   UNL d   1     -11.194   4.126  10.076 -0.03 -1.21    -0.577 OA
DOCKED: ATOM      5  O   UNL d   1      -9.557   5.418   8.637 -0.09 -0.51    -0.577 OA
DOCKED: ATOM      6  O   UNL d   1     -10.855   3.449   7.661 -0.63 -1.14    -0.638 OA
DOCKED: ENDBRANCH   2   3
DOCKED: ENDBRANCH   1   2
DOCKED: BRANCH   1   7
DOCKED: ATOM      7  C   UNL d   1     -13.531   7.073   6.883 -0.11 +0.17    +0.201 C 
DOCKED: BRANCH   7   8
DOCKED: ATOM      8  O   UNL d   1     -14.243   7.259   8.126 -0.09 -0.43    -0.364 OA
DOCKED: BRANCH   8   9
DOCKED: ATOM      9  P   UNL d   1     -14.679   8.779   8.613 +0.03 -0.02    -0.015 P 
DOCKED: ATOM     10  O   UNL d   1     -15.769   9.216   7.627 +0.01 -0.29    -0.577 OA
DOCKED: ATOM     11  O   UNL d   1     -13.431   9.656   8.509 -0.52 -1.01    -0.577 OA
DOCKED: ATOM     12  O   UNL d   1     -15.210   8.661  10.041 -0.08 -0.91    -0.638 OA
DOCKED: ENDBRANCH   8   9
DOCKED: ENDBRANCH   7   8
DOCKED: ENDBRANCH   1   7
DOCKED: BRANCH   1  13
DOCKED: ATOM     13  C   UNL d   1     -13.084   4.650   6.198 -0.27 +0.09    +0.073 C 
DOCKED: ATOM     14  O   UNL d   1     -14.124   4.126   6.731 -0.38 -0.94    -0.547 OA
DOCKED: ATOM     15  O   UNL d   1     -12.546   4.245   5.105 -0.65 -0.45    -0.547 OA
DOCKED: ENDBRANCH   1  13
DOCKED: TORSDOF 6
DOCKED: TER
DOCKED: ENDMDL
________________________________________________________________________________


	BEGINNING GENETIC ALGORITHM DOCKING 85 of 100
Run: 85 Seed: 1600897317 1899761540 [ Run 85 of 100 GA/GALS ]
Beginning LAMARCKIAN GENETIC ALGORITHM (LGA), with a maximum of 25000000 energy evaluations.

Final-Value: -8.595


	FINAL GENETIC ALGORITHM DOCKED STATE
	_______________________________________________


Detailed state:  trans -13.188 5.276 12.205 quatxyzw -0.551553 -0.522130 -0.645746 0.078621 center 0.015 0.083 0.031 ntor 6 170.5008 138.0279 28.3134 21.8330 -74.1970 -31.0640
State:	-13.188   5.276  12.205  -0.553 -0.524 -0.648 170.981    170.50  138.03   28.31   21.83  -74.20  -31.06

DOCKED: MODEL       85
DOCKED: USER    Run = 85
DOCKED: USER    DPF = D:/Protein_go_brrr/autodock/final/mut_Y35F/2_3_BPG/dock.dpf
DOCKED: USER  
DOCKED: USER    Estimated Free Energy of Binding    =   -8.92 kcal/mol  [=(1)+(2)+(3)-(4)]
DOCKED: USER    Estimated Inhibition Constant, Ki   =  288.72 nM (nanomolar)  [Temperature = 298.15 K]
DOCKED: USER    
DOCKED: USER    (1) Final Intermolecular Energy     =  -10.71 kcal/mol
DOCKED: USER        vdW + Hbond + desolv Energy     =   -3.74 kcal/mol
DOCKED: USER        Electrostatic Energy            =   -6.97 kcal/mol
DOCKED: USER    (2) Final Total Internal Energy     =   +2.12 kcal/mol
DOCKED: USER    (3) Torsional Free Energy           =   +1.79 kcal/mol
DOCKED: USER    (4) Unbound System's Energy  [=(2)] =   +2.12 kcal/mol
DOCKED: USER    
DOCKED: USER    
DOCKED: USER    NEWDPF move 2_3_BPG_opt.pdbqt
DOCKED: USER    NEWDPF about 0.015000 0.083000 0.031000
DOCKED: USER    NEWDPF tran0 -13.187559 5.276293 12.205139
DOCKED: USER    NEWDPF quaternion0 -0.551553 -0.522130 -0.645746 0.078621
DOCKED: USER    NEWDPF axisangle0 -0.553266 -0.523751 -0.647751 170.981409
DOCKED: USER    NEWDPF quat0 -0.553266 -0.523751 -0.647751 170.981409
DOCKED: USER    NEWDPF dihe0 170.50 138.03 28.31 21.83 -74.20 -31.06 
DOCKED: USER  keepresnum = 1 
DOCKED: USER  
DOCKED: REMARK  6 active torsions:
DOCKED: REMARK  status: ('A' for Active; 'I' for Inactive)
DOCKED: REMARK    1  A    between atoms: P_1  and  O_3 
DOCKED: REMARK    2  A    between atoms: P_2  and  O_4 
DOCKED: REMARK    3  A    between atoms: O_3  and  C_13 
DOCKED: REMARK    4  A    between atoms: O_4  and  C_14 
DOCKED: REMARK    5  A    between atoms: C_13  and  C_14 
DOCKED: REMARK    6  A    between atoms: C_13  and  C_15 
DOCKED: USER                              x       y       z     vdW  Elec       q    Type
DOCKED: USER                           _______ _______ _______ _____ _____    ______ ____
DOCKED: ROOT
DOCKED: ATOM      1  C   UNL d   1     -13.039   5.072  11.584 -0.01 +0.33    +0.193 C 
DOCKED: ENDROOT
DOCKED: BRANCH   1   2
DOCKED: ATOM      2  O   UNL d   1     -12.774   3.630  11.628 -0.69 -0.70    -0.356 OA
DOCKED: BRANCH   2   3
DOCKED: ATOM      3  P   UNL d   1     -11.280   2.980  11.401 -0.64 -0.02    -0.014 P 
DOCKED: ATOM      4  O   UNL d   1     -10.730   3.708  10.164 -0.21 -0.99    -0.577 OA
DOCKED: ATOM      5  O   UNL d   1     -11.472   1.488  11.135 -0.42 -0.69    -0.577 OA
DOCKED: ATOM      6  O   UNL d   1     -10.444   3.273  12.642 -0.66 -0.63    -0.638 OA
DOCKED: ENDBRANCH   2   3
DOCKED: ENDBRANCH   1   2
DOCKED: BRANCH   1   7
DOCKED: ATOM      7  C   UNL d   1     -13.667   5.512  12.958 -0.14 +0.20    +0.201 C 
DOCKED: BRANCH   7   8
DOCKED: ATOM      8  O   UNL d   1     -13.032   6.634  13.611 -0.14 -0.39    -0.364 OA
DOCKED: BRANCH   8   9
DOCKED: ATOM      9  P   UNL d   1     -13.801   8.097  13.682 -0.04 -0.02    -0.015 P 
DOCKED: ATOM     10  O   UNL d   1     -12.676   9.139  13.682 -0.22 -0.84    -0.577 OA
DOCKED: ATOM     11  O   UNL d   1     -14.599   8.118  14.985 +0.01 -0.28    -0.577 OA
DOCKED: ATOM     12  O   UNL d   1     -14.682   8.204  12.438 -0.49 -1.09    -0.638 OA
DOCKED: ENDBRANCH   8   9
DOCKED: ENDBRANCH   7   8
DOCKED: ENDBRANCH   1   7
DOCKED: BRANCH   1  13
DOCKED: ATOM     13  C   UNL d   1     -14.065   5.397  10.434 -0.08 +0.14    +0.073 C 
DOCKED: ATOM     14  O   UNL d   1     -13.832   6.401   9.673 +0.07 -1.03    -0.547 OA
DOCKED: ATOM     15  O   UNL d   1     -15.051   4.588  10.288 -0.06 -0.95    -0.547 OA
DOCKED: ENDBRANCH   1  13
DOCKED: TORSDOF 6
DOCKED: TER
DOCKED: ENDMDL
________________________________________________________________________________


	BEGINNING GENETIC ALGORITHM DOCKING 86 of 100
Run: 86 Seed: 556843074 407529034 [ Run 86 of 100 GA/GALS ]
Beginning LAMARCKIAN GENETIC ALGORITHM (LGA), with a maximum of 25000000 energy evaluations.

Final-Value: -8.707


	FINAL GENETIC ALGORITHM DOCKED STATE
	_______________________________________________


Detailed state:  trans -13.970 5.816 8.136 quatxyzw -0.689751 -0.251627 0.606911 0.304280 center 0.015 0.083 0.031 ntor 6 169.7397 -56.1375 -174.0768 -6.8961 42.4105 -70.5043
State:	-13.970   5.816   8.136  -0.724 -0.264  0.637 144.570    169.74  -56.14 -174.08   -6.90   42.41  -70.50

DOCKED: MODEL       86
DOCKED: USER    Run = 86
DOCKED: USER    DPF = D:/Protein_go_brrr/autodock/final/mut_Y35F/2_3_BPG/dock.dpf
DOCKED: USER  
DOCKED: USER    Estimated Free Energy of Binding    =   -9.09 kcal/mol  [=(1)+(2)+(3)-(4)]
DOCKED: USER    Estimated Inhibition Constant, Ki   =  216.79 nM (nanomolar)  [Temperature = 298.15 K]
DOCKED: USER    
DOCKED: USER    (1) Final Intermolecular Energy     =  -10.88 kcal/mol
DOCKED: USER        vdW + Hbond + desolv Energy     =   -3.82 kcal/mol
DOCKED: USER        Electrostatic Energy            =   -7.07 kcal/mol
DOCKED: USER    (2) Final Total Internal Energy     =   +2.17 kcal/mol
DOCKED: USER    (3) Torsional Free Energy           =   +1.79 kcal/mol
DOCKED: USER    (4) Unbound System's Energy  [=(2)] =   +2.17 kcal/mol
DOCKED: USER    
DOCKED: USER    
DOCKED: USER    NEWDPF move 2_3_BPG_opt.pdbqt
DOCKED: USER    NEWDPF about 0.015000 0.083000 0.031000
DOCKED: USER    NEWDPF tran0 -13.969921 5.815806 8.135575
DOCKED: USER    NEWDPF quaternion0 -0.689751 -0.251627 0.606911 0.304280
DOCKED: USER    NEWDPF axisangle0 -0.724086 -0.264152 0.637121 144.570266
DOCKED: USER    NEWDPF quat0 -0.724086 -0.264152 0.637121 144.570266
DOCKED: USER    NEWDPF dihe0 169.74 -56.14 -174.08 -6.90 42.41 -70.50 
DOCKED: USER  keepresnum = 1 
DOCKED: USER  
DOCKED: REMARK  6 active torsions:
DOCKED: REMARK  status: ('A' for Active; 'I' for Inactive)
DOCKED: REMARK    1  A    between atoms: P_1  and  O_3 
DOCKED: REMARK    2  A    between atoms: P_2  and  O_4 
DOCKED: REMARK    3  A    between atoms: O_3  and  C_13 
DOCKED: REMARK    4  A    between atoms: O_4  and  C_14 
DOCKED: REMARK    5  A    between atoms: C_13  and  C_14 
DOCKED: REMARK    6  A    between atoms: C_13  and  C_15 
DOCKED: USER                              x       y       z     vdW  Elec       q    Type
DOCKED: USER                           _______ _______ _______ _____ _____    ______ ____
DOCKED: ROOT
DOCKED: ATOM      1  C   UNL d   1     -14.337   5.976   8.673 -0.13 +0.30    +0.193 C 
DOCKED: ENDROOT
DOCKED: BRANCH   1   2
DOCKED: ATOM      2  O   UNL d   1     -13.469   5.917   9.854 +0.03 -0.74    -0.356 OA
DOCKED: BRANCH   2   3
DOCKED: ATOM      3  P   UNL d   1     -13.950   5.291  11.297 -0.22 -0.02    -0.014 P 
DOCKED: ATOM      4  O   UNL d   1     -12.978   4.129  11.554 -0.66 -1.14    -0.577 OA
DOCKED: ATOM      5  O   UNL d   1     -15.384   4.796  11.121 -0.08 -0.66    -0.577 OA
DOCKED: ATOM      6  O   UNL d   1     -13.809   6.382  12.354 -0.18 -0.96    -0.638 OA
DOCKED: ENDBRANCH   2   3
DOCKED: ENDBRANCH   1   2
DOCKED: BRANCH   1   7
DOCKED: ATOM      7  C   UNL d   1     -13.441   5.891   7.383 -0.16 +0.27    +0.201 C 
DOCKED: BRANCH   7   8
DOCKED: ATOM      8  O   UNL d   1     -13.168   4.561   6.891 -0.26 -0.67    -0.364 OA
DOCKED: BRANCH   8   9
DOCKED: ATOM      9  P   UNL d   1     -11.632   4.141   6.443 -0.56 -0.02    -0.015 P 
DOCKED: ATOM     10  O   UNL d   1     -10.753   5.320   6.877 -0.12 -0.55    -0.577 OA
DOCKED: ATOM     11  O   UNL d   1     -11.642   3.965   4.925 -0.55 -0.46    -0.577 OA
DOCKED: ATOM     12  O   UNL d   1     -11.279   2.856   7.192 -0.56 -1.23    -0.638 OA
DOCKED: ENDBRANCH   8   9
DOCKED: ENDBRANCH   7   8
DOCKED: ENDBRANCH   1   7
DOCKED: BRANCH   1  13
DOCKED: ATOM     13  C   UNL d   1     -15.126   7.339   8.651 -0.09 +0.08    +0.073 C 
DOCKED: ATOM     14  O   UNL d   1     -16.371   7.320   8.351 +0.02 -0.33    -0.547 OA
DOCKED: ATOM     15  O   UNL d   1     -14.479   8.391   9.000 -0.30 -0.92    -0.547 OA
DOCKED: ENDBRANCH   1  13
DOCKED: TORSDOF 6
DOCKED: TER
DOCKED: ENDMDL
________________________________________________________________________________


	BEGINNING GENETIC ALGORITHM DOCKING 87 of 100
Run: 87 Seed: 2061090398 638638143 [ Run 87 of 100 GA/GALS ]
Beginning LAMARCKIAN GENETIC ALGORITHM (LGA), with a maximum of 25000000 energy evaluations.

Final-Value: -8.265


	FINAL GENETIC ALGORITHM DOCKED STATE
	_______________________________________________


Detailed state:  trans -13.881 5.341 11.263 quatxyzw -0.792556 0.108691 -0.445578 -0.401873 center 0.015 0.083 0.031 ntor 6 164.6876 -169.6637 162.1515 35.9229 24.0759 -29.2579
State:	-13.881   5.341  11.263  -0.866  0.119 -0.487 -132.609    164.69 -169.66  162.15   35.92   24.08  -29.26

DOCKED: MODEL       87
DOCKED: USER    Run = 87
DOCKED: USER    DPF = D:/Protein_go_brrr/autodock/final/mut_Y35F/2_3_BPG/dock.dpf
DOCKED: USER  
DOCKED: USER    Estimated Free Energy of Binding    =   -8.52 kcal/mol  [=(1)+(2)+(3)-(4)]
DOCKED: USER    Estimated Inhibition Constant, Ki   =  566.93 nM (nanomolar)  [Temperature = 298.15 K]
DOCKED: USER    
DOCKED: USER    (1) Final Intermolecular Energy     =  -10.31 kcal/mol
DOCKED: USER        vdW + Hbond + desolv Energy     =   -3.98 kcal/mol
DOCKED: USER        Electrostatic Energy            =   -6.33 kcal/mol
DOCKED: USER    (2) Final Total Internal Energy     =   +2.05 kcal/mol
DOCKED: USER    (3) Torsional Free Energy           =   +1.79 kcal/mol
DOCKED: USER    (4) Unbound System's Energy  [=(2)] =   +2.05 kcal/mol
DOCKED: USER    
DOCKED: USER    
DOCKED: USER    NEWDPF move 2_3_BPG_opt.pdbqt
DOCKED: USER    NEWDPF about 0.015000 0.083000 0.031000
DOCKED: USER    NEWDPF tran0 -13.880539 5.340504 11.262756
DOCKED: USER    NEWDPF quaternion0 -0.792556 0.108691 -0.445578 -0.401873
DOCKED: USER    NEWDPF axisangle0 -0.865523 0.118698 -0.486601 -132.609308
DOCKED: USER    NEWDPF quat0 -0.865523 0.118698 -0.486601 -132.609308
DOCKED: USER    NEWDPF dihe0 164.69 -169.66 162.15 35.92 24.08 -29.26 
DOCKED: USER  keepresnum = 1 
DOCKED: USER  
DOCKED: REMARK  6 active torsions:
DOCKED: REMARK  status: ('A' for Active; 'I' for Inactive)
DOCKED: REMARK    1  A    between atoms: P_1  and  O_3 
DOCKED: REMARK    2  A    between atoms: P_2  and  O_4 
DOCKED: REMARK    3  A    between atoms: O_3  and  C_13 
DOCKED: REMARK    4  A    between atoms: O_4  and  C_14 
DOCKED: REMARK    5  A    between atoms: C_13  and  C_14 
DOCKED: REMARK    6  A    between atoms: C_13  and  C_15 
DOCKED: USER                              x       y       z     vdW  Elec       q    Type
DOCKED: USER                           _______ _______ _______ _____ _____    ______ ____
DOCKED: ROOT
DOCKED: ATOM      1  C   UNL d   1     -14.204   5.905  11.103 -0.10 +0.31    +0.193 C 
DOCKED: ENDROOT
DOCKED: BRANCH   1   2
DOCKED: ATOM      2  O   UNL d   1     -15.174   5.594  10.047 -0.11 -0.48    -0.356 OA
DOCKED: BRANCH   2   3
DOCKED: ATOM      3  P   UNL d   1     -14.872   5.822   8.447 -0.20 -0.02    -0.014 P 
DOCKED: ATOM      4  O   UNL d   1     -13.393   6.234   8.392 -0.02 -0.94    -0.577 OA
DOCKED: ATOM      5  O   UNL d   1     -15.787   6.947   7.970 +0.02 -0.42    -0.577 OA
DOCKED: ATOM      6  O   UNL d   1     -15.111   4.498   7.729 -0.52 -1.14    -0.638 OA
DOCKED: ENDBRANCH   2   3
DOCKED: ENDBRANCH   1   2
DOCKED: BRANCH   1   7
DOCKED: ATOM      7  C   UNL d   1     -13.647   4.557  11.691 -0.11 +0.33    +0.201 C 
DOCKED: BRANCH   7   8
DOCKED: ATOM      8  O   UNL d   1     -12.209   4.456  11.785 -0.54 -0.57    -0.364 OA
DOCKED: BRANCH   8   9
DOCKED: ATOM      9  P   UNL d   1     -11.475   2.975  11.727 -0.67 -0.02    -0.015 P 
DOCKED: ATOM     10  O   UNL d   1     -12.600   1.963  11.974 -0.16 -0.63    -0.577 OA
DOCKED: ATOM     11  O   UNL d   1     -10.430   2.951  12.843 -0.72 -0.49    -0.577 OA
DOCKED: ATOM     12  O   UNL d   1     -10.866   2.827  10.334 -0.17 -1.10    -0.638 OA
DOCKED: ENDBRANCH   8   9
DOCKED: ENDBRANCH   7   8
DOCKED: ENDBRANCH   1   7
DOCKED: BRANCH   1  13
DOCKED: ATOM     13  C   UNL d   1     -14.906   6.709  12.261 -0.11 +0.08    +0.073 C 
DOCKED: ATOM     14  O   UNL d   1     -14.257   7.657  12.828 -0.60 -0.90    -0.547 OA
DOCKED: ATOM     15  O   UNL d   1     -16.124   6.403  12.527 +0.01 -0.35    -0.547 OA
DOCKED: ENDBRANCH   1  13
DOCKED: TORSDOF 6
DOCKED: TER
DOCKED: ENDMDL
________________________________________________________________________________


	BEGINNING GENETIC ALGORITHM DOCKING 88 of 100
Run: 88 Seed: 46864187 115070700 [ Run 88 of 100 GA/GALS ]
Beginning LAMARCKIAN GENETIC ALGORITHM (LGA), with a maximum of 25000000 energy evaluations.

Final-Value: -8.253


	FINAL GENETIC ALGORITHM DOCKED STATE
	_______________________________________________


Detailed state:  trans -13.810 5.794 8.799 quatxyzw -0.457949 -0.121186 -0.880611 0.010995 center 0.015 0.083 0.031 ntor 6 -15.3047 164.9582 -153.6652 -1.9775 73.4011 3.7164
State:	-13.810   5.794   8.799  -0.458 -0.121 -0.881 178.740    -15.30  164.96 -153.67   -1.98   73.40    3.72

DOCKED: MODEL       88
DOCKED: USER    Run = 88
DOCKED: USER    DPF = D:/Protein_go_brrr/autodock/final/mut_Y35F/2_3_BPG/dock.dpf
DOCKED: USER  
DOCKED: USER    Estimated Free Energy of Binding    =   -8.63 kcal/mol  [=(1)+(2)+(3)-(4)]
DOCKED: USER    Estimated Inhibition Constant, Ki   =  472.23 nM (nanomolar)  [Temperature = 298.15 K]
DOCKED: USER    
DOCKED: USER    (1) Final Intermolecular Energy     =  -10.42 kcal/mol
DOCKED: USER        vdW + Hbond + desolv Energy     =   -3.84 kcal/mol
DOCKED: USER        Electrostatic Energy            =   -6.58 kcal/mol
DOCKED: USER    (2) Final Total Internal Energy     =   +2.17 kcal/mol
DOCKED: USER    (3) Torsional Free Energy           =   +1.79 kcal/mol
DOCKED: USER    (4) Unbound System's Energy  [=(2)] =   +2.17 kcal/mol
DOCKED: USER    
DOCKED: USER    
DOCKED: USER    NEWDPF move 2_3_BPG_opt.pdbqt
DOCKED: USER    NEWDPF about 0.015000 0.083000 0.031000
DOCKED: USER    NEWDPF tran0 -13.809595 5.794161 8.799201
DOCKED: USER    NEWDPF quaternion0 -0.457949 -0.121186 -0.880611 0.010995
DOCKED: USER    NEWDPF axisangle0 -0.457977 -0.121193 -0.880664 178.740035
DOCKED: USER    NEWDPF quat0 -0.457977 -0.121193 -0.880664 178.740035
DOCKED: USER    NEWDPF dihe0 -15.30 164.96 -153.67 -1.98 73.40 3.72 
DOCKED: USER  keepresnum = 1 
DOCKED: USER  
DOCKED: REMARK  6 active torsions:
DOCKED: REMARK  status: ('A' for Active; 'I' for Inactive)
DOCKED: REMARK    1  A    between atoms: P_1  and  O_3 
DOCKED: REMARK    2  A    between atoms: P_2  and  O_4 
DOCKED: REMARK    3  A    between atoms: O_3  and  C_13 
DOCKED: REMARK    4  A    between atoms: O_4  and  C_14 
DOCKED: REMARK    5  A    between atoms: C_13  and  C_14 
DOCKED: REMARK    6  A    between atoms: C_13  and  C_15 
DOCKED: USER                              x       y       z     vdW  Elec       q    Type
DOCKED: USER                           _______ _______ _______ _____ _____    ______ ____
DOCKED: ROOT
DOCKED: ATOM      1  C   UNL d   1     -13.423   6.039   8.310 -0.12 +0.32    +0.193 C 
DOCKED: ENDROOT
DOCKED: BRANCH   1   2
DOCKED: ATOM      2  O   UNL d   1     -13.261   4.997   7.290 -0.24 -0.67    -0.356 OA
DOCKED: BRANCH   2   3
DOCKED: ATOM      3  P   UNL d   1     -11.813   4.618   6.608 -0.49 -0.02    -0.014 P 
DOCKED: ATOM      4  O   UNL d   1     -10.926   5.842   6.888 -0.06 -0.54    -0.577 OA
DOCKED: ATOM      5  O   UNL d   1     -12.052   4.428   5.112 -0.58 -0.51    -0.577 OA
DOCKED: ATOM      6  O   UNL d   1     -11.278   3.369   7.302 -0.57 -1.30    -0.638 OA
DOCKED: ENDBRANCH   2   3
DOCKED: ENDBRANCH   1   2
DOCKED: BRANCH   1   7
DOCKED: ATOM      7  C   UNL d   1     -14.551   5.594   9.312 -0.04 +0.35    +0.201 C 
DOCKED: BRANCH   7   8
DOCKED: ATOM      8  O   UNL d   1     -14.588   6.298  10.573 -0.10 -0.56    -0.364 OA
DOCKED: BRANCH   8   9
DOCKED: ATOM      9  P   UNL d   1     -14.010   5.576  11.944 -0.24 -0.02    -0.015 P 
DOCKED: ATOM     10  O   UNL d   1     -12.926   4.606  11.457 -0.63 -1.11    -0.577 OA
DOCKED: ATOM     11  O   UNL d   1     -15.185   4.842  12.590 -0.02 -0.44    -0.577 OA
DOCKED: ATOM     12  O   UNL d   1     -13.436   6.681  12.829 -0.27 -0.97    -0.638 OA
DOCKED: ENDBRANCH   8   9
DOCKED: ENDBRANCH   7   8
DOCKED: ENDBRANCH   1   7
DOCKED: BRANCH   1  13
DOCKED: ATOM     13  C   UNL d   1     -13.855   7.394   7.634 -0.12 +0.08    +0.073 C 
DOCKED: ATOM     14  O   UNL d   1     -14.680   7.352   6.654 +0.03 -0.35    -0.547 OA
DOCKED: ATOM     15  O   UNL d   1     -13.398   8.476   8.152 -0.39 -0.85    -0.547 OA
DOCKED: ENDBRANCH   1  13
DOCKED: TORSDOF 6
DOCKED: TER
DOCKED: ENDMDL
________________________________________________________________________________


	BEGINNING GENETIC ALGORITHM DOCKING 89 of 100
Run: 89 Seed: 1359231886 644939964 [ Run 89 of 100 GA/GALS ]
Beginning LAMARCKIAN GENETIC ALGORITHM (LGA), with a maximum of 25000000 energy evaluations.

Final-Value: -8.493


	FINAL GENETIC ALGORITHM DOCKED STATE
	_______________________________________________


Detailed state:  trans -12.885 6.216 8.052 quatxyzw -0.473133 0.119647 -0.872105 0.035538 center 0.015 0.083 0.031 ntor 6 63.1988 -105.5315 -130.6790 91.5092 45.5606 29.7842
State:	-12.885   6.216   8.052  -0.473  0.120 -0.873 175.927     63.20 -105.53 -130.68   91.51   45.56   29.78

DOCKED: MODEL       89
DOCKED: USER    Run = 89
DOCKED: USER    DPF = D:/Protein_go_brrr/autodock/final/mut_Y35F/2_3_BPG/dock.dpf
DOCKED: USER  
DOCKED: USER    Estimated Free Energy of Binding    =   -8.94 kcal/mol  [=(1)+(2)+(3)-(4)]
DOCKED: USER    Estimated Inhibition Constant, Ki   =  279.94 nM (nanomolar)  [Temperature = 298.15 K]
DOCKED: USER    
DOCKED: USER    (1) Final Intermolecular Energy     =  -10.73 kcal/mol
DOCKED: USER        vdW + Hbond + desolv Energy     =   -3.85 kcal/mol
DOCKED: USER        Electrostatic Energy            =   -6.88 kcal/mol
DOCKED: USER    (2) Final Total Internal Energy     =   +2.24 kcal/mol
DOCKED: USER    (3) Torsional Free Energy           =   +1.79 kcal/mol
DOCKED: USER    (4) Unbound System's Energy  [=(2)] =   +2.24 kcal/mol
DOCKED: USER    
DOCKED: USER    
DOCKED: USER    NEWDPF move 2_3_BPG_opt.pdbqt
DOCKED: USER    NEWDPF about 0.015000 0.083000 0.031000
DOCKED: USER    NEWDPF tran0 -12.885284 6.216007 8.051943
DOCKED: USER    NEWDPF quaternion0 -0.473133 0.119647 -0.872105 0.035538
DOCKED: USER    NEWDPF axisangle0 -0.473432 0.119723 -0.872656 175.926842
DOCKED: USER    NEWDPF quat0 -0.473432 0.119723 -0.872656 175.926842
DOCKED: USER    NEWDPF dihe0 63.20 -105.53 -130.68 91.51 45.56 29.78 
DOCKED: USER  keepresnum = 1 
DOCKED: USER  
DOCKED: REMARK  6 active torsions:
DOCKED: REMARK  status: ('A' for Active; 'I' for Inactive)
DOCKED: REMARK    1  A    between atoms: P_1  and  O_3 
DOCKED: REMARK    2  A    between atoms: P_2  and  O_4 
DOCKED: REMARK    3  A    between atoms: O_3  and  C_13 
DOCKED: REMARK    4  A    between atoms: O_4  and  C_14 
DOCKED: REMARK    5  A    between atoms: C_13  and  C_14 
DOCKED: REMARK    6  A    between atoms: C_13  and  C_15 
DOCKED: USER                              x       y       z     vdW  Elec       q    Type
DOCKED: USER                           _______ _______ _______ _____ _____    ______ ____
DOCKED: ROOT
DOCKED: ATOM      1  C   UNL d   1     -12.433   6.526   7.667 -0.17 +0.25    +0.193 C 
DOCKED: ENDROOT
DOCKED: BRANCH   1   2
DOCKED: ATOM      2  O   UNL d   1     -12.520   5.962   6.315 -0.17 -0.33    -0.356 OA
DOCKED: BRANCH   2   3
DOCKED: ATOM      3  P   UNL d   1     -12.722   4.358   6.017 -0.43 -0.02    -0.014 P 
DOCKED: ATOM      4  O   UNL d   1     -14.165   4.065   6.457 -0.38 -0.78    -0.577 OA
DOCKED: ATOM      5  O   UNL d   1     -11.709   3.606   6.879 -0.48 -1.06    -0.577 OA
DOCKED: ATOM      6  O   UNL d   1     -12.536   4.129   4.521 -0.56 -0.47    -0.638 OA
DOCKED: ENDBRANCH   2   3
DOCKED: ENDBRANCH   1   2
DOCKED: BRANCH   1   7
DOCKED: ATOM      7  C   UNL d   1     -13.669   6.027   8.503 -0.10 +0.34    +0.201 C 
DOCKED: BRANCH   7   8
DOCKED: ATOM      8  O   UNL d   1     -13.851   6.653   9.792 +0.15 -0.71    -0.364 OA
DOCKED: BRANCH   8   9
DOCKED: ATOM      9  P   UNL d   1     -14.112   5.723  11.135 -0.16 -0.02    -0.015 P 
DOCKED: ATOM     10  O   UNL d   1     -12.982   4.687  11.129 -0.57 -1.29    -0.577 OA
DOCKED: ATOM     11  O   UNL d   1     -15.485   5.073  10.968 -0.05 -0.64    -0.577 OA
DOCKED: ATOM     12  O   UNL d   1     -14.034   6.650  12.348 -0.29 -0.99    -0.638 OA
DOCKED: ENDBRANCH   8   9
DOCKED: ENDBRANCH   7   8
DOCKED: ENDBRANCH   1   7
DOCKED: BRANCH   1  13
DOCKED: ATOM     13  C   UNL d   1     -12.470   8.098   7.599 -0.11 +0.08    +0.073 C 
DOCKED: ATOM     14  O   UNL d   1     -13.449   8.711   8.154 -0.45 -0.84    -0.547 OA
DOCKED: ATOM     15  O   UNL d   1     -11.472   8.681   7.040 -0.07 -0.40    -0.547 OA
DOCKED: ENDBRANCH   1  13
DOCKED: TORSDOF 6
DOCKED: TER
DOCKED: ENDMDL
________________________________________________________________________________


	BEGINNING GENETIC ALGORITHM DOCKING 90 of 100
Run: 90 Seed: 211022802 734623559 [ Run 90 of 100 GA/GALS ]
Beginning LAMARCKIAN GENETIC ALGORITHM (LGA), with a maximum of 25000000 energy evaluations.

Final-Value: -8.579


	FINAL GENETIC ALGORITHM DOCKED STATE
	_______________________________________________


Detailed state:  trans -13.035 6.621 7.962 quatxyzw -0.429033 0.146318 -0.870921 0.189786 center 0.015 0.083 0.031 ntor 6 -91.4467 -102.4482 -46.0244 67.2536 -70.0032 -79.7317
State:	-13.035   6.621   7.962  -0.437  0.149 -0.887 158.119    -91.45 -102.45  -46.02   67.25  -70.00  -79.73

DOCKED: MODEL       90
DOCKED: USER    Run = 90
DOCKED: USER    DPF = D:/Protein_go_brrr/autodock/final/mut_Y35F/2_3_BPG/dock.dpf
DOCKED: USER  
DOCKED: USER    Estimated Free Energy of Binding    =   -9.16 kcal/mol  [=(1)+(2)+(3)-(4)]
DOCKED: USER    Estimated Inhibition Constant, Ki   =  192.23 nM (nanomolar)  [Temperature = 298.15 K]
DOCKED: USER    
DOCKED: USER    (1) Final Intermolecular Energy     =  -10.95 kcal/mol
DOCKED: USER        vdW + Hbond + desolv Energy     =   -3.64 kcal/mol
DOCKED: USER        Electrostatic Energy            =   -7.31 kcal/mol
DOCKED: USER    (2) Final Total Internal Energy     =   +2.37 kcal/mol
DOCKED: USER    (3) Torsional Free Energy           =   +1.79 kcal/mol
DOCKED: USER    (4) Unbound System's Energy  [=(2)] =   +2.37 kcal/mol
DOCKED: USER    
DOCKED: USER    
DOCKED: USER    NEWDPF move 2_3_BPG_opt.pdbqt
DOCKED: USER    NEWDPF about 0.015000 0.083000 0.031000
DOCKED: USER    NEWDPF tran0 -13.034831 6.621278 7.962131
DOCKED: USER    NEWDPF quaternion0 -0.429033 0.146318 -0.870921 0.189786
DOCKED: USER    NEWDPF axisangle0 -0.436975 0.149026 -0.887042 158.119431
DOCKED: USER    NEWDPF quat0 -0.436975 0.149026 -0.887042 158.119431
DOCKED: USER    NEWDPF dihe0 -91.45 -102.45 -46.02 67.25 -70.00 -79.73 
DOCKED: USER  keepresnum = 1 
DOCKED: USER  
DOCKED: REMARK  6 active torsions:
DOCKED: REMARK  status: ('A' for Active; 'I' for Inactive)
DOCKED: REMARK    1  A    between atoms: P_1  and  O_3 
DOCKED: REMARK    2  A    between atoms: P_2  and  O_4 
DOCKED: REMARK    3  A    between atoms: O_3  and  C_13 
DOCKED: REMARK    4  A    between atoms: O_4  and  C_14 
DOCKED: REMARK    5  A    between atoms: C_13  and  C_14 
DOCKED: REMARK    6  A    between atoms: C_13  and  C_15 
DOCKED: USER                              x       y       z     vdW  Elec       q    Type
DOCKED: USER                           _______ _______ _______ _____ _____    ______ ____
DOCKED: ROOT
DOCKED: ATOM      1  C   UNL d   1     -12.500   6.738   7.575 -0.15 +0.23    +0.193 C 
DOCKED: ENDROOT
DOCKED: BRANCH   1   2
DOCKED: ATOM      2  O   UNL d   1     -12.721   6.085   6.280 -0.15 -0.32    -0.356 OA
DOCKED: BRANCH   2   3
DOCKED: ATOM      3  P   UNL d   1     -12.832   4.455   6.098 -0.39 -0.02    -0.014 P 
DOCKED: ATOM      4  O   UNL d   1     -14.211   4.098   6.675 -0.38 -0.93    -0.577 OA
DOCKED: ATOM      5  O   UNL d   1     -11.703   3.831   6.915 -0.43 -1.05    -0.577 OA
DOCKED: ATOM      6  O   UNL d   1     -12.750   4.140   4.608 -0.56 -0.46    -0.638 OA
DOCKED: ENDBRANCH   2   3
DOCKED: ENDBRANCH   1   2
DOCKED: BRANCH   1   7
DOCKED: ATOM      7  C   UNL d   1     -13.849   6.725   8.384 -0.09 +0.29    +0.201 C 
DOCKED: BRANCH   7   8
DOCKED: ATOM      8  O   UNL d   1     -14.174   5.483   9.047 -0.13 -0.73    -0.364 OA
DOCKED: BRANCH   8   9
DOCKED: ATOM      9  P   UNL d   1     -14.193   5.404  10.699 -0.19 -0.03    -0.015 P 
DOCKED: ATOM     10  O   UNL d   1     -15.460   4.614  11.047 -0.08 -0.67    -0.577 OA
DOCKED: ATOM     11  O   UNL d   1     -14.258   6.842  11.213 +0.00 -1.11    -0.577 OA
DOCKED: ATOM     12  O   UNL d   1     -12.923   4.672  11.130 -0.53 -1.42    -0.638 OA
DOCKED: ENDBRANCH   8   9
DOCKED: ENDBRANCH   7   8
DOCKED: ENDBRANCH   1   7
DOCKED: BRANCH   1  13
DOCKED: ATOM     13  C   UNL d   1     -12.058   8.234   7.357 -0.21 +0.07    +0.073 C 
DOCKED: ATOM     14  O   UNL d   1     -11.277   8.504   6.378 -0.08 -0.30    -0.547 OA
DOCKED: ATOM     15  O   UNL d   1     -12.563   9.111   8.146 -0.28 -0.86    -0.547 OA
DOCKED: ENDBRANCH   1  13
DOCKED: TORSDOF 6
DOCKED: TER
DOCKED: ENDMDL
________________________________________________________________________________


	BEGINNING GENETIC ALGORITHM DOCKING 91 of 100
Run: 91 Seed: 1105093065 937398226 [ Run 91 of 100 GA/GALS ]
Beginning LAMARCKIAN GENETIC ALGORITHM (LGA), with a maximum of 25000000 energy evaluations.

Final-Value: -8.767


	FINAL GENETIC ALGORITHM DOCKED STATE
	_______________________________________________


Detailed state:  trans -13.765 4.689 12.816 quatxyzw -0.197116 0.211784 0.490455 0.822038 center 0.015 0.083 0.031 ntor 6 171.3496 -49.4673 58.2972 17.1713 -19.7347 109.7889
State:	-13.765   4.689  12.816  -0.346  0.372  0.861 69.421    171.35  -49.47   58.30   17.17  -19.73  109.79

DOCKED: MODEL       91
DOCKED: USER    Run = 91
DOCKED: USER    DPF = D:/Protein_go_brrr/autodock/final/mut_Y35F/2_3_BPG/dock.dpf
DOCKED: USER  
DOCKED: USER    Estimated Free Energy of Binding    =   -9.12 kcal/mol  [=(1)+(2)+(3)-(4)]
DOCKED: USER    Estimated Inhibition Constant, Ki   =  208.22 nM (nanomolar)  [Temperature = 298.15 K]
DOCKED: USER    
DOCKED: USER    (1) Final Intermolecular Energy     =  -10.90 kcal/mol
DOCKED: USER        vdW + Hbond + desolv Energy     =   -4.63 kcal/mol
DOCKED: USER        Electrostatic Energy            =   -6.28 kcal/mol
DOCKED: USER    (2) Final Total Internal Energy     =   +2.14 kcal/mol
DOCKED: USER    (3) Torsional Free Energy           =   +1.79 kcal/mol
DOCKED: USER    (4) Unbound System's Energy  [=(2)] =   +2.14 kcal/mol
DOCKED: USER    
DOCKED: USER    
DOCKED: USER    NEWDPF move 2_3_BPG_opt.pdbqt
DOCKED: USER    NEWDPF about 0.015000 0.083000 0.031000
DOCKED: USER    NEWDPF tran0 -13.765336 4.688642 12.816048
DOCKED: USER    NEWDPF quaternion0 -0.197116 0.211784 0.490455 0.822038
DOCKED: USER    NEWDPF axisangle0 -0.346161 0.371921 0.861305 69.421350
DOCKED: USER    NEWDPF quat0 -0.346161 0.371921 0.861305 69.421350
DOCKED: USER    NEWDPF dihe0 171.35 -49.47 58.30 17.17 -19.73 109.79 
DOCKED: USER  keepresnum = 1 
DOCKED: USER  
DOCKED: REMARK  6 active torsions:
DOCKED: REMARK  status: ('A' for Active; 'I' for Inactive)
DOCKED: REMARK    1  A    between atoms: P_1  and  O_3 
DOCKED: REMARK    2  A    between atoms: P_2  and  O_4 
DOCKED: REMARK    3  A    between atoms: O_3  and  C_13 
DOCKED: REMARK    4  A    between atoms: O_4  and  C_14 
DOCKED: REMARK    5  A    between atoms: C_13  and  C_14 
DOCKED: REMARK    6  A    between atoms: C_13  and  C_15 
DOCKED: USER                              x       y       z     vdW  Elec       q    Type
DOCKED: USER                           _______ _______ _______ _____ _____    ______ ____
DOCKED: ROOT
DOCKED: ATOM      1  C   UNL d   1     -14.293   5.062  12.637 -0.17 +0.18    +0.193 C 
DOCKED: ENDROOT
DOCKED: BRANCH   1   2
DOCKED: ATOM      2  O   UNL d   1     -13.818   6.423  12.363 -0.29 -0.54    -0.356 OA
DOCKED: BRANCH   2   3
DOCKED: ATOM      3  P   UNL d   1     -14.262   7.730  13.257 +0.05 -0.02    -0.014 P 
DOCKED: ATOM      4  O   UNL d   1     -12.932   8.375  13.678 -0.33 -0.86    -0.577 OA
DOCKED: ATOM      5  O   UNL d   1     -15.040   7.210  14.464 +0.01 -0.30    -0.577 OA
DOCKED: ATOM      6  O   UNL d   1     -15.076   8.659  12.362 -0.40 -0.86    -0.638 OA
DOCKED: ENDBRANCH   2   3
DOCKED: ENDBRANCH   1   2
DOCKED: BRANCH   1   7
DOCKED: ATOM      7  C   UNL d   1     -13.047   4.111  12.772 -0.26 +0.20    +0.201 C 
DOCKED: BRANCH   7   8
DOCKED: ATOM      8  O   UNL d   1     -12.603   3.476  11.553 -0.64 -0.73    -0.364 OA
DOCKED: BRANCH   8   9
DOCKED: ATOM      9  P   UNL d   1     -11.095   2.799  11.472 -0.67 -0.02    -0.015 P 
DOCKED: ATOM     10  O   UNL d   1     -10.376   3.562  10.352 -0.31 -0.83    -0.577 OA
DOCKED: ATOM     11  O   UNL d   1     -11.287   1.323  11.125 -0.64 -0.63    -0.577 OA
DOCKED: ATOM     12  O   UNL d   1     -10.430   3.014  12.830 -0.67 -0.56    -0.638 OA
DOCKED: ENDBRANCH   8   9
DOCKED: ENDBRANCH   7   8
DOCKED: ENDBRANCH   1   7
DOCKED: BRANCH   1  13
DOCKED: ATOM     13  C   UNL d   1     -15.188   4.553  11.446 -0.19 +0.08    +0.073 C 
DOCKED: ATOM     14  O   UNL d   1     -16.291   3.961  11.720 -0.06 -0.38    -0.547 OA
DOCKED: ATOM     15  O   UNL d   1     -14.785   4.822  10.258 -0.07 -1.01    -0.547 OA
DOCKED: ENDBRANCH   1  13
DOCKED: TORSDOF 6
DOCKED: TER
DOCKED: ENDMDL
________________________________________________________________________________


	BEGINNING GENETIC ALGORITHM DOCKING 92 of 100
Run: 92 Seed: 217889184 1850167151 [ Run 92 of 100 GA/GALS ]
Beginning LAMARCKIAN GENETIC ALGORITHM (LGA), with a maximum of 25000000 energy evaluations.

Final-Value: -8.658


	FINAL GENETIC ALGORITHM DOCKED STATE
	_______________________________________________


Detailed state:  trans -14.078 6.132 7.500 quatxyzw 0.713591 -0.031988 -0.675229 -0.183932 center 0.015 0.083 0.031 ntor 6 111.9681 -158.9914 5.8662 20.9896 35.4698 -136.0390
State:	-14.078   6.132   7.500   0.726 -0.033 -0.687 -158.802    111.97 -158.99    5.87   20.99   35.47 -136.04

DOCKED: MODEL       92
DOCKED: USER    Run = 92
DOCKED: USER    DPF = D:/Protein_go_brrr/autodock/final/mut_Y35F/2_3_BPG/dock.dpf
DOCKED: USER  
DOCKED: USER    Estimated Free Energy of Binding    =   -9.11 kcal/mol  [=(1)+(2)+(3)-(4)]
DOCKED: USER    Estimated Inhibition Constant, Ki   =  210.20 nM (nanomolar)  [Temperature = 298.15 K]
DOCKED: USER    
DOCKED: USER    (1) Final Intermolecular Energy     =  -10.90 kcal/mol
DOCKED: USER        vdW + Hbond + desolv Energy     =   -3.62 kcal/mol
DOCKED: USER        Electrostatic Energy            =   -7.28 kcal/mol
DOCKED: USER    (2) Final Total Internal Energy     =   +2.24 kcal/mol
DOCKED: USER    (3) Torsional Free Energy           =   +1.79 kcal/mol
DOCKED: USER    (4) Unbound System's Energy  [=(2)] =   +2.24 kcal/mol
DOCKED: USER    
DOCKED: USER    
DOCKED: USER    NEWDPF move 2_3_BPG_opt.pdbqt
DOCKED: USER    NEWDPF about 0.015000 0.083000 0.031000
DOCKED: USER    NEWDPF tran0 -14.078343 6.131676 7.499627
DOCKED: USER    NEWDPF quaternion0 0.713591 -0.031988 -0.675229 -0.183932
DOCKED: USER    NEWDPF axisangle0 0.725977 -0.032543 -0.686949 -158.802266
DOCKED: USER    NEWDPF quat0 0.725977 -0.032543 -0.686949 -158.802266
DOCKED: USER    NEWDPF dihe0 111.97 -158.99 5.87 20.99 35.47 -136.04 
DOCKED: USER  keepresnum = 1 
DOCKED: USER  
DOCKED: REMARK  6 active torsions:
DOCKED: REMARK  status: ('A' for Active; 'I' for Inactive)
DOCKED: REMARK    1  A    between atoms: P_1  and  O_3 
DOCKED: REMARK    2  A    between atoms: P_2  and  O_4 
DOCKED: REMARK    3  A    between atoms: O_3  and  C_13 
DOCKED: REMARK    4  A    between atoms: O_4  and  C_14 
DOCKED: REMARK    5  A    between atoms: C_13  and  C_14 
DOCKED: REMARK    6  A    between atoms: C_13  and  C_15 
DOCKED: USER                              x       y       z     vdW  Elec       q    Type
DOCKED: USER                           _______ _______ _______ _____ _____    ______ ____
DOCKED: ROOT
DOCKED: ATOM      1  C   UNL d   1     -14.283   6.574   7.960 -0.11 +0.23    +0.193 C 
DOCKED: ENDROOT
DOCKED: BRANCH   1   2
DOCKED: ATOM      2  O   UNL d   1     -13.584   6.281   9.217 +0.00 -0.66    -0.356 OA
DOCKED: BRANCH   2   3
DOCKED: ATOM      3  P   UNL d   1     -14.339   5.689  10.553 -0.20 -0.02    -0.014 P 
DOCKED: ATOM      4  O   UNL d   1     -15.678   5.149  10.028 -0.04 -0.68    -0.577 OA
DOCKED: ATOM      5  O   UNL d   1     -14.542   6.859  11.513 -0.16 -0.96    -0.577 OA
DOCKED: ATOM      6  O   UNL d   1     -13.472   4.574  11.128 -0.50 -1.42    -0.638 OA
DOCKED: ENDBRANCH   2   3
DOCKED: ENDBRANCH   1   2
DOCKED: BRANCH   1   7
DOCKED: ATOM      7  C   UNL d   1     -13.610   5.746   6.804 -0.15 +0.22    +0.201 C 
DOCKED: BRANCH   7   8
DOCKED: ATOM      8  O   UNL d   1     -12.894   4.559   7.212 +0.04 -0.81    -0.364 OA
DOCKED: BRANCH   8   9
DOCKED: ATOM      9  P   UNL d   1     -11.475   4.150   6.468 -0.59 -0.02    -0.015 P 
DOCKED: ATOM     10  O   UNL d   1     -11.128   2.758   7.010 -0.65 -0.90    -0.577 OA
DOCKED: ATOM     11  O   UNL d   1     -10.439   5.196   6.877 -0.11 -0.50    -0.577 OA
DOCKED: ATOM     12  O   UNL d   1     -11.743   4.129   4.964 -0.59 -0.53    -0.638 OA
DOCKED: ENDBRANCH   8   9
DOCKED: ENDBRANCH   7   8
DOCKED: ENDBRANCH   1   7
DOCKED: BRANCH   1  13
DOCKED: ATOM     13  C   UNL d   1     -14.162   8.106   7.620 -0.09 +0.07    +0.073 C 
DOCKED: ATOM     14  O   UNL d   1     -14.464   8.495   6.437 +0.02 -0.28    -0.547 OA
DOCKED: ATOM     15  O   UNL d   1     -13.824   8.891   8.578 -0.48 -1.02    -0.547 OA
DOCKED: ENDBRANCH   1  13
DOCKED: TORSDOF 6
DOCKED: TER
DOCKED: ENDMDL
________________________________________________________________________________


	BEGINNING GENETIC ALGORITHM DOCKING 93 of 100
Run: 93 Seed: 235137252 1173657130 [ Run 93 of 100 GA/GALS ]
Beginning LAMARCKIAN GENETIC ALGORITHM (LGA), with a maximum of 25000000 energy evaluations.

Final-Value: -8.544


	FINAL GENETIC ALGORITHM DOCKED STATE
	_______________________________________________


Detailed state:  trans -13.918 4.980 11.544 quatxyzw -0.263247 -0.469919 0.840419 -0.059769 center 0.015 0.083 0.031 ntor 6 -123.3252 -158.9994 -23.8138 21.9704 -13.4791 -164.7742
State:	-13.918   4.980  11.544  -0.264 -0.471  0.842 -173.147   -123.33 -159.00  -23.81   21.97  -13.48 -164.77

DOCKED: MODEL       93
DOCKED: USER    Run = 93
DOCKED: USER    DPF = D:/Protein_go_brrr/autodock/final/mut_Y35F/2_3_BPG/dock.dpf
DOCKED: USER  
DOCKED: USER    Estimated Free Energy of Binding    =   -8.93 kcal/mol  [=(1)+(2)+(3)-(4)]
DOCKED: USER    Estimated Inhibition Constant, Ki   =  282.60 nM (nanomolar)  [Temperature = 298.15 K]
DOCKED: USER    
DOCKED: USER    (1) Final Intermolecular Energy     =  -10.72 kcal/mol
DOCKED: USER        vdW + Hbond + desolv Energy     =   -4.18 kcal/mol
DOCKED: USER        Electrostatic Energy            =   -6.55 kcal/mol
DOCKED: USER    (2) Final Total Internal Energy     =   +2.18 kcal/mol
DOCKED: USER    (3) Torsional Free Energy           =   +1.79 kcal/mol
DOCKED: USER    (4) Unbound System's Energy  [=(2)] =   +2.18 kcal/mol
DOCKED: USER    
DOCKED: USER    
DOCKED: USER    NEWDPF move 2_3_BPG_opt.pdbqt
DOCKED: USER    NEWDPF about 0.015000 0.083000 0.031000
DOCKED: USER    NEWDPF tran0 -13.917710 4.979850 11.543915
DOCKED: USER    NEWDPF quaternion0 -0.263247 -0.469919 0.840419 -0.059769
DOCKED: USER    NEWDPF axisangle0 -0.263718 -0.470761 0.841925 -173.146840
DOCKED: USER    NEWDPF quat0 -0.263718 -0.470761 0.841925 -173.146840
DOCKED: USER    NEWDPF dihe0 -123.33 -159.00 -23.81 21.97 -13.48 -164.77 
DOCKED: USER  keepresnum = 1 
DOCKED: USER  
DOCKED: REMARK  6 active torsions:
DOCKED: REMARK  status: ('A' for Active; 'I' for Inactive)
DOCKED: REMARK    1  A    between atoms: P_1  and  O_3 
DOCKED: REMARK    2  A    between atoms: P_2  and  O_4 
DOCKED: REMARK    3  A    between atoms: O_3  and  C_13 
DOCKED: REMARK    4  A    between atoms: O_4  and  C_14 
DOCKED: REMARK    5  A    between atoms: C_13  and  C_14 
DOCKED: REMARK    6  A    between atoms: C_13  and  C_15 
DOCKED: USER                              x       y       z     vdW  Elec       q    Type
DOCKED: USER                           _______ _______ _______ _____ _____    ______ ____
DOCKED: ROOT
DOCKED: ATOM      1  C   UNL d   1     -13.509   4.877  12.066 -0.21 +0.26    +0.193 C 
DOCKED: ENDROOT
DOCKED: BRANCH   1   2
DOCKED: ATOM      2  O   UNL d   1     -12.174   4.560  11.546 -0.64 -0.61    -0.356 OA
DOCKED: BRANCH   2   3
DOCKED: ATOM      3  P   UNL d   1     -11.491   3.069  11.664 -0.63 -0.02    -0.014 P 
DOCKED: ATOM      4  O   UNL d   1     -12.667   2.132  11.980 -0.18 -0.67    -0.577 OA
DOCKED: ATOM      5  O   UNL d   1     -10.489   3.121  12.815 -0.72 -0.51    -0.577 OA
DOCKED: ATOM      6  O   UNL d   1     -10.855   2.734  10.319 -0.18 -1.08    -0.638 OA
DOCKED: ENDBRANCH   2   3
DOCKED: ENDBRANCH   1   2
DOCKED: BRANCH   1   7
DOCKED: ATOM      7  C   UNL d   1     -14.401   5.402  10.880 -0.17 +0.32    +0.201 C 
DOCKED: BRANCH   7   8
DOCKED: ATOM      8  O   UNL d   1     -13.728   5.575   9.614 -0.11 -0.78    -0.364 OA
DOCKED: BRANCH   8   9
DOCKED: ATOM      9  P   UNL d   1     -14.604   5.871   8.242 -0.20 -0.02    -0.015 P 
DOCKED: ATOM     10  O   UNL d   1     -13.615   6.527   7.271 -0.00 -0.62    -0.577 OA
DOCKED: ATOM     11  O   UNL d   1     -15.736   6.821   8.632 +0.02 -0.49    -0.577 OA
DOCKED: ATOM     12  O   UNL d   1     -15.105   4.522   7.728 -0.53 -1.13    -0.638 OA
DOCKED: ENDBRANCH   8   9
DOCKED: ENDBRANCH   7   8
DOCKED: ENDBRANCH   1   7
DOCKED: BRANCH   1  13
DOCKED: ATOM     13  C   UNL d   1     -13.409   6.006  13.159 -0.12 +0.08    +0.073 C 
DOCKED: ATOM     14  O   UNL d   1     -12.864   5.721  14.283 -0.02 -0.35    -0.547 OA
DOCKED: ATOM     15  O   UNL d   1     -13.826   7.174  12.830 -0.48 -0.92    -0.547 OA
DOCKED: ENDBRANCH   1  13
DOCKED: TORSDOF 6
DOCKED: TER
DOCKED: ENDMDL
________________________________________________________________________________


	BEGINNING GENETIC ALGORITHM DOCKING 94 of 100
Run: 94 Seed: 1933317802 2129264398 [ Run 94 of 100 GA/GALS ]
Beginning LAMARCKIAN GENETIC ALGORITHM (LGA), with a maximum of 25000000 energy evaluations.

Final-Value: -8.422


	FINAL GENETIC ALGORITHM DOCKED STATE
	_______________________________________________


Detailed state:  trans -14.196 4.952 12.133 quatxyzw -0.307157 -0.368646 0.871710 0.099378 center 0.015 0.083 0.031 ntor 6 6.8896 172.5556 -51.9976 76.9072 23.4656 -180.0000
State:	-14.196   4.952  12.133  -0.309 -0.370  0.876 168.593      6.89  172.56  -52.00   76.91   23.47 -180.00

DOCKED: MODEL       94
DOCKED: USER    Run = 94
DOCKED: USER    DPF = D:/Protein_go_brrr/autodock/final/mut_Y35F/2_3_BPG/dock.dpf
DOCKED: USER  
DOCKED: USER    Estimated Free Energy of Binding    =   -9.17 kcal/mol  [=(1)+(2)+(3)-(4)]
DOCKED: USER    Estimated Inhibition Constant, Ki   =  190.98 nM (nanomolar)  [Temperature = 298.15 K]
DOCKED: USER    
DOCKED: USER    (1) Final Intermolecular Energy     =  -10.96 kcal/mol
DOCKED: USER        vdW + Hbond + desolv Energy     =   -3.62 kcal/mol
DOCKED: USER        Electrostatic Energy            =   -7.34 kcal/mol
DOCKED: USER    (2) Final Total Internal Energy     =   +2.53 kcal/mol
DOCKED: USER    (3) Torsional Free Energy           =   +1.79 kcal/mol
DOCKED: USER    (4) Unbound System's Energy  [=(2)] =   +2.53 kcal/mol
DOCKED: USER    
DOCKED: USER    
DOCKED: USER    NEWDPF move 2_3_BPG_opt.pdbqt
DOCKED: USER    NEWDPF about 0.015000 0.083000 0.031000
DOCKED: USER    NEWDPF tran0 -14.196388 4.952154 12.132626
DOCKED: USER    NEWDPF quaternion0 -0.307157 -0.368646 0.871710 0.099378
DOCKED: USER    NEWDPF axisangle0 -0.308685 -0.370480 0.876047 168.593326
DOCKED: USER    NEWDPF quat0 -0.308685 -0.370480 0.876047 168.593326
DOCKED: USER    NEWDPF dihe0 6.89 172.56 -52.00 76.91 23.47 -180.00 
DOCKED: USER  keepresnum = 1 
DOCKED: USER  
DOCKED: REMARK  6 active torsions:
DOCKED: REMARK  status: ('A' for Active; 'I' for Inactive)
DOCKED: REMARK    1  A    between atoms: P_1  and  O_3 
DOCKED: REMARK    2  A    between atoms: P_2  and  O_4 
DOCKED: REMARK    3  A    between atoms: O_3  and  C_13 
DOCKED: REMARK    4  A    between atoms: O_4  and  C_14 
DOCKED: REMARK    5  A    between atoms: C_13  and  C_14 
DOCKED: REMARK    6  A    between atoms: C_13  and  C_15 
DOCKED: USER                              x       y       z     vdW  Elec       q    Type
DOCKED: USER                           _______ _______ _______ _____ _____    ______ ____
DOCKED: ROOT
DOCKED: ATOM      1  C   UNL d   1     -13.900   5.077  12.721 -0.18 +0.19    +0.193 C 
DOCKED: ENDROOT
DOCKED: BRANCH   1   2
DOCKED: ATOM      2  O   UNL d   1     -12.453   4.908  12.549 -0.16 -0.42    -0.356 OA
DOCKED: BRANCH   2   3
DOCKED: ATOM      3  P   UNL d   1     -11.767   3.529  11.972 -0.60 -0.02    -0.014 P 
DOCKED: ATOM      4  O   UNL d   1     -12.908   2.500  11.982 -0.26 -0.77    -0.577 OA
DOCKED: ATOM      5  O   UNL d   1     -10.651   3.140  12.939 -0.69 -0.47    -0.577 OA
DOCKED: ATOM      6  O   UNL d   1     -11.274   3.806  10.555 -0.15 -1.28    -0.638 OA
DOCKED: ENDBRANCH   2   3
DOCKED: ENDBRANCH   1   2
DOCKED: BRANCH   1   7
DOCKED: ATOM      7  C   UNL d   1     -14.580   5.077  11.303 -0.17 +0.28    +0.201 C 
DOCKED: BRANCH   7   8
DOCKED: ATOM      8  O   UNL d   1     -13.714   5.381  10.188 -0.27 -0.79    -0.364 OA
DOCKED: BRANCH   8   9
DOCKED: ATOM      9  P   UNL d   1     -14.339   6.047   8.808 -0.20 -0.02    -0.015 P 
DOCKED: ATOM     10  O   UNL d   1     -13.441   7.253   8.505 -0.01 -0.95    -0.577 OA
DOCKED: ATOM     11  O   UNL d   1     -15.773   6.468   9.127 +0.01 -0.54    -0.577 OA
DOCKED: ATOM     12  O   UNL d   1     -14.257   4.981   7.716 -0.31 -1.31    -0.638 OA
DOCKED: ENDBRANCH   8   9
DOCKED: ENDBRANCH   7   8
DOCKED: ENDBRANCH   1   7
DOCKED: BRANCH   1  13
DOCKED: ATOM     13  C   UNL d   1     -14.203   6.451  13.426 -0.13 +0.07    +0.073 C 
DOCKED: ATOM     14  O   UNL d   1     -13.832   7.531  12.845 -0.52 -1.05    -0.547 OA
DOCKED: ATOM     15  O   UNL d   1     -14.868   6.409  14.523 +0.01 -0.27    -0.547 OA
DOCKED: ENDBRANCH   1  13
DOCKED: TORSDOF 6
DOCKED: TER
DOCKED: ENDMDL
________________________________________________________________________________


	BEGINNING GENETIC ALGORITHM DOCKING 95 of 100
Run: 95 Seed: 925319638 1537558739 [ Run 95 of 100 GA/GALS ]
Beginning LAMARCKIAN GENETIC ALGORITHM (LGA), with a maximum of 25000000 energy evaluations.

Final-Value: -8.229


	FINAL GENETIC ALGORITHM DOCKED STATE
	_______________________________________________


Detailed state:  trans -12.886 6.176 7.080 quatxyzw 0.100298 -0.953738 -0.202062 -0.198735 center 0.015 0.083 0.031 ntor 6 -179.7982 114.7715 -142.8447 71.9834 5.3913 151.4975
State:	-12.886   6.176   7.080   0.102 -0.973 -0.206 -157.074   -179.80  114.77 -142.84   71.98    5.39  151.50

DOCKED: MODEL       95
DOCKED: USER    Run = 95
DOCKED: USER    DPF = D:/Protein_go_brrr/autodock/final/mut_Y35F/2_3_BPG/dock.dpf
DOCKED: USER  
DOCKED: USER    Estimated Free Energy of Binding    =   -8.79 kcal/mol  [=(1)+(2)+(3)-(4)]
DOCKED: USER    Estimated Inhibition Constant, Ki   =  363.10 nM (nanomolar)  [Temperature = 298.15 K]
DOCKED: USER    
DOCKED: USER    (1) Final Intermolecular Energy     =  -10.58 kcal/mol
DOCKED: USER        vdW + Hbond + desolv Energy     =   -3.72 kcal/mol
DOCKED: USER        Electrostatic Energy            =   -6.86 kcal/mol
DOCKED: USER    (2) Final Total Internal Energy     =   +2.35 kcal/mol
DOCKED: USER    (3) Torsional Free Energy           =   +1.79 kcal/mol
DOCKED: USER    (4) Unbound System's Energy  [=(2)] =   +2.35 kcal/mol
DOCKED: USER    
DOCKED: USER    
DOCKED: USER    NEWDPF move 2_3_BPG_opt.pdbqt
DOCKED: USER    NEWDPF about 0.015000 0.083000 0.031000
DOCKED: USER    NEWDPF tran0 -12.885578 6.175579 7.079855
DOCKED: USER    NEWDPF quaternion0 0.100298 -0.953738 -0.202062 -0.198735
DOCKED: USER    NEWDPF axisangle0 0.102339 -0.973149 -0.206175 -157.074010
DOCKED: USER    NEWDPF quat0 0.102339 -0.973149 -0.206175 -157.074010
DOCKED: USER    NEWDPF dihe0 -179.80 114.77 -142.84 71.98 5.39 151.50 
DOCKED: USER  keepresnum = 1 
DOCKED: USER  
DOCKED: REMARK  6 active torsions:
DOCKED: REMARK  status: ('A' for Active; 'I' for Inactive)
DOCKED: REMARK    1  A    between atoms: P_1  and  O_3 
DOCKED: REMARK    2  A    between atoms: P_2  and  O_4 
DOCKED: REMARK    3  A    between atoms: O_3  and  C_13 
DOCKED: REMARK    4  A    between atoms: O_4  and  C_14 
DOCKED: REMARK    5  A    between atoms: C_13  and  C_14 
DOCKED: REMARK    6  A    between atoms: C_13  and  C_15 
DOCKED: USER                              x       y       z     vdW  Elec       q    Type
DOCKED: USER                           _______ _______ _______ _____ _____    ______ ____
DOCKED: ROOT
DOCKED: ATOM      1  C   UNL d   1     -12.362   6.087   6.671 -0.22 +0.19    +0.193 C 
DOCKED: ENDROOT
DOCKED: BRANCH   1   2
DOCKED: ATOM      2  O   UNL d   1     -11.235   6.866   7.194 -0.21 -0.33    -0.356 OA
DOCKED: BRANCH   2   3
DOCKED: ATOM      3  P   UNL d   1     -11.277   8.500   7.383 -0.36 -0.01    -0.014 P 
DOCKED: ATOM      4  O   UNL d   1     -11.291   9.050   5.948 -0.05 -0.23    -0.577 OA
DOCKED: ATOM      5  O   UNL d   1     -10.005   8.902   8.127 -0.16 -0.40    -0.577 OA
DOCKED: ATOM      6  O   UNL d   1     -12.558   8.855   8.131 -0.19 -1.03    -0.638 OA
DOCKED: ENDBRANCH   2   3
DOCKED: ENDBRANCH   1   2
DOCKED: BRANCH   1   7
DOCKED: ATOM      7  C   UNL d   1     -13.497   6.047   7.759 -0.15 +0.29    +0.201 C 
DOCKED: BRANCH   7   8
DOCKED: ATOM      8  O   UNL d   1     -13.079   5.684   9.094 -0.01 -0.79    -0.364 OA
DOCKED: BRANCH   8   9
DOCKED: ATOM      9  P   UNL d   1     -14.208   5.406  10.270 -0.06 -0.03    -0.015 P 
DOCKED: ATOM     10  O   UNL d   1     -15.341   4.652   9.565 -0.05 -0.97    -0.577 OA
DOCKED: ATOM     11  O   UNL d   1     -14.663   6.772  10.783 -0.05 -0.92    -0.577 OA
DOCKED: ATOM     12  O   UNL d   1     -13.536   4.556  11.348 -0.54 -1.26    -0.638 OA
DOCKED: ENDBRANCH   8   9
DOCKED: ENDBRANCH   7   8
DOCKED: ENDBRANCH   1   7
DOCKED: BRANCH   1  13
DOCKED: ATOM     13  C   UNL d   1     -11.903   4.612   6.367 -0.41 +0.09    +0.073 C 
DOCKED: ATOM     14  O   UNL d   1     -12.113   4.135   5.196 -0.69 -0.47    -0.547 OA
DOCKED: ATOM     15  O   UNL d   1     -11.281   3.991   7.302 -0.57 -0.97    -0.547 OA
DOCKED: ENDBRANCH   1  13
DOCKED: TORSDOF 6
DOCKED: TER
DOCKED: ENDMDL
________________________________________________________________________________


	BEGINNING GENETIC ALGORITHM DOCKING 96 of 100
Run: 96 Seed: 10444108 1310639323 [ Run 96 of 100 GA/GALS ]
Beginning LAMARCKIAN GENETIC ALGORITHM (LGA), with a maximum of 25000000 energy evaluations.

Final-Value: -8.442


	FINAL GENETIC ALGORITHM DOCKED STATE
	_______________________________________________


Detailed state:  trans -14.178 4.778 11.446 quatxyzw 0.259287 0.476524 -0.840043 -0.004793 center 0.015 0.083 0.031 ntor 6 -153.3040 -150.9145 25.6511 17.9810 -22.1664 -168.7423
State:	-14.178   4.778  11.446   0.259  0.477 -0.840 -179.451   -153.30 -150.91   25.65   17.98  -22.17 -168.74

DOCKED: MODEL       96
DOCKED: USER    Run = 96
DOCKED: USER    DPF = D:/Protein_go_brrr/autodock/final/mut_Y35F/2_3_BPG/dock.dpf
DOCKED: USER  
DOCKED: USER    Estimated Free Energy of Binding    =   -8.82 kcal/mol  [=(1)+(2)+(3)-(4)]
DOCKED: USER    Estimated Inhibition Constant, Ki   =  345.51 nM (nanomolar)  [Temperature = 298.15 K]
DOCKED: USER    
DOCKED: USER    (1) Final Intermolecular Energy     =  -10.60 kcal/mol
DOCKED: USER        vdW + Hbond + desolv Energy     =   -4.17 kcal/mol
DOCKED: USER        Electrostatic Energy            =   -6.44 kcal/mol
DOCKED: USER    (2) Final Total Internal Energy     =   +2.16 kcal/mol
DOCKED: USER    (3) Torsional Free Energy           =   +1.79 kcal/mol
DOCKED: USER    (4) Unbound System's Energy  [=(2)] =   +2.16 kcal/mol
DOCKED: USER    
DOCKED: USER    
DOCKED: USER    NEWDPF move 2_3_BPG_opt.pdbqt
DOCKED: USER    NEWDPF about 0.015000 0.083000 0.031000
DOCKED: USER    NEWDPF tran0 -14.177885 4.778271 11.446478
DOCKED: USER    NEWDPF quaternion0 0.259287 0.476524 -0.840043 -0.004793
DOCKED: USER    NEWDPF axisangle0 0.259290 0.476529 -0.840053 -179.450753
DOCKED: USER    NEWDPF quat0 0.259290 0.476529 -0.840053 -179.450753
DOCKED: USER    NEWDPF dihe0 -153.30 -150.91 25.65 17.98 -22.17 -168.74 
DOCKED: USER  keepresnum = 1 
DOCKED: USER  
DOCKED: REMARK  6 active torsions:
DOCKED: REMARK  status: ('A' for Active; 'I' for Inactive)
DOCKED: REMARK    1  A    between atoms: P_1  and  O_3 
DOCKED: REMARK    2  A    between atoms: P_2  and  O_4 
DOCKED: REMARK    3  A    between atoms: O_3  and  C_13 
DOCKED: REMARK    4  A    between atoms: O_4  and  C_14 
DOCKED: REMARK    5  A    between atoms: C_13  and  C_14 
DOCKED: REMARK    6  A    between atoms: C_13  and  C_15 
DOCKED: USER                              x       y       z     vdW  Elec       q    Type
DOCKED: USER                           _______ _______ _______ _____ _____    ______ ____
DOCKED: ROOT
DOCKED: ATOM      1  C   UNL d   1     -13.790   4.734  11.992 -0.21 +0.26    +0.193 C 
DOCKED: ENDROOT
DOCKED: BRANCH   1   2
DOCKED: ATOM      2  O   UNL d   1     -12.401   4.564  11.552 -0.71 -0.62    -0.356 OA
DOCKED: BRANCH   2   3
DOCKED: ATOM      3  P   UNL d   1     -11.527   3.198  11.829 -0.65 -0.02    -0.014 P 
DOCKED: ATOM      4  O   UNL d   1     -12.584   2.092  11.979 -0.19 -0.66    -0.577 OA
DOCKED: ATOM      5  O   UNL d   1     -10.751   3.412  13.126 -0.58 -0.44    -0.577 OA
DOCKED: ATOM      6  O   UNL d   1     -10.633   2.957  10.617 -0.36 -0.95    -0.638 OA
DOCKED: ENDBRANCH   2   3
DOCKED: ENDBRANCH   1   2
DOCKED: BRANCH   1   7
DOCKED: ATOM      7  C   UNL d   1     -14.668   5.129  10.748 -0.13 +0.32    +0.201 C 
DOCKED: BRANCH   7   8
DOCKED: ATOM      8  O   UNL d   1     -13.943   5.442   9.538 -0.11 -0.78    -0.364 OA
DOCKED: BRANCH   8   9
DOCKED: ATOM      9  P   UNL d   1     -14.715   5.408   8.075 -0.03 -0.02    -0.015 P 
DOCKED: ATOM     10  O   UNL d   1     -13.620   5.076   7.054 -0.25 -0.92    -0.577 OA
DOCKED: ATOM     11  O   UNL d   1     -15.304   6.800   7.849 +0.02 -0.48    -0.577 OA
DOCKED: ATOM     12  O   UNL d   1     -15.778   4.313   8.152 -0.40 -0.89    -0.638 OA
DOCKED: ENDBRANCH   8   9
DOCKED: ENDBRANCH   7   8
DOCKED: ENDBRANCH   1   7
DOCKED: BRANCH   1  13
DOCKED: ATOM     13  C   UNL d   1     -13.881   5.886  13.060 -0.16 +0.07    +0.073 C 
DOCKED: ATOM     14  O   UNL d   1     -13.936   5.568  14.300 +0.01 -0.31    -0.547 OA
DOCKED: ATOM     15  O   UNL d   1     -13.831   7.092  12.622 -0.40 -0.99    -0.547 OA
DOCKED: ENDBRANCH   1  13
DOCKED: TORSDOF 6
DOCKED: TER
DOCKED: ENDMDL
________________________________________________________________________________


	BEGINNING GENETIC ALGORITHM DOCKING 97 of 100
Run: 97 Seed: 967907634 179256884 [ Run 97 of 100 GA/GALS ]
Beginning LAMARCKIAN GENETIC ALGORITHM (LGA), with a maximum of 25000000 energy evaluations.

Final-Value: -8.495


	FINAL GENETIC ALGORITHM DOCKED STATE
	_______________________________________________


Detailed state:  trans -14.255 4.915 11.987 quatxyzw -0.129411 -0.412696 0.897957 -0.081292 center 0.015 0.083 0.031 ntor 6 -133.4439 -133.6297 -125.4843 15.0753 43.2201 -130.0976
State:	-14.255   4.915  11.987  -0.130 -0.414  0.901 -170.674   -133.44 -133.63 -125.48   15.08   43.22 -130.10

DOCKED: MODEL       97
DOCKED: USER    Run = 97
DOCKED: USER    DPF = D:/Protein_go_brrr/autodock/final/mut_Y35F/2_3_BPG/dock.dpf
DOCKED: USER  
DOCKED: USER    Estimated Free Energy of Binding    =   -9.04 kcal/mol  [=(1)+(2)+(3)-(4)]
DOCKED: USER    Estimated Inhibition Constant, Ki   =  236.10 nM (nanomolar)  [Temperature = 298.15 K]
DOCKED: USER    
DOCKED: USER    (1) Final Intermolecular Energy     =  -10.83 kcal/mol
DOCKED: USER        vdW + Hbond + desolv Energy     =   -4.11 kcal/mol
DOCKED: USER        Electrostatic Energy            =   -6.72 kcal/mol
DOCKED: USER    (2) Final Total Internal Energy     =   +2.34 kcal/mol
DOCKED: USER    (3) Torsional Free Energy           =   +1.79 kcal/mol
DOCKED: USER    (4) Unbound System's Energy  [=(2)] =   +2.34 kcal/mol
DOCKED: USER    
DOCKED: USER    
DOCKED: USER    NEWDPF move 2_3_BPG_opt.pdbqt
DOCKED: USER    NEWDPF about 0.015000 0.083000 0.031000
DOCKED: USER    NEWDPF tran0 -14.254628 4.915077 11.986690
DOCKED: USER    NEWDPF quaternion0 -0.129411 -0.412696 0.897957 -0.081292
DOCKED: USER    NEWDPF axisangle0 -0.129840 -0.414066 0.900939 -170.674315
DOCKED: USER    NEWDPF quat0 -0.129840 -0.414066 0.900939 -170.674315
DOCKED: USER    NEWDPF dihe0 -133.44 -133.63 -125.48 15.08 43.22 -130.10 
DOCKED: USER  keepresnum = 1 
DOCKED: USER  
DOCKED: REMARK  6 active torsions:
DOCKED: REMARK  status: ('A' for Active; 'I' for Inactive)
DOCKED: REMARK    1  A    between atoms: P_1  and  O_3 
DOCKED: REMARK    2  A    between atoms: P_2  and  O_4 
DOCKED: REMARK    3  A    between atoms: O_3  and  C_13 
DOCKED: REMARK    4  A    between atoms: O_4  and  C_14 
DOCKED: REMARK    5  A    between atoms: C_13  and  C_14 
DOCKED: REMARK    6  A    between atoms: C_13  and  C_15 
DOCKED: USER                              x       y       z     vdW  Elec       q    Type
DOCKED: USER                           _______ _______ _______ _____ _____    ______ ____
DOCKED: ROOT
DOCKED: ATOM      1  C   UNL d   1     -13.712   4.902  12.380 -0.20 +0.22    +0.193 C 
DOCKED: ENDROOT
DOCKED: BRANCH   1   2
DOCKED: ATOM      2  O   UNL d   1     -12.549   4.584  11.542 -0.74 -0.64    -0.356 OA
DOCKED: BRANCH   2   3
DOCKED: ATOM      3  P   UNL d   1     -11.639   3.228  11.739 -0.59 -0.02    -0.014 P 
DOCKED: ATOM      4  O   UNL d   1     -12.665   2.110  11.983 -0.17 -0.67    -0.577 OA
DOCKED: ATOM      5  O   UNL d   1     -10.751   3.453  12.961 -0.62 -0.48    -0.577 OA
DOCKED: ATOM      6  O   UNL d   1     -10.854   2.997  10.452 -0.22 -1.08    -0.638 OA
DOCKED: ENDBRANCH   2   3
DOCKED: ENDBRANCH   1   2
DOCKED: BRANCH   1   7
DOCKED: ATOM      7  C   UNL d   1     -14.935   5.223  11.444 -0.16 +0.24    +0.201 C 
DOCKED: BRANCH   7   8
DOCKED: ATOM      8  O   UNL d   1     -14.941   4.556  10.163 -0.05 -0.70    -0.364 OA
DOCKED: BRANCH   8   9
DOCKED: ATOM      9  P   UNL d   1     -15.273   5.408   8.785 -0.17 -0.02    -0.015 P 
DOCKED: ATOM     10  O   UNL d   1     -14.239   6.540   8.757 -0.03 -0.84    -0.577 OA
DOCKED: ATOM     11  O   UNL d   1     -16.699   5.941   8.923 +0.02 -0.39    -0.577 OA
DOCKED: ATOM     12  O   UNL d   1     -15.105   4.448   7.608 -0.52 -1.11    -0.638 OA
DOCKED: ENDBRANCH   8   9
DOCKED: ENDBRANCH   7   8
DOCKED: ENDBRANCH   1   7
DOCKED: BRANCH   1  13
DOCKED: ATOM     13  C   UNL d   1     -13.408   6.167  13.266 -0.12 +0.08    +0.073 C 
DOCKED: ATOM     14  O   UNL d   1     -12.711   6.015  14.330 -0.03 -0.37    -0.547 OA
DOCKED: ATOM     15  O   UNL d   1     -13.830   7.298  12.830 -0.50 -0.97    -0.547 OA
DOCKED: ENDBRANCH   1  13
DOCKED: TORSDOF 6
DOCKED: TER
DOCKED: ENDMDL
________________________________________________________________________________


	BEGINNING GENETIC ALGORITHM DOCKING 98 of 100
Run: 98 Seed: 1520089516 1203315910 [ Run 98 of 100 GA/GALS ]
Beginning LAMARCKIAN GENETIC ALGORITHM (LGA), with a maximum of 25000000 energy evaluations.

Final-Value: -8.212


	FINAL GENETIC ALGORITHM DOCKED STATE
	_______________________________________________


Detailed state:  trans -14.104 5.713 7.761 quatxyzw 0.610033 0.637754 0.399944 0.247337 center 0.015 0.083 0.031 ntor 6 168.8444 -40.1064 106.8335 62.6774 -14.6588 124.1754
State:	-14.104   5.713   7.761   0.630  0.658  0.413 151.360    168.84  -40.11  106.83   62.68  -14.66  124.18

DOCKED: MODEL       98
DOCKED: USER    Run = 98
DOCKED: USER    DPF = D:/Protein_go_brrr/autodock/final/mut_Y35F/2_3_BPG/dock.dpf
DOCKED: USER  
DOCKED: USER    Estimated Free Energy of Binding    =   -8.63 kcal/mol  [=(1)+(2)+(3)-(4)]
DOCKED: USER    Estimated Inhibition Constant, Ki   =  472.57 nM (nanomolar)  [Temperature = 298.15 K]
DOCKED: USER    
DOCKED: USER    (1) Final Intermolecular Energy     =  -10.42 kcal/mol
DOCKED: USER        vdW + Hbond + desolv Energy     =   -3.79 kcal/mol
DOCKED: USER        Electrostatic Energy            =   -6.63 kcal/mol
DOCKED: USER    (2) Final Total Internal Energy     =   +2.21 kcal/mol
DOCKED: USER    (3) Torsional Free Energy           =   +1.79 kcal/mol
DOCKED: USER    (4) Unbound System's Energy  [=(2)] =   +2.21 kcal/mol
DOCKED: USER    
DOCKED: USER    
DOCKED: USER    NEWDPF move 2_3_BPG_opt.pdbqt
DOCKED: USER    NEWDPF about 0.015000 0.083000 0.031000
DOCKED: USER    NEWDPF tran0 -14.104428 5.712893 7.760923
DOCKED: USER    NEWDPF quaternion0 0.610033 0.637754 0.399944 0.247337
DOCKED: USER    NEWDPF axisangle0 0.629595 0.658204 0.412769 151.360086
DOCKED: USER    NEWDPF quat0 0.629595 0.658204 0.412769 151.360086
DOCKED: USER    NEWDPF dihe0 168.84 -40.11 106.83 62.68 -14.66 124.18 
DOCKED: USER  keepresnum = 1 
DOCKED: USER  
DOCKED: REMARK  6 active torsions:
DOCKED: REMARK  status: ('A' for Active; 'I' for Inactive)
DOCKED: REMARK    1  A    between atoms: P_1  and  O_3 
DOCKED: REMARK    2  A    between atoms: P_2  and  O_4 
DOCKED: REMARK    3  A    between atoms: O_3  and  C_13 
DOCKED: REMARK    4  A    between atoms: O_4  and  C_14 
DOCKED: REMARK    5  A    between atoms: C_13  and  C_14 
DOCKED: REMARK    6  A    between atoms: C_13  and  C_15 
DOCKED: USER                              x       y       z     vdW  Elec       q    Type
DOCKED: USER                           _______ _______ _______ _____ _____    ______ ____
DOCKED: ROOT
DOCKED: ATOM      1  C   UNL d   1     -14.315   5.468   7.173 -0.12 +0.25    +0.193 C 
DOCKED: ENDROOT
DOCKED: BRANCH   1   2
DOCKED: ATOM      2  O   UNL d   1     -13.507   4.286   6.855 -0.23 -0.70    -0.356 OA
DOCKED: BRANCH   2   3
DOCKED: ATOM      3  P   UNL d   1     -11.915   4.363   6.450 -0.50 -0.02    -0.014 P 
DOCKED: ATOM      4  O   UNL d   1     -11.261   3.225   7.250 -0.63 -1.15    -0.577 OA
DOCKED: ATOM      5  O   UNL d   1     -11.400   5.730   6.894 -0.09 -0.60    -0.577 OA
DOCKED: ATOM      6  O   UNL d   1     -11.799   4.128   4.947 -0.59 -0.53    -0.638 OA
DOCKED: ENDBRANCH   2   3
DOCKED: ENDBRANCH   1   2
DOCKED: BRANCH   1   7
DOCKED: ATOM      7  C   UNL d   1     -14.040   5.880   8.666 -0.11 +0.34    +0.201 C 
DOCKED: BRANCH   7   8
DOCKED: ATOM      8  O   UNL d   1     -14.677   5.064   9.673 -0.08 -0.72    -0.364 OA
DOCKED: BRANCH   8   9
DOCKED: ATOM      9  P   UNL d   1     -14.241   5.214  11.262 -0.24 -0.02    -0.015 P 
DOCKED: ATOM     10  O   UNL d   1     -12.835   4.608  11.348 -0.60 -1.17    -0.577 OA
DOCKED: ATOM     11  O   UNL d   1     -15.257   4.418  12.081 -0.06 -0.52    -0.577 OA
DOCKED: ATOM     12  O   UNL d   1     -14.244   6.706  11.592 -0.15 -1.12    -0.638 OA
DOCKED: ENDBRANCH   8   9
DOCKED: ENDBRANCH   7   8
DOCKED: ENDBRANCH   1   7
DOCKED: BRANCH   1  13
DOCKED: ATOM     13  C   UNL d   1     -15.845   5.135   7.016 -0.14 +0.06    +0.073 C 
DOCKED: ATOM     14  O   UNL d   1     -16.603   5.997   6.447 +0.03 -0.24    -0.547 OA
DOCKED: ATOM     15  O   UNL d   1     -16.233   3.978   7.415 -0.27 -0.48    -0.547 OA
DOCKED: ENDBRANCH   1  13
DOCKED: TORSDOF 6
DOCKED: TER
DOCKED: ENDMDL
________________________________________________________________________________


	BEGINNING GENETIC ALGORITHM DOCKING 99 of 100
Run: 99 Seed: 1594967707 759605561 [ Run 99 of 100 GA/GALS ]
Beginning LAMARCKIAN GENETIC ALGORITHM (LGA), with a maximum of 25000000 energy evaluations.

Final-Value: -8.016


	FINAL GENETIC ALGORITHM DOCKED STATE
	_______________________________________________


Detailed state:  trans -13.349 6.006 8.959 quatxyzw 0.567623 0.201795 0.795589 0.064197 center 0.015 0.083 0.031 ntor 6 -29.2866 172.2026 179.3231 16.2708 14.8318 -63.1892
State:	-13.349   6.006   8.959   0.569  0.202  0.797 172.639    -29.29  172.20  179.32   16.27   14.83  -63.19

DOCKED: MODEL       99
DOCKED: USER    Run = 99
DOCKED: USER    DPF = D:/Protein_go_brrr/autodock/final/mut_Y35F/2_3_BPG/dock.dpf
DOCKED: USER  
DOCKED: USER    Estimated Free Energy of Binding    =   -8.27 kcal/mol  [=(1)+(2)+(3)-(4)]
DOCKED: USER    Estimated Inhibition Constant, Ki   =  866.11 nM (nanomolar)  [Temperature = 298.15 K]
DOCKED: USER    
DOCKED: USER    (1) Final Intermolecular Energy     =  -10.06 kcal/mol
DOCKED: USER        vdW + Hbond + desolv Energy     =   -3.70 kcal/mol
DOCKED: USER        Electrostatic Energy            =   -6.36 kcal/mol
DOCKED: USER    (2) Final Total Internal Energy     =   +2.04 kcal/mol
DOCKED: USER    (3) Torsional Free Energy           =   +1.79 kcal/mol
DOCKED: USER    (4) Unbound System's Energy  [=(2)] =   +2.04 kcal/mol
DOCKED: USER    
DOCKED: USER    
DOCKED: USER    NEWDPF move 2_3_BPG_opt.pdbqt
DOCKED: USER    NEWDPF about 0.015000 0.083000 0.031000
DOCKED: USER    NEWDPF tran0 -13.349465 6.005823 8.959340
DOCKED: USER    NEWDPF quaternion0 0.567623 0.201795 0.795589 0.064197
DOCKED: USER    NEWDPF axisangle0 0.568796 0.202213 0.797233 172.638498
DOCKED: USER    NEWDPF quat0 0.568796 0.202213 0.797233 172.638498
DOCKED: USER    NEWDPF dihe0 -29.29 172.20 179.32 16.27 14.83 -63.19 
DOCKED: USER  keepresnum = 1 
DOCKED: USER  
DOCKED: REMARK  6 active torsions:
DOCKED: REMARK  status: ('A' for Active; 'I' for Inactive)
DOCKED: REMARK    1  A    between atoms: P_1  and  O_3 
DOCKED: REMARK    2  A    between atoms: P_2  and  O_4 
DOCKED: REMARK    3  A    between atoms: O_3  and  C_13 
DOCKED: REMARK    4  A    between atoms: O_4  and  C_14 
DOCKED: REMARK    5  A    between atoms: C_13  and  C_14 
DOCKED: REMARK    6  A    between atoms: C_13  and  C_15 
DOCKED: USER                              x       y       z     vdW  Elec       q    Type
DOCKED: USER                           _______ _______ _______ _____ _____    ______ ____
DOCKED: ROOT
DOCKED: ATOM      1  C   UNL d   1     -13.168   6.252   8.363 -0.04 +0.31    +0.193 C 
DOCKED: ENDROOT
DOCKED: BRANCH   1   2
DOCKED: ATOM      2  O   UNL d   1     -13.103   5.139   7.409 -0.16 -0.66    -0.356 OA
DOCKED: BRANCH   2   3
DOCKED: ATOM      3  P   UNL d   1     -11.712   4.660   6.674 -0.51 -0.02    -0.014 P 
DOCKED: ATOM      4  O   UNL d   1     -10.711   5.786   6.978 -0.05 -0.53    -0.577 OA
DOCKED: ATOM      5  O   UNL d   1     -12.003   4.557   5.178 -0.62 -0.52    -0.577 OA
DOCKED: ATOM      6  O   UNL d   1     -11.277   3.340   7.302 -0.57 -1.30    -0.638 OA
DOCKED: ENDBRANCH   2   3
DOCKED: ENDBRANCH   1   2
DOCKED: BRANCH   1   7
DOCKED: ATOM      7  C   UNL d   1     -13.867   5.749   9.679 +0.03 +0.40    +0.201 C 
DOCKED: BRANCH   7   8
DOCKED: ATOM      8  O   UNL d   1     -12.983   5.333  10.744 -0.33 -0.79    -0.364 OA
DOCKED: BRANCH   8   9
DOCKED: ATOM      9  P   UNL d   1     -13.555   4.390  11.977 -0.30 -0.02    -0.015 P 
DOCKED: ATOM     10  O   UNL d   1     -15.028   4.134  11.633 -0.13 -0.69    -0.577 OA
DOCKED: ATOM     11  O   UNL d   1     -13.402   5.199  13.264 -0.02 -0.50    -0.577 OA
DOCKED: ATOM     12  O   UNL d   1     -12.734   3.102  11.978 -0.44 -0.93    -0.638 OA
DOCKED: ENDBRANCH   8   9
DOCKED: ENDBRANCH   7   8
DOCKED: ENDBRANCH   1   7
DOCKED: BRANCH   1  13
DOCKED: ATOM     13  C   UNL d   1     -14.018   7.431   7.759 -0.11 +0.08    +0.073 C 
DOCKED: ATOM     14  O   UNL d   1     -14.887   7.159   6.858 +0.03 -0.36    -0.547 OA
DOCKED: ATOM     15  O   UNL d   1     -13.831   8.599   8.257 -0.46 -0.82    -0.547 OA
DOCKED: ENDBRANCH   1  13
DOCKED: TORSDOF 6
DOCKED: TER
DOCKED: ENDMDL
________________________________________________________________________________


	BEGINNING GENETIC ALGORITHM DOCKING 100 of 100
Run: 100 Seed: 2016182845 412458674 [ Run 100 of 100 GA/GALS ]
Beginning LAMARCKIAN GENETIC ALGORITHM (LGA), with a maximum of 25000000 energy evaluations.

Final-Value: -8.062


	FINAL GENETIC ALGORITHM DOCKED STATE
	_______________________________________________


Detailed state:  trans -13.030 6.958 7.573 quatxyzw 0.909314 -0.105230 -0.369155 -0.160620 center 0.015 0.083 0.031 ntor 6 119.0217 179.6902 -96.5319 67.9516 59.2993 -27.0159
State:	-13.030   6.958   7.573   0.921 -0.107 -0.374 -161.514    119.02  179.69  -96.53   67.95   59.30  -27.02

DOCKED: MODEL      100
DOCKED: USER    Run = 100
DOCKED: USER    DPF = D:/Protein_go_brrr/autodock/final/mut_Y35F/2_3_BPG/dock.dpf
DOCKED: USER  
DOCKED: USER    Estimated Free Energy of Binding    =   -9.01 kcal/mol  [=(1)+(2)+(3)-(4)]
DOCKED: USER    Estimated Inhibition Constant, Ki   =  248.94 nM (nanomolar)  [Temperature = 298.15 K]
DOCKED: USER    
DOCKED: USER    (1) Final Intermolecular Energy     =  -10.80 kcal/mol
DOCKED: USER        vdW + Hbond + desolv Energy     =   -3.49 kcal/mol
DOCKED: USER        Electrostatic Energy            =   -7.31 kcal/mol
DOCKED: USER    (2) Final Total Internal Energy     =   +2.74 kcal/mol
DOCKED: USER    (3) Torsional Free Energy           =   +1.79 kcal/mol
DOCKED: USER    (4) Unbound System's Energy  [=(2)] =   +2.74 kcal/mol
DOCKED: USER    
DOCKED: USER    
DOCKED: USER    NEWDPF move 2_3_BPG_opt.pdbqt
DOCKED: USER    NEWDPF about 0.015000 0.083000 0.031000
DOCKED: USER    NEWDPF tran0 -13.030491 6.957652 7.573179
DOCKED: USER    NEWDPF quaternion0 0.909314 -0.105230 -0.369155 -0.160620
DOCKED: USER    NEWDPF axisangle0 0.921276 -0.106614 -0.374011 -161.514215
DOCKED: USER    NEWDPF quat0 0.921276 -0.106614 -0.374011 -161.514215
DOCKED: USER    NEWDPF dihe0 119.02 179.69 -96.53 67.95 59.30 -27.02 
DOCKED: USER  keepresnum = 1 
DOCKED: USER  
DOCKED: REMARK  6 active torsions:
DOCKED: REMARK  status: ('A' for Active; 'I' for Inactive)
DOCKED: REMARK    1  A    between atoms: P_1  and  O_3 
DOCKED: REMARK    2  A    between atoms: P_2  and  O_4 
DOCKED: REMARK    3  A    between atoms: O_3  and  C_13 
DOCKED: REMARK    4  A    between atoms: O_4  and  C_14 
DOCKED: REMARK    5  A    between atoms: C_13  and  C_14 
DOCKED: REMARK    6  A    between atoms: C_13  and  C_15 
DOCKED: USER                              x       y       z     vdW  Elec       q    Type
DOCKED: USER                           _______ _______ _______ _____ _____    ______ ____
DOCKED: ROOT
DOCKED: ATOM      1  C   UNL d   1     -13.487   7.408   7.769 -0.09 +0.23    +0.193 C 
DOCKED: ENDROOT
DOCKED: BRANCH   1   2
DOCKED: ATOM      2  O   UNL d   1     -13.832   7.133   9.168 +0.06 -0.66    -0.356 OA
DOCKED: BRANCH   2   3
DOCKED: ATOM      3  P   UNL d   1     -14.573   5.749   9.659 -0.18 -0.02    -0.014 P 
DOCKED: ATOM      4  O   UNL d   1     -14.867   4.989   8.356 -0.30 -1.09    -0.577 OA
DOCKED: ATOM      5  O   UNL d   1     -15.859   6.154  10.376 -0.00 -0.54    -0.577 OA
DOCKED: ATOM      6  O   UNL d   1     -13.598   4.982  10.546 -0.22 -1.52    -0.638 OA
DOCKED: ENDBRANCH   2   3
DOCKED: ENDBRANCH   1   2
DOCKED: BRANCH   1   7
DOCKED: ATOM      7  C   UNL d   1     -12.220   6.558   7.384 -0.21 +0.23    +0.201 C 
DOCKED: BRANCH   7   8
DOCKED: ATOM      8  O   UNL d   1     -12.302   5.833   6.137 -0.22 -0.33    -0.364 OA
DOCKED: BRANCH   8   9
DOCKED: ATOM      9  P   UNL d   1     -12.221   4.181   6.131 -0.48 -0.02    -0.015 P 
DOCKED: ATOM     10  O   UNL d   1     -13.659   3.710   6.380 -0.11 -0.84    -0.577 OA
DOCKED: ATOM     11  O   UNL d   1     -11.283   3.776   7.268 -0.58 -1.07    -0.577 OA
DOCKED: ATOM     12  O   UNL d   1     -11.709   3.760   4.754 -0.54 -0.47    -0.638 OA
DOCKED: ENDBRANCH   8   9
DOCKED: ENDBRANCH   7   8
DOCKED: ENDBRANCH   1   7
DOCKED: BRANCH   1  13
DOCKED: ATOM     13  C   UNL d   1     -13.144   8.934   7.588 -0.11 +0.08    +0.073 C 
DOCKED: ATOM     14  O   UNL d   1     -12.682   9.328   6.460 +0.01 -0.29    -0.547 OA
DOCKED: ATOM     15  O   UNL d   1     -13.410   9.712   8.574 -0.51 -0.98    -0.547 OA
DOCKED: ENDBRANCH   1  13
DOCKED: TORSDOF 6
DOCKED: TER
DOCKED: ENDMDL
________________________________________________________________________________

DPF> analysis                             # perform a ranked cluster analysis


		CLUSTER ANALYSIS OF CONFORMATIONS
		_________________________________

Number of conformations = 100

RMSD cluster analysis will be performed using the ligand atoms only (15 / 15 total atoms).

Outputting structurally similar clusters, ranked in order of increasing energy.


________________________________________________________________________________

Number of distinct conformational clusters found = 4,  out of 100 runs,
Using an rmsd-tolerance of 2.0 A


	CLUSTERING HISTOGRAM
	____________________

________________________________________________________________________________
     |           |     |           |     |                                    
Clus | Lowest    | Run | Mean      | Num | Histogram                          
-ter | Binding   |     | Binding   | in  |                                    
Rank | Energy    |     | Energy    | Clus|    5    10   15   20   25   30   35
_____|___________|_____|___________|_____|____:____|____:____|____:____|____:___
   1 |    -10.11 |  69 |     -9.08 |  64 |################################################################
   2 |     -9.45 |  56 |     -8.94 |  31 |###############################
   3 |     -8.80 |  11 |     -8.60 |   3 |###
   4 |     -8.79 |  95 |     -8.59 |   2 |##
_____|___________|_____|___________|_____|______________________________________


Number of multi-member conformational clusters found = 4, out of 100 runs.

	RMSD TABLE
	__________

_____________________________________________________________________
     |      |      |           |         |                 |
Rank | Sub- | Run  | Binding   | Cluster | Reference       | Grep
     | Rank |      | Energy    | RMSD    | RMSD            | Pattern
_____|______|______|___________|_________|_________________|___________
   1      1     69      -10.11      0.00     15.61           RANKING
   1      2     77      -10.08      0.26     15.51           RANKING
   1      3     64      -10.07      0.43     15.41           RANKING
   1      4     19      -10.03      0.28     15.54           RANKING
   1      5     12       -9.99      0.31     15.54           RANKING
   1      6     38       -9.97      0.20     15.59           RANKING
   1      7     54       -9.94      0.35     15.61           RANKING
   1      8     80       -9.88      0.31     15.69           RANKING
   1      9     75       -9.83      0.52     15.64           RANKING
   1     10     61       -9.79      0.61     15.53           RANKING
   1     11     42       -9.71      0.58     15.65           RANKING
   1     12     37       -9.66      0.48     15.76           RANKING
   1     13     23       -9.58      1.56     16.28           RANKING
   1     14     73       -9.31      1.62     16.42           RANKING
   1     15      9       -9.24      1.52     16.28           RANKING
   1     16     15       -9.22      1.26     15.89           RANKING
   1     17     79       -9.19      1.64     16.43           RANKING
   1     18     18       -9.18      1.68     16.34           RANKING
   1     19     94       -9.17      1.06     15.99           RANKING
   1     20     31       -9.16      1.00     15.63           RANKING
   1     21      7       -9.12      1.22     15.87           RANKING
   1     22     91       -9.12      1.68     16.47           RANKING
   1     23     45       -9.10      1.67     16.45           RANKING
   1     24     57       -9.10      1.25     15.85           RANKING
   1     25     60       -9.04      1.70     16.30           RANKING
   1     26     97       -9.04      1.25     15.89           RANKING
   1     27     74       -9.01      1.06     15.93           RANKING
   1     28     63       -9.00      0.81     15.69           RANKING
   1     29     39       -9.00      1.24     15.51           RANKING
   1     30     76       -8.98      1.56     16.34           RANKING
   1     31     28       -8.98      1.67     16.39           RANKING
   1     32     20       -8.97      1.78     16.29           RANKING
   1     33     40       -8.97      0.99     15.66           RANKING
   1     34     44       -8.96      0.83     15.71           RANKING
   1     35     82       -8.95      1.63     16.44           RANKING
   1     36     93       -8.93      1.27     15.52           RANKING
   1     37     85       -8.92      1.77     16.25           RANKING
   1     38      3       -8.91      1.63     16.38           RANKING
   1     39     36       -8.89      1.23     15.55           RANKING
   1     40      6       -8.89      1.19     15.26           RANKING
   1     41     65       -8.88      1.15     15.71           RANKING
   1     42     50       -8.88      1.14     15.67           RANKING
   1     43     26       -8.83      1.29     15.81           RANKING
   1     44     96       -8.82      1.19     15.60           RANKING
   1     45     62       -8.81      0.79     15.74           RANKING
   1     46      5       -8.80      0.97     15.63           RANKING
   1     47     59       -8.79      1.03     15.82           RANKING
   1     48     53       -8.78      1.13     15.83           RANKING
   1     49      8       -8.76      1.26     15.86           RANKING
   1     50     49       -8.75      1.59     15.98           RANKING
   1     51     41       -8.75      1.03     15.59           RANKING
   1     52      4       -8.72      1.55     16.07           RANKING
   1     53     43       -8.71      1.68     16.39           RANKING
   1     54     66       -8.70      1.09     15.83           RANKING
   1     55     33       -8.69      1.68     16.45           RANKING
   1     56     14       -8.66      1.02     15.91           RANKING
   1     57      2       -8.62      1.55     16.15           RANKING
   1     58     30       -8.59      1.62     16.18           RANKING
   1     59     52       -8.53      1.84     16.43           RANKING
   1     60     87       -8.52      1.11     15.81           RANKING
   1     61     67       -8.52      1.23     15.69           RANKING
   1     62     27       -8.50      1.74     16.25           RANKING
   1     63     72       -8.47      1.83     16.43           RANKING
   1     64     58       -7.96      1.88     16.51           RANKING
   2      1     56       -9.45      0.00     14.50           RANKING
   2      2     71       -9.44      0.49     14.39           RANKING
   2      3     70       -9.43      0.21     14.56           RANKING
   2      4     25       -9.42      0.98     14.13           RANKING
   2      5     48       -9.29      1.40     14.28           RANKING
   2      6     16       -9.27      1.40     14.04           RANKING
   2      7     46       -9.27      0.63     14.36           RANKING
   2      8     81       -9.23      1.52     14.34           RANKING
   2      9     90       -9.16      1.49     14.13           RANKING
   2     10     92       -9.11      0.83     14.27           RANKING
   2     11     86       -9.09      0.38     14.58           RANKING
   2     12     17       -9.08      0.53     14.73           RANKING
   2     13     21       -9.06      1.12     14.43           RANKING
   2     14     47       -9.04      1.09     14.25           RANKING
   2     15     78       -9.02      0.60     14.56           RANKING
   2     16    100       -9.01      1.58     14.12           RANKING
   2     17     89       -8.94      1.31     14.25           RANKING
   2     18     84       -8.88      1.91     13.91           RANKING
   2     19     34       -8.81      0.98     15.24           RANKING
   2     20     51       -8.77      0.73     14.61           RANKING
   2     21     13       -8.75      0.70     14.82           RANKING
   2     22     24       -8.72      1.34     14.46           RANKING
   2     23     29       -8.64      0.70     14.52           RANKING
   2     24     88       -8.63      1.12     14.60           RANKING
   2     25     98       -8.63      1.40     14.54           RANKING
   2     26     55       -8.62      0.68     14.61           RANKING
   2     27     32       -8.57      1.12     14.75           RANKING
   2     28     10       -8.51      1.17     14.76           RANKING
   2     29      1       -8.51      0.59     14.54           RANKING
   2     30     22       -8.36      1.19     14.49           RANKING
   2     31     99       -8.27      1.19     14.41           RANKING
   3      1     11       -8.80      0.00     13.49           RANKING
   3      2     68       -8.64      1.90     14.11           RANKING
   3      3     35       -8.37      0.94     13.26           RANKING
   4      1     95       -8.79      0.00     13.75           RANKING
   4      2     83       -8.40      0.69     13.91           RANKING
_______________________________________________________________________



	INFORMATION ENTROPY ANALYSIS FOR THIS CLUSTERING
	________________________________________________


Information entropy for this clustering = 0.18  (rmstol = 2.00 Angstrom)

_______________________________________________________________________


	STATISTICAL MECHANICAL ANALYSIS
	_______________________________


Partition function, Q =   101.53            at Temperature, T = 298.15 K
Free energy,        A ~ -2737.49 kcal/mol   at Temperature, T = 298.15 K
Internal energy,    U =    -9.01 kcal/mol   at Temperature, T = 298.15 K
Entropy,            S =     9.15 kcal/mol/K at Temperature, T = 298.15 K

_______________________________________________________________________


	LOWEST ENERGY DOCKED CONFORMATION from EACH CLUSTER
	___________________________________________________



Keeping original residue number (specified in the input PDBQ file) for outputting.

MODEL       69
USER    Run = 69
USER    Cluster Rank = 1
USER    Number of conformations in this cluster = 64
USER  
USER    RMSD from reference structure       = 15.614 A
USER  
USER    Estimated Free Energy of Binding    =  -10.11 kcal/mol  [=(1)+(2)+(3)-(4)]
USER    Estimated Inhibition Constant, Ki   =   38.78 nM (nanomolar)  [Temperature = 298.15 K]
USER    
USER    (1) Final Intermolecular Energy     =  -11.90 kcal/mol
USER        vdW + Hbond + desolv Energy     =   -4.57 kcal/mol
USER        Electrostatic Energy            =   -7.33 kcal/mol
USER    (2) Final Total Internal Energy     =   +2.41 kcal/mol
USER    (3) Torsional Free Energy           =   +1.79 kcal/mol
USER    (4) Unbound System's Energy  [=(2)] =   +2.41 kcal/mol
USER    
USER    
USER  
USER    DPF = D:/Protein_go_brrr/autodock/final/mut_Y35F/2_3_BPG/dock.dpf
USER    NEWDPF move	2_3_BPG_opt.pdbqt
USER    NEWDPF about	0.015000 0.083000 0.031000
USER    NEWDPF tran0	-13.326241 4.985042 12.027562
USER    NEWDPF axisangle0	0.824157 -0.129871 0.551270 134.986344
USER    NEWDPF quaternion0	0.761384 -0.119980 0.509282 0.382794
USER    NEWDPF dihe0	-144.32 -130.94 86.15 21.63 -72.82 -113.60 
USER  
USER                              x       y       z    vdW   Elec        q     RMS 
ATOM      1  C   UNL d   1     -13.575   5.575  11.829 -0.03 +0.29    +0.193    15.614
ATOM      2  O   UNL d   1     -14.443   5.339  10.670 -0.25 -0.59    -0.356    15.614
ATOM      3  P   UNL d   1     -14.067   5.831   9.146 -0.14 -0.03    -0.014    15.614
ATOM      4  O   UNL d   1     -12.592   5.437   8.970 +0.12 -1.32    -0.577    15.614
ATOM      5  O   UNL d   1     -14.254   7.346   9.101 -0.07 -0.95    -0.577    15.614
ATOM      6  O   UNL d   1     -14.968   5.078   8.173 -0.36 -1.07    -0.638    15.614
ATOM      7  C   UNL d   1     -13.218   4.189  12.483 -0.25 +0.23    +0.201    15.614
ATOM      8  O   UNL d   1     -12.818   3.145  11.568 -0.47 -0.74    -0.364    15.614
ATOM      9  P   UNL d   1     -11.249   2.621  11.542 -0.74 -0.02    -0.015    15.614
ATOM     10  O   UNL d   1     -10.557   3.487  10.482 -0.35 -0.88    -0.577    15.614
ATOM     11  O   UNL d   1     -11.278   1.146  11.143 -0.71 -0.58    -0.577    15.614
ATOM     12  O   UNL d   1     -10.672   2.853  12.938 -0.65 -0.49    -0.638    15.614
ATOM     13  C   UNL d   1     -14.327   6.456  12.895 -0.13 +0.08    +0.073    15.614
ATOM     14  O   UNL d   1     -14.210   7.730  12.828 -0.57 -0.94    -0.547    15.614
ATOM     15  O   UNL d   1     -15.073   5.839  13.740 +0.01 -0.32    -0.547    15.614
TER
ENDMDL
MODEL       56
USER    Run = 56
USER    Cluster Rank = 2
USER    Number of conformations in this cluster = 31
USER  
USER    RMSD from reference structure       = 14.500 A
USER  
USER    Estimated Free Energy of Binding    =   -9.45 kcal/mol  [=(1)+(2)+(3)-(4)]
USER    Estimated Inhibition Constant, Ki   =  117.41 nM (nanomolar)  [Temperature = 298.15 K]
USER    
USER    (1) Final Intermolecular Energy     =  -11.24 kcal/mol
USER        vdW + Hbond + desolv Energy     =   -3.99 kcal/mol
USER        Electrostatic Energy            =   -7.25 kcal/mol
USER    (2) Final Total Internal Energy     =   +2.21 kcal/mol
USER    (3) Torsional Free Energy           =   +1.79 kcal/mol
USER    (4) Unbound System's Energy  [=(2)] =   +2.21 kcal/mol
USER    
USER    
USER  
USER    DPF = D:/Protein_go_brrr/autodock/final/mut_Y35F/2_3_BPG/dock.dpf
USER    NEWDPF move	2_3_BPG_opt.pdbqt
USER    NEWDPF about	0.015000 0.083000 0.031000
USER    NEWDPF tran0	-14.032686 5.987641 7.949719
USER    NEWDPF axisangle0	-0.715302 -0.187637 0.673153 151.891492
USER    NEWDPF quaternion0	-0.693890 -0.182020 0.653003 0.242841
USER    NEWDPF dihe0	179.72 -32.97 -158.97 -1.84 42.23 -89.93 
USER  
USER                              x       y       z    vdW   Elec        q     RMS 
ATOM      1  C   UNL d   1     -14.334   6.227   8.499 -0.13 +0.27    +0.193    14.500
ATOM      2  O   UNL d   1     -13.438   6.013   9.641 +0.07 -0.73    -0.356    14.500
ATOM      3  P   UNL d   1     -13.944   5.405  11.083 -0.21 -0.02    -0.014    14.500
ATOM      4  O   UNL d   1     -12.782   4.515  11.552 -0.65 -1.05    -0.577    14.500
ATOM      5  O   UNL d   1     -15.205   4.587  10.812 -0.11 -0.80    -0.577    14.500
ATOM      6  O   UNL d   1     -14.171   6.575  12.034 -0.23 -1.01    -0.638    14.500
ATOM      7  C   UNL d   1     -13.537   5.944   7.172 -0.15 +0.24    +0.201    14.500
ATOM      8  O   UNL d   1     -13.184   4.564   6.931 -0.22 -0.69    -0.364    14.500
ATOM      9  P   UNL d   1     -11.657   4.174   6.427 -0.56 -0.02    -0.015    14.500
ATOM     10  O   UNL d   1     -10.775   5.342   6.886 -0.12 -0.55    -0.577    14.500
ATOM     11  O   UNL d   1     -11.705   4.058   4.904 -0.61 -0.47    -0.577    14.500
ATOM     12  O   UNL d   1     -11.277   2.863   7.115 -0.57 -1.18    -0.638    14.500
ATOM     13  C   UNL d   1     -14.835   7.719   8.478 -0.08 +0.08    +0.073    14.500
ATOM     14  O   UNL d   1     -16.096   7.939   8.429 +0.01 -0.36    -0.547    14.500
ATOM     15  O   UNL d   1     -13.941   8.635   8.576 -0.43 -0.96    -0.547    14.500
TER
ENDMDL
MODEL       11
USER    Run = 11
USER    Cluster Rank = 3
USER    Number of conformations in this cluster = 3
USER  
USER    RMSD from reference structure       = 13.494 A
USER  
USER    Estimated Free Energy of Binding    =   -8.80 kcal/mol  [=(1)+(2)+(3)-(4)]
USER    Estimated Inhibition Constant, Ki   =  356.63 nM (nanomolar)  [Temperature = 298.15 K]
USER    
USER    (1) Final Intermolecular Energy     =  -10.59 kcal/mol
USER        vdW + Hbond + desolv Energy     =   -3.91 kcal/mol
USER        Electrostatic Energy            =   -6.68 kcal/mol
USER    (2) Final Total Internal Energy     =   +2.11 kcal/mol
USER    (3) Torsional Free Energy           =   +1.79 kcal/mol
USER    (4) Unbound System's Energy  [=(2)] =   +2.11 kcal/mol
USER    
USER    
USER  
USER    DPF = D:/Protein_go_brrr/autodock/final/mut_Y35F/2_3_BPG/dock.dpf
USER    NEWDPF move	2_3_BPG_opt.pdbqt
USER    NEWDPF about	0.015000 0.083000 0.031000
USER    NEWDPF tran0	-11.882925 6.244359 7.143798
USER    NEWDPF axisangle0	0.523180 0.824580 0.215293 -134.627223
USER    NEWDPF quaternion0	0.482701 0.760782 0.198635 -0.385687
USER    NEWDPF dihe0	-12.51 -104.08 12.58 4.89 4.62 148.41 
USER  
USER                              x       y       z    vdW   Elec        q     RMS 
ATOM      1  C   UNL d   1     -11.853   5.576   7.107 -0.29 +0.24    +0.193    13.494
ATOM      2  O   UNL d   1     -11.642   5.052   8.461 -0.20 -0.71    -0.356    13.494
ATOM      3  P   UNL d   1     -10.433   4.006   8.846 -0.59 -0.02    -0.014    13.494
ATOM      4  O   UNL d   1      -9.155   4.858   8.784 +0.04 -0.46    -0.577    13.494
ATOM      5  O   UNL d   1     -10.428   2.909   7.783 -0.70 -0.79    -0.577    13.494
ATOM      6  O   UNL d   1     -10.691   3.485  10.256 -0.19 -1.07    -0.638    13.494
ATOM      7  C   UNL d   1     -12.215   7.103   7.207 -0.19 +0.20    +0.201    13.494
ATOM      8  O   UNL d   1     -13.295   7.438   8.106 -0.14 -0.52    -0.364    13.494
ATOM      9  P   UNL d   1     -13.889   8.982   8.151 +0.14 -0.02    -0.015    13.494
ATOM     10  O   UNL d   1     -14.722   9.051   9.437 -0.28 -0.98    -0.577    13.494
ATOM     11  O   UNL d   1     -14.750   9.165   6.902 +0.02 -0.30    -0.577    13.494
ATOM     12  O   UNL d   1     -12.688   9.925   8.194 -0.34 -0.84    -0.638    13.494
ATOM     13  C   UNL d   1     -13.049   4.819   6.416 -0.27 +0.09    +0.073    13.494
ATOM     14  O   UNL d   1     -14.091   4.558   7.113 -0.33 -1.08    -0.547    13.494
ATOM     15  O   UNL d   1     -12.930   4.563   5.164 -0.57 -0.44    -0.547    13.494
TER
ENDMDL
MODEL       95
USER    Run = 95
USER    Cluster Rank = 4
USER    Number of conformations in this cluster = 2
USER  
USER    RMSD from reference structure       = 13.746 A
USER  
USER    Estimated Free Energy of Binding    =   -8.79 kcal/mol  [=(1)+(2)+(3)-(4)]
USER    Estimated Inhibition Constant, Ki   =  363.10 nM (nanomolar)  [Temperature = 298.15 K]
USER    
USER    (1) Final Intermolecular Energy     =  -10.58 kcal/mol
USER        vdW + Hbond + desolv Energy     =   -3.72 kcal/mol
USER        Electrostatic Energy            =   -6.86 kcal/mol
USER    (2) Final Total Internal Energy     =   +2.35 kcal/mol
USER    (3) Torsional Free Energy           =   +1.79 kcal/mol
USER    (4) Unbound System's Energy  [=(2)] =   +2.35 kcal/mol
USER    
USER    
USER  
USER    DPF = D:/Protein_go_brrr/autodock/final/mut_Y35F/2_3_BPG/dock.dpf
USER    NEWDPF move	2_3_BPG_opt.pdbqt
USER    NEWDPF about	0.015000 0.083000 0.031000
USER    NEWDPF tran0	-12.885578 6.175579 7.079855
USER    NEWDPF axisangle0	0.102339 -0.973149 -0.206175 -157.074010
USER    NEWDPF quaternion0	0.100298 -0.953738 -0.202062 -0.198735
USER    NEWDPF dihe0	-179.80 114.77 -142.84 71.98 5.39 151.50 
USER  
USER                              x       y       z    vdW   Elec        q     RMS 
ATOM      1  C   UNL d   1     -12.362   6.087   6.671 -0.22 +0.19    +0.193    13.746
ATOM      2  O   UNL d   1     -11.235   6.866   7.194 -0.21 -0.33    -0.356    13.746
ATOM      3  P   UNL d   1     -11.277   8.500   7.383 -0.36 -0.01    -0.014    13.746
ATOM      4  O   UNL d   1     -11.291   9.050   5.948 -0.05 -0.23    -0.577    13.746
ATOM      5  O   UNL d   1     -10.005   8.902   8.127 -0.16 -0.40    -0.577    13.746
ATOM      6  O   UNL d   1     -12.558   8.855   8.131 -0.19 -1.03    -0.638    13.746
ATOM      7  C   UNL d   1     -13.497   6.047   7.759 -0.15 +0.29    +0.201    13.746
ATOM      8  O   UNL d   1     -13.079   5.684   9.094 -0.01 -0.79    -0.364    13.746
ATOM      9  P   UNL d   1     -14.208   5.406  10.270 -0.06 -0.03    -0.015    13.746
ATOM     10  O   UNL d   1     -15.341   4.652   9.565 -0.05 -0.97    -0.577    13.746
ATOM     11  O   UNL d   1     -14.663   6.772  10.783 -0.05 -0.92    -0.577    13.746
ATOM     12  O   UNL d   1     -13.536   4.556  11.348 -0.54 -1.26    -0.638    13.746
ATOM     13  C   UNL d   1     -11.903   4.612   6.367 -0.41 +0.09    +0.073    13.746
ATOM     14  O   UNL d   1     -12.113   4.135   5.196 -0.69 -0.47    -0.547    13.746
ATOM     15  O   UNL d   1     -11.281   3.991   7.302 -0.57 -0.97    -0.547    13.746
TER
ENDMDL


AVSFLD: # AVS field file
AVSFLD: #
AVSFLD: # Created by AutoDock
AVSFLD: #
AVSFLD: ndim=2           # number of dimensions in the field
AVSFLD: nspace=1         # number of physical coordinates
AVSFLD: veclen=7         # vector size
AVSFLD: dim1=15          # atoms
AVSFLD: dim2=4           # conformations
AVSFLD: data=Real       # data type (byte,integer,Real,double)
AVSFLD: field=uniform    # field coordinate layout
AVSFLD: label= x y z vdW Elec q RMS
AVSFLD: variable 1 file = D:/Protein_go_brrr/autodock/final/mut_Y35F/2_3_BPG/dock.dlg.pdb filetype = ascii offset = 5 stride = 12
AVSFLD: variable 2 file = D:/Protein_go_brrr/autodock/final/mut_Y35F/2_3_BPG/dock.dlg.pdb filetype = ascii offset = 6 stride = 12
AVSFLD: variable 3 file = D:/Protein_go_brrr/autodock/final/mut_Y35F/2_3_BPG/dock.dlg.pdb filetype = ascii offset = 7 stride = 12
AVSFLD: variable 4 file = D:/Protein_go_brrr/autodock/final/mut_Y35F/2_3_BPG/dock.dlg.pdb filetype = ascii offset = 8 stride = 12
AVSFLD: variable 5 file = D:/Protein_go_brrr/autodock/final/mut_Y35F/2_3_BPG/dock.dlg.pdb filetype = ascii offset = 9 stride = 12
AVSFLD: variable 6 file = D:/Protein_go_brrr/autodock/final/mut_Y35F/2_3_BPG/dock.dlg.pdb filetype = ascii offset = 10 stride = 12
AVSFLD: variable 7 file = D:/Protein_go_brrr/autodock/final/mut_Y35F/2_3_BPG/dock.dlg.pdb filetype = ascii offset = 11 stride = 12
AVSFLD: # end of file

>>> Closing the docking parameter file (DPF)...
This docking finished at:			7:11 13" a.m., 10/05/2025


________________________________________________________________________________

D:/autodockScripts/autodock4.exe: Successful Completion on "ACER"

Real= 4h 42m 00.17s,  CPU= 5m 26.95s,  System= 33.27s
________________________________________________________________________________

