          AutoDock 4.2 Release 4.2.6   
         (C) 1989-2012 The Scripps Research Institute
        AutoDock comes with ABSOLUTELY NO WARRANTY.
        AutoDock is free software, and you are welcome
        to redistribute it under certain conditions;
        for details type 'autodock4 -C'

                     main.cc  $Revision: 1.213 $

                   Compiled on Jul 18 2014 at 15:34:58


This file was created at:			0:22 47" a.m., 10/02/2025
                   on host:		"ACER"
Current Working Directory = "D:\Protein_go_brrr\autodock\final\AncMH_nat\heme_Fe"

      ________________________________________________________________

                   SETTING UP DEFAULT PARAMETER LIBRARY
      ________________________________________________________________


Random number generator was seeded with values 138016, 1759357367.
Docking parameter file (DPF) used for this docking:		D:/Protein_go_brrr/autodock/final/AncMH_nat/heme_Fe/dock.dpf
DPF> autodock_parameter_version 4.2       # used by autodock to validate parameter set

	Autodock parameter version 4.2.
DPF> outlev 1                             # diagnostic output level

Output Level = 1  ADT-COMPATIBLE OUTPUT DURING DOCKING.
DPF> intelec                              # calculate internal electrostatics

Electrostatic energies will be calculated for all non-bonds between moving atoms.
DPF> seed pid time                        # seeds for random generator

Random number generator was seeded with values 138016, 1759357367.
DPF> ligand_types A C OA N Fe HD          # atoms types in ligand

DPF> fld opt_AncMH_nat.maps.fld           # grid_data_file

Opening Grid Map Dimensions file:		opt_AncMH_nat.maps.fld
Grid Point Spacing =				0.425 Angstroms

Even Number of User-specified Grid Points =	126 x-points
						126 y-points
						126 z-points

Coordinates of Central Grid Point of Maps =	(-1.644, 0.366, 1.789)
Macromolecule file used to create Grid Maps =	opt_AncMH_nat.pdbqt
Grid Parameter file used to create Grid Maps =	D:/Protein_go_brrr/autodock/final/AncMH_nat/heme_Fe/grid.gpf
Minimum coordinates in grid = (-28.419, -26.409, -24.986)
Maximum coordinates in grid = (25.131, 27.141, 28.564)

DPF> map opt_AncMH_nat.A.map              # atom-specific affinity map

DPF> map opt_AncMH_nat.C.map              # atom-specific affinity map

DPF> map opt_AncMH_nat.OA.map             # atom-specific affinity map

DPF> map opt_AncMH_nat.N.map              # atom-specific affinity map

DPF> map opt_AncMH_nat.Fe.map             # atom-specific affinity map

DPF> map opt_AncMH_nat.HD.map             # atom-specific affinity map

DPF> elecmap opt_AncMH_nat.e.map          # electrostatics map

DPF> desolvmap opt_AncMH_nat.d.map        # desolvation map

DPF> move heme_Fe_opt.pdbqt               # small molecule

1,4-interactions will be _ignored_ in the non-bonded internal energy calculation.

Ligand PDBQT file = "heme_Fe_opt.pdbqt"

INPUT LIGAND PDBQT FILE:
________________________

INPUT-LIGAND-PDBQT: REMARK  10 active torsions:
INPUT-LIGAND-PDBQT: REMARK  status: ('A' for Active; 'I' for Inactive)
INPUT-LIGAND-PDBQT: REMARK    1  A    between atoms: C_6  and  C_10 
INPUT-LIGAND-PDBQT: REMARK    2  A    between atoms: C_10  and  C_11 
INPUT-LIGAND-PDBQT: REMARK    3  A    between atoms: C_11  and  C_12 
INPUT-LIGAND-PDBQT: REMARK    4  A    between atoms: C_12  and  O_14 
INPUT-LIGAND-PDBQT: REMARK    5  A    between atoms: C_17  and  C_20 
INPUT-LIGAND-PDBQT: REMARK    6  A    between atoms: C_24  and  C_27 
INPUT-LIGAND-PDBQT: REMARK    7  A    between atoms: C_31  and  C_34 
INPUT-LIGAND-PDBQT: REMARK    8  A    between atoms: C_34  and  C_35 
INPUT-LIGAND-PDBQT: REMARK    9  A    between atoms: C_35  and  C_36 
INPUT-LIGAND-PDBQT: REMARK   10  A    between atoms: C_36  and  O_38 
INPUT-LIGAND-PDBQT: ROOT
INPUT-LIGAND-PDBQT: ATOM      1  C   UNL d   1      -2.155  -0.060   0.485  0.00  0.00     0.064 C 
INPUT-LIGAND-PDBQT: ATOM      2  C   UNL d   1       1.497  -3.385   0.291  0.00  0.00     0.064 A 
INPUT-LIGAND-PDBQT: ATOM      3  C   UNL d   1       4.660   0.212  -0.062  0.00  0.00     0.064 C 
INPUT-LIGAND-PDBQT: ATOM      4  C   UNL d   1       1.133   3.443   0.018  0.00  0.00     0.064 C 
INPUT-LIGAND-PDBQT: ATOM      5  C   UNL d   1      -1.427  -1.332   0.379  0.00  0.00     0.066 A 
INPUT-LIGAND-PDBQT: ATOM      6  C   UNL d   1      -2.022  -2.582   0.331  0.00  0.00    -0.021 A 
INPUT-LIGAND-PDBQT: ATOM      7  C   UNL d   1      -1.007  -3.505   0.281  0.00  0.00    -0.025 A 
INPUT-LIGAND-PDBQT: ATOM      8  C   UNL d   1       0.170  -2.782   0.300  0.00  0.00     0.066 A 
INPUT-LIGAND-PDBQT: ATOM      9  C   UNL d   1      -1.169  -4.992   0.200  0.00  0.00     0.051 C 
INPUT-LIGAND-PDBQT: ATOM     10  C   UNL d   1       2.647  -2.710   0.251  0.00  0.00     0.066 A 
INPUT-LIGAND-PDBQT: ATOM     11  C   UNL d   1       3.903  -3.312   0.359  0.00  0.00    -0.021 A 
INPUT-LIGAND-PDBQT: ATOM     12  C   UNL d   1       4.832  -2.294   0.277  0.00  0.00     0.000 A 
INPUT-LIGAND-PDBQT: ATOM     13  C   UNL d   1       4.087  -1.111   0.130  0.00  0.00     0.070 A 
INPUT-LIGAND-PDBQT: ATOM     14  C   UNL d   1       4.202  -4.778   0.598  0.00  0.00     0.052 C 
INPUT-LIGAND-PDBQT: ATOM     15  C   UNL d   1       3.948   1.360  -0.152  0.00  0.00     0.066 A 
INPUT-LIGAND-PDBQT: ATOM     16  C   UNL d   1       4.526   2.591  -0.435  0.00  0.00    -0.021 A 
INPUT-LIGAND-PDBQT: ATOM     17  C   UNL d   1       3.511   3.525  -0.409  0.00  0.00     0.000 A 
INPUT-LIGAND-PDBQT: ATOM     18  C   UNL d   1       2.336   2.841  -0.106  0.00  0.00     0.070 A 
INPUT-LIGAND-PDBQT: ATOM     19  C   UNL d   1       5.979   2.885  -0.695  0.00  0.00     0.052 C 
INPUT-LIGAND-PDBQT: ATOM     20  C   UNL d   1      -0.134   2.748   0.275  0.00  0.00     0.066 A 
INPUT-LIGAND-PDBQT: ATOM     21  C   UNL d   1      -1.347   3.370   0.603  0.00  0.00    -0.025 A 
INPUT-LIGAND-PDBQT: ATOM     22  C   UNL d   1      -2.273   2.354   0.719  0.00  0.00    -0.021 A 
INPUT-LIGAND-PDBQT: ATOM     23  C   UNL d   1      -1.591   1.158   0.465  0.00  0.00     0.066 A 
INPUT-LIGAND-PDBQT: ATOM     24  C   UNL d   1      -1.629   4.841   0.803  0.00  0.00     0.051 C 
INPUT-LIGAND-PDBQT: ATOM     25  N   UNL d   1      -0.089  -1.460   0.350  0.00  0.00    -0.248 N 
INPUT-LIGAND-PDBQT: ATOM     26  N   UNL d   1       2.755  -1.363   0.123  0.00  0.00    -0.248 N 
INPUT-LIGAND-PDBQT: ATOM     27  N   UNL d   1       2.596   1.504   0.009  0.00  0.00    -0.248 N 
INPUT-LIGAND-PDBQT: ATOM     28  N   UNL d   1      -0.277   1.401   0.239  0.00  0.00    -0.248 N 
INPUT-LIGAND-PDBQT: ATOM     29 FE   UNL d   1       1.239   0.021   0.181  0.00  0.00     0.000 Fe
INPUT-LIGAND-PDBQT: ENDROOT
INPUT-LIGAND-PDBQT: BRANCH   6  30
INPUT-LIGAND-PDBQT: ATOM     30  C   UNL d   1      -3.481  -2.886   0.312  0.00  0.00     0.052 C 
INPUT-LIGAND-PDBQT: BRANCH  30  31
INPUT-LIGAND-PDBQT: ATOM     31  C   UNL d   1      -4.006  -2.926  -1.119  0.00  0.00     0.115 C 
INPUT-LIGAND-PDBQT: BRANCH  31  32
INPUT-LIGAND-PDBQT: ATOM     32  C   UNL d   1      -5.478  -3.232  -1.131  0.00  0.00     0.139 C 
INPUT-LIGAND-PDBQT: ATOM     33  O   UNL d   1      -6.086  -3.411  -0.085  0.00  0.00    -0.650 OA
INPUT-LIGAND-PDBQT: BRANCH  32  34
INPUT-LIGAND-PDBQT: ATOM     34  O   UNL d   1      -6.141  -3.312  -2.297  0.00  0.00    -0.776 OA
INPUT-LIGAND-PDBQT: ATOM     35  H   UNL d   1      -7.088  -3.510  -2.286  0.00  0.00     0.167 HD
INPUT-LIGAND-PDBQT: ENDBRANCH  32  34
INPUT-LIGAND-PDBQT: ENDBRANCH  31  32
INPUT-LIGAND-PDBQT: ENDBRANCH  30  31
INPUT-LIGAND-PDBQT: ENDBRANCH   6  30
INPUT-LIGAND-PDBQT: BRANCH  22  36
INPUT-LIGAND-PDBQT: ATOM     36  C   UNL d   1      -3.720   2.522   1.101  0.00  0.00     0.052 C 
INPUT-LIGAND-PDBQT: BRANCH  36  37
INPUT-LIGAND-PDBQT: ATOM     37  C   UNL d   1      -4.581   2.559  -0.153  0.00  0.00     0.115 C 
INPUT-LIGAND-PDBQT: BRANCH  37  38
INPUT-LIGAND-PDBQT: ATOM     38  C   UNL d   1      -6.035   2.706   0.196  0.00  0.00     0.139 C 
INPUT-LIGAND-PDBQT: ATOM     39  O   UNL d   1      -6.394   2.778   1.362  0.00  0.00    -0.650 OA
INPUT-LIGAND-PDBQT: BRANCH  38  40
INPUT-LIGAND-PDBQT: ATOM     40  O   UNL d   1      -6.958   2.756  -0.781  0.00  0.00    -0.776 OA
INPUT-LIGAND-PDBQT: ATOM     41  H   UNL d   1      -7.891   2.847  -0.542  0.00  0.00     0.167 HD
INPUT-LIGAND-PDBQT: ENDBRANCH  38  40
INPUT-LIGAND-PDBQT: ENDBRANCH  37  38
INPUT-LIGAND-PDBQT: ENDBRANCH  36  37
INPUT-LIGAND-PDBQT: ENDBRANCH  22  36
INPUT-LIGAND-PDBQT: BRANCH  12  42
INPUT-LIGAND-PDBQT: ATOM     42  C   UNL d   1       6.314  -2.479   0.357  0.00  0.00     0.004 C 
INPUT-LIGAND-PDBQT: ATOM     43  C   UNL d   1       6.931  -3.422  -0.367  0.00  0.00     0.012 C 
INPUT-LIGAND-PDBQT: ENDBRANCH  12  42
INPUT-LIGAND-PDBQT: BRANCH  17  44
INPUT-LIGAND-PDBQT: ATOM     44  C   UNL d   1       3.653   4.974  -0.677  0.00  0.00     0.004 C 
INPUT-LIGAND-PDBQT: ATOM     45  C   UNL d   1       4.222   5.409  -1.806  0.00  0.00     0.012 C 
INPUT-LIGAND-PDBQT: ENDBRANCH  17  44
INPUT-LIGAND-PDBQT: TORSDOF 10
________________________________________________________________________________

Total charge on ligand                               =	-2.002 e
REMARK  10 active torsions:
REMARK  status: ('A' for Active; 'I' for Inactive)
REMARK    1  A    between atoms: C_6  and  C_10 
REMARK    2  A    between atoms: C_10  and  C_11 
REMARK    3  A    between atoms: C_11  and  C_12 
REMARK    4  A    between atoms: C_12  and  O_14 
REMARK    5  A    between atoms: C_17  and  C_20 
REMARK    6  A    between atoms: C_24  and  C_27 
REMARK    7  A    between atoms: C_31  and  C_34 
REMARK    8  A    between atoms: C_34  and  C_35 
REMARK    9  A    between atoms: C_35  and  C_36 
REMARK   10  A    between atoms: C_36  and  O_38 


Number of Rotatable Bonds in Small Molecule =	10 torsions
Number of atoms in ligand:  45

Number of non-hydrogen atoms in ligand:  43

Number of vibrational degrees of freedom of ligand:  129


Number of torsional degrees of freedom = 10
Estimated loss of torsional free energy upon binding = +2.9830 kcal/mol


DPF> about -0.174 -0.001 -0.047            # small molecule center

Small molecule center of rotation =	(-0.174, -0.001, -0.047)

DPF> tran0 random                         # initial coordinates/A or random

Initial translation =			(-25.634, 26.173, 9.766) Angstroms
DPF> quaternion0 random                   # initial orientation

Each run will begin with a new, random initial orientation.
Initial quaternion,  (x,y,z,w) =	( 0.050, 0.394, 0.220, 0.891 ),
DPF> dihe0 random                         # initial dihedrals (relative) or random

DPF> torsdof 10                            # torsional degrees of freedom

Number of torsional degrees of freedom = 10
Free energy coefficient for torsional degrees of freedom = 0.2983, the factory default value.

Estimated loss of torsional free energy upon binding = +2.9830 kcal/mol

DPF> rmstol 2.0                           # cluster_tolerance/A

Maximum RMS tolerance for conformational cluster analysis = 2.00 Angstroms
DPF> extnrg 1000.0                        # external grid energy

External grid energy (beyond grid map walls) = 1000.00

DPF> e0max 0.0 10000                      # max initial energy; max number of retries

Using user-specified maximum number of retries for simanneal initialization, 10000 retries.
If the simanneal initial energy is greater than e0max, 0.000,
then a new, random initial state will be created.

DPF> ga_pop_size 150                      # number of individuals in population

A population of 150 individuals will be used
DPF> ga_num_evals 25000000                # maximum number of energy evaluations

There will be at most 25000000 function evaluations used.
DPF> ga_num_generations 27000             # maximum number of generations

The GA will run for at most 27000 generations.
DPF> ga_elitism 1                         # number of top individuals to survive to next generation

The 1 best will be preserved each GA generation.
DPF> ga_mutation_rate 0.02                # rate of gene mutation

The mutation rate is 0.020000.
DPF> ga_crossover_rate 0.8                # rate of crossover

The crossover rate is 0.800000.
DPF> ga_window_size 10                    # 

The GA's selection window is 10 generations.
DPF> ga_cauchy_alpha 0.0                  # Alpha parameter of Cauchy distribution

The alpha parameter (for the Cauchy distribution) is being set to 0.000000.
DPF> ga_cauchy_beta 1.0                   # Beta parameter Cauchy distribution

The beta parameter (for the Cauchy distribution) is being set to 1.000000.
DPF> set_ga                               # set the above parameters for GA or LGA

DPF> sw_max_its 300                       # iterations of Solis & Wets local search

Solis & Wets algorithms will perform at most 300 iterations.
DPF> sw_max_succ 4                        # consecutive successes before changing rho

Solis & Wets algorithms expand rho every 4 in a row successes.
DPF> sw_max_fail 4                        # consecutive failures before changing rho

Solis & Wets algorithms contract rho every 4 in a row failures.
DPF> sw_rho 1.0                           # size of local search space to sample

rho is set to 1.000000.
DPF> sw_lb_rho 0.01                       # lower bound on rho

rho will never get smaller than 0.010000.
DPF> ls_search_freq 0.06                  # probability of performing local search on individual

Local search will be performed with frequency 0.060000.
DPF> set_psw1                             # set the above pseudo-Solis & Wets parameters

Creating a new Local Search object using the pseudo-Solis-Wets algorithm (pSW1) with the current settings.

DPF> unbound_model bound                  # state of unbound ligand

DPF> ga_run 100                           # do this many hybrid GA-LS runs

centering ligand on specified point: -0.174 -0.001 -0.047
Furthest true ligand atom from "about" center is 8.241 Angstroms (maxrad).
Number of requested GA dockings = 100 runs
Unbound model to be used is 'same as bound' [AutoDock 4.2 default].

	BEGINNING GENETIC ALGORITHM DOCKING 1 of 100
Run: 1 Seed: 233483832 610812161 [ Run 1 of 100 GA/GALS ]
Beginning LAMARCKIAN GENETIC ALGORITHM (LGA), with a maximum of 25000000 energy evaluations.

Final-Value: -14.507


	FINAL GENETIC ALGORITHM DOCKED STATE
	_______________________________________________


Detailed state:  trans -14.245 -0.966 2.936 quatxyzw 0.772563 0.010634 0.218339 -0.596122 center -0.174 -0.001 -0.047 ntor 10 -140.2933 144.1604 177.5247 57.0709 -113.3510 136.4634 -130.8168 92.1798 -42.0705 -166.7185
State:	-14.245  -0.966   2.936   0.962  0.013  0.272 -106.815   -140.29  144.16  177.52   57.07 -113.35  136.46 -130.82   92.18  -42.07 -166.72

DOCKED: MODEL        1
DOCKED: USER    Run = 1
DOCKED: USER    DPF = D:/Protein_go_brrr/autodock/final/AncMH_nat/heme_Fe/dock.dpf
DOCKED: USER  
DOCKED: USER    Estimated Free Energy of Binding    =  -10.83 kcal/mol  [=(1)+(2)+(3)-(4)]
DOCKED: USER    Estimated Inhibition Constant, Ki   =   11.60 nM (nanomolar)  [Temperature = 298.15 K]
DOCKED: USER    
DOCKED: USER    (1) Final Intermolecular Energy     =  -13.81 kcal/mol
DOCKED: USER        vdW + Hbond + desolv Energy     =  -10.34 kcal/mol
DOCKED: USER        Electrostatic Energy            =   -3.47 kcal/mol
DOCKED: USER    (2) Final Total Internal Energy     =   -0.70 kcal/mol
DOCKED: USER    (3) Torsional Free Energy           =   +2.98 kcal/mol
DOCKED: USER    (4) Unbound System's Energy  [=(2)] =   -0.70 kcal/mol
DOCKED: USER    
DOCKED: USER    
DOCKED: USER    NEWDPF move heme_Fe_opt.pdbqt
DOCKED: USER    NEWDPF about -0.174000 -0.001000 -0.047000
DOCKED: USER    NEWDPF tran0 -14.245283 -0.966343 2.936200
DOCKED: USER    NEWDPF quaternion0 0.772563 0.010634 0.218339 -0.596122
DOCKED: USER    NEWDPF axisangle0 0.962223 0.013244 0.271941 -106.814734
DOCKED: USER    NEWDPF quat0 0.962223 0.013244 0.271941 -106.814734
DOCKED: USER    NEWDPF dihe0 -140.29 144.16 177.52 57.07 -113.35 136.46 -130.82 92.18 -42.07 -166.72 
DOCKED: USER  keepresnum = 1 
DOCKED: USER  
DOCKED: REMARK  10 active torsions:
DOCKED: REMARK  status: ('A' for Active; 'I' for Inactive)
DOCKED: REMARK    1  A    between atoms: C_6  and  C_10 
DOCKED: REMARK    2  A    between atoms: C_10  and  C_11 
DOCKED: REMARK    3  A    between atoms: C_11  and  C_12 
DOCKED: REMARK    4  A    between atoms: C_12  and  O_14 
DOCKED: REMARK    5  A    between atoms: C_17  and  C_20 
DOCKED: REMARK    6  A    between atoms: C_24  and  C_27 
DOCKED: REMARK    7  A    between atoms: C_31  and  C_34 
DOCKED: REMARK    8  A    between atoms: C_34  and  C_35 
DOCKED: REMARK    9  A    between atoms: C_35  and  C_36 
DOCKED: REMARK   10  A    between atoms: C_36  and  O_38 
DOCKED: USER                              x       y       z     vdW  Elec       q    Type
DOCKED: USER                           _______ _______ _______ _____ _____    ______ ____
DOCKED: ROOT
DOCKED: ATOM      1  C   UNL d   1     -15.836  -1.985   2.135 -0.15 +0.07    +0.064 C 
DOCKED: ATOM      2  C   UNL d   1     -11.790   0.164   0.281 -0.25 +0.05    +0.064 A 
DOCKED: ATOM      3  C   UNL d   1      -9.930   0.324   4.706 -0.18 +0.02    +0.064 C 
DOCKED: ATOM      4  C   UNL d   1     -13.880  -1.660   6.536 -0.35 +0.02    +0.064 C 
DOCKED: ATOM      5  C   UNL d   1     -14.905  -1.319   1.215 -0.19 +0.08    +0.066 A 
DOCKED: ATOM      6  C   UNL d   1     -15.155  -1.078  -0.126 -0.16 -0.03    -0.021 A 
DOCKED: ATOM      7  C   UNL d   1     -14.029  -0.485  -0.642 -0.14 -0.03    -0.025 A 
DOCKED: ATOM      8  C   UNL d   1     -13.134  -0.385   0.406 -0.21 +0.08    +0.066 A 
DOCKED: ATOM      9  C   UNL d   1     -13.842  -0.025  -2.055 -0.18 +0.05    +0.051 C 
DOCKED: ATOM     10  C   UNL d   1     -10.929   0.324   1.287 -0.28 +0.04    +0.066 A 
DOCKED: ATOM     11  C   UNL d   1      -9.608   0.747   1.116 -0.37 -0.01    -0.021 A 
DOCKED: ATOM     12  C   UNL d   1      -9.045   0.785   2.376 -0.36 +0.00    +0.000 A 
DOCKED: ATOM     13  C   UNL d   1     -10.059   0.372   3.258 -0.27 +0.02    +0.070 A 
DOCKED: ATOM     14  C   UNL d   1      -8.897   1.034  -0.190 -0.40 +0.01    +0.052 C 
DOCKED: ATOM     15  C   UNL d   1     -10.886  -0.123   5.555 -0.39 +0.02    +0.066 A 
DOCKED: ATOM     16  C   UNL d   1     -10.762  -0.059   6.937 -0.46 -0.00    -0.021 A 
DOCKED: ATOM     17  C   UNL d   1     -11.899  -0.634   7.467 -0.44 +0.00    +0.000 A 
DOCKED: ATOM     18  C   UNL d   1     -12.689  -1.039   6.394 -0.35 +0.01    +0.070 A 
DOCKED: ATOM     19  C   UNL d   1      -9.611   0.496   7.731 -0.39 +0.01    +0.052 C 
DOCKED: ATOM     20  C   UNL d   1     -14.767  -2.045   5.432 -0.19 +0.03    +0.066 A 
DOCKED: ATOM     21  C   UNL d   1     -15.901  -2.861   5.550 -0.14 -0.01    -0.025 A 
DOCKED: ATOM     22  C   UNL d   1     -16.450  -2.930   4.286 -0.09 -0.01    -0.021 A 
DOCKED: ATOM     23  C   UNL d   1     -15.630  -2.163   3.450 -0.12 +0.05    +0.066 A 
DOCKED: ATOM     24  C   UNL d   1     -16.445  -3.548   6.781 -0.22 +0.02    +0.051 C 
DOCKED: ATOM     25  N   UNL d   1     -13.674  -0.885   1.536 -0.17 -0.27    -0.248 N 
DOCKED: ATOM     26  N   UNL d   1     -11.205   0.082   2.593 -0.15 -0.12    -0.248 N 
DOCKED: ATOM     27  N   UNL d   1     -12.087  -0.686   5.218 -0.25 -0.07    -0.248 N 
DOCKED: ATOM     28  N   UNL d   1     -14.580  -1.662   4.145 -0.12 -0.15    -0.248 N 
DOCKED: ATOM     29 FE   UNL d   1     -12.893  -0.791   3.371 -0.06 +0.00    +0.000 Fe
DOCKED: ENDROOT
DOCKED: BRANCH   6  30
DOCKED: ATOM     30  C   UNL d   1     -16.407  -1.377  -0.878 -0.14 +0.06    +0.052 C 
DOCKED: BRANCH  30  31
DOCKED: ATOM     31  C   UNL d   1     -17.629  -0.896  -0.104 -0.06 +0.12    +0.115 C 
DOCKED: BRANCH  31  32
DOCKED: ATOM     32  C   UNL d   1     -17.439   0.524   0.351 +0.05 +0.23    +0.139 C 
DOCKED: ATOM     33  O   UNL d   1     -17.342   0.790   1.541 -0.35 -1.25    -0.650 OA
DOCKED: BRANCH  32  34
DOCKED: ATOM     34  O   UNL d   1     -17.374   1.519  -0.550 -0.09 -1.41    -0.776 OA
DOCKED: ATOM     35  H   UNL d   1     -17.964   1.497  -1.317 +0.02 +0.18    +0.167 HD
DOCKED: ENDBRANCH  32  34
DOCKED: ENDBRANCH  31  32
DOCKED: ENDBRANCH  30  31
DOCKED: ENDBRANCH   6  30
DOCKED: BRANCH  22  36
DOCKED: ATOM     36  C   UNL d   1     -17.666  -3.729   3.898 -0.08 +0.03    +0.052 C 
DOCKED: BRANCH  36  37
DOCKED: ATOM     37  C   UNL d   1     -17.343  -5.215   3.955 -0.12 +0.06    +0.115 C 
DOCKED: BRANCH  37  38
DOCKED: ATOM     38  C   UNL d   1     -16.793  -5.698   2.643 -0.03 +0.13    +0.139 C 
DOCKED: ATOM     39  O   UNL d   1     -15.828  -6.446   2.607 -0.45 -0.67    -0.650 OA
DOCKED: BRANCH  38  40
DOCKED: ATOM     40  O   UNL d   1     -17.363  -5.303   1.490 -0.20 -0.92    -0.776 OA
DOCKED: ATOM     41  H   UNL d   1     -18.323  -5.190   1.455 +0.02 +0.13    +0.167 HD
DOCKED: ENDBRANCH  38  40
DOCKED: ENDBRANCH  37  38
DOCKED: ENDBRANCH  36  37
DOCKED: ENDBRANCH  22  36
DOCKED: BRANCH  12  42
DOCKED: ATOM     42  C   UNL d   1      -7.632   1.175   2.670 -0.41 +0.00    +0.004 C 
DOCKED: ATOM     43  C   UNL d   1      -6.879   0.455   3.513 -0.39 +0.00    +0.012 C 
DOCKED: ENDBRANCH  12  42
DOCKED: BRANCH  17  44
DOCKED: ATOM     44  C   UNL d   1     -12.218  -0.768   8.906 -0.51 +0.00    +0.004 C 
DOCKED: ATOM     45  C   UNL d   1     -13.209  -0.060   9.457 -0.56 +0.00    +0.012 C 
DOCKED: ENDBRANCH  17  44
DOCKED: TORSDOF 10
DOCKED: TER
DOCKED: ENDMDL
________________________________________________________________________________


	BEGINNING GENETIC ALGORITHM DOCKING 2 of 100
Run: 2 Seed: 111699597 2108680199 [ Run 2 of 100 GA/GALS ]
Beginning LAMARCKIAN GENETIC ALGORITHM (LGA), with a maximum of 25000000 energy evaluations.

Final-Value: -15.013


	FINAL GENETIC ALGORITHM DOCKED STATE
	_______________________________________________


Detailed state:  trans -14.373 -1.539 3.198 quatxyzw 0.613323 0.229916 -0.068828 0.752486 center -0.174 -0.001 -0.047 ntor 10 -46.1707 -124.7646 71.3763 -160.3649 69.4528 12.1159 -98.9055 -119.8894 179.8064 140.9809
State:	-14.373  -1.539   3.198   0.931  0.349 -0.105 82.388    -46.17 -124.76   71.38 -160.36   69.45   12.12  -98.91 -119.89  179.81  140.98

DOCKED: MODEL        2
DOCKED: USER    Run = 2
DOCKED: USER    DPF = D:/Protein_go_brrr/autodock/final/AncMH_nat/heme_Fe/dock.dpf
DOCKED: USER  
DOCKED: USER    Estimated Free Energy of Binding    =  -10.26 kcal/mol  [=(1)+(2)+(3)-(4)]
DOCKED: USER    Estimated Inhibition Constant, Ki   =   30.16 nM (nanomolar)  [Temperature = 298.15 K]
DOCKED: USER    
DOCKED: USER    (1) Final Intermolecular Energy     =  -13.24 kcal/mol
DOCKED: USER        vdW + Hbond + desolv Energy     =   -9.75 kcal/mol
DOCKED: USER        Electrostatic Energy            =   -3.50 kcal/mol
DOCKED: USER    (2) Final Total Internal Energy     =   -1.77 kcal/mol
DOCKED: USER    (3) Torsional Free Energy           =   +2.98 kcal/mol
DOCKED: USER    (4) Unbound System's Energy  [=(2)] =   -1.77 kcal/mol
DOCKED: USER    
DOCKED: USER    
DOCKED: USER    NEWDPF move heme_Fe_opt.pdbqt
DOCKED: USER    NEWDPF about -0.174000 -0.001000 -0.047000
DOCKED: USER    NEWDPF tran0 -14.372716 -1.538721 3.197954
DOCKED: USER    NEWDPF quaternion0 0.613323 0.229916 -0.068828 0.752486
DOCKED: USER    NEWDPF axisangle0 0.931242 0.349094 -0.104506 82.387548
DOCKED: USER    NEWDPF quat0 0.931242 0.349094 -0.104506 82.387548
DOCKED: USER    NEWDPF dihe0 -46.17 -124.76 71.38 -160.36 69.45 12.12 -98.91 -119.89 179.81 140.98 
DOCKED: USER  keepresnum = 1 
DOCKED: USER  
DOCKED: REMARK  10 active torsions:
DOCKED: REMARK  status: ('A' for Active; 'I' for Inactive)
DOCKED: REMARK    1  A    between atoms: C_6  and  C_10 
DOCKED: REMARK    2  A    between atoms: C_10  and  C_11 
DOCKED: REMARK    3  A    between atoms: C_11  and  C_12 
DOCKED: REMARK    4  A    between atoms: C_12  and  O_14 
DOCKED: REMARK    5  A    between atoms: C_17  and  C_20 
DOCKED: REMARK    6  A    between atoms: C_24  and  C_27 
DOCKED: REMARK    7  A    between atoms: C_31  and  C_34 
DOCKED: REMARK    8  A    between atoms: C_34  and  C_35 
DOCKED: REMARK    9  A    between atoms: C_35  and  C_36 
DOCKED: REMARK   10  A    between atoms: C_36  and  O_38 
DOCKED: USER                              x       y       z     vdW  Elec       q    Type
DOCKED: USER                           _______ _______ _______ _____ _____    ______ ____
DOCKED: ROOT
DOCKED: ATOM      1  C   UNL d   1     -16.365  -1.842   2.812 -0.12 +0.06    +0.064 C 
DOCKED: ATOM      2  C   UNL d   1     -13.644  -1.399   6.914 -0.34 +0.01    +0.064 A 
DOCKED: ATOM      3  C   UNL d   1     -10.051   0.363   4.257 -0.26 +0.02    +0.064 C 
DOCKED: ATOM      4  C   UNL d   1     -12.630  -0.156   0.261 -0.26 +0.07    +0.064 C 
DOCKED: ATOM      5  C   UNL d   1     -15.902  -1.959   4.201 -0.10 +0.04    +0.066 A 
DOCKED: ATOM      6  C   UNL d   1     -16.631  -2.529   5.232 -0.10 -0.01    -0.021 A 
DOCKED: ATOM      7  C   UNL d   1     -15.876  -2.402   6.372 -0.17 -0.01    -0.025 A 
DOCKED: ATOM      8  C   UNL d   1     -14.714  -1.759   5.992 -0.20 +0.02    +0.066 A 
DOCKED: ATOM      9  C   UNL d   1     -16.250  -2.891   7.738 -0.26 +0.01    +0.051 C 
DOCKED: ATOM     10  C   UNL d   1     -12.488  -0.831   6.564 -0.36 +0.01    +0.066 A 
DOCKED: ATOM     11  C   UNL d   1     -11.531  -0.393   7.483 -0.46 -0.00    -0.021 A 
DOCKED: ATOM     12  C   UNL d   1     -10.492   0.134   6.743 -0.47 +0.00    +0.000 A 
DOCKED: ATOM     13  C   UNL d   1     -10.877  -0.002   5.397 -0.39 +0.02    +0.070 A 
DOCKED: ATOM     14  C   UNL d   1     -11.631  -0.414   8.995 -0.50 +0.01    +0.052 C 
DOCKED: ATOM     15  C   UNL d   1     -10.438   0.281   2.962 -0.23 +0.02    +0.066 A 
DOCKED: ATOM     16  C   UNL d   1      -9.585   0.545   1.898 -0.35 -0.01    -0.021 A 
DOCKED: ATOM     17  C   UNL d   1     -10.327   0.399   0.744 -0.36 +0.00    +0.000 A 
DOCKED: ATOM     18  C   UNL d   1     -11.619   0.054   1.133 -0.26 +0.05    +0.070 A 
DOCKED: ATOM     19  C   UNL d   1      -8.135   0.944   1.960 -0.41 +0.01    +0.052 C 
DOCKED: ATOM     20  C   UNL d   1     -13.985  -0.581   0.630 -0.20 +0.09    +0.066 A 
DOCKED: ATOM     21  C   UNL d   1     -15.089  -0.609  -0.235 -0.16 -0.04    -0.025 A 
DOCKED: ATOM     22  C   UNL d   1     -16.139  -1.104   0.509 -0.15 -0.03    -0.021 A 
DOCKED: ATOM     23  C   UNL d   1     -15.640  -1.353   1.793 -0.16 +0.08    +0.066 A 
DOCKED: ATOM     24  C   UNL d   1     -15.162  -0.189  -1.685 -0.15 +0.06    +0.051 C 
DOCKED: ATOM     25  N   UNL d   1     -14.729  -1.500   4.669 -0.10 -0.13    -0.248 N 
DOCKED: ATOM     26  N   UNL d   1     -12.097  -0.582   5.289 -0.26 -0.07    -0.248 N 
DOCKED: ATOM     27  N   UNL d   1     -11.677  -0.062   2.494 -0.16 -0.15    -0.248 N 
DOCKED: ATOM     28  N   UNL d   1     -14.337  -0.990   1.873 -0.15 -0.28    -0.248 N 
DOCKED: ATOM     29 FE   UNL d   1     -13.217  -0.785   3.579 -0.06 +0.00    +0.000 Fe
DOCKED: ENDROOT
DOCKED: BRANCH   6  30
DOCKED: ATOM     30  C   UNL d   1     -17.968  -3.181   5.138 -0.09 +0.02    +0.052 C 
DOCKED: BRANCH  30  31
DOCKED: ATOM     31  C   UNL d   1     -19.082  -2.167   5.377 -0.05 +0.06    +0.115 C 
DOCKED: BRANCH  31  32
DOCKED: ATOM     32  C   UNL d   1     -19.357  -1.384   4.124 -0.06 +0.11    +0.139 C 
DOCKED: ATOM     33  O   UNL d   1     -19.876  -1.920   3.155 +0.04 -0.46    -0.650 OA
DOCKED: BRANCH  32  34
DOCKED: ATOM     34  O   UNL d   1     -19.034  -0.081   4.058 +0.03 -1.09    -0.776 OA
DOCKED: ATOM     35  H   UNL d   1     -18.574   0.249   3.273 +0.02 +0.26    +0.167 HD
DOCKED: ENDBRANCH  32  34
DOCKED: ENDBRANCH  31  32
DOCKED: ENDBRANCH  30  31
DOCKED: ENDBRANCH   6  30
DOCKED: BRANCH  22  36
DOCKED: ATOM     36  C   UNL d   1     -17.554  -1.282   0.025 -0.08 +0.05    +0.052 C 
DOCKED: BRANCH  36  37
DOCKED: ATOM     37  C   UNL d   1     -18.503  -0.485   0.908 -0.05 +0.12    +0.115 C 
DOCKED: BRANCH  37  38
DOCKED: ATOM     38  C   UNL d   1     -18.156   0.976   0.891 -0.10 +0.22    +0.139 C 
DOCKED: ATOM     39  O   UNL d   1     -17.369   1.422   0.070 -0.12 -1.40    -0.650 OA
DOCKED: BRANCH  38  40
DOCKED: ATOM     40  O   UNL d   1     -18.712   1.809   1.789 -0.51 -1.76    -0.776 OA
DOCKED: ATOM     41  H   UNL d   1     -18.627   1.608   2.732 +0.04 +0.49    +0.167 HD
DOCKED: ENDBRANCH  38  40
DOCKED: ENDBRANCH  37  38
DOCKED: ENDBRANCH  36  37
DOCKED: ENDBRANCH  22  36
DOCKED: BRANCH  12  42
DOCKED: ATOM     42  C   UNL d   1      -9.248   0.733   7.318 -0.49 +0.00    +0.004 C 
DOCKED: ATOM     43  C   UNL d   1      -8.044   0.215   7.045 -0.47 +0.00    +0.012 C 
DOCKED: ENDBRANCH  12  42
DOCKED: BRANCH  17  44
DOCKED: ATOM     44  C   UNL d   1      -9.828   0.560  -0.640 -0.37 +0.00    +0.004 C 
DOCKED: ATOM     45  C   UNL d   1     -10.154   1.636  -1.365 -0.34 +0.00    +0.012 C 
DOCKED: ENDBRANCH  17  44
DOCKED: TORSDOF 10
DOCKED: TER
DOCKED: ENDMDL
________________________________________________________________________________


	BEGINNING GENETIC ALGORITHM DOCKING 3 of 100
Run: 3 Seed: 1393647490 43128493 [ Run 3 of 100 GA/GALS ]
Beginning LAMARCKIAN GENETIC ALGORITHM (LGA), with a maximum of 25000000 energy evaluations.

Final-Value: -14.438


	FINAL GENETIC ALGORITHM DOCKED STATE
	_______________________________________________


Detailed state:  trans -14.878 -1.102 3.750 quatxyzw -0.768520 -0.101222 -0.124983 0.619282 center -0.174 -0.001 -0.047 ntor 10 -171.9980 -95.6695 154.1323 56.3772 89.3105 51.3711 148.0430 -83.1881 23.0074 7.1148
State:	-14.878  -1.102   3.750  -0.979 -0.129 -0.159 103.473   -172.00  -95.67  154.13   56.38   89.31   51.37  148.04  -83.19   23.01    7.11

DOCKED: MODEL        3
DOCKED: USER    Run = 3
DOCKED: USER    DPF = D:/Protein_go_brrr/autodock/final/AncMH_nat/heme_Fe/dock.dpf
DOCKED: USER  
DOCKED: USER    Estimated Free Energy of Binding    =   -9.74 kcal/mol  [=(1)+(2)+(3)-(4)]
DOCKED: USER    Estimated Inhibition Constant, Ki   =   72.52 nM (nanomolar)  [Temperature = 298.15 K]
DOCKED: USER    
DOCKED: USER    (1) Final Intermolecular Energy     =  -12.72 kcal/mol
DOCKED: USER        vdW + Hbond + desolv Energy     =   -9.64 kcal/mol
DOCKED: USER        Electrostatic Energy            =   -3.08 kcal/mol
DOCKED: USER    (2) Final Total Internal Energy     =   -1.71 kcal/mol
DOCKED: USER    (3) Torsional Free Energy           =   +2.98 kcal/mol
DOCKED: USER    (4) Unbound System's Energy  [=(2)] =   -1.71 kcal/mol
DOCKED: USER    
DOCKED: USER    
DOCKED: USER    NEWDPF move heme_Fe_opt.pdbqt
DOCKED: USER    NEWDPF about -0.174000 -0.001000 -0.047000
DOCKED: USER    NEWDPF tran0 -14.877908 -1.101863 3.750285
DOCKED: USER    NEWDPF quaternion0 -0.768520 -0.101222 -0.124983 0.619282
DOCKED: USER    NEWDPF axisangle0 -0.978796 -0.128917 -0.159180 103.472508
DOCKED: USER    NEWDPF quat0 -0.978796 -0.128917 -0.159180 103.472508
DOCKED: USER    NEWDPF dihe0 -172.00 -95.67 154.13 56.38 89.31 51.37 148.04 -83.19 23.01 7.11 
DOCKED: USER  keepresnum = 1 
DOCKED: USER  
DOCKED: REMARK  10 active torsions:
DOCKED: REMARK  status: ('A' for Active; 'I' for Inactive)
DOCKED: REMARK    1  A    between atoms: C_6  and  C_10 
DOCKED: REMARK    2  A    between atoms: C_10  and  C_11 
DOCKED: REMARK    3  A    between atoms: C_11  and  C_12 
DOCKED: REMARK    4  A    between atoms: C_12  and  O_14 
DOCKED: REMARK    5  A    between atoms: C_17  and  C_20 
DOCKED: REMARK    6  A    between atoms: C_24  and  C_27 
DOCKED: REMARK    7  A    between atoms: C_31  and  C_34 
DOCKED: REMARK    8  A    between atoms: C_34  and  C_35 
DOCKED: REMARK    9  A    between atoms: C_35  and  C_36 
DOCKED: REMARK   10  A    between atoms: C_36  and  O_38 
DOCKED: USER                              x       y       z     vdW  Elec       q    Type
DOCKED: USER                           _______ _______ _______ _____ _____    ______ ____
DOCKED: ROOT
DOCKED: ATOM      1  C   UNL d   1     -16.588  -2.197   3.453 -0.10 +0.05    +0.064 C 
DOCKED: ATOM      2  C   UNL d   1     -13.189  -0.177   0.487 -0.21 +0.08    +0.064 A 
DOCKED: ATOM      3  C   UNL d   1     -10.299   0.367   4.284 -0.32 +0.02    +0.064 C 
DOCKED: ATOM      4  C   UNL d   1     -13.615  -1.488   7.190 -0.42 +0.01    +0.064 C 
DOCKED: ATOM      5  C   UNL d   1     -15.932  -1.603   2.280 -0.13 +0.07    +0.066 A 
DOCKED: ATOM      6  C   UNL d   1     -16.512  -1.477   1.029 -0.13 -0.02    -0.021 A 
DOCKED: ATOM      7  C   UNL d   1     -15.566  -0.920   0.205 -0.17 -0.03    -0.025 A 
DOCKED: ATOM      8  C   UNL d   1     -14.444  -0.726   0.986 -0.20 +0.09    +0.066 A 
DOCKED: ATOM      9  C   UNL d   1     -15.747  -0.579  -1.243 -0.15 +0.06    +0.051 C 
DOCKED: ATOM     10  C   UNL d   1     -12.110   0.073   1.231 -0.25 +0.06    +0.066 A 
DOCKED: ATOM     11  C   UNL d   1     -10.886   0.491   0.705 -0.31 -0.01    -0.021 A 
DOCKED: ATOM     12  C   UNL d   1     -10.030   0.639   1.778 -0.34 +0.00    +0.000 A 
DOCKED: ATOM     13  C   UNL d   1     -10.782   0.293   2.914 -0.24 +0.03    +0.070 A 
DOCKED: ATOM     14  C   UNL d   1     -10.527   0.674  -0.756 -0.35 +0.02    +0.052 C 
DOCKED: ATOM     15  C   UNL d   1     -11.001  -0.014   5.376 -0.39 +0.02    +0.066 A 
DOCKED: ATOM     16  C   UNL d   1     -10.542   0.166   6.675 -0.46 -0.00    -0.021 A 
DOCKED: ATOM     17  C   UNL d   1     -11.496  -0.372   7.515 -0.48 +0.00    +0.000 A 
DOCKED: ATOM     18  C   UNL d   1     -12.514  -0.872   6.707 -0.37 +0.01    +0.070 A 
DOCKED: ATOM     19  C   UNL d   1      -9.247   0.795   7.112 -0.42 +0.01    +0.052 C 
DOCKED: ATOM     20  C   UNL d   1     -14.736  -1.972   6.374 -0.23 +0.02    +0.066 A 
DOCKED: ATOM     21  C   UNL d   1     -15.781  -2.784   6.835 -0.21 -0.01    -0.025 A 
DOCKED: ATOM     22  C   UNL d   1     -16.623  -2.964   5.757 -0.12 -0.01    -0.021 A 
DOCKED: ATOM     23  C   UNL d   1     -16.058  -2.262   4.685 -0.09 +0.04    +0.066 A 
DOCKED: ATOM     24  C   UNL d   1     -15.984  -3.370   8.213 -0.36 +0.01    +0.051 C 
DOCKED: ATOM     25  N   UNL d   1     -14.672  -1.133   2.250 -0.14 -0.26    -0.248 N 
DOCKED: ATOM     26  N   UNL d   1     -12.048  -0.061   2.581 -0.17 -0.16    -0.248 N 
DOCKED: ATOM     27  N   UNL d   1     -12.232  -0.614   5.394 -0.26 -0.07    -0.248 N 
DOCKED: ATOM     28  N   UNL d   1     -14.884  -1.697   5.056 -0.10 -0.12    -0.248 N 
DOCKED: ATOM     29 FE   UNL d   1     -13.466  -0.879   3.820 -0.06 +0.00    +0.000 Fe
DOCKED: ENDROOT
DOCKED: BRANCH   6  30
DOCKED: ATOM     30  C   UNL d   1     -17.902  -1.848   0.638 -0.07 +0.05    +0.052 C 
DOCKED: BRANCH  30  31
DOCKED: ATOM     31  C   UNL d   1     -18.719  -0.605   0.305 -0.02 +0.10    +0.115 C 
DOCKED: BRANCH  31  32
DOCKED: ATOM     32  C   UNL d   1     -18.266   0.562   1.137 -0.11 +0.20    +0.139 C 
DOCKED: ATOM     33  O   UNL d   1     -17.370   1.297   0.745 -0.17 -1.49    -0.650 OA
DOCKED: BRANCH  32  34
DOCKED: ATOM     34  O   UNL d   1     -18.843   0.808   2.325 -0.21 -1.48    -0.776 OA
DOCKED: ATOM     35  H   UNL d   1     -19.467   0.163   2.687 +0.02 +0.27    +0.167 HD
DOCKED: ENDBRANCH  32  34
DOCKED: ENDBRANCH  31  32
DOCKED: ENDBRANCH  30  31
DOCKED: ENDBRANCH   6  30
DOCKED: BRANCH  22  36
DOCKED: ATOM     36  C   UNL d   1     -17.874  -3.802   5.747 -0.11 +0.02    +0.052 C 
DOCKED: BRANCH  36  37
DOCKED: ATOM     37  C   UNL d   1     -19.098  -2.900   5.802 -0.06 +0.05    +0.115 C 
DOCKED: BRANCH  37  38
DOCKED: ATOM     38  C   UNL d   1     -19.642  -2.646   4.425 -0.02 +0.08    +0.139 C 
DOCKED: ATOM     39  O   UNL d   1     -19.877  -3.574   3.665 +0.03 -0.31    -0.650 OA
DOCKED: BRANCH  38  40
DOCKED: ATOM     40  O   UNL d   1     -19.873  -1.386   4.016 +0.04 -0.64    -0.776 OA
DOCKED: ATOM     41  H   UNL d   1     -19.141  -0.869   3.649 +0.03 +0.17    +0.167 HD
DOCKED: ENDBRANCH  38  40
DOCKED: ENDBRANCH  37  38
DOCKED: ENDBRANCH  36  37
DOCKED: ENDBRANCH  22  36
DOCKED: BRANCH  12  42
DOCKED: ATOM     42  C   UNL d   1      -8.599   1.064   1.680 -0.44 +0.00    +0.004 C 
DOCKED: ATOM     43  C   UNL d   1      -7.726   0.776   2.655 -0.41 +0.00    +0.012 C 
DOCKED: ENDBRANCH  12  42
DOCKED: BRANCH  17  44
DOCKED: ATOM     44  C   UNL d   1     -11.445  -0.387   8.994 -0.52 +0.00    +0.004 C 
DOCKED: ATOM     45  C   UNL d   1     -12.281   0.367   9.716 -0.46 +0.00    +0.012 C 
DOCKED: ENDBRANCH  17  44
DOCKED: TORSDOF 10
DOCKED: TER
DOCKED: ENDMDL
________________________________________________________________________________


	BEGINNING GENETIC ALGORITHM DOCKING 4 of 100
Run: 4 Seed: 1809332584 82619985 [ Run 4 of 100 GA/GALS ]
Beginning LAMARCKIAN GENETIC ALGORITHM (LGA), with a maximum of 25000000 energy evaluations.

Final-Value: -16.762


	FINAL GENETIC ALGORITHM DOCKED STATE
	_______________________________________________


Detailed state:  trans -10.348 0.954 3.298 quatxyzw 0.795796 -0.045895 0.130271 -0.589604 center -0.174 -0.001 -0.047 ntor 10 74.0380 -93.7652 51.0805 -116.1557 177.3614 -121.6653 -26.2181 59.9732 172.1226 120.7302
State:	-10.348   0.954   3.298   0.985 -0.057  0.161 -107.742     74.04  -93.77   51.08 -116.16  177.36 -121.67  -26.22   59.97  172.12  120.73

DOCKED: MODEL        4
DOCKED: USER    Run = 4
DOCKED: USER    DPF = D:/Protein_go_brrr/autodock/final/AncMH_nat/heme_Fe/dock.dpf
DOCKED: USER  
DOCKED: USER    Estimated Free Energy of Binding    =  -12.03 kcal/mol  [=(1)+(2)+(3)-(4)]
DOCKED: USER    Estimated Inhibition Constant, Ki   =    1.51 nM (nanomolar)  [Temperature = 298.15 K]
DOCKED: USER    
DOCKED: USER    (1) Final Intermolecular Energy     =  -15.02 kcal/mol
DOCKED: USER        vdW + Hbond + desolv Energy     =  -11.93 kcal/mol
DOCKED: USER        Electrostatic Energy            =   -3.09 kcal/mol
DOCKED: USER    (2) Final Total Internal Energy     =   -1.74 kcal/mol
DOCKED: USER    (3) Torsional Free Energy           =   +2.98 kcal/mol
DOCKED: USER    (4) Unbound System's Energy  [=(2)] =   -1.74 kcal/mol
DOCKED: USER    
DOCKED: USER    
DOCKED: USER    NEWDPF move heme_Fe_opt.pdbqt
DOCKED: USER    NEWDPF about -0.174000 -0.001000 -0.047000
DOCKED: USER    NEWDPF tran0 -10.348366 0.953854 3.298095
DOCKED: USER    NEWDPF quaternion0 0.795796 -0.045895 0.130271 -0.589604
DOCKED: USER    NEWDPF axisangle0 0.985270 -0.056822 0.161287 -107.742206
DOCKED: USER    NEWDPF quat0 0.985270 -0.056822 0.161287 -107.742206
DOCKED: USER    NEWDPF dihe0 74.04 -93.77 51.08 -116.16 177.36 -121.67 -26.22 59.97 172.12 120.73 
DOCKED: USER  keepresnum = 1 
DOCKED: USER  
DOCKED: REMARK  10 active torsions:
DOCKED: REMARK  status: ('A' for Active; 'I' for Inactive)
DOCKED: REMARK    1  A    between atoms: C_6  and  C_10 
DOCKED: REMARK    2  A    between atoms: C_10  and  C_11 
DOCKED: REMARK    3  A    between atoms: C_11  and  C_12 
DOCKED: REMARK    4  A    between atoms: C_12  and  O_14 
DOCKED: REMARK    5  A    between atoms: C_17  and  C_20 
DOCKED: REMARK    6  A    between atoms: C_24  and  C_27 
DOCKED: REMARK    7  A    between atoms: C_31  and  C_34 
DOCKED: REMARK    8  A    between atoms: C_34  and  C_35 
DOCKED: REMARK    9  A    between atoms: C_35  and  C_36 
DOCKED: REMARK   10  A    between atoms: C_36  and  O_38 
DOCKED: USER                              x       y       z     vdW  Elec       q    Type
DOCKED: USER                           _______ _______ _______ _____ _____    ______ ____
DOCKED: ROOT
DOCKED: ATOM      1  C   UNL d   1     -12.159   0.306   2.581 -0.33 +0.05    +0.064 C 
DOCKED: ATOM      2  C   UNL d   1      -7.922   1.784   0.508 -0.35 +0.01    +0.064 A 
DOCKED: ATOM      3  C   UNL d   1      -5.749   1.294   4.763 -0.10 +0.00    +0.064 C 
DOCKED: ATOM      4  C   UNL d   1      -9.862  -0.038   6.813 -0.41 +0.01    +0.064 C 
DOCKED: ATOM      5  C   UNL d   1     -11.187   0.848   1.622 -0.27 +0.04    +0.066 A 
DOCKED: ATOM      6  C   UNL d   1     -11.483   1.221   0.321 -0.26 -0.02    -0.021 A 
DOCKED: ATOM      7  C   UNL d   1     -10.305   1.628  -0.255 -0.29 -0.01    -0.025 A 
DOCKED: ATOM      8  C   UNL d   1      -9.334   1.488   0.718 -0.32 +0.02    +0.066 A 
DOCKED: ATOM      9  C   UNL d   1     -10.136   2.139  -1.653 -0.23 +0.01    +0.051 C 
DOCKED: ATOM     10  C   UNL d   1      -6.975   1.712   1.445 -0.38 +0.01    +0.066 A 
DOCKED: ATOM     11  C   UNL d   1      -5.614   1.892   1.187 -0.42 -0.00    -0.021 A 
DOCKED: ATOM     12  C   UNL d   1      -4.964   1.738   2.395 -0.36 +0.00    +0.000 A 
DOCKED: ATOM     13  C   UNL d   1      -5.971   1.463   3.336 -0.33 +0.00    +0.070 A 
DOCKED: ATOM     14  C   UNL d   1      -4.958   2.129  -0.158 -0.53 -0.00    +0.052 C 
DOCKED: ATOM     15  C   UNL d   1      -6.708   0.977   5.665 -0.33 +0.01    +0.066 A 
DOCKED: ATOM     16  C   UNL d   1      -6.475   0.922   7.033 -0.42 -0.00    -0.021 A 
DOCKED: ATOM     17  C   UNL d   1      -7.659   0.535   7.626 -0.45 +0.00    +0.000 A 
DOCKED: ATOM     18  C   UNL d   1      -8.587   0.358   6.603 -0.36 +0.01    +0.070 A 
DOCKED: ATOM     19  C   UNL d   1      -5.184   1.198   7.756 -0.54 -0.00    +0.052 C 
DOCKED: ATOM     20  C   UNL d   1     -10.884  -0.175   5.768 -0.39 +0.02    +0.066 A 
DOCKED: ATOM     21  C   UNL d   1     -12.141  -0.771   5.938 -0.38 -0.01    -0.025 A 
DOCKED: ATOM     22  C   UNL d   1     -12.784  -0.651   4.724 -0.29 -0.01    -0.021 A 
DOCKED: ATOM     23  C   UNL d   1     -11.896   0.005   3.863 -0.28 +0.03    +0.066 A 
DOCKED: ATOM     24  C   UNL d   1     -12.715  -1.426   7.173 -0.34 +0.01    +0.051 C 
DOCKED: ATOM     25  N   UNL d   1      -9.875   1.022   1.861 -0.19 -0.08    -0.248 N 
DOCKED: ATOM     26  N   UNL d   1      -7.196   1.438   2.756 -0.22 -0.03    -0.248 N 
DOCKED: ATOM     27  N   UNL d   1      -8.017   0.672   5.401 +0.02 -0.08    -0.248 N 
DOCKED: ATOM     28  N   UNL d   1     -10.721   0.252   4.493 -0.24 -0.08    -0.248 N 
DOCKED: ATOM     29 FE   UNL d   1      -8.959   0.844   3.626 -0.08 +0.00    +0.000 Fe
DOCKED: ENDROOT
DOCKED: BRANCH   6  30
DOCKED: ATOM     30  C   UNL d   1     -12.820   1.213  -0.337 +0.02 +0.08    +0.052 C 
DOCKED: BRANCH  30  31
DOCKED: ATOM     31  C   UNL d   1     -12.997  -0.040  -1.187 -0.18 +0.11    +0.115 C 
DOCKED: BRANCH  31  32
DOCKED: ATOM     32  C   UNL d   1     -14.454  -0.385  -1.320 -0.14 +0.17    +0.139 C 
DOCKED: ATOM     33  O   UNL d   1     -14.810  -1.332  -2.007 +0.01 -0.69    -0.650 OA
DOCKED: BRANCH  32  34
DOCKED: ATOM     34  O   UNL d   1     -15.382   0.349  -0.682 -0.10 -1.49    -0.776 OA
DOCKED: ATOM     35  H   UNL d   1     -15.817  -0.021   0.099 +0.03 +0.33    +0.167 HD
DOCKED: ENDBRANCH  32  34
DOCKED: ENDBRANCH  31  32
DOCKED: ENDBRANCH  30  31
DOCKED: ENDBRANCH   6  30
DOCKED: BRANCH  22  36
DOCKED: ATOM     36  C   UNL d   1     -14.155  -1.181   4.398 -0.17 +0.03    +0.052 C 
DOCKED: BRANCH  36  37
DOCKED: ATOM     37  C   UNL d   1     -14.174  -1.714   2.972 -0.23 +0.09    +0.115 C 
DOCKED: BRANCH  37  38
DOCKED: ATOM     38  C   UNL d   1     -15.198  -0.994   2.141 -0.19 +0.16    +0.139 C 
DOCKED: ATOM     39  O   UNL d   1     -16.101  -1.607   1.593 +0.01 -0.73    -0.650 OA
DOCKED: BRANCH  38  40
DOCKED: ATOM     40  O   UNL d   1     -15.123   0.341   1.992 -0.00 -1.50    -0.776 OA
DOCKED: ATOM     41  H   UNL d   1     -14.566   0.705   1.290 +0.07 +0.46    +0.167 HD
DOCKED: ENDBRANCH  38  40
DOCKED: ENDBRANCH  37  38
DOCKED: ENDBRANCH  36  37
DOCKED: ENDBRANCH  22  36
DOCKED: BRANCH  12  42
DOCKED: ATOM     42  C   UNL d   1      -3.484   1.837   2.589 -0.37 -0.00    +0.004 C 
DOCKED: ATOM     43  C   UNL d   1      -2.923   2.964   3.048 -0.48 -0.00    +0.012 C 
DOCKED: ENDBRANCH  12  42
DOCKED: BRANCH  17  44
DOCKED: ATOM     44  C   UNL d   1      -7.892   0.366   9.078 -0.44 +0.00    +0.004 C 
DOCKED: ATOM     45  C   UNL d   1      -7.210  -0.546   9.779 -0.64 +0.00    +0.012 C 
DOCKED: ENDBRANCH  17  44
DOCKED: TORSDOF 10
DOCKED: TER
DOCKED: ENDMDL
________________________________________________________________________________


	BEGINNING GENETIC ALGORITHM DOCKING 5 of 100
Run: 5 Seed: 1834488288 972604053 [ Run 5 of 100 GA/GALS ]
Beginning LAMARCKIAN GENETIC ALGORITHM (LGA), with a maximum of 25000000 energy evaluations.

Final-Value: -15.323


	FINAL GENETIC ALGORITHM DOCKED STATE
	_______________________________________________


Detailed state:  trans -11.402 -0.385 2.103 quatxyzw 0.567121 0.329330 0.098824 0.748431 center -0.174 -0.001 -0.047 ntor 10 16.9183 -119.5366 30.9257 -125.6284 96.3965 150.4334 -51.6858 52.9127 179.2094 -155.1031
State:	-11.402  -0.385   2.103   0.855  0.497  0.149 83.091     16.92 -119.54   30.93 -125.63   96.40  150.43  -51.69   52.91  179.21 -155.10

DOCKED: MODEL        5
DOCKED: USER    Run = 5
DOCKED: USER    DPF = D:/Protein_go_brrr/autodock/final/AncMH_nat/heme_Fe/dock.dpf
DOCKED: USER  
DOCKED: USER    Estimated Free Energy of Binding    =  -10.92 kcal/mol  [=(1)+(2)+(3)-(4)]
DOCKED: USER    Estimated Inhibition Constant, Ki   =    9.84 nM (nanomolar)  [Temperature = 298.15 K]
DOCKED: USER    
DOCKED: USER    (1) Final Intermolecular Energy     =  -13.91 kcal/mol
DOCKED: USER        vdW + Hbond + desolv Energy     =  -10.59 kcal/mol
DOCKED: USER        Electrostatic Energy            =   -3.32 kcal/mol
DOCKED: USER    (2) Final Total Internal Energy     =   -1.42 kcal/mol
DOCKED: USER    (3) Torsional Free Energy           =   +2.98 kcal/mol
DOCKED: USER    (4) Unbound System's Energy  [=(2)] =   -1.42 kcal/mol
DOCKED: USER    
DOCKED: USER    
DOCKED: USER    NEWDPF move heme_Fe_opt.pdbqt
DOCKED: USER    NEWDPF about -0.174000 -0.001000 -0.047000
DOCKED: USER    NEWDPF tran0 -11.401547 -0.384512 2.102711
DOCKED: USER    NEWDPF quaternion0 0.567121 0.329330 0.098824 0.748431
DOCKED: USER    NEWDPF axisangle0 0.855112 0.496568 0.149008 83.090631
DOCKED: USER    NEWDPF quat0 0.855112 0.496568 0.149008 83.090631
DOCKED: USER    NEWDPF dihe0 16.92 -119.54 30.93 -125.63 96.40 150.43 -51.69 52.91 179.21 -155.10 
DOCKED: USER  keepresnum = 1 
DOCKED: USER  
DOCKED: REMARK  10 active torsions:
DOCKED: REMARK  status: ('A' for Active; 'I' for Inactive)
DOCKED: REMARK    1  A    between atoms: C_6  and  C_10 
DOCKED: REMARK    2  A    between atoms: C_10  and  C_11 
DOCKED: REMARK    3  A    between atoms: C_11  and  C_12 
DOCKED: REMARK    4  A    between atoms: C_12  and  O_14 
DOCKED: REMARK    5  A    between atoms: C_17  and  C_20 
DOCKED: REMARK    6  A    between atoms: C_24  and  C_27 
DOCKED: REMARK    7  A    between atoms: C_31  and  C_34 
DOCKED: REMARK    8  A    between atoms: C_34  and  C_35 
DOCKED: REMARK    9  A    between atoms: C_35  and  C_36 
DOCKED: REMARK   10  A    between atoms: C_36  and  O_38 
DOCKED: USER                              x       y       z     vdW  Elec       q    Type
DOCKED: USER                           _______ _______ _______ _____ _____    ______ ____
DOCKED: ROOT
DOCKED: ATOM      1  C   UNL d   1     -13.148  -0.365   1.025 -0.28 +0.07    +0.064 C 
DOCKED: ATOM      2  C   UNL d   1     -12.019  -0.840   5.813 -0.33 +0.01    +0.064 A 
DOCKED: ATOM      3  C   UNL d   1      -7.594   0.764   4.858 -0.06 +0.02    +0.064 C 
DOCKED: ATOM      4  C   UNL d   1      -8.632   1.131   0.203 -0.43 +0.01    +0.064 C 
DOCKED: ATOM      5  C   UNL d   1     -13.215  -0.727   2.447 -0.25 +0.06    +0.066 A 
DOCKED: ATOM      6  C   UNL d   1     -14.302  -1.326   3.060 -0.23 -0.02    -0.021 A 
DOCKED: ATOM      7  C   UNL d   1     -13.990  -1.454   4.391 -0.24 -0.01    -0.025 A 
DOCKED: ATOM      8  C   UNL d   1     -12.721  -0.928   4.539 -0.23 +0.03    +0.066 A 
DOCKED: ATOM      9  C   UNL d   1     -14.858  -2.066   5.447 -0.23 +0.02    +0.051 C 
DOCKED: ATOM     10  C   UNL d   1     -10.774  -0.389   5.975 -0.36 +0.01    +0.066 A 
DOCKED: ATOM     11  C   UNL d   1     -10.170  -0.210   7.221 -0.20 -0.00    -0.021 A 
DOCKED: ATOM     12  C   UNL d   1      -8.898   0.268   6.974 -0.41 +0.00    +0.000 A 
DOCKED: ATOM     13  C   UNL d   1      -8.794   0.364   5.576 -0.04 +0.02    +0.070 A 
DOCKED: ATOM     14  C   UNL d   1     -10.797  -0.419   8.585 -0.48 +0.01    +0.052 C 
DOCKED: ATOM     15  C   UNL d   1      -7.504   0.908   3.515 -0.26 +0.01    +0.066 A 
DOCKED: ATOM     16  C   UNL d   1      -6.313   1.195   2.861 -0.36 -0.00    -0.021 A 
DOCKED: ATOM     17  C   UNL d   1      -6.611   1.305   1.518 -0.40 +0.00    +0.000 A 
DOCKED: ATOM     18  C   UNL d   1      -7.981   1.086   1.386 -0.38 +0.01    +0.070 A 
DOCKED: ATOM     19  C   UNL d   1      -4.952   1.385   3.473 +0.03 +0.00    +0.052 C 
DOCKED: ATOM     20  C   UNL d   1     -10.060   0.846   0.017 -0.32 +0.02    +0.066 A 
DOCKED: ATOM     21  C   UNL d   1     -10.787   1.082  -1.158 -0.29 -0.01    -0.025 A 
DOCKED: ATOM     22  C   UNL d   1     -12.068   0.636  -0.906 -0.24 -0.02    -0.021 A 
DOCKED: ATOM     23  C   UNL d   1     -12.074   0.155   0.409 -0.24 +0.06    +0.066 A 
DOCKED: ATOM     24  C   UNL d   1     -10.311   1.697  -2.454 -0.27 +0.01    +0.051 C 
DOCKED: ATOM     25  N   UNL d   1     -12.249  -0.494   3.353 -0.13 -0.14    -0.248 N 
DOCKED: ATOM     26  N   UNL d   1      -9.940  -0.028   4.966 -0.25 -0.08    -0.248 N 
DOCKED: ATOM     27  N   UNL d   1      -8.523   0.799   2.607 -0.22 -0.06    -0.248 N 
DOCKED: ATOM     28  N   UNL d   1     -10.858   0.326   0.981 -0.17 -0.13    -0.248 N 
DOCKED: ATOM     29 FE   UNL d   1     -10.398   0.150   2.972 -0.07 +0.00    +0.000 Fe
DOCKED: ENDROOT
DOCKED: BRANCH   6  30
DOCKED: ATOM     30  C   UNL d   1     -15.568  -1.775   2.413 -0.18 +0.05    +0.052 C 
DOCKED: BRANCH  30  31
DOCKED: ATOM     31  C   UNL d   1     -16.615  -0.668   2.448 -0.14 +0.13    +0.115 C 
DOCKED: BRANCH  31  32
DOCKED: ATOM     32  C   UNL d   1     -17.178  -0.433   1.074 -0.09 +0.18    +0.139 C 
DOCKED: ATOM     33  O   UNL d   1     -18.225  -0.963   0.730 +0.04 -0.62    -0.650 OA
DOCKED: BRANCH  32  34
DOCKED: ATOM     34  O   UNL d   1     -16.532   0.365   0.207 -0.47 -1.67    -0.776 OA
DOCKED: ATOM     35  H   UNL d   1     -17.008   0.705  -0.563 +0.02 +0.28    +0.167 HD
DOCKED: ENDBRANCH  32  34
DOCKED: ENDBRANCH  31  32
DOCKED: ENDBRANCH  30  31
DOCKED: ENDBRANCH   6  30
DOCKED: BRANCH  22  36
DOCKED: ATOM     36  C   UNL d   1     -13.231   0.716  -1.860 -0.18 +0.05    +0.052 C 
DOCKED: BRANCH  36  37
DOCKED: ATOM     37  C   UNL d   1     -13.471   2.165  -2.257 -0.11 +0.11    +0.115 C 
DOCKED: BRANCH  37  38
DOCKED: ATOM     38  C   UNL d   1     -14.907   2.551  -2.042 +0.23 +0.22    +0.139 C 
DOCKED: ATOM     39  O   UNL d   1     -15.211   3.704  -1.775 -0.35 -1.21    -0.650 OA
DOCKED: BRANCH  38  40
DOCKED: ATOM     40  O   UNL d   1     -15.874   1.622  -2.141 +0.01 -1.02    -0.776 OA
DOCKED: ATOM     41  H   UNL d   1     -15.855   0.859  -1.546 +0.02 +0.25    +0.167 HD
DOCKED: ENDBRANCH  38  40
DOCKED: ENDBRANCH  37  38
DOCKED: ENDBRANCH  36  37
DOCKED: ENDBRANCH  22  36
DOCKED: BRANCH  12  42
DOCKED: ATOM     42  C   UNL d   1      -7.894   0.613   8.027 -0.52 +0.00    +0.004 C 
DOCKED: ATOM     43  C   UNL d   1      -7.185  -0.342   8.643 -0.52 +0.00    +0.012 C 
DOCKED: ENDBRANCH  12  42
DOCKED: BRANCH  17  44
DOCKED: ATOM     44  C   UNL d   1      -5.645   1.581   0.431 -0.46 +0.00    +0.004 C 
DOCKED: ATOM     45  C   UNL d   1      -5.099   2.793   0.292 -0.57 -0.00    +0.012 C 
DOCKED: ENDBRANCH  17  44
DOCKED: TORSDOF 10
DOCKED: TER
DOCKED: ENDMDL
________________________________________________________________________________


	BEGINNING GENETIC ALGORITHM DOCKING 6 of 100
Run: 6 Seed: 929364367 967470595 [ Run 6 of 100 GA/GALS ]
Beginning LAMARCKIAN GENETIC ALGORITHM (LGA), with a maximum of 25000000 energy evaluations.

Final-Value: -12.883


	FINAL GENETIC ALGORITHM DOCKED STATE
	_______________________________________________


Detailed state:  trans -7.518 0.784 4.204 quatxyzw -0.172799 0.595612 0.778733 -0.094663 center -0.174 -0.001 -0.047 ntor 10 13.6593 165.5811 21.0502 -180.0000 -114.2377 -79.6696 -54.1880 125.8768 175.1238 -11.2441
State:	 -7.518   0.784   4.204  -0.174  0.598  0.782 -169.136     13.66  165.58   21.05 -180.00 -114.24  -79.67  -54.19  125.88  175.12  -11.24

DOCKED: MODEL        6
DOCKED: USER    Run = 6
DOCKED: USER    DPF = D:/Protein_go_brrr/autodock/final/AncMH_nat/heme_Fe/dock.dpf
DOCKED: USER  
DOCKED: USER    Estimated Free Energy of Binding    =   -9.44 kcal/mol  [=(1)+(2)+(3)-(4)]
DOCKED: USER    Estimated Inhibition Constant, Ki   =  120.87 nM (nanomolar)  [Temperature = 298.15 K]
DOCKED: USER    
DOCKED: USER    (1) Final Intermolecular Energy     =  -12.42 kcal/mol
DOCKED: USER        vdW + Hbond + desolv Energy     =  -12.49 kcal/mol
DOCKED: USER        Electrostatic Energy            =   +0.07 kcal/mol
DOCKED: USER    (2) Final Total Internal Energy     =   -0.46 kcal/mol
DOCKED: USER    (3) Torsional Free Energy           =   +2.98 kcal/mol
DOCKED: USER    (4) Unbound System's Energy  [=(2)] =   -0.46 kcal/mol
DOCKED: USER    
DOCKED: USER    
DOCKED: USER    NEWDPF move heme_Fe_opt.pdbqt
DOCKED: USER    NEWDPF about -0.174000 -0.001000 -0.047000
DOCKED: USER    NEWDPF tran0 -7.517557 0.784280 4.204236
DOCKED: USER    NEWDPF quaternion0 -0.172799 0.595612 0.778733 -0.094663
DOCKED: USER    NEWDPF axisangle0 -0.173578 0.598299 0.782246 -169.136201
DOCKED: USER    NEWDPF quat0 -0.173578 0.598299 0.782246 -169.136201
DOCKED: USER    NEWDPF dihe0 13.66 165.58 21.05 -180.00 -114.24 -79.67 -54.19 125.88 175.12 -11.24 
DOCKED: USER  keepresnum = 1 
DOCKED: USER  
DOCKED: REMARK  10 active torsions:
DOCKED: REMARK  status: ('A' for Active; 'I' for Inactive)
DOCKED: REMARK    1  A    between atoms: C_6  and  C_10 
DOCKED: REMARK    2  A    between atoms: C_10  and  C_11 
DOCKED: REMARK    3  A    between atoms: C_11  and  C_12 
DOCKED: REMARK    4  A    between atoms: C_12  and  O_14 
DOCKED: REMARK    5  A    between atoms: C_17  and  C_20 
DOCKED: REMARK    6  A    between atoms: C_24  and  C_27 
DOCKED: REMARK    7  A    between atoms: C_31  and  C_34 
DOCKED: REMARK    8  A    between atoms: C_34  and  C_35 
DOCKED: REMARK    9  A    between atoms: C_35  and  C_36 
DOCKED: REMARK   10  A    between atoms: C_36  and  O_38 
DOCKED: USER                              x       y       z     vdW  Elec       q    Type
DOCKED: USER                           _______ _______ _______ _____ _____    ______ ____
DOCKED: ROOT
DOCKED: ATOM      1  C   UNL d   1      -5.753   1.427   5.031 -0.14 +0.00    +0.064 C 
DOCKED: ATOM      2  C   UNL d   1      -7.916   1.934   0.616 -0.35 +0.01    +0.064 A 
DOCKED: ATOM      3  C   UNL d   1     -12.049   0.429   2.545 -0.34 +0.05    +0.064 C 
DOCKED: ATOM      4  C   UNL d   1      -9.950  -0.168   6.802 -0.30 +0.01    +0.064 C 
DOCKED: ATOM      5  C   UNL d   1      -5.958   1.629   3.590 -0.33 +0.00    +0.066 A 
DOCKED: ATOM      6  C   UNL d   1      -4.960   1.959   2.687 -0.35 -0.00    -0.021 A 
DOCKED: ATOM      7  C   UNL d   1      -5.563   2.103   1.462 -0.42 -0.00    -0.025 A 
DOCKED: ATOM      8  C   UNL d   1      -6.907   1.855   1.664 -0.38 +0.01    +0.066 A 
DOCKED: ATOM      9  C   UNL d   1      -4.875   2.440   0.175 -0.57 -0.00    +0.051 C 
DOCKED: ATOM     10  C   UNL d   1      -9.209   1.644   0.771 -0.32 +0.02    +0.066 A 
DOCKED: ATOM     11  C   UNL d   1     -10.172   1.839  -0.222 -0.29 -0.01    -0.021 A 
DOCKED: ATOM     12  C   UNL d   1     -11.375   1.428   0.315 -0.27 +0.00    +0.000 A 
DOCKED: ATOM     13  C   UNL d   1     -11.083   1.008   1.624 -0.27 +0.04    +0.070 A 
DOCKED: ATOM     14  C   UNL d   1      -9.967   2.450  -1.593 +0.03 +0.01    +0.052 C 
DOCKED: ATOM     15  C   UNL d   1     -11.784   0.072   3.824 -0.27 +0.03    +0.066 A 
DOCKED: ATOM     16  C   UNL d   1     -12.708  -0.569   4.639 -0.30 -0.01    -0.021 A 
DOCKED: ATOM     17  C   UNL d   1     -12.105  -0.740   5.869 -0.39 +0.00    +0.000 A 
DOCKED: ATOM     18  C   UNL d   1     -10.827  -0.194   5.775 -0.38 +0.02    +0.070 A 
DOCKED: ATOM     19  C   UNL d   1     -14.111  -0.984   4.288 -0.14 +0.03    +0.052 C 
DOCKED: ATOM     20  C   UNL d   1      -8.576   0.342   6.723 -0.37 +0.01    +0.066 A 
DOCKED: ATOM     21  C   UNL d   1      -7.728   0.558   7.819 -0.44 -0.00    -0.025 A 
DOCKED: ATOM     22  C   UNL d   1      -6.533   1.001   7.290 -0.43 -0.00    -0.021 A 
DOCKED: ATOM     23  C   UNL d   1      -6.700   1.043   5.901 -0.34 +0.01    +0.066 A 
DOCKED: ATOM     24  C   UNL d   1      -8.019   0.366   9.289 -0.29 +0.00    +0.051 C 
DOCKED: ATOM     25  N   UNL d   1      -7.143   1.558   2.958 -0.21 -0.03    -0.248 N 
DOCKED: ATOM     26  N   UNL d   1      -9.765   1.148   1.906 -0.19 -0.08    -0.248 N 
DOCKED: ATOM     27  N   UNL d   1     -10.613   0.266   4.506 -0.24 -0.08    -0.248 N 
DOCKED: ATOM     28  N   UNL d   1      -7.963   0.683   5.564 -0.06 -0.07    -0.248 N 
DOCKED: ATOM     29 FE   UNL d   1      -8.864   0.915   3.737 -0.08 +0.00    +0.000 Fe
DOCKED: ENDROOT
DOCKED: BRANCH   6  30
DOCKED: ATOM     30  C   UNL d   1      -3.504   2.109   2.968 -0.23 -0.00    +0.052 C 
DOCKED: BRANCH  30  31
DOCKED: ATOM     31  C   UNL d   1      -3.150   3.570   3.219 -0.41 -0.01    +0.115 C 
DOCKED: BRANCH  31  32
DOCKED: ATOM     32  C   UNL d   1      -2.439   3.720   4.535 -0.52 -0.01    +0.139 C 
DOCKED: ATOM     33  O   UNL d   1      -2.955   4.338   5.456 -0.01 +0.03    -0.650 OA
DOCKED: BRANCH  32  34
DOCKED: ATOM     34  O   UNL d   1      -1.224   3.174   4.712 -0.01 +0.14    -0.776 OA
DOCKED: ATOM     35  H   UNL d   1      -0.866   3.104   5.608 -0.32 -0.05    +0.167 HD
DOCKED: ENDBRANCH  32  34
DOCKED: ENDBRANCH  31  32
DOCKED: ENDBRANCH  30  31
DOCKED: ENDBRANCH   6  30
DOCKED: BRANCH  22  36
DOCKED: ATOM     36  C   UNL d   1      -5.318   1.406   8.081 -0.55 -0.00    +0.052 C 
DOCKED: BRANCH  36  37
DOCKED: ATOM     37  C   UNL d   1      -4.474   0.178   8.392 -0.51 -0.01    +0.115 C 
DOCKED: BRANCH  37  38
DOCKED: ATOM     38  C   UNL d   1      -5.291  -0.874   9.088 -0.51 -0.00    +0.139 C 
DOCKED: ATOM     39  O   UNL d   1      -5.525  -0.793  10.285 -0.04 -0.01    -0.650 OA
DOCKED: BRANCH  38  40
DOCKED: ATOM     40  O   UNL d   1      -5.769  -1.921   8.393 +0.14 +0.01    -0.776 OA
DOCKED: ATOM     41  H   UNL d   1      -5.770  -1.883   7.426 +0.13 +0.00    +0.167 HD
DOCKED: ENDBRANCH  38  40
DOCKED: ENDBRANCH  37  38
DOCKED: ENDBRANCH  36  37
DOCKED: ENDBRANCH  22  36
DOCKED: BRANCH  12  42
DOCKED: ATOM     42  C   UNL d   1     -12.690   1.469  -0.398 -0.03 +0.01    +0.004 C 
DOCKED: ATOM     43  C   UNL d   1     -12.938   0.655  -1.432 -0.22 +0.01    +0.012 C 
DOCKED: ENDBRANCH  12  42
DOCKED: BRANCH  17  44
DOCKED: ATOM     44  C   UNL d   1     -12.706  -1.400   7.050 -0.38 +0.00    +0.004 C 
DOCKED: ATOM     45  C   UNL d   1     -12.760  -0.775   8.230 -0.57 +0.00    +0.012 C 
DOCKED: ENDBRANCH  17  44
DOCKED: TORSDOF 10
DOCKED: TER
DOCKED: ENDMDL
________________________________________________________________________________


	BEGINNING GENETIC ALGORITHM DOCKING 7 of 100
Run: 7 Seed: 208863208 578443144 [ Run 7 of 100 GA/GALS ]
Beginning LAMARCKIAN GENETIC ALGORITHM (LGA), with a maximum of 25000000 energy evaluations.

Final-Value: -14.584


	FINAL GENETIC ALGORITHM DOCKED STATE
	_______________________________________________


Detailed state:  trans -14.334 -1.149 3.078 quatxyzw 0.766680 0.040509 0.215675 -0.603361 center -0.174 -0.001 -0.047 ntor 10 -149.0625 133.7940 171.0529 58.5376 -115.7141 165.4428 -142.2458 85.6509 -25.1111 -179.1547
State:	-14.334  -1.149   3.078   0.961  0.051  0.270 -105.778   -149.06  133.79  171.05   58.54 -115.71  165.44 -142.25   85.65  -25.11 -179.15

DOCKED: MODEL        7
DOCKED: USER    Run = 7
DOCKED: USER    DPF = D:/Protein_go_brrr/autodock/final/AncMH_nat/heme_Fe/dock.dpf
DOCKED: USER  
DOCKED: USER    Estimated Free Energy of Binding    =  -10.81 kcal/mol  [=(1)+(2)+(3)-(4)]
DOCKED: USER    Estimated Inhibition Constant, Ki   =   11.98 nM (nanomolar)  [Temperature = 298.15 K]
DOCKED: USER    
DOCKED: USER    (1) Final Intermolecular Energy     =  -13.79 kcal/mol
DOCKED: USER        vdW + Hbond + desolv Energy     =  -10.31 kcal/mol
DOCKED: USER        Electrostatic Energy            =   -3.48 kcal/mol
DOCKED: USER    (2) Final Total Internal Energy     =   -0.79 kcal/mol
DOCKED: USER    (3) Torsional Free Energy           =   +2.98 kcal/mol
DOCKED: USER    (4) Unbound System's Energy  [=(2)] =   -0.79 kcal/mol
DOCKED: USER    
DOCKED: USER    
DOCKED: USER    NEWDPF move heme_Fe_opt.pdbqt
DOCKED: USER    NEWDPF about -0.174000 -0.001000 -0.047000
DOCKED: USER    NEWDPF tran0 -14.333762 -1.148596 3.078473
DOCKED: USER    NEWDPF quaternion0 0.766680 0.040509 0.215675 -0.603361
DOCKED: USER    NEWDPF axisangle0 0.961393 0.050797 0.270450 -105.777997
DOCKED: USER    NEWDPF quat0 0.961393 0.050797 0.270450 -105.777997
DOCKED: USER    NEWDPF dihe0 -149.06 133.79 171.05 58.54 -115.71 165.44 -142.25 85.65 -25.11 -179.15 
DOCKED: USER  keepresnum = 1 
DOCKED: USER  
DOCKED: REMARK  10 active torsions:
DOCKED: REMARK  status: ('A' for Active; 'I' for Inactive)
DOCKED: REMARK    1  A    between atoms: C_6  and  C_10 
DOCKED: REMARK    2  A    between atoms: C_10  and  C_11 
DOCKED: REMARK    3  A    between atoms: C_11  and  C_12 
DOCKED: REMARK    4  A    between atoms: C_12  and  O_14 
DOCKED: REMARK    5  A    between atoms: C_17  and  C_20 
DOCKED: REMARK    6  A    between atoms: C_24  and  C_27 
DOCKED: REMARK    7  A    between atoms: C_31  and  C_34 
DOCKED: REMARK    8  A    between atoms: C_34  and  C_35 
DOCKED: REMARK    9  A    between atoms: C_35  and  C_36 
DOCKED: REMARK   10  A    between atoms: C_36  and  O_38 
DOCKED: USER                              x       y       z     vdW  Elec       q    Type
DOCKED: USER                           _______ _______ _______ _____ _____    ______ ____
DOCKED: ROOT
DOCKED: ATOM      1  C   UNL d   1     -15.910  -2.254   2.369 -0.14 +0.06    +0.064 C 
DOCKED: ATOM      2  C   UNL d   1     -12.025  -0.008   0.299 -0.25 +0.05    +0.064 A 
DOCKED: ATOM      3  C   UNL d   1     -10.013   0.366   4.644 -0.21 +0.02    +0.064 C 
DOCKED: ATOM      4  C   UNL d   1     -13.810  -1.711   6.682 -0.37 +0.01    +0.064 C 
DOCKED: ATOM      5  C   UNL d   1     -15.041  -1.582   1.394 -0.17 +0.08    +0.066 A 
DOCKED: ATOM      6  C   UNL d   1     -15.349  -1.394   0.057 -0.15 -0.03    -0.021 A 
DOCKED: ATOM      7  C   UNL d   1     -14.268  -0.774  -0.518 -0.02 -0.03    -0.025 A 
DOCKED: ATOM      8  C   UNL d   1     -13.340  -0.606   0.492 -0.18 +0.08    +0.066 A 
DOCKED: ATOM      9  C   UNL d   1     -14.150  -0.353  -1.951 -0.15 +0.05    +0.051 C 
DOCKED: ATOM     10  C   UNL d   1     -11.135   0.218   1.267 -0.27 +0.04    +0.066 A 
DOCKED: ATOM     11  C   UNL d   1      -9.839   0.687   1.034 -0.36 -0.01    -0.021 A 
DOCKED: ATOM     12  C   UNL d   1      -9.233   0.787   2.270 -0.36 +0.00    +0.000 A 
DOCKED: ATOM     13  C   UNL d   1     -10.196   0.363   3.201 -0.27 +0.02    +0.070 A 
DOCKED: ATOM     14  C   UNL d   1      -9.188   0.960  -0.307 -0.41 +0.01    +0.052 C 
DOCKED: ATOM     15  C   UNL d   1     -10.918  -0.090   5.542 -0.39 +0.02    +0.066 A 
DOCKED: ATOM     16  C   UNL d   1     -10.747   0.022   6.916 -0.47 -0.00    -0.021 A 
DOCKED: ATOM     17  C   UNL d   1     -11.840  -0.579   7.506 -0.46 +0.00    +0.000 A 
DOCKED: ATOM     18  C   UNL d   1     -12.651  -1.049   6.475 -0.34 +0.01    +0.070 A 
DOCKED: ATOM     19  C   UNL d   1      -9.591   0.648   7.649 -0.35 +0.01    +0.052 C 
DOCKED: ATOM     20  C   UNL d   1     -14.720  -2.166   5.623 -0.20 +0.03    +0.066 A 
DOCKED: ATOM     21  C   UNL d   1     -15.815  -3.022   5.809 -0.16 -0.01    -0.025 A 
DOCKED: ATOM     22  C   UNL d   1     -16.406  -3.153   4.570 -0.10 -0.01    -0.021 A 
DOCKED: ATOM     23  C   UNL d   1     -15.650  -2.381   3.680 -0.12 +0.05    +0.066 A 
DOCKED: ATOM     24  C   UNL d   1     -16.285  -3.690   7.081 -0.26 +0.01    +0.051 C 
DOCKED: ATOM     25  N   UNL d   1     -13.817  -1.090   1.656 -0.17 -0.27    -0.248 N 
DOCKED: ATOM     26  N   UNL d   1     -11.352   0.007   2.590 -0.15 -0.13    -0.248 N 
DOCKED: ATOM     27  N   UNL d   1     -12.108  -0.711   5.268 -0.25 -0.07    -0.248 N 
DOCKED: ATOM     28  N   UNL d   1     -14.596  -1.818   4.320 -0.11 -0.14    -0.248 N 
DOCKED: ATOM     29 FE   UNL d   1     -12.975  -0.906   3.457 -0.06 +0.00    +0.000 Fe
DOCKED: ENDROOT
DOCKED: BRANCH   6  30
DOCKED: ATOM     30  C   UNL d   1     -16.614  -1.766  -0.637 -0.13 +0.06    +0.052 C 
DOCKED: BRANCH  30  31
DOCKED: ATOM     31  C   UNL d   1     -17.790  -0.971  -0.080 -0.05 +0.11    +0.115 C 
DOCKED: BRANCH  31  32
DOCKED: ATOM     32  C   UNL d   1     -17.370   0.438   0.235 +0.02 +0.23    +0.139 C 
DOCKED: ATOM     33  O   UNL d   1     -17.385   0.850   1.387 -0.36 -1.27    -0.650 OA
DOCKED: BRANCH  32  34
DOCKED: ATOM     34  O   UNL d   1     -16.974   1.261  -0.751 -0.10 -1.48    -0.776 OA
DOCKED: ATOM     35  H   UNL d   1     -17.355   1.154  -1.633 +0.02 +0.19    +0.167 HD
DOCKED: ENDBRANCH  32  34
DOCKED: ENDBRANCH  31  32
DOCKED: ENDBRANCH  30  31
DOCKED: ENDBRANCH   6  30
DOCKED: BRANCH  22  36
DOCKED: ATOM     36  C   UNL d   1     -17.602  -4.012   4.252 -0.10 +0.03    +0.052 C 
DOCKED: BRANCH  36  37
DOCKED: ATOM     37  C   UNL d   1     -17.159  -5.451   4.039 -0.09 +0.06    +0.115 C 
DOCKED: BRANCH  37  38
DOCKED: ATOM     38  C   UNL d   1     -16.944  -5.739   2.581 -0.08 +0.12    +0.139 C 
DOCKED: ATOM     39  O   UNL d   1     -16.339  -6.739   2.223 -0.54 -0.66    -0.650 OA
DOCKED: BRANCH  38  40
DOCKED: ATOM     40  O   UNL d   1     -17.416  -4.888   1.652 -0.12 -0.84    -0.776 OA
DOCKED: ATOM     41  H   UNL d   1     -18.323  -4.561   1.732 +0.02 +0.12    +0.167 HD
DOCKED: ENDBRANCH  38  40
DOCKED: ENDBRANCH  37  38
DOCKED: ENDBRANCH  36  37
DOCKED: ENDBRANCH  22  36
DOCKED: BRANCH  12  42
DOCKED: ATOM     42  C   UNL d   1      -7.826   1.242   2.499 -0.40 +0.00    +0.004 C 
DOCKED: ATOM     43  C   UNL d   1      -7.056   0.660   3.427 -0.40 +0.00    +0.012 C 
DOCKED: ENDBRANCH  12  42
DOCKED: BRANCH  17  44
DOCKED: ATOM     44  C   UNL d   1     -12.100  -0.679   8.959 -0.52 +0.00    +0.004 C 
DOCKED: ATOM     45  C   UNL d   1     -13.117  -0.017   9.520 -0.55 +0.00    +0.012 C 
DOCKED: ENDBRANCH  17  44
DOCKED: TORSDOF 10
DOCKED: TER
DOCKED: ENDMDL
________________________________________________________________________________


	BEGINNING GENETIC ALGORITHM DOCKING 8 of 100
Run: 8 Seed: 1388099136 24805561 [ Run 8 of 100 GA/GALS ]
Beginning LAMARCKIAN GENETIC ALGORITHM (LGA), with a maximum of 25000000 energy evaluations.

Final-Value: -15.248


	FINAL GENETIC ALGORITHM DOCKED STATE
	_______________________________________________


Detailed state:  trans -14.511 -1.571 3.249 quatxyzw -0.617265 -0.228340 0.074397 -0.749206 center -0.174 -0.001 -0.047 ntor 10 -52.2322 174.7937 71.1395 -160.8520 92.0812 64.2800 -126.4616 -152.6294 174.3290 151.5671
State:	-14.511  -1.571   3.249  -0.932 -0.345  0.112 -82.957    -52.23  174.79   71.14 -160.85   92.08   64.28 -126.46 -152.63  174.33  151.57

DOCKED: MODEL        8
DOCKED: USER    Run = 8
DOCKED: USER    DPF = D:/Protein_go_brrr/autodock/final/AncMH_nat/heme_Fe/dock.dpf
DOCKED: USER  
DOCKED: USER    Estimated Free Energy of Binding    =   -9.96 kcal/mol  [=(1)+(2)+(3)-(4)]
DOCKED: USER    Estimated Inhibition Constant, Ki   =   50.25 nM (nanomolar)  [Temperature = 298.15 K]
DOCKED: USER    
DOCKED: USER    (1) Final Intermolecular Energy     =  -12.94 kcal/mol
DOCKED: USER        vdW + Hbond + desolv Energy     =   -9.36 kcal/mol
DOCKED: USER        Electrostatic Energy            =   -3.58 kcal/mol
DOCKED: USER    (2) Final Total Internal Energy     =   -2.31 kcal/mol
DOCKED: USER    (3) Torsional Free Energy           =   +2.98 kcal/mol
DOCKED: USER    (4) Unbound System's Energy  [=(2)] =   -2.31 kcal/mol
DOCKED: USER    
DOCKED: USER    
DOCKED: USER    NEWDPF move heme_Fe_opt.pdbqt
DOCKED: USER    NEWDPF about -0.174000 -0.001000 -0.047000
DOCKED: USER    NEWDPF tran0 -14.511485 -1.571244 3.248965
DOCKED: USER    NEWDPF quaternion0 -0.617265 -0.228340 0.074397 -0.749206
DOCKED: USER    NEWDPF axisangle0 -0.931950 -0.344749 0.112325 -82.956679
DOCKED: USER    NEWDPF quat0 -0.931950 -0.344749 0.112325 -82.956679
DOCKED: USER    NEWDPF dihe0 -52.23 174.79 71.14 -160.85 92.08 64.28 -126.46 -152.63 174.33 151.57 
DOCKED: USER  keepresnum = 1 
DOCKED: USER  
DOCKED: REMARK  10 active torsions:
DOCKED: REMARK  status: ('A' for Active; 'I' for Inactive)
DOCKED: REMARK    1  A    between atoms: C_6  and  C_10 
DOCKED: REMARK    2  A    between atoms: C_10  and  C_11 
DOCKED: REMARK    3  A    between atoms: C_11  and  C_12 
DOCKED: REMARK    4  A    between atoms: C_12  and  O_14 
DOCKED: REMARK    5  A    between atoms: C_17  and  C_20 
DOCKED: REMARK    6  A    between atoms: C_24  and  C_27 
DOCKED: REMARK    7  A    between atoms: C_31  and  C_34 
DOCKED: REMARK    8  A    between atoms: C_34  and  C_35 
DOCKED: REMARK    9  A    between atoms: C_35  and  C_36 
DOCKED: REMARK   10  A    between atoms: C_36  and  O_38 
DOCKED: USER                              x       y       z     vdW  Elec       q    Type
DOCKED: USER                           _______ _______ _______ _____ _____    ______ ____
DOCKED: ROOT
DOCKED: ATOM      1  C   UNL d   1     -16.505  -1.890   2.881 -0.11 +0.05    +0.064 C 
DOCKED: ATOM      2  C   UNL d   1     -13.757  -1.381   6.957 -0.33 +0.01    +0.064 A 
DOCKED: ATOM      3  C   UNL d   1     -10.192   0.365   4.253 -0.30 +0.02    +0.064 C 
DOCKED: ATOM      4  C   UNL d   1     -12.797  -0.218   0.282 -0.25 +0.07    +0.064 C 
DOCKED: ATOM      5  C   UNL d   1     -16.032  -1.987   4.269 -0.10 +0.04    +0.066 A 
DOCKED: ATOM      6  C   UNL d   1     -16.750  -2.547   5.312 -0.10 -0.01    -0.021 A 
DOCKED: ATOM      7  C   UNL d   1     -15.988  -2.402   6.444 -0.17 -0.01    -0.025 A 
DOCKED: ATOM      8  C   UNL d   1     -14.832  -1.758   6.048 -0.19 +0.02    +0.066 A 
DOCKED: ATOM      9  C   UNL d   1     -16.349  -2.875   7.819 -0.25 +0.01    +0.051 C 
DOCKED: ATOM     10  C   UNL d   1     -12.607  -0.811   6.593 -0.36 +0.01    +0.066 A 
DOCKED: ATOM     11  C   UNL d   1     -11.645  -0.357   7.499 -0.48 -0.00    -0.021 A 
DOCKED: ATOM     12  C   UNL d   1     -10.614   0.166   6.744 -0.48 +0.00    +0.000 A 
DOCKED: ATOM     13  C   UNL d   1     -11.008   0.011   5.404 -0.39 +0.02    +0.070 A 
DOCKED: ATOM     14  C   UNL d   1     -11.734  -0.359   9.011 -0.53 +0.01    +0.052 C 
DOCKED: ATOM     15  C   UNL d   1     -10.587   0.265   2.962 -0.22 +0.03    +0.066 A 
DOCKED: ATOM     16  C   UNL d   1      -9.744   0.520   1.888 -0.35 -0.01    -0.021 A 
DOCKED: ATOM     17  C   UNL d   1     -10.494   0.356   0.742 -0.35 +0.00    +0.000 A 
DOCKED: ATOM     18  C   UNL d   1     -11.781   0.008   1.144 -0.26 +0.05    +0.070 A 
DOCKED: ATOM     19  C   UNL d   1      -8.295   0.927   1.935 -0.41 +0.01    +0.052 C 
DOCKED: ATOM     20  C   UNL d   1     -14.147  -0.645   0.666 -0.20 +0.09    +0.066 A 
DOCKED: ATOM     21  C   UNL d   1     -15.257  -0.689  -0.190 -0.16 -0.04    -0.025 A 
DOCKED: ATOM     22  C   UNL d   1     -16.299  -1.180   0.568 -0.14 -0.03    -0.021 A 
DOCKED: ATOM     23  C   UNL d   1     -15.790  -1.410   1.851 -0.15 +0.07    +0.066 A 
DOCKED: ATOM     24  C   UNL d   1     -15.342  -0.288  -1.645 -0.15 +0.06    +0.051 C 
DOCKED: ATOM     25  N   UNL d   1     -14.857  -1.515   4.722 -0.09 -0.13    -0.248 N 
DOCKED: ATOM     26  N   UNL d   1     -12.226  -0.577   5.311 -0.26 -0.07    -0.248 N 
DOCKED: ATOM     27  N   UNL d   1     -11.829  -0.090   2.507 -0.16 -0.15    -0.248 N 
DOCKED: ATOM     28  N   UNL d   1     -14.488  -1.039   1.917 -0.15 -0.28    -0.248 N 
DOCKED: ATOM     29 FE   UNL d   1     -13.357  -0.807   3.612 -0.06 +0.00    +0.000 Fe
DOCKED: ENDROOT
DOCKED: BRANCH   6  30
DOCKED: ATOM     30  C   UNL d   1     -18.084  -3.207   5.236 -0.09 +0.02    +0.052 C 
DOCKED: BRANCH  30  31
DOCKED: ATOM     31  C   UNL d   1     -19.194  -2.227   5.602 -0.05 +0.06    +0.115 C 
DOCKED: BRANCH  31  32
DOCKED: ATOM     32  C   UNL d   1     -19.095  -0.983   4.762 -0.09 +0.12    +0.139 C 
DOCKED: ATOM     33  O   UNL d   1     -19.710  -0.892   3.709 +0.00 -0.67    -0.650 OA
DOCKED: BRANCH  32  34
DOCKED: ATOM     34  O   UNL d   1     -18.328   0.043   5.165 +0.03 -0.84    -0.776 OA
DOCKED: ATOM     35  H   UNL d   1     -17.670   0.406   4.554 +0.03 +0.20    +0.167 HD
DOCKED: ENDBRANCH  32  34
DOCKED: ENDBRANCH  31  32
DOCKED: ENDBRANCH  30  31
DOCKED: ENDBRANCH   6  30
DOCKED: BRANCH  22  36
DOCKED: ATOM     36  C   UNL d   1     -17.717  -1.371   0.096 -0.07 +0.05    +0.052 C 
DOCKED: BRANCH  36  37
DOCKED: ATOM     37  C   UNL d   1     -18.630  -0.376   0.797 -0.05 +0.12    +0.115 C 
DOCKED: BRANCH  37  38
DOCKED: ATOM     38  C   UNL d   1     -17.871   0.853   1.210 -0.10 +0.24    +0.139 C 
DOCKED: ATOM     39  O   UNL d   1     -17.373   1.591   0.374 +0.05 -1.54    -0.650 OA
DOCKED: BRANCH  38  40
DOCKED: ATOM     40  O   UNL d   1     -17.731   1.148   2.515 -0.25 -1.48    -0.776 OA
DOCKED: ATOM     41  H   UNL d   1     -18.191   0.607   3.172 +0.03 +0.28    +0.167 HD
DOCKED: ENDBRANCH  38  40
DOCKED: ENDBRANCH  37  38
DOCKED: ENDBRANCH  36  37
DOCKED: ENDBRANCH  22  36
DOCKED: BRANCH  12  42
DOCKED: ATOM     42  C   UNL d   1      -9.369   0.779   7.303 -0.48 +0.00    +0.004 C 
DOCKED: ATOM     43  C   UNL d   1      -8.165   0.260   7.032 -0.47 +0.00    +0.012 C 
DOCKED: ENDBRANCH  12  42
DOCKED: BRANCH  17  44
DOCKED: ATOM     44  C   UNL d   1     -10.005   0.502  -0.648 -0.37 +0.00    +0.004 C 
DOCKED: ATOM     45  C   UNL d   1     -10.349   1.561  -1.387 -0.34 +0.00    +0.012 C 
DOCKED: ENDBRANCH  17  44
DOCKED: TORSDOF 10
DOCKED: TER
DOCKED: ENDMDL
________________________________________________________________________________


	BEGINNING GENETIC ALGORITHM DOCKING 9 of 100
Run: 9 Seed: 1536475623 1770155233 [ Run 9 of 100 GA/GALS ]
Beginning LAMARCKIAN GENETIC ALGORITHM (LGA), with a maximum of 25000000 energy evaluations.

Final-Value: -15.005


	FINAL GENETIC ALGORITHM DOCKED STATE
	_______________________________________________


Detailed state:  trans -14.675 -1.672 3.400 quatxyzw -0.621969 -0.217400 0.096053 -0.746100 center -0.174 -0.001 -0.047 ntor 10 -47.5210 -155.7574 66.3586 -147.8403 66.1154 102.8192 -111.8465 143.8061 179.8268 -163.2395
State:	-14.675  -1.672   3.400  -0.934 -0.327  0.144 -83.493    -47.52 -155.76   66.36 -147.84   66.12  102.82 -111.85  143.81  179.83 -163.24

DOCKED: MODEL        9
DOCKED: USER    Run = 9
DOCKED: USER    DPF = D:/Protein_go_brrr/autodock/final/AncMH_nat/heme_Fe/dock.dpf
DOCKED: USER  
DOCKED: USER    Estimated Free Energy of Binding    =   -9.74 kcal/mol  [=(1)+(2)+(3)-(4)]
DOCKED: USER    Estimated Inhibition Constant, Ki   =   71.93 nM (nanomolar)  [Temperature = 298.15 K]
DOCKED: USER    
DOCKED: USER    (1) Final Intermolecular Energy     =  -12.73 kcal/mol
DOCKED: USER        vdW + Hbond + desolv Energy     =   -9.12 kcal/mol
DOCKED: USER        Electrostatic Energy            =   -3.61 kcal/mol
DOCKED: USER    (2) Final Total Internal Energy     =   -2.28 kcal/mol
DOCKED: USER    (3) Torsional Free Energy           =   +2.98 kcal/mol
DOCKED: USER    (4) Unbound System's Energy  [=(2)] =   -2.28 kcal/mol
DOCKED: USER    
DOCKED: USER    
DOCKED: USER    NEWDPF move heme_Fe_opt.pdbqt
DOCKED: USER    NEWDPF about -0.174000 -0.001000 -0.047000
DOCKED: USER    NEWDPF tran0 -14.675268 -1.672405 3.399613
DOCKED: USER    NEWDPF quaternion0 -0.621969 -0.217400 0.096053 -0.746100
DOCKED: USER    NEWDPF axisangle0 -0.934121 -0.326507 0.144260 -83.492670
DOCKED: USER    NEWDPF quat0 -0.934121 -0.326507 0.144260 -83.492670
DOCKED: USER    NEWDPF dihe0 -47.52 -155.76 66.36 -147.84 66.12 102.82 -111.85 143.81 179.83 -163.24 
DOCKED: USER  keepresnum = 1 
DOCKED: USER  
DOCKED: REMARK  10 active torsions:
DOCKED: REMARK  status: ('A' for Active; 'I' for Inactive)
DOCKED: REMARK    1  A    between atoms: C_6  and  C_10 
DOCKED: REMARK    2  A    between atoms: C_10  and  C_11 
DOCKED: REMARK    3  A    between atoms: C_11  and  C_12 
DOCKED: REMARK    4  A    between atoms: C_12  and  O_14 
DOCKED: REMARK    5  A    between atoms: C_17  and  C_20 
DOCKED: REMARK    6  A    between atoms: C_24  and  C_27 
DOCKED: REMARK    7  A    between atoms: C_31  and  C_34 
DOCKED: REMARK    8  A    between atoms: C_34  and  C_35 
DOCKED: REMARK    9  A    between atoms: C_35  and  C_36 
DOCKED: REMARK   10  A    between atoms: C_36  and  O_38 
DOCKED: USER                              x       y       z     vdW  Elec       q    Type
DOCKED: USER                           _______ _______ _______ _____ _____    ______ ____
DOCKED: ROOT
DOCKED: ATOM      1  C   UNL d   1     -16.676  -2.033   3.121 -0.10 +0.05    +0.064 C 
DOCKED: ATOM      2  C   UNL d   1     -13.773  -1.385   7.069 -0.33 +0.01    +0.064 A 
DOCKED: ATOM      3  C   UNL d   1     -10.354   0.359   4.182 -0.33 +0.02    +0.064 C 
DOCKED: ATOM      4  C   UNL d   1     -13.107  -0.358   0.336 -0.24 +0.07    +0.064 C 
DOCKED: ATOM      5  C   UNL d   1     -16.145  -2.090   4.490 -0.09 +0.04    +0.066 A 
DOCKED: ATOM      6  C   UNL d   1     -16.810  -2.638   5.574 -0.10 -0.01    -0.021 A 
DOCKED: ATOM      7  C   UNL d   1     -16.005  -2.455   6.671 -0.18 -0.01    -0.025 A 
DOCKED: ATOM      8  C   UNL d   1     -14.878  -1.801   6.213 -0.20 +0.02    +0.066 A 
DOCKED: ATOM      9  C   UNL d   1     -16.302  -2.903   8.069 -0.28 +0.01    +0.051 C 
DOCKED: ATOM     10  C   UNL d   1     -12.650  -0.804   6.644 -0.37 +0.01    +0.066 A 
DOCKED: ATOM     11  C   UNL d   1     -11.660  -0.314   7.500 -0.48 -0.00    -0.021 A 
DOCKED: ATOM     12  C   UNL d   1     -10.670   0.209   6.692 -0.48 +0.00    +0.000 A 
DOCKED: ATOM     13  C   UNL d   1     -11.115   0.017   5.373 -0.39 +0.02    +0.070 A 
DOCKED: ATOM     14  C   UNL d   1     -11.687  -0.283   9.014 -0.53 +0.01    +0.052 C 
DOCKED: ATOM     15  C   UNL d   1     -10.799   0.223   2.910 -0.21 +0.03    +0.066 A 
DOCKED: ATOM     16  C   UNL d   1     -10.005   0.467   1.798 -0.34 -0.01    -0.021 A 
DOCKED: ATOM     17  C   UNL d   1     -10.798   0.264   0.687 -0.34 +0.00    +0.000 A 
DOCKED: ATOM     18  C   UNL d   1     -12.061  -0.095   1.150 -0.25 +0.06    +0.070 A 
DOCKED: ATOM     19  C   UNL d   1      -8.563   0.899   1.776 -0.42 +0.01    +0.052 C 
DOCKED: ATOM     20  C   UNL d   1     -14.433  -0.799   0.784 -0.19 +0.09    +0.066 A 
DOCKED: ATOM     21  C   UNL d   1     -15.576  -0.881  -0.025 -0.16 -0.03    -0.025 A 
DOCKED: ATOM     22  C   UNL d   1     -16.578  -1.372   0.786 -0.13 -0.02    -0.021 A 
DOCKED: ATOM     23  C   UNL d   1     -16.012  -1.564   2.053 -0.13 +0.07    +0.066 A 
DOCKED: ATOM     24  C   UNL d   1     -15.728  -0.515  -1.483 -0.14 +0.06    +0.051 C 
DOCKED: ATOM     25  N   UNL d   1     -14.962  -1.589   4.884 -0.08 -0.13    -0.248 N 
DOCKED: ATOM     26  N   UNL d   1     -12.326  -0.593   5.343 -0.26 -0.07    -0.248 N 
DOCKED: ATOM     27  N   UNL d   1     -12.052  -0.164   2.515 -0.15 -0.16    -0.248 N 
DOCKED: ATOM     28  N   UNL d   1     -14.715  -1.170   2.056 -0.14 -0.27    -0.248 N 
DOCKED: ATOM     29 FE   UNL d   1     -13.520  -0.881   3.698 -0.06 +0.00    +0.000 Fe
DOCKED: ENDROOT
DOCKED: BRANCH   6  30
DOCKED: ATOM     30  C   UNL d   1     -18.135  -3.322   5.567 -0.10 +0.02    +0.052 C 
DOCKED: BRANCH  30  31
DOCKED: ATOM     31  C   UNL d   1     -19.259  -2.325   5.824 -0.05 +0.06    +0.115 C 
DOCKED: BRANCH  31  32
DOCKED: ATOM     32  C   UNL d   1     -19.400  -1.380   4.663 -0.06 +0.11    +0.139 C 
DOCKED: ATOM     33  O   UNL d   1     -19.764  -1.788   3.569 +0.04 -0.47    -0.650 OA
DOCKED: BRANCH  32  34
DOCKED: ATOM     34  O   UNL d   1     -19.125  -0.074   4.818 +0.04 -1.00    -0.776 OA
DOCKED: ATOM     35  H   UNL d   1     -18.565   0.369   4.165 +0.02 +0.26    +0.167 HD
DOCKED: ENDBRANCH  32  34
DOCKED: ENDBRANCH  31  32
DOCKED: ENDBRANCH  30  31
DOCKED: ENDBRANCH   6  30
DOCKED: BRANCH  22  36
DOCKED: ATOM     36  C   UNL d   1     -18.010  -1.598   0.377 -0.06 +0.05    +0.052 C 
DOCKED: BRANCH  36  37
DOCKED: ATOM     37  C   UNL d   1     -18.673  -0.262   0.074 -0.03 +0.11    +0.115 C 
DOCKED: BRANCH  37  38
DOCKED: ATOM     38  C   UNL d   1     -18.192   0.804   1.017 -0.11 +0.21    +0.139 C 
DOCKED: ATOM     39  O   UNL d   1     -17.370   1.633   0.657 +0.13 -1.61    -0.650 OA
DOCKED: BRANCH  38  40
DOCKED: ATOM     40  O   UNL d   1     -18.666   0.851   2.275 -0.27 -1.46    -0.776 OA
DOCKED: ATOM     41  H   UNL d   1     -19.019   0.044   2.675 +0.02 +0.24    +0.167 HD
DOCKED: ENDBRANCH  38  40
DOCKED: ENDBRANCH  37  38
DOCKED: ENDBRANCH  36  37
DOCKED: ENDBRANCH  22  36
DOCKED: BRANCH  12  42
DOCKED: ATOM     42  C   UNL d   1      -9.415   0.855   7.186 -0.42 +0.00    +0.004 C 
DOCKED: ATOM     43  C   UNL d   1      -8.218   0.299   6.957 -0.48 +0.00    +0.012 C 
DOCKED: ENDBRANCH  12  42
DOCKED: BRANCH  17  44
DOCKED: ATOM     44  C   UNL d   1     -10.369   0.387  -0.724 -0.38 +0.00    +0.004 C 
DOCKED: ATOM     45  C   UNL d   1     -10.538   1.531  -1.395 -0.34 +0.00    +0.012 C 
DOCKED: ENDBRANCH  17  44
DOCKED: TORSDOF 10
DOCKED: TER
DOCKED: ENDMDL
________________________________________________________________________________


	BEGINNING GENETIC ALGORITHM DOCKING 10 of 100
Run: 10 Seed: 872959212 151974624 [ Run 10 of 100 GA/GALS ]
Beginning LAMARCKIAN GENETIC ALGORITHM (LGA), with a maximum of 25000000 energy evaluations.

Final-Value: -14.334


	FINAL GENETIC ALGORITHM DOCKED STATE
	_______________________________________________


Detailed state:  trans -14.595 -1.164 2.796 quatxyzw 0.781611 0.058458 0.204727 -0.586305 center -0.174 -0.001 -0.047 ntor 10 -177.1958 144.7950 170.5064 46.8473 100.5261 143.9930 -176.9500 95.1992 5.3105 -168.4373
State:	-14.595  -1.164   2.796   0.965  0.072  0.253 -108.210   -177.20  144.80  170.51   46.85  100.53  143.99 -176.95   95.20    5.31 -168.44

DOCKED: MODEL       10
DOCKED: USER    Run = 10
DOCKED: USER    DPF = D:/Protein_go_brrr/autodock/final/AncMH_nat/heme_Fe/dock.dpf
DOCKED: USER  
DOCKED: USER    Estimated Free Energy of Binding    =  -10.80 kcal/mol  [=(1)+(2)+(3)-(4)]
DOCKED: USER    Estimated Inhibition Constant, Ki   =   12.19 nM (nanomolar)  [Temperature = 298.15 K]
DOCKED: USER    
DOCKED: USER    (1) Final Intermolecular Energy     =  -13.78 kcal/mol
DOCKED: USER        vdW + Hbond + desolv Energy     =  -10.16 kcal/mol
DOCKED: USER        Electrostatic Energy            =   -3.62 kcal/mol
DOCKED: USER    (2) Final Total Internal Energy     =   -0.55 kcal/mol
DOCKED: USER    (3) Torsional Free Energy           =   +2.98 kcal/mol
DOCKED: USER    (4) Unbound System's Energy  [=(2)] =   -0.55 kcal/mol
DOCKED: USER    
DOCKED: USER    
DOCKED: USER    NEWDPF move heme_Fe_opt.pdbqt
DOCKED: USER    NEWDPF about -0.174000 -0.001000 -0.047000
DOCKED: USER    NEWDPF tran0 -14.594956 -1.163613 2.796478
DOCKED: USER    NEWDPF quaternion0 0.781611 0.058458 0.204727 -0.586305
DOCKED: USER    NEWDPF axisangle0 0.964844 0.072163 0.252721 -108.209502
DOCKED: USER    NEWDPF quat0 0.964844 0.072163 0.252721 -108.209502
DOCKED: USER    NEWDPF dihe0 -177.20 144.80 170.51 46.85 100.53 143.99 -176.95 95.20 5.31 -168.44 
DOCKED: USER  keepresnum = 1 
DOCKED: USER  
DOCKED: REMARK  10 active torsions:
DOCKED: REMARK  status: ('A' for Active; 'I' for Inactive)
DOCKED: REMARK    1  A    between atoms: C_6  and  C_10 
DOCKED: REMARK    2  A    between atoms: C_10  and  C_11 
DOCKED: REMARK    3  A    between atoms: C_11  and  C_12 
DOCKED: REMARK    4  A    between atoms: C_12  and  O_14 
DOCKED: REMARK    5  A    between atoms: C_17  and  C_20 
DOCKED: REMARK    6  A    between atoms: C_24  and  C_27 
DOCKED: REMARK    7  A    between atoms: C_31  and  C_34 
DOCKED: REMARK    8  A    between atoms: C_34  and  C_35 
DOCKED: REMARK    9  A    between atoms: C_35  and  C_36 
DOCKED: REMARK   10  A    between atoms: C_36  and  O_38 
DOCKED: USER                              x       y       z     vdW  Elec       q    Type
DOCKED: USER                           _______ _______ _______ _____ _____    ______ ____
DOCKED: ROOT
DOCKED: ATOM      1  C   UNL d   1     -16.181  -2.277   2.121 -0.13 +0.06    +0.064 C 
DOCKED: ATOM      2  C   UNL d   1     -12.441   0.123  -0.043 -0.22 +0.06    +0.064 A 
DOCKED: ATOM      3  C   UNL d   1     -10.237   0.387   4.216 -0.29 +0.02    +0.064 C 
DOCKED: ATOM      4  C   UNL d   1     -13.893  -1.841   6.349 -0.35 +0.02    +0.064 C 
DOCKED: ATOM      5  C   UNL d   1     -15.371  -1.552   1.132 -0.16 +0.08    +0.066 A 
DOCKED: ATOM      6  C   UNL d   1     -15.745  -1.325  -0.182 -0.16 -0.03    -0.021 A 
DOCKED: ATOM      7  C   UNL d   1     -14.704  -0.661  -0.783 -0.14 -0.03    -0.025 A 
DOCKED: ATOM      8  C   UNL d   1     -13.734  -0.509   0.188 -0.18 +0.09    +0.066 A 
DOCKED: ATOM      9  C   UNL d   1     -14.662  -0.188  -2.204 -0.15 +0.05    +0.051 C 
DOCKED: ATOM     10  C   UNL d   1     -11.511   0.333   0.890 -0.26 +0.05    +0.066 A 
DOCKED: ATOM     11  C   UNL d   1     -10.238   0.837   0.615 -0.33 -0.01    -0.021 A 
DOCKED: ATOM     12  C   UNL d   1      -9.576   0.907   1.825 -0.35 +0.00    +0.000 A 
DOCKED: ATOM     13  C   UNL d   1     -10.486   0.430   2.784 -0.27 +0.03    +0.070 A 
DOCKED: ATOM     14  C   UNL d   1      -9.655   1.171  -0.743 -0.37 +0.01    +0.052 C 
DOCKED: ATOM     15  C   UNL d   1     -11.090  -0.120   5.137 -0.35 +0.02    +0.066 A 
DOCKED: ATOM     16  C   UNL d   1     -10.857  -0.052   6.505 -0.46 -0.00    -0.021 A 
DOCKED: ATOM     17  C   UNL d   1     -11.909  -0.697   7.122 -0.39 +0.00    +0.000 A 
DOCKED: ATOM     18  C   UNL d   1     -12.758  -1.148   6.114 -0.33 +0.02    +0.070 A 
DOCKED: ATOM     19  C   UNL d   1      -9.681   0.572   7.206 -0.46 +0.01    +0.052 C 
DOCKED: ATOM     20  C   UNL d   1     -14.842  -2.278   5.318 -0.18 +0.03    +0.066 A 
DOCKED: ATOM     21  C   UNL d   1     -15.910  -3.163   5.523 -0.14 -0.01    -0.025 A 
DOCKED: ATOM     22  C   UNL d   1     -16.556  -3.263   4.308 -0.09 -0.01    -0.021 A 
DOCKED: ATOM     23  C   UNL d   1     -15.857  -2.445   3.413 -0.11 +0.05    +0.066 A 
DOCKED: ATOM     24  C   UNL d   1     -16.308  -3.885   6.790 -0.25 +0.02    +0.051 C 
DOCKED: ATOM     25  N   UNL d   1     -14.146  -1.044   1.355 -0.16 -0.30    -0.248 N 
DOCKED: ATOM     26  N   UNL d   1     -11.663   0.072   2.213 -0.16 -0.16    -0.248 N 
DOCKED: ATOM     27  N   UNL d   1     -12.278  -0.756   4.896 -0.22 -0.08    -0.248 N 
DOCKED: ATOM     28  N   UNL d   1     -14.786  -1.882   4.024 -0.10 -0.16    -0.248 N 
DOCKED: ATOM     29 FE   UNL d   1     -13.225  -0.906   3.120 -0.06 +0.00    +0.000 Fe
DOCKED: ENDROOT
DOCKED: BRANCH   6  30
DOCKED: ATOM     30  C   UNL d   1     -17.034  -1.698  -0.831 -0.12 +0.05    +0.052 C 
DOCKED: BRANCH  30  31
DOCKED: ATOM     31  C   UNL d   1     -18.018  -0.534  -0.788 -0.03 +0.10    +0.115 C 
DOCKED: BRANCH  31  32
DOCKED: ATOM     32  C   UNL d   1     -17.374   0.676  -0.170 +0.05 +0.23    +0.139 C 
DOCKED: ATOM     33  O   UNL d   1     -16.947   1.582  -0.873 +0.02 -1.29    -0.650 OA
DOCKED: BRANCH  32  34
DOCKED: ATOM     34  O   UNL d   1     -17.261   0.773   1.165 -0.36 -1.57    -0.776 OA
DOCKED: ATOM     35  H   UNL d   1     -17.562   0.037   1.716 +0.03 +0.24    +0.167 HD
DOCKED: ENDBRANCH  32  34
DOCKED: ENDBRANCH  31  32
DOCKED: ENDBRANCH  30  31
DOCKED: ENDBRANCH   6  30
DOCKED: BRANCH  22  36
DOCKED: ATOM     36  C   UNL d   1     -17.749  -4.135   4.015 -0.09 +0.03    +0.052 C 
DOCKED: BRANCH  36  37
DOCKED: ATOM     37  C   UNL d   1     -17.323  -5.596   3.993 -0.08 +0.06    +0.115 C 
DOCKED: BRANCH  37  38
DOCKED: ATOM     38  C   UNL d   1     -16.807  -5.986   2.637 -0.08 +0.12    +0.139 C 
DOCKED: ATOM     39  O   UNL d   1     -15.878  -6.772   2.524 -0.46 -0.62    -0.650 OA
DOCKED: BRANCH  38  40
DOCKED: ATOM     40  O   UNL d   1     -17.366  -5.464   1.530 -0.24 -0.91    -0.776 OA
DOCKED: ATOM     41  H   UNL d   1     -18.318  -5.294   1.520 +0.02 +0.13    +0.167 HD
DOCKED: ENDBRANCH  38  40
DOCKED: ENDBRANCH  37  38
DOCKED: ENDBRANCH  36  37
DOCKED: ENDBRANCH  22  36
DOCKED: BRANCH  12  42
DOCKED: ATOM     42  C   UNL d   1      -8.170   1.384   2.005 -0.41 +0.00    +0.004 C 
DOCKED: ATOM     43  C   UNL d   1      -7.349   0.792   2.883 -0.40 +0.00    +0.012 C 
DOCKED: ENDBRANCH  12  42
DOCKED: BRANCH  17  44
DOCKED: ATOM     44  C   UNL d   1     -12.099  -0.853   8.582 -0.61 +0.00    +0.004 C 
DOCKED: ATOM     45  C   UNL d   1     -12.945  -0.063   9.251 -0.58 +0.00    +0.012 C 
DOCKED: ENDBRANCH  17  44
DOCKED: TORSDOF 10
DOCKED: TER
DOCKED: ENDMDL
________________________________________________________________________________


	BEGINNING GENETIC ALGORITHM DOCKING 11 of 100
Run: 11 Seed: 452275103 1992227277 [ Run 11 of 100 GA/GALS ]
Beginning LAMARCKIAN GENETIC ALGORITHM (LGA), with a maximum of 25000000 energy evaluations.

Final-Value: -16.589


	FINAL GENETIC ALGORITHM DOCKED STATE
	_______________________________________________


Detailed state:  trans -10.358 0.895 3.312 quatxyzw -0.793138 0.044259 -0.132191 0.592873 center -0.174 -0.001 -0.047 ntor 10 -112.4117 -25.6879 50.2887 -114.6127 -2.0478 -135.5406 -4.0320 41.7548 -141.3295 137.5525
State:	-10.358   0.895   3.312  -0.985  0.055 -0.164 107.278   -112.41  -25.69   50.29 -114.61   -2.05 -135.54   -4.03   41.75 -141.33  137.55

DOCKED: MODEL       11
DOCKED: USER    Run = 11
DOCKED: USER    DPF = D:/Protein_go_brrr/autodock/final/AncMH_nat/heme_Fe/dock.dpf
DOCKED: USER  
DOCKED: USER    Estimated Free Energy of Binding    =  -11.66 kcal/mol  [=(1)+(2)+(3)-(4)]
DOCKED: USER    Estimated Inhibition Constant, Ki   =    2.85 nM (nanomolar)  [Temperature = 298.15 K]
DOCKED: USER    
DOCKED: USER    (1) Final Intermolecular Energy     =  -14.64 kcal/mol
DOCKED: USER        vdW + Hbond + desolv Energy     =  -11.78 kcal/mol
DOCKED: USER        Electrostatic Energy            =   -2.86 kcal/mol
DOCKED: USER    (2) Final Total Internal Energy     =   -1.95 kcal/mol
DOCKED: USER    (3) Torsional Free Energy           =   +2.98 kcal/mol
DOCKED: USER    (4) Unbound System's Energy  [=(2)] =   -1.95 kcal/mol
DOCKED: USER    
DOCKED: USER    
DOCKED: USER    NEWDPF move heme_Fe_opt.pdbqt
DOCKED: USER    NEWDPF about -0.174000 -0.001000 -0.047000
DOCKED: USER    NEWDPF tran0 -10.357512 0.894601 3.312071
DOCKED: USER    NEWDPF quaternion0 -0.793138 0.044259 -0.132191 0.592873
DOCKED: USER    NEWDPF axisangle0 -0.984903 0.054960 -0.164153 107.277763
DOCKED: USER    NEWDPF quat0 -0.984903 0.054960 -0.164153 107.277763
DOCKED: USER    NEWDPF dihe0 -112.41 -25.69 50.29 -114.61 -2.05 -135.54 -4.03 41.75 -141.33 137.55 
DOCKED: USER  keepresnum = 1 
DOCKED: USER  
DOCKED: REMARK  10 active torsions:
DOCKED: REMARK  status: ('A' for Active; 'I' for Inactive)
DOCKED: REMARK    1  A    between atoms: C_6  and  C_10 
DOCKED: REMARK    2  A    between atoms: C_10  and  C_11 
DOCKED: REMARK    3  A    between atoms: C_11  and  C_12 
DOCKED: REMARK    4  A    between atoms: C_12  and  O_14 
DOCKED: REMARK    5  A    between atoms: C_17  and  C_20 
DOCKED: REMARK    6  A    between atoms: C_24  and  C_27 
DOCKED: REMARK    7  A    between atoms: C_31  and  C_34 
DOCKED: REMARK    8  A    between atoms: C_34  and  C_35 
DOCKED: REMARK    9  A    between atoms: C_35  and  C_36 
DOCKED: REMARK   10  A    between atoms: C_36  and  O_38 
DOCKED: USER                              x       y       z     vdW  Elec       q    Type
DOCKED: USER                           _______ _______ _______ _____ _____    ______ ____
DOCKED: ROOT
DOCKED: ATOM      1  C   UNL d   1     -12.164   0.234   2.598 -0.33 +0.05    +0.064 C 
DOCKED: ATOM      2  C   UNL d   1      -7.930   1.709   0.519 -0.37 +0.01    +0.064 A 
DOCKED: ATOM      3  C   UNL d   1      -5.762   1.265   4.781 -0.10 +0.00    +0.064 C 
DOCKED: ATOM      4  C   UNL d   1      -9.873  -0.064   6.836 -0.41 +0.01    +0.064 C 
DOCKED: ATOM      5  C   UNL d   1     -11.193   0.771   1.636 -0.27 +0.04    +0.066 A 
DOCKED: ATOM      6  C   UNL d   1     -11.488   1.131   0.331 -0.26 -0.02    -0.021 A 
DOCKED: ATOM      7  C   UNL d   1     -10.311   1.537  -0.247 -0.30 -0.01    -0.025 A 
DOCKED: ATOM      8  C   UNL d   1      -9.341   1.409   0.728 -0.33 +0.02    +0.066 A 
DOCKED: ATOM      9  C   UNL d   1     -10.142   2.036  -1.649 -0.25 +0.01    +0.051 C 
DOCKED: ATOM     10  C   UNL d   1      -6.984   1.649   1.458 -0.38 +0.01    +0.066 A 
DOCKED: ATOM     11  C   UNL d   1      -5.624   1.831   1.199 -0.42 -0.00    -0.021 A 
DOCKED: ATOM     12  C   UNL d   1      -4.975   1.691   2.410 -0.36 +0.00    +0.000 A 
DOCKED: ATOM     13  C   UNL d   1      -5.982   1.420   3.352 -0.32 +0.00    +0.070 A 
DOCKED: ATOM     14  C   UNL d   1      -4.966   2.059  -0.146 -0.53 -0.00    +0.052 C 
DOCKED: ATOM     15  C   UNL d   1      -6.721   0.952   5.684 -0.33 +0.01    +0.066 A 
DOCKED: ATOM     16  C   UNL d   1      -6.489   0.911   7.053 -0.42 -0.00    -0.021 A 
DOCKED: ATOM     17  C   UNL d   1      -7.673   0.525   7.648 -0.45 +0.00    +0.000 A 
DOCKED: ATOM     18  C   UNL d   1      -8.599   0.335   6.625 -0.36 +0.01    +0.070 A 
DOCKED: ATOM     19  C   UNL d   1      -5.201   1.198   7.775 -0.55 -0.00    +0.052 C 
DOCKED: ATOM     20  C   UNL d   1     -10.892  -0.214   5.791 -0.39 +0.01    +0.066 A 
DOCKED: ATOM     21  C   UNL d   1     -12.148  -0.814   5.965 -0.37 -0.01    -0.025 A 
DOCKED: ATOM     22  C   UNL d   1     -12.789  -0.707   4.748 -0.29 -0.01    -0.021 A 
DOCKED: ATOM     23  C   UNL d   1     -11.902  -0.055   3.883 -0.27 +0.03    +0.066 A 
DOCKED: ATOM     24  C   UNL d   1     -12.721  -1.460   7.205 -0.31 +0.01    +0.051 C 
DOCKED: ATOM     25  N   UNL d   1      -9.882   0.952   1.875 -0.19 -0.08    -0.248 N 
DOCKED: ATOM     26  N   UNL d   1      -7.207   1.385   2.770 -0.22 -0.03    -0.248 N 
DOCKED: ATOM     27  N   UNL d   1      -8.028   0.640   5.421 +0.00 -0.08    -0.248 N 
DOCKED: ATOM     28  N   UNL d   1     -10.730   0.202   4.512 -0.24 -0.08    -0.248 N 
DOCKED: ATOM     29 FE   UNL d   1      -8.969   0.793   3.643 -0.08 +0.00    +0.000 Fe
DOCKED: ENDROOT
DOCKED: BRANCH   6  30
DOCKED: ATOM     30  C   UNL d   1     -12.825   1.112  -0.328 -0.02 +0.08    +0.052 C 
DOCKED: BRANCH  30  31
DOCKED: ATOM     31  C   UNL d   1     -13.491  -0.249  -0.161 -0.18 +0.15    +0.115 C 
DOCKED: BRANCH  31  32
DOCKED: ATOM     32  C   UNL d   1     -14.877  -0.232  -0.743 -0.13 +0.20    +0.139 C 
DOCKED: ATOM     33  O   UNL d   1     -15.338   0.793  -1.226 -0.00 -1.17    -0.650 OA
DOCKED: BRANCH  32  34
DOCKED: ATOM     34  O   UNL d   1     -15.625  -1.348  -0.738 -0.01 -0.96    -0.776 OA
DOCKED: ATOM     35  H   UNL d   1     -15.937  -1.700   0.107 +0.02 +0.21    +0.167 HD
DOCKED: ENDBRANCH  32  34
DOCKED: ENDBRANCH  31  32
DOCKED: ENDBRANCH  30  31
DOCKED: ENDBRANCH   6  30
DOCKED: BRANCH  22  36
DOCKED: ATOM     36  C   UNL d   1     -14.158  -1.245   4.425 -0.20 +0.03    +0.052 C 
DOCKED: BRANCH  36  37
DOCKED: ATOM     37  C   UNL d   1     -14.079  -2.148   3.203 -0.23 +0.09    +0.115 C 
DOCKED: BRANCH  37  38
DOCKED: ATOM     38  C   UNL d   1     -15.249  -1.921   2.289 -0.16 +0.14    +0.139 C 
DOCKED: ATOM     39  O   UNL d   1     -15.850  -2.864   1.796 +0.14 -0.76    -0.650 OA
DOCKED: BRANCH  38  40
DOCKED: ATOM     40  O   UNL d   1     -15.645  -0.667   2.002 -0.02 -1.01    -0.776 OA
DOCKED: ATOM     41  H   UNL d   1     -16.109  -0.499   1.171 +0.04 +0.25    +0.167 HD
DOCKED: ENDBRANCH  38  40
DOCKED: ENDBRANCH  37  38
DOCKED: ENDBRANCH  36  37
DOCKED: ENDBRANCH  22  36
DOCKED: BRANCH  12  42
DOCKED: ATOM     42  C   UNL d   1      -3.496   1.798   2.606 -0.36 -0.00    +0.004 C 
DOCKED: ATOM     43  C   UNL d   1      -2.938   2.935   3.041 -0.48 -0.00    +0.012 C 
DOCKED: ENDBRANCH  12  42
DOCKED: BRANCH  17  44
DOCKED: ATOM     44  C   UNL d   1      -7.907   0.368   9.101 -0.43 +0.00    +0.004 C 
DOCKED: ATOM     45  C   UNL d   1      -7.202  -0.514   9.817 -0.65 +0.00    +0.012 C 
DOCKED: ENDBRANCH  17  44
DOCKED: TORSDOF 10
DOCKED: TER
DOCKED: ENDMDL
________________________________________________________________________________


	BEGINNING GENETIC ALGORITHM DOCKING 12 of 100
Run: 12 Seed: 1271636006 1982037462 [ Run 12 of 100 GA/GALS ]
Beginning LAMARCKIAN GENETIC ALGORITHM (LGA), with a maximum of 25000000 energy evaluations.

Final-Value: -14.829


	FINAL GENETIC ALGORITHM DOCKED STATE
	_______________________________________________


Detailed state:  trans -12.616 -0.362 0.659 quatxyzw 0.530185 0.389203 0.196304 0.727248 center -0.174 -0.001 -0.047 ntor 10 -161.7405 34.5423 157.7685 -124.2398 -27.0511 126.1790 120.3797 112.0735 -149.9624 -173.5297
State:	-12.616  -0.362   0.659   0.772  0.567  0.286 86.688   -161.74   34.54  157.77 -124.24  -27.05  126.18  120.38  112.07 -149.96 -173.53

DOCKED: MODEL       12
DOCKED: USER    Run = 12
DOCKED: USER    DPF = D:/Protein_go_brrr/autodock/final/AncMH_nat/heme_Fe/dock.dpf
DOCKED: USER  
DOCKED: USER    Estimated Free Energy of Binding    =  -10.25 kcal/mol  [=(1)+(2)+(3)-(4)]
DOCKED: USER    Estimated Inhibition Constant, Ki   =   30.80 nM (nanomolar)  [Temperature = 298.15 K]
DOCKED: USER    
DOCKED: USER    (1) Final Intermolecular Energy     =  -13.23 kcal/mol
DOCKED: USER        vdW + Hbond + desolv Energy     =   -9.61 kcal/mol
DOCKED: USER        Electrostatic Energy            =   -3.62 kcal/mol
DOCKED: USER    (2) Final Total Internal Energy     =   -1.60 kcal/mol
DOCKED: USER    (3) Torsional Free Energy           =   +2.98 kcal/mol
DOCKED: USER    (4) Unbound System's Energy  [=(2)] =   -1.60 kcal/mol
DOCKED: USER    
DOCKED: USER    
DOCKED: USER    NEWDPF move heme_Fe_opt.pdbqt
DOCKED: USER    NEWDPF about -0.174000 -0.001000 -0.047000
DOCKED: USER    NEWDPF tran0 -12.616476 -0.361899 0.658782
DOCKED: USER    NEWDPF quaternion0 0.530185 0.389203 0.196304 0.727248
DOCKED: USER    NEWDPF axisangle0 0.772442 0.567041 0.286002 86.687689
DOCKED: USER    NEWDPF quat0 0.772442 0.567041 0.286002 86.687689
DOCKED: USER    NEWDPF dihe0 -161.74 34.54 157.77 -124.24 -27.05 126.18 120.38 112.07 -149.96 -173.53 
DOCKED: USER  keepresnum = 1 
DOCKED: USER  
DOCKED: REMARK  10 active torsions:
DOCKED: REMARK  status: ('A' for Active; 'I' for Inactive)
DOCKED: REMARK    1  A    between atoms: C_6  and  C_10 
DOCKED: REMARK    2  A    between atoms: C_10  and  C_11 
DOCKED: REMARK    3  A    between atoms: C_11  and  C_12 
DOCKED: REMARK    4  A    between atoms: C_12  and  O_14 
DOCKED: REMARK    5  A    between atoms: C_17  and  C_20 
DOCKED: REMARK    6  A    between atoms: C_24  and  C_27 
DOCKED: REMARK    7  A    between atoms: C_31  and  C_34 
DOCKED: REMARK    8  A    between atoms: C_34  and  C_35 
DOCKED: REMARK    9  A    between atoms: C_35  and  C_36 
DOCKED: REMARK   10  A    between atoms: C_36  and  O_38 
DOCKED: USER                              x       y       z     vdW  Elec       q    Type
DOCKED: USER                           _______ _______ _______ _____ _____    ______ ____
DOCKED: ROOT
DOCKED: ATOM      1  C   UNL d   1     -14.076  -0.144  -0.767 -0.18 +0.09    +0.064 C 
DOCKED: ATOM      2  C   UNL d   1     -14.064  -1.058   4.091 -0.17 +0.04    +0.064 A 
DOCKED: ATOM      3  C   UNL d   1      -9.465   0.316   4.268 -0.07 +0.02    +0.064 C 
DOCKED: ATOM      4  C   UNL d   1      -9.425   1.107  -0.450 -0.37 +0.01    +0.064 C 
DOCKED: ATOM      5  C   UNL d   1     -14.475  -0.608   0.569 -0.18 +0.10    +0.066 A 
DOCKED: ATOM      6  C   UNL d   1     -15.700  -1.179   0.875 -0.17 -0.03    -0.021 A 
DOCKED: ATOM      7  C   UNL d   1     -15.697  -1.429   2.225 -0.16 -0.03    -0.025 A 
DOCKED: ATOM      8  C   UNL d   1     -14.469  -1.001   2.692 -0.21 +0.06    +0.066 A 
DOCKED: ATOM      9  C   UNL d   1     -16.807  -2.061   3.008 -0.10 +0.04    +0.051 C 
DOCKED: ATOM     10  C   UNL d   1     -12.866  -0.705   4.558 -0.25 +0.03    +0.066 A 
DOCKED: ATOM     11  C   UNL d   1     -12.546  -0.663   5.917 -0.36 -0.00    -0.021 A 
DOCKED: ATOM     12  C   UNL d   1     -11.230  -0.253   5.996 -0.44 +0.00    +0.000 A 
DOCKED: ATOM     13  C   UNL d   1     -10.813  -0.057   4.668 -0.29 +0.02    +0.070 A 
DOCKED: ATOM     14  C   UNL d   1     -13.470  -0.933   7.088 -0.35 +0.01    +0.052 C 
DOCKED: ATOM     15  C   UNL d   1      -9.073   0.556   2.995 -0.28 +0.02    +0.066 A 
DOCKED: ATOM     16  C   UNL d   1      -7.754   0.812   2.643 -0.36 -0.00    -0.021 A 
DOCKED: ATOM     17  C   UNL d   1      -7.740   1.044   1.283 -0.42 +0.00    +0.000 A 
DOCKED: ATOM     18  C   UNL d   1      -9.055   0.928   0.837 -0.37 +0.02    +0.070 A 
DOCKED: ATOM     19  C   UNL d   1      -6.555   0.863   3.551 -0.38 +0.01    +0.052 C 
DOCKED: ATOM     20  C   UNL d   1     -10.788   0.932  -0.967 -0.28 +0.03    +0.066 A 
DOCKED: ATOM     21  C   UNL d   1     -11.223   1.306  -2.246 -0.25 -0.01    -0.025 A 
DOCKED: ATOM     22  C   UNL d   1     -12.548   0.928  -2.319 -0.17 -0.01    -0.021 A 
DOCKED: ATOM     23  C   UNL d   1     -12.869   0.349  -1.086 -0.19 +0.07    +0.066 A 
DOCKED: ATOM     24  C   UNL d   1     -10.442   1.985  -3.347 -0.29 +0.00    +0.051 C 
DOCKED: ATOM     25  N   UNL d   1     -13.725  -0.511   1.680 -0.16 -0.29    -0.248 N 
DOCKED: ATOM     26  N   UNL d   1     -11.812  -0.324   3.792 -0.10 -0.11    -0.248 N 
DOCKED: ATOM     27  N   UNL d   1      -9.868   0.585   1.880 -0.20 -0.08    -0.248 N 
DOCKED: ATOM     28  N   UNL d   1     -11.804   0.395  -0.249 -0.16 -0.19    -0.248 N 
DOCKED: ATOM     29 FE   UNL d   1     -11.807   0.036   1.770 -0.06 +0.00    +0.000 Fe
DOCKED: ENDROOT
DOCKED: BRANCH   6  30
DOCKED: ATOM     30  C   UNL d   1     -16.810  -1.491  -0.069 -0.13 +0.06    +0.052 C 
DOCKED: BRANCH  30  31
DOCKED: ATOM     31  C   UNL d   1     -17.313  -0.224  -0.750 -0.06 +0.13    +0.115 C 
DOCKED: BRANCH  31  32
DOCKED: ATOM     32  C   UNL d   1     -17.814   0.759   0.272 -0.06 +0.21    +0.139 C 
DOCKED: ATOM     33  O   UNL d   1     -18.247   0.372   1.348 -0.05 -0.91    -0.650 OA
DOCKED: BRANCH  32  34
DOCKED: ATOM     34  O   UNL d   1     -17.790   2.077   0.009 -0.02 -1.45    -0.776 OA
DOCKED: ATOM     35  H   UNL d   1     -17.707   2.371  -0.909 +0.01 +0.25    +0.167 HD
DOCKED: ENDBRANCH  32  34
DOCKED: ENDBRANCH  31  32
DOCKED: ENDBRANCH  30  31
DOCKED: ENDBRANCH   6  30
DOCKED: BRANCH  22  36
DOCKED: ATOM     36  C   UNL d   1     -13.464   1.158  -3.492 -0.09 +0.03    +0.052 C 
DOCKED: BRANCH  36  37
DOCKED: ATOM     37  C   UNL d   1     -13.903   2.614  -3.523 -0.05 +0.06    +0.115 C 
DOCKED: BRANCH  37  38
DOCKED: ATOM     38  C   UNL d   1     -14.814   2.927  -2.369 +0.01 +0.17    +0.139 C 
DOCKED: ATOM     39  O   UNL d   1     -14.568   3.855  -1.612 -0.27 -1.13    -0.650 OA
DOCKED: BRANCH  38  40
DOCKED: ATOM     40  O   UNL d   1     -15.911   2.179  -2.158 -0.07 -1.08    -0.776 OA
DOCKED: ATOM     41  H   UNL d   1     -16.708   2.602  -1.807 +0.01 +0.25    +0.167 HD
DOCKED: ENDBRANCH  38  40
DOCKED: ENDBRANCH  37  38
DOCKED: ENDBRANCH  36  37
DOCKED: ENDBRANCH  22  36
DOCKED: BRANCH  12  42
DOCKED: ATOM     42  C   UNL d   1     -10.469  -0.057   7.269 -0.51 +0.00    +0.004 C 
DOCKED: ATOM     43  C   UNL d   1      -9.431   0.787   7.328 -0.47 +0.00    +0.012 C 
DOCKED: ENDBRANCH  12  42
DOCKED: BRANCH  17  44
DOCKED: ATOM     44  C   UNL d   1      -6.545   1.337   0.461 -0.40 +0.00    +0.004 C 
DOCKED: ATOM     45  C   UNL d   1      -5.907   2.507   0.573 -0.51 +0.00    +0.012 C 
DOCKED: ENDBRANCH  17  44
DOCKED: TORSDOF 10
DOCKED: TER
DOCKED: ENDMDL
________________________________________________________________________________


	BEGINNING GENETIC ALGORITHM DOCKING 13 of 100
Run: 13 Seed: 724481186 1147678923 [ Run 13 of 100 GA/GALS ]
Beginning LAMARCKIAN GENETIC ALGORITHM (LGA), with a maximum of 25000000 energy evaluations.

Final-Value: -14.739


	FINAL GENETIC ALGORITHM DOCKED STATE
	_______________________________________________


Detailed state:  trans -12.853 -0.755 1.661 quatxyzw -0.549091 -0.380148 -0.162356 -0.726379 center -0.174 -0.001 -0.047 ntor 10 -103.3359 110.0138 110.7893 -131.9261 46.5276 2.6248 -135.8170 -80.1453 163.6933 -14.5713
State:	-12.853  -0.755   1.661  -0.799 -0.553 -0.236 -86.833   -103.34  110.01  110.79 -131.93   46.53    2.62 -135.82  -80.15  163.69  -14.57

DOCKED: MODEL       13
DOCKED: USER    Run = 13
DOCKED: USER    DPF = D:/Protein_go_brrr/autodock/final/AncMH_nat/heme_Fe/dock.dpf
DOCKED: USER  
DOCKED: USER    Estimated Free Energy of Binding    =  -11.21 kcal/mol  [=(1)+(2)+(3)-(4)]
DOCKED: USER    Estimated Inhibition Constant, Ki   =    6.11 nM (nanomolar)  [Temperature = 298.15 K]
DOCKED: USER    
DOCKED: USER    (1) Final Intermolecular Energy     =  -14.19 kcal/mol
DOCKED: USER        vdW + Hbond + desolv Energy     =  -10.53 kcal/mol
DOCKED: USER        Electrostatic Energy            =   -3.66 kcal/mol
DOCKED: USER    (2) Final Total Internal Energy     =   -0.55 kcal/mol
DOCKED: USER    (3) Torsional Free Energy           =   +2.98 kcal/mol
DOCKED: USER    (4) Unbound System's Energy  [=(2)] =   -0.55 kcal/mol
DOCKED: USER    
DOCKED: USER    
DOCKED: USER    NEWDPF move heme_Fe_opt.pdbqt
DOCKED: USER    NEWDPF about -0.174000 -0.001000 -0.047000
DOCKED: USER    NEWDPF tran0 -12.852670 -0.755481 1.661200
DOCKED: USER    NEWDPF quaternion0 -0.549091 -0.380148 -0.162356 -0.726379
DOCKED: USER    NEWDPF axisangle0 -0.798918 -0.553108 -0.236225 -86.832579
DOCKED: USER    NEWDPF quat0 -0.798918 -0.553108 -0.236225 -86.832579
DOCKED: USER    NEWDPF dihe0 -103.34 110.01 110.79 -131.93 46.53 2.62 -135.82 -80.15 163.69 -14.57 
DOCKED: USER  keepresnum = 1 
DOCKED: USER  
DOCKED: REMARK  10 active torsions:
DOCKED: REMARK  status: ('A' for Active; 'I' for Inactive)
DOCKED: REMARK    1  A    between atoms: C_6  and  C_10 
DOCKED: REMARK    2  A    between atoms: C_10  and  C_11 
DOCKED: REMARK    3  A    between atoms: C_11  and  C_12 
DOCKED: REMARK    4  A    between atoms: C_12  and  O_14 
DOCKED: REMARK    5  A    between atoms: C_17  and  C_20 
DOCKED: REMARK    6  A    between atoms: C_24  and  C_27 
DOCKED: REMARK    7  A    between atoms: C_31  and  C_34 
DOCKED: REMARK    8  A    between atoms: C_34  and  C_35 
DOCKED: REMARK    9  A    between atoms: C_35  and  C_36 
DOCKED: REMARK   10  A    between atoms: C_36  and  O_38 
DOCKED: USER                              x       y       z     vdW  Elec       q    Type
DOCKED: USER                           _______ _______ _______ _____ _____    ______ ____
DOCKED: ROOT
DOCKED: ATOM      1  C   UNL d   1     -14.394  -0.646   0.311 -0.21 +0.09    +0.064 C 
DOCKED: ATOM      2  C   UNL d   1     -14.090  -1.306   5.200 -0.12 +0.03    +0.064 A 
DOCKED: ATOM      3  C   UNL d   1      -9.526   0.182   5.047 -0.13 +0.02    +0.064 C 
DOCKED: ATOM      4  C   UNL d   1      -9.767   0.727   0.301 -0.40 +0.02    +0.064 C 
DOCKED: ATOM      5  C   UNL d   1     -14.706  -1.049   1.689 -0.20 +0.08    +0.066 A 
DOCKED: ATOM      6  C   UNL d   1     -15.897  -1.631   2.092 -0.15 -0.02    -0.021 A 
DOCKED: ATOM      7  C   UNL d   1     -15.813  -1.811   3.451 -0.13 -0.02    -0.025 A 
DOCKED: ATOM      8  C   UNL d   1     -14.573  -1.331   3.825 -0.18 +0.04    +0.066 A 
DOCKED: ATOM      9  C   UNL d   1     -16.861  -2.427   4.326 -0.09 +0.03    +0.051 C 
DOCKED: ATOM     10  C   UNL d   1     -12.877  -0.901   5.581 -0.30 +0.02    +0.066 A 
DOCKED: ATOM     11  C   UNL d   1     -12.484  -0.781   6.916 -0.41 -0.00    -0.021 A 
DOCKED: ATOM     12  C   UNL d   1     -11.177  -0.337   6.899 -0.41 +0.00    +0.000 A 
DOCKED: ATOM     13  C   UNL d   1     -10.839  -0.201   5.542 -0.37 +0.02    +0.070 A 
DOCKED: ATOM     14  C   UNL d   1     -13.334  -1.011   8.149 -0.48 +0.00    +0.052 C 
DOCKED: ATOM     15  C   UNL d   1      -9.211   0.365   3.744 -0.18 +0.02    +0.066 A 
DOCKED: ATOM     16  C   UNL d   1      -7.920   0.633   3.305 -0.31 -0.00    -0.021 A 
DOCKED: ATOM     17  C   UNL d   1      -7.988   0.794   1.937 -0.40 +0.00    +0.000 A 
DOCKED: ATOM     18  C   UNL d   1      -9.322   0.624   1.572 -0.34 +0.02    +0.070 A 
DOCKED: ATOM     19  C   UNL d   1      -6.675   0.759   4.140 -0.38 +0.01    +0.052 C 
DOCKED: ATOM     20  C   UNL d   1     -11.151   0.495  -0.128 -0.27 +0.04    +0.066 A 
DOCKED: ATOM     21  C   UNL d   1     -11.665   0.791  -1.398 -0.25 -0.01    -0.025 A 
DOCKED: ATOM     22  C   UNL d   1     -12.982   0.380  -1.377 -0.19 -0.02    -0.021 A 
DOCKED: ATOM     23  C   UNL d   1     -13.220  -0.142  -0.100 -0.18 +0.08    +0.066 A 
DOCKED: ATOM     24  C   UNL d   1     -10.965   1.430  -2.575 -0.29 +0.01    +0.051 C 
DOCKED: ATOM     25  N   UNL d   1     -13.898  -0.877   2.750 -0.16 -0.22    -0.248 N 
DOCKED: ATOM     26  N   UNL d   1     -11.878  -0.536   4.738 -0.20 -0.08    -0.248 N 
DOCKED: ATOM     27  N   UNL d   1     -10.067   0.317   2.676 -0.19 -0.09    -0.248 N 
DOCKED: ATOM     28  N   UNL d   1     -12.111  -0.028   0.672 -0.16 -0.22    -0.248 N 
DOCKED: ATOM     29 FE   UNL d   1     -11.993  -0.281   2.703 -0.07 +0.00    +0.000 Fe
DOCKED: ENDROOT
DOCKED: BRANCH   6  30
DOCKED: ATOM     30  C   UNL d   1     -17.049  -2.019   1.229 -0.11 +0.05    +0.052 C 
DOCKED: BRANCH  30  31
DOCKED: ATOM     31  C   UNL d   1     -18.219  -1.061   1.428 -0.04 +0.11    +0.115 C 
DOCKED: BRANCH  31  32
DOCKED: ATOM     32  C   UNL d   1     -17.735   0.362   1.453 -0.11 +0.21    +0.139 C 
DOCKED: ATOM     33  O   UNL d   1     -16.946   0.767   0.611 -0.37 -1.54    -0.650 OA
DOCKED: BRANCH  32  34
DOCKED: ATOM     34  O   UNL d   1     -18.168   1.206   2.405 -0.39 -1.58    -0.776 OA
DOCKED: ATOM     35  H   UNL d   1     -17.800   1.136   3.297 +0.02 +0.31    +0.167 HD
DOCKED: ENDBRANCH  32  34
DOCKED: ENDBRANCH  31  32
DOCKED: ENDBRANCH  30  31
DOCKED: ENDBRANCH   6  30
DOCKED: BRANCH  22  36
DOCKED: ATOM     36  C   UNL d   1     -13.968   0.527  -2.507 -0.14 +0.04    +0.052 C 
DOCKED: BRANCH  36  37
DOCKED: ATOM     37  C   UNL d   1     -13.786  -0.613  -3.499 -0.12 +0.07    +0.115 C 
DOCKED: BRANCH  37  38
DOCKED: ATOM     38  C   UNL d   1     -14.803  -1.694  -3.270 -0.05 +0.12    +0.139 C 
DOCKED: ATOM     39  O   UNL d   1     -15.663  -1.572  -2.410 -0.04 -0.64    -0.650 OA
DOCKED: BRANCH  38  40
DOCKED: ATOM     40  O   UNL d   1     -14.771  -2.814  -4.013 -0.24 -0.78    -0.776 OA
DOCKED: ATOM     41  H   UNL d   1     -15.014  -2.765  -4.948 +0.03 +0.10    +0.167 HD
DOCKED: ENDBRANCH  38  40
DOCKED: ENDBRANCH  37  38
DOCKED: ENDBRANCH  36  37
DOCKED: ENDBRANCH  22  36
DOCKED: BRANCH  12  42
DOCKED: ATOM     42  C   UNL d   1     -10.352  -0.058   8.116 -0.52 +0.00    +0.004 C 
DOCKED: ATOM     43  C   UNL d   1      -9.014  -0.045   8.053 -0.41 +0.00    +0.012 C 
DOCKED: ENDBRANCH  12  42
DOCKED: BRANCH  17  44
DOCKED: ATOM     44  C   UNL d   1      -6.848   1.072   1.035 -0.39 +0.00    +0.004 C 
DOCKED: ATOM     45  C   UNL d   1      -6.333   2.302   0.940 -0.50 +0.00    +0.012 C 
DOCKED: ENDBRANCH  17  44
DOCKED: TORSDOF 10
DOCKED: TER
DOCKED: ENDMDL
________________________________________________________________________________


	BEGINNING GENETIC ALGORITHM DOCKING 14 of 100
Run: 14 Seed: 551604518 2004415774 [ Run 14 of 100 GA/GALS ]
Beginning LAMARCKIAN GENETIC ALGORITHM (LGA), with a maximum of 25000000 energy evaluations.

Final-Value: -14.389


	FINAL GENETIC ALGORITHM DOCKED STATE
	_______________________________________________


Detailed state:  trans -14.706 -1.564 3.300 quatxyzw 0.620064 0.217247 -0.080045 0.749611 center -0.174 -0.001 -0.047 ntor 10 141.5729 -146.2171 70.7078 -155.9930 -33.3902 86.4275 99.6611 129.1050 -127.4567 -161.4816
State:	-14.706  -1.564   3.300   0.937  0.328 -0.121 82.887    141.57 -146.22   70.71 -155.99  -33.39   86.43   99.66  129.11 -127.46 -161.48

DOCKED: MODEL       14
DOCKED: USER    Run = 14
DOCKED: USER    DPF = D:/Protein_go_brrr/autodock/final/AncMH_nat/heme_Fe/dock.dpf
DOCKED: USER  
DOCKED: USER    Estimated Free Energy of Binding    =   -9.88 kcal/mol  [=(1)+(2)+(3)-(4)]
DOCKED: USER    Estimated Inhibition Constant, Ki   =   56.82 nM (nanomolar)  [Temperature = 298.15 K]
DOCKED: USER    
DOCKED: USER    (1) Final Intermolecular Energy     =  -12.87 kcal/mol
DOCKED: USER        vdW + Hbond + desolv Energy     =   -9.04 kcal/mol
DOCKED: USER        Electrostatic Energy            =   -3.82 kcal/mol
DOCKED: USER    (2) Final Total Internal Energy     =   -1.52 kcal/mol
DOCKED: USER    (3) Torsional Free Energy           =   +2.98 kcal/mol
DOCKED: USER    (4) Unbound System's Energy  [=(2)] =   -1.52 kcal/mol
DOCKED: USER    
DOCKED: USER    
DOCKED: USER    NEWDPF move heme_Fe_opt.pdbqt
DOCKED: USER    NEWDPF about -0.174000 -0.001000 -0.047000
DOCKED: USER    NEWDPF tran0 -14.705884 -1.563718 3.300376
DOCKED: USER    NEWDPF quaternion0 0.620064 0.217247 -0.080045 0.749611
DOCKED: USER    NEWDPF axisangle0 0.936825 0.328227 -0.120935 82.886586
DOCKED: USER    NEWDPF quat0 0.936825 0.328227 -0.120935 82.886586
DOCKED: USER    NEWDPF dihe0 141.57 -146.22 70.71 -155.99 -33.39 86.43 99.66 129.11 -127.46 -161.48 
DOCKED: USER  keepresnum = 1 
DOCKED: USER  
DOCKED: REMARK  10 active torsions:
DOCKED: REMARK  status: ('A' for Active; 'I' for Inactive)
DOCKED: REMARK    1  A    between atoms: C_6  and  C_10 
DOCKED: REMARK    2  A    between atoms: C_10  and  C_11 
DOCKED: REMARK    3  A    between atoms: C_11  and  C_12 
DOCKED: REMARK    4  A    between atoms: C_12  and  O_14 
DOCKED: REMARK    5  A    between atoms: C_17  and  C_20 
DOCKED: REMARK    6  A    between atoms: C_24  and  C_27 
DOCKED: REMARK    7  A    between atoms: C_31  and  C_34 
DOCKED: REMARK    8  A    between atoms: C_34  and  C_35 
DOCKED: REMARK    9  A    between atoms: C_35  and  C_36 
DOCKED: REMARK   10  A    between atoms: C_36  and  O_38 
DOCKED: USER                              x       y       z     vdW  Elec       q    Type
DOCKED: USER                           _______ _______ _______ _____ _____    ______ ____
DOCKED: ROOT
DOCKED: ATOM      1  C   UNL d   1     -16.709  -1.872   2.981 -0.10 +0.05    +0.064 C 
DOCKED: ATOM      2  C   UNL d   1     -13.863  -1.349   6.988 -0.31 +0.01    +0.064 A 
DOCKED: ATOM      3  C   UNL d   1     -10.352   0.352   4.187 -0.33 +0.02    +0.064 C 
DOCKED: ATOM      4  C   UNL d   1     -13.052  -0.245   0.284 -0.24 +0.08    +0.064 C 
DOCKED: ATOM      5  C   UNL d   1     -16.204  -1.961   4.358 -0.09 +0.04    +0.066 A 
DOCKED: ATOM      6  C   UNL d   1     -16.902  -2.508   5.423 -0.09 -0.01    -0.021 A 
DOCKED: ATOM      7  C   UNL d   1     -16.112  -2.359   6.536 -0.16 -0.01    -0.025 A 
DOCKED: ATOM      8  C   UNL d   1     -14.962  -1.726   6.108 -0.16 +0.02    +0.066 A 
DOCKED: ATOM      9  C   UNL d   1     -16.445  -2.819   7.922 -0.25 +0.01    +0.051 C 
DOCKED: ATOM     10  C   UNL d   1     -12.719  -0.790   6.592 -0.36 +0.01    +0.066 A 
DOCKED: ATOM     11  C   UNL d   1     -11.733  -0.335   7.472 -0.48 -0.00    -0.021 A 
DOCKED: ATOM     12  C   UNL d   1     -10.717   0.175   6.690 -0.48 +0.00    +0.000 A 
DOCKED: ATOM     13  C   UNL d   1     -11.143   0.012   5.360 -0.39 +0.02    +0.070 A 
DOCKED: ATOM     14  C   UNL d   1     -11.787  -0.325   8.986 -0.55 +0.01    +0.052 C 
DOCKED: ATOM     15  C   UNL d   1     -10.778   0.245   2.907 -0.22 +0.03    +0.066 A 
DOCKED: ATOM     16  C   UNL d   1      -9.958   0.485   1.812 -0.34 -0.01    -0.021 A 
DOCKED: ATOM     17  C   UNL d   1     -10.735   0.317   0.685 -0.34 +0.00    +0.000 A 
DOCKED: ATOM     18  C   UNL d   1     -12.015  -0.019   1.120 -0.25 +0.06    +0.070 A 
DOCKED: ATOM     19  C   UNL d   1      -8.506   0.882   1.822 -0.42 +0.01    +0.052 C 
DOCKED: ATOM     20  C   UNL d   1     -14.396  -0.660   0.702 -0.19 +0.09    +0.066 A 
DOCKED: ATOM     21  C   UNL d   1     -15.526  -0.703  -0.127 -0.15 -0.04    -0.025 A 
DOCKED: ATOM     22  C   UNL d   1     -16.554  -1.182   0.659 -0.13 -0.03    -0.021 A 
DOCKED: ATOM     23  C   UNL d   1     -16.015  -1.404   1.932 -0.14 +0.07    +0.066 A 
DOCKED: ATOM     24  C   UNL d   1     -15.643  -0.313  -1.583 -0.14 +0.06    +0.051 C 
DOCKED: ATOM     25  N   UNL d   1     -15.017  -1.494   4.781 -0.08 -0.13    -0.248 N 
DOCKED: ATOM     26  N   UNL d   1     -12.367  -0.568   5.300 -0.25 -0.07    -0.248 N 
DOCKED: ATOM     27  N   UNL d   1     -12.032  -0.106   2.484 -0.16 -0.16    -0.248 N 
DOCKED: ATOM     28  N   UNL d   1     -14.710  -1.042   1.964 -0.14 -0.28    -0.248 N 
DOCKED: ATOM     29 FE   UNL d   1     -13.538  -0.805   3.630 -0.06 +0.00    +0.000 Fe
DOCKED: ENDROOT
DOCKED: BRANCH   6  30
DOCKED: ATOM     30  C   UNL d   1     -18.242  -3.160   5.383 -0.09 +0.02    +0.052 C 
DOCKED: BRANCH  30  31
DOCKED: ATOM     31  C   UNL d   1     -19.168  -2.432   4.415 -0.03 +0.07    +0.115 C 
DOCKED: BRANCH  31  32
DOCKED: ATOM     32  C   UNL d   1     -19.745  -1.203   5.063 -0.07 +0.11    +0.139 C 
DOCKED: ATOM     33  O   UNL d   1     -19.990  -1.187   6.261 +0.02 -0.40    -0.650 OA
DOCKED: BRANCH  32  34
DOCKED: ATOM     34  O   UNL d   1     -19.998  -0.108   4.327 -0.06 -1.20    -0.776 OA
DOCKED: ATOM     35  H   UNL d   1     -19.380   0.139   3.625 +0.02 +0.29    +0.167 HD
DOCKED: ENDBRANCH  32  34
DOCKED: ENDBRANCH  31  32
DOCKED: ENDBRANCH  30  31
DOCKED: ENDBRANCH   6  30
DOCKED: BRANCH  22  36
DOCKED: ATOM     36  C   UNL d   1     -17.983  -1.367   0.221 -0.06 +0.05    +0.052 C 
DOCKED: BRANCH  36  37
DOCKED: ATOM     37  C   UNL d   1     -18.595  -0.015  -0.116 -0.04 +0.11    +0.115 C 
DOCKED: BRANCH  37  38
DOCKED: ATOM     38  C   UNL d   1     -18.395   0.962   1.007 -0.11 +0.21    +0.139 C 
DOCKED: ATOM     39  O   UNL d   1     -17.373   1.627   1.083 +0.16 -1.61    -0.650 OA
DOCKED: BRANCH  38  40
DOCKED: ATOM     40  O   UNL d   1     -19.347   1.110   1.946 -0.16 -1.60    -0.776 OA
DOCKED: ATOM     41  H   UNL d   1     -19.875   0.342   2.205 +0.01 +0.27    +0.167 HD
DOCKED: ENDBRANCH  38  40
DOCKED: ENDBRANCH  37  38
DOCKED: ENDBRANCH  36  37
DOCKED: ENDBRANCH  22  36
DOCKED: BRANCH  12  42
DOCKED: ATOM     42  C   UNL d   1      -9.455   0.784   7.214 -0.47 +0.00    +0.004 C 
DOCKED: ATOM     43  C   UNL d   1      -8.261   0.250   6.927 -0.47 +0.00    +0.012 C 
DOCKED: ENDBRANCH  12  42
DOCKED: BRANCH  17  44
DOCKED: ATOM     44  C   UNL d   1     -10.278   0.449  -0.717 -0.38 +0.00    +0.004 C 
DOCKED: ATOM     45  C   UNL d   1     -10.552   1.549  -1.426 -0.34 +0.00    +0.012 C 
DOCKED: ENDBRANCH  17  44
DOCKED: TORSDOF 10
DOCKED: TER
DOCKED: ENDMDL
________________________________________________________________________________


	BEGINNING GENETIC ALGORITHM DOCKING 15 of 100
Run: 15 Seed: 1723941450 1594225818 [ Run 15 of 100 GA/GALS ]
Beginning LAMARCKIAN GENETIC ALGORITHM (LGA), with a maximum of 25000000 energy evaluations.

Final-Value: -14.658


	FINAL GENETIC ALGORITHM DOCKED STATE
	_______________________________________________


Detailed state:  trans -14.155 -1.485 3.148 quatxyzw 0.606879 0.231702 -0.061388 0.757788 center -0.174 -0.001 -0.047 ntor 10 -133.4581 -168.1879 69.3953 -179.3847 141.3972 135.7160 94.7848 107.3984 -12.8755 -179.9131
State:	-14.155  -1.485   3.148   0.930  0.355 -0.094 81.461   -133.46 -168.19   69.40 -179.38  141.40  135.72   94.78  107.40  -12.88 -179.91

DOCKED: MODEL       15
DOCKED: USER    Run = 15
DOCKED: USER    DPF = D:/Protein_go_brrr/autodock/final/AncMH_nat/heme_Fe/dock.dpf
DOCKED: USER  
DOCKED: USER    Estimated Free Energy of Binding    =   -9.84 kcal/mol  [=(1)+(2)+(3)-(4)]
DOCKED: USER    Estimated Inhibition Constant, Ki   =   61.54 nM (nanomolar)  [Temperature = 298.15 K]
DOCKED: USER    
DOCKED: USER    (1) Final Intermolecular Energy     =  -12.82 kcal/mol
DOCKED: USER        vdW + Hbond + desolv Energy     =  -10.02 kcal/mol
DOCKED: USER        Electrostatic Energy            =   -2.80 kcal/mol
DOCKED: USER    (2) Final Total Internal Energy     =   -1.84 kcal/mol
DOCKED: USER    (3) Torsional Free Energy           =   +2.98 kcal/mol
DOCKED: USER    (4) Unbound System's Energy  [=(2)] =   -1.84 kcal/mol
DOCKED: USER    
DOCKED: USER    
DOCKED: USER    NEWDPF move heme_Fe_opt.pdbqt
DOCKED: USER    NEWDPF about -0.174000 -0.001000 -0.047000
DOCKED: USER    NEWDPF tran0 -14.154518 -1.484757 3.148016
DOCKED: USER    NEWDPF quaternion0 0.606879 0.231702 -0.061388 0.757788
DOCKED: USER    NEWDPF axisangle0 0.930082 0.355099 -0.094081 81.460822
DOCKED: USER    NEWDPF quat0 0.930082 0.355099 -0.094081 81.460822
DOCKED: USER    NEWDPF dihe0 -133.46 -168.19 69.40 -179.38 141.40 135.72 94.78 107.40 -12.88 -179.91 
DOCKED: USER  keepresnum = 1 
DOCKED: USER  
DOCKED: REMARK  10 active torsions:
DOCKED: REMARK  status: ('A' for Active; 'I' for Inactive)
DOCKED: REMARK    1  A    between atoms: C_6  and  C_10 
DOCKED: REMARK    2  A    between atoms: C_10  and  C_11 
DOCKED: REMARK    3  A    between atoms: C_11  and  C_12 
DOCKED: REMARK    4  A    between atoms: C_12  and  O_14 
DOCKED: REMARK    5  A    between atoms: C_17  and  C_20 
DOCKED: REMARK    6  A    between atoms: C_24  and  C_27 
DOCKED: REMARK    7  A    between atoms: C_31  and  C_34 
DOCKED: REMARK    8  A    between atoms: C_34  and  C_35 
DOCKED: REMARK    9  A    between atoms: C_35  and  C_36 
DOCKED: REMARK   10  A    between atoms: C_36  and  O_38 
DOCKED: USER                              x       y       z     vdW  Elec       q    Type
DOCKED: USER                           _______ _______ _______ _____ _____    ______ ____
DOCKED: ROOT
DOCKED: ATOM      1  C   UNL d   1     -16.145  -1.767   2.739 -0.13 +0.06    +0.064 C 
DOCKED: ATOM      2  C   UNL d   1     -13.456  -1.424   6.872 -0.35 +0.01    +0.064 A 
DOCKED: ATOM      3  C   UNL d   1      -9.830   0.366   4.281 -0.18 +0.02    +0.064 C 
DOCKED: ATOM      4  C   UNL d   1     -12.377  -0.056   0.254 -0.28 +0.06    +0.064 C 
DOCKED: ATOM      5  C   UNL d   1     -15.695  -1.915   4.130 -0.11 +0.04    +0.066 A 
DOCKED: ATOM      6  C   UNL d   1     -16.437  -2.500   5.143 -0.10 -0.01    -0.021 A 
DOCKED: ATOM      7  C   UNL d   1     -15.691  -2.401   6.291 -0.18 -0.01    -0.025 A 
DOCKED: ATOM      8  C   UNL d   1     -14.521  -1.758   5.934 -0.22 +0.02    +0.066 A 
DOCKED: ATOM      9  C   UNL d   1     -16.080  -2.914   7.644 -0.27 +0.01    +0.051 C 
DOCKED: ATOM     10  C   UNL d   1     -12.294  -0.856   6.544 -0.35 +0.01    +0.066 A 
DOCKED: ATOM     11  C   UNL d   1     -11.342  -0.444   7.479 -0.42 -0.00    -0.021 A 
DOCKED: ATOM     12  C   UNL d   1     -10.293   0.091   6.758 -0.45 +0.00    +0.000 A 
DOCKED: ATOM     13  C   UNL d   1     -10.667  -0.016   5.407 -0.38 +0.02    +0.070 A 
DOCKED: ATOM     14  C   UNL d   1     -11.455  -0.494   8.989 -0.46 +0.01    +0.052 C 
DOCKED: ATOM     15  C   UNL d   1     -10.205   0.313   2.981 -0.25 +0.02    +0.066 A 
DOCKED: ATOM     16  C   UNL d   1      -9.342   0.592   1.930 -0.36 -0.01    -0.021 A 
DOCKED: ATOM     17  C   UNL d   1     -10.075   0.474   0.768 -0.38 +0.00    +0.000 A 
DOCKED: ATOM     18  C   UNL d   1     -11.373   0.129   1.138 -0.27 +0.04    +0.070 A 
DOCKED: ATOM     19  C   UNL d   1      -7.890   0.979   2.013 -0.41 +0.01    +0.052 C 
DOCKED: ATOM     20  C   UNL d   1     -13.739  -0.479   0.603 -0.21 +0.09    +0.066 A 
DOCKED: ATOM     21  C   UNL d   1     -14.835  -0.482  -0.272 -0.18 -0.04    -0.025 A 
DOCKED: ATOM     22  C   UNL d   1     -15.895  -0.985   0.454 -0.16 -0.03    -0.021 A 
DOCKED: ATOM     23  C   UNL d   1     -15.409  -1.262   1.737 -0.17 +0.08    +0.066 A 
DOCKED: ATOM     24  C   UNL d   1     -14.893  -0.033  -1.713 -0.15 +0.06    +0.051 C 
DOCKED: ATOM     25  N   UNL d   1     -14.523  -1.472   4.617 -0.12 -0.13    -0.248 N 
DOCKED: ATOM     26  N   UNL d   1     -11.891  -0.585   5.276 -0.26 -0.07    -0.248 N 
DOCKED: ATOM     27  N   UNL d   1     -11.443  -0.013   2.496 -0.15 -0.14    -0.248 N 
DOCKED: ATOM     28  N   UNL d   1     -14.104  -0.910   1.835 -0.16 -0.28    -0.248 N 
DOCKED: ATOM     29 FE   UNL d   1     -12.997  -0.747   3.554 -0.06 +0.00    +0.000 Fe
DOCKED: ENDROOT
DOCKED: BRANCH   6  30
DOCKED: ATOM     30  C   UNL d   1     -17.777  -3.141   5.025 -0.09 +0.03    +0.052 C 
DOCKED: BRANCH  30  31
DOCKED: ATOM     31  C   UNL d   1     -17.661  -4.523   4.391 -0.09 +0.06    +0.115 C 
DOCKED: BRANCH  31  32
DOCKED: ATOM     32  C   UNL d   1     -17.664  -4.416   2.892 -0.08 +0.10    +0.139 C 
DOCKED: ATOM     33  O   UNL d   1     -16.942  -5.134   2.214 -0.28 -0.71    -0.650 OA
DOCKED: BRANCH  32  34
DOCKED: ATOM     34  O   UNL d   1     -18.463  -3.526   2.280 +0.06 -0.51    -0.776 OA
DOCKED: ATOM     35  H   UNL d   1     -18.496  -2.618   2.613 +0.03 +0.12    +0.167 HD
DOCKED: ENDBRANCH  32  34
DOCKED: ENDBRANCH  31  32
DOCKED: ENDBRANCH  30  31
DOCKED: ENDBRANCH   6  30
DOCKED: BRANCH  22  36
DOCKED: ATOM     36  C   UNL d   1     -17.307  -1.143  -0.046 -0.10 +0.05    +0.052 C 
DOCKED: BRANCH  36  37
DOCKED: ATOM     37  C   UNL d   1     -18.047   0.180   0.080 -0.06 +0.14    +0.115 C 
DOCKED: BRANCH  37  38
DOCKED: ATOM     38  C   UNL d   1     -18.381   0.476   1.515 -0.12 +0.20    +0.139 C 
DOCKED: ATOM     39  O   UNL d   1     -18.207   1.593   1.979 -0.56 -1.39    -0.650 OA
DOCKED: BRANCH  38  40
DOCKED: ATOM     40  O   UNL d   1     -18.874  -0.495   2.303 +0.05 -0.88    -0.776 OA
DOCKED: ATOM     41  H   UNL d   1     -18.851  -1.411   1.992 +0.03 +0.14    +0.167 HD
DOCKED: ENDBRANCH  38  40
DOCKED: ENDBRANCH  37  38
DOCKED: ENDBRANCH  36  37
DOCKED: ENDBRANCH  22  36
DOCKED: BRANCH  12  42
DOCKED: ATOM     42  C   UNL d   1      -9.050   0.670   7.356 -0.49 +0.00    +0.004 C 
DOCKED: ATOM     43  C   UNL d   1      -7.851   0.125   7.114 -0.47 +0.00    +0.012 C 
DOCKED: ENDBRANCH  12  42
DOCKED: BRANCH  17  44
DOCKED: ATOM     44  C   UNL d   1      -9.563   0.659  -0.609 -0.34 +0.00    +0.004 C 
DOCKED: ATOM     45  C   UNL d   1     -10.147   1.521  -1.447 -0.35 +0.00    +0.012 C 
DOCKED: ENDBRANCH  17  44
DOCKED: TORSDOF 10
DOCKED: TER
DOCKED: ENDMDL
________________________________________________________________________________


	BEGINNING GENETIC ALGORITHM DOCKING 16 of 100
Run: 16 Seed: 790623872 1811946285 [ Run 16 of 100 GA/GALS ]
Beginning LAMARCKIAN GENETIC ALGORITHM (LGA), with a maximum of 25000000 energy evaluations.

Final-Value: -17.146


	FINAL GENETIC ALGORITHM DOCKED STATE
	_______________________________________________


Detailed state:  trans -10.509 0.063 2.713 quatxyzw 0.578176 0.237118 0.046701 0.779299 center -0.174 -0.001 -0.047 ntor 10 161.5089 -159.2265 23.6756 -122.7348 159.9439 45.2288 110.8003 -59.6521 28.5031 12.8947
State:	-10.509   0.063   2.713   0.923  0.378  0.075 77.607    161.51 -159.23   23.68 -122.73  159.94   45.23  110.80  -59.65   28.50   12.89

DOCKED: MODEL       16
DOCKED: USER    Run = 16
DOCKED: USER    DPF = D:/Protein_go_brrr/autodock/final/AncMH_nat/heme_Fe/dock.dpf
DOCKED: USER  
DOCKED: USER    Estimated Free Energy of Binding    =  -12.48 kcal/mol  [=(1)+(2)+(3)-(4)]
DOCKED: USER    Estimated Inhibition Constant, Ki   =  713.33 pM (picomolar)  [Temperature = 298.15 K]
DOCKED: USER    
DOCKED: USER    (1) Final Intermolecular Energy     =  -15.46 kcal/mol
DOCKED: USER        vdW + Hbond + desolv Energy     =  -12.39 kcal/mol
DOCKED: USER        Electrostatic Energy            =   -3.07 kcal/mol
DOCKED: USER    (2) Final Total Internal Energy     =   -1.69 kcal/mol
DOCKED: USER    (3) Torsional Free Energy           =   +2.98 kcal/mol
DOCKED: USER    (4) Unbound System's Energy  [=(2)] =   -1.69 kcal/mol
DOCKED: USER    
DOCKED: USER    
DOCKED: USER    NEWDPF move heme_Fe_opt.pdbqt
DOCKED: USER    NEWDPF about -0.174000 -0.001000 -0.047000
DOCKED: USER    NEWDPF tran0 -10.508964 0.063431 2.712524
DOCKED: USER    NEWDPF quaternion0 0.578176 0.237118 0.046701 0.779299
DOCKED: USER    NEWDPF axisangle0 0.922642 0.378389 0.074524 77.607210
DOCKED: USER    NEWDPF quat0 0.922642 0.378389 0.074524 77.607210
DOCKED: USER    NEWDPF dihe0 161.51 -159.23 23.68 -122.73 159.94 45.23 110.80 -59.65 28.50 12.89 
DOCKED: USER  keepresnum = 1 
DOCKED: USER  
DOCKED: REMARK  10 active torsions:
DOCKED: REMARK  status: ('A' for Active; 'I' for Inactive)
DOCKED: REMARK    1  A    between atoms: C_6  and  C_10 
DOCKED: REMARK    2  A    between atoms: C_10  and  C_11 
DOCKED: REMARK    3  A    between atoms: C_11  and  C_12 
DOCKED: REMARK    4  A    between atoms: C_12  and  O_14 
DOCKED: REMARK    5  A    between atoms: C_17  and  C_20 
DOCKED: REMARK    6  A    between atoms: C_24  and  C_27 
DOCKED: REMARK    7  A    between atoms: C_31  and  C_34 
DOCKED: REMARK    8  A    between atoms: C_34  and  C_35 
DOCKED: REMARK    9  A    between atoms: C_35  and  C_36 
DOCKED: REMARK   10  A    between atoms: C_36  and  O_38 
DOCKED: USER                              x       y       z     vdW  Elec       q    Type
DOCKED: USER                           _______ _______ _______ _____ _____    ______ ____
DOCKED: ROOT
DOCKED: ATOM      1  C   UNL d   1     -12.447   0.136   2.042 -0.30 +0.06    +0.064 C 
DOCKED: ATOM      2  C   UNL d   1     -10.314  -0.395   6.469 -0.23 +0.01    +0.064 A 
DOCKED: ATOM      3  C   UNL d   1      -6.161   1.093   4.570 -0.34 +0.00    +0.064 C 
DOCKED: ATOM      4  C   UNL d   1      -8.180   1.513   0.253 -0.35 +0.01    +0.064 C 
DOCKED: ATOM      5  C   UNL d   1     -12.212  -0.231   3.445 -0.20 +0.04    +0.066 A 
DOCKED: ATOM      6  C   UNL d   1     -13.156  -0.804   4.281 -0.27 -0.01    -0.021 A 
DOCKED: ATOM      7  C   UNL d   1     -12.564  -0.948   5.512 -0.35 -0.01    -0.025 A 
DOCKED: ATOM      8  C   UNL d   1     -11.280  -0.456   5.379 -0.33 +0.02    +0.066 A 
DOCKED: ATOM      9  C   UNL d   1     -13.197  -1.541   6.732 -0.41 +0.01    +0.051 C 
DOCKED: ATOM     10  C   UNL d   1      -9.052   0.021   6.354 -0.35 +0.01    +0.066 A 
DOCKED: ATOM     11  C   UNL d   1      -8.185   0.177   7.439 -0.40 -0.00    -0.021 A 
DOCKED: ATOM     12  C   UNL d   1      -6.986   0.621   6.919 -0.42 +0.00    +0.000 A 
DOCKED: ATOM     13  C   UNL d   1      -7.187   0.722   5.532 -0.31 +0.01    +0.070 A 
DOCKED: ATOM     14  C   UNL d   1      -8.505  -0.022   8.906 -0.46 +0.00    +0.052 C 
DOCKED: ATOM     15  C   UNL d   1      -6.363   1.242   3.239 -0.33 +0.01    +0.066 A 
DOCKED: ATOM     16  C   UNL d   1      -5.336   1.500   2.340 -0.32 -0.00    -0.021 A 
DOCKED: ATOM     17  C   UNL d   1      -5.917   1.625   1.095 -0.43 +0.00    +0.000 A 
DOCKED: ATOM     18  C   UNL d   1      -7.287   1.444   1.265 -0.39 +0.01    +0.070 A 
DOCKED: ATOM     19  C   UNL d   1      -3.869   1.648   2.640 -0.31 -0.00    +0.052 C 
DOCKED: ATOM     20  C   UNL d   1      -9.621   1.268   0.384 -0.33 +0.02    +0.066 A 
DOCKED: ATOM     21  C   UNL d   1     -10.580   1.530  -0.605 -0.29 -0.01    -0.025 A 
DOCKED: ATOM     22  C   UNL d   1     -11.787   1.118  -0.079 -0.25 -0.02    -0.021 A 
DOCKED: ATOM     23  C   UNL d   1     -11.520   0.630   1.206 -0.26 +0.05    +0.066 A 
DOCKED: ATOM     24  C   UNL d   1     -10.382   2.139  -1.974 -0.24 +0.01    +0.051 C 
DOCKED: ATOM     25  N   UNL d   1     -11.065  -0.030   4.118 -0.19 -0.09    -0.248 N 
DOCKED: ATOM     26  N   UNL d   1      -8.448   0.365   5.188 -0.13 -0.09    -0.248 N 
DOCKED: ATOM     27  N   UNL d   1      -7.558   1.165   2.575 -0.22 -0.04    -0.248 N 
DOCKED: ATOM     28  N   UNL d   1     -10.204   0.765   1.499 -0.18 -0.10    -0.248 N 
DOCKED: ATOM     29 FE   UNL d   1      -9.325   0.566   3.342 -0.08 +0.00    +0.000 Fe
DOCKED: ENDROOT
DOCKED: BRANCH   6  30
DOCKED: ATOM     30  C   UNL d   1     -14.544  -1.215   3.926 -0.20 +0.03    +0.052 C 
DOCKED: BRANCH  30  31
DOCKED: ATOM     31  C   UNL d   1     -14.726  -2.718   4.107 -0.20 +0.07    +0.115 C 
DOCKED: BRANCH  31  32
DOCKED: ATOM     32  C   UNL d   1     -13.935  -3.472   3.074 -0.08 +0.13    +0.139 C 
DOCKED: ATOM     33  O   UNL d   1     -13.642  -4.646   3.248 -0.15 -0.58    -0.650 OA
DOCKED: BRANCH  32  34
DOCKED: ATOM     34  O   UNL d   1     -13.542  -2.858   1.945 -0.54 -1.07    -0.776 OA
DOCKED: ATOM     35  H   UNL d   1     -13.985  -2.040   1.677 +0.05 +0.20    +0.167 HD
DOCKED: ENDBRANCH  32  34
DOCKED: ENDBRANCH  31  32
DOCKED: ENDBRANCH  30  31
DOCKED: ENDBRANCH   6  30
DOCKED: BRANCH  22  36
DOCKED: ATOM     36  C   UNL d   1     -13.128   1.234  -0.756 -0.01 +0.08    +0.052 C 
DOCKED: BRANCH  36  37
DOCKED: ATOM     37  C   UNL d   1     -13.626  -0.149  -1.148 -0.15 +0.13    +0.115 C 
DOCKED: BRANCH  37  38
DOCKED: ATOM     38  C   UNL d   1     -14.930  -0.463  -0.472 -0.16 +0.20    +0.139 C 
DOCKED: ATOM     39  O   UNL d   1     -15.829   0.363  -0.432 -0.25 -1.37    -0.650 OA
DOCKED: BRANCH  38  40
DOCKED: ATOM     40  O   UNL d   1     -15.116  -1.666   0.102 +0.03 -1.06    -0.776 OA
DOCKED: ATOM     41  H   UNL d   1     -14.343  -2.197   0.341 +0.05 +0.26    +0.167 HD
DOCKED: ENDBRANCH  38  40
DOCKED: ENDBRANCH  37  38
DOCKED: ENDBRANCH  36  37
DOCKED: ENDBRANCH  22  36
DOCKED: BRANCH  12  42
DOCKED: ATOM     42  C   UNL d   1      -5.766   0.933   7.727 -0.55 +0.00    +0.004 C 
DOCKED: ATOM     43  C   UNL d   1      -5.047  -0.044   8.295 -0.59 -0.00    +0.012 C 
DOCKED: ENDBRANCH  12  42
DOCKED: BRANCH  17  44
DOCKED: ATOM     44  C   UNL d   1      -5.204   1.880  -0.177 -0.41 -0.00    +0.004 C 
DOCKED: ATOM     45  C   UNL d   1      -4.618   3.059  -0.409 -0.60 -0.00    +0.012 C 
DOCKED: ENDBRANCH  17  44
DOCKED: TORSDOF 10
DOCKED: TER
DOCKED: ENDMDL
________________________________________________________________________________


	BEGINNING GENETIC ALGORITHM DOCKING 17 of 100
Run: 17 Seed: 1630192472 922857553 [ Run 17 of 100 GA/GALS ]
Beginning LAMARCKIAN GENETIC ALGORITHM (LGA), with a maximum of 25000000 energy evaluations.

Final-Value: -13.794


	FINAL GENETIC ALGORITHM DOCKED STATE
	_______________________________________________


Detailed state:  trans -14.238 -0.863 2.479 quatxyzw 0.771490 -0.023866 0.243106 -0.587480 center -0.174 -0.001 -0.047 ntor 10 -127.9232 -87.8953 179.5118 -1.2227 -23.6312 -5.0265 122.0497 56.2011 31.8921 -180.0000
State:	-14.238  -0.863   2.479   0.953 -0.029  0.300 -108.043   -127.92  -87.90  179.51   -1.22  -23.63   -5.03  122.05   56.20   31.89 -180.00

DOCKED: MODEL       17
DOCKED: USER    Run = 17
DOCKED: USER    DPF = D:/Protein_go_brrr/autodock/final/AncMH_nat/heme_Fe/dock.dpf
DOCKED: USER  
DOCKED: USER    Estimated Free Energy of Binding    =  -10.25 kcal/mol  [=(1)+(2)+(3)-(4)]
DOCKED: USER    Estimated Inhibition Constant, Ki   =   30.59 nM (nanomolar)  [Temperature = 298.15 K]
DOCKED: USER    
DOCKED: USER    (1) Final Intermolecular Energy     =  -13.23 kcal/mol
DOCKED: USER        vdW + Hbond + desolv Energy     =   -9.80 kcal/mol
DOCKED: USER        Electrostatic Energy            =   -3.43 kcal/mol
DOCKED: USER    (2) Final Total Internal Energy     =   -0.56 kcal/mol
DOCKED: USER    (3) Torsional Free Energy           =   +2.98 kcal/mol
DOCKED: USER    (4) Unbound System's Energy  [=(2)] =   -0.56 kcal/mol
DOCKED: USER    
DOCKED: USER    
DOCKED: USER    NEWDPF move heme_Fe_opt.pdbqt
DOCKED: USER    NEWDPF about -0.174000 -0.001000 -0.047000
DOCKED: USER    NEWDPF tran0 -14.237542 -0.863352 2.478549
DOCKED: USER    NEWDPF quaternion0 0.771490 -0.023866 0.243106 -0.587480
DOCKED: USER    NEWDPF axisangle0 0.953353 -0.029492 0.300413 -108.043220
DOCKED: USER    NEWDPF quat0 0.953353 -0.029492 0.300413 -108.043220
DOCKED: USER    NEWDPF dihe0 -127.92 -87.90 179.51 -1.22 -23.63 -5.03 122.05 56.20 31.89 -180.00 
DOCKED: USER  keepresnum = 1 
DOCKED: USER  
DOCKED: REMARK  10 active torsions:
DOCKED: REMARK  status: ('A' for Active; 'I' for Inactive)
DOCKED: REMARK    1  A    between atoms: C_6  and  C_10 
DOCKED: REMARK    2  A    between atoms: C_10  and  C_11 
DOCKED: REMARK    3  A    between atoms: C_11  and  C_12 
DOCKED: REMARK    4  A    between atoms: C_12  and  O_14 
DOCKED: REMARK    5  A    between atoms: C_17  and  C_20 
DOCKED: REMARK    6  A    between atoms: C_24  and  C_27 
DOCKED: REMARK    7  A    between atoms: C_31  and  C_34 
DOCKED: REMARK    8  A    between atoms: C_34  and  C_35 
DOCKED: REMARK    9  A    between atoms: C_35  and  C_36 
DOCKED: REMARK   10  A    between atoms: C_36  and  O_38 
DOCKED: USER                              x       y       z     vdW  Elec       q    Type
DOCKED: USER                           _______ _______ _______ _____ _____    ______ ____
DOCKED: ROOT
DOCKED: ATOM      1  C   UNL d   1     -15.778  -1.826   1.525 -0.16 +0.07    +0.064 C 
DOCKED: ATOM      2  C   UNL d   1     -11.557   0.286   0.059 -0.26 +0.05    +0.064 A 
DOCKED: ATOM      3  C   UNL d   1     -10.054   0.287   4.621 -0.25 +0.02    +0.064 C 
DOCKED: ATOM      4  C   UNL d   1     -14.175  -1.661   6.075 -0.28 +0.02    +0.064 C 
DOCKED: ATOM      5  C   UNL d   1     -14.764  -1.155   0.701 -0.17 +0.09    +0.066 A 
DOCKED: ATOM      6  C   UNL d   1     -14.902  -0.874  -0.649 -0.15 -0.03    -0.021 A 
DOCKED: ATOM      7  C   UNL d   1     -13.727  -0.290  -1.056 -0.12 -0.03    -0.025 A 
DOCKED: ATOM      8  C   UNL d   1     -12.917  -0.238   0.062 -0.19 +0.07    +0.066 A 
DOCKED: ATOM      9  C   UNL d   1     -13.419   0.203  -2.436 -0.17 +0.04    +0.051 C 
DOCKED: ATOM     10  C   UNL d   1     -10.776   0.401   1.135 -0.28 +0.03    +0.066 A 
DOCKED: ATOM     11  C   UNL d   1      -9.439   0.800   1.082 -0.38 -0.01    -0.021 A 
DOCKED: ATOM     12  C   UNL d   1      -8.977   0.792   2.383 -0.36 +0.00    +0.000 A 
DOCKED: ATOM     13  C   UNL d   1     -10.066   0.377   3.169 -0.27 +0.02    +0.070 A 
DOCKED: ATOM     14  C   UNL d   1      -8.620   1.107  -0.156 -0.34 +0.01    +0.052 C 
DOCKED: ATOM     15  C   UNL d   1     -11.083  -0.161   5.378 -0.37 +0.02    +0.066 A 
DOCKED: ATOM     16  C   UNL d   1     -11.069  -0.138   6.767 -0.45 -0.00    -0.021 A 
DOCKED: ATOM     17  C   UNL d   1     -12.255  -0.702   7.189 -0.45 +0.00    +0.000 A 
DOCKED: ATOM     18  C   UNL d   1     -12.964  -1.062   6.045 -0.32 +0.02    +0.070 A 
DOCKED: ATOM     19  C   UNL d   1      -9.974   0.372   7.666 -0.47 +0.01    +0.052 C 
DOCKED: ATOM     20  C   UNL d   1     -14.977  -1.997   4.893 -0.16 +0.03    +0.066 A 
DOCKED: ATOM     21  C   UNL d   1     -16.132  -2.792   4.898 -0.11 -0.01    -0.025 A 
DOCKED: ATOM     22  C   UNL d   1     -16.580  -2.816   3.593 -0.08 -0.01    -0.021 A 
DOCKED: ATOM     23  C   UNL d   1     -15.681  -2.044   2.846 -0.13 +0.06    +0.066 A 
DOCKED: ATOM     24  C   UNL d   1     -16.785  -3.500   6.062 -0.16 +0.02    +0.051 C 
DOCKED: ATOM     25  N   UNL d   1     -13.554  -0.756   1.131 -0.17 -0.29    -0.248 N 
DOCKED: ATOM     26  N   UNL d   1     -11.160   0.130   2.408 -0.16 -0.13    -0.248 N 
DOCKED: ATOM     27  N   UNL d   1     -12.264  -0.690   4.931 -0.23 -0.08    -0.248 N 
DOCKED: ATOM     28  N   UNL d   1     -14.681  -1.584   3.637 -0.11 -0.18    -0.248 N 
DOCKED: ATOM     29 FE   UNL d   1     -12.921  -0.728   3.024 -0.06 +0.00    +0.000 Fe
DOCKED: ENDROOT
DOCKED: BRANCH   6  30
DOCKED: ATOM     30  C   UNL d   1     -16.095  -1.125  -1.505 -0.14 +0.06    +0.052 C 
DOCKED: BRANCH  30  31
DOCKED: ATOM     31  C   UNL d   1     -16.603   0.174  -2.120 -0.06 +0.11    +0.115 C 
DOCKED: BRANCH  31  32
DOCKED: ATOM     32  C   UNL d   1     -16.944   1.167  -1.043 +0.16 +0.23    +0.139 C 
DOCKED: ATOM     33  O   UNL d   1     -17.220   0.791   0.087 -0.40 -1.27    -0.650 OA
DOCKED: BRANCH  32  34
DOCKED: ATOM     34  O   UNL d   1     -16.948   2.483  -1.316 -0.02 -1.39    -0.776 OA
DOCKED: ATOM     35  H   UNL d   1     -17.458   2.804  -2.072 +0.01 +0.17    +0.167 HD
DOCKED: ENDBRANCH  32  34
DOCKED: ENDBRANCH  31  32
DOCKED: ENDBRANCH  30  31
DOCKED: ENDBRANCH   6  30
DOCKED: BRANCH  22  36
DOCKED: ATOM     36  C   UNL d   1     -17.776  -3.578   3.087 -0.07 +0.03    +0.052 C 
DOCKED: BRANCH  36  37
DOCKED: ATOM     37  C   UNL d   1     -17.385  -5.024   2.816 -0.12 +0.09    +0.115 C 
DOCKED: BRANCH  37  38
DOCKED: ATOM     38  C   UNL d   1     -17.712  -5.414   1.402 -0.02 +0.14    +0.139 C 
DOCKED: ATOM     39  O   UNL d   1     -18.307  -4.644   0.662 -0.05 -0.59    -0.650 OA
DOCKED: BRANCH  38  40
DOCKED: ATOM     40  O   UNL d   1     -17.351  -6.624   0.939 -0.46 -0.94    -0.776 OA
DOCKED: ATOM     41  H   UNL d   1     -17.975  -7.360   1.012 +0.03 +0.12    +0.167 HD
DOCKED: ENDBRANCH  38  40
DOCKED: ENDBRANCH  37  38
DOCKED: ENDBRANCH  36  37
DOCKED: ENDBRANCH  22  36
DOCKED: BRANCH  12  42
DOCKED: ATOM     42  C   UNL d   1      -7.585   1.145   2.799 -0.40 +0.00    +0.004 C 
DOCKED: ATOM     43  C   UNL d   1      -6.901   0.365   3.647 -0.40 +0.00    +0.012 C 
DOCKED: ENDBRANCH  12  42
DOCKED: BRANCH  17  44
DOCKED: ATOM     44  C   UNL d   1     -12.690  -0.868   8.594 -0.55 +0.00    +0.004 C 
DOCKED: ATOM     45  C   UNL d   1     -12.698   0.171   9.436 -0.54 +0.00    +0.012 C 
DOCKED: ENDBRANCH  17  44
DOCKED: TORSDOF 10
DOCKED: TER
DOCKED: ENDMDL
________________________________________________________________________________


	BEGINNING GENETIC ALGORITHM DOCKING 18 of 100
Run: 18 Seed: 1037287044 555781397 [ Run 18 of 100 GA/GALS ]
Beginning LAMARCKIAN GENETIC ALGORITHM (LGA), with a maximum of 25000000 energy evaluations.

Final-Value: -14.544


	FINAL GENETIC ALGORITHM DOCKED STATE
	_______________________________________________


Detailed state:  trans -14.249 -1.152 3.145 quatxyzw 0.765483 0.060866 0.186486 -0.612825 center -0.174 -0.001 -0.047 ntor 10 -153.2822 -93.9702 7.5933 69.4551 -113.3625 -15.9035 -149.0999 76.0034 -21.5464 159.2065
State:	-14.249  -1.152   3.145   0.969  0.077  0.236 -104.412   -153.28  -93.97    7.59   69.46 -113.36  -15.90 -149.10   76.00  -21.55  159.21

DOCKED: MODEL       18
DOCKED: USER    Run = 18
DOCKED: USER    DPF = D:/Protein_go_brrr/autodock/final/AncMH_nat/heme_Fe/dock.dpf
DOCKED: USER  
DOCKED: USER    Estimated Free Energy of Binding    =  -10.80 kcal/mol  [=(1)+(2)+(3)-(4)]
DOCKED: USER    Estimated Inhibition Constant, Ki   =   12.19 nM (nanomolar)  [Temperature = 298.15 K]
DOCKED: USER    
DOCKED: USER    (1) Final Intermolecular Energy     =  -13.78 kcal/mol
DOCKED: USER        vdW + Hbond + desolv Energy     =  -10.21 kcal/mol
DOCKED: USER        Electrostatic Energy            =   -3.57 kcal/mol
DOCKED: USER    (2) Final Total Internal Energy     =   -0.76 kcal/mol
DOCKED: USER    (3) Torsional Free Energy           =   +2.98 kcal/mol
DOCKED: USER    (4) Unbound System's Energy  [=(2)] =   -0.76 kcal/mol
DOCKED: USER    
DOCKED: USER    
DOCKED: USER    NEWDPF move heme_Fe_opt.pdbqt
DOCKED: USER    NEWDPF about -0.174000 -0.001000 -0.047000
DOCKED: USER    NEWDPF tran0 -14.248761 -1.151632 3.145480
DOCKED: USER    NEWDPF quaternion0 0.765483 0.060866 0.186486 -0.612825
DOCKED: USER    NEWDPF axisangle0 0.968697 0.077025 0.235993 -104.411939
DOCKED: USER    NEWDPF quat0 0.968697 0.077025 0.235993 -104.411939
DOCKED: USER    NEWDPF dihe0 -153.28 -93.97 7.59 69.46 -113.36 -15.90 -149.10 76.00 -21.55 159.21 
DOCKED: USER  keepresnum = 1 
DOCKED: USER  
DOCKED: REMARK  10 active torsions:
DOCKED: REMARK  status: ('A' for Active; 'I' for Inactive)
DOCKED: REMARK    1  A    between atoms: C_6  and  C_10 
DOCKED: REMARK    2  A    between atoms: C_10  and  C_11 
DOCKED: REMARK    3  A    between atoms: C_11  and  C_12 
DOCKED: REMARK    4  A    between atoms: C_12  and  O_14 
DOCKED: REMARK    5  A    between atoms: C_17  and  C_20 
DOCKED: REMARK    6  A    between atoms: C_24  and  C_27 
DOCKED: REMARK    7  A    between atoms: C_31  and  C_34 
DOCKED: REMARK    8  A    between atoms: C_34  and  C_35 
DOCKED: REMARK    9  A    between atoms: C_35  and  C_36 
DOCKED: REMARK   10  A    between atoms: C_36  and  O_38 
DOCKED: USER                              x       y       z     vdW  Elec       q    Type
DOCKED: USER                           _______ _______ _______ _____ _____    ______ ____
DOCKED: ROOT
DOCKED: ATOM      1  C   UNL d   1     -15.878  -2.262   2.576 -0.14 +0.06    +0.064 C 
DOCKED: ATOM      2  C   UNL d   1     -12.127  -0.106   0.186 -0.24 +0.06    +0.064 A 
DOCKED: ATOM      3  C   UNL d   1      -9.821   0.366   4.372 -0.16 +0.02    +0.064 C 
DOCKED: ATOM      4  C   UNL d   1     -13.485  -1.622   6.719 -0.39 +0.01    +0.064 C 
DOCKED: ATOM      5  C   UNL d   1     -15.072  -1.623   1.526 -0.17 +0.08    +0.066 A 
DOCKED: ATOM      6  C   UNL d   1     -15.469  -1.469   0.208 -0.14 -0.03    -0.021 A 
DOCKED: ATOM      7  C   UNL d   1     -14.425  -0.874  -0.456 -0.06 -0.03    -0.025 A 
DOCKED: ATOM      8  C   UNL d   1     -13.430  -0.687   0.483 -0.16 +0.08    +0.066 A 
DOCKED: ATOM      9  C   UNL d   1     -14.403  -0.493  -1.905 -0.16 +0.05    +0.051 C 
DOCKED: ATOM     10  C   UNL d   1     -11.171   0.137   1.084 -0.28 +0.04    +0.066 A 
DOCKED: ATOM     11  C   UNL d   1      -9.891   0.588   0.751 -0.37 -0.01    -0.021 A 
DOCKED: ATOM     12  C   UNL d   1      -9.201   0.716   1.940 -0.37 +0.00    +0.000 A 
DOCKED: ATOM     13  C   UNL d   1     -10.102   0.325   2.946 -0.26 +0.02    +0.070 A 
DOCKED: ATOM     14  C   UNL d   1      -9.331   0.819  -0.638 -0.33 +0.01    +0.052 C 
DOCKED: ATOM     15  C   UNL d   1     -10.666  -0.058   5.341 -0.37 +0.02    +0.066 A 
DOCKED: ATOM     16  C   UNL d   1     -10.401   0.090   6.697 -0.45 -0.00    -0.021 A 
DOCKED: ATOM     17  C   UNL d   1     -11.455  -0.486   7.376 -0.45 +0.00    +0.000 A 
DOCKED: ATOM     18  C   UNL d   1     -12.338  -0.976   6.416 -0.32 +0.01    +0.070 A 
DOCKED: ATOM     19  C   UNL d   1      -9.193   0.724   7.333 -0.45 +0.01    +0.052 C 
DOCKED: ATOM     20  C   UNL d   1     -14.468  -2.097   5.738 -0.23 +0.02    +0.066 A 
DOCKED: ATOM     21  C   UNL d   1     -15.554  -2.938   6.021 -0.18 -0.01    -0.025 A 
DOCKED: ATOM     22  C   UNL d   1     -16.229  -3.097   4.828 -0.11 -0.01    -0.021 A 
DOCKED: ATOM     23  C   UNL d   1     -15.529  -2.356   3.869 -0.12 +0.04    +0.066 A 
DOCKED: ATOM     24  C   UNL d   1     -15.941  -3.567   7.339 -0.31 +0.01    +0.051 C 
DOCKED: ATOM     25  N   UNL d   1     -13.830  -1.135   1.690 -0.17 -0.27    -0.248 N 
DOCKED: ATOM     26  N   UNL d   1     -11.300  -0.036   2.424 -0.15 -0.13    -0.248 N 
DOCKED: ATOM     27  N   UNL d   1     -11.876  -0.675   5.166 -0.23 -0.07    -0.248 N 
DOCKED: ATOM     28  N   UNL d   1     -14.431  -1.785   4.420 -0.13 -0.13    -0.248 N 
DOCKED: ATOM     29 FE   UNL d   1     -12.865  -0.911   3.424 -0.06 +0.00    +0.000 Fe
DOCKED: ENDROOT
DOCKED: BRANCH   6  30
DOCKED: ATOM     30  C   UNL d   1     -16.781  -1.848  -0.389 -0.12 +0.06    +0.052 C 
DOCKED: BRANCH  30  31
DOCKED: ATOM     31  C   UNL d   1     -17.899  -0.968   0.161 -0.05 +0.11    +0.115 C 
DOCKED: BRANCH  31  32
DOCKED: ATOM     32  C   UNL d   1     -17.374   0.401   0.495 +0.01 +0.23    +0.139 C 
DOCKED: ATOM     33  O   UNL d   1     -17.333   0.787   1.655 -0.33 -1.24    -0.650 OA
DOCKED: BRANCH  32  34
DOCKED: ATOM     34  O   UNL d   1     -16.945   1.216  -0.483 -0.08 -1.68    -0.776 OA
DOCKED: ATOM     35  H   UNL d   1     -17.310   1.115  -1.373 +0.02 +0.21    +0.167 HD
DOCKED: ENDBRANCH  32  34
DOCKED: ENDBRANCH  31  32
DOCKED: ENDBRANCH  30  31
DOCKED: ENDBRANCH   6  30
DOCKED: BRANCH  22  36
DOCKED: ATOM     36  C   UNL d   1     -17.450  -3.953   4.616 -0.11 +0.03    +0.052 C 
DOCKED: BRANCH  36  37
DOCKED: ATOM     37  C   UNL d   1     -17.058  -5.238   3.902 -0.14 +0.06    +0.115 C 
DOCKED: BRANCH  37  38
DOCKED: ATOM     38  C   UNL d   1     -17.474  -5.201   2.459 -0.11 +0.11    +0.139 C 
DOCKED: ATOM     39  O   UNL d   1     -18.288  -4.379   2.064 +0.01 -0.46    -0.650 OA
DOCKED: BRANCH  38  40
DOCKED: ATOM     40  O   UNL d   1     -16.952  -6.081   1.586 -0.38 -1.02    -0.776 OA
DOCKED: ATOM     41  H   UNL d   1     -17.363  -6.952   1.494 +0.04 +0.15    +0.167 HD
DOCKED: ENDBRANCH  38  40
DOCKED: ENDBRANCH  37  38
DOCKED: ENDBRANCH  36  37
DOCKED: ENDBRANCH  22  36
DOCKED: BRANCH  12  42
DOCKED: ATOM     42  C   UNL d   1      -7.779   1.164   2.060 -0.44 +0.00    +0.004 C 
DOCKED: ATOM     43  C   UNL d   1      -7.378   2.332   1.540 -0.43 +0.00    +0.012 C 
DOCKED: ENDBRANCH  12  42
DOCKED: BRANCH  17  44
DOCKED: ATOM     44  C   UNL d   1     -11.617  -0.545   8.846 -0.55 +0.00    +0.004 C 
DOCKED: ATOM     45  C   UNL d   1     -12.706  -0.041   9.436 -0.59 +0.00    +0.012 C 
DOCKED: ENDBRANCH  17  44
DOCKED: TORSDOF 10
DOCKED: TER
DOCKED: ENDMDL
________________________________________________________________________________


	BEGINNING GENETIC ALGORITHM DOCKING 19 of 100
Run: 19 Seed: 180212250 1708022495 [ Run 19 of 100 GA/GALS ]
Beginning LAMARCKIAN GENETIC ALGORITHM (LGA), with a maximum of 25000000 energy evaluations.

Final-Value: -14.640


	FINAL GENETIC ALGORITHM DOCKED STATE
	_______________________________________________


Detailed state:  trans -15.029 -0.930 3.695 quatxyzw 0.766584 0.080709 0.123102 -0.625044 center -0.174 -0.001 -0.047 ntor 10 -161.8161 -38.0285 167.3376 64.9675 114.1340 65.5332 148.4627 -118.3992 19.9775 1.6309
State:	-15.029  -0.930   3.695   0.982  0.103  0.158 -102.629   -161.82  -38.03  167.34   64.97  114.13   65.53  148.46 -118.40   19.98    1.63

DOCKED: MODEL       19
DOCKED: USER    Run = 19
DOCKED: USER    DPF = D:/Protein_go_brrr/autodock/final/AncMH_nat/heme_Fe/dock.dpf
DOCKED: USER  
DOCKED: USER    Estimated Free Energy of Binding    =   -9.60 kcal/mol  [=(1)+(2)+(3)-(4)]
DOCKED: USER    Estimated Inhibition Constant, Ki   =   91.71 nM (nanomolar)  [Temperature = 298.15 K]
DOCKED: USER    
DOCKED: USER    (1) Final Intermolecular Energy     =  -12.58 kcal/mol
DOCKED: USER        vdW + Hbond + desolv Energy     =   -9.39 kcal/mol
DOCKED: USER        Electrostatic Energy            =   -3.20 kcal/mol
DOCKED: USER    (2) Final Total Internal Energy     =   -2.06 kcal/mol
DOCKED: USER    (3) Torsional Free Energy           =   +2.98 kcal/mol
DOCKED: USER    (4) Unbound System's Energy  [=(2)] =   -2.06 kcal/mol
DOCKED: USER    
DOCKED: USER    
DOCKED: USER    NEWDPF move heme_Fe_opt.pdbqt
DOCKED: USER    NEWDPF about -0.174000 -0.001000 -0.047000
DOCKED: USER    NEWDPF tran0 -15.028877 -0.929860 3.694929
DOCKED: USER    NEWDPF quaternion0 0.766584 0.080709 0.123102 -0.625044
DOCKED: USER    NEWDPF axisangle0 0.982059 0.103394 0.157704 -102.629135
DOCKED: USER    NEWDPF quat0 0.982059 0.103394 0.157704 -102.629135
DOCKED: USER    NEWDPF dihe0 -161.82 -38.03 167.34 64.97 114.13 65.53 148.46 -118.40 19.98 1.63 
DOCKED: USER  keepresnum = 1 
DOCKED: USER  
DOCKED: REMARK  10 active torsions:
DOCKED: REMARK  status: ('A' for Active; 'I' for Inactive)
DOCKED: REMARK    1  A    between atoms: C_6  and  C_10 
DOCKED: REMARK    2  A    between atoms: C_10  and  C_11 
DOCKED: REMARK    3  A    between atoms: C_11  and  C_12 
DOCKED: REMARK    4  A    between atoms: C_12  and  O_14 
DOCKED: REMARK    5  A    between atoms: C_17  and  C_20 
DOCKED: REMARK    6  A    between atoms: C_24  and  C_27 
DOCKED: REMARK    7  A    between atoms: C_31  and  C_34 
DOCKED: REMARK    8  A    between atoms: C_34  and  C_35 
DOCKED: REMARK    9  A    between atoms: C_35  and  C_36 
DOCKED: REMARK   10  A    between atoms: C_36  and  O_38 
DOCKED: USER                              x       y       z     vdW  Elec       q    Type
DOCKED: USER                           _______ _______ _______ _____ _____    ______ ____
DOCKED: ROOT
DOCKED: ATOM      1  C   UNL d   1     -16.768  -1.967   3.363 -0.09 +0.05    +0.064 C 
DOCKED: ATOM      2  C   UNL d   1     -13.230  -0.087   0.468 -0.21 +0.08    +0.064 A 
DOCKED: ATOM      3  C   UNL d   1     -10.415   0.382   4.331 -0.33 +0.02    +0.064 C 
DOCKED: ATOM      4  C   UNL d   1     -13.864  -1.336   7.166 -0.38 +0.01    +0.064 C 
DOCKED: ATOM      5  C   UNL d   1     -16.064  -1.404   2.203 -0.13 +0.07    +0.066 A 
DOCKED: ATOM      6  C   UNL d   1     -16.609  -1.267   0.937 -0.12 -0.02    -0.021 A 
DOCKED: ATOM      7  C   UNL d   1     -15.625  -0.748   0.132 -0.15 -0.04    -0.025 A 
DOCKED: ATOM      8  C   UNL d   1     -14.515  -0.588   0.940 -0.18 +0.10    +0.066 A 
DOCKED: ATOM      9  C   UNL d   1     -15.759  -0.412  -1.321 -0.14 +0.06    +0.051 C 
DOCKED: ATOM     10  C   UNL d   1     -12.162   0.131   1.237 -0.25 +0.06    +0.066 A 
DOCKED: ATOM     11  C   UNL d   1     -10.911   0.502   0.738 -0.31 -0.01    -0.021 A 
DOCKED: ATOM     12  C   UNL d   1     -10.077   0.627   1.831 -0.34 +0.00    +0.000 A 
DOCKED: ATOM     13  C   UNL d   1     -10.868   0.315   2.950 -0.25 +0.03    +0.070 A 
DOCKED: ATOM     14  C   UNL d   1     -10.512   0.662  -0.715 -0.35 +0.02    +0.052 C 
DOCKED: ATOM     15  C   UNL d   1     -11.157   0.033   5.408 -0.39 +0.02    +0.066 A 
DOCKED: ATOM     16  C   UNL d   1     -10.723   0.206   6.716 -0.47 -0.00    -0.021 A 
DOCKED: ATOM     17  C   UNL d   1     -11.715  -0.292   7.536 -0.50 +0.00    +0.000 A 
DOCKED: ATOM     18  C   UNL d   1     -12.730  -0.762   6.706 -0.36 +0.01    +0.070 A 
DOCKED: ATOM     19  C   UNL d   1      -9.417   0.793   7.180 -0.43 +0.01    +0.052 C 
DOCKED: ATOM     20  C   UNL d   1     -14.980  -1.786   6.327 -0.20 +0.02    +0.066 A 
DOCKED: ATOM     21  C   UNL d   1     -16.064  -2.559   6.767 -0.18 -0.01    -0.025 A 
DOCKED: ATOM     22  C   UNL d   1     -16.886  -2.716   5.670 -0.10 -0.01    -0.021 A 
DOCKED: ATOM     23  C   UNL d   1     -16.271  -2.042   4.608 -0.09 +0.04    +0.066 A 
DOCKED: ATOM     24  C   UNL d   1     -16.321  -3.127   8.143 -0.30 +0.01    +0.051 C 
DOCKED: ATOM     25  N   UNL d   1     -14.789  -0.979   2.200 -0.14 -0.28    -0.248 N 
DOCKED: ATOM     26  N   UNL d   1     -12.137   0.004   2.588 -0.17 -0.17    -0.248 N 
DOCKED: ATOM     27  N   UNL d   1     -12.408  -0.523   5.400 -0.25 -0.07    -0.248 N 
DOCKED: ATOM     28  N   UNL d   1     -15.087  -1.515   5.003 -0.06 -0.13    -0.248 N 
DOCKED: ATOM     29 FE   UNL d   1     -13.612  -0.756   3.798 -0.06 +0.00    +0.000 Fe
DOCKED: ENDROOT
DOCKED: BRANCH   6  30
DOCKED: ATOM     30  C   UNL d   1     -18.002  -1.592   0.515 -0.06 +0.05    +0.052 C 
DOCKED: BRANCH  30  31
DOCKED: ATOM     31  C   UNL d   1     -18.790  -0.319   0.226 -0.03 +0.11    +0.115 C 
DOCKED: BRANCH  31  32
DOCKED: ATOM     32  C   UNL d   1     -18.315   0.805   1.106 -0.11 +0.21    +0.139 C 
DOCKED: ATOM     33  O   UNL d   1     -17.759   1.782   0.624 -0.09 -1.33    -0.650 OA
DOCKED: BRANCH  32  34
DOCKED: ATOM     34  O   UNL d   1     -18.499   0.744   2.436 -0.21 -1.40    -0.776 OA
DOCKED: ATOM     35  H   UNL d   1     -18.687  -0.113   2.845 +0.03 +0.22    +0.167 HD
DOCKED: ENDBRANCH  32  34
DOCKED: ENDBRANCH  31  32
DOCKED: ENDBRANCH  30  31
DOCKED: ENDBRANCH   6  30
DOCKED: BRANCH  22  36
DOCKED: ATOM     36  C   UNL d   1     -18.165  -3.510   5.635 -0.10 +0.02    +0.052 C 
DOCKED: BRANCH  36  37
DOCKED: ATOM     37  C   UNL d   1     -19.355  -2.575   5.791 -0.05 +0.05    +0.115 C 
DOCKED: BRANCH  37  38
DOCKED: ATOM     38  C   UNL d   1     -19.402  -1.573   4.674 -0.05 +0.10    +0.139 C 
DOCKED: ATOM     39  O   UNL d   1     -19.600  -1.929   3.522 +0.04 -0.46    -0.650 OA
DOCKED: BRANCH  38  40
DOCKED: ATOM     40  O   UNL d   1     -19.223  -0.266   4.936 +0.04 -0.91    -0.776 OA
DOCKED: ATOM     41  H   UNL d   1     -18.719   0.274   4.311 +0.02 +0.26    +0.167 HD
DOCKED: ENDBRANCH  38  40
DOCKED: ENDBRANCH  37  38
DOCKED: ENDBRANCH  36  37
DOCKED: ENDBRANCH  22  36
DOCKED: BRANCH  12  42
DOCKED: ATOM     42  C   UNL d   1      -8.630   1.002   1.765 -0.44 +0.00    +0.004 C 
DOCKED: ATOM     43  C   UNL d   1      -7.742   0.475   2.618 -0.36 +0.00    +0.012 C 
DOCKED: ENDBRANCH  12  42
DOCKED: BRANCH  17  44
DOCKED: ATOM     44  C   UNL d   1     -11.700  -0.299   9.016 -0.57 +0.00    +0.004 C 
DOCKED: ATOM     45  C   UNL d   1     -12.635   0.355   9.713 -0.51 +0.00    +0.012 C 
DOCKED: ENDBRANCH  17  44
DOCKED: TORSDOF 10
DOCKED: TER
DOCKED: ENDMDL
________________________________________________________________________________


	BEGINNING GENETIC ALGORITHM DOCKING 20 of 100
Run: 20 Seed: 1104300231 1648824391 [ Run 20 of 100 GA/GALS ]
Beginning LAMARCKIAN GENETIC ALGORITHM (LGA), with a maximum of 25000000 energy evaluations.

Final-Value: -15.678


	FINAL GENETIC ALGORITHM DOCKED STATE
	_______________________________________________


Detailed state:  trans -12.931 -0.241 1.982 quatxyzw -0.759209 0.160823 -0.302599 0.553328 center -0.174 -0.001 -0.047 ntor 10 -67.0174 -155.4901 68.7160 -6.1704 165.9284 -86.2234 75.8379 -166.1850 -1.2535 -6.7268
State:	-12.931  -0.241   1.982  -0.911  0.193 -0.363 112.809    -67.02 -155.49   68.72   -6.17  165.93  -86.22   75.84 -166.19   -1.25   -6.73

DOCKED: MODEL       20
DOCKED: USER    Run = 20
DOCKED: USER    DPF = D:/Protein_go_brrr/autodock/final/AncMH_nat/heme_Fe/dock.dpf
DOCKED: USER  
DOCKED: USER    Estimated Free Energy of Binding    =  -10.66 kcal/mol  [=(1)+(2)+(3)-(4)]
DOCKED: USER    Estimated Inhibition Constant, Ki   =   15.38 nM (nanomolar)  [Temperature = 298.15 K]
DOCKED: USER    
DOCKED: USER    (1) Final Intermolecular Energy     =  -13.64 kcal/mol
DOCKED: USER        vdW + Hbond + desolv Energy     =  -10.10 kcal/mol
DOCKED: USER        Electrostatic Energy            =   -3.55 kcal/mol
DOCKED: USER    (2) Final Total Internal Energy     =   -2.04 kcal/mol
DOCKED: USER    (3) Torsional Free Energy           =   +2.98 kcal/mol
DOCKED: USER    (4) Unbound System's Energy  [=(2)] =   -2.04 kcal/mol
DOCKED: USER    
DOCKED: USER    
DOCKED: USER    NEWDPF move heme_Fe_opt.pdbqt
DOCKED: USER    NEWDPF about -0.174000 -0.001000 -0.047000
DOCKED: USER    NEWDPF tran0 -12.931098 -0.241167 1.982318
DOCKED: USER    NEWDPF quaternion0 -0.759209 0.160823 -0.302599 0.553328
DOCKED: USER    NEWDPF axisangle0 -0.911455 0.193073 -0.363279 112.808810
DOCKED: USER    NEWDPF quat0 -0.911455 0.193073 -0.363279 112.808810
DOCKED: USER    NEWDPF dihe0 -67.02 -155.49 68.72 -6.17 165.93 -86.22 75.84 -166.19 -1.25 -6.73 
DOCKED: USER  keepresnum = 1 
DOCKED: USER  
DOCKED: REMARK  10 active torsions:
DOCKED: REMARK  status: ('A' for Active; 'I' for Inactive)
DOCKED: REMARK    1  A    between atoms: C_6  and  C_10 
DOCKED: REMARK    2  A    between atoms: C_10  and  C_11 
DOCKED: REMARK    3  A    between atoms: C_11  and  C_12 
DOCKED: REMARK    4  A    between atoms: C_12  and  O_14 
DOCKED: REMARK    5  A    between atoms: C_17  and  C_20 
DOCKED: REMARK    6  A    between atoms: C_24  and  C_27 
DOCKED: REMARK    7  A    between atoms: C_31  and  C_34 
DOCKED: REMARK    8  A    between atoms: C_34  and  C_35 
DOCKED: REMARK    9  A    between atoms: C_35  and  C_36 
DOCKED: REMARK   10  A    between atoms: C_36  and  O_38 
DOCKED: USER                              x       y       z     vdW  Elec       q    Type
DOCKED: USER                           _______ _______ _______ _____ _____    ______ ____
DOCKED: ROOT
DOCKED: ATOM      1  C   UNL d   1     -14.263  -0.900   0.567 -0.22 +0.08    +0.064 C 
DOCKED: ATOM      2  C   UNL d   1      -9.598   0.730   0.465 -0.36 +0.02    +0.064 A 
DOCKED: ATOM      3  C   UNL d   1      -9.360   0.140   5.225 -0.15 +0.02    +0.064 C 
DOCKED: ATOM      4  C   UNL d   1     -13.907  -1.341   5.361 -0.24 +0.02    +0.064 C 
DOCKED: ATOM      5  C   UNL d   1     -12.999  -0.307   0.108 -0.19 +0.08    +0.066 A 
DOCKED: ATOM      6  C   UNL d   1     -12.744   0.104  -1.190 -0.20 -0.02    -0.021 A 
DOCKED: ATOM      7  C   UNL d   1     -11.447   0.553  -1.219 -0.26 -0.01    -0.025 A 
DOCKED: ATOM      8  C   UNL d   1     -10.960   0.399   0.065 -0.29 +0.04    +0.066 A 
DOCKED: ATOM      9  C   UNL d   1     -10.733   1.114  -2.410 -0.32 +0.01    +0.051 C 
DOCKED: ATOM     10  C   UNL d   1      -9.120   0.645   1.707 -0.35 +0.02    +0.066 A 
DOCKED: ATOM     11  C   UNL d   1      -7.780   0.860   2.039 -0.37 -0.00    -0.021 A 
DOCKED: ATOM     12  C   UNL d   1      -7.682   0.679   3.404 -0.34 +0.00    +0.000 A 
DOCKED: ATOM     13  C   UNL d   1      -8.978   0.352   3.838 -0.15 +0.02    +0.070 A 
DOCKED: ATOM     14  C   UNL d   1      -6.635   1.156   1.091 -0.38 +0.01    +0.052 C 
DOCKED: ATOM     15  C   UNL d   1     -10.595  -0.226   5.642 -0.37 +0.02    +0.066 A 
DOCKED: ATOM     16  C   UNL d   1     -10.945  -0.322   6.983 -0.36 -0.00    -0.021 A 
DOCKED: ATOM     17  C   UNL d   1     -12.255  -0.752   7.025 -0.43 +0.00    +0.000 A 
DOCKED: ATOM     18  C   UNL d   1     -12.673  -0.913   5.706 -0.34 +0.02    +0.070 A 
DOCKED: ATOM     19  C   UNL d   1     -10.077  -0.045   8.181 -0.43 +0.01    +0.052 C 
DOCKED: ATOM     20  C   UNL d   1     -14.402  -1.463   3.984 -0.19 +0.04    +0.066 A 
DOCKED: ATOM     21  C   UNL d   1     -15.598  -2.089   3.606 -0.14 -0.02    -0.025 A 
DOCKED: ATOM     22  C   UNL d   1     -15.685  -1.941   2.237 -0.15 -0.02    -0.021 A 
DOCKED: ATOM     23  C   UNL d   1     -14.542  -1.239   1.835 -0.21 +0.07    +0.066 A 
DOCKED: ATOM     24  C   UNL d   1     -16.609  -2.797   4.478 -0.10 +0.03    +0.051 C 
DOCKED: ATOM     25  N   UNL d   1     -11.909  -0.116   0.871 -0.17 -0.20    -0.248 N 
DOCKED: ATOM     26  N   UNL d   1      -9.853   0.323   2.803 -0.20 -0.08    -0.248 N 
DOCKED: ATOM     27  N   UNL d   1     -11.667  -0.548   4.855 -0.18 -0.08    -0.248 N 
DOCKED: ATOM     28  N   UNL d   1     -13.741  -0.990   2.900 -0.16 -0.20    -0.248 N 
DOCKED: ATOM     29 FE   UNL d   1     -11.799  -0.334   2.853 -0.07 +0.00    +0.000 Fe
DOCKED: ENDROOT
DOCKED: BRANCH   6  30
DOCKED: ATOM     30  C   UNL d   1     -13.690   0.092  -2.342 -0.17 +0.04    +0.052 C 
DOCKED: BRANCH  30  31
DOCKED: ATOM     31  C   UNL d   1     -14.493   1.386  -2.396 -0.09 +0.12    +0.115 C 
DOCKED: BRANCH  31  32
DOCKED: ATOM     32  C   UNL d   1     -15.894   1.157  -1.900 -0.01 +0.19    +0.139 C 
DOCKED: ATOM     33  O   UNL d   1     -16.618   2.102  -1.619 -0.05 -1.07    -0.650 OA
DOCKED: BRANCH  32  34
DOCKED: ATOM     34  O   UNL d   1     -16.364  -0.094  -1.761 +0.02 -0.81    -0.776 OA
DOCKED: ATOM     35  H   UNL d   1     -16.555  -0.428  -0.873 +0.03 +0.20    +0.167 HD
DOCKED: ENDBRANCH  32  34
DOCKED: ENDBRANCH  31  32
DOCKED: ENDBRANCH  30  31
DOCKED: ENDBRANCH   6  30
DOCKED: BRANCH  22  36
DOCKED: ATOM     36  C   UNL d   1     -16.782  -2.487   1.361 -0.10 +0.05    +0.052 C 
DOCKED: BRANCH  36  37
DOCKED: ATOM     37  C   UNL d   1     -17.896  -1.458   1.233 -0.05 +0.11    +0.115 C 
DOCKED: BRANCH  37  38
DOCKED: ATOM     38  C   UNL d   1     -17.449  -0.115   1.736 -0.11 +0.19    +0.139 C 
DOCKED: ATOM     39  O   UNL d   1     -17.542   0.172   2.921 -0.05 -0.89    -0.650 OA
DOCKED: BRANCH  38  40
DOCKED: ATOM     40  O   UNL d   1     -16.945   0.790   0.878 -0.33 -1.86    -0.776 OA
DOCKED: ATOM     41  H   UNL d   1     -17.185   0.735  -0.057 +0.02 +0.31    +0.167 HD
DOCKED: ENDBRANCH  38  40
DOCKED: ENDBRANCH  37  38
DOCKED: ENDBRANCH  36  37
DOCKED: ENDBRANCH  22  36
DOCKED: BRANCH  12  42
DOCKED: ATOM     42  C   UNL d   1      -6.418   0.801   4.195 -0.40 +0.00    +0.004 C 
DOCKED: ATOM     43  C   UNL d   1      -6.282   1.745   5.135 -0.42 +0.00    +0.012 C 
DOCKED: ENDBRANCH  12  42
DOCKED: BRANCH  17  44
DOCKED: ATOM     44  C   UNL d   1     -13.061  -0.975   8.246 -0.52 +0.00    +0.004 C 
DOCKED: ATOM     45  C   UNL d   1     -13.097  -0.059   9.220 -0.57 +0.00    +0.012 C 
DOCKED: ENDBRANCH  17  44
DOCKED: TORSDOF 10
DOCKED: TER
DOCKED: ENDMDL
________________________________________________________________________________


	BEGINNING GENETIC ALGORITHM DOCKING 21 of 100
Run: 21 Seed: 1038182824 204861823 [ Run 21 of 100 GA/GALS ]
Beginning LAMARCKIAN GENETIC ALGORITHM (LGA), with a maximum of 25000000 energy evaluations.

Final-Value: -15.330


	FINAL GENETIC ALGORITHM DOCKED STATE
	_______________________________________________


Detailed state:  trans -12.999 -0.656 0.978 quatxyzw -0.517201 -0.410065 -0.197438 -0.724823 center -0.174 -0.001 -0.047 ntor 10 162.2909 7.1559 -87.7673 -138.8397 -77.9596 -29.7718 -168.8540 93.3380 171.9378 176.0032
State:	-12.999  -0.656   0.978  -0.751 -0.595 -0.287 -87.092    162.29    7.16  -87.77 -138.84  -77.96  -29.77 -168.85   93.34  171.94  176.00

DOCKED: MODEL       21
DOCKED: USER    Run = 21
DOCKED: USER    DPF = D:/Protein_go_brrr/autodock/final/AncMH_nat/heme_Fe/dock.dpf
DOCKED: USER  
DOCKED: USER    Estimated Free Energy of Binding    =  -10.51 kcal/mol  [=(1)+(2)+(3)-(4)]
DOCKED: USER    Estimated Inhibition Constant, Ki   =   19.90 nM (nanomolar)  [Temperature = 298.15 K]
DOCKED: USER    
DOCKED: USER    (1) Final Intermolecular Energy     =  -13.49 kcal/mol
DOCKED: USER        vdW + Hbond + desolv Energy     =   -9.65 kcal/mol
DOCKED: USER        Electrostatic Energy            =   -3.84 kcal/mol
DOCKED: USER    (2) Final Total Internal Energy     =   -1.84 kcal/mol
DOCKED: USER    (3) Torsional Free Energy           =   +2.98 kcal/mol
DOCKED: USER    (4) Unbound System's Energy  [=(2)] =   -1.84 kcal/mol
DOCKED: USER    
DOCKED: USER    
DOCKED: USER    NEWDPF move heme_Fe_opt.pdbqt
DOCKED: USER    NEWDPF about -0.174000 -0.001000 -0.047000
DOCKED: USER    NEWDPF tran0 -12.999020 -0.656442 0.978184
DOCKED: USER    NEWDPF quaternion0 -0.517201 -0.410065 -0.197438 -0.724823
DOCKED: USER    NEWDPF axisangle0 -0.750725 -0.595216 -0.286585 -87.091786
DOCKED: USER    NEWDPF quat0 -0.750725 -0.595216 -0.286585 -87.091786
DOCKED: USER    NEWDPF dihe0 162.29 7.16 -87.77 -138.84 -77.96 -29.77 -168.85 93.34 171.94 176.00 
DOCKED: USER  keepresnum = 1 
DOCKED: USER  
DOCKED: REMARK  10 active torsions:
DOCKED: REMARK  status: ('A' for Active; 'I' for Inactive)
DOCKED: REMARK    1  A    between atoms: C_6  and  C_10 
DOCKED: REMARK    2  A    between atoms: C_10  and  C_11 
DOCKED: REMARK    3  A    between atoms: C_11  and  C_12 
DOCKED: REMARK    4  A    between atoms: C_12  and  O_14 
DOCKED: REMARK    5  A    between atoms: C_17  and  C_20 
DOCKED: REMARK    6  A    between atoms: C_24  and  C_27 
DOCKED: REMARK    7  A    between atoms: C_31  and  C_34 
DOCKED: REMARK    8  A    between atoms: C_34  and  C_35 
DOCKED: REMARK    9  A    between atoms: C_35  and  C_36 
DOCKED: REMARK   10  A    between atoms: C_36  and  O_38 
DOCKED: USER                              x       y       z     vdW  Elec       q    Type
DOCKED: USER                           _______ _______ _______ _____ _____    ______ ____
DOCKED: ROOT
DOCKED: ATOM      1  C   UNL d   1     -14.409  -0.468  -0.501 -0.19 +0.09    +0.064 C 
DOCKED: ATOM      2  C   UNL d   1     -14.556  -1.428   4.346 -0.16 +0.04    +0.064 A 
DOCKED: ATOM      3  C   UNL d   1     -10.010   0.079   4.712 -0.29 +0.02    +0.064 C 
DOCKED: ATOM      4  C   UNL d   1      -9.812   0.916   0.006 -0.39 +0.02    +0.064 C 
DOCKED: ATOM      5  C   UNL d   1     -14.845  -0.956   0.815 -0.18 +0.09    +0.066 A 
DOCKED: ATOM      6  C   UNL d   1     -16.062  -1.566   1.068 -0.15 -0.03    -0.021 A 
DOCKED: ATOM      7  C   UNL d   1     -16.104  -1.829   2.415 -0.13 -0.02    -0.025 A 
DOCKED: ATOM      8  C   UNL d   1     -14.909  -1.369   2.932 -0.18 +0.06    +0.066 A 
DOCKED: ATOM      9  C   UNL d   1     -17.224  -2.500   3.149 -0.07 +0.04    +0.051 C 
DOCKED: ATOM     10  C   UNL d   1     -13.387  -1.044   4.862 -0.22 +0.03    +0.066 A 
DOCKED: ATOM     11  C   UNL d   1     -13.122  -1.005   6.233 -0.34 -0.00    -0.021 A 
DOCKED: ATOM     12  C   UNL d   1     -11.822  -0.558   6.366 -0.41 +0.00    +0.000 A 
DOCKED: ATOM     13  C   UNL d   1     -11.361  -0.337   5.057 -0.28 +0.02    +0.070 A 
DOCKED: ATOM     14  C   UNL d   1     -14.081  -1.314   7.364 -0.36 +0.01    +0.052 C 
DOCKED: ATOM     15  C   UNL d   1      -9.577   0.343   3.457 -0.26 +0.02    +0.066 A 
DOCKED: ATOM     16  C   UNL d   1      -8.253   0.641   3.158 -0.30 -0.01    -0.021 A 
DOCKED: ATOM     17  C   UNL d   1      -8.195   0.887   1.802 -0.40 +0.00    +0.000 A 
DOCKED: ATOM     18  C   UNL d   1      -9.487   0.736   1.305 -0.34 +0.02    +0.070 A 
DOCKED: ATOM     19  C   UNL d   1      -7.092   0.719   4.113 -0.37 +0.01    +0.052 C 
DOCKED: ATOM     20  C   UNL d   1     -11.148   0.707  -0.564 -0.26 +0.04    +0.066 A 
DOCKED: ATOM     21  C   UNL d   1     -11.545   1.079  -1.857 -0.24 -0.01    -0.025 A 
DOCKED: ATOM     22  C   UNL d   1     -12.854   0.664  -1.984 -0.18 -0.02    -0.021 A 
DOCKED: ATOM     23  C   UNL d   1     -13.205   0.063  -0.769 -0.18 +0.08    +0.066 A 
DOCKED: ATOM     24  C   UNL d   1     -10.743   1.792  -2.921 -0.29 +0.01    +0.051 C 
DOCKED: ATOM     25  N   UNL d   1     -14.141  -0.847   1.955 -0.16 -0.28    -0.248 N 
DOCKED: ATOM     26  N   UNL d   1     -12.317  -0.625   4.140 -0.14 -0.11    -0.248 N 
DOCKED: ATOM     27  N   UNL d   1     -10.329   0.359   2.313 -0.19 -0.10    -0.248 N 
DOCKED: ATOM     28  N   UNL d   1     -12.175   0.133   0.109 -0.15 -0.23    -0.248 N 
DOCKED: ATOM     29 FE   UNL d   1     -12.245  -0.245   2.123 -0.06 +0.00    +0.000 Fe
DOCKED: ENDROOT
DOCKED: BRANCH   6  30
DOCKED: ATOM     30  C   UNL d   1     -17.126  -1.902   0.079 -0.11 +0.05    +0.052 C 
DOCKED: BRANCH  30  31
DOCKED: ATOM     31  C   UNL d   1     -18.224  -0.845   0.086 -0.03 +0.11    +0.115 C 
DOCKED: BRANCH  31  32
DOCKED: ATOM     32  C   UNL d   1     -17.792   0.357   0.879 -0.09 +0.20    +0.139 C 
DOCKED: ATOM     33  O   UNL d   1     -17.820   0.340   2.102 -0.08 -0.97    -0.650 OA
DOCKED: BRANCH  32  34
DOCKED: ATOM     34  O   UNL d   1     -17.370   1.466   0.248 -0.04 -1.75    -0.776 OA
DOCKED: ATOM     35  H   UNL d   1     -17.102   1.405  -0.679 +0.01 +0.32    +0.167 HD
DOCKED: ENDBRANCH  32  34
DOCKED: ENDBRANCH  31  32
DOCKED: ENDBRANCH  30  31
DOCKED: ENDBRANCH   6  30
DOCKED: BRANCH  22  36
DOCKED: ATOM     36  C   UNL d   1     -13.732   0.877  -3.189 -0.10 +0.03    +0.052 C 
DOCKED: BRANCH  36  37
DOCKED: ATOM     37  C   UNL d   1     -14.418   2.232  -3.091 -0.06 +0.08    +0.115 C 
DOCKED: BRANCH  37  38
DOCKED: ATOM     38  C   UNL d   1     -15.707   2.128  -2.326 -0.00 +0.18    +0.139 C 
DOCKED: ATOM     39  O   UNL d   1     -16.360   1.094  -2.337 +0.01 -0.66    -0.650 OA
DOCKED: BRANCH  38  40
DOCKED: ATOM     40  O   UNL d   1     -16.157   3.181  -1.621 -0.26 -1.57    -0.776 OA
DOCKED: ATOM     41  H   UNL d   1     -16.932   3.071  -1.053 +0.01 +0.34    +0.167 HD
DOCKED: ENDBRANCH  38  40
DOCKED: ENDBRANCH  37  38
DOCKED: ENDBRANCH  36  37
DOCKED: ENDBRANCH  22  36
DOCKED: BRANCH  12  42
DOCKED: ATOM     42  C   UNL d   1     -11.117  -0.352   7.669 -0.49 +0.00    +0.004 C 
DOCKED: ATOM     43  C   UNL d   1     -11.755   0.175   8.722 -0.57 +0.00    +0.012 C 
DOCKED: ENDBRANCH  12  42
DOCKED: BRANCH  17  44
DOCKED: ATOM     44  C   UNL d   1      -6.977   1.223   1.029 -0.49 +0.00    +0.004 C 
DOCKED: ATOM     45  C   UNL d   1      -6.545   2.485   0.948 -0.48 +0.00    +0.012 C 
DOCKED: ENDBRANCH  17  44
DOCKED: TORSDOF 10
DOCKED: TER
DOCKED: ENDMDL
________________________________________________________________________________


	BEGINNING GENETIC ALGORITHM DOCKING 22 of 100
Run: 22 Seed: 1194070729 1473257186 [ Run 22 of 100 GA/GALS ]
Beginning LAMARCKIAN GENETIC ALGORITHM (LGA), with a maximum of 25000000 energy evaluations.

Final-Value: -14.840


	FINAL GENETIC ALGORITHM DOCKED STATE
	_______________________________________________


Detailed state:  trans -14.118 -1.411 3.269 quatxyzw -0.619512 -0.213776 0.062975 -0.752688 center -0.174 -0.001 -0.047 ntor 10 -104.9359 -140.2349 65.9199 -177.8306 -105.8748 33.6990 -161.5889 -111.1986 174.9675 133.4490
State:	-14.118  -1.411   3.269  -0.941 -0.325  0.096 -82.353   -104.94 -140.23   65.92 -177.83 -105.87   33.70 -161.59 -111.20  174.97  133.45

DOCKED: MODEL       22
DOCKED: USER    Run = 22
DOCKED: USER    DPF = D:/Protein_go_brrr/autodock/final/AncMH_nat/heme_Fe/dock.dpf
DOCKED: USER  
DOCKED: USER    Estimated Free Energy of Binding    =  -10.22 kcal/mol  [=(1)+(2)+(3)-(4)]
DOCKED: USER    Estimated Inhibition Constant, Ki   =   32.34 nM (nanomolar)  [Temperature = 298.15 K]
DOCKED: USER    
DOCKED: USER    (1) Final Intermolecular Energy     =  -13.20 kcal/mol
DOCKED: USER        vdW + Hbond + desolv Energy     =   -9.90 kcal/mol
DOCKED: USER        Electrostatic Energy            =   -3.30 kcal/mol
DOCKED: USER    (2) Final Total Internal Energy     =   -1.64 kcal/mol
DOCKED: USER    (3) Torsional Free Energy           =   +2.98 kcal/mol
DOCKED: USER    (4) Unbound System's Energy  [=(2)] =   -1.64 kcal/mol
DOCKED: USER    
DOCKED: USER    
DOCKED: USER    NEWDPF move heme_Fe_opt.pdbqt
DOCKED: USER    NEWDPF about -0.174000 -0.001000 -0.047000
DOCKED: USER    NEWDPF tran0 -14.118492 -1.411436 3.268520
DOCKED: USER    NEWDPF quaternion0 -0.619512 -0.213776 0.062975 -0.752688
DOCKED: USER    NEWDPF axisangle0 -0.940968 -0.324701 0.095652 -82.352549
DOCKED: USER    NEWDPF quat0 -0.940968 -0.324701 0.095652 -82.352549
DOCKED: USER    NEWDPF dihe0 -104.94 -140.23 65.92 -177.83 -105.87 33.70 -161.59 -111.20 174.97 133.45 
DOCKED: USER  keepresnum = 1 
DOCKED: USER  
DOCKED: REMARK  10 active torsions:
DOCKED: REMARK  status: ('A' for Active; 'I' for Inactive)
DOCKED: REMARK    1  A    between atoms: C_6  and  C_10 
DOCKED: REMARK    2  A    between atoms: C_10  and  C_11 
DOCKED: REMARK    3  A    between atoms: C_11  and  C_12 
DOCKED: REMARK    4  A    between atoms: C_12  and  O_14 
DOCKED: REMARK    5  A    between atoms: C_17  and  C_20 
DOCKED: REMARK    6  A    between atoms: C_24  and  C_27 
DOCKED: REMARK    7  A    between atoms: C_31  and  C_34 
DOCKED: REMARK    8  A    between atoms: C_34  and  C_35 
DOCKED: REMARK    9  A    between atoms: C_35  and  C_36 
DOCKED: REMARK   10  A    between atoms: C_36  and  O_38 
DOCKED: USER                              x       y       z     vdW  Elec       q    Type
DOCKED: USER                           _______ _______ _______ _____ _____    ______ ____
DOCKED: ROOT
DOCKED: ATOM      1  C   UNL d   1     -16.125  -1.655   2.917 -0.14 +0.06    +0.064 C 
DOCKED: ATOM      2  C   UNL d   1     -13.324  -1.264   6.971 -0.36 +0.01    +0.064 A 
DOCKED: ATOM      3  C   UNL d   1      -9.722   0.361   4.240 -0.16 +0.02    +0.064 C 
DOCKED: ATOM      4  C   UNL d   1     -12.382  -0.109   0.292 -0.27 +0.06    +0.064 C 
DOCKED: ATOM      5  C   UNL d   1     -15.644  -1.775   4.300 -0.12 +0.04    +0.066 A 
DOCKED: ATOM      6  C   UNL d   1     -16.373  -2.313   5.348 -0.11 -0.01    -0.021 A 
DOCKED: ATOM      7  C   UNL d   1     -15.596  -2.201   6.474 -0.19 -0.01    -0.025 A 
DOCKED: ATOM      8  C   UNL d   1     -14.420  -1.598   6.070 -0.17 +0.02    +0.066 A 
DOCKED: ATOM      9  C   UNL d   1     -15.962  -2.666   7.850 -0.28 +0.01    +0.051 C 
DOCKED: ATOM     10  C   UNL d   1     -12.158  -0.735   6.598 -0.35 +0.01    +0.066 A 
DOCKED: ATOM     11  C   UNL d   1     -11.172  -0.321   7.497 -0.42 -0.00    -0.021 A 
DOCKED: ATOM     12  C   UNL d   1     -10.129   0.168   6.735 -0.45 +0.00    +0.000 A 
DOCKED: ATOM     13  C   UNL d   1     -10.540   0.032   5.397 -0.37 +0.02    +0.070 A 
DOCKED: ATOM     14  C   UNL d   1     -11.248  -0.326   9.010 -0.44 +0.01    +0.052 C 
DOCKED: ATOM     15  C   UNL d   1     -10.132   0.282   2.953 -0.24 +0.02    +0.066 A 
DOCKED: ATOM     16  C   UNL d   1      -9.289   0.509   1.873 -0.37 -0.01    -0.021 A 
DOCKED: ATOM     17  C   UNL d   1     -10.055   0.378   0.733 -0.38 +0.00    +0.000 A 
DOCKED: ATOM     18  C   UNL d   1     -11.351   0.076   1.145 -0.27 +0.04    +0.070 A 
DOCKED: ATOM     19  C   UNL d   1      -7.827   0.863   1.908 -0.41 +0.01    +0.052 C 
DOCKED: ATOM     20  C   UNL d   1     -13.744  -0.488   0.686 -0.21 +0.09    +0.066 A 
DOCKED: ATOM     21  C   UNL d   1     -14.862  -0.488  -0.160 -0.17 -0.04    -0.025 A 
DOCKED: ATOM     22  C   UNL d   1     -15.915  -0.944   0.605 -0.16 -0.03    -0.021 A 
DOCKED: ATOM     23  C   UNL d   1     -15.402  -1.197   1.883 -0.17 +0.08    +0.066 A 
DOCKED: ATOM     24  C   UNL d   1     -14.945  -0.078  -1.612 -0.16 +0.06    +0.051 C 
DOCKED: ATOM     25  N   UNL d   1     -14.449  -1.349   4.745 -0.11 -0.12    -0.248 N 
DOCKED: ATOM     26  N   UNL d   1     -11.780  -0.510   5.313 -0.27 -0.07    -0.248 N 
DOCKED: ATOM     27  N   UNL d   1     -11.390  -0.027   2.508 -0.15 -0.13    -0.248 N 
DOCKED: ATOM     28  N   UNL d   1     -14.087  -0.875   1.938 -0.16 -0.27    -0.248 N 
DOCKED: ATOM     29 FE   UNL d   1     -12.933  -0.692   3.624 -0.06 +0.00    +0.000 Fe
DOCKED: ENDROOT
DOCKED: BRANCH   6  30
DOCKED: ATOM     30  C   UNL d   1     -17.731  -2.923   5.281 -0.09 +0.02    +0.052 C 
DOCKED: BRANCH  30  31
DOCKED: ATOM     31  C   UNL d   1     -18.802  -1.901   5.646 -0.06 +0.06    +0.115 C 
DOCKED: BRANCH  31  32
DOCKED: ATOM     32  C   UNL d   1     -18.257  -0.504   5.528 -0.15 +0.11    +0.139 C 
DOCKED: ATOM     33  O   UNL d   1     -17.990   0.147   6.529 -0.03 -0.48    -0.650 OA
DOCKED: BRANCH  32  34
DOCKED: ATOM     34  O   UNL d   1     -18.057   0.043   4.317 +0.01 -0.93    -0.776 OA
DOCKED: ATOM     35  H   UNL d   1     -18.821   0.348   3.809 +0.02 +0.28    +0.167 HD
DOCKED: ENDBRANCH  32  34
DOCKED: ENDBRANCH  31  32
DOCKED: ENDBRANCH  30  31
DOCKED: ENDBRANCH   6  30
DOCKED: BRANCH  22  36
DOCKED: ATOM     36  C   UNL d   1     -17.342  -1.081   0.145 -0.09 +0.06    +0.052 C 
DOCKED: BRANCH  36  37
DOCKED: ATOM     37  C   UNL d   1     -18.270  -0.402   1.142 -0.07 +0.13    +0.115 C 
DOCKED: BRANCH  37  38
DOCKED: ATOM     38  C   UNL d   1     -18.078   1.088   1.129 -0.10 +0.24    +0.139 C 
DOCKED: ATOM     39  O   UNL d   1     -17.791   1.672   0.095 -0.15 -1.18    -0.650 OA
DOCKED: BRANCH  38  40
DOCKED: ATOM     40  O   UNL d   1     -18.218   1.793   2.266 -0.51 -1.85    -0.776 OA
DOCKED: ATOM     41  H   UNL d   1     -17.880   1.423   3.093 +0.02 +0.35    +0.167 HD
DOCKED: ENDBRANCH  38  40
DOCKED: ENDBRANCH  37  38
DOCKED: ENDBRANCH  36  37
DOCKED: ENDBRANCH  22  36
DOCKED: BRANCH  12  42
DOCKED: ATOM     42  C   UNL d   1      -8.858   0.732   7.285 -0.49 +0.00    +0.004 C 
DOCKED: ATOM     43  C   UNL d   1      -7.687   0.113   7.087 -0.47 +0.00    +0.012 C 
DOCKED: ENDBRANCH  12  42
DOCKED: BRANCH  17  44
DOCKED: ATOM     44  C   UNL d   1      -9.574   0.511  -0.661 -0.26 +0.00    +0.004 C 
DOCKED: ATOM     45  C   UNL d   1     -10.138   1.386  -1.500 -0.35 +0.00    +0.012 C 
DOCKED: ENDBRANCH  17  44
DOCKED: TORSDOF 10
DOCKED: TER
DOCKED: ENDMDL
________________________________________________________________________________


	BEGINNING GENETIC ALGORITHM DOCKING 23 of 100
Run: 23 Seed: 1385625805 906404347 [ Run 23 of 100 GA/GALS ]
Beginning LAMARCKIAN GENETIC ALGORITHM (LGA), with a maximum of 25000000 energy evaluations.

Final-Value: -15.391


	FINAL GENETIC ALGORITHM DOCKED STATE
	_______________________________________________


Detailed state:  trans -12.704 -0.712 1.564 quatxyzw 0.537801 0.397497 0.184878 0.720129 center -0.174 -0.001 -0.047 ntor 10 -154.2962 -58.4255 116.9582 -152.0912 -100.3369 173.1789 -145.3074 83.3745 155.8392 -176.7032
State:	-12.704  -0.712   1.564   0.775  0.573  0.266 87.870   -154.30  -58.43  116.96 -152.09 -100.34  173.18 -145.31   83.37  155.84 -176.70

DOCKED: MODEL       23
DOCKED: USER    Run = 23
DOCKED: USER    DPF = D:/Protein_go_brrr/autodock/final/AncMH_nat/heme_Fe/dock.dpf
DOCKED: USER  
DOCKED: USER    Estimated Free Energy of Binding    =  -10.87 kcal/mol  [=(1)+(2)+(3)-(4)]
DOCKED: USER    Estimated Inhibition Constant, Ki   =   10.73 nM (nanomolar)  [Temperature = 298.15 K]
DOCKED: USER    
DOCKED: USER    (1) Final Intermolecular Energy     =  -13.86 kcal/mol
DOCKED: USER        vdW + Hbond + desolv Energy     =  -10.02 kcal/mol
DOCKED: USER        Electrostatic Energy            =   -3.84 kcal/mol
DOCKED: USER    (2) Final Total Internal Energy     =   -1.54 kcal/mol
DOCKED: USER    (3) Torsional Free Energy           =   +2.98 kcal/mol
DOCKED: USER    (4) Unbound System's Energy  [=(2)] =   -1.54 kcal/mol
DOCKED: USER    
DOCKED: USER    
DOCKED: USER    NEWDPF move heme_Fe_opt.pdbqt
DOCKED: USER    NEWDPF about -0.174000 -0.001000 -0.047000
DOCKED: USER    NEWDPF tran0 -12.703552 -0.712370 1.564336
DOCKED: USER    NEWDPF quaternion0 0.537801 0.397497 0.184878 0.720129
DOCKED: USER    NEWDPF axisangle0 0.775109 0.572894 0.266457 87.869697
DOCKED: USER    NEWDPF quat0 0.775109 0.572894 0.266457 87.869697
DOCKED: USER    NEWDPF dihe0 -154.30 -58.43 116.96 -152.09 -100.34 173.18 -145.31 83.37 155.84 -176.70 
DOCKED: USER  keepresnum = 1 
DOCKED: USER  
DOCKED: REMARK  10 active torsions:
DOCKED: REMARK  status: ('A' for Active; 'I' for Inactive)
DOCKED: REMARK    1  A    between atoms: C_6  and  C_10 
DOCKED: REMARK    2  A    between atoms: C_10  and  C_11 
DOCKED: REMARK    3  A    between atoms: C_11  and  C_12 
DOCKED: REMARK    4  A    between atoms: C_12  and  O_14 
DOCKED: REMARK    5  A    between atoms: C_17  and  C_20 
DOCKED: REMARK    6  A    between atoms: C_24  and  C_27 
DOCKED: REMARK    7  A    between atoms: C_31  and  C_34 
DOCKED: REMARK    8  A    between atoms: C_34  and  C_35 
DOCKED: REMARK    9  A    between atoms: C_35  and  C_36 
DOCKED: REMARK   10  A    between atoms: C_36  and  O_38 
DOCKED: USER                              x       y       z     vdW  Elec       q    Type
DOCKED: USER                           _______ _______ _______ _____ _____    ______ ____
DOCKED: ROOT
DOCKED: ATOM      1  C   UNL d   1     -14.163  -0.562   0.129 -0.20 +0.09    +0.064 C 
DOCKED: ATOM      2  C   UNL d   1     -14.149  -1.327   5.013 -0.14 +0.03    +0.064 A 
DOCKED: ATOM      3  C   UNL d   1      -9.574   0.129   5.158 -0.21 +0.02    +0.064 C 
DOCKED: ATOM      4  C   UNL d   1      -9.534   0.775   0.418 -0.42 +0.02    +0.064 C 
DOCKED: ATOM      5  C   UNL d   1     -14.558  -0.992   1.478 -0.21 +0.08    +0.066 A 
DOCKED: ATOM      6  C   UNL d   1     -15.773  -1.574   1.799 -0.16 -0.02    -0.021 A 
DOCKED: ATOM      7  C   UNL d   1     -15.770  -1.782   3.156 -0.13 -0.02    -0.025 A 
DOCKED: ATOM      8  C   UNL d   1     -14.551  -1.319   3.612 -0.19 +0.05    +0.066 A 
DOCKED: ATOM      9  C   UNL d   1     -16.871  -2.408   3.955 -0.08 +0.03    +0.051 C 
DOCKED: ATOM     10  C   UNL d   1     -12.958  -0.940   5.472 -0.29 +0.02    +0.066 A 
DOCKED: ATOM     11  C   UNL d   1     -12.643  -0.850   6.830 -0.41 -0.00    -0.021 A 
DOCKED: ATOM     12  C   UNL d   1     -11.334  -0.416   6.899 -0.42 +0.00    +0.000 A 
DOCKED: ATOM     13  C   UNL d   1     -10.917  -0.254   5.566 -0.37 +0.02    +0.070 A 
DOCKED: ATOM     14  C   UNL d   1     -13.565  -1.099   8.006 -0.44 +0.00    +0.052 C 
DOCKED: ATOM     15  C   UNL d   1      -9.182   0.336   3.879 -0.15 +0.02    +0.066 A 
DOCKED: ATOM     16  C   UNL d   1      -7.867   0.604   3.522 -0.29 -0.01    -0.021 A 
DOCKED: ATOM     17  C   UNL d   1      -7.853   0.794   2.156 -0.38 +0.00    +0.000 A 
DOCKED: ATOM     18  C   UNL d   1      -9.164   0.642   1.711 -0.34 +0.02    +0.070 A 
DOCKED: ATOM     19  C   UNL d   1      -6.671   0.702   4.431 -0.38 +0.01    +0.052 C 
DOCKED: ATOM     20  C   UNL d   1     -10.892   0.562  -0.096 -0.28 +0.03    +0.066 A 
DOCKED: ATOM     21  C   UNL d   1     -11.330   0.888  -1.387 -0.27 -0.01    -0.025 A 
DOCKED: ATOM     22  C   UNL d   1     -12.648   0.487  -1.452 -0.20 -0.02    -0.021 A 
DOCKED: ATOM     23  C   UNL d   1     -12.963  -0.060  -0.202 -0.20 +0.08    +0.066 A 
DOCKED: ATOM     24  C   UNL d   1     -10.557   1.546  -2.507 -0.31 +0.01    +0.051 C 
DOCKED: ATOM     25  N   UNL d   1     -13.812  -0.848   2.587 -0.16 -0.23    -0.248 N 
DOCKED: ATOM     26  N   UNL d   1     -11.909  -0.564   4.696 -0.18 -0.08    -0.248 N 
DOCKED: ATOM     27  N   UNL d   1      -9.975   0.318   2.762 -0.20 -0.08    -0.248 N 
DOCKED: ATOM     28  N   UNL d   1     -11.901   0.030   0.635 -0.16 -0.20    -0.248 N 
DOCKED: ATOM     29 FE   UNL d   1     -11.904  -0.267   2.665 -0.07 +0.00    +0.000 Fe
DOCKED: ENDROOT
DOCKED: BRANCH   6  30
DOCKED: ATOM     30  C   UNL d   1     -16.875  -1.934   0.862 -0.12 +0.06    +0.052 C 
DOCKED: BRANCH  30  31
DOCKED: ATOM     31  C   UNL d   1     -18.119  -1.098   1.144 -0.04 +0.11    +0.115 C 
DOCKED: BRANCH  31  32
DOCKED: ATOM     32  C   UNL d   1     -17.733   0.287   1.584 -0.12 +0.21    +0.139 C 
DOCKED: ATOM     33  O   UNL d   1     -17.746   0.592   2.768 -0.12 -1.04    -0.650 OA
DOCKED: BRANCH  32  34
DOCKED: ATOM     34  O   UNL d   1     -17.370   1.207   0.674 -0.22 -1.73    -0.776 OA
DOCKED: ATOM     35  H   UNL d   1     -17.699   1.126  -0.233 +0.02 +0.27    +0.167 HD
DOCKED: ENDBRANCH  32  34
DOCKED: ENDBRANCH  31  32
DOCKED: ENDBRANCH  30  31
DOCKED: ENDBRANCH   6  30
DOCKED: BRANCH  22  36
DOCKED: ATOM     36  C   UNL d   1     -13.565   0.665  -2.633 -0.14 +0.04    +0.052 C 
DOCKED: BRANCH  36  37
DOCKED: ATOM     37  C   UNL d   1     -14.090   2.092  -2.665 -0.08 +0.10    +0.115 C 
DOCKED: BRANCH  37  38
DOCKED: ATOM     38  C   UNL d   1     -15.455   2.178  -2.042 +0.16 +0.22    +0.139 C 
DOCKED: ATOM     39  O   UNL d   1     -15.993   3.260  -1.860 -0.34 -1.15    -0.650 OA
DOCKED: BRANCH  38  40
DOCKED: ATOM     40  O   UNL d   1     -16.098   1.054  -1.676 -0.00 -1.14    -0.776 OA
DOCKED: ATOM     41  H   UNL d   1     -16.360   0.943  -0.752 +0.02 +0.36    +0.167 HD
DOCKED: ENDBRANCH  38  40
DOCKED: ENDBRANCH  37  38
DOCKED: ENDBRANCH  36  37
DOCKED: ENDBRANCH  22  36
DOCKED: BRANCH  12  42
DOCKED: ATOM     42  C   UNL d   1     -10.580  -0.169   8.167 -0.49 +0.00    +0.004 C 
DOCKED: ATOM     43  C   UNL d   1      -9.246  -0.043   8.162 -0.40 +0.00    +0.012 C 
DOCKED: ENDBRANCH  12  42
DOCKED: BRANCH  17  44
DOCKED: ATOM     44  C   UNL d   1      -6.660   1.081   1.328 -0.39 +0.00    +0.004 C 
DOCKED: ATOM     45  C   UNL d   1      -6.366   2.333   0.962 -0.50 +0.00    +0.012 C 
DOCKED: ENDBRANCH  17  44
DOCKED: TORSDOF 10
DOCKED: TER
DOCKED: ENDMDL
________________________________________________________________________________


	BEGINNING GENETIC ALGORITHM DOCKING 24 of 100
Run: 24 Seed: 670819057 622243802 [ Run 24 of 100 GA/GALS ]
Beginning LAMARCKIAN GENETIC ALGORITHM (LGA), with a maximum of 25000000 energy evaluations.

Final-Value: -17.180


	FINAL GENETIC ALGORITHM DOCKED STATE
	_______________________________________________


Detailed state:  trans -10.353 0.945 3.292 quatxyzw 0.797309 -0.042812 0.133443 -0.587076 center -0.174 -0.001 -0.047 ntor 10 64.8390 108.7698 47.9618 -118.5072 77.9416 -108.5551 -65.6419 62.2394 -156.3828 -157.2057
State:	-10.353   0.945   3.292   0.985 -0.053  0.165 -108.100     64.84  108.77   47.96 -118.51   77.94 -108.56  -65.64   62.24 -156.38 -157.21

DOCKED: MODEL       24
DOCKED: USER    Run = 24
DOCKED: USER    DPF = D:/Protein_go_brrr/autodock/final/AncMH_nat/heme_Fe/dock.dpf
DOCKED: USER  
DOCKED: USER    Estimated Free Energy of Binding    =  -12.60 kcal/mol  [=(1)+(2)+(3)-(4)]
DOCKED: USER    Estimated Inhibition Constant, Ki   =  583.33 pM (picomolar)  [Temperature = 298.15 K]
DOCKED: USER    
DOCKED: USER    (1) Final Intermolecular Energy     =  -15.58 kcal/mol
DOCKED: USER        vdW + Hbond + desolv Energy     =  -12.60 kcal/mol
DOCKED: USER        Electrostatic Energy            =   -2.98 kcal/mol
DOCKED: USER    (2) Final Total Internal Energy     =   -1.60 kcal/mol
DOCKED: USER    (3) Torsional Free Energy           =   +2.98 kcal/mol
DOCKED: USER    (4) Unbound System's Energy  [=(2)] =   -1.60 kcal/mol
DOCKED: USER    
DOCKED: USER    
DOCKED: USER    NEWDPF move heme_Fe_opt.pdbqt
DOCKED: USER    NEWDPF about -0.174000 -0.001000 -0.047000
DOCKED: USER    NEWDPF tran0 -10.352664 0.945265 3.291623
DOCKED: USER    NEWDPF quaternion0 0.797309 -0.042812 0.133443 -0.587076
DOCKED: USER    NEWDPF axisangle0 0.984902 -0.052884 0.164840 -108.100401
DOCKED: USER    NEWDPF quat0 0.984902 -0.052884 0.164840 -108.100401
DOCKED: USER    NEWDPF dihe0 64.84 108.77 47.96 -118.51 77.94 -108.56 -65.64 62.24 -156.38 -157.21 
DOCKED: USER  keepresnum = 1 
DOCKED: USER  
DOCKED: REMARK  10 active torsions:
DOCKED: REMARK  status: ('A' for Active; 'I' for Inactive)
DOCKED: REMARK    1  A    between atoms: C_6  and  C_10 
DOCKED: REMARK    2  A    between atoms: C_10  and  C_11 
DOCKED: REMARK    3  A    between atoms: C_11  and  C_12 
DOCKED: REMARK    4  A    between atoms: C_12  and  O_14 
DOCKED: REMARK    5  A    between atoms: C_17  and  C_20 
DOCKED: REMARK    6  A    between atoms: C_24  and  C_27 
DOCKED: REMARK    7  A    between atoms: C_31  and  C_34 
DOCKED: REMARK    8  A    between atoms: C_34  and  C_35 
DOCKED: REMARK    9  A    between atoms: C_35  and  C_36 
DOCKED: REMARK   10  A    between atoms: C_36  and  O_38 
DOCKED: USER                              x       y       z     vdW  Elec       q    Type
DOCKED: USER                           _______ _______ _______ _____ _____    ______ ____
DOCKED: ROOT
DOCKED: ATOM      1  C   UNL d   1     -12.156   0.284   2.570 -0.33 +0.05    +0.064 C 
DOCKED: ATOM      2  C   UNL d   1      -7.931   1.812   0.509 -0.35 +0.01    +0.064 A 
DOCKED: ATOM      3  C   UNL d   1      -5.759   1.321   4.764 -0.13 +0.00    +0.064 C 
DOCKED: ATOM      4  C   UNL d   1      -9.861  -0.058   6.802 -0.41 +0.01    +0.064 C 
DOCKED: ATOM      5  C   UNL d   1     -11.188   0.839   1.614 -0.27 +0.04    +0.066 A 
DOCKED: ATOM      6  C   UNL d   1     -11.486   1.216   0.315 -0.26 -0.02    -0.021 A 
DOCKED: ATOM      7  C   UNL d   1     -10.311   1.637  -0.258 -0.29 -0.01    -0.025 A 
DOCKED: ATOM      8  C   UNL d   1      -9.340   1.501   0.715 -0.32 +0.02    +0.066 A 
DOCKED: ATOM      9  C   UNL d   1     -10.146   2.156  -1.653 -0.24 +0.01    +0.051 C 
DOCKED: ATOM     10  C   UNL d   1      -6.985   1.744   1.447 -0.38 +0.01    +0.066 A 
DOCKED: ATOM     11  C   UNL d   1      -5.625   1.938   1.191 -0.43 -0.00    -0.021 A 
DOCKED: ATOM     12  C   UNL d   1      -4.975   1.785   2.399 -0.37 +0.00    +0.000 A 
DOCKED: ATOM     13  C   UNL d   1      -5.981   1.495   3.337 -0.33 +0.00    +0.070 A 
DOCKED: ATOM     14  C   UNL d   1      -4.969   2.188  -0.152 -0.54 -0.00    +0.052 C 
DOCKED: ATOM     15  C   UNL d   1      -6.716   0.991   5.663 -0.33 +0.01    +0.066 A 
DOCKED: ATOM     16  C   UNL d   1      -6.483   0.933   7.032 -0.42 -0.00    -0.021 A 
DOCKED: ATOM     17  C   UNL d   1      -7.664   0.532   7.621 -0.45 +0.00    +0.000 A 
DOCKED: ATOM     18  C   UNL d   1      -8.590   0.351   6.596 -0.36 +0.01    +0.070 A 
DOCKED: ATOM     19  C   UNL d   1      -5.196   1.217   7.757 -0.55 -0.00    +0.052 C 
DOCKED: ATOM     20  C   UNL d   1     -10.880  -0.200   5.756 -0.39 +0.02    +0.066 A 
DOCKED: ATOM     21  C   UNL d   1     -12.132  -0.809   5.922 -0.37 -0.01    -0.025 A 
DOCKED: ATOM     22  C   UNL d   1     -12.774  -0.689   4.707 -0.29 -0.01    -0.021 A 
DOCKED: ATOM     23  C   UNL d   1     -11.892  -0.021   3.850 -0.27 +0.03    +0.066 A 
DOCKED: ATOM     24  C   UNL d   1     -12.702  -1.475   7.153 -0.29 +0.01    +0.051 C 
DOCKED: ATOM     25  N   UNL d   1      -9.878   1.025   1.856 -0.19 -0.08    -0.248 N 
DOCKED: ATOM     26  N   UNL d   1      -7.205   1.461   2.756 -0.22 -0.03    -0.248 N 
DOCKED: ATOM     27  N   UNL d   1      -8.021   0.675   5.397 +0.03 -0.08    -0.248 N 
DOCKED: ATOM     28  N   UNL d   1     -10.721   0.235   4.482 -0.24 -0.08    -0.248 N 
DOCKED: ATOM     29 FE   UNL d   1      -8.963   0.847   3.621 -0.08 +0.00    +0.000 Fe
DOCKED: ENDROOT
DOCKED: BRANCH   6  30
DOCKED: ATOM     30  C   UNL d   1     -12.822   1.198  -0.345 +0.01 +0.08    +0.052 C 
DOCKED: BRANCH  30  31
DOCKED: ATOM     31  C   UNL d   1     -13.317  -0.233  -0.525 -0.15 +0.14    +0.115 C 
DOCKED: BRANCH  31  32
DOCKED: ATOM     32  C   UNL d   1     -14.542  -0.475   0.312 -0.17 +0.21    +0.139 C 
DOCKED: ATOM     33  O   UNL d   1     -15.636  -0.063  -0.049 -0.38 -1.22    -0.650 OA
DOCKED: BRANCH  32  34
DOCKED: ATOM     34  O   UNL d   1     -14.445  -1.150   1.470 +0.04 -0.94    -0.776 OA
DOCKED: ATOM     35  H   UNL d   1     -14.890  -2.005   1.554 +0.04 +0.20    +0.167 HD
DOCKED: ENDBRANCH  32  34
DOCKED: ENDBRANCH  31  32
DOCKED: ENDBRANCH  30  31
DOCKED: ENDBRANCH   6  30
DOCKED: BRANCH  22  36
DOCKED: ATOM     36  C   UNL d   1     -14.140  -1.231   4.376 -0.20 +0.03    +0.052 C 
DOCKED: BRANCH  36  37
DOCKED: ATOM     37  C   UNL d   1     -14.149  -2.742   4.551 -0.24 +0.06    +0.115 C 
DOCKED: BRANCH  37  38
DOCKED: ATOM     38  C   UNL d   1     -14.459  -3.432   3.252 -0.17 +0.12    +0.139 C 
DOCKED: ATOM     39  O   UNL d   1     -15.534  -3.987   3.080 +0.05 -0.60    -0.650 OA
DOCKED: BRANCH  38  40
DOCKED: ATOM     40  O   UNL d   1     -13.545  -3.447   2.266 -0.45 -1.16    -0.776 OA
DOCKED: ATOM     41  H   UNL d   1     -13.359  -2.629   1.784 +0.05 +0.22    +0.167 HD
DOCKED: ENDBRANCH  38  40
DOCKED: ENDBRANCH  37  38
DOCKED: ENDBRANCH  36  37
DOCKED: ENDBRANCH  22  36
DOCKED: BRANCH  12  42
DOCKED: ATOM     42  C   UNL d   1      -3.496   1.897   2.596 -0.38 -0.00    +0.004 C 
DOCKED: ATOM     43  C   UNL d   1      -2.940   3.046   3.002 -0.48 -0.00    +0.012 C 
DOCKED: ENDBRANCH  12  42
DOCKED: BRANCH  17  44
DOCKED: ATOM     44  C   UNL d   1      -7.898   0.353   9.072 -0.45 +0.00    +0.004 C 
DOCKED: ATOM     45  C   UNL d   1      -7.242  -0.587   9.760 -0.64 +0.00    +0.012 C 
DOCKED: ENDBRANCH  17  44
DOCKED: TORSDOF 10
DOCKED: TER
DOCKED: ENDMDL
________________________________________________________________________________


	BEGINNING GENETIC ALGORITHM DOCKING 25 of 100
Run: 25 Seed: 211197376 1587275767 [ Run 25 of 100 GA/GALS ]
Beginning LAMARCKIAN GENETIC ALGORITHM (LGA), with a maximum of 25000000 energy evaluations.

Final-Value: -13.982


	FINAL GENETIC ALGORITHM DOCKED STATE
	_______________________________________________


Detailed state:  trans -14.777 -1.118 3.110 quatxyzw -0.776487 -0.078061 -0.164755 0.603184 center -0.174 -0.001 -0.047 ntor 10 -161.3330 -172.3800 161.9843 65.7694 86.7674 103.5405 136.0715 123.1372 15.2241 174.9621
State:	-14.777  -1.118   3.110  -0.974 -0.098 -0.207 105.803   -161.33 -172.38  161.98   65.77   86.77  103.54  136.07  123.14   15.22  174.96

DOCKED: MODEL       25
DOCKED: USER    Run = 25
DOCKED: USER    DPF = D:/Protein_go_brrr/autodock/final/AncMH_nat/heme_Fe/dock.dpf
DOCKED: USER  
DOCKED: USER    Estimated Free Energy of Binding    =  -10.35 kcal/mol  [=(1)+(2)+(3)-(4)]
DOCKED: USER    Estimated Inhibition Constant, Ki   =   25.82 nM (nanomolar)  [Temperature = 298.15 K]
DOCKED: USER    
DOCKED: USER    (1) Final Intermolecular Energy     =  -13.33 kcal/mol
DOCKED: USER        vdW + Hbond + desolv Energy     =   -9.96 kcal/mol
DOCKED: USER        Electrostatic Energy            =   -3.37 kcal/mol
DOCKED: USER    (2) Final Total Internal Energy     =   -0.65 kcal/mol
DOCKED: USER    (3) Torsional Free Energy           =   +2.98 kcal/mol
DOCKED: USER    (4) Unbound System's Energy  [=(2)] =   -0.65 kcal/mol
DOCKED: USER    
DOCKED: USER    
DOCKED: USER    NEWDPF move heme_Fe_opt.pdbqt
DOCKED: USER    NEWDPF about -0.174000 -0.001000 -0.047000
DOCKED: USER    NEWDPF tran0 -14.777000 -1.117917 3.109576
DOCKED: USER    NEWDPF quaternion0 -0.776487 -0.078061 -0.164755 0.603184
DOCKED: USER    NEWDPF axisangle0 -0.973526 -0.097869 -0.206562 105.803468
DOCKED: USER    NEWDPF quat0 -0.973526 -0.097869 -0.206562 105.803468
DOCKED: USER    NEWDPF dihe0 -161.33 -172.38 161.98 65.77 86.77 103.54 136.07 123.14 15.22 174.96 
DOCKED: USER  keepresnum = 1 
DOCKED: USER  
DOCKED: REMARK  10 active torsions:
DOCKED: REMARK  status: ('A' for Active; 'I' for Inactive)
DOCKED: REMARK    1  A    between atoms: C_6  and  C_10 
DOCKED: REMARK    2  A    between atoms: C_10  and  C_11 
DOCKED: REMARK    3  A    between atoms: C_11  and  C_12 
DOCKED: REMARK    4  A    between atoms: C_12  and  O_14 
DOCKED: REMARK    5  A    between atoms: C_17  and  C_20 
DOCKED: REMARK    6  A    between atoms: C_24  and  C_27 
DOCKED: REMARK    7  A    between atoms: C_31  and  C_34 
DOCKED: REMARK    8  A    between atoms: C_34  and  C_35 
DOCKED: REMARK    9  A    between atoms: C_35  and  C_36 
DOCKED: REMARK   10  A    between atoms: C_36  and  O_38 
DOCKED: USER                              x       y       z     vdW  Elec       q    Type
DOCKED: USER                           _______ _______ _______ _____ _____    ______ ____
DOCKED: ROOT
DOCKED: ATOM      1  C   UNL d   1     -16.436  -2.221   2.616 -0.11 +0.06    +0.064 C 
DOCKED: ATOM      2  C   UNL d   1     -12.836  -0.011   0.049 -0.21 +0.07    +0.064 A 
DOCKED: ATOM      3  C   UNL d   1     -10.286   0.387   4.099 -0.30 +0.02    +0.064 C 
DOCKED: ATOM      4  C   UNL d   1     -13.801  -1.655   6.621 -0.36 +0.01    +0.064 C 
DOCKED: ATOM      5  C   UNL d   1     -15.694  -1.561   1.533 -0.15 +0.08    +0.066 A 
DOCKED: ATOM      6  C   UNL d   1     -16.170  -1.382   0.244 -0.15 -0.03    -0.021 A 
DOCKED: ATOM      7  C   UNL d   1     -15.168  -0.772  -0.469 -0.16 -0.03    -0.025 A 
DOCKED: ATOM      8  C   UNL d   1     -14.119  -0.600   0.413 -0.18 +0.09    +0.066 A 
DOCKED: ATOM      9  C   UNL d   1     -15.232  -0.363  -1.909 -0.15 +0.05    +0.051 C 
DOCKED: ATOM     10  C   UNL d   1     -11.829   0.218   0.893 -0.25 +0.05    +0.066 A 
DOCKED: ATOM     11  C   UNL d   1     -10.572   0.678   0.494 -0.32 -0.01    -0.021 A 
DOCKED: ATOM     12  C   UNL d   1      -9.813   0.785   1.641 -0.35 +0.00    +0.000 A 
DOCKED: ATOM     13  C   UNL d   1     -10.651   0.373   2.692 -0.27 +0.03    +0.070 A 
DOCKED: ATOM     14  C   UNL d   1     -10.096   0.937  -0.921 -0.36 +0.01    +0.052 C 
DOCKED: ATOM     15  C   UNL d   1     -11.071  -0.057   5.109 -0.37 +0.02    +0.066 A 
DOCKED: ATOM     16  C   UNL d   1     -10.726   0.065   6.449 -0.46 -0.00    -0.021 A 
DOCKED: ATOM     17  C   UNL d   1     -11.737  -0.526   7.178 -0.44 +0.00    +0.000 A 
DOCKED: ATOM     18  C   UNL d   1     -12.675  -1.000   6.264 -0.35 +0.01    +0.070 A 
DOCKED: ATOM     19  C   UNL d   1      -9.484   0.690   7.023 -0.43 +0.01    +0.052 C 
DOCKED: ATOM     20  C   UNL d   1     -14.840  -2.114   5.692 -0.19 +0.03    +0.066 A 
DOCKED: ATOM     21  C   UNL d   1     -15.906  -2.962   6.023 -0.16 -0.01    -0.025 A 
DOCKED: ATOM     22  C   UNL d   1     -16.651  -3.100   4.870 -0.09 -0.01    -0.021 A 
DOCKED: ATOM     23  C   UNL d   1     -16.010  -2.339   3.884 -0.09 +0.04    +0.066 A 
DOCKED: ATOM     24  C   UNL d   1     -16.213  -3.617   7.349 -0.29 +0.01    +0.051 C 
DOCKED: ATOM     25  N   UNL d   1     -14.446  -1.073   1.633 -0.15 -0.29    -0.248 N 
DOCKED: ATOM     26  N   UNL d   1     -11.878   0.019   2.235 -0.16 -0.17    -0.248 N 
DOCKED: ATOM     27  N   UNL d   1     -12.288  -0.674   4.994 -0.23 -0.08    -0.248 N 
DOCKED: ATOM     28  N   UNL d   1     -14.882  -1.776   4.380 -0.10 -0.14    -0.248 N 
DOCKED: ATOM     29 FE   UNL d   1     -13.380  -0.879   3.310 -0.06 +0.00    +0.000 Fe
DOCKED: ENDROOT
DOCKED: BRANCH   6  30
DOCKED: ATOM     30  C   UNL d   1     -17.515  -1.753  -0.280 -0.09 +0.05    +0.052 C 
DOCKED: BRANCH  30  31
DOCKED: ATOM     31  C   UNL d   1     -18.392  -0.516  -0.441 -0.03 +0.10    +0.115 C 
DOCKED: BRANCH  31  32
DOCKED: ATOM     32  C   UNL d   1     -18.261   0.381   0.759 -0.08 +0.18    +0.139 C 
DOCKED: ATOM     33  O   UNL d   1     -17.371   1.218   0.818 -0.24 -1.46    -0.650 OA
DOCKED: BRANCH  32  34
DOCKED: ATOM     34  O   UNL d   1     -19.125   0.270   1.782 -0.02 -1.08    -0.776 OA
DOCKED: ATOM     35  H   UNL d   1     -19.644  -0.541   1.872 +0.02 +0.17    +0.167 HD
DOCKED: ENDBRANCH  32  34
DOCKED: ENDBRANCH  31  32
DOCKED: ENDBRANCH  30  31
DOCKED: ENDBRANCH   6  30
DOCKED: BRANCH  22  36
DOCKED: ATOM     36  C   UNL d   1     -17.881  -3.955   4.714 -0.09 +0.02    +0.052 C 
DOCKED: BRANCH  36  37
DOCKED: ATOM     37  C   UNL d   1     -17.478  -5.367   4.316 +0.02 +0.05    +0.115 C 
DOCKED: BRANCH  37  38
DOCKED: ATOM     38  C   UNL d   1     -16.680  -5.360   3.042 -0.12 +0.11    +0.139 C 
DOCKED: ATOM     39  O   UNL d   1     -15.467  -5.508   3.064 -0.18 -0.65    -0.650 OA
DOCKED: BRANCH  38  40
DOCKED: ATOM     40  O   UNL d   1     -17.301  -5.187   1.862 -0.21 -0.84    -0.776 OA
DOCKED: ATOM     41  H   UNL d   1     -18.242  -4.961   1.854 +0.02 +0.12    +0.167 HD
DOCKED: ENDBRANCH  38  40
DOCKED: ENDBRANCH  37  38
DOCKED: ENDBRANCH  36  37
DOCKED: ENDBRANCH  22  36
DOCKED: BRANCH  12  42
DOCKED: ATOM     42  C   UNL d   1      -8.387   1.235   1.686 -0.44 +0.00    +0.004 C 
DOCKED: ATOM     43  C   UNL d   1      -7.551   0.786   2.632 -0.41 +0.00    +0.012 C 
DOCKED: ENDBRANCH  12  42
DOCKED: BRANCH  17  44
DOCKED: ATOM     44  C   UNL d   1     -11.811  -0.614   8.654 -0.61 +0.00    +0.004 C 
DOCKED: ATOM     45  C   UNL d   1     -12.827  -0.060   9.323 -0.59 +0.00    +0.012 C 
DOCKED: ENDBRANCH  17  44
DOCKED: TORSDOF 10
DOCKED: TER
DOCKED: ENDMDL
________________________________________________________________________________


	BEGINNING GENETIC ALGORITHM DOCKING 26 of 100
Run: 26 Seed: 582327179 370786814 [ Run 26 of 100 GA/GALS ]
Beginning LAMARCKIAN GENETIC ALGORITHM (LGA), with a maximum of 25000000 energy evaluations.

Final-Value: -10.595


	FINAL GENETIC ALGORITHM DOCKED STATE
	_______________________________________________


Detailed state:  trans -9.015 -6.675 18.703 quatxyzw -0.236665 0.261815 -0.279132 0.893044 center -0.174 -0.001 -0.047 ntor 10 107.0508 -95.2769 54.7543 29.6942 109.9093 -73.6413 88.4703 -43.6499 175.3638 -173.2632
State:	 -9.015  -6.675  18.703  -0.526  0.582 -0.620 53.483    107.05  -95.28   54.75   29.69  109.91  -73.64   88.47  -43.65  175.36 -173.26

DOCKED: MODEL       26
DOCKED: USER    Run = 26
DOCKED: USER    DPF = D:/Protein_go_brrr/autodock/final/AncMH_nat/heme_Fe/dock.dpf
DOCKED: USER  
DOCKED: USER    Estimated Free Energy of Binding    =   -6.88 kcal/mol  [=(1)+(2)+(3)-(4)]
DOCKED: USER    Estimated Inhibition Constant, Ki   =    9.01 uM (micromolar)  [Temperature = 298.15 K]
DOCKED: USER    
DOCKED: USER    (1) Final Intermolecular Energy     =   -9.87 kcal/mol
DOCKED: USER        vdW + Hbond + desolv Energy     =   -7.37 kcal/mol
DOCKED: USER        Electrostatic Energy            =   -2.49 kcal/mol
DOCKED: USER    (2) Final Total Internal Energy     =   -0.73 kcal/mol
DOCKED: USER    (3) Torsional Free Energy           =   +2.98 kcal/mol
DOCKED: USER    (4) Unbound System's Energy  [=(2)] =   -0.73 kcal/mol
DOCKED: USER    
DOCKED: USER    
DOCKED: USER    NEWDPF move heme_Fe_opt.pdbqt
DOCKED: USER    NEWDPF about -0.174000 -0.001000 -0.047000
DOCKED: USER    NEWDPF tran0 -9.014623 -6.675069 18.703332
DOCKED: USER    NEWDPF quaternion0 -0.236665 0.261815 -0.279132 0.893044
DOCKED: USER    NEWDPF axisangle0 -0.525958 0.581851 -0.620336 53.483447
DOCKED: USER    NEWDPF quat0 -0.525958 0.581851 -0.620336 53.483447
DOCKED: USER    NEWDPF dihe0 107.05 -95.28 54.75 29.69 109.91 -73.64 88.47 -43.65 175.36 -173.26 
DOCKED: USER  keepresnum = 1 
DOCKED: USER  
DOCKED: REMARK  10 active torsions:
DOCKED: REMARK  status: ('A' for Active; 'I' for Inactive)
DOCKED: REMARK    1  A    between atoms: C_6  and  C_10 
DOCKED: REMARK    2  A    between atoms: C_10  and  C_11 
DOCKED: REMARK    3  A    between atoms: C_11  and  C_12 
DOCKED: REMARK    4  A    between atoms: C_12  and  O_14 
DOCKED: REMARK    5  A    between atoms: C_17  and  C_20 
DOCKED: REMARK    6  A    between atoms: C_24  and  C_27 
DOCKED: REMARK    7  A    between atoms: C_31  and  C_34 
DOCKED: REMARK    8  A    between atoms: C_34  and  C_35 
DOCKED: REMARK    9  A    between atoms: C_35  and  C_36 
DOCKED: REMARK   10  A    between atoms: C_36  and  O_38 
DOCKED: USER                              x       y       z     vdW  Elec       q    Type
DOCKED: USER                           _______ _______ _______ _____ _____    ______ ____
DOCKED: ROOT
DOCKED: ATOM      1  C   UNL d   1     -10.557  -7.763  17.898 -0.27 +0.01    +0.064 C 
DOCKED: ATOM      2  C   UNL d   1      -5.840  -8.719  19.023 -0.14 -0.01    +0.064 A 
DOCKED: ATOM      3  C   UNL d   1      -5.724  -4.700  21.650 -0.12 -0.01    +0.064 C 
DOCKED: ATOM      4  C   UNL d   1     -10.256  -3.701  20.488 -0.15 -0.01    +0.064 C 
DOCKED: ATOM      5  C   UNL d   1      -9.215  -8.361  17.904 -0.26 +0.01    +0.066 A 
DOCKED: ATOM      6  C   UNL d   1      -8.841  -9.472  17.165 -0.30 -0.00    -0.021 A 
DOCKED: ATOM      7  C   UNL d   1      -7.532  -9.739  17.481 -0.29 -0.00    -0.025 A 
DOCKED: ATOM      8  C   UNL d   1      -7.157  -8.780  18.401 -0.23 -0.00    +0.066 A 
DOCKED: ATOM      9  C   UNL d   1      -6.694 -10.842  16.912 -0.32 +0.01    +0.051 C 
DOCKED: ATOM     10  C   UNL d   1      -5.434  -7.771  19.870 -0.25 -0.01    +0.066 A 
DOCKED: ATOM     11  C   UNL d   1      -4.207  -7.803  20.538 -0.23 +0.01    -0.021 A 
DOCKED: ATOM     12  C   UNL d   1      -4.156  -6.663  21.315 -0.18 -0.00    +0.000 A 
DOCKED: ATOM     13  C   UNL d   1      -5.370  -5.992  21.085 -0.14 -0.01    +0.070 A 
DOCKED: ATOM     14  C   UNL d   1      -3.163  -8.900  20.491 -0.03 -0.01    +0.052 C 
DOCKED: ATOM     15  C   UNL d   1      -6.912  -4.075  21.473 -0.12 -0.01    +0.066 A 
DOCKED: ATOM     16  C   UNL d   1      -7.175  -2.796  21.948 -0.10 +0.00    -0.021 A 
DOCKED: ATOM     17  C   UNL d   1      -8.482  -2.507  21.617 -0.13 -0.00    +0.000 A 
DOCKED: ATOM     18  C   UNL d   1      -8.989  -3.620  20.950 -0.16 -0.01    +0.070 A 
DOCKED: ATOM     19  C   UNL d   1      -6.243  -1.888  22.705 -0.05 -0.01    +0.052 C 
DOCKED: ATOM     20  C   UNL d   1     -10.806  -4.831  19.729 -0.12 +0.00    +0.066 A 
DOCKED: ATOM     21  C   UNL d   1     -12.160  -5.016  19.420 -0.13 -0.00    -0.025 A 
DOCKED: ATOM     22  C   UNL d   1     -12.222  -6.173  18.671 -0.17 -0.01    -0.021 A 
DOCKED: ATOM     23  C   UNL d   1     -10.910  -6.649  18.558 -0.16 +0.01    +0.066 A 
DOCKED: ATOM     24  C   UNL d   1     -13.343  -4.159  19.808 -0.13 +0.01    +0.051 C 
DOCKED: ATOM     25  N   UNL d   1      -8.180  -7.937  18.649 -0.17 +0.01    -0.248 N 
DOCKED: ATOM     26  N   UNL d   1      -6.153  -6.672  20.211 -0.15 +0.04    -0.248 N 
DOCKED: ATOM     27  N   UNL d   1      -8.012  -4.567  20.823 -0.12 +0.02    -0.248 N 
DOCKED: ATOM     28  N   UNL d   1     -10.056  -5.850  19.244 -0.15 -0.02    -0.248 N 
DOCKED: ATOM     29 FE   UNL d   1      -8.106  -6.259  19.728 -0.05 -0.00    +0.000 Fe
DOCKED: ENDROOT
DOCKED: BRANCH   6  30
DOCKED: ATOM     30  C   UNL d   1      -9.678 -10.230  16.192 -0.38 +0.03    +0.052 C 
DOCKED: BRANCH  30  31
DOCKED: ATOM     31  C   UNL d   1     -10.327 -11.436  16.862 -0.25 +0.04    +0.115 C 
DOCKED: BRANCH  31  32
DOCKED: ATOM     32  C   UNL d   1      -9.453 -12.651  16.720 -0.22 +0.06    +0.139 C 
DOCKED: ATOM     33  O   UNL d   1      -8.877 -13.121  17.691 +0.04 -0.13    -0.650 OA
DOCKED: BRANCH  32  34
DOCKED: ATOM     34  O   UNL d   1      -9.298 -13.234  15.519 -0.13 -1.02    -0.776 OA
DOCKED: ATOM     35  H   UNL d   1     -10.031 -13.744  15.147 -0.40 +0.08    +0.167 HD
DOCKED: ENDBRANCH  32  34
DOCKED: ENDBRANCH  31  32
DOCKED: ENDBRANCH  30  31
DOCKED: ENDBRANCH   6  30
DOCKED: BRANCH  22  36
DOCKED: ATOM     36  C   UNL d   1     -13.478  -6.809  18.136 -0.22 +0.04    +0.052 C 
DOCKED: BRANCH  36  37
DOCKED: ATOM     37  C   UNL d   1     -14.210  -7.524  19.262 -0.12 +0.08    +0.115 C 
DOCKED: BRANCH  37  38
DOCKED: ATOM     38  C   UNL d   1     -15.684  -7.235  19.215 +0.05 +0.17    +0.139 C 
DOCKED: ATOM     39  O   UNL d   1     -16.119  -6.145  19.555 -0.04 -0.57    -0.650 OA
DOCKED: BRANCH  38  40
DOCKED: ATOM     40  O   UNL d   1     -16.541  -8.184  18.797 -0.45 -1.41    -0.776 OA
DOCKED: ATOM     41  H   UNL d   1     -16.857  -8.843  19.430 +0.01 +0.14    +0.167 HD
DOCKED: ENDBRANCH  38  40
DOCKED: ENDBRANCH  37  38
DOCKED: ENDBRANCH  36  37
DOCKED: ENDBRANCH  22  36
DOCKED: BRANCH  12  42
DOCKED: ATOM     42  C   UNL d   1      -3.020  -6.289  22.213 -0.10 -0.00    +0.004 C 
DOCKED: ATOM     43  C   UNL d   1      -2.134  -5.353  21.849 -0.13 -0.00    +0.012 C 
DOCKED: ENDBRANCH  12  42
DOCKED: BRANCH  17  44
DOCKED: ATOM     44  C   UNL d   1      -9.194  -1.241  21.901 -0.11 -0.00    +0.004 C 
DOCKED: ATOM     45  C   UNL d   1      -9.070  -0.187  21.087 -0.12 -0.00    +0.012 C 
DOCKED: ENDBRANCH  17  44
DOCKED: TORSDOF 10
DOCKED: TER
DOCKED: ENDMDL
________________________________________________________________________________


	BEGINNING GENETIC ALGORITHM DOCKING 27 of 100
Run: 27 Seed: 491122360 1180826927 [ Run 27 of 100 GA/GALS ]
Beginning LAMARCKIAN GENETIC ALGORITHM (LGA), with a maximum of 25000000 energy evaluations.

Final-Value: -14.971


	FINAL GENETIC ALGORITHM DOCKED STATE
	_______________________________________________


Detailed state:  trans -12.807 0.043 1.430 quatxyzw 0.757921 -0.211751 0.322571 -0.525989 center -0.174 -0.001 -0.047 ntor 10 -141.1978 127.1594 57.4040 -173.5721 -9.0558 -88.4141 -108.0407 -146.6829 -56.1113 -16.6172
State:	-12.807   0.043   1.430   0.891 -0.249  0.379 -116.530   -141.20  127.16   57.40 -173.57   -9.06  -88.41 -108.04 -146.68  -56.11  -16.62

DOCKED: MODEL       27
DOCKED: USER    Run = 27
DOCKED: USER    DPF = D:/Protein_go_brrr/autodock/final/AncMH_nat/heme_Fe/dock.dpf
DOCKED: USER  
DOCKED: USER    Estimated Free Energy of Binding    =  -10.70 kcal/mol  [=(1)+(2)+(3)-(4)]
DOCKED: USER    Estimated Inhibition Constant, Ki   =   14.35 nM (nanomolar)  [Temperature = 298.15 K]
DOCKED: USER    
DOCKED: USER    (1) Final Intermolecular Energy     =  -13.68 kcal/mol
DOCKED: USER        vdW + Hbond + desolv Energy     =   -9.79 kcal/mol
DOCKED: USER        Electrostatic Energy            =   -3.90 kcal/mol
DOCKED: USER    (2) Final Total Internal Energy     =   -1.29 kcal/mol
DOCKED: USER    (3) Torsional Free Energy           =   +2.98 kcal/mol
DOCKED: USER    (4) Unbound System's Energy  [=(2)] =   -1.29 kcal/mol
DOCKED: USER    
DOCKED: USER    
DOCKED: USER    NEWDPF move heme_Fe_opt.pdbqt
DOCKED: USER    NEWDPF about -0.174000 -0.001000 -0.047000
DOCKED: USER    NEWDPF tran0 -12.807322 0.043216 1.430437
DOCKED: USER    NEWDPF quaternion0 0.757921 -0.211751 0.322571 -0.525989
DOCKED: USER    NEWDPF axisangle0 0.891157 -0.248975 0.379276 -116.530293
DOCKED: USER    NEWDPF quat0 0.891157 -0.248975 0.379276 -116.530293
DOCKED: USER    NEWDPF dihe0 -141.20 127.16 57.40 -173.57 -9.06 -88.41 -108.04 -146.68 -56.11 -16.62 
DOCKED: USER  keepresnum = 1 
DOCKED: USER  
DOCKED: REMARK  10 active torsions:
DOCKED: REMARK  status: ('A' for Active; 'I' for Inactive)
DOCKED: REMARK    1  A    between atoms: C_6  and  C_10 
DOCKED: REMARK    2  A    between atoms: C_10  and  C_11 
DOCKED: REMARK    3  A    between atoms: C_11  and  C_12 
DOCKED: REMARK    4  A    between atoms: C_12  and  O_14 
DOCKED: REMARK    5  A    between atoms: C_17  and  C_20 
DOCKED: REMARK    6  A    between atoms: C_24  and  C_27 
DOCKED: REMARK    7  A    between atoms: C_31  and  C_34 
DOCKED: REMARK    8  A    between atoms: C_34  and  C_35 
DOCKED: REMARK    9  A    between atoms: C_35  and  C_36 
DOCKED: REMARK   10  A    between atoms: C_36  and  O_38 
DOCKED: USER                              x       y       z     vdW  Elec       q    Type
DOCKED: USER                           _______ _______ _______ _____ _____    ______ ____
DOCKED: ROOT
DOCKED: ATOM      1  C   UNL d   1     -14.018  -0.469  -0.145 -0.20 +0.09    +0.064 C 
DOCKED: ATOM      2  C   UNL d   1      -9.309   0.966   0.303 -0.36 +0.01    +0.064 A 
DOCKED: ATOM      3  C   UNL d   1      -9.557   0.070   5.015 -0.24 +0.02    +0.064 C 
DOCKED: ATOM      4  C   UNL d   1     -14.146  -1.223   4.621 -0.15 +0.03    +0.064 C 
DOCKED: ATOM      5  C   UNL d   1     -12.695   0.098  -0.442 -0.20 +0.07    +0.066 A 
DOCKED: ATOM      6  C   UNL d   1     -12.300   0.578  -1.680 -0.21 -0.02    -0.021 A 
DOCKED: ATOM      7  C   UNL d   1     -10.991   0.973  -1.556 -0.28 -0.01    -0.025 A 
DOCKED: ATOM      8  C   UNL d   1     -10.637   0.718  -0.245 -0.29 +0.03    +0.066 A 
DOCKED: ATOM      9  C   UNL d   1     -10.145   1.576  -2.634 -0.27 +0.00    +0.051 C 
DOCKED: ATOM     10  C   UNL d   1      -8.958   0.784   1.577 -0.36 +0.02    +0.066 A 
DOCKED: ATOM     11  C   UNL d   1      -7.650   0.921   2.048 -0.37 -0.00    -0.021 A 
DOCKED: ATOM     12  C   UNL d   1      -7.692   0.651   3.401 -0.34 +0.00    +0.000 A 
DOCKED: ATOM     13  C   UNL d   1      -9.035   0.352   3.687 -0.20 +0.02    +0.070 A 
DOCKED: ATOM     14  C   UNL d   1      -6.408   1.227   1.235 -0.40 +0.00    +0.052 C 
DOCKED: ATOM     15  C   UNL d   1     -10.839  -0.269   5.288 -0.32 +0.02    +0.066 A 
DOCKED: ATOM     16  C   UNL d   1     -11.322  -0.433   6.581 -0.40 -0.00    -0.021 A 
DOCKED: ATOM     17  C   UNL d   1     -12.644  -0.810   6.469 -0.40 +0.00    +0.000 A 
DOCKED: ATOM     18  C   UNL d   1     -12.937  -0.870   5.109 -0.27 +0.02    +0.070 A 
DOCKED: ATOM     19  C   UNL d   1     -10.565  -0.269   7.871 -0.35 +0.01    +0.052 C 
DOCKED: ATOM     20  C   UNL d   1     -14.509  -1.238   3.198 -0.20 +0.05    +0.066 A 
DOCKED: ATOM     21  C   UNL d   1     -15.684  -1.789   2.668 -0.15 -0.02    -0.025 A 
DOCKED: ATOM     22  C   UNL d   1     -15.632  -1.551   1.310 -0.17 -0.03    -0.021 A 
DOCKED: ATOM     23  C   UNL d   1     -14.431  -0.875   1.066 -0.21 +0.09    +0.066 A 
DOCKED: ATOM     24  C   UNL d   1     -16.800  -2.506   3.391 -0.09 +0.04    +0.051 C 
DOCKED: ATOM     25  N   UNL d   1     -11.679   0.195   0.432 -0.16 -0.19    -0.248 N 
DOCKED: ATOM     26  N   UNL d   1      -9.806   0.424   2.575 -0.20 -0.08    -0.248 N 
DOCKED: ATOM     27  N   UNL d   1     -11.841  -0.496   4.383 -0.15 -0.09    -0.248 N 
DOCKED: ATOM     28  N   UNL d   1     -13.729  -0.726   2.215 -0.17 -0.25    -0.248 N 
DOCKED: ATOM     29 FE   UNL d   1     -11.769  -0.152   2.396 -0.07 +0.00    +0.000 Fe
DOCKED: ENDROOT
DOCKED: BRANCH   6  30
DOCKED: ATOM     30  C   UNL d   1     -13.129   0.677  -2.915 -0.15 +0.03    +0.052 C 
DOCKED: BRANCH  30  31
DOCKED: ATOM     31  C   UNL d   1     -14.584   0.971  -2.567 -0.09 +0.11    +0.115 C 
DOCKED: BRANCH  31  32
DOCKED: ATOM     32  C   UNL d   1     -14.735   2.387  -2.085 +0.12 +0.21    +0.139 C 
DOCKED: ATOM     33  O   UNL d   1     -13.750   3.076  -1.858 -0.03 -0.85    -0.650 OA
DOCKED: BRANCH  32  34
DOCKED: ATOM     34  O   UNL d   1     -15.958   2.910  -1.900 -0.21 -1.37    -0.776 OA
DOCKED: ATOM     35  H   UNL d   1     -16.655   2.354  -1.525 +0.01 +0.30    +0.167 HD
DOCKED: ENDBRANCH  32  34
DOCKED: ENDBRANCH  31  32
DOCKED: ENDBRANCH  30  31
DOCKED: ENDBRANCH   6  30
DOCKED: BRANCH  22  36
DOCKED: ATOM     36  C   UNL d   1     -16.658  -1.995   0.300 -0.12 +0.06    +0.052 C 
DOCKED: BRANCH  36  37
DOCKED: ATOM     37  C   UNL d   1     -17.838  -1.035   0.312 -0.05 +0.11    +0.115 C 
DOCKED: BRANCH  37  38
DOCKED: ATOM     38  C   UNL d   1     -17.393   0.363   0.636 -0.02 +0.23    +0.139 C 
DOCKED: ATOM     39  O   UNL d   1     -17.326   0.745   1.794 -0.30 -1.20    -0.650 OA
DOCKED: BRANCH  38  40
DOCKED: ATOM     40  O   UNL d   1     -17.066   1.210  -0.357 -0.11 -1.66    -0.776 OA
DOCKED: ATOM     41  H   UNL d   1     -16.413   0.934  -1.015 +0.02 +0.31    +0.167 HD
DOCKED: ENDBRANCH  38  40
DOCKED: ENDBRANCH  37  38
DOCKED: ENDBRANCH  36  37
DOCKED: ENDBRANCH  22  36
DOCKED: BRANCH  12  42
DOCKED: ATOM     42  C   UNL d   1      -6.508   0.670   4.314 -0.40 +0.00    +0.004 C 
DOCKED: ATOM     43  C   UNL d   1      -6.318   1.677   5.177 -0.42 +0.00    +0.012 C 
DOCKED: ENDBRANCH  12  42
DOCKED: BRANCH  17  44
DOCKED: ATOM     44  C   UNL d   1     -13.573  -1.074   7.592 -0.45 +0.00    +0.004 C 
DOCKED: ATOM     45  C   UNL d   1     -14.145  -2.273   7.738 -0.41 +0.00    +0.012 C 
DOCKED: ENDBRANCH  17  44
DOCKED: TORSDOF 10
DOCKED: TER
DOCKED: ENDMDL
________________________________________________________________________________


	BEGINNING GENETIC ALGORITHM DOCKING 28 of 100
Run: 28 Seed: 1037512499 86214713 [ Run 28 of 100 GA/GALS ]
Beginning LAMARCKIAN GENETIC ALGORITHM (LGA), with a maximum of 25000000 energy evaluations.

Final-Value: -15.453


	FINAL GENETIC ALGORITHM DOCKED STATE
	_______________________________________________


Detailed state:  trans -14.489 -1.524 3.306 quatxyzw -0.619088 -0.217908 0.076703 -0.750575 center -0.174 -0.001 -0.047 ntor 10 -54.9102 -177.5072 66.4548 -156.0026 93.3734 48.7096 -125.6585 -144.3095 175.5552 146.1679
State:	-14.489  -1.524   3.306  -0.937 -0.330  0.116 -82.719    -54.91 -177.51   66.45 -156.00   93.37   48.71 -125.66 -144.31  175.56  146.17

DOCKED: MODEL       28
DOCKED: USER    Run = 28
DOCKED: USER    DPF = D:/Protein_go_brrr/autodock/final/AncMH_nat/heme_Fe/dock.dpf
DOCKED: USER  
DOCKED: USER    Estimated Free Energy of Binding    =  -10.22 kcal/mol  [=(1)+(2)+(3)-(4)]
DOCKED: USER    Estimated Inhibition Constant, Ki   =   32.28 nM (nanomolar)  [Temperature = 298.15 K]
DOCKED: USER    
DOCKED: USER    (1) Final Intermolecular Energy     =  -13.20 kcal/mol
DOCKED: USER        vdW + Hbond + desolv Energy     =   -9.49 kcal/mol
DOCKED: USER        Electrostatic Energy            =   -3.71 kcal/mol
DOCKED: USER    (2) Final Total Internal Energy     =   -2.25 kcal/mol
DOCKED: USER    (3) Torsional Free Energy           =   +2.98 kcal/mol
DOCKED: USER    (4) Unbound System's Energy  [=(2)] =   -2.25 kcal/mol
DOCKED: USER    
DOCKED: USER    
DOCKED: USER    NEWDPF move heme_Fe_opt.pdbqt
DOCKED: USER    NEWDPF about -0.174000 -0.001000 -0.047000
DOCKED: USER    NEWDPF tran0 -14.489142 -1.523649 3.306398
DOCKED: USER    NEWDPF quaternion0 -0.619088 -0.217908 0.076703 -0.750575
DOCKED: USER    NEWDPF axisangle0 -0.936897 -0.329771 0.116078 -82.719500
DOCKED: USER    NEWDPF quat0 -0.936897 -0.329771 0.116078 -82.719500
DOCKED: USER    NEWDPF dihe0 -54.91 -177.51 66.45 -156.00 93.37 48.71 -125.66 -144.31 175.56 146.17 
DOCKED: USER  keepresnum = 1 
DOCKED: USER  
DOCKED: REMARK  10 active torsions:
DOCKED: REMARK  status: ('A' for Active; 'I' for Inactive)
DOCKED: REMARK    1  A    between atoms: C_6  and  C_10 
DOCKED: REMARK    2  A    between atoms: C_10  and  C_11 
DOCKED: REMARK    3  A    between atoms: C_11  and  C_12 
DOCKED: REMARK    4  A    between atoms: C_12  and  O_14 
DOCKED: REMARK    5  A    between atoms: C_17  and  C_20 
DOCKED: REMARK    6  A    between atoms: C_24  and  C_27 
DOCKED: REMARK    7  A    between atoms: C_31  and  C_34 
DOCKED: REMARK    8  A    between atoms: C_34  and  C_35 
DOCKED: REMARK    9  A    between atoms: C_35  and  C_36 
DOCKED: REMARK   10  A    between atoms: C_36  and  O_38 
DOCKED: USER                              x       y       z     vdW  Elec       q    Type
DOCKED: USER                           _______ _______ _______ _____ _____    ______ ____
DOCKED: ROOT
DOCKED: ATOM      1  C   UNL d   1     -16.492  -1.823   2.977 -0.11 +0.05    +0.064 C 
DOCKED: ATOM      2  C   UNL d   1     -13.663  -1.328   6.999 -0.34 +0.01    +0.064 A 
DOCKED: ATOM      3  C   UNL d   1     -10.132   0.371   4.221 -0.28 +0.02    +0.064 C 
DOCKED: ATOM      4  C   UNL d   1     -12.816  -0.199   0.303 -0.25 +0.07    +0.064 C 
DOCKED: ATOM      5  C   UNL d   1     -15.994  -1.919   4.356 -0.10 +0.04    +0.066 A 
DOCKED: ATOM      6  C   UNL d   1     -16.699  -2.469   5.415 -0.10 -0.01    -0.021 A 
DOCKED: ATOM      7  C   UNL d   1     -15.914  -2.327   6.532 -0.17 -0.01    -0.025 A 
DOCKED: ATOM      8  C   UNL d   1     -14.758  -1.697   6.112 -0.16 +0.02    +0.066 A 
DOCKED: ATOM      9  C   UNL d   1     -16.254  -2.792   7.915 -0.26 +0.01    +0.051 C 
DOCKED: ATOM     10  C   UNL d   1     -12.514  -0.771   6.611 -0.36 +0.01    +0.066 A 
DOCKED: ATOM     11  C   UNL d   1     -11.531  -0.324   7.497 -0.47 -0.00    -0.021 A 
DOCKED: ATOM     12  C   UNL d   1     -10.509   0.185   6.721 -0.47 +0.00    +0.000 A 
DOCKED: ATOM     13  C   UNL d   1     -10.929   0.029   5.389 -0.39 +0.02    +0.070 A 
DOCKED: ATOM     14  C   UNL d   1     -11.591  -0.320   9.011 -0.51 +0.01    +0.052 C 
DOCKED: ATOM     15  C   UNL d   1     -10.552   0.271   2.938 -0.22 +0.03    +0.066 A 
DOCKED: ATOM     16  C   UNL d   1      -9.726   0.513   1.848 -0.35 -0.01    -0.021 A 
DOCKED: ATOM     17  C   UNL d   1     -10.499   0.352   0.717 -0.35 +0.00    +0.000 A 
DOCKED: ATOM     18  C   UNL d   1     -11.783   0.020   1.145 -0.26 +0.05    +0.070 A 
DOCKED: ATOM     19  C   UNL d   1      -8.273   0.904   1.866 -0.42 +0.01    +0.052 C 
DOCKED: ATOM     20  C   UNL d   1     -14.164  -0.610   0.714 -0.20 +0.09    +0.066 A 
DOCKED: ATOM     21  C   UNL d   1     -15.290  -0.646  -0.121 -0.16 -0.04    -0.025 A 
DOCKED: ATOM     22  C   UNL d   1     -16.323  -1.123   0.658 -0.14 -0.03    -0.021 A 
DOCKED: ATOM     23  C   UNL d   1     -15.792  -1.353   1.933 -0.15 +0.07    +0.066 A 
DOCKED: ATOM     24  C   UNL d   1     -15.399  -0.249  -1.575 -0.15 +0.06    +0.051 C 
DOCKED: ATOM     25  N   UNL d   1     -14.806  -1.459   4.786 -0.09 -0.13    -0.248 N 
DOCKED: ATOM     26  N   UNL d   1     -12.155  -0.546   5.321 -0.26 -0.07    -0.248 N 
DOCKED: ATOM     27  N   UNL d   1     -11.806  -0.074   2.508 -0.16 -0.15    -0.248 N 
DOCKED: ATOM     28  N   UNL d   1     -14.485  -0.996   1.972 -0.15 -0.28    -0.248 N 
DOCKED: ATOM     29 FE   UNL d   1     -13.320  -0.771   3.645 -0.06 +0.00    +0.000 Fe
DOCKED: ENDROOT
DOCKED: BRANCH   6  30
DOCKED: ATOM     30  C   UNL d   1     -18.041  -3.115   5.366 -0.09 +0.02    +0.052 C 
DOCKED: BRANCH  30  31
DOCKED: ATOM     31  C   UNL d   1     -19.135  -2.114   5.720 -0.05 +0.06    +0.115 C 
DOCKED: BRANCH  31  32
DOCKED: ATOM     32  C   UNL d   1     -19.043  -0.900   4.838 -0.10 +0.12    +0.139 C 
DOCKED: ATOM     33  O   UNL d   1     -19.695  -0.828   3.806 -0.00 -0.69    -0.650 OA
DOCKED: BRANCH  32  34
DOCKED: ATOM     34  O   UNL d   1     -18.240   0.122   5.179 +0.03 -0.85    -0.776 OA
DOCKED: ATOM     35  H   UNL d   1     -17.573   0.426   4.548 +0.03 +0.20    +0.167 HD
DOCKED: ENDBRANCH  32  34
DOCKED: ENDBRANCH  31  32
DOCKED: ENDBRANCH  30  31
DOCKED: ENDBRANCH   6  30
DOCKED: BRANCH  22  36
DOCKED: ATOM     36  C   UNL d   1     -17.751  -1.301   0.213 -0.07 +0.05    +0.052 C 
DOCKED: BRANCH  36  37
DOCKED: ATOM     37  C   UNL d   1     -18.659  -0.387   1.024 -0.05 +0.12    +0.115 C 
DOCKED: BRANCH  37  38
DOCKED: ATOM     38  C   UNL d   1     -17.969   0.908   1.347 -0.11 +0.24    +0.139 C 
DOCKED: ATOM     39  O   UNL d   1     -17.396   1.545   0.476 +0.02 -1.54    -0.650 OA
DOCKED: BRANCH  38  40
DOCKED: ATOM     40  O   UNL d   1     -17.977   1.376   2.608 -0.37 -1.65    -0.776 OA
DOCKED: ATOM     41  H   UNL d   1     -18.401   0.852   3.301 +0.02 +0.33    +0.167 HD
DOCKED: ENDBRANCH  38  40
DOCKED: ENDBRANCH  37  38
DOCKED: ENDBRANCH  36  37
DOCKED: ENDBRANCH  22  36
DOCKED: BRANCH  12  42
DOCKED: ATOM     42  C   UNL d   1      -9.247   0.786   7.254 -0.48 +0.00    +0.004 C 
DOCKED: ATOM     43  C   UNL d   1      -8.061   0.202   7.040 -0.47 +0.00    +0.012 C 
DOCKED: ENDBRANCH  12  42
DOCKED: BRANCH  17  44
DOCKED: ATOM     44  C   UNL d   1     -10.035   0.488  -0.682 -0.37 +0.00    +0.004 C 
DOCKED: ATOM     45  C   UNL d   1     -10.302   1.592  -1.388 -0.34 +0.00    +0.012 C 
DOCKED: ENDBRANCH  17  44
DOCKED: TORSDOF 10
DOCKED: TER
DOCKED: ENDMDL
________________________________________________________________________________


	BEGINNING GENETIC ALGORITHM DOCKING 29 of 100
Run: 29 Seed: 1132228129 764781749 [ Run 29 of 100 GA/GALS ]
Beginning LAMARCKIAN GENETIC ALGORITHM (LGA), with a maximum of 25000000 energy evaluations.

Final-Value: -14.710


	FINAL GENETIC ALGORITHM DOCKED STATE
	_______________________________________________


Detailed state:  trans -13.933 -0.817 3.016 quatxyzw -0.763583 0.005186 -0.199457 0.614109 center -0.174 -0.001 -0.047 ntor 10 -158.4484 -160.3576 25.2128 75.2776 119.8455 175.2358 110.1882 72.4588 -2.9663 168.6268
State:	-13.933  -0.817   3.016  -0.968  0.007 -0.253 104.226   -158.45 -160.36   25.21   75.28  119.85  175.24  110.19   72.46   -2.97  168.63

DOCKED: MODEL       29
DOCKED: USER    Run = 29
DOCKED: USER    DPF = D:/Protein_go_brrr/autodock/final/AncMH_nat/heme_Fe/dock.dpf
DOCKED: USER  
DOCKED: USER    Estimated Free Energy of Binding    =   -9.94 kcal/mol  [=(1)+(2)+(3)-(4)]
DOCKED: USER    Estimated Inhibition Constant, Ki   =   51.35 nM (nanomolar)  [Temperature = 298.15 K]
DOCKED: USER    
DOCKED: USER    (1) Final Intermolecular Energy     =  -12.93 kcal/mol
DOCKED: USER        vdW + Hbond + desolv Energy     =   -9.99 kcal/mol
DOCKED: USER        Electrostatic Energy            =   -2.94 kcal/mol
DOCKED: USER    (2) Final Total Internal Energy     =   -1.78 kcal/mol
DOCKED: USER    (3) Torsional Free Energy           =   +2.98 kcal/mol
DOCKED: USER    (4) Unbound System's Energy  [=(2)] =   -1.78 kcal/mol
DOCKED: USER    
DOCKED: USER    
DOCKED: USER    NEWDPF move heme_Fe_opt.pdbqt
DOCKED: USER    NEWDPF about -0.174000 -0.001000 -0.047000
DOCKED: USER    NEWDPF tran0 -13.933169 -0.817138 3.015712
DOCKED: USER    NEWDPF quaternion0 -0.763583 0.005186 -0.199457 0.614109
DOCKED: USER    NEWDPF axisangle0 -0.967516 0.006571 -0.252726 104.225520
DOCKED: USER    NEWDPF quat0 -0.967516 0.006571 -0.252726 104.225520
DOCKED: USER    NEWDPF dihe0 -158.45 -160.36 25.21 75.28 119.85 175.24 110.19 72.46 -2.97 168.63 
DOCKED: USER  keepresnum = 1 
DOCKED: USER  
DOCKED: REMARK  10 active torsions:
DOCKED: REMARK  status: ('A' for Active; 'I' for Inactive)
DOCKED: REMARK    1  A    between atoms: C_6  and  C_10 
DOCKED: REMARK    2  A    between atoms: C_10  and  C_11 
DOCKED: REMARK    3  A    between atoms: C_11  and  C_12 
DOCKED: REMARK    4  A    between atoms: C_12  and  O_14 
DOCKED: REMARK    5  A    between atoms: C_17  and  C_20 
DOCKED: REMARK    6  A    between atoms: C_24  and  C_27 
DOCKED: REMARK    7  A    between atoms: C_31  and  C_34 
DOCKED: REMARK    8  A    between atoms: C_34  and  C_35 
DOCKED: REMARK    9  A    between atoms: C_35  and  C_36 
DOCKED: REMARK   10  A    between atoms: C_36  and  O_38 
DOCKED: USER                              x       y       z     vdW  Elec       q    Type
DOCKED: USER                           _______ _______ _______ _____ _____    ______ ____
DOCKED: ROOT
DOCKED: ATOM      1  C   UNL d   1     -15.583  -1.772   2.256 -0.17 +0.06    +0.064 C 
DOCKED: ATOM      2  C   UNL d   1     -11.439   0.093   0.313 -0.27 +0.04    +0.064 A 
DOCKED: ATOM      3  C   UNL d   1      -9.542   0.291   4.721 +0.00 +0.02    +0.064 C 
DOCKED: ATOM      4  C   UNL d   1     -13.582  -1.415   6.634 -0.38 +0.01    +0.064 C 
DOCKED: ATOM      5  C   UNL d   1     -14.623  -1.188   1.310 -0.20 +0.08    +0.066 A 
DOCKED: ATOM      6  C   UNL d   1     -14.869  -0.976  -0.037 -0.16 -0.03    -0.021 A 
DOCKED: ATOM      7  C   UNL d   1     -13.716  -0.462  -0.577 -0.11 -0.03    -0.025 A 
DOCKED: ATOM      8  C   UNL d   1     -12.810  -0.378   0.463 -0.22 +0.07    +0.066 A 
DOCKED: ATOM      9  C   UNL d   1     -13.513  -0.059  -2.005 -0.18 +0.05    +0.051 C 
DOCKED: ATOM     10  C   UNL d   1     -10.563   0.237   1.308 -0.30 +0.03    +0.066 A 
DOCKED: ATOM     11  C   UNL d   1      -9.222   0.581   1.118 -0.40 -0.01    -0.021 A 
DOCKED: ATOM     12  C   UNL d   1      -8.649   0.628   2.373 -0.37 +0.00    +0.000 A 
DOCKED: ATOM     13  C   UNL d   1      -9.678   0.299   3.273 -0.26 +0.02    +0.070 A 
DOCKED: ATOM     14  C   UNL d   1      -8.505   0.788  -0.201 -0.36 +0.01    +0.052 C 
DOCKED: ATOM     15  C   UNL d   1     -10.515  -0.076   5.589 -0.38 +0.02    +0.066 A 
DOCKED: ATOM     16  C   UNL d   1     -10.379   0.025   6.967 -0.44 -0.00    -0.021 A 
DOCKED: ATOM     17  C   UNL d   1     -11.541  -0.470   7.521 -0.47 +0.00    +0.000 A 
DOCKED: ATOM     18  C   UNL d   1     -12.359  -0.865   6.466 -0.35 +0.01    +0.070 A 
DOCKED: ATOM     19  C   UNL d   1      -9.193   0.541   7.737 -0.41 +0.01    +0.052 C 
DOCKED: ATOM     20  C   UNL d   1     -14.496  -1.786   5.547 -0.20 +0.03    +0.066 A 
DOCKED: ATOM     21  C   UNL d   1     -15.671  -2.534   5.697 -0.15 -0.01    -0.025 A 
DOCKED: ATOM     22  C   UNL d   1     -16.232  -2.613   4.439 -0.10 -0.01    -0.021 A 
DOCKED: ATOM     23  C   UNL d   1     -15.378  -1.919   3.575 -0.14 +0.05    +0.066 A 
DOCKED: ATOM     24  C   UNL d   1     -16.243  -3.151   6.953 -0.22 +0.02    +0.051 C 
DOCKED: ATOM     25  N   UNL d   1     -13.368  -0.812   1.611 -0.17 -0.26    -0.248 N 
DOCKED: ATOM     26  N   UNL d   1     -10.842   0.052   2.624 -0.15 -0.11    -0.248 N 
DOCKED: ATOM     27  N   UNL d   1     -11.748  -0.583   5.276 -0.25 -0.07    -0.248 N 
DOCKED: ATOM     28  N   UNL d   1     -14.297  -1.455   4.248 -0.13 -0.14    -0.248 N 
DOCKED: ATOM     29 FE   UNL d   1     -12.570  -0.702   3.438 -0.07 +0.00    +0.000 Fe
DOCKED: ENDROOT
DOCKED: BRANCH   6  30
DOCKED: ATOM     30  C   UNL d   1     -16.140  -1.230  -0.772 -0.15 +0.06    +0.052 C 
DOCKED: BRANCH  30  31
DOCKED: ATOM     31  C   UNL d   1     -17.071  -0.026  -0.673 -0.07 +0.15    +0.115 C 
DOCKED: BRANCH  31  32
DOCKED: ATOM     32  C   UNL d   1     -17.595   0.121   0.729 -0.07 +0.20    +0.139 C 
DOCKED: ATOM     33  O   UNL d   1     -17.372   1.135   1.374 -0.26 -1.40    -0.650 OA
DOCKED: BRANCH  32  34
DOCKED: ATOM     34  O   UNL d   1     -18.315  -0.867   1.286 +0.07 -0.77    -0.776 OA
DOCKED: ATOM     35  H   UNL d   1     -18.234  -1.764   0.933 +0.03 +0.14    +0.167 HD
DOCKED: ENDBRANCH  32  34
DOCKED: ENDBRANCH  31  32
DOCKED: ENDBRANCH  30  31
DOCKED: ENDBRANCH   6  30
DOCKED: BRANCH  22  36
DOCKED: ATOM     36  C   UNL d   1     -17.493  -3.357   4.083 -0.07 +0.03    +0.052 C 
DOCKED: BRANCH  36  37
DOCKED: ATOM     37  C   UNL d   1     -17.143  -4.754   3.593 -0.12 +0.07    +0.115 C 
DOCKED: BRANCH  37  38
DOCKED: ATOM     38  C   UNL d   1     -17.366  -4.877   2.112 -0.05 +0.13    +0.139 C 
DOCKED: ATOM     39  O   UNL d   1     -17.059  -5.899   1.517 -0.34 -0.87    -0.650 OA
DOCKED: BRANCH  38  40
DOCKED: ATOM     40  O   UNL d   1     -17.907  -3.854   1.428 +0.02 -0.68    -0.776 OA
DOCKED: ATOM     41  H   UNL d   1     -17.888  -2.967   1.815 +0.03 +0.13    +0.167 HD
DOCKED: ENDBRANCH  38  40
DOCKED: ENDBRANCH  37  38
DOCKED: ENDBRANCH  36  37
DOCKED: ENDBRANCH  22  36
DOCKED: BRANCH  12  42
DOCKED: ATOM     42  C   UNL d   1      -7.215   0.950   2.647 -0.41 +0.00    +0.004 C 
DOCKED: ATOM     43  C   UNL d   1      -6.752   2.201   2.522 -0.42 +0.00    +0.012 C 
DOCKED: ENDBRANCH  12  42
DOCKED: BRANCH  17  44
DOCKED: ATOM     44  C   UNL d   1     -11.857  -0.540   8.966 -0.56 +0.00    +0.004 C 
DOCKED: ATOM     45  C   UNL d   1     -13.010  -0.056   9.439 -0.58 +0.00    +0.012 C 
DOCKED: ENDBRANCH  17  44
DOCKED: TORSDOF 10
DOCKED: TER
DOCKED: ENDMDL
________________________________________________________________________________


	BEGINNING GENETIC ALGORITHM DOCKING 30 of 100
Run: 30 Seed: 1442964788 943239864 [ Run 30 of 100 GA/GALS ]
Beginning LAMARCKIAN GENETIC ALGORITHM (LGA), with a maximum of 25000000 energy evaluations.

Final-Value: -9.388


	FINAL GENETIC ALGORITHM DOCKED STATE
	_______________________________________________


Detailed state:  trans 5.752 -12.979 4.011 quatxyzw 0.499181 0.393473 -0.480540 -0.604218 center -0.174 -0.001 -0.047 ntor 10 -144.9191 -144.9506 -167.8093 -165.1541 -95.8154 -10.1498 138.1934 56.5236 -156.3174 9.9874
State:	  5.752 -12.979   4.011   0.626  0.494 -0.603 -105.655   -144.92 -144.95 -167.81 -165.15  -95.82  -10.15  138.19   56.52 -156.32    9.99

DOCKED: MODEL       30
DOCKED: USER    Run = 30
DOCKED: USER    DPF = D:/Protein_go_brrr/autodock/final/AncMH_nat/heme_Fe/dock.dpf
DOCKED: USER  
DOCKED: USER    Estimated Free Energy of Binding    =   -5.67 kcal/mol  [=(1)+(2)+(3)-(4)]
DOCKED: USER    Estimated Inhibition Constant, Ki   =   69.77 uM (micromolar)  [Temperature = 298.15 K]
DOCKED: USER    
DOCKED: USER    (1) Final Intermolecular Energy     =   -8.65 kcal/mol
DOCKED: USER        vdW + Hbond + desolv Energy     =   -7.29 kcal/mol
DOCKED: USER        Electrostatic Energy            =   -1.36 kcal/mol
DOCKED: USER    (2) Final Total Internal Energy     =   -0.73 kcal/mol
DOCKED: USER    (3) Torsional Free Energy           =   +2.98 kcal/mol
DOCKED: USER    (4) Unbound System's Energy  [=(2)] =   -0.73 kcal/mol
DOCKED: USER    
DOCKED: USER    
DOCKED: USER    NEWDPF move heme_Fe_opt.pdbqt
DOCKED: USER    NEWDPF about -0.174000 -0.001000 -0.047000
DOCKED: USER    NEWDPF tran0 5.752238 -12.979211 4.011359
DOCKED: USER    NEWDPF quaternion0 0.499181 0.393473 -0.480540 -0.604218
DOCKED: USER    NEWDPF axisangle0 0.626467 0.493804 -0.603073 -105.654864
DOCKED: USER    NEWDPF quat0 0.626467 0.493804 -0.603073 -105.654864
DOCKED: USER    NEWDPF dihe0 -144.92 -144.95 -167.81 -165.15 -95.82 -10.15 138.19 56.52 -156.32 9.99 
DOCKED: USER  keepresnum = 1 
DOCKED: USER  
DOCKED: REMARK  10 active torsions:
DOCKED: REMARK  status: ('A' for Active; 'I' for Inactive)
DOCKED: REMARK    1  A    between atoms: C_6  and  C_10 
DOCKED: REMARK    2  A    between atoms: C_10  and  C_11 
DOCKED: REMARK    3  A    between atoms: C_11  and  C_12 
DOCKED: REMARK    4  A    between atoms: C_12  and  O_14 
DOCKED: REMARK    5  A    between atoms: C_17  and  C_20 
DOCKED: REMARK    6  A    between atoms: C_24  and  C_27 
DOCKED: REMARK    7  A    between atoms: C_31  and  C_34 
DOCKED: REMARK    8  A    between atoms: C_34  and  C_35 
DOCKED: REMARK    9  A    between atoms: C_35  and  C_36 
DOCKED: REMARK   10  A    between atoms: C_36  and  O_38 
DOCKED: USER                              x       y       z     vdW  Elec       q    Type
DOCKED: USER                           _______ _______ _______ _____ _____    ______ ____
DOCKED: ROOT
DOCKED: ATOM      1  C   UNL d   1       5.240 -13.131   5.993 -0.15 +0.00    +0.064 C 
DOCKED: ATOM      2  C   UNL d   1       2.838 -13.760   1.718 +0.09 +0.02    +0.064 A 
DOCKED: ATOM      3  C   UNL d   1       7.064 -13.864  -0.561 -0.18 +0.00    +0.064 C 
DOCKED: ATOM      4  C   UNL d   1       9.403 -13.151   3.550 -0.12 -0.04    +0.064 C 
DOCKED: ATOM      5  C   UNL d   1       4.168 -13.215   4.990 -0.16 +0.02    +0.066 A 
DOCKED: ATOM      6  C   UNL d   1       2.816 -13.106   5.268 -0.33 -0.01    -0.021 A 
DOCKED: ATOM      7  C   UNL d   1       2.149 -13.284   4.081 -0.34 -0.01    -0.025 A 
DOCKED: ATOM      8  C   UNL d   1       3.122 -13.495   3.123 +0.01 +0.03    +0.066 A 
DOCKED: ATOM      9  C   UNL d   1       0.665 -13.233   3.886 -0.35 +0.03    +0.051 C 
DOCKED: ATOM     10  C   UNL d   1       3.758 -13.909   0.764 -0.18 +0.02    +0.066 A 
DOCKED: ATOM     11  C   UNL d   1       3.459 -14.275  -0.550 -0.25 -0.01    -0.021 A 
DOCKED: ATOM     12  C   UNL d   1       4.663 -14.329  -1.224 -0.20 +0.00    +0.000 A 
DOCKED: ATOM     13  C   UNL d   1       5.645 -13.998  -0.275 -0.16 +0.02    +0.070 A 
DOCKED: ATOM     14  C   UNL d   1       2.099 -14.624  -1.120 -0.29 +0.00    +0.052 C 
DOCKED: ATOM     15  C   UNL d   1       8.020 -13.596   0.360 -0.16 -0.01    +0.066 A 
DOCKED: ATOM     16  C   UNL d   1       9.351 -13.378   0.031 -0.21 +0.00    -0.021 A 
DOCKED: ATOM     17  C   UNL d   1      10.029 -13.176   1.215 -0.21 -0.00    +0.000 A 
DOCKED: ATOM     18  C   UNL d   1       9.093 -13.280   2.242 -0.16 -0.03    +0.070 A 
DOCKED: ATOM     19  C   UNL d   1       9.971 -13.384  -1.341 -0.20 -0.01    +0.052 C 
DOCKED: ATOM     20  C   UNL d   1       8.436 -13.193   4.654 -0.09 -0.04    +0.066 A 
DOCKED: ATOM     21  C   UNL d   1       8.763 -13.263   6.015 -0.12 +0.01    -0.025 A 
DOCKED: ATOM     22  C   UNL d   1       7.562 -13.243   6.694 -0.11 +0.00    -0.021 A 
DOCKED: ATOM     23  C   UNL d   1       6.555 -13.169   5.724 -0.12 -0.01    +0.066 A 
DOCKED: ATOM     24  C   UNL d   1      10.130 -13.347   6.654 -0.09 -0.02    +0.051 C 
DOCKED: ATOM     25  N   UNL d   1       4.350 -13.443   3.678 -0.08 -0.07    -0.248 N 
DOCKED: ATOM     26  N   UNL d   1       5.095 -13.751   0.940 -0.10 -0.05    -0.248 N 
DOCKED: ATOM     27  N   UNL d   1       7.850 -13.495   1.715 -0.08 +0.06    -0.248 N 
DOCKED: ATOM     28  N   UNL d   1       7.092 -13.185   4.480 -0.07 +0.10    -0.248 N 
DOCKED: ATOM     29 FE   UNL d   1       6.096 -13.468   2.710 -0.04 -0.00    +0.000 Fe
DOCKED: ENDROOT
DOCKED: BRANCH   6  30
DOCKED: ATOM     30  C   UNL d   1       2.186 -12.825   6.590 -0.43 +0.01    +0.052 C 
DOCKED: BRANCH  30  31
DOCKED: ATOM     31  C   UNL d   1       2.408 -13.988   7.551 -0.29 +0.03    +0.115 C 
DOCKED: BRANCH  31  32
DOCKED: ATOM     32  C   UNL d   1       2.219 -15.300   6.843 -0.18 +0.12    +0.139 C 
DOCKED: ATOM     33  O   UNL d   1       1.145 -15.885   6.889 +0.05 -0.63    -0.650 OA
DOCKED: BRANCH  32  34
DOCKED: ATOM     34  O   UNL d   1       3.232 -15.844   6.149 -0.23 -1.08    -0.776 OA
DOCKED: ATOM     35  H   UNL d   1       4.137 -15.735   6.475 +0.03 +0.11    +0.167 HD
DOCKED: ENDBRANCH  32  34
DOCKED: ENDBRANCH  31  32
DOCKED: ENDBRANCH  30  31
DOCKED: ENDBRANCH   6  30
DOCKED: BRANCH  22  36
DOCKED: ATOM     36  C   UNL d   1       7.393 -13.339   8.187 -0.08 -0.01    +0.052 C 
DOCKED: BRANCH  36  37
DOCKED: ATOM     37  C   UNL d   1       6.993 -11.982   8.747 -0.10 -0.01    +0.115 C 
DOCKED: BRANCH  37  38
DOCKED: ATOM     38  C   UNL d   1       7.949 -11.538   9.817 -0.06 -0.02    +0.139 C 
DOCKED: ATOM     39  O   UNL d   1       8.786 -12.307  10.267 +0.01 +0.12    -0.650 OA
DOCKED: BRANCH  38  40
DOCKED: ATOM     40  O   UNL d   1       7.887 -10.282  10.293 -0.51 +0.27    -0.776 OA
DOCKED: ATOM     41  H   UNL d   1       7.025  -9.850  10.369 -0.49 -0.28    +0.167 HD
DOCKED: ENDBRANCH  38  40
DOCKED: ENDBRANCH  37  38
DOCKED: ENDBRANCH  36  37
DOCKED: ENDBRANCH  22  36
DOCKED: BRANCH  12  42
DOCKED: ATOM     42  C   UNL d   1       4.821 -14.693  -2.666 -0.15 +0.00    +0.004 C 
DOCKED: ATOM     43  C   UNL d   1       5.560 -15.748  -3.034 -0.11 -0.00    +0.012 C 
DOCKED: ENDBRANCH  12  42
DOCKED: BRANCH  17  44
DOCKED: ATOM     44  C   UNL d   1      11.473 -12.882   1.354 -0.21 -0.00    +0.004 C 
DOCKED: ATOM     45  C   UNL d   1      12.305 -13.778   1.895 -0.09 -0.00    +0.012 C 
DOCKED: ENDBRANCH  17  44
DOCKED: TORSDOF 10
DOCKED: TER
DOCKED: ENDMDL
________________________________________________________________________________


	BEGINNING GENETIC ALGORITHM DOCKING 31 of 100
Run: 31 Seed: 1633332571 915878427 [ Run 31 of 100 GA/GALS ]
Beginning LAMARCKIAN GENETIC ALGORITHM (LGA), with a maximum of 25000000 energy evaluations.

Final-Value: -14.784


	FINAL GENETIC ALGORITHM DOCKED STATE
	_______________________________________________


Detailed state:  trans -14.465 -1.405 3.343 quatxyzw -0.619075 -0.204063 0.069594 -0.755156 center -0.174 -0.001 -0.047 ntor 10 -179.3370 -61.7818 67.6228 -156.8079 -84.3767 97.4411 165.3607 111.0514 -169.1356 -176.4501
State:	-14.465  -1.405   3.343  -0.944 -0.311  0.106 -81.922   -179.34  -61.78   67.62 -156.81  -84.38   97.44  165.36  111.05 -169.14 -176.45

DOCKED: MODEL       31
DOCKED: USER    Run = 31
DOCKED: USER    DPF = D:/Protein_go_brrr/autodock/final/AncMH_nat/heme_Fe/dock.dpf
DOCKED: USER  
DOCKED: USER    Estimated Free Energy of Binding    =   -9.72 kcal/mol  [=(1)+(2)+(3)-(4)]
DOCKED: USER    Estimated Inhibition Constant, Ki   =   74.96 nM (nanomolar)  [Temperature = 298.15 K]
DOCKED: USER    
DOCKED: USER    (1) Final Intermolecular Energy     =  -12.70 kcal/mol
DOCKED: USER        vdW + Hbond + desolv Energy     =   -9.59 kcal/mol
DOCKED: USER        Electrostatic Energy            =   -3.11 kcal/mol
DOCKED: USER    (2) Final Total Internal Energy     =   -2.08 kcal/mol
DOCKED: USER    (3) Torsional Free Energy           =   +2.98 kcal/mol
DOCKED: USER    (4) Unbound System's Energy  [=(2)] =   -2.08 kcal/mol
DOCKED: USER    
DOCKED: USER    
DOCKED: USER    NEWDPF move heme_Fe_opt.pdbqt
DOCKED: USER    NEWDPF about -0.174000 -0.001000 -0.047000
DOCKED: USER    NEWDPF tran0 -14.465482 -1.405339 3.342593
DOCKED: USER    NEWDPF quaternion0 -0.619075 -0.204063 0.069594 -0.755156
DOCKED: USER    NEWDPF axisangle0 -0.944367 -0.311288 0.106163 -81.921953
DOCKED: USER    NEWDPF quat0 -0.944367 -0.311288 0.106163 -81.921953
DOCKED: USER    NEWDPF dihe0 -179.34 -61.78 67.62 -156.81 -84.38 97.44 165.36 111.05 -169.14 -176.45 
DOCKED: USER  keepresnum = 1 
DOCKED: USER  
DOCKED: REMARK  10 active torsions:
DOCKED: REMARK  status: ('A' for Active; 'I' for Inactive)
DOCKED: REMARK    1  A    between atoms: C_6  and  C_10 
DOCKED: REMARK    2  A    between atoms: C_10  and  C_11 
DOCKED: REMARK    3  A    between atoms: C_11  and  C_12 
DOCKED: REMARK    4  A    between atoms: C_12  and  O_14 
DOCKED: REMARK    5  A    between atoms: C_17  and  C_20 
DOCKED: REMARK    6  A    between atoms: C_24  and  C_27 
DOCKED: REMARK    7  A    between atoms: C_31  and  C_34 
DOCKED: REMARK    8  A    between atoms: C_34  and  C_35 
DOCKED: REMARK    9  A    between atoms: C_35  and  C_36 
DOCKED: REMARK   10  A    between atoms: C_36  and  O_38 
DOCKED: USER                              x       y       z     vdW  Elec       q    Type
DOCKED: USER                           _______ _______ _______ _____ _____    ______ ____
DOCKED: ROOT
DOCKED: ATOM      1  C   UNL d   1     -16.481  -1.645   3.040 -0.12 +0.05    +0.064 C 
DOCKED: ATOM      2  C   UNL d   1     -13.582  -1.258   7.025 -0.33 +0.01    +0.064 A 
DOCKED: ATOM      3  C   UNL d   1     -10.044   0.358   4.208 -0.26 +0.02    +0.064 C 
DOCKED: ATOM      4  C   UNL d   1     -12.797  -0.108   0.325 -0.26 +0.07    +0.064 C 
DOCKED: ATOM      5  C   UNL d   1     -15.966  -1.765   4.411 -0.10 +0.04    +0.066 A 
DOCKED: ATOM      6  C   UNL d   1     -16.672  -2.301   5.476 -0.10 -0.01    -0.021 A 
DOCKED: ATOM      7  C   UNL d   1     -15.867  -2.190   6.583 -0.18 -0.01    -0.025 A 
DOCKED: ATOM      8  C   UNL d   1     -14.701  -1.590   6.150 -0.12 +0.02    +0.066 A 
DOCKED: ATOM      9  C   UNL d   1     -16.202  -2.654   7.967 -0.26 +0.01    +0.051 C 
DOCKED: ATOM     10  C   UNL d   1     -12.424  -0.732   6.624 -0.37 +0.01    +0.066 A 
DOCKED: ATOM     11  C   UNL d   1     -11.416  -0.320   7.499 -0.47 -0.00    -0.021 A 
DOCKED: ATOM     12  C   UNL d   1     -10.391   0.166   6.712 -0.46 +0.00    +0.000 A 
DOCKED: ATOM     13  C   UNL d   1     -10.834   0.031   5.385 -0.38 +0.02    +0.070 A 
DOCKED: ATOM     14  C   UNL d   1     -11.456  -0.324   9.013 -0.48 +0.01    +0.052 C 
DOCKED: ATOM     15  C   UNL d   1     -10.484   0.279   2.931 -0.23 +0.03    +0.066 A 
DOCKED: ATOM     16  C   UNL d   1      -9.667   0.505   1.831 -0.35 -0.01    -0.021 A 
DOCKED: ATOM     17  C   UNL d   1     -10.460   0.374   0.709 -0.35 +0.00    +0.000 A 
DOCKED: ATOM     18  C   UNL d   1     -11.746   0.075   1.153 -0.26 +0.05    +0.070 A 
DOCKED: ATOM     19  C   UNL d   1      -8.203   0.854   1.831 -0.42 +0.01    +0.052 C 
DOCKED: ATOM     20  C   UNL d   1     -14.151  -0.484   0.751 -0.20 +0.09    +0.066 A 
DOCKED: ATOM     21  C   UNL d   1     -15.288  -0.481  -0.068 -0.15 -0.04    -0.025 A 
DOCKED: ATOM     22  C   UNL d   1     -16.324  -0.935   0.723 -0.14 -0.03    -0.021 A 
DOCKED: ATOM     23  C   UNL d   1     -15.782  -1.189   1.988 -0.15 +0.07    +0.066 A 
DOCKED: ATOM     24  C   UNL d   1     -15.406  -0.072  -1.518 -0.14 +0.06    +0.051 C 
DOCKED: ATOM     25  N   UNL d   1     -14.760  -1.342   4.827 -0.08 -0.13    -0.248 N 
DOCKED: ATOM     26  N   UNL d   1     -12.077  -0.508   5.331 -0.26 -0.07    -0.248 N 
DOCKED: ATOM     27  N   UNL d   1     -11.753  -0.027   2.516 -0.16 -0.15    -0.248 N 
DOCKED: ATOM     28  N   UNL d   1     -14.465  -0.869   2.012 -0.15 -0.28    -0.248 N 
DOCKED: ATOM     29 FE   UNL d   1     -13.271  -0.688   3.669 -0.06 +0.00    +0.000 Fe
DOCKED: ENDROOT
DOCKED: BRANCH   6  30
DOCKED: ATOM     30  C   UNL d   1     -18.032  -2.909   5.442 -0.09 +0.02    +0.052 C 
DOCKED: BRANCH  30  31
DOCKED: ATOM     31  C   UNL d   1     -19.107  -1.827   5.442 -0.06 +0.07    +0.115 C 
DOCKED: BRANCH  31  32
DOCKED: ATOM     32  C   UNL d   1     -18.517  -0.499   5.830 -0.14 +0.11    +0.139 C 
DOCKED: ATOM     33  O   UNL d   1     -18.386  -0.196   7.007 -0.02 -0.40    -0.650 OA
DOCKED: BRANCH  32  34
DOCKED: ATOM     34  O   UNL d   1     -18.127   0.369   4.881 +0.04 -0.96    -0.776 OA
DOCKED: ATOM     35  H   UNL d   1     -18.241   0.130   3.950 +0.03 +0.23    +0.167 HD
DOCKED: ENDBRANCH  32  34
DOCKED: ENDBRANCH  31  32
DOCKED: ENDBRANCH  30  31
DOCKED: ENDBRANCH   6  30
DOCKED: BRANCH  22  36
DOCKED: ATOM     36  C   UNL d   1     -17.762  -1.069   0.297 -0.07 +0.05    +0.052 C 
DOCKED: BRANCH  36  37
DOCKED: ATOM     37  C   UNL d   1     -18.439   0.294   0.338 -0.06 +0.13    +0.115 C 
DOCKED: BRANCH  37  38
DOCKED: ATOM     38  C   UNL d   1     -18.614   0.766   1.754 -0.13 +0.23    +0.139 C 
DOCKED: ATOM     39  O   UNL d   1     -17.813   1.539   2.259 -0.45 -1.38    -0.650 OA
DOCKED: BRANCH  38  40
DOCKED: ATOM     40  O   UNL d   1     -19.660   0.334   2.481 -0.01 -1.32    -0.776 OA
DOCKED: ATOM     41  H   UNL d   1     -19.494  -0.177   3.285 +0.02 +0.24    +0.167 HD
DOCKED: ENDBRANCH  38  40
DOCKED: ENDBRANCH  37  38
DOCKED: ENDBRANCH  36  37
DOCKED: ENDBRANCH  22  36
DOCKED: BRANCH  12  42
DOCKED: ATOM     42  C   UNL d   1      -9.106   0.728   7.231 -0.48 +0.00    +0.004 C 
DOCKED: ATOM     43  C   UNL d   1      -7.937   0.124   6.977 -0.47 +0.00    +0.012 C 
DOCKED: ENDBRANCH  12  42
DOCKED: BRANCH  17  44
DOCKED: ATOM     44  C   UNL d   1     -10.012   0.506  -0.695 -0.37 +0.00    +0.004 C 
DOCKED: ATOM     45  C   UNL d   1     -10.270   1.616  -1.395 -0.34 +0.00    +0.012 C 
DOCKED: ENDBRANCH  17  44
DOCKED: TORSDOF 10
DOCKED: TER
DOCKED: ENDMDL
________________________________________________________________________________


	BEGINNING GENETIC ALGORITHM DOCKING 32 of 100
Run: 32 Seed: 870856331 856963159 [ Run 32 of 100 GA/GALS ]
Beginning LAMARCKIAN GENETIC ALGORITHM (LGA), with a maximum of 25000000 energy evaluations.

Final-Value: -14.299


	FINAL GENETIC ALGORITHM DOCKED STATE
	_______________________________________________


Detailed state:  trans -14.299 -1.070 2.898 quatxyzw 0.772741 0.025605 0.225701 -0.592685 center -0.174 -0.001 -0.047 ntor 10 -147.2446 -119.2299 175.1454 52.6491 83.6927 -165.5796 126.1106 64.8306 1.4564 137.8469
State:	-14.299  -1.070   2.898   0.959  0.032  0.280 -107.304   -147.24 -119.23  175.15   52.65   83.69 -165.58  126.11   64.83    1.46  137.85

DOCKED: MODEL       32
DOCKED: USER    Run = 32
DOCKED: USER    DPF = D:/Protein_go_brrr/autodock/final/AncMH_nat/heme_Fe/dock.dpf
DOCKED: USER  
DOCKED: USER    Estimated Free Energy of Binding    =   -9.54 kcal/mol  [=(1)+(2)+(3)-(4)]
DOCKED: USER    Estimated Inhibition Constant, Ki   =  100.79 nM (nanomolar)  [Temperature = 298.15 K]
DOCKED: USER    
DOCKED: USER    (1) Final Intermolecular Energy     =  -12.53 kcal/mol
DOCKED: USER        vdW + Hbond + desolv Energy     =   -9.69 kcal/mol
DOCKED: USER        Electrostatic Energy            =   -2.84 kcal/mol
DOCKED: USER    (2) Final Total Internal Energy     =   -1.77 kcal/mol
DOCKED: USER    (3) Torsional Free Energy           =   +2.98 kcal/mol
DOCKED: USER    (4) Unbound System's Energy  [=(2)] =   -1.77 kcal/mol
DOCKED: USER    
DOCKED: USER    
DOCKED: USER    NEWDPF move heme_Fe_opt.pdbqt
DOCKED: USER    NEWDPF about -0.174000 -0.001000 -0.047000
DOCKED: USER    NEWDPF tran0 -14.298539 -1.070408 2.897774
DOCKED: USER    NEWDPF quaternion0 0.772741 0.025605 0.225701 -0.592685
DOCKED: USER    NEWDPF axisangle0 0.959408 0.031791 0.280223 -107.304445
DOCKED: USER    NEWDPF quat0 0.959408 0.031791 0.280223 -107.304445
DOCKED: USER    NEWDPF dihe0 -147.24 -119.23 175.15 52.65 83.69 -165.58 126.11 64.83 1.46 137.85 
DOCKED: USER  keepresnum = 1 
DOCKED: USER  
DOCKED: REMARK  10 active torsions:
DOCKED: REMARK  status: ('A' for Active; 'I' for Inactive)
DOCKED: REMARK    1  A    between atoms: C_6  and  C_10 
DOCKED: REMARK    2  A    between atoms: C_10  and  C_11 
DOCKED: REMARK    3  A    between atoms: C_11  and  C_12 
DOCKED: REMARK    4  A    between atoms: C_12  and  O_14 
DOCKED: REMARK    5  A    between atoms: C_17  and  C_20 
DOCKED: REMARK    6  A    between atoms: C_24  and  C_27 
DOCKED: REMARK    7  A    between atoms: C_31  and  C_34 
DOCKED: REMARK    8  A    between atoms: C_34  and  C_35 
DOCKED: REMARK    9  A    between atoms: C_35  and  C_36 
DOCKED: REMARK   10  A    between atoms: C_36  and  O_38 
DOCKED: USER                              x       y       z     vdW  Elec       q    Type
DOCKED: USER                           _______ _______ _______ _____ _____    ______ ____
DOCKED: ROOT
DOCKED: ATOM      1  C   UNL d   1     -15.860  -2.142   2.108 -0.15 +0.07    +0.064 C 
DOCKED: ATOM      2  C   UNL d   1     -11.900   0.139   0.225 -0.25 +0.05    +0.064 A 
DOCKED: ATOM      3  C   UNL d   1     -10.018   0.365   4.638 -0.21 +0.02    +0.064 C 
DOCKED: ATOM      4  C   UNL d   1     -13.887  -1.748   6.496 -0.36 +0.02    +0.064 C 
DOCKED: ATOM      5  C   UNL d   1     -14.957  -1.446   1.181 -0.18 +0.08    +0.066 A 
DOCKED: ATOM      6  C   UNL d   1     -15.224  -1.215  -0.159 -0.15 -0.03    -0.021 A 
DOCKED: ATOM      7  C   UNL d   1     -14.122  -0.585  -0.682 -0.06 -0.03    -0.025 A 
DOCKED: ATOM      8  C   UNL d   1     -13.224  -0.455   0.360 -0.20 +0.08    +0.066 A 
DOCKED: ATOM      9  C   UNL d   1     -13.959  -0.121  -2.097 -0.17 +0.05    +0.051 C 
DOCKED: ATOM     10  C   UNL d   1     -11.038   0.329   1.225 -0.27 +0.04    +0.066 A 
DOCKED: ATOM     11  C   UNL d   1      -9.734   0.795   1.046 -0.36 -0.01    -0.021 A 
DOCKED: ATOM     12  C   UNL d   1      -9.164   0.853   2.302 -0.35 +0.00    +0.000 A 
DOCKED: ATOM     13  C   UNL d   1     -10.157   0.407   3.191 -0.27 +0.02    +0.070 A 
DOCKED: ATOM     14  C   UNL d   1      -9.041   1.105  -0.266 -0.39 +0.01    +0.052 C 
DOCKED: ATOM     15  C   UNL d   1     -10.952  -0.113   5.493 -0.39 +0.02    +0.066 A 
DOCKED: ATOM     16  C   UNL d   1     -10.822  -0.044   6.875 -0.47 -0.00    -0.021 A 
DOCKED: ATOM     17  C   UNL d   1     -11.935  -0.655   7.413 -0.43 +0.00    +0.000 A 
DOCKED: ATOM     18  C   UNL d   1     -12.718  -1.088   6.345 -0.34 +0.01    +0.070 A 
DOCKED: ATOM     19  C   UNL d   1      -9.684   0.551   7.661 -0.38 +0.01    +0.052 C 
DOCKED: ATOM     20  C   UNL d   1     -14.767  -2.163   5.397 -0.19 +0.03    +0.066 A 
DOCKED: ATOM     21  C   UNL d   1     -15.873  -3.017   5.524 -0.14 -0.01    -0.025 A 
DOCKED: ATOM     22  C   UNL d   1     -16.427  -3.105   4.264 -0.09 -0.01    -0.021 A 
DOCKED: ATOM     23  C   UNL d   1     -15.639  -2.312   3.421 -0.12 +0.05    +0.066 A 
DOCKED: ATOM     24  C   UNL d   1     -16.385  -3.720   6.759 -0.23 +0.02    +0.051 C 
DOCKED: ATOM     25  N   UNL d   1     -13.739  -0.971   1.494 -0.17 -0.28    -0.248 N 
DOCKED: ATOM     26  N   UNL d   1     -11.297   0.079   2.534 -0.16 -0.13    -0.248 N 
DOCKED: ATOM     27  N   UNL d   1     -12.136  -0.716   5.165 -0.24 -0.07    -0.248 N 
DOCKED: ATOM     28  N   UNL d   1     -14.602  -1.776   4.109 -0.11 -0.15    -0.248 N 
DOCKED: ATOM     29 FE   UNL d   1     -12.950  -0.849   3.324 -0.06 +0.00    +0.000 Fe
DOCKED: ENDROOT
DOCKED: BRANCH   6  30
DOCKED: ATOM     30  C   UNL d   1     -16.470  -1.556  -0.902 -0.13 +0.06    +0.052 C 
DOCKED: BRANCH  30  31
DOCKED: ATOM     31  C   UNL d   1     -17.461  -0.398  -0.856 -0.06 +0.12    +0.115 C 
DOCKED: BRANCH  31  32
DOCKED: ATOM     32  C   UNL d   1     -17.716   0.021   0.565 -0.07 +0.18    +0.139 C 
DOCKED: ATOM     33  O   UNL d   1     -16.955   0.791   1.134 -0.35 -1.51    -0.650 OA
DOCKED: BRANCH  32  34
DOCKED: ATOM     34  O   UNL d   1     -18.787  -0.450   1.225 +0.06 -0.81    -0.776 OA
DOCKED: ATOM     35  H   UNL d   1     -19.104  -1.344   1.030 +0.02 +0.13    +0.167 HD
DOCKED: ENDBRANCH  32  34
DOCKED: ENDBRANCH  31  32
DOCKED: ENDBRANCH  30  31
DOCKED: ENDBRANCH   6  30
DOCKED: BRANCH  22  36
DOCKED: ATOM     36  C   UNL d   1     -17.618  -3.945   3.884 -0.09 +0.03    +0.052 C 
DOCKED: BRANCH  36  37
DOCKED: ATOM     37  C   UNL d   1     -17.251  -4.865   2.729 -0.11 +0.09    +0.115 C 
DOCKED: BRANCH  37  38
DOCKED: ATOM     38  C   UNL d   1     -18.053  -4.535   1.502 -0.07 +0.12    +0.139 C 
DOCKED: ATOM     39  O   UNL d   1     -18.099  -5.311   0.558 -0.19 -0.69    -0.650 OA
DOCKED: BRANCH  38  40
DOCKED: ATOM     40  O   UNL d   1     -18.728  -3.374   1.433 +0.05 -0.54    -0.776 OA
DOCKED: ATOM     41  H   UNL d   1     -18.239  -2.542   1.491 +0.03 +0.13    +0.167 HD
DOCKED: ENDBRANCH  38  40
DOCKED: ENDBRANCH  37  38
DOCKED: ENDBRANCH  36  37
DOCKED: ENDBRANCH  22  36
DOCKED: BRANCH  12  42
DOCKED: ATOM     42  C   UNL d   1      -7.762   1.291   2.587 -0.39 +0.00    +0.004 C 
DOCKED: ATOM     43  C   UNL d   1      -6.996   0.624   3.460 -0.40 +0.00    +0.012 C 
DOCKED: ENDBRANCH  12  42
DOCKED: BRANCH  17  44
DOCKED: ATOM     44  C   UNL d   1     -12.239  -0.799   8.854 -0.52 +0.00    +0.004 C 
DOCKED: ATOM     45  C   UNL d   1     -13.193  -0.059   9.429 -0.57 +0.00    +0.012 C 
DOCKED: ENDBRANCH  17  44
DOCKED: TORSDOF 10
DOCKED: TER
DOCKED: ENDMDL
________________________________________________________________________________


	BEGINNING GENETIC ALGORITHM DOCKING 33 of 100
Run: 33 Seed: 1939959713 1597451380 [ Run 33 of 100 GA/GALS ]
Beginning LAMARCKIAN GENETIC ALGORITHM (LGA), with a maximum of 25000000 energy evaluations.

Final-Value: -15.942


	FINAL GENETIC ALGORITHM DOCKED STATE
	_______________________________________________


Detailed state:  trans -12.646 0.045 2.157 quatxyzw 0.763326 -0.179520 0.274488 -0.556563 center -0.174 -0.001 -0.047 ntor 10 -29.0586 -150.8487 80.6171 -4.5245 169.4476 -141.7997 69.8369 -121.3190 17.9886 -30.0489
State:	-12.646   0.045   2.157   0.919 -0.216  0.330 -112.363    -29.06 -150.85   80.62   -4.52  169.45 -141.80   69.84 -121.32   17.99  -30.05

DOCKED: MODEL       33
DOCKED: USER    Run = 33
DOCKED: USER    DPF = D:/Protein_go_brrr/autodock/final/AncMH_nat/heme_Fe/dock.dpf
DOCKED: USER  
DOCKED: USER    Estimated Free Energy of Binding    =  -11.53 kcal/mol  [=(1)+(2)+(3)-(4)]
DOCKED: USER    Estimated Inhibition Constant, Ki   =    3.56 nM (nanomolar)  [Temperature = 298.15 K]
DOCKED: USER    
DOCKED: USER    (1) Final Intermolecular Energy     =  -14.51 kcal/mol
DOCKED: USER        vdW + Hbond + desolv Energy     =  -10.42 kcal/mol
DOCKED: USER        Electrostatic Energy            =   -4.09 kcal/mol
DOCKED: USER    (2) Final Total Internal Energy     =   -1.43 kcal/mol
DOCKED: USER    (3) Torsional Free Energy           =   +2.98 kcal/mol
DOCKED: USER    (4) Unbound System's Energy  [=(2)] =   -1.43 kcal/mol
DOCKED: USER    
DOCKED: USER    
DOCKED: USER    NEWDPF move heme_Fe_opt.pdbqt
DOCKED: USER    NEWDPF about -0.174000 -0.001000 -0.047000
DOCKED: USER    NEWDPF tran0 -12.646296 0.044704 2.157491
DOCKED: USER    NEWDPF quaternion0 0.763326 -0.179520 0.274488 -0.556563
DOCKED: USER    NEWDPF axisangle0 0.918778 -0.216080 0.330388 -112.363094
DOCKED: USER    NEWDPF quat0 0.918778 -0.216080 0.330388 -112.363094
DOCKED: USER    NEWDPF dihe0 -29.06 -150.85 80.62 -4.52 169.45 -141.80 69.84 -121.32 17.99 -30.05 
DOCKED: USER  keepresnum = 1 
DOCKED: USER  
DOCKED: REMARK  10 active torsions:
DOCKED: REMARK  status: ('A' for Active; 'I' for Inactive)
DOCKED: REMARK    1  A    between atoms: C_6  and  C_10 
DOCKED: REMARK    2  A    between atoms: C_10  and  C_11 
DOCKED: REMARK    3  A    between atoms: C_11  and  C_12 
DOCKED: REMARK    4  A    between atoms: C_12  and  O_14 
DOCKED: REMARK    5  A    between atoms: C_17  and  C_20 
DOCKED: REMARK    6  A    between atoms: C_24  and  C_27 
DOCKED: REMARK    7  A    between atoms: C_31  and  C_34 
DOCKED: REMARK    8  A    between atoms: C_34  and  C_35 
DOCKED: REMARK    9  A    between atoms: C_35  and  C_36 
DOCKED: REMARK   10  A    between atoms: C_36  and  O_38 
DOCKED: USER                              x       y       z     vdW  Elec       q    Type
DOCKED: USER                           _______ _______ _______ _____ _____    ______ ____
DOCKED: ROOT
DOCKED: ATOM      1  C   UNL d   1     -14.050  -0.503   0.765 -0.24 +0.09    +0.064 C 
DOCKED: ATOM      2  C   UNL d   1      -9.299   0.846   0.572 -0.37 +0.02    +0.064 A 
DOCKED: ATOM      3  C   UNL d   1      -8.979   0.144   5.313 -0.14 +0.02    +0.064 C 
DOCKED: ATOM      4  C   UNL d   1     -13.602  -1.064   5.538 -0.16 +0.02    +0.064 C 
DOCKED: ATOM      5  C   UNL d   1     -12.765   0.022   0.284 -0.22 +0.07    +0.066 A 
DOCKED: ATOM      6  C   UNL d   1     -12.518   0.444  -1.012 -0.22 -0.02    -0.021 A 
DOCKED: ATOM      7  C   UNL d   1     -11.197   0.815  -1.065 -0.28 -0.01    -0.025 A 
DOCKED: ATOM      8  C   UNL d   1     -10.688   0.605   0.202 -0.29 +0.03    +0.066 A 
DOCKED: ATOM      9  C   UNL d   1     -10.480   1.356  -2.264 -0.32 +0.01    +0.051 C 
DOCKED: ATOM     10  C   UNL d   1      -8.797   0.707   1.800 -0.35 +0.01    +0.066 A 
DOCKED: ATOM     11  C   UNL d   1      -7.438   0.834   2.100 -0.35 -0.00    -0.021 A 
DOCKED: ATOM     12  C   UNL d   1      -7.317   0.620   3.459 -0.36 +0.00    +0.000 A 
DOCKED: ATOM     13  C   UNL d   1      -8.620   0.362   3.920 -0.16 +0.02    +0.070 A 
DOCKED: ATOM     14  C   UNL d   1      -6.302   1.080   1.129 -0.22 +0.00    +0.052 C 
DOCKED: ATOM     15  C   UNL d   1     -10.223  -0.156   5.755 -0.37 +0.02    +0.066 A 
DOCKED: ATOM     16  C   UNL d   1     -10.545  -0.259   7.102 -0.29 -0.00    -0.021 A 
DOCKED: ATOM     17  C   UNL d   1     -11.877  -0.610   7.170 -0.42 +0.00    +0.000 A 
DOCKED: ATOM     18  C   UNL d   1     -12.336  -0.718   5.859 -0.35 +0.02    +0.070 A 
DOCKED: ATOM     19  C   UNL d   1      -9.632  -0.059   8.282 -0.38 +0.01    +0.052 C 
DOCKED: ATOM     20  C   UNL d   1     -14.138  -1.128   4.173 -0.15 +0.04    +0.066 A 
DOCKED: ATOM     21  C   UNL d   1     -15.378  -1.674   3.814 -0.15 -0.02    -0.025 A 
DOCKED: ATOM     22  C   UNL d   1     -15.491  -1.492   2.451 -0.17 -0.02    -0.021 A 
DOCKED: ATOM     23  C   UNL d   1     -14.318  -0.852   2.033 -0.23 +0.07    +0.066 A 
DOCKED: ATOM     24  C   UNL d   1     -16.408  -2.337   4.699 -0.11 +0.03    +0.051 C 
DOCKED: ATOM     25  N   UNL d   1     -11.647   0.132   1.023 -0.16 -0.18    -0.248 N 
DOCKED: ATOM     26  N   UNL d   1      -9.521   0.406   2.908 -0.21 -0.08    -0.248 N 
DOCKED: ATOM     27  N   UNL d   1     -11.332  -0.397   4.989 -0.22 -0.07    -0.248 N 
DOCKED: ATOM     28  N   UNL d   1     -13.477  -0.673   3.081 -0.17 -0.19    -0.248 N 
DOCKED: ATOM     29 FE   UNL d   1     -11.500  -0.134   2.996 -0.07 +0.00    +0.000 Fe
DOCKED: ENDROOT
DOCKED: BRANCH   6  30
DOCKED: ATOM     30  C   UNL d   1     -13.491   0.512  -2.139 -0.17 +0.05    +0.052 C 
DOCKED: BRANCH  30  31
DOCKED: ATOM     31  C   UNL d   1     -13.861   1.959  -2.446 -0.09 +0.11    +0.115 C 
DOCKED: BRANCH  31  32
DOCKED: ATOM     32  C   UNL d   1     -15.284   2.234  -2.047 +0.19 +0.22    +0.139 C 
DOCKED: ATOM     33  O   UNL d   1     -15.716   3.378  -2.029 -0.45 -1.02    -0.650 OA
DOCKED: BRANCH  32  34
DOCKED: ATOM     34  O   UNL d   1     -16.097   1.221  -1.703 +0.01 -1.17    -0.776 OA
DOCKED: ATOM     35  H   UNL d   1     -16.813   1.386  -1.074 +0.01 +0.30    +0.167 HD
DOCKED: ENDBRANCH  32  34
DOCKED: ENDBRANCH  31  32
DOCKED: ENDBRANCH  30  31
DOCKED: ENDBRANCH   6  30
DOCKED: BRANCH  22  36
DOCKED: ATOM     36  C   UNL d   1     -16.640  -1.953   1.594 -0.12 +0.05    +0.052 C 
DOCKED: BRANCH  36  37
DOCKED: ATOM     37  C   UNL d   1     -17.895  -1.172   1.956 -0.06 +0.11    +0.115 C 
DOCKED: BRANCH  37  38
DOCKED: ATOM     38  C   UNL d   1     -17.679   0.305   1.786 -0.13 +0.21    +0.139 C 
DOCKED: ATOM     39  O   UNL d   1     -18.162   1.102   2.576 -0.36 -1.30    -0.650 OA
DOCKED: BRANCH  38  40
DOCKED: ATOM     40  O   UNL d   1     -16.949   0.762   0.753 -0.34 -1.83    -0.776 OA
DOCKED: ATOM     41  H   UNL d   1     -16.923   0.250  -0.067 +0.02 +0.28    +0.167 HD
DOCKED: ENDBRANCH  38  40
DOCKED: ENDBRANCH  37  38
DOCKED: ENDBRANCH  36  37
DOCKED: ENDBRANCH  22  36
DOCKED: BRANCH  12  42
DOCKED: ATOM     42  C   UNL d   1      -6.029   0.649   4.219 -0.34 +0.00    +0.004 C 
DOCKED: ATOM     43  C   UNL d   1      -5.897   1.397   5.322 -0.34 +0.00    +0.012 C 
DOCKED: ENDBRANCH  12  42
DOCKED: BRANCH  17  44
DOCKED: ATOM     44  C   UNL d   1     -12.664  -0.810   8.408 -0.58 +0.00    +0.004 C 
DOCKED: ATOM     45  C   UNL d   1     -12.646   0.102   9.385 -0.55 +0.00    +0.012 C 
DOCKED: ENDBRANCH  17  44
DOCKED: TORSDOF 10
DOCKED: TER
DOCKED: ENDMDL
________________________________________________________________________________


	BEGINNING GENETIC ALGORITHM DOCKING 34 of 100
Run: 34 Seed: 571333616 1834943609 [ Run 34 of 100 GA/GALS ]
Beginning LAMARCKIAN GENETIC ALGORITHM (LGA), with a maximum of 25000000 energy evaluations.

Final-Value: -15.595


	FINAL GENETIC ALGORITHM DOCKED STATE
	_______________________________________________


Detailed state:  trans -14.343 -1.403 3.443 quatxyzw -0.618328 -0.190808 0.081206 -0.758069 center -0.174 -0.001 -0.047 ntor 10 -21.2718 -72.1671 59.6923 -165.6886 90.5450 91.7910 -104.5492 103.8845 177.7568 -164.6104
State:	-14.343  -1.403   3.443  -0.948 -0.293  0.125 -81.412    -21.27  -72.17   59.69 -165.69   90.54   91.79 -104.55  103.88  177.76 -164.61

DOCKED: MODEL       34
DOCKED: USER    Run = 34
DOCKED: USER    DPF = D:/Protein_go_brrr/autodock/final/AncMH_nat/heme_Fe/dock.dpf
DOCKED: USER  
DOCKED: USER    Estimated Free Energy of Binding    =   -9.98 kcal/mol  [=(1)+(2)+(3)-(4)]
DOCKED: USER    Estimated Inhibition Constant, Ki   =   48.16 nM (nanomolar)  [Temperature = 298.15 K]
DOCKED: USER    
DOCKED: USER    (1) Final Intermolecular Energy     =  -12.97 kcal/mol
DOCKED: USER        vdW + Hbond + desolv Energy     =   -9.53 kcal/mol
DOCKED: USER        Electrostatic Energy            =   -3.44 kcal/mol
DOCKED: USER    (2) Final Total Internal Energy     =   -2.63 kcal/mol
DOCKED: USER    (3) Torsional Free Energy           =   +2.98 kcal/mol
DOCKED: USER    (4) Unbound System's Energy  [=(2)] =   -2.63 kcal/mol
DOCKED: USER    
DOCKED: USER    
DOCKED: USER    NEWDPF move heme_Fe_opt.pdbqt
DOCKED: USER    NEWDPF about -0.174000 -0.001000 -0.047000
DOCKED: USER    NEWDPF tran0 -14.343050 -1.402582 3.442989
DOCKED: USER    NEWDPF quaternion0 -0.618328 -0.190808 0.081206 -0.758069
DOCKED: USER    NEWDPF axisangle0 -0.948102 -0.292572 0.124515 -81.411540
DOCKED: USER    NEWDPF quat0 -0.948102 -0.292572 0.124515 -81.411540
DOCKED: USER    NEWDPF dihe0 -21.27 -72.17 59.69 -165.69 90.54 91.79 -104.55 103.88 177.76 -164.61 
DOCKED: USER  keepresnum = 1 
DOCKED: USER  
DOCKED: REMARK  10 active torsions:
DOCKED: REMARK  status: ('A' for Active; 'I' for Inactive)
DOCKED: REMARK    1  A    between atoms: C_6  and  C_10 
DOCKED: REMARK    2  A    between atoms: C_10  and  C_11 
DOCKED: REMARK    3  A    between atoms: C_11  and  C_12 
DOCKED: REMARK    4  A    between atoms: C_12  and  O_14 
DOCKED: REMARK    5  A    between atoms: C_17  and  C_20 
DOCKED: REMARK    6  A    between atoms: C_24  and  C_27 
DOCKED: REMARK    7  A    between atoms: C_31  and  C_34 
DOCKED: REMARK    8  A    between atoms: C_34  and  C_35 
DOCKED: REMARK    9  A    between atoms: C_35  and  C_36 
DOCKED: REMARK   10  A    between atoms: C_36  and  O_38 
DOCKED: USER                              x       y       z     vdW  Elec       q    Type
DOCKED: USER                           _______ _______ _______ _____ _____    ______ ____
DOCKED: ROOT
DOCKED: ATOM      1  C   UNL d   1     -16.368  -1.645   3.212 -0.12 +0.05    +0.064 C 
DOCKED: ATOM      2  C   UNL d   1     -13.329  -1.248   7.091 -0.36 +0.01    +0.064 A 
DOCKED: ATOM      3  C   UNL d   1      -9.895   0.367   4.147 -0.23 +0.02    +0.064 C 
DOCKED: ATOM      4  C   UNL d   1     -12.785  -0.109   0.365 -0.26 +0.07    +0.064 C 
DOCKED: ATOM      5  C   UNL d   1     -15.805  -1.762   4.565 -0.11 +0.04    +0.066 A 
DOCKED: ATOM      6  C   UNL d   1     -16.471  -2.297   5.655 -0.12 -0.01    -0.021 A 
DOCKED: ATOM      7  C   UNL d   1     -15.628  -2.183   6.732 -0.20 -0.01    -0.025 A 
DOCKED: ATOM      8  C   UNL d   1     -14.478  -1.582   6.258 -0.17 +0.02    +0.066 A 
DOCKED: ATOM      9  C   UNL d   1     -15.912  -2.645   8.129 -0.29 +0.01    +0.051 C 
DOCKED: ATOM     10  C   UNL d   1     -12.186  -0.721   6.648 -0.36 +0.01    +0.066 A 
DOCKED: ATOM     11  C   UNL d   1     -11.149  -0.306   7.486 -0.42 -0.00    -0.021 A 
DOCKED: ATOM     12  C   UNL d   1     -10.153   0.179   6.662 -0.45 +0.00    +0.000 A 
DOCKED: ATOM     13  C   UNL d   1     -10.643   0.041   5.352 -0.37 +0.02    +0.070 A 
DOCKED: ATOM     14  C   UNL d   1     -11.134  -0.308   9.001 -0.43 +0.01    +0.052 C 
DOCKED: ATOM     15  C   UNL d   1     -10.381   0.285   2.886 -0.24 +0.02    +0.066 A 
DOCKED: ATOM     16  C   UNL d   1      -9.604   0.509   1.757 -0.36 -0.01    -0.021 A 
DOCKED: ATOM     17  C   UNL d   1     -10.436   0.376   0.665 -0.36 +0.00    +0.000 A 
DOCKED: ATOM     18  C   UNL d   1     -11.705   0.077   1.155 -0.26 +0.05    +0.070 A 
DOCKED: ATOM     19  C   UNL d   1      -8.141   0.861   1.705 -0.43 +0.01    +0.052 C 
DOCKED: ATOM     20  C   UNL d   1     -14.122  -0.486   0.841 -0.20 +0.09    +0.066 A 
DOCKED: ATOM     21  C   UNL d   1     -15.288  -0.486   0.062 -0.14 -0.04    -0.025 A 
DOCKED: ATOM     22  C   UNL d   1     -16.294  -0.939   0.890 -0.14 -0.03    -0.021 A 
DOCKED: ATOM     23  C   UNL d   1     -15.707  -1.190   2.136 -0.15 +0.07    +0.066 A 
DOCKED: ATOM     24  C   UNL d   1     -15.458  -0.079  -1.383 -0.14 +0.07    +0.051 C 
DOCKED: ATOM     25  N   UNL d   1     -14.585  -1.336   4.937 -0.09 -0.12    -0.248 N 
DOCKED: ATOM     26  N   UNL d   1     -11.886  -0.499   5.343 -0.27 -0.07    -0.248 N 
DOCKED: ATOM     27  N   UNL d   1     -11.663  -0.023   2.518 -0.16 -0.15    -0.248 N 
DOCKED: ATOM     28  N   UNL d   1     -14.390  -0.869   2.112 -0.15 -0.28    -0.248 N 
DOCKED: ATOM     29 FE   UNL d   1     -13.138  -0.684   3.726 -0.06 +0.00    +0.000 Fe
DOCKED: ENDROOT
DOCKED: BRANCH   6  30
DOCKED: ATOM     30  C   UNL d   1     -17.831  -2.906   5.671 -0.10 +0.02    +0.052 C 
DOCKED: BRANCH  30  31
DOCKED: ATOM     31  C   UNL d   1     -18.885  -1.864   6.030 -0.07 +0.06    +0.115 C 
DOCKED: BRANCH  31  32
DOCKED: ATOM     32  C   UNL d   1     -19.147  -0.956   4.860 -0.09 +0.12    +0.139 C 
DOCKED: ATOM     33  O   UNL d   1     -20.018  -1.226   4.045 +0.01 -0.57    -0.650 OA
DOCKED: BRANCH  32  34
DOCKED: ATOM     34  O   UNL d   1     -18.423   0.164   4.699 +0.05 -0.99    -0.776 OA
DOCKED: ATOM     35  H   UNL d   1     -18.371   0.568   3.821 +0.02 +0.28    +0.167 HD
DOCKED: ENDBRANCH  32  34
DOCKED: ENDBRANCH  31  32
DOCKED: ENDBRANCH  30  31
DOCKED: ENDBRANCH   6  30
DOCKED: BRANCH  22  36
DOCKED: ATOM     36  C   UNL d   1     -17.747  -1.075   0.516 -0.07 +0.05    +0.052 C 
DOCKED: BRANCH  36  37
DOCKED: ATOM     37  C   UNL d   1     -18.351   0.304   0.293 -0.06 +0.14    +0.115 C 
DOCKED: BRANCH  37  38
DOCKED: ATOM     38  C   UNL d   1     -18.630   0.988   1.601 -0.11 +0.24    +0.139 C 
DOCKED: ATOM     39  O   UNL d   1     -17.796   1.717   2.117 -0.44 -1.42    -0.650 OA
DOCKED: BRANCH  38  40
DOCKED: ATOM     40  O   UNL d   1     -19.810   0.797   2.219 +0.02 -1.56    -0.776 OA
DOCKED: ATOM     41  H   UNL d   1     -19.838   0.255   3.020 +0.01 +0.31    +0.167 HD
DOCKED: ENDBRANCH  38  40
DOCKED: ENDBRANCH  37  38
DOCKED: ENDBRANCH  36  37
DOCKED: ENDBRANCH  22  36
DOCKED: BRANCH  12  42
DOCKED: ATOM     42  C   UNL d   1      -8.850   0.743   7.134 -0.48 +0.00    +0.004 C 
DOCKED: ATOM     43  C   UNL d   1      -7.707   0.062   6.977 -0.47 +0.00    +0.012 C 
DOCKED: ENDBRANCH  12  42
DOCKED: BRANCH  17  44
DOCKED: ATOM     44  C   UNL d   1     -10.038   0.506  -0.755 -0.36 +0.00    +0.004 C 
DOCKED: ATOM     45  C   UNL d   1     -10.472   1.530  -1.496 -0.34 +0.00    +0.012 C 
DOCKED: ENDBRANCH  17  44
DOCKED: TORSDOF 10
DOCKED: TER
DOCKED: ENDMDL
________________________________________________________________________________


	BEGINNING GENETIC ALGORITHM DOCKING 35 of 100
Run: 35 Seed: 1853964780 2050472867 [ Run 35 of 100 GA/GALS ]
Beginning LAMARCKIAN GENETIC ALGORITHM (LGA), with a maximum of 25000000 energy evaluations.

Final-Value: -15.144


	FINAL GENETIC ALGORITHM DOCKED STATE
	_______________________________________________


Detailed state:  trans -14.362 -1.367 3.599 quatxyzw 0.623343 0.172317 -0.090100 0.757385 center -0.174 -0.001 -0.047 ntor 10 58.6882 128.5976 53.5545 -160.7972 -167.3924 147.9422 -83.0694 116.3394 -180.0000 -161.3425
State:	-14.362  -1.367   3.599   0.955  0.264 -0.138 81.532     58.69  128.60   53.55 -160.80 -167.39  147.94  -83.07  116.34 -180.00 -161.34

DOCKED: MODEL       35
DOCKED: USER    Run = 35
DOCKED: USER    DPF = D:/Protein_go_brrr/autodock/final/AncMH_nat/heme_Fe/dock.dpf
DOCKED: USER  
DOCKED: USER    Estimated Free Energy of Binding    =  -10.02 kcal/mol  [=(1)+(2)+(3)-(4)]
DOCKED: USER    Estimated Inhibition Constant, Ki   =   44.95 nM (nanomolar)  [Temperature = 298.15 K]
DOCKED: USER    
DOCKED: USER    (1) Final Intermolecular Energy     =  -13.01 kcal/mol
DOCKED: USER        vdW + Hbond + desolv Energy     =   -9.70 kcal/mol
DOCKED: USER        Electrostatic Energy            =   -3.30 kcal/mol
DOCKED: USER    (2) Final Total Internal Energy     =   -2.14 kcal/mol
DOCKED: USER    (3) Torsional Free Energy           =   +2.98 kcal/mol
DOCKED: USER    (4) Unbound System's Energy  [=(2)] =   -2.14 kcal/mol
DOCKED: USER    
DOCKED: USER    
DOCKED: USER    NEWDPF move heme_Fe_opt.pdbqt
DOCKED: USER    NEWDPF about -0.174000 -0.001000 -0.047000
DOCKED: USER    NEWDPF tran0 -14.362308 -1.367059 3.598720
DOCKED: USER    NEWDPF quaternion0 0.623343 0.172317 -0.090100 0.757385
DOCKED: USER    NEWDPF axisangle0 0.954630 0.263898 -0.137986 81.531621
DOCKED: USER    NEWDPF quat0 0.954630 0.263898 -0.137986 81.531621
DOCKED: USER    NEWDPF dihe0 58.69 128.60 53.55 -160.80 -167.39 147.94 -83.07 116.34 -180.00 -161.34 
DOCKED: USER  keepresnum = 1 
DOCKED: USER  
DOCKED: REMARK  10 active torsions:
DOCKED: REMARK  status: ('A' for Active; 'I' for Inactive)
DOCKED: REMARK    1  A    between atoms: C_6  and  C_10 
DOCKED: REMARK    2  A    between atoms: C_10  and  C_11 
DOCKED: REMARK    3  A    between atoms: C_11  and  C_12 
DOCKED: REMARK    4  A    between atoms: C_12  and  O_14 
DOCKED: REMARK    5  A    between atoms: C_17  and  C_20 
DOCKED: REMARK    6  A    between atoms: C_24  and  C_27 
DOCKED: REMARK    7  A    between atoms: C_31  and  C_34 
DOCKED: REMARK    8  A    between atoms: C_34  and  C_35 
DOCKED: REMARK    9  A    between atoms: C_35  and  C_36 
DOCKED: REMARK   10  A    between atoms: C_36  and  O_38 
DOCKED: USER                              x       y       z     vdW  Elec       q    Type
DOCKED: USER                           _______ _______ _______ _____ _____    ______ ____
DOCKED: ROOT
DOCKED: ATOM      1  C   UNL d   1     -16.397  -1.589   3.449 -0.12 +0.05    +0.064 C 
DOCKED: ATOM      2  C   UNL d   1     -13.209  -1.171   7.203 -0.38 +0.01    +0.064 A 
DOCKED: ATOM      3  C   UNL d   1      -9.872   0.361   4.107 -0.23 +0.02    +0.064 C 
DOCKED: ATOM      4  C   UNL d   1     -12.909  -0.137   0.445 -0.26 +0.07    +0.064 C 
DOCKED: ATOM      5  C   UNL d   1     -15.784  -1.693   4.780 -0.09 +0.04    +0.066 A 
DOCKED: ATOM      6  C   UNL d   1     -16.414  -2.204   5.903 -0.12 -0.01    -0.021 A 
DOCKED: ATOM      7  C   UNL d   1     -15.529  -2.084   6.946 -0.22 -0.01    -0.025 A 
DOCKED: ATOM      8  C   UNL d   1     -14.392  -1.504   6.419 -0.18 +0.02    +0.066 A 
DOCKED: ATOM      9  C   UNL d   1     -15.765  -2.522   8.359 -0.30 +0.01    +0.051 C 
DOCKED: ATOM     10  C   UNL d   1     -12.078  -0.664   6.709 -0.36 +0.01    +0.066 A 
DOCKED: ATOM     11  C   UNL d   1     -11.005  -0.248   7.500 -0.42 -0.00    -0.021 A 
DOCKED: ATOM     12  C   UNL d   1     -10.035   0.214   6.632 -0.45 +0.00    +0.000 A 
DOCKED: ATOM     13  C   UNL d   1     -10.577   0.062   5.344 -0.37 +0.02    +0.070 A 
DOCKED: ATOM     14  C   UNL d   1     -10.932  -0.228   9.014 -0.39 +0.01    +0.052 C 
DOCKED: ATOM     15  C   UNL d   1     -10.406   0.266   2.867 -0.23 +0.02    +0.066 A 
DOCKED: ATOM     16  C   UNL d   1      -9.670   0.465   1.706 -0.36 -0.01    -0.021 A 
DOCKED: ATOM     17  C   UNL d   1     -10.545   0.326   0.649 -0.35 +0.00    +0.000 A 
DOCKED: ATOM     18  C   UNL d   1     -11.797   0.048   1.191 -0.26 +0.05    +0.070 A 
DOCKED: ATOM     19  C   UNL d   1      -8.207   0.799   1.593 -0.44 +0.01    +0.052 C 
DOCKED: ATOM     20  C   UNL d   1     -14.230  -0.491   0.976 -0.20 +0.09    +0.066 A 
DOCKED: ATOM     21  C   UNL d   1     -15.425  -0.489   0.243 -0.13 -0.04    -0.025 A 
DOCKED: ATOM     22  C   UNL d   1     -16.404  -0.918   1.115 -0.13 -0.03    -0.021 A 
DOCKED: ATOM     23  C   UNL d   1     -15.773  -1.158   2.341 -0.15 +0.07    +0.066 A 
DOCKED: ATOM     24  C   UNL d   1     -15.645  -0.101  -1.201 -0.14 +0.07    +0.051 C 
DOCKED: ATOM     25  N   UNL d   1     -14.546  -1.276   5.099 -0.03 -0.11    -0.248 N 
DOCKED: ATOM     26  N   UNL d   1     -11.825  -0.464   5.390 -0.27 -0.06    -0.248 N 
DOCKED: ATOM     27  N   UNL d   1     -11.705  -0.032   2.552 -0.16 -0.15    -0.248 N 
DOCKED: ATOM     28  N   UNL d   1     -14.454  -0.852   2.263 -0.15 -0.27    -0.248 N 
DOCKED: ATOM     29 FE   UNL d   1     -13.140  -0.658   3.825 -0.07 +0.00    +0.000 Fe
DOCKED: ENDROOT
DOCKED: BRANCH   6  30
DOCKED: ATOM     30  C   UNL d   1     -17.779  -2.797   5.979 -0.11 +0.02    +0.052 C 
DOCKED: BRANCH  30  31
DOCKED: ATOM     31  C   UNL d   1     -18.815  -1.727   6.308 -0.07 +0.06    +0.115 C 
DOCKED: BRANCH  31  32
DOCKED: ATOM     32  C   UNL d   1     -19.478  -1.234   5.052 -0.07 +0.11    +0.139 C 
DOCKED: ATOM     33  O   UNL d   1     -20.168  -0.224   5.067 -0.05 -0.82    -0.650 OA
DOCKED: BRANCH  32  34
DOCKED: ATOM     34  O   UNL d   1     -19.316  -1.901   3.897 +0.07 -0.54    -0.776 OA
DOCKED: ATOM     35  H   UNL d   1     -18.932  -1.439   3.138 +0.03 +0.14    +0.167 HD
DOCKED: ENDBRANCH  32  34
DOCKED: ENDBRANCH  31  32
DOCKED: ENDBRANCH  30  31
DOCKED: ENDBRANCH   6  30
DOCKED: BRANCH  22  36
DOCKED: ATOM     36  C   UNL d   1     -17.871  -1.043   0.799 -0.07 +0.05    +0.052 C 
DOCKED: BRANCH  36  37
DOCKED: ATOM     37  C   UNL d   1     -18.450   0.332   0.498 -0.07 +0.14    +0.115 C 
DOCKED: BRANCH  37  38
DOCKED: ATOM     38  C   UNL d   1     -18.390   1.218   1.710 -0.12 +0.26    +0.139 C 
DOCKED: ATOM     39  O   UNL d   1     -18.235   2.425   1.594 -0.55 -1.44    -0.650 OA
DOCKED: BRANCH  38  40
DOCKED: ATOM     40  O   UNL d   1     -18.503   0.684   2.939 -0.12 -1.44    -0.776 OA
DOCKED: ATOM     41  H   UNL d   1     -19.250   0.100   3.130 +0.02 +0.27    +0.167 HD
DOCKED: ENDBRANCH  38  40
DOCKED: ENDBRANCH  37  38
DOCKED: ENDBRANCH  36  37
DOCKED: ENDBRANCH  22  36
DOCKED: BRANCH  12  42
DOCKED: ATOM     42  C   UNL d   1      -8.710   0.769   7.046 -0.47 +0.00    +0.004 C 
DOCKED: ATOM     43  C   UNL d   1      -7.597   0.027   6.969 -0.47 +0.00    +0.012 C 
DOCKED: ENDBRANCH  12  42
DOCKED: BRANCH  17  44
DOCKED: ATOM     44  C   UNL d   1     -10.200   0.430  -0.787 -0.37 +0.00    +0.004 C 
DOCKED: ATOM     45  C   UNL d   1     -10.568   1.497  -1.504 -0.34 +0.00    +0.012 C 
DOCKED: ENDBRANCH  17  44
DOCKED: TORSDOF 10
DOCKED: TER
DOCKED: ENDMDL
________________________________________________________________________________


	BEGINNING GENETIC ALGORITHM DOCKING 36 of 100
Run: 36 Seed: 2053315534 418504395 [ Run 36 of 100 GA/GALS ]
Beginning LAMARCKIAN GENETIC ALGORITHM (LGA), with a maximum of 25000000 energy evaluations.

Final-Value: -14.376


	FINAL GENETIC ALGORITHM DOCKED STATE
	_______________________________________________


Detailed state:  trans -14.213 -0.980 2.963 quatxyzw -0.770843 -0.016433 -0.218401 0.598190 center -0.174 -0.001 -0.047 ntor 10 -140.5134 118.5175 176.3762 60.0296 -115.0356 157.1332 -129.6055 75.4551 -41.6002 179.9643
State:	-14.213  -0.980   2.963  -0.962 -0.021 -0.273 106.519   -140.51  118.52  176.38   60.03 -115.04  157.13 -129.61   75.46  -41.60  179.96

DOCKED: MODEL       36
DOCKED: USER    Run = 36
DOCKED: USER    DPF = D:/Protein_go_brrr/autodock/final/AncMH_nat/heme_Fe/dock.dpf
DOCKED: USER  
DOCKED: USER    Estimated Free Energy of Binding    =  -10.67 kcal/mol  [=(1)+(2)+(3)-(4)]
DOCKED: USER    Estimated Inhibition Constant, Ki   =   15.03 nM (nanomolar)  [Temperature = 298.15 K]
DOCKED: USER    
DOCKED: USER    (1) Final Intermolecular Energy     =  -13.66 kcal/mol
DOCKED: USER        vdW + Hbond + desolv Energy     =  -10.24 kcal/mol
DOCKED: USER        Electrostatic Energy            =   -3.42 kcal/mol
DOCKED: USER    (2) Final Total Internal Energy     =   -0.72 kcal/mol
DOCKED: USER    (3) Torsional Free Energy           =   +2.98 kcal/mol
DOCKED: USER    (4) Unbound System's Energy  [=(2)] =   -0.72 kcal/mol
DOCKED: USER    
DOCKED: USER    
DOCKED: USER    NEWDPF move heme_Fe_opt.pdbqt
DOCKED: USER    NEWDPF about -0.174000 -0.001000 -0.047000
DOCKED: USER    NEWDPF tran0 -14.212879 -0.979530 2.962827
DOCKED: USER    NEWDPF quaternion0 -0.770843 -0.016433 -0.218401 0.598190
DOCKED: USER    NEWDPF axisangle0 -0.961926 -0.020506 -0.272539 106.519214
DOCKED: USER    NEWDPF quat0 -0.961926 -0.020506 -0.272539 106.519214
DOCKED: USER    NEWDPF dihe0 -140.51 118.52 176.38 60.03 -115.04 157.13 -129.61 75.46 -41.60 179.96 
DOCKED: USER  keepresnum = 1 
DOCKED: USER  
DOCKED: REMARK  10 active torsions:
DOCKED: REMARK  status: ('A' for Active; 'I' for Inactive)
DOCKED: REMARK    1  A    between atoms: C_6  and  C_10 
DOCKED: REMARK    2  A    between atoms: C_10  and  C_11 
DOCKED: REMARK    3  A    between atoms: C_11  and  C_12 
DOCKED: REMARK    4  A    between atoms: C_12  and  O_14 
DOCKED: REMARK    5  A    between atoms: C_17  and  C_20 
DOCKED: REMARK    6  A    between atoms: C_24  and  C_27 
DOCKED: REMARK    7  A    between atoms: C_31  and  C_34 
DOCKED: REMARK    8  A    between atoms: C_34  and  C_35 
DOCKED: REMARK    9  A    between atoms: C_35  and  C_36 
DOCKED: REMARK   10  A    between atoms: C_36  and  O_38 
DOCKED: USER                              x       y       z     vdW  Elec       q    Type
DOCKED: USER                           _______ _______ _______ _____ _____    ______ ____
DOCKED: ROOT
DOCKED: ATOM      1  C   UNL d   1     -15.800  -2.017   2.179 -0.16 +0.06    +0.064 C 
DOCKED: ATOM      2  C   UNL d   1     -11.783   0.151   0.284 -0.25 +0.05    +0.064 A 
DOCKED: ATOM      3  C   UNL d   1      -9.898   0.359   4.696 -0.15 +0.02    +0.064 C 
DOCKED: ATOM      4  C   UNL d   1     -13.821  -1.642   6.566 -0.36 +0.01    +0.064 C 
DOCKED: ATOM      5  C   UNL d   1     -14.880  -1.351   1.248 -0.19 +0.08    +0.066 A 
DOCKED: ATOM      6  C   UNL d   1     -15.140  -1.123  -0.093 -0.15 -0.03    -0.021 A 
DOCKED: ATOM      7  C   UNL d   1     -14.022  -0.524  -0.620 -0.10 -0.03    -0.025 A 
DOCKED: ATOM      8  C   UNL d   1     -13.122  -0.409   0.422 -0.21 +0.08    +0.066 A 
DOCKED: ATOM      9  C   UNL d   1     -13.847  -0.074  -2.038 -0.18 +0.05    +0.051 C 
DOCKED: ATOM     10  C   UNL d   1     -10.917   0.325   1.283 -0.28 +0.03    +0.066 A 
DOCKED: ATOM     11  C   UNL d   1      -9.601   0.757   1.101 -0.37 -0.01    -0.021 A 
DOCKED: ATOM     12  C   UNL d   1      -9.031   0.810   2.358 -0.35 +0.00    +0.000 A 
DOCKED: ATOM     13  C   UNL d   1     -10.036   0.395   3.249 -0.27 +0.02    +0.070 A 
DOCKED: ATOM     14  C   UNL d   1      -8.900   1.040  -0.211 -0.39 +0.01    +0.052 C 
DOCKED: ATOM     15  C   UNL d   1     -10.845  -0.088   5.554 -0.39 +0.02    +0.066 A 
DOCKED: ATOM     16  C   UNL d   1     -10.714  -0.013   6.935 -0.46 -0.00    -0.021 A 
DOCKED: ATOM     17  C   UNL d   1     -11.842  -0.593   7.477 -0.46 +0.00    +0.000 A 
DOCKED: ATOM     18  C   UNL d   1     -12.635  -1.013   6.411 -0.34 +0.01    +0.070 A 
DOCKED: ATOM     19  C   UNL d   1      -9.562   0.558   7.718 -0.37 +0.01    +0.052 C 
DOCKED: ATOM     20  C   UNL d   1     -14.711  -2.043   5.470 -0.19 +0.03    +0.066 A 
DOCKED: ATOM     21  C   UNL d   1     -15.837  -2.867   5.601 -0.14 -0.01    -0.025 A 
DOCKED: ATOM     22  C   UNL d   1     -16.393  -2.950   4.341 -0.09 -0.01    -0.021 A 
DOCKED: ATOM     23  C   UNL d   1     -15.585  -2.183   3.494 -0.12 +0.05    +0.066 A 
DOCKED: ATOM     24  C   UNL d   1     -16.368  -3.548   6.841 -0.23 +0.02    +0.051 C 
DOCKED: ATOM     25  N   UNL d   1     -13.650  -0.904   1.559 -0.17 -0.27    -0.248 N 
DOCKED: ATOM     26  N   UNL d   1     -11.183   0.091   2.593 -0.15 -0.12    -0.248 N 
DOCKED: ATOM     27  N   UNL d   1     -12.044  -0.664   5.229 -0.25 -0.07    -0.248 N 
DOCKED: ATOM     28  N   UNL d   1     -14.535  -1.669   4.179 -0.12 -0.15    -0.248 N 
DOCKED: ATOM     29 FE   UNL d   1     -12.859  -0.789   3.388 -0.06 +0.00    +0.000 Fe
DOCKED: ENDROOT
DOCKED: BRANCH   6  30
DOCKED: ATOM     30  C   UNL d   1     -16.394  -1.437  -0.835 -0.14 +0.06    +0.052 C 
DOCKED: BRANCH  30  31
DOCKED: ATOM     31  C   UNL d   1     -17.615  -0.950  -0.062 -0.06 +0.12    +0.115 C 
DOCKED: BRANCH  31  32
DOCKED: ATOM     32  C   UNL d   1     -17.441   0.487   0.346 +0.03 +0.23    +0.139 C 
DOCKED: ATOM     33  O   UNL d   1     -17.366   0.794   1.527 -0.36 -1.24    -0.650 OA
DOCKED: BRANCH  32  34
DOCKED: ATOM     34  O   UNL d   1     -17.367   1.449  -0.589 -0.11 -1.38    -0.776 OA
DOCKED: ATOM     35  H   UNL d   1     -17.941   1.395  -1.366 +0.02 +0.18    +0.167 HD
DOCKED: ENDBRANCH  32  34
DOCKED: ENDBRANCH  31  32
DOCKED: ENDBRANCH  30  31
DOCKED: ENDBRANCH   6  30
DOCKED: BRANCH  22  36
DOCKED: ATOM     36  C   UNL d   1     -17.605  -3.762   3.967 -0.09 +0.03    +0.052 C 
DOCKED: BRANCH  36  37
DOCKED: ATOM     37  C   UNL d   1     -17.197  -5.206   3.712 -0.14 +0.07    +0.115 C 
DOCKED: BRANCH  37  38
DOCKED: ATOM     38  C   UNL d   1     -17.196  -5.514   2.241 +0.00 +0.13    +0.139 C 
DOCKED: ATOM     39  O   UNL d   1     -16.526  -6.434   1.795 -0.52 -0.86    -0.650 OA
DOCKED: BRANCH  38  40
DOCKED: ATOM     40  O   UNL d   1     -17.937  -4.771   1.400 -0.02 -0.72    -0.776 OA
DOCKED: ATOM     41  H   UNL d   1     -18.897  -4.752   1.510 +0.02 +0.11    +0.167 HD
DOCKED: ENDBRANCH  38  40
DOCKED: ENDBRANCH  37  38
DOCKED: ENDBRANCH  36  37
DOCKED: ENDBRANCH  22  36
DOCKED: BRANCH  12  42
DOCKED: ATOM     42  C   UNL d   1      -7.619   1.214   2.640 -0.41 +0.00    +0.004 C 
DOCKED: ATOM     43  C   UNL d   1      -6.862   0.520   3.501 -0.39 +0.00    +0.012 C 
DOCKED: ENDBRANCH  12  42
DOCKED: BRANCH  17  44
DOCKED: ATOM     44  C   UNL d   1     -12.151  -0.718   8.919 -0.52 +0.00    +0.004 C 
DOCKED: ATOM     45  C   UNL d   1     -13.182  -0.059   9.458 -0.57 +0.00    +0.012 C 
DOCKED: ENDBRANCH  17  44
DOCKED: TORSDOF 10
DOCKED: TER
DOCKED: ENDMDL
________________________________________________________________________________


	BEGINNING GENETIC ALGORITHM DOCKING 37 of 100
Run: 37 Seed: 854658682 331896669 [ Run 37 of 100 GA/GALS ]
Beginning LAMARCKIAN GENETIC ALGORITHM (LGA), with a maximum of 25000000 energy evaluations.

Final-Value: -15.188


	FINAL GENETIC ALGORITHM DOCKED STATE
	_______________________________________________


Detailed state:  trans -12.751 0.030 1.796 quatxyzw -0.771386 0.165361 -0.272157 0.550954 center -0.174 -0.001 -0.047 ntor 10 142.1704 -127.7804 66.8703 -7.6336 -168.3348 -136.4603 -70.6098 -118.3590 170.6019 -11.4617
State:	-12.751   0.030   1.796  -0.924  0.198 -0.326 113.135    142.17 -127.78   66.87   -7.63 -168.33 -136.46  -70.61 -118.36  170.60  -11.46

DOCKED: MODEL       37
DOCKED: USER    Run = 37
DOCKED: USER    DPF = D:/Protein_go_brrr/autodock/final/AncMH_nat/heme_Fe/dock.dpf
DOCKED: USER  
DOCKED: USER    Estimated Free Energy of Binding    =  -10.55 kcal/mol  [=(1)+(2)+(3)-(4)]
DOCKED: USER    Estimated Inhibition Constant, Ki   =   18.37 nM (nanomolar)  [Temperature = 298.15 K]
DOCKED: USER    
DOCKED: USER    (1) Final Intermolecular Energy     =  -13.54 kcal/mol
DOCKED: USER        vdW + Hbond + desolv Energy     =  -10.28 kcal/mol
DOCKED: USER        Electrostatic Energy            =   -3.26 kcal/mol
DOCKED: USER    (2) Final Total Internal Energy     =   -1.65 kcal/mol
DOCKED: USER    (3) Torsional Free Energy           =   +2.98 kcal/mol
DOCKED: USER    (4) Unbound System's Energy  [=(2)] =   -1.65 kcal/mol
DOCKED: USER    
DOCKED: USER    
DOCKED: USER    NEWDPF move heme_Fe_opt.pdbqt
DOCKED: USER    NEWDPF about -0.174000 -0.001000 -0.047000
DOCKED: USER    NEWDPF tran0 -12.750727 0.030092 1.796273
DOCKED: USER    NEWDPF quaternion0 -0.771386 0.165361 -0.272157 0.550954
DOCKED: USER    NEWDPF axisangle0 -0.924329 0.198147 -0.326118 113.135022
DOCKED: USER    NEWDPF quat0 -0.924329 0.198147 -0.326118 113.135022
DOCKED: USER    NEWDPF dihe0 142.17 -127.78 66.87 -7.63 -168.33 -136.46 -70.61 -118.36 170.60 -11.46 
DOCKED: USER  keepresnum = 1 
DOCKED: USER  
DOCKED: REMARK  10 active torsions:
DOCKED: REMARK  status: ('A' for Active; 'I' for Inactive)
DOCKED: REMARK    1  A    between atoms: C_6  and  C_10 
DOCKED: REMARK    2  A    between atoms: C_10  and  C_11 
DOCKED: REMARK    3  A    between atoms: C_11  and  C_12 
DOCKED: REMARK    4  A    between atoms: C_12  and  O_14 
DOCKED: REMARK    5  A    between atoms: C_17  and  C_20 
DOCKED: REMARK    6  A    between atoms: C_24  and  C_27 
DOCKED: REMARK    7  A    between atoms: C_31  and  C_34 
DOCKED: REMARK    8  A    between atoms: C_34  and  C_35 
DOCKED: REMARK    9  A    between atoms: C_35  and  C_36 
DOCKED: REMARK   10  A    between atoms: C_36  and  O_38 
DOCKED: USER                              x       y       z     vdW  Elec       q    Type
DOCKED: USER                           _______ _______ _______ _____ _____    ______ ____
DOCKED: ROOT
DOCKED: ATOM      1  C   UNL d   1     -14.171  -0.539   0.428 -0.22 +0.09    +0.064 C 
DOCKED: ATOM      2  C   UNL d   1      -9.460   0.932   0.148 -0.36 +0.02    +0.064 A 
DOCKED: ATOM      3  C   UNL d   1      -9.019   0.189   4.872 +0.03 +0.02    +0.064 C 
DOCKED: ATOM      4  C   UNL d   1     -13.605  -1.137   5.185 -0.22 +0.02    +0.064 C 
DOCKED: ATOM      5  C   UNL d   1     -12.910   0.024  -0.074 -0.20 +0.08    +0.066 A 
DOCKED: ATOM      6  C   UNL d   1     -12.702   0.465  -1.370 -0.20 -0.02    -0.021 A 
DOCKED: ATOM      7  C   UNL d   1     -11.392   0.870  -1.449 -0.26 -0.01    -0.025 A 
DOCKED: ATOM      8  C   UNL d   1     -10.851   0.660  -0.195 -0.28 +0.03    +0.066 A 
DOCKED: ATOM      9  C   UNL d   1     -10.715   1.441  -2.656 -0.31 +0.01    +0.051 C 
DOCKED: ATOM     10  C   UNL d   1      -8.928   0.793   1.363 -0.37 +0.01    +0.066 A 
DOCKED: ATOM     11  C   UNL d   1      -7.567   0.951   1.635 -0.39 -0.00    -0.021 A 
DOCKED: ATOM     12  C   UNL d   1      -7.410   0.725   2.988 -0.35 +0.00    +0.000 A 
DOCKED: ATOM     13  C   UNL d   1      -8.696   0.430   3.475 -0.22 +0.02    +0.070 A 
DOCKED: ATOM     14  C   UNL d   1      -6.458   1.235   0.643 -0.37 +0.00    +0.052 C 
DOCKED: ATOM     15  C   UNL d   1     -10.245  -0.147   5.338 -0.33 +0.02    +0.066 A 
DOCKED: ATOM     16  C   UNL d   1     -10.535  -0.271   6.691 -0.33 -0.00    -0.021 A 
DOCKED: ATOM     17  C   UNL d   1     -11.856  -0.657   6.783 -0.38 +0.00    +0.000 A 
DOCKED: ATOM     18  C   UNL d   1     -12.341  -0.763   5.482 -0.33 +0.02    +0.070 A 
DOCKED: ATOM     19  C   UNL d   1      -9.601  -0.061   7.853 -0.36 +0.01    +0.052 C 
DOCKED: ATOM     20  C   UNL d   1     -14.168  -1.201   3.831 -0.20 +0.04    +0.066 A 
DOCKED: ATOM     21  C   UNL d   1     -15.402  -1.774   3.493 -0.15 -0.02    -0.025 A 
DOCKED: ATOM     22  C   UNL d   1     -15.549  -1.580   2.135 -0.17 -0.02    -0.021 A 
DOCKED: ATOM     23  C   UNL d   1     -14.402  -0.907   1.699 -0.22 +0.08    +0.066 A 
DOCKED: ATOM     24  C   UNL d   1     -16.396  -2.472   4.392 -0.11 +0.03    +0.051 C 
DOCKED: ATOM     25  N   UNL d   1     -11.779   0.154   0.641 -0.16 -0.19    -0.248 N 
DOCKED: ATOM     26  N   UNL d   1      -9.619   0.462   2.483 -0.21 -0.08    -0.248 N 
DOCKED: ATOM     27  N   UNL d   1     -11.365  -0.408   4.594 -0.13 -0.08    -0.248 N 
DOCKED: ATOM     28  N   UNL d   1     -13.543  -0.718   2.730 -0.17 -0.21    -0.248 N 
DOCKED: ATOM     29 FE   UNL d   1     -11.582  -0.128   2.608 -0.07 +0.00    +0.000 Fe
DOCKED: ENDROOT
DOCKED: BRANCH   6  30
DOCKED: ATOM     30  C   UNL d   1     -13.700   0.520  -2.475 -0.15 +0.04    +0.052 C 
DOCKED: BRANCH  30  31
DOCKED: ATOM     31  C   UNL d   1     -13.532  -0.668  -3.416 -0.12 +0.07    +0.115 C 
DOCKED: BRANCH  31  32
DOCKED: ATOM     32  C   UNL d   1     -14.682  -1.625  -3.267 -0.03 +0.12    +0.139 C 
DOCKED: ATOM     33  O   UNL d   1     -14.636  -2.737  -3.772 -0.17 -0.71    -0.650 OA
DOCKED: BRANCH  32  34
DOCKED: ATOM     34  O   UNL d   1     -15.775  -1.263  -2.574 -0.00 -0.68    -0.776 OA
DOCKED: ATOM     35  H   UNL d   1     -15.668  -0.729  -1.774 +0.03 +0.17    +0.167 HD
DOCKED: ENDBRANCH  32  34
DOCKED: ENDBRANCH  31  32
DOCKED: ENDBRANCH  30  31
DOCKED: ENDBRANCH   6  30
DOCKED: BRANCH  22  36
DOCKED: ATOM     36  C   UNL d   1     -16.705  -2.061   1.298 -0.12 +0.05    +0.052 C 
DOCKED: BRANCH  36  37
DOCKED: ATOM     37  C   UNL d   1     -17.834  -1.042   1.348 -0.06 +0.12    +0.115 C 
DOCKED: BRANCH  37  38
DOCKED: ATOM     38  C   UNL d   1     -17.387   0.284   0.801 -0.04 +0.22    +0.139 C 
DOCKED: ATOM     39  O   UNL d   1     -17.683   1.326   1.368 -0.23 -1.33    -0.650 OA
DOCKED: BRANCH  38  40
DOCKED: ATOM     40  O   UNL d   1     -16.657   0.333  -0.327 -0.41 -1.39    -0.776 OA
DOCKED: ATOM     41  H   UNL d   1     -16.976  -0.130  -1.114 +0.02 +0.19    +0.167 HD
DOCKED: ENDBRANCH  38  40
DOCKED: ENDBRANCH  37  38
DOCKED: ENDBRANCH  36  37
DOCKED: ENDBRANCH  22  36
DOCKED: BRANCH  12  42
DOCKED: ATOM     42  C   UNL d   1      -6.107   0.779   3.720 -0.39 +0.00    +0.004 C 
DOCKED: ATOM     43  C   UNL d   1      -5.879   1.712   4.654 -0.39 +0.00    +0.012 C 
DOCKED: ENDBRANCH  12  42
DOCKED: BRANCH  17  44
DOCKED: ATOM     44  C   UNL d   1     -12.611  -0.889   8.036 -0.58 +0.00    +0.004 C 
DOCKED: ATOM     45  C   UNL d   1     -12.544  -0.017   9.047 -0.60 +0.00    +0.012 C 
DOCKED: ENDBRANCH  17  44
DOCKED: TORSDOF 10
DOCKED: TER
DOCKED: ENDMDL
________________________________________________________________________________


	BEGINNING GENETIC ALGORITHM DOCKING 38 of 100
Run: 38 Seed: 1862962615 1407405237 [ Run 38 of 100 GA/GALS ]
Beginning LAMARCKIAN GENETIC ALGORITHM (LGA), with a maximum of 25000000 energy evaluations.

Final-Value: -15.028


	FINAL GENETIC ALGORITHM DOCKED STATE
	_______________________________________________


Detailed state:  trans -14.709 -1.635 3.348 quatxyzw 0.624201 0.219994 -0.085828 0.744721 center -0.174 -0.001 -0.047 ntor 10 -55.4424 -149.8264 70.2968 -151.7806 39.3841 99.2783 -98.1582 141.3148 176.4932 -167.3446
State:	-14.709  -1.635   3.348   0.935  0.330 -0.129 83.730    -55.44 -149.83   70.30 -151.78   39.38   99.28  -98.16  141.31  176.49 -167.34

DOCKED: MODEL       38
DOCKED: USER    Run = 38
DOCKED: USER    DPF = D:/Protein_go_brrr/autodock/final/AncMH_nat/heme_Fe/dock.dpf
DOCKED: USER  
DOCKED: USER    Estimated Free Energy of Binding    =   -9.71 kcal/mol  [=(1)+(2)+(3)-(4)]
DOCKED: USER    Estimated Inhibition Constant, Ki   =   76.04 nM (nanomolar)  [Temperature = 298.15 K]
DOCKED: USER    
DOCKED: USER    (1) Final Intermolecular Energy     =  -12.69 kcal/mol
DOCKED: USER        vdW + Hbond + desolv Energy     =   -9.06 kcal/mol
DOCKED: USER        Electrostatic Energy            =   -3.64 kcal/mol
DOCKED: USER    (2) Final Total Internal Energy     =   -2.33 kcal/mol
DOCKED: USER    (3) Torsional Free Energy           =   +2.98 kcal/mol
DOCKED: USER    (4) Unbound System's Energy  [=(2)] =   -2.33 kcal/mol
DOCKED: USER    
DOCKED: USER    
DOCKED: USER    NEWDPF move heme_Fe_opt.pdbqt
DOCKED: USER    NEWDPF about -0.174000 -0.001000 -0.047000
DOCKED: USER    NEWDPF tran0 -14.708570 -1.634690 3.348255
DOCKED: USER    NEWDPF quaternion0 0.624201 0.219994 -0.085828 0.744721
DOCKED: USER    NEWDPF axisangle0 0.935307 0.329640 -0.128605 83.729730
DOCKED: USER    NEWDPF quat0 0.935307 0.329640 -0.128605 83.729730
DOCKED: USER    NEWDPF dihe0 -55.44 -149.83 70.30 -151.78 39.38 99.28 -98.16 141.31 176.49 -167.34 
DOCKED: USER  keepresnum = 1 
DOCKED: USER  
DOCKED: REMARK  10 active torsions:
DOCKED: REMARK  status: ('A' for Active; 'I' for Inactive)
DOCKED: REMARK    1  A    between atoms: C_6  and  C_10 
DOCKED: REMARK    2  A    between atoms: C_10  and  C_11 
DOCKED: REMARK    3  A    between atoms: C_11  and  C_12 
DOCKED: REMARK    4  A    between atoms: C_12  and  O_14 
DOCKED: REMARK    5  A    between atoms: C_17  and  C_20 
DOCKED: REMARK    6  A    between atoms: C_24  and  C_27 
DOCKED: REMARK    7  A    between atoms: C_31  and  C_34 
DOCKED: REMARK    8  A    between atoms: C_34  and  C_35 
DOCKED: REMARK    9  A    between atoms: C_35  and  C_36 
DOCKED: REMARK   10  A    between atoms: C_36  and  O_38 
DOCKED: USER                              x       y       z     vdW  Elec       q    Type
DOCKED: USER                           _______ _______ _______ _____ _____    ______ ____
DOCKED: ROOT
DOCKED: ATOM      1  C   UNL d   1     -16.709  -1.970   3.034 -0.10 +0.05    +0.064 C 
DOCKED: ATOM      2  C   UNL d   1     -13.868  -1.358   7.033 -0.32 +0.01    +0.064 A 
DOCKED: ATOM      3  C   UNL d   1     -10.376   0.341   4.206 -0.33 +0.02    +0.064 C 
DOCKED: ATOM      4  C   UNL d   1     -13.070  -0.341   0.313 -0.24 +0.07    +0.064 C 
DOCKED: ATOM      5  C   UNL d   1     -16.202  -2.033   4.412 -0.09 +0.04    +0.066 A 
DOCKED: ATOM      6  C   UNL d   1     -16.894  -2.573   5.485 -0.10 -0.01    -0.021 A 
DOCKED: ATOM      7  C   UNL d   1     -16.106  -2.399   6.595 -0.17 -0.01    -0.025 A 
DOCKED: ATOM      8  C   UNL d   1     -14.962  -1.760   6.158 -0.19 +0.02    +0.066 A 
DOCKED: ATOM      9  C   UNL d   1     -16.433  -2.843   7.988 -0.26 +0.01    +0.051 C 
DOCKED: ATOM     10  C   UNL d   1     -12.729  -0.792   6.628 -0.36 +0.01    +0.066 A 
DOCKED: ATOM     11  C   UNL d   1     -11.749  -0.314   7.501 -0.49 -0.00    -0.021 A 
DOCKED: ATOM     12  C   UNL d   1     -10.738   0.197   6.711 -0.48 +0.00    +0.000 A 
DOCKED: ATOM     13  C   UNL d   1     -11.163   0.009   5.384 -0.39 +0.02    +0.070 A 
DOCKED: ATOM     14  C   UNL d   1     -11.802  -0.282   9.015 -0.55 +0.01    +0.052 C 
DOCKED: ATOM     15  C   UNL d   1     -10.801   0.211   2.927 -0.20 +0.03    +0.066 A 
DOCKED: ATOM     16  C   UNL d   1      -9.984   0.445   1.829 -0.34 -0.01    -0.021 A 
DOCKED: ATOM     17  C   UNL d   1     -10.760   0.252   0.705 -0.34 +0.00    +0.000 A 
DOCKED: ATOM     18  C   UNL d   1     -12.036  -0.092   1.145 -0.25 +0.06    +0.070 A 
DOCKED: ATOM     19  C   UNL d   1      -8.536   0.858   1.833 -0.41 +0.01    +0.052 C 
DOCKED: ATOM     20  C   UNL d   1     -14.409  -0.765   0.737 -0.19 +0.09    +0.066 A 
DOCKED: ATOM     21  C   UNL d   1     -15.539  -0.833  -0.091 -0.16 -0.03    -0.025 A 
DOCKED: ATOM     22  C   UNL d   1     -16.561  -1.311   0.702 -0.13 -0.02    -0.021 A 
DOCKED: ATOM     23  C   UNL d   1     -16.020  -1.510   1.978 -0.13 +0.07    +0.066 A 
DOCKED: ATOM     24  C   UNL d   1     -15.660  -0.465  -1.552 -0.15 +0.06    +0.051 C 
DOCKED: ATOM     25  N   UNL d   1     -15.020  -1.547   4.828 -0.08 -0.13    -0.248 N 
DOCKED: ATOM     26  N   UNL d   1     -12.380  -0.585   5.333 -0.25 -0.07    -0.248 N 
DOCKED: ATOM     27  N   UNL d   1     -12.051  -0.160   2.510 -0.15 -0.16    -0.248 N 
DOCKED: ATOM     28  N   UNL d   1     -14.719  -1.132   2.005 -0.14 -0.28    -0.248 N 
DOCKED: ATOM     29 FE   UNL d   1     -13.549  -0.858   3.667 -0.06 +0.00    +0.000 Fe
DOCKED: ENDROOT
DOCKED: BRANCH   6  30
DOCKED: ATOM     30  C   UNL d   1     -18.226  -3.240   5.455 -0.09 +0.02    +0.052 C 
DOCKED: BRANCH  30  31
DOCKED: ATOM     31  C   UNL d   1     -19.336  -2.244   5.773 -0.05 +0.06    +0.115 C 
DOCKED: BRANCH  31  32
DOCKED: ATOM     32  C   UNL d   1     -19.703  -1.456   4.546 -0.05 +0.11    +0.139 C 
DOCKED: ATOM     33  O   UNL d   1     -19.754  -1.996   3.450 +0.04 -0.45    -0.650 OA
DOCKED: BRANCH  32  34
DOCKED: ATOM     34  O   UNL d   1     -19.980  -0.145   4.644 -0.03 -1.12    -0.776 OA
DOCKED: ATOM     35  H   UNL d   1     -19.483   0.482   4.101 +0.03 +0.36    +0.167 HD
DOCKED: ENDBRANCH  32  34
DOCKED: ENDBRANCH  31  32
DOCKED: ENDBRANCH  30  31
DOCKED: ENDBRANCH   6  30
DOCKED: BRANCH  22  36
DOCKED: ATOM     36  C   UNL d   1     -17.988  -1.518   0.268 -0.06 +0.05    +0.052 C 
DOCKED: BRANCH  36  37
DOCKED: ATOM     37  C   UNL d   1     -18.659  -0.170   0.051 -0.03 +0.11    +0.115 C 
DOCKED: BRANCH  37  38
DOCKED: ATOM     38  C   UNL d   1     -18.240   0.816   1.104 -0.11 +0.21    +0.139 C 
DOCKED: ATOM     39  O   UNL d   1     -17.369   1.643   0.875 +0.17 -1.63    -0.650 OA
DOCKED: BRANCH  38  40
DOCKED: ATOM     40  O   UNL d   1     -18.822   0.792   2.316 -0.22 -1.46    -0.776 OA
DOCKED: ATOM     41  H   UNL d   1     -19.150  -0.049   2.663 +0.02 +0.24    +0.167 HD
DOCKED: ENDBRANCH  38  40
DOCKED: ENDBRANCH  37  38
DOCKED: ENDBRANCH  36  37
DOCKED: ENDBRANCH  22  36
DOCKED: BRANCH  12  42
DOCKED: ATOM     42  C   UNL d   1      -9.484   0.826   7.226 -0.45 +0.00    +0.004 C 
DOCKED: ATOM     43  C   UNL d   1      -8.284   0.297   6.953 -0.47 +0.00    +0.012 C 
DOCKED: ENDBRANCH  12  42
DOCKED: BRANCH  17  44
DOCKED: ATOM     44  C   UNL d   1     -10.304   0.369  -0.699 -0.38 +0.00    +0.004 C 
DOCKED: ATOM     45  C   UNL d   1     -10.517   1.489  -1.397 -0.34 +0.00    +0.012 C 
DOCKED: ENDBRANCH  17  44
DOCKED: TORSDOF 10
DOCKED: TER
DOCKED: ENDMDL
________________________________________________________________________________


	BEGINNING GENETIC ALGORITHM DOCKING 39 of 100
Run: 39 Seed: 104470037 1465408427 [ Run 39 of 100 GA/GALS ]
Beginning LAMARCKIAN GENETIC ALGORITHM (LGA), with a maximum of 25000000 energy evaluations.

Final-Value: -14.114


	FINAL GENETIC ALGORITHM DOCKED STATE
	_______________________________________________


Detailed state:  trans -14.102 -0.895 3.073 quatxyzw -0.768715 -0.018879 -0.195642 0.608642 center -0.174 -0.001 -0.047 ntor 10 63.4775 -118.4844 11.4188 71.1043 -114.6580 -18.2753 107.6569 87.0241 13.7136 -178.6320
State:	-14.102  -0.895   3.073  -0.969 -0.024 -0.247 105.017     63.48 -118.48   11.42   71.10 -114.66  -18.28  107.66   87.02   13.71 -178.63

DOCKED: MODEL       39
DOCKED: USER    Run = 39
DOCKED: USER    DPF = D:/Protein_go_brrr/autodock/final/AncMH_nat/heme_Fe/dock.dpf
DOCKED: USER  
DOCKED: USER    Estimated Free Energy of Binding    =  -10.55 kcal/mol  [=(1)+(2)+(3)-(4)]
DOCKED: USER    Estimated Inhibition Constant, Ki   =   18.58 nM (nanomolar)  [Temperature = 298.15 K]
DOCKED: USER    
DOCKED: USER    (1) Final Intermolecular Energy     =  -13.53 kcal/mol
DOCKED: USER        vdW + Hbond + desolv Energy     =  -10.30 kcal/mol
DOCKED: USER        Electrostatic Energy            =   -3.23 kcal/mol
DOCKED: USER    (2) Final Total Internal Energy     =   -0.58 kcal/mol
DOCKED: USER    (3) Torsional Free Energy           =   +2.98 kcal/mol
DOCKED: USER    (4) Unbound System's Energy  [=(2)] =   -0.58 kcal/mol
DOCKED: USER    
DOCKED: USER    
DOCKED: USER    NEWDPF move heme_Fe_opt.pdbqt
DOCKED: USER    NEWDPF about -0.174000 -0.001000 -0.047000
DOCKED: USER    NEWDPF tran0 -14.102012 -0.895411 3.072710
DOCKED: USER    NEWDPF quaternion0 -0.768715 -0.018879 -0.195642 0.608642
DOCKED: USER    NEWDPF axisangle0 -0.968832 -0.023793 -0.246573 105.017203
DOCKED: USER    NEWDPF quat0 -0.968832 -0.023793 -0.246573 105.017203
DOCKED: USER    NEWDPF dihe0 63.48 -118.48 11.42 71.10 -114.66 -18.28 107.66 87.02 13.71 -178.63 
DOCKED: USER  keepresnum = 1 
DOCKED: USER  
DOCKED: REMARK  10 active torsions:
DOCKED: REMARK  status: ('A' for Active; 'I' for Inactive)
DOCKED: REMARK    1  A    between atoms: C_6  and  C_10 
DOCKED: REMARK    2  A    between atoms: C_10  and  C_11 
DOCKED: REMARK    3  A    between atoms: C_11  and  C_12 
DOCKED: REMARK    4  A    between atoms: C_12  and  O_14 
DOCKED: REMARK    5  A    between atoms: C_17  and  C_20 
DOCKED: REMARK    6  A    between atoms: C_24  and  C_27 
DOCKED: REMARK    7  A    between atoms: C_31  and  C_34 
DOCKED: REMARK    8  A    between atoms: C_34  and  C_35 
DOCKED: REMARK    9  A    between atoms: C_35  and  C_36 
DOCKED: REMARK   10  A    between atoms: C_36  and  O_38 
DOCKED: USER                              x       y       z     vdW  Elec       q    Type
DOCKED: USER                           _______ _______ _______ _____ _____    ______ ____
DOCKED: ROOT
DOCKED: ATOM      1  C   UNL d   1     -15.745  -1.903   2.370 -0.16 +0.06    +0.064 C 
DOCKED: ATOM      2  C   UNL d   1     -11.743   0.112   0.284 -0.25 +0.05    +0.064 A 
DOCKED: ATOM      3  C   UNL d   1      -9.691   0.355   4.619 -0.06 +0.02    +0.064 C 
DOCKED: ATOM      4  C   UNL d   1     -13.595  -1.496   6.672 -0.38 +0.01    +0.064 C 
DOCKED: ATOM      5  C   UNL d   1     -14.842  -1.282   1.392 -0.19 +0.08    +0.066 A 
DOCKED: ATOM      6  C   UNL d   1     -15.145  -1.073   0.056 -0.17 -0.03    -0.021 A 
DOCKED: ATOM      7  C   UNL d   1     -14.032  -0.517  -0.523 -0.12 -0.03    -0.025 A 
DOCKED: ATOM      8  C   UNL d   1     -13.091  -0.407   0.482 -0.22 +0.08    +0.066 A 
DOCKED: ATOM      9  C   UNL d   1     -13.896  -0.101  -1.956 -0.18 +0.05    +0.051 C 
DOCKED: ATOM     10  C   UNL d   1     -10.836   0.282   1.247 -0.28 +0.03    +0.066 A 
DOCKED: ATOM     11  C   UNL d   1      -9.516   0.673   1.008 -0.39 -0.01    -0.021 A 
DOCKED: ATOM     12  C   UNL d   1      -8.898   0.734   2.242 -0.37 +0.00    +0.000 A 
DOCKED: ATOM     13  C   UNL d   1      -9.881   0.366   3.177 -0.28 +0.02    +0.070 A 
DOCKED: ATOM     14  C   UNL d   1      -8.856   0.909  -0.335 -0.38 +0.01    +0.052 C 
DOCKED: ATOM     15  C   UNL d   1     -10.617  -0.048   5.521 -0.39 +0.02    +0.066 A 
DOCKED: ATOM     16  C   UNL d   1     -10.433   0.051   6.894 -0.45 -0.00    -0.021 A 
DOCKED: ATOM     17  C   UNL d   1     -11.556  -0.486   7.488 -0.47 +0.00    +0.000 A 
DOCKED: ATOM     18  C   UNL d   1     -12.399  -0.904   6.461 -0.35 +0.01    +0.070 A 
DOCKED: ATOM     19  C   UNL d   1      -9.238   0.604   7.622 -0.40 +0.01    +0.052 C 
DOCKED: ATOM     20  C   UNL d   1     -14.536  -1.894   5.618 -0.21 +0.02    +0.066 A 
DOCKED: ATOM     21  C   UNL d   1     -15.679  -2.683   5.807 -0.16 -0.01    -0.025 A 
DOCKED: ATOM     22  C   UNL d   1     -16.283  -2.776   4.571 -0.10 -0.01    -0.021 A 
DOCKED: ATOM     23  C   UNL d   1     -15.486  -2.049   3.679 -0.13 +0.05    +0.066 A 
DOCKED: ATOM     24  C   UNL d   1     -16.182  -3.324   7.080 -0.24 +0.01    +0.051 C 
DOCKED: ATOM     25  N   UNL d   1     -13.590  -0.864   1.648 -0.17 -0.27    -0.248 N 
DOCKED: ATOM     26  N   UNL d   1     -11.059   0.081   2.571 -0.15 -0.12    -0.248 N 
DOCKED: ATOM     27  N   UNL d   1     -11.843  -0.596   5.251 -0.25 -0.07    -0.248 N 
DOCKED: ATOM     28  N   UNL d   1     -14.398  -1.551   4.314 -0.13 -0.14    -0.248 N 
DOCKED: ATOM     29 FE   UNL d   1     -12.729  -0.735   3.444 -0.07 +0.00    +0.000 Fe
DOCKED: ENDROOT
DOCKED: BRANCH   6  30
DOCKED: ATOM     30  C   UNL d   1     -16.434  -1.367  -0.632 -0.14 +0.06    +0.052 C 
DOCKED: BRANCH  30  31
DOCKED: ATOM     31  C   UNL d   1     -17.232  -0.087  -0.854 -0.06 +0.13    +0.115 C 
DOCKED: BRANCH  31  32
DOCKED: ATOM     32  C   UNL d   1     -17.794   0.415   0.448 -0.07 +0.20    +0.139 C 
DOCKED: ATOM     33  O   UNL d   1     -19.003   0.445   0.634 +0.01 -0.75    -0.650 OA
DOCKED: BRANCH  32  34
DOCKED: ATOM     34  O   UNL d   1     -16.969   0.836   1.421 -0.23 -1.76    -0.776 OA
DOCKED: ATOM     35  H   UNL d   1     -16.953   0.358   2.262 +0.03 +0.27    +0.167 HD
DOCKED: ENDBRANCH  32  34
DOCKED: ENDBRANCH  31  32
DOCKED: ENDBRANCH  30  31
DOCKED: ENDBRANCH   6  30
DOCKED: BRANCH  22  36
DOCKED: ATOM     36  C   UNL d   1     -17.530  -3.561   4.258 -0.09 +0.03    +0.052 C 
DOCKED: BRANCH  36  37
DOCKED: ATOM     37  C   UNL d   1     -17.176  -5.026   4.053 -0.12 +0.06    +0.115 C 
DOCKED: BRANCH  37  38
DOCKED: ATOM     38  C   UNL d   1     -16.947  -5.327   2.599 -0.06 +0.13    +0.139 C 
DOCKED: ATOM     39  O   UNL d   1     -17.362  -4.572   1.731 -0.09 -0.68    -0.650 OA
DOCKED: BRANCH  38  40
DOCKED: ATOM     40  O   UNL d   1     -16.281  -6.439   2.240 -0.49 -0.89    -0.776 OA
DOCKED: ATOM     41  H   UNL d   1     -16.643  -7.303   2.483 +0.06 +0.12    +0.167 HD
DOCKED: ENDBRANCH  38  40
DOCKED: ENDBRANCH  37  38
DOCKED: ENDBRANCH  36  37
DOCKED: ENDBRANCH  22  36
DOCKED: BRANCH  12  42
DOCKED: ATOM     42  C   UNL d   1      -7.466   1.103   2.464 -0.42 +0.00    +0.004 C 
DOCKED: ATOM     43  C   UNL d   1      -6.992   2.293   2.071 -0.42 +0.00    +0.012 C 
DOCKED: ENDBRANCH  12  42
DOCKED: BRANCH  17  44
DOCKED: ATOM     44  C   UNL d   1     -11.815  -0.574   8.943 -0.55 +0.00    +0.004 C 
DOCKED: ATOM     45  C   UNL d   1     -12.929  -0.057   9.473 -0.57 +0.00    +0.012 C 
DOCKED: ENDBRANCH  17  44
DOCKED: TORSDOF 10
DOCKED: TER
DOCKED: ENDMDL
________________________________________________________________________________


	BEGINNING GENETIC ALGORITHM DOCKING 40 of 100
Run: 40 Seed: 91718362 1641691511 [ Run 40 of 100 GA/GALS ]
Beginning LAMARCKIAN GENETIC ALGORITHM (LGA), with a maximum of 25000000 energy evaluations.

Final-Value: -14.165


	FINAL GENETIC ALGORITHM DOCKED STATE
	_______________________________________________


Detailed state:  trans -12.631 -0.977 1.817 quatxyzw -0.548110 -0.399528 -0.143936 -0.720580 center -0.174 -0.001 -0.047 ntor 10 -139.9658 26.7178 104.2501 -141.5875 83.6528 42.7422 -140.2007 -89.7699 -179.8636 150.4494
State:	-12.631  -0.977   1.817  -0.790 -0.576 -0.208 -87.795   -139.97   26.72  104.25 -141.59   83.65   42.74 -140.20  -89.77 -179.86  150.45

DOCKED: MODEL       40
DOCKED: USER    Run = 40
DOCKED: USER    DPF = D:/Protein_go_brrr/autodock/final/AncMH_nat/heme_Fe/dock.dpf
DOCKED: USER  
DOCKED: USER    Estimated Free Energy of Binding    =  -10.75 kcal/mol  [=(1)+(2)+(3)-(4)]
DOCKED: USER    Estimated Inhibition Constant, Ki   =   13.24 nM (nanomolar)  [Temperature = 298.15 K]
DOCKED: USER    
DOCKED: USER    (1) Final Intermolecular Energy     =  -13.73 kcal/mol
DOCKED: USER        vdW + Hbond + desolv Energy     =  -10.12 kcal/mol
DOCKED: USER        Electrostatic Energy            =   -3.61 kcal/mol
DOCKED: USER    (2) Final Total Internal Energy     =   -0.43 kcal/mol
DOCKED: USER    (3) Torsional Free Energy           =   +2.98 kcal/mol
DOCKED: USER    (4) Unbound System's Energy  [=(2)] =   -0.43 kcal/mol
DOCKED: USER    
DOCKED: USER    
DOCKED: USER    NEWDPF move heme_Fe_opt.pdbqt
DOCKED: USER    NEWDPF about -0.174000 -0.001000 -0.047000
DOCKED: USER    NEWDPF tran0 -12.631213 -0.976913 1.816836
DOCKED: USER    NEWDPF quaternion0 -0.548110 -0.399528 -0.143936 -0.720580
DOCKED: USER    NEWDPF axisangle0 -0.790499 -0.576210 -0.207588 -87.795204
DOCKED: USER    NEWDPF quat0 -0.790499 -0.576210 -0.207588 -87.795204
DOCKED: USER    NEWDPF dihe0 -139.97 26.72 104.25 -141.59 83.65 42.74 -140.20 -89.77 -179.86 150.45 
DOCKED: USER  keepresnum = 1 
DOCKED: USER  
DOCKED: REMARK  10 active torsions:
DOCKED: REMARK  status: ('A' for Active; 'I' for Inactive)
DOCKED: REMARK    1  A    between atoms: C_6  and  C_10 
DOCKED: REMARK    2  A    between atoms: C_10  and  C_11 
DOCKED: REMARK    3  A    between atoms: C_11  and  C_12 
DOCKED: REMARK    4  A    between atoms: C_12  and  O_14 
DOCKED: REMARK    5  A    between atoms: C_17  and  C_20 
DOCKED: REMARK    6  A    between atoms: C_24  and  C_27 
DOCKED: REMARK    7  A    between atoms: C_31  and  C_34 
DOCKED: REMARK    8  A    between atoms: C_34  and  C_35 
DOCKED: REMARK    9  A    between atoms: C_35  and  C_36 
DOCKED: REMARK   10  A    between atoms: C_36  and  O_38 
DOCKED: USER                              x       y       z     vdW  Elec       q    Type
DOCKED: USER                           _______ _______ _______ _____ _____    ______ ____
DOCKED: ROOT
DOCKED: ATOM      1  C   UNL d   1     -14.158  -0.973   0.446 -0.16 +0.08    +0.064 C 
DOCKED: ATOM      2  C   UNL d   1     -13.888  -1.496   5.354 -0.22 +0.02    +0.064 A 
DOCKED: ATOM      3  C   UNL d   1      -9.397   0.200   5.218 -0.10 +0.02    +0.064 C 
DOCKED: ATOM      4  C   UNL d   1      -9.600   0.615   0.456 -0.42 +0.02    +0.064 C 
DOCKED: ATOM      5  C   UNL d   1     -14.469  -1.356   1.830 -0.22 +0.07    +0.066 A 
DOCKED: ATOM      6  C   UNL d   1     -15.636  -1.984   2.233 -0.15 -0.02    -0.021 A 
DOCKED: ATOM      7  C   UNL d   1     -15.562  -2.126   3.597 -0.14 -0.02    -0.025 A 
DOCKED: ATOM      8  C   UNL d   1     -14.351  -1.578   3.974 -0.20 +0.04    +0.066 A 
DOCKED: ATOM      9  C   UNL d   1     -16.592  -2.768   4.475 -0.10 +0.03    +0.051 C 
DOCKED: ATOM     10  C   UNL d   1     -12.701  -1.026   5.738 -0.34 +0.02    +0.066 A 
DOCKED: ATOM     11  C   UNL d   1     -12.331  -0.854   7.075 -0.41 -0.00    -0.021 A 
DOCKED: ATOM     12  C   UNL d   1     -11.046  -0.350   7.063 -0.39 +0.00    +0.000 A 
DOCKED: ATOM     13  C   UNL d   1     -10.697  -0.231   5.706 -0.37 +0.02    +0.070 A 
DOCKED: ATOM     14  C   UNL d   1     -13.186  -1.093   8.302 -0.39 +0.00    +0.052 C 
DOCKED: ATOM     15  C   UNL d   1      -9.074   0.365   3.914 -0.13 +0.02    +0.066 A 
DOCKED: ATOM     16  C   UNL d   1      -7.791   0.683   3.484 -0.30 -0.00    -0.021 A 
DOCKED: ATOM     17  C   UNL d   1      -7.848   0.806   2.111 -0.38 +0.00    +0.000 A 
DOCKED: ATOM     18  C   UNL d   1      -9.168   0.565   1.735 -0.35 +0.02    +0.070 A 
DOCKED: ATOM     19  C   UNL d   1      -6.564   0.888   4.331 -0.37 +0.01    +0.052 C 
DOCKED: ATOM     20  C   UNL d   1     -10.966   0.307   0.017 -0.29 +0.04    +0.066 A 
DOCKED: ATOM     21  C   UNL d   1     -11.477   0.547  -1.267 -0.25 -0.01    -0.025 A 
DOCKED: ATOM     22  C   UNL d   1     -12.773   0.075  -1.251 -0.20 -0.02    -0.021 A 
DOCKED: ATOM     23  C   UNL d   1     -13.003  -0.426   0.036 -0.17 +0.07    +0.066 A 
DOCKED: ATOM     24  C   UNL d   1     -10.792   1.189  -2.450 -0.32 +0.01    +0.051 C 
DOCKED: ATOM     25  N   UNL d   1     -13.684  -1.120   2.896 -0.16 -0.20    -0.248 N 
DOCKED: ATOM     26  N   UNL d   1     -11.709  -0.635   4.898 -0.15 -0.08    -0.248 N 
DOCKED: ATOM     27  N   UNL d   1      -9.912   0.251   2.838 -0.19 -0.08    -0.248 N 
DOCKED: ATOM     28  N   UNL d   1     -11.912  -0.240   0.818 -0.17 -0.20    -0.248 N 
DOCKED: ATOM     29 FE   UNL d   1     -11.809  -0.437   2.857 -0.07 +0.00    +0.000 Fe
DOCKED: ENDROOT
DOCKED: BRANCH   6  30
DOCKED: ATOM     30  C   UNL d   1     -16.757  -2.446   1.367 -0.10 +0.05    +0.052 C 
DOCKED: BRANCH  30  31
DOCKED: ATOM     31  C   UNL d   1     -17.805  -1.350   1.208 -0.05 +0.11    +0.115 C 
DOCKED: BRANCH  31  32
DOCKED: ATOM     32  C   UNL d   1     -17.144  -0.008   1.056 -0.05 +0.22    +0.139 C 
DOCKED: ATOM     33  O   UNL d   1     -16.742   0.368  -0.036 -0.48 -1.24    -0.650 OA
DOCKED: BRANCH  32  34
DOCKED: ATOM     34  O   UNL d   1     -16.989   0.792   2.123 -0.21 -1.48    -0.776 OA
DOCKED: ATOM     35  H   UNL d   1     -16.736   0.401   2.971 +0.03 +0.24    +0.167 HD
DOCKED: ENDBRANCH  32  34
DOCKED: ENDBRANCH  31  32
DOCKED: ENDBRANCH  30  31
DOCKED: ENDBRANCH   6  30
DOCKED: BRANCH  22  36
DOCKED: ATOM     36  C   UNL d   1     -13.750   0.147  -2.395 -0.16 +0.04    +0.052 C 
DOCKED: BRANCH  36  37
DOCKED: ATOM     37  C   UNL d   1     -14.883   1.100  -2.044 -0.08 +0.14    +0.115 C 
DOCKED: BRANCH  37  38
DOCKED: ATOM     38  C   UNL d   1     -14.552   2.506  -2.459 -0.07 +0.15    +0.139 C 
DOCKED: ATOM     39  O   UNL d   1     -14.029   2.732  -3.541 +0.03 -0.33    -0.650 OA
DOCKED: BRANCH  38  40
DOCKED: ATOM     40  O   UNL d   1     -14.828   3.532  -1.634 -0.13 -1.58    -0.776 OA
DOCKED: ATOM     41  H   UNL d   1     -14.983   4.409  -2.010 +0.02 +0.19    +0.167 HD
DOCKED: ENDBRANCH  38  40
DOCKED: ENDBRANCH  37  38
DOCKED: ENDBRANCH  36  37
DOCKED: ENDBRANCH  22  36
DOCKED: BRANCH  12  42
DOCKED: ATOM     42  C   UNL d   1     -10.251  -0.002   8.281 -0.45 +0.00    +0.004 C 
DOCKED: ATOM     43  C   UNL d   1      -8.913  -0.054   8.269 -0.43 +0.00    +0.012 C 
DOCKED: ENDBRANCH  12  42
DOCKED: BRANCH  17  44
DOCKED: ATOM     44  C   UNL d   1      -6.710   1.115   1.216 -0.41 +0.00    +0.004 C 
DOCKED: ATOM     45  C   UNL d   1      -6.375   2.381   0.947 -0.50 +0.00    +0.012 C 
DOCKED: ENDBRANCH  17  44
DOCKED: TORSDOF 10
DOCKED: TER
DOCKED: ENDMDL
________________________________________________________________________________


	BEGINNING GENETIC ALGORITHM DOCKING 41 of 100
Run: 41 Seed: 1329082690 1317624291 [ Run 41 of 100 GA/GALS ]
Beginning LAMARCKIAN GENETIC ALGORITHM (LGA), with a maximum of 25000000 energy evaluations.

Final-Value: -13.323


	FINAL GENETIC ALGORITHM DOCKED STATE
	_______________________________________________


Detailed state:  trans -13.466 -1.063 2.705 quatxyzw -0.384162 -0.597216 -0.389330 -0.586665 center -0.174 -0.001 -0.047 ntor 10 -118.6161 -37.9329 -173.7392 60.2256 180.0000 173.1580 -114.0068 77.8702 141.4411 -167.1359
State:	-13.466  -1.063   2.705  -0.474 -0.737 -0.481 -108.159   -118.62  -37.93 -173.74   60.23  180.00  173.16 -114.01   77.87  141.44 -167.14

DOCKED: MODEL       41
DOCKED: USER    Run = 41
DOCKED: USER    DPF = D:/Protein_go_brrr/autodock/final/AncMH_nat/heme_Fe/dock.dpf
DOCKED: USER  
DOCKED: USER    Estimated Free Energy of Binding    =   -8.87 kcal/mol  [=(1)+(2)+(3)-(4)]
DOCKED: USER    Estimated Inhibition Constant, Ki   =  317.15 nM (nanomolar)  [Temperature = 298.15 K]
DOCKED: USER    
DOCKED: USER    (1) Final Intermolecular Energy     =  -11.85 kcal/mol
DOCKED: USER        vdW + Hbond + desolv Energy     =   -8.68 kcal/mol
DOCKED: USER        Electrostatic Energy            =   -3.17 kcal/mol
DOCKED: USER    (2) Final Total Internal Energy     =   -1.47 kcal/mol
DOCKED: USER    (3) Torsional Free Energy           =   +2.98 kcal/mol
DOCKED: USER    (4) Unbound System's Energy  [=(2)] =   -1.47 kcal/mol
DOCKED: USER    
DOCKED: USER    
DOCKED: USER    NEWDPF move heme_Fe_opt.pdbqt
DOCKED: USER    NEWDPF about -0.174000 -0.001000 -0.047000
DOCKED: USER    NEWDPF tran0 -13.466290 -1.062620 2.705137
DOCKED: USER    NEWDPF quaternion0 -0.384162 -0.597216 -0.389330 -0.586665
DOCKED: USER    NEWDPF axisangle0 -0.474374 -0.737458 -0.480755 -108.158661
DOCKED: USER    NEWDPF quat0 -0.474374 -0.737458 -0.480755 -108.158661
DOCKED: USER    NEWDPF dihe0 -118.62 -37.93 -173.74 60.23 180.00 173.16 -114.01 77.87 141.44 -167.14 
DOCKED: USER  keepresnum = 1 
DOCKED: USER  
DOCKED: REMARK  10 active torsions:
DOCKED: REMARK  status: ('A' for Active; 'I' for Inactive)
DOCKED: REMARK    1  A    between atoms: C_6  and  C_10 
DOCKED: REMARK    2  A    between atoms: C_10  and  C_11 
DOCKED: REMARK    3  A    between atoms: C_11  and  C_12 
DOCKED: REMARK    4  A    between atoms: C_12  and  O_14 
DOCKED: REMARK    5  A    between atoms: C_17  and  C_20 
DOCKED: REMARK    6  A    between atoms: C_24  and  C_27 
DOCKED: REMARK    7  A    between atoms: C_31  and  C_34 
DOCKED: REMARK    8  A    between atoms: C_34  and  C_35 
DOCKED: REMARK    9  A    between atoms: C_35  and  C_36 
DOCKED: REMARK   10  A    between atoms: C_36  and  O_38 
DOCKED: USER                              x       y       z     vdW  Elec       q    Type
DOCKED: USER                           _______ _______ _______ _____ _____    ______ ____
DOCKED: ROOT
DOCKED: ATOM      1  C   UNL d   1     -13.701  -0.603   0.719 -0.24 +0.08    +0.064 C 
DOCKED: ATOM      2  C   UNL d   1     -16.728  -2.109   4.325 -0.07 +0.04    +0.064 A 
DOCKED: ATOM      3  C   UNL d   1     -13.345  -0.981   7.542 -0.43 +0.01    +0.064 C 
DOCKED: ATOM      4  C   UNL d   1     -10.360   0.383   4.061 -0.32 +0.02    +0.064 C 
DOCKED: ATOM      5  C   UNL d   1     -14.835  -1.210   1.430 -0.20 +0.08    +0.066 A 
DOCKED: ATOM      6  C   UNL d   1     -15.951  -1.757   0.817 -0.15 -0.03    -0.021 A 
DOCKED: ATOM      7  C   UNL d   1     -16.793  -2.171   1.819 -0.10 -0.02    -0.025 A 
DOCKED: ATOM      8  C   UNL d   1     -16.158  -1.861   3.006 -0.10 +0.06    +0.066 A 
DOCKED: ATOM      9  C   UNL d   1     -18.119  -2.843   1.637 -0.06 +0.04    +0.051 C 
DOCKED: ATOM     10  C   UNL d   1     -16.113  -1.872   5.485 -0.11 +0.03    +0.066 A 
DOCKED: ATOM     11  C   UNL d   1     -16.728  -2.012   6.731 -0.14 -0.01    -0.021 A 
DOCKED: ATOM     12  C   UNL d   1     -15.779  -1.677   7.675 -0.24 +0.00    +0.000 A 
DOCKED: ATOM     13  C   UNL d   1     -14.624  -1.338   6.948 -0.16 +0.02    +0.070 A 
DOCKED: ATOM     14  C   UNL d   1     -18.172  -2.382   7.007 -0.11 +0.02    +0.052 C 
DOCKED: ATOM     15  C   UNL d   1     -12.246  -0.604   6.847 -0.39 +0.01    +0.066 A 
DOCKED: ATOM     16  C   UNL d   1     -11.015  -0.367   7.445 -0.37 -0.00    -0.021 A 
DOCKED: ATOM     17  C   UNL d   1     -10.153   0.030   6.443 -0.44 +0.00    +0.000 A 
DOCKED: ATOM     18  C   UNL d   1     -10.882   0.030   5.256 -0.38 +0.02    +0.070 A 
DOCKED: ATOM     19  C   UNL d   1     -10.665  -0.484   8.904 -0.37 +0.01    +0.052 C 
DOCKED: ATOM     20  C   UNL d   1     -11.079   0.337   2.782 -0.27 +0.03    +0.066 A 
DOCKED: ATOM     21  C   UNL d   1     -10.621   0.884   1.575 -0.30 -0.01    -0.025 A 
DOCKED: ATOM     22  C   UNL d   1     -11.583   0.581   0.634 -0.28 -0.02    -0.021 A 
DOCKED: ATOM     23  C   UNL d   1     -12.587  -0.131   1.301 -0.25 +0.06    +0.066 A 
DOCKED: ATOM     24  C   UNL d   1      -9.350   1.658   1.312 -0.35 +0.01    +0.051 C 
DOCKED: ATOM     25  N   UNL d   1     -14.963  -1.285   2.766 -0.12 -0.23    -0.248 N 
DOCKED: ATOM     26  N   UNL d   1     -14.830  -1.448   5.613 -0.05 -0.10    -0.248 N 
DOCKED: ATOM     27  N   UNL d   1     -12.156  -0.401   5.496 -0.27 -0.06    -0.248 N 
DOCKED: ATOM     28  N   UNL d   1     -12.296  -0.238   2.620 -0.16 -0.17    -0.248 N 
DOCKED: ATOM     29 FE   UNL d   1     -13.561  -0.842   4.116 -0.06 +0.00    +0.000 Fe
DOCKED: ENDROOT
DOCKED: BRANCH   6  30
DOCKED: ATOM     30  C   UNL d   1     -16.198  -1.899  -0.646 -0.04 +0.06    +0.052 C 
DOCKED: BRANCH  30  31
DOCKED: ATOM     31  C   UNL d   1     -17.566  -1.341  -1.020 -0.07 +0.10    +0.115 C 
DOCKED: BRANCH  31  32
DOCKED: ATOM     32  C   UNL d   1     -17.604   0.147  -0.803 -0.05 +0.16    +0.139 C 
DOCKED: ATOM     33  O   UNL d   1     -18.618   0.786  -1.047 +0.03 -0.58    -0.650 OA
DOCKED: BRANCH  32  34
DOCKED: ATOM     34  O   UNL d   1     -16.520   0.789  -0.338 -0.18 -1.82    -0.776 OA
DOCKED: ATOM     35  H   UNL d   1     -15.704   0.769  -0.857 +0.02 +0.36    +0.167 HD
DOCKED: ENDBRANCH  32  34
DOCKED: ENDBRANCH  31  32
DOCKED: ENDBRANCH  30  31
DOCKED: ENDBRANCH   6  30
DOCKED: BRANCH  22  36
DOCKED: ATOM     36  C   UNL d   1     -11.559   0.995  -0.814 -0.28 +0.03    +0.052 C 
DOCKED: BRANCH  36  37
DOCKED: ATOM     37  C   UNL d   1     -11.785   2.496  -0.922 -0.21 +0.09    +0.115 C 
DOCKED: BRANCH  37  38
DOCKED: ATOM     38  C   UNL d   1     -13.191   2.798  -1.356 +0.10 +0.20    +0.139 C 
DOCKED: ATOM     39  O   UNL d   1     -13.605   3.948  -1.380 -0.05 -0.87    -0.650 OA
DOCKED: BRANCH  38  40
DOCKED: ATOM     40  O   UNL d   1     -14.011   1.797  -1.721 +0.07 -1.16    -0.776 OA
DOCKED: ATOM     41  H   UNL d   1     -14.945   1.839  -1.472 +0.03 +0.36    +0.167 HD
DOCKED: ENDBRANCH  38  40
DOCKED: ENDBRANCH  37  38
DOCKED: ENDBRANCH  36  37
DOCKED: ENDBRANCH  22  36
DOCKED: BRANCH  12  42
DOCKED: ATOM     42  C   UNL d   1     -16.005  -1.675   9.153 -0.29 +0.00    +0.004 C 
DOCKED: ATOM     43  C   UNL d   1     -15.745  -0.586   9.889 -0.38 +0.00    +0.012 C 
DOCKED: ENDBRANCH  12  42
DOCKED: BRANCH  17  44
DOCKED: ATOM     44  C   UNL d   1      -8.721   0.367   6.608 -0.47 +0.00    +0.004 C 
DOCKED: ATOM     45  C   UNL d   1      -7.771  -0.391   6.050 -0.44 +0.00    +0.012 C 
DOCKED: ENDBRANCH  17  44
DOCKED: TORSDOF 10
DOCKED: TER
DOCKED: ENDMDL
________________________________________________________________________________


	BEGINNING GENETIC ALGORITHM DOCKING 42 of 100
Run: 42 Seed: 197525737 672928886 [ Run 42 of 100 GA/GALS ]
Beginning LAMARCKIAN GENETIC ALGORITHM (LGA), with a maximum of 25000000 energy evaluations.

Final-Value: -14.452


	FINAL GENETIC ALGORITHM DOCKED STATE
	_______________________________________________


Detailed state:  trans -12.296 0.204 2.292 quatxyzw 0.777949 -0.137569 0.226453 -0.569727 center -0.174 -0.001 -0.047 ntor 10 84.3135 -163.8083 18.0736 80.1931 155.4277 -0.7805 67.2597 111.8685 36.5108 27.0261
State:	-12.296   0.204   2.292   0.947 -0.167  0.276 -110.538     84.31 -163.81   18.07   80.19  155.43   -0.78   67.26  111.87   36.51   27.03

DOCKED: MODEL       42
DOCKED: USER    Run = 42
DOCKED: USER    DPF = D:/Protein_go_brrr/autodock/final/AncMH_nat/heme_Fe/dock.dpf
DOCKED: USER  
DOCKED: USER    Estimated Free Energy of Binding    =  -11.14 kcal/mol  [=(1)+(2)+(3)-(4)]
DOCKED: USER    Estimated Inhibition Constant, Ki   =    6.84 nM (nanomolar)  [Temperature = 298.15 K]
DOCKED: USER    
DOCKED: USER    (1) Final Intermolecular Energy     =  -14.12 kcal/mol
DOCKED: USER        vdW + Hbond + desolv Energy     =  -10.58 kcal/mol
DOCKED: USER        Electrostatic Energy            =   -3.54 kcal/mol
DOCKED: USER    (2) Final Total Internal Energy     =   -0.33 kcal/mol
DOCKED: USER    (3) Torsional Free Energy           =   +2.98 kcal/mol
DOCKED: USER    (4) Unbound System's Energy  [=(2)] =   -0.33 kcal/mol
DOCKED: USER    
DOCKED: USER    
DOCKED: USER    NEWDPF move heme_Fe_opt.pdbqt
DOCKED: USER    NEWDPF about -0.174000 -0.001000 -0.047000
DOCKED: USER    NEWDPF tran0 -12.296223 0.204039 2.291757
DOCKED: USER    NEWDPF quaternion0 0.777949 -0.137569 0.226453 -0.569727
DOCKED: USER    NEWDPF axisangle0 0.946601 -0.167393 0.275546 -110.537560
DOCKED: USER    NEWDPF quat0 0.946601 -0.167393 0.275546 -110.537560
DOCKED: USER    NEWDPF dihe0 84.31 -163.81 18.07 80.19 155.43 -0.78 67.26 111.87 36.51 27.03 
DOCKED: USER  keepresnum = 1 
DOCKED: USER  
DOCKED: REMARK  10 active torsions:
DOCKED: REMARK  status: ('A' for Active; 'I' for Inactive)
DOCKED: REMARK    1  A    between atoms: C_6  and  C_10 
DOCKED: REMARK    2  A    between atoms: C_10  and  C_11 
DOCKED: REMARK    3  A    between atoms: C_11  and  C_12 
DOCKED: REMARK    4  A    between atoms: C_12  and  O_14 
DOCKED: REMARK    5  A    between atoms: C_17  and  C_20 
DOCKED: REMARK    6  A    between atoms: C_24  and  C_27 
DOCKED: REMARK    7  A    between atoms: C_31  and  C_34 
DOCKED: REMARK    8  A    between atoms: C_34  and  C_35 
DOCKED: REMARK    9  A    between atoms: C_35  and  C_36 
DOCKED: REMARK   10  A    between atoms: C_36  and  O_38 
DOCKED: USER                              x       y       z     vdW  Elec       q    Type
DOCKED: USER                           _______ _______ _______ _____ _____    ______ ____
DOCKED: ROOT
DOCKED: ATOM      1  C   UNL d   1     -13.867  -0.369   1.103 -0.24 +0.09    +0.064 C 
DOCKED: ATOM      2  C   UNL d   1      -9.196   1.016   0.270 -0.37 +0.01    +0.064 A 
DOCKED: ATOM      3  C   UNL d   1      -8.244   0.364   4.932 -0.09 +0.02    +0.064 C 
DOCKED: ATOM      4  C   UNL d   1     -12.786  -0.878   5.779 -0.38 +0.02    +0.064 C 
DOCKED: ATOM      5  C   UNL d   1     -12.662   0.161   0.451 -0.22 +0.07    +0.066 A 
DOCKED: ATOM      6  C   UNL d   1     -12.592   0.572  -0.870 -0.21 -0.02    -0.021 A 
DOCKED: ATOM      7  C   UNL d   1     -11.294   0.953  -1.102 -0.27 -0.01    -0.025 A 
DOCKED: ATOM      8  C   UNL d   1     -10.620   0.760   0.089 -0.29 +0.03    +0.066 A 
DOCKED: ATOM      9  C   UNL d   1     -10.747   1.488  -2.389 -0.30 +0.01    +0.051 C 
DOCKED: ATOM     10  C   UNL d   1      -8.534   0.893   1.421 -0.37 +0.01    +0.066 A 
DOCKED: ATOM     11  C   UNL d   1      -7.149   1.034   1.538 -0.37 -0.00    -0.021 A 
DOCKED: ATOM     12  C   UNL d   1      -6.847   0.834   2.870 -0.35 +0.00    +0.000 A 
DOCKED: ATOM     13  C   UNL d   1      -8.075   0.571   3.502 -0.24 +0.02    +0.070 A 
DOCKED: ATOM     14  C   UNL d   1      -6.153   1.280   0.423 -0.28 +0.00    +0.052 C 
DOCKED: ATOM     15  C   UNL d   1      -9.416   0.059   5.538 -0.27 +0.02    +0.066 A 
DOCKED: ATOM     16  C   UNL d   1      -9.556  -0.032   6.917 -0.36 -0.00    -0.021 A 
DOCKED: ATOM     17  C   UNL d   1     -10.864  -0.394   7.164 -0.31 +0.00    +0.000 A 
DOCKED: ATOM     18  C   UNL d   1     -11.492  -0.519   5.926 -0.37 +0.02    +0.070 A 
DOCKED: ATOM     19  C   UNL d   1      -8.496   0.186   7.964 -0.44 +0.01    +0.052 C 
DOCKED: ATOM     20  C   UNL d   1     -13.497  -0.960   4.498 -0.22 +0.03    +0.066 A 
DOCKED: ATOM     21  C   UNL d   1     -14.769  -1.519   4.311 -0.17 -0.01    -0.025 A 
DOCKED: ATOM     22  C   UNL d   1     -15.062  -1.352   2.974 -0.19 -0.02    -0.021 A 
DOCKED: ATOM     23  C   UNL d   1     -13.961  -0.707   2.398 -0.24 +0.07    +0.066 A 
DOCKED: ATOM     24  C   UNL d   1     -15.666  -2.182   5.330 -0.17 +0.02    +0.051 C 
DOCKED: ATOM     25  N   UNL d   1     -11.457   0.288   1.034 -0.16 -0.17    -0.248 N 
DOCKED: ATOM     26  N   UNL d   1      -9.102   0.598   2.618 -0.22 -0.07    -0.248 N 
DOCKED: ATOM     27  N   UNL d   1     -10.615  -0.198   4.928 -0.21 -0.07    -0.248 N 
DOCKED: ATOM     28  N   UNL d   1     -12.991  -0.511   3.324 -0.18 -0.16    -0.248 N 
DOCKED: ATOM     29 FE   UNL d   1     -11.047   0.043   2.973 -0.07 +0.00    +0.000 Fe
DOCKED: ENDROOT
DOCKED: BRANCH   6  30
DOCKED: ATOM     30  C   UNL d   1     -13.707   0.621  -1.859 -0.17 +0.05    +0.052 C 
DOCKED: BRANCH  30  31
DOCKED: ATOM     31  C   UNL d   1     -13.826   2.013  -2.470 -0.09 +0.11    +0.115 C 
DOCKED: BRANCH  31  32
DOCKED: ATOM     32  C   UNL d   1     -15.108   2.669  -2.039 +0.31 +0.23    +0.139 C 
DOCKED: ATOM     33  O   UNL d   1     -15.210   3.887  -2.023 -0.50 -0.91    -0.650 OA
DOCKED: BRANCH  32  34
DOCKED: ATOM     34  O   UNL d   1     -16.158   1.917  -1.666 +0.05 -1.38    -0.776 OA
DOCKED: ATOM     35  H   UNL d   1     -16.843   1.712  -2.317 +0.01 +0.17    +0.167 HD
DOCKED: ENDBRANCH  32  34
DOCKED: ENDBRANCH  31  32
DOCKED: ENDBRANCH  30  31
DOCKED: ENDBRANCH   6  30
DOCKED: BRANCH  22  36
DOCKED: ATOM     36  C   UNL d   1     -16.311  -1.831   2.281 -0.13 +0.05    +0.052 C 
DOCKED: BRANCH  36  37
DOCKED: ATOM     37  C   UNL d   1     -16.998  -0.659   1.595 -0.11 +0.14    +0.115 C 
DOCKED: BRANCH  37  38
DOCKED: ATOM     38  C   UNL d   1     -17.572   0.295   2.604 -0.18 +0.20    +0.139 C 
DOCKED: ATOM     39  O   UNL d   1     -17.469   0.075   3.801 -0.03 -0.77    -0.650 OA
DOCKED: BRANCH  38  40
DOCKED: ATOM     40  O   UNL d   1     -18.209   1.405   2.191 -0.48 -1.64    -0.776 OA
DOCKED: ATOM     41  H   UNL d   1     -18.497   1.467   1.269 +0.02 +0.30    +0.167 HD
DOCKED: ENDBRANCH  38  40
DOCKED: ENDBRANCH  37  38
DOCKED: ENDBRANCH  36  37
DOCKED: ENDBRANCH  22  36
DOCKED: BRANCH  12  42
DOCKED: ATOM     42  C   UNL d   1      -5.470   0.882   3.452 -0.30 +0.00    +0.004 C 
DOCKED: ATOM     43  C   UNL d   1      -4.771   2.024   3.476 -0.28 +0.00    +0.012 C 
DOCKED: ENDBRANCH  12  42
DOCKED: BRANCH  17  44
DOCKED: ATOM     44  C   UNL d   1     -11.478  -0.587   8.497 -0.58 +0.00    +0.004 C 
DOCKED: ATOM     45  C   UNL d   1     -12.674  -0.062   8.782 -0.59 +0.00    +0.012 C 
DOCKED: ENDBRANCH  17  44
DOCKED: TORSDOF 10
DOCKED: TER
DOCKED: ENDMDL
________________________________________________________________________________


	BEGINNING GENETIC ALGORITHM DOCKING 43 of 100
Run: 43 Seed: 2020259023 1298996714 [ Run 43 of 100 GA/GALS ]
Beginning LAMARCKIAN GENETIC ALGORITHM (LGA), with a maximum of 25000000 energy evaluations.

Final-Value: -13.760


	FINAL GENETIC ALGORITHM DOCKED STATE
	_______________________________________________


Detailed state:  trans -13.916 -1.296 3.149 quatxyzw 0.408939 0.588505 0.341839 0.607927 center -0.174 -0.001 -0.047 ntor 10 -17.7912 -99.2959 -168.5890 52.5287 -99.6205 162.8923 -92.5634 55.7561 -179.3687 -153.3165
State:	-13.916  -1.296   3.149   0.515  0.741  0.431 105.120    -17.79  -99.30 -168.59   52.53  -99.62  162.89  -92.56   55.76 -179.37 -153.32

DOCKED: MODEL       43
DOCKED: USER    Run = 43
DOCKED: USER    DPF = D:/Protein_go_brrr/autodock/final/AncMH_nat/heme_Fe/dock.dpf
DOCKED: USER  
DOCKED: USER    Estimated Free Energy of Binding    =   -8.70 kcal/mol  [=(1)+(2)+(3)-(4)]
DOCKED: USER    Estimated Inhibition Constant, Ki   =  418.51 nM (nanomolar)  [Temperature = 298.15 K]
DOCKED: USER    
DOCKED: USER    (1) Final Intermolecular Energy     =  -11.68 kcal/mol
DOCKED: USER        vdW + Hbond + desolv Energy     =   -8.69 kcal/mol
DOCKED: USER        Electrostatic Energy            =   -2.99 kcal/mol
DOCKED: USER    (2) Final Total Internal Energy     =   -2.08 kcal/mol
DOCKED: USER    (3) Torsional Free Energy           =   +2.98 kcal/mol
DOCKED: USER    (4) Unbound System's Energy  [=(2)] =   -2.08 kcal/mol
DOCKED: USER    
DOCKED: USER    
DOCKED: USER    NEWDPF move heme_Fe_opt.pdbqt
DOCKED: USER    NEWDPF about -0.174000 -0.001000 -0.047000
DOCKED: USER    NEWDPF tran0 -13.916057 -1.295912 3.149171
DOCKED: USER    NEWDPF quaternion0 0.408939 0.588505 0.341839 0.607927
DOCKED: USER    NEWDPF axisangle0 0.515042 0.741198 0.430532 105.120414
DOCKED: USER    NEWDPF quat0 0.515042 0.741198 0.430532 105.120414
DOCKED: USER    NEWDPF dihe0 -17.79 -99.30 -168.59 52.53 -99.62 162.89 -92.56 55.76 -179.37 -153.32 
DOCKED: USER  keepresnum = 1 
DOCKED: USER  
DOCKED: REMARK  10 active torsions:
DOCKED: REMARK  status: ('A' for Active; 'I' for Inactive)
DOCKED: REMARK    1  A    between atoms: C_6  and  C_10 
DOCKED: REMARK    2  A    between atoms: C_10  and  C_11 
DOCKED: REMARK    3  A    between atoms: C_11  and  C_12 
DOCKED: REMARK    4  A    between atoms: C_12  and  O_14 
DOCKED: REMARK    5  A    between atoms: C_17  and  C_20 
DOCKED: REMARK    6  A    between atoms: C_24  and  C_27 
DOCKED: REMARK    7  A    between atoms: C_31  and  C_34 
DOCKED: REMARK    8  A    between atoms: C_34  and  C_35 
DOCKED: REMARK    9  A    between atoms: C_35  and  C_36 
DOCKED: REMARK   10  A    between atoms: C_36  and  O_38 
DOCKED: USER                              x       y       z     vdW  Elec       q    Type
DOCKED: USER                           _______ _______ _______ _____ _____    ______ ____
DOCKED: ROOT
DOCKED: ATOM      1  C   UNL d   1     -14.347  -0.973   1.169 -0.25 +0.08    +0.064 C 
DOCKED: ATOM      2  C   UNL d   1     -16.976  -2.343   5.124 -0.07 +0.03    +0.064 A 
DOCKED: ATOM      3  C   UNL d   1     -13.363  -0.900   7.940 -0.46 +0.01    +0.064 C 
DOCKED: ATOM      4  C   UNL d   1     -10.759   0.336   4.121 -0.36 +0.02    +0.064 C 
DOCKED: ATOM      5  C   UNL d   1     -15.388  -1.570   2.017 -0.16 +0.07    +0.066 A 
DOCKED: ATOM      6  C   UNL d   1     -16.532  -2.192   1.545 -0.11 -0.02    -0.021 A 
DOCKED: ATOM      7  C   UNL d   1     -17.263  -2.569   2.644 -0.06 -0.02    -0.025 A 
DOCKED: ATOM      8  C   UNL d   1     -16.536  -2.162   3.746 -0.07 +0.05    +0.066 A 
DOCKED: ATOM      9  C   UNL d   1     -18.574  -3.294   2.626 -0.03 +0.03    +0.051 C 
DOCKED: ATOM     10  C   UNL d   1     -16.268  -2.012   6.205 -0.12 +0.03    +0.066 A 
DOCKED: ATOM     11  C   UNL d   1     -16.763  -2.093   7.509 -0.17 -0.01    -0.021 A 
DOCKED: ATOM     12  C   UNL d   1     -15.746  -1.666   8.339 -0.27 +0.00    +0.000 A 
DOCKED: ATOM     13  C   UNL d   1     -14.675  -1.336   7.490 -0.24 +0.02    +0.070 A 
DOCKED: ATOM     14  C   UNL d   1     -18.160  -2.491   7.939 -0.13 +0.02    +0.052 C 
DOCKED: ATOM     15  C   UNL d   1     -12.346  -0.532   7.125 -0.41 +0.01    +0.066 A 
DOCKED: ATOM     16  C   UNL d   1     -11.076  -0.217   7.591 -0.44 -0.00    -0.021 A 
DOCKED: ATOM     17  C   UNL d   1     -10.324   0.143   6.492 -0.46 +0.00    +0.000 A 
DOCKED: ATOM     18  C   UNL d   1     -11.156   0.043   5.379 -0.39 +0.02    +0.070 A 
DOCKED: ATOM     19  C   UNL d   1     -10.592  -0.228   9.016 -0.31 +0.01    +0.052 C 
DOCKED: ATOM     20  C   UNL d   1     -11.588   0.183   2.919 -0.25 +0.04    +0.066 A 
DOCKED: ATOM     21  C   UNL d   1     -11.262   0.667   1.644 -0.29 -0.02    -0.025 A 
DOCKED: ATOM     22  C   UNL d   1     -12.292   0.272   0.816 -0.26 -0.02    -0.021 A 
DOCKED: ATOM     23  C   UNL d   1     -13.204  -0.428   1.615 -0.25 +0.07    +0.066 A 
DOCKED: ATOM     24  C   UNL d   1     -10.051   1.464   1.219 -0.34 +0.02    +0.051 C 
DOCKED: ATOM     25  N   UNL d   1     -15.392  -1.563   3.361 -0.09 -0.20    -0.248 N 
DOCKED: ATOM     26  N   UNL d   1     -14.996  -1.539   6.188 -0.09 -0.09    -0.248 N 
DOCKED: ATOM     27  N   UNL d   1     -12.387  -0.414   5.761 -0.26 -0.06    -0.248 N 
DOCKED: ATOM     28  N   UNL d   1     -12.791  -0.440   2.906 -0.17 -0.18    -0.248 N 
DOCKED: ATOM     29 FE   UNL d   1     -13.892  -0.988   4.547 -0.06 +0.00    +0.000 Fe
DOCKED: ENDROOT
DOCKED: BRANCH   6  30
DOCKED: ATOM     30  C   UNL d   1     -16.904  -2.436   0.122 -0.05 +0.06    +0.052 C 
DOCKED: BRANCH  30  31
DOCKED: ATOM     31  C   UNL d   1     -17.709  -1.267  -0.434 -0.06 +0.11    +0.115 C 
DOCKED: BRANCH  31  32
DOCKED: ATOM     32  C   UNL d   1     -16.792  -0.213  -0.989 -0.08 +0.17    +0.139 C 
DOCKED: ATOM     33  O   UNL d   1     -16.522   0.785  -0.336 -0.21 -1.52    -0.650 OA
DOCKED: BRANCH  32  34
DOCKED: ATOM     34  O   UNL d   1     -16.259  -0.360  -2.214 +0.03 -0.70    -0.776 OA
DOCKED: ATOM     35  H   UNL d   1     -15.893   0.416  -2.663 +0.02 +0.14    +0.167 HD
DOCKED: ENDBRANCH  32  34
DOCKED: ENDBRANCH  31  32
DOCKED: ENDBRANCH  30  31
DOCKED: ENDBRANCH   6  30
DOCKED: BRANCH  22  36
DOCKED: ATOM     36  C   UNL d   1     -12.415   0.593  -0.650 -0.25 +0.05    +0.052 C 
DOCKED: BRANCH  36  37
DOCKED: ATOM     37  C   UNL d   1     -12.365   2.101  -0.851 -0.15 +0.13    +0.115 C 
DOCKED: BRANCH  37  38
DOCKED: ATOM     38  C   UNL d   1     -13.568   2.583  -1.611 +0.05 +0.20    +0.139 C 
DOCKED: ATOM     39  O   UNL d   1     -13.878   3.765  -1.608 -0.13 -0.91    -0.650 OA
DOCKED: BRANCH  38  40
DOCKED: ATOM     40  O   UNL d   1     -14.320   1.708  -2.303 +0.04 -0.87    -0.776 OA
DOCKED: ATOM     41  H   UNL d   1     -14.974   1.173  -1.830 +0.02 +0.24    +0.167 HD
DOCKED: ENDBRANCH  38  40
DOCKED: ENDBRANCH  37  38
DOCKED: ENDBRANCH  36  37
DOCKED: ENDBRANCH  22  36
DOCKED: BRANCH  12  42
DOCKED: ATOM     42  C   UNL d   1     -15.837  -1.576   9.830 -0.13 +0.00    +0.004 C 
DOCKED: ATOM     43  C   UNL d   1     -15.655  -0.410  10.463 -0.40 +0.00    +0.012 C 
DOCKED: ENDBRANCH  12  42
DOCKED: BRANCH  17  44
DOCKED: ATOM     44  C   UNL d   1      -8.897   0.537   6.503 -0.38 +0.00    +0.004 C 
DOCKED: ATOM     45  C   UNL d   1      -7.955  -0.292   6.043 -0.44 +0.00    +0.012 C 
DOCKED: ENDBRANCH  17  44
DOCKED: TORSDOF 10
DOCKED: TER
DOCKED: ENDMDL
________________________________________________________________________________


	BEGINNING GENETIC ALGORITHM DOCKING 44 of 100
Run: 44 Seed: 1053440332 1005515005 [ Run 44 of 100 GA/GALS ]
Beginning LAMARCKIAN GENETIC ALGORITHM (LGA), with a maximum of 25000000 energy evaluations.

Final-Value: -13.410


	FINAL GENETIC ALGORITHM DOCKED STATE
	_______________________________________________


Detailed state:  trans -14.842 0.245 0.632 quatxyzw -0.759644 -0.186553 0.135317 0.608135 center -0.174 -0.001 -0.047 ntor 10 103.2105 -12.8358 22.6825 -103.5087 -138.0662 84.6087 91.6466 -114.0978 23.8410 -3.8770
State:	-14.842   0.245   0.632  -0.957 -0.235  0.170 105.090    103.21  -12.84   22.68 -103.51 -138.07   84.61   91.65 -114.10   23.84   -3.88

DOCKED: MODEL       44
DOCKED: USER    Run = 44
DOCKED: USER    DPF = D:/Protein_go_brrr/autodock/final/AncMH_nat/heme_Fe/dock.dpf
DOCKED: USER  
DOCKED: USER    Estimated Free Energy of Binding    =   -8.64 kcal/mol  [=(1)+(2)+(3)-(4)]
DOCKED: USER    Estimated Inhibition Constant, Ki   =  462.10 nM (nanomolar)  [Temperature = 298.15 K]
DOCKED: USER    
DOCKED: USER    (1) Final Intermolecular Energy     =  -11.63 kcal/mol
DOCKED: USER        vdW + Hbond + desolv Energy     =   -7.25 kcal/mol
DOCKED: USER        Electrostatic Energy            =   -4.37 kcal/mol
DOCKED: USER    (2) Final Total Internal Energy     =   -1.78 kcal/mol
DOCKED: USER    (3) Torsional Free Energy           =   +2.98 kcal/mol
DOCKED: USER    (4) Unbound System's Energy  [=(2)] =   -1.78 kcal/mol
DOCKED: USER    
DOCKED: USER    
DOCKED: USER    NEWDPF move heme_Fe_opt.pdbqt
DOCKED: USER    NEWDPF about -0.174000 -0.001000 -0.047000
DOCKED: USER    NEWDPF tran0 -14.842441 0.244859 0.632256
DOCKED: USER    NEWDPF quaternion0 -0.759644 -0.186553 0.135317 0.608135
DOCKED: USER    NEWDPF axisangle0 -0.956931 -0.235003 0.170460 105.090445
DOCKED: USER    NEWDPF quat0 -0.956931 -0.235003 0.170460 105.090445
DOCKED: USER    NEWDPF dihe0 103.21 -12.84 22.68 -103.51 -138.07 84.61 91.65 -114.10 23.84 -3.88 
DOCKED: USER  keepresnum = 1 
DOCKED: USER  
DOCKED: REMARK  10 active torsions:
DOCKED: REMARK  status: ('A' for Active; 'I' for Inactive)
DOCKED: REMARK    1  A    between atoms: C_6  and  C_10 
DOCKED: REMARK    2  A    between atoms: C_10  and  C_11 
DOCKED: REMARK    3  A    between atoms: C_11  and  C_12 
DOCKED: REMARK    4  A    between atoms: C_12  and  O_14 
DOCKED: REMARK    5  A    between atoms: C_17  and  C_20 
DOCKED: REMARK    6  A    between atoms: C_24  and  C_27 
DOCKED: REMARK    7  A    between atoms: C_31  and  C_34 
DOCKED: REMARK    8  A    between atoms: C_34  and  C_35 
DOCKED: REMARK    9  A    between atoms: C_35  and  C_36 
DOCKED: REMARK   10  A    between atoms: C_36  and  O_38 
DOCKED: USER                              x       y       z     vdW  Elec       q    Type
DOCKED: USER                           _______ _______ _______ _____ _____    ______ ____
DOCKED: ROOT
DOCKED: ATOM      1  C   UNL d   1     -16.628  -0.498   1.318 -0.13 +0.09    +0.064 C 
DOCKED: ATOM      2  C   UNL d   1     -14.858   0.760  -3.122 -0.06 +0.05    +0.064 A 
DOCKED: ATOM      3  C   UNL d   1     -10.427   0.793  -1.269 -0.34 +0.02    +0.064 C 
DOCKED: ATOM      4  C   UNL d   1     -12.130  -0.320   3.061 -0.17 +0.04    +0.064 C 
DOCKED: ATOM      5  C   UNL d   1     -16.550  -0.065  -0.084 +0.01 +0.11    +0.066 A 
DOCKED: ATOM      6  C   UNL d   1     -17.642   0.149  -0.907 -0.05 -0.02    -0.021 A 
DOCKED: ATOM      7  C   UNL d   1     -17.150   0.495  -2.141 -0.04 -0.02    -0.025 A 
DOCKED: ATOM      8  C   UNL d   1     -15.774   0.478  -2.023 -0.08 +0.07    +0.066 A 
DOCKED: ATOM      9  C   UNL d   1     -17.962   0.838  -3.352 -0.00 +0.03    +0.051 C 
DOCKED: ATOM     10  C   UNL d   1     -13.528   0.806  -3.021 -0.10 +0.04    +0.066 A 
DOCKED: ATOM     11  C   UNL d   1     -12.673   0.965  -4.114 -0.10 -0.01    -0.021 A 
DOCKED: ATOM     12  C   UNL d   1     -11.389   0.961  -3.608 -0.26 +0.00    +0.000 A 
DOCKED: ATOM     13  C   UNL d   1     -11.528   0.791  -2.220 -0.23 +0.03    +0.070 A 
DOCKED: ATOM     14  C   UNL d   1     -13.058   1.048  -5.577 -0.05 +0.00    +0.052 C 
DOCKED: ATOM     15  C   UNL d   1     -10.551   0.577   0.062 -0.31 +0.03    +0.066 A 
DOCKED: ATOM     16  C   UNL d   1      -9.489   0.687   0.950 -0.39 -0.01    -0.021 A 
DOCKED: ATOM     17  C   UNL d   1      -9.977   0.363   2.199 -0.35 +0.00    +0.000 A 
DOCKED: ATOM     18  C   UNL d   1     -11.327   0.059   2.042 -0.24 +0.04    +0.070 A 
DOCKED: ATOM     19  C   UNL d   1      -8.064   1.057   0.637 -0.46 +0.01    +0.052 C 
DOCKED: ATOM     20  C   UNL d   1     -13.568  -0.588   2.944 -0.24 +0.05    +0.066 A 
DOCKED: ATOM     21  C   UNL d   1     -14.367  -1.171   3.939 -0.19 -0.02    -0.025 A 
DOCKED: ATOM     22  C   UNL d   1     -15.647  -1.200   3.426 -0.15 -0.02    -0.021 A 
DOCKED: ATOM     23  C   UNL d   1     -15.579  -0.644   2.143 -0.16 +0.08    +0.066 A 
DOCKED: ATOM     24  C   UNL d   1     -13.956  -1.680   5.301 -0.30 +0.02    +0.051 C 
DOCKED: ATOM     25  N   UNL d   1     -15.412   0.146  -0.768 -0.03 -0.42    -0.248 N 
DOCKED: ATOM     26  N   UNL d   1     -12.831   0.687  -1.862 -0.11 -0.20    -0.248 N 
DOCKED: ATOM     27  N   UNL d   1     -11.691   0.232   0.736 -0.16 -0.19    -0.248 N 
DOCKED: ATOM     28  N   UNL d   1     -14.300  -0.313   1.837 -0.15 -0.34    -0.248 N 
DOCKED: ATOM     29 FE   UNL d   1     -13.565   0.186  -0.011 -0.05 +0.00    +0.000 Fe
DOCKED: ENDROOT
DOCKED: BRANCH   6  30
DOCKED: ATOM     30  C   UNL d   1     -19.083   0.052  -0.538 -0.02 +0.04    +0.052 C 
DOCKED: BRANCH  30  31
DOCKED: ATOM     31  C   UNL d   1     -19.749   1.423  -0.595 -0.03 +0.10    +0.115 C 
DOCKED: BRANCH  31  32
DOCKED: ATOM     32  C   UNL d   1     -19.611   2.130   0.725 -0.09 +0.20    +0.139 C 
DOCKED: ATOM     33  O   UNL d   1     -20.550   2.753   1.199 -0.01 -1.13    -0.650 OA
DOCKED: BRANCH  32  34
DOCKED: ATOM     34  O   UNL d   1     -18.448   2.084   1.397 -0.50 -1.59    -0.776 OA
DOCKED: ATOM     35  H   UNL d   1     -18.218   1.279   1.882 +0.02 +0.32    +0.167 HD
DOCKED: ENDBRANCH  32  34
DOCKED: ENDBRANCH  31  32
DOCKED: ENDBRANCH  30  31
DOCKED: ENDBRANCH   6  30
DOCKED: BRANCH  22  36
DOCKED: ATOM     36  C   UNL d   1     -16.857  -1.776   4.113 -0.10 +0.04    +0.052 C 
DOCKED: BRANCH  36  37
DOCKED: ATOM     37  C   UNL d   1     -17.584  -0.680   4.878 -0.10 +0.09    +0.115 C 
DOCKED: BRANCH  37  38
DOCKED: ATOM     38  C   UNL d   1     -18.142   0.352   3.939 -0.11 +0.20    +0.139 C 
DOCKED: ATOM     39  O   UNL d   1     -19.228   0.188   3.403 +0.04 -1.12    -0.650 OA
DOCKED: BRANCH  38  40
DOCKED: ATOM     40  O   UNL d   1     -17.442   1.471   3.679 -0.05 -1.39    -0.776 OA
DOCKED: ATOM     41  H   UNL d   1     -17.712   2.032   2.939 +0.02 +0.39    +0.167 HD
DOCKED: ENDBRANCH  38  40
DOCKED: ENDBRANCH  37  38
DOCKED: ENDBRANCH  36  37
DOCKED: ENDBRANCH  22  36
DOCKED: BRANCH  12  42
DOCKED: ATOM     42  C   UNL d   1     -10.145   1.095  -4.428 -0.41 -0.00    +0.004 C 
DOCKED: ATOM     43  C   UNL d   1      -9.825   2.258  -5.011 -0.33 -0.01    +0.012 C 
DOCKED: ENDBRANCH  12  42
DOCKED: BRANCH  17  44
DOCKED: ATOM     44  C   UNL d   1      -9.207   0.365   3.463 -0.36 +0.00    +0.004 C 
DOCKED: ATOM     45  C   UNL d   1      -8.025  -0.256   3.546 -0.34 +0.00    +0.012 C 
DOCKED: ENDBRANCH  17  44
DOCKED: TORSDOF 10
DOCKED: TER
DOCKED: ENDMDL
________________________________________________________________________________


	BEGINNING GENETIC ALGORITHM DOCKING 45 of 100
Run: 45 Seed: 1889472688 49753683 [ Run 45 of 100 GA/GALS ]
Beginning LAMARCKIAN GENETIC ALGORITHM (LGA), with a maximum of 25000000 energy evaluations.

Final-Value: -15.289


	FINAL GENETIC ALGORITHM DOCKED STATE
	_______________________________________________


Detailed state:  trans -12.728 -0.865 1.557 quatxyzw -0.539643 -0.410120 -0.167715 -0.715862 center -0.174 -0.001 -0.047 ntor 10 180.0000 157.9386 109.6305 -149.1749 -90.1593 180.0000 -147.9149 -72.0642 -179.0906 1.8379
State:	-12.728  -0.865   1.557  -0.773 -0.587 -0.240 -88.572    180.00  157.94  109.63 -149.17  -90.16  180.00 -147.91  -72.06 -179.09    1.84

DOCKED: MODEL       45
DOCKED: USER    Run = 45
DOCKED: USER    DPF = D:/Protein_go_brrr/autodock/final/AncMH_nat/heme_Fe/dock.dpf
DOCKED: USER  
DOCKED: USER    Estimated Free Energy of Binding    =  -10.59 kcal/mol  [=(1)+(2)+(3)-(4)]
DOCKED: USER    Estimated Inhibition Constant, Ki   =   17.39 nM (nanomolar)  [Temperature = 298.15 K]
DOCKED: USER    
DOCKED: USER    (1) Final Intermolecular Energy     =  -13.57 kcal/mol
DOCKED: USER        vdW + Hbond + desolv Energy     =  -10.09 kcal/mol
DOCKED: USER        Electrostatic Energy            =   -3.48 kcal/mol
DOCKED: USER    (2) Final Total Internal Energy     =   -1.72 kcal/mol
DOCKED: USER    (3) Torsional Free Energy           =   +2.98 kcal/mol
DOCKED: USER    (4) Unbound System's Energy  [=(2)] =   -1.72 kcal/mol
DOCKED: USER    
DOCKED: USER    
DOCKED: USER    NEWDPF move heme_Fe_opt.pdbqt
DOCKED: USER    NEWDPF about -0.174000 -0.001000 -0.047000
DOCKED: USER    NEWDPF tran0 -12.727997 -0.865475 1.557314
DOCKED: USER    NEWDPF quaternion0 -0.539643 -0.410120 -0.167715 -0.715862
DOCKED: USER    NEWDPF axisangle0 -0.772860 -0.587361 -0.240197 -88.572276
DOCKED: USER    NEWDPF quat0 -0.772860 -0.587361 -0.240197 -88.572276
DOCKED: USER    NEWDPF dihe0 180.00 157.94 109.63 -149.17 -90.16 180.00 -147.91 -72.06 -179.09 1.84 
DOCKED: USER  keepresnum = 1 
DOCKED: USER  
DOCKED: REMARK  10 active torsions:
DOCKED: REMARK  status: ('A' for Active; 'I' for Inactive)
DOCKED: REMARK    1  A    between atoms: C_6  and  C_10 
DOCKED: REMARK    2  A    between atoms: C_10  and  C_11 
DOCKED: REMARK    3  A    between atoms: C_11  and  C_12 
DOCKED: REMARK    4  A    between atoms: C_12  and  O_14 
DOCKED: REMARK    5  A    between atoms: C_17  and  C_20 
DOCKED: REMARK    6  A    between atoms: C_24  and  C_27 
DOCKED: REMARK    7  A    between atoms: C_31  and  C_34 
DOCKED: REMARK    8  A    between atoms: C_34  and  C_35 
DOCKED: REMARK    9  A    between atoms: C_35  and  C_36 
DOCKED: REMARK   10  A    between atoms: C_36  and  O_38 
DOCKED: USER                              x       y       z     vdW  Elec       q    Type
DOCKED: USER                           _______ _______ _______ _____ _____    ______ ____
DOCKED: ROOT
DOCKED: ATOM      1  C   UNL d   1     -14.188  -0.804   0.116 -0.16 +0.09    +0.064 C 
DOCKED: ATOM      2  C   UNL d   1     -14.161  -1.442   5.017 -0.17 +0.03    +0.064 A 
DOCKED: ATOM      3  C   UNL d   1      -9.641   0.177   5.134 -0.19 +0.02    +0.064 C 
DOCKED: ATOM      4  C   UNL d   1      -9.609   0.703   0.379 -0.41 +0.02    +0.064 C 
DOCKED: ATOM      5  C   UNL d   1     -14.571  -1.212   1.475 -0.21 +0.08    +0.066 A 
DOCKED: ATOM      6  C   UNL d   1     -15.766  -1.828   1.807 -0.15 -0.02    -0.021 A 
DOCKED: ATOM      7  C   UNL d   1     -15.760  -2.002   3.169 -0.13 -0.02    -0.025 A 
DOCKED: ATOM      8  C   UNL d   1     -14.559  -1.485   3.616 -0.19 +0.05    +0.066 A 
DOCKED: ATOM      9  C   UNL d   1     -16.840  -2.645   3.983 -0.08 +0.03    +0.051 C 
DOCKED: ATOM     10  C   UNL d   1     -12.985  -1.002   5.469 -0.29 +0.02    +0.066 A 
DOCKED: ATOM     11  C   UNL d   1     -12.677  -0.867   6.825 -0.41 -0.00    -0.021 A 
DOCKED: ATOM     12  C   UNL d   1     -11.385  -0.385   6.885 -0.43 +0.00    +0.000 A 
DOCKED: ATOM     13  C   UNL d   1     -10.970  -0.243   5.550 -0.37 +0.02    +0.070 A 
DOCKED: ATOM     14  C   UNL d   1     -13.594  -1.118   8.005 -0.43 +0.00    +0.052 C 
DOCKED: ATOM     15  C   UNL d   1      -9.253   0.365   3.851 -0.15 +0.02    +0.066 A 
DOCKED: ATOM     16  C   UNL d   1      -7.946   0.670   3.490 -0.27 -0.01    -0.021 A 
DOCKED: ATOM     17  C   UNL d   1      -7.935   0.825   2.120 -0.39 +0.00    +0.000 A 
DOCKED: ATOM     18  C   UNL d   1      -9.239   0.616   1.676 -0.34 +0.02    +0.070 A 
DOCKED: ATOM     19  C   UNL d   1      -6.757   0.834   4.399 -0.37 +0.01    +0.052 C 
DOCKED: ATOM     20  C   UNL d   1     -10.958   0.429  -0.132 -0.28 +0.04    +0.066 A 
DOCKED: ATOM     21  C   UNL d   1     -11.403   0.707  -1.432 -0.26 -0.01    -0.025 A 
DOCKED: ATOM     22  C   UNL d   1     -12.706   0.258  -1.488 -0.20 -0.02    -0.021 A 
DOCKED: ATOM     23  C   UNL d   1     -13.005  -0.268  -0.226 -0.15 +0.07    +0.066 A 
DOCKED: ATOM     24  C   UNL d   1     -10.651   1.363  -2.566 -0.32 +0.01    +0.051 C 
DOCKED: ATOM     25  N   UNL d   1     -13.834  -1.014   2.581 -0.16 -0.22    -0.248 N 
DOCKED: ATOM     26  N   UNL d   1     -11.948  -0.610   4.686 -0.16 -0.08    -0.248 N 
DOCKED: ATOM     27  N   UNL d   1     -10.041   0.290   2.734 -0.19 -0.08    -0.248 N 
DOCKED: ATOM     28  N   UNL d   1     -11.949  -0.119   0.611 -0.17 -0.20    -0.248 N 
DOCKED: ATOM     29 FE   UNL d   1     -11.947  -0.364   2.647 -0.07 +0.00    +0.000 Fe
DOCKED: ENDROOT
DOCKED: BRANCH   6  30
DOCKED: ATOM     30  C   UNL d   1     -16.852  -2.251   0.878 -0.11 +0.06    +0.052 C 
DOCKED: BRANCH  30  31
DOCKED: ATOM     31  C   UNL d   1     -17.863  -1.126   0.681 -0.05 +0.11    +0.115 C 
DOCKED: BRANCH  31  32
DOCKED: ATOM     32  C   UNL d   1     -17.184   0.213   0.769 +0.07 +0.23    +0.139 C 
DOCKED: ATOM     33  O   UNL d   1     -17.084   0.792   1.841 -0.29 -1.29    -0.650 OA
DOCKED: BRANCH  32  34
DOCKED: ATOM     34  O   UNL d   1     -16.678   0.787  -0.336 -0.23 -1.70    -0.776 OA
DOCKED: ATOM     35  H   UNL d   1     -16.759   0.326  -1.183 +0.02 +0.22    +0.167 HD
DOCKED: ENDBRANCH  32  34
DOCKED: ENDBRANCH  31  32
DOCKED: ENDBRANCH  30  31
DOCKED: ENDBRANCH   6  30
DOCKED: BRANCH  22  36
DOCKED: ATOM     36  C   UNL d   1     -13.625   0.373  -2.676 -0.15 +0.04    +0.052 C 
DOCKED: BRANCH  36  37
DOCKED: ATOM     37  C   UNL d   1     -13.649  -0.944  -3.437 -0.09 +0.07    +0.115 C 
DOCKED: BRANCH  37  38
DOCKED: ATOM     38  C   UNL d   1     -14.949  -1.667  -3.224 -0.06 +0.12    +0.139 C 
DOCKED: ATOM     39  O   UNL d   1     -15.159  -2.747  -3.756 -0.23 -0.68    -0.650 OA
DOCKED: BRANCH  38  40
DOCKED: ATOM     40  O   UNL d   1     -15.899  -1.123  -2.442 +0.00 -0.69    -0.776 OA
DOCKED: ATOM     41  H   UNL d   1     -15.643  -0.465  -1.780 +0.03 +0.18    +0.167 HD
DOCKED: ENDBRANCH  38  40
DOCKED: ENDBRANCH  37  38
DOCKED: ENDBRANCH  36  37
DOCKED: ENDBRANCH  22  36
DOCKED: BRANCH  12  42
DOCKED: ATOM     42  C   UNL d   1     -10.644  -0.079   8.148 -0.55 +0.00    +0.004 C 
DOCKED: ATOM     43  C   UNL d   1      -9.305  -0.050   8.171 -0.40 +0.00    +0.012 C 
DOCKED: ENDBRANCH  12  42
DOCKED: BRANCH  17  44
DOCKED: ATOM     44  C   UNL d   1      -6.751   1.134   1.287 -0.43 +0.00    +0.004 C 
DOCKED: ATOM     45  C   UNL d   1      -6.468   2.393   0.938 -0.49 +0.00    +0.012 C 
DOCKED: ENDBRANCH  17  44
DOCKED: TORSDOF 10
DOCKED: TER
DOCKED: ENDMDL
________________________________________________________________________________


	BEGINNING GENETIC ALGORITHM DOCKING 46 of 100
Run: 46 Seed: 118362487 1324424776 [ Run 46 of 100 GA/GALS ]
Beginning LAMARCKIAN GENETIC ALGORITHM (LGA), with a maximum of 25000000 energy evaluations.

Final-Value: -14.488


	FINAL GENETIC ALGORITHM DOCKED STATE
	_______________________________________________


Detailed state:  trans -14.595 -1.217 3.084 quatxyzw 0.770594 0.066758 0.194044 -0.603386 center -0.174 -0.001 -0.047 ntor 10 -155.7528 161.9870 166.4423 61.6433 -89.7699 132.7275 -170.3421 106.1775 0.5964 178.9210
State:	-14.595  -1.217   3.084   0.966  0.084  0.243 -105.774   -155.75  161.99  166.44   61.64  -89.77  132.73 -170.34  106.18    0.60  178.92

DOCKED: MODEL       46
DOCKED: USER    Run = 46
DOCKED: USER    DPF = D:/Protein_go_brrr/autodock/final/AncMH_nat/heme_Fe/dock.dpf
DOCKED: USER  
DOCKED: USER    Estimated Free Energy of Binding    =  -10.85 kcal/mol  [=(1)+(2)+(3)-(4)]
DOCKED: USER    Estimated Inhibition Constant, Ki   =   11.05 nM (nanomolar)  [Temperature = 298.15 K]
DOCKED: USER    
DOCKED: USER    (1) Final Intermolecular Energy     =  -13.84 kcal/mol
DOCKED: USER        vdW + Hbond + desolv Energy     =  -10.25 kcal/mol
DOCKED: USER        Electrostatic Energy            =   -3.58 kcal/mol
DOCKED: USER    (2) Final Total Internal Energy     =   -0.65 kcal/mol
DOCKED: USER    (3) Torsional Free Energy           =   +2.98 kcal/mol
DOCKED: USER    (4) Unbound System's Energy  [=(2)] =   -0.65 kcal/mol
DOCKED: USER    
DOCKED: USER    
DOCKED: USER    NEWDPF move heme_Fe_opt.pdbqt
DOCKED: USER    NEWDPF about -0.174000 -0.001000 -0.047000
DOCKED: USER    NEWDPF tran0 -14.595442 -1.217276 3.084090
DOCKED: USER    NEWDPF quaternion0 0.770594 0.066758 0.194044 -0.603386
DOCKED: USER    NEWDPF axisangle0 0.966324 0.083715 0.243331 -105.774412
DOCKED: USER    NEWDPF quat0 0.966324 0.083715 0.243331 -105.774412
DOCKED: USER    NEWDPF dihe0 -155.75 161.99 166.44 61.64 -89.77 132.73 -170.34 106.18 0.60 178.92 
DOCKED: USER  keepresnum = 1 
DOCKED: USER  
DOCKED: REMARK  10 active torsions:
DOCKED: REMARK  status: ('A' for Active; 'I' for Inactive)
DOCKED: REMARK    1  A    between atoms: C_6  and  C_10 
DOCKED: REMARK    2  A    between atoms: C_10  and  C_11 
DOCKED: REMARK    3  A    between atoms: C_11  and  C_12 
DOCKED: REMARK    4  A    between atoms: C_12  and  O_14 
DOCKED: REMARK    5  A    between atoms: C_17  and  C_20 
DOCKED: REMARK    6  A    between atoms: C_24  and  C_27 
DOCKED: REMARK    7  A    between atoms: C_31  and  C_34 
DOCKED: REMARK    8  A    between atoms: C_34  and  C_35 
DOCKED: REMARK    9  A    between atoms: C_35  and  C_36 
DOCKED: REMARK   10  A    between atoms: C_36  and  O_38 
DOCKED: USER                              x       y       z     vdW  Elec       q    Type
DOCKED: USER                           _______ _______ _______ _____ _____    ______ ____
DOCKED: ROOT
DOCKED: ATOM      1  C   UNL d   1     -16.200  -2.350   2.490 -0.13 +0.06    +0.064 C 
DOCKED: ATOM      2  C   UNL d   1     -12.493  -0.070   0.148 -0.23 +0.06    +0.064 A 
DOCKED: ATOM      3  C   UNL d   1     -10.202   0.370   4.347 -0.29 +0.02    +0.064 C 
DOCKED: ATOM      4  C   UNL d   1     -13.826  -1.741   6.649 -0.37 +0.01    +0.064 C 
DOCKED: ATOM      5  C   UNL d   1     -15.406  -1.675   1.454 -0.16 +0.08    +0.066 A 
DOCKED: ATOM      6  C   UNL d   1     -15.805  -1.503   0.139 -0.15 -0.03    -0.021 A 
DOCKED: ATOM      7  C   UNL d   1     -14.774  -0.873  -0.512 -0.14 -0.03    -0.025 A 
DOCKED: ATOM      8  C   UNL d   1     -13.784  -0.684   0.433 -0.17 +0.09    +0.066 A 
DOCKED: ATOM      9  C   UNL d   1     -14.758  -0.464  -1.952 -0.16 +0.05    +0.051 C 
DOCKED: ATOM     10  C   UNL d   1     -11.543   0.176   1.053 -0.26 +0.05    +0.066 A 
DOCKED: ATOM     11  C   UNL d   1     -10.273   0.660   0.730 -0.34 -0.01    -0.021 A 
DOCKED: ATOM     12  C   UNL d   1      -9.587   0.780   1.922 -0.35 +0.00    +0.000 A 
DOCKED: ATOM     13  C   UNL d   1     -10.480   0.351   2.919 -0.26 +0.03    +0.070 A 
DOCKED: ATOM     14  C   UNL d   1      -9.716   0.931  -0.653 -0.38 +0.01    +0.052 C 
DOCKED: ATOM     15  C   UNL d   1     -11.039  -0.091   5.306 -0.38 +0.02    +0.066 A 
DOCKED: ATOM     16  C   UNL d   1     -10.779   0.036   6.665 -0.46 -0.00    -0.021 A 
DOCKED: ATOM     17  C   UNL d   1     -11.821  -0.575   7.331 -0.44 +0.00    +0.000 A 
DOCKED: ATOM     18  C   UNL d   1     -12.692  -1.065   6.361 -0.35 +0.01    +0.070 A 
DOCKED: ATOM     19  C   UNL d   1      -9.586   0.684   7.314 -0.45 +0.01    +0.052 C 
DOCKED: ATOM     20  C   UNL d   1     -14.797  -2.218   5.657 -0.20 +0.03    +0.066 A 
DOCKED: ATOM     21  C   UNL d   1     -15.865  -3.087   5.922 -0.16 -0.01    -0.025 A 
DOCKED: ATOM     22  C   UNL d   1     -16.536  -3.236   4.726 -0.10 -0.01    -0.021 A 
DOCKED: ATOM     23  C   UNL d   1     -15.851  -2.462   3.782 -0.10 +0.05    +0.066 A 
DOCKED: ATOM     24  C   UNL d   1     -16.241  -3.749   7.227 -0.29 +0.01    +0.051 C 
DOCKED: ATOM     25  N   UNL d   1     -14.175  -1.164   1.630 -0.16 -0.28    -0.248 N 
DOCKED: ATOM     26  N   UNL d   1     -11.670  -0.026   2.389 -0.16 -0.15    -0.248 N 
DOCKED: ATOM     27  N   UNL d   1     -12.235  -0.730   5.117 -0.24 -0.07    -0.248 N 
DOCKED: ATOM     28  N   UNL d   1     -14.765  -1.879   4.345 -0.10 -0.14    -0.248 N 
DOCKED: ATOM     29 FE   UNL d   1     -13.218  -0.953   3.369 -0.06 +0.00    +0.000 Fe
DOCKED: ENDROOT
DOCKED: BRANCH   6  30
DOCKED: ATOM     30  C   UNL d   1     -17.109  -1.898  -0.467 -0.11 +0.05    +0.052 C 
DOCKED: BRANCH  30  31
DOCKED: ATOM     31  C   UNL d   1     -18.123  -0.765  -0.351 -0.03 +0.11    +0.115 C 
DOCKED: BRANCH  31  32
DOCKED: ATOM     32  C   UNL d   1     -17.453   0.495   0.122 +0.02 +0.22    +0.139 C 
DOCKED: ATOM     33  O   UNL d   1     -17.365   0.743   1.316 -0.39 -1.24    -0.650 OA
DOCKED: BRANCH  32  34
DOCKED: ATOM     34  O   UNL d   1     -16.944   1.363  -0.768 -0.05 -1.53    -0.776 OA
DOCKED: ATOM     35  H   UNL d   1     -17.298   1.375  -1.668 +0.02 +0.19    +0.167 HD
DOCKED: ENDBRANCH  32  34
DOCKED: ENDBRANCH  31  32
DOCKED: ENDBRANCH  30  31
DOCKED: ENDBRANCH   6  30
DOCKED: BRANCH  22  36
DOCKED: ATOM     36  C   UNL d   1     -17.738  -4.114   4.495 -0.10 +0.03    +0.052 C 
DOCKED: BRANCH  36  37
DOCKED: ATOM     37  C   UNL d   1     -17.287  -5.540   4.218 +0.02 +0.05    +0.115 C 
DOCKED: BRANCH  37  38
DOCKED: ATOM     38  C   UNL d   1     -16.719  -5.666   2.832 -0.06 +0.12    +0.139 C 
DOCKED: ATOM     39  O   UNL d   1     -15.658  -6.241   2.641 -0.37 -0.73    -0.650 OA
DOCKED: BRANCH  38  40
DOCKED: ATOM     40  O   UNL d   1     -17.380  -5.139   1.786 -0.21 -0.83    -0.776 OA
DOCKED: ATOM     41  H   UNL d   1     -18.318  -4.924   1.882 +0.02 +0.12    +0.167 HD
DOCKED: ENDBRANCH  38  40
DOCKED: ENDBRANCH  37  38
DOCKED: ENDBRANCH  36  37
DOCKED: ENDBRANCH  22  36
DOCKED: BRANCH  12  42
DOCKED: ATOM     42  C   UNL d   1      -8.175   1.256   2.054 -0.42 +0.00    +0.004 C 
DOCKED: ATOM     43  C   UNL d   1      -7.364   0.756   2.995 -0.40 +0.00    +0.012 C 
DOCKED: ENDBRANCH  12  42
DOCKED: BRANCH  17  44
DOCKED: ATOM     44  C   UNL d   1     -11.983  -0.666   8.799 -0.57 +0.00    +0.004 C 
DOCKED: ATOM     45  C   UNL d   1     -13.005  -0.062   9.414 -0.58 +0.00    +0.012 C 
DOCKED: ENDBRANCH  17  44
DOCKED: TORSDOF 10
DOCKED: TER
DOCKED: ENDMDL
________________________________________________________________________________


	BEGINNING GENETIC ALGORITHM DOCKING 47 of 100
Run: 47 Seed: 503284384 2004911242 [ Run 47 of 100 GA/GALS ]
Beginning LAMARCKIAN GENETIC ALGORITHM (LGA), with a maximum of 25000000 energy evaluations.

Final-Value: -10.964


	FINAL GENETIC ALGORITHM DOCKED STATE
	_______________________________________________


Detailed state:  trans -15.912 7.779 17.726 quatxyzw -0.915769 -0.225579 0.291773 0.159215 center -0.174 -0.001 -0.047 ntor 10 -11.8566 -173.0155 -99.6038 44.5207 -123.8333 73.2114 -136.4253 -165.9200 159.2708 158.9687
State:	-15.912   7.779  17.726  -0.928 -0.228  0.296 161.677    -11.86 -173.02  -99.60   44.52 -123.83   73.21 -136.43 -165.92  159.27  158.97

DOCKED: MODEL       47
DOCKED: USER    Run = 47
DOCKED: USER    DPF = D:/Protein_go_brrr/autodock/final/AncMH_nat/heme_Fe/dock.dpf
DOCKED: USER  
DOCKED: USER    Estimated Free Energy of Binding    =   -6.41 kcal/mol  [=(1)+(2)+(3)-(4)]
DOCKED: USER    Estimated Inhibition Constant, Ki   =   20.06 uM (micromolar)  [Temperature = 298.15 K]
DOCKED: USER    
DOCKED: USER    (1) Final Intermolecular Energy     =   -9.39 kcal/mol
DOCKED: USER        vdW + Hbond + desolv Energy     =   -6.66 kcal/mol
DOCKED: USER        Electrostatic Energy            =   -2.74 kcal/mol
DOCKED: USER    (2) Final Total Internal Energy     =   -1.57 kcal/mol
DOCKED: USER    (3) Torsional Free Energy           =   +2.98 kcal/mol
DOCKED: USER    (4) Unbound System's Energy  [=(2)] =   -1.57 kcal/mol
DOCKED: USER    
DOCKED: USER    
DOCKED: USER    NEWDPF move heme_Fe_opt.pdbqt
DOCKED: USER    NEWDPF about -0.174000 -0.001000 -0.047000
DOCKED: USER    NEWDPF tran0 -15.912308 7.779144 17.726065
DOCKED: USER    NEWDPF quaternion0 -0.915769 -0.225579 0.291773 0.159215
DOCKED: USER    NEWDPF axisangle0 -0.927602 -0.228494 0.295543 161.677312
DOCKED: USER    NEWDPF quat0 -0.927602 -0.228494 0.295543 161.677312
DOCKED: USER    NEWDPF dihe0 -11.86 -173.02 -99.60 44.52 -123.83 73.21 -136.43 -165.92 159.27 158.97 
DOCKED: USER  keepresnum = 1 
DOCKED: USER  
DOCKED: REMARK  10 active torsions:
DOCKED: REMARK  status: ('A' for Active; 'I' for Inactive)
DOCKED: REMARK    1  A    between atoms: C_6  and  C_10 
DOCKED: REMARK    2  A    between atoms: C_10  and  C_11 
DOCKED: REMARK    3  A    between atoms: C_11  and  C_12 
DOCKED: REMARK    4  A    between atoms: C_12  and  O_14 
DOCKED: REMARK    5  A    between atoms: C_17  and  C_20 
DOCKED: REMARK    6  A    between atoms: C_24  and  C_27 
DOCKED: REMARK    7  A    between atoms: C_31  and  C_34 
DOCKED: REMARK    8  A    between atoms: C_34  and  C_35 
DOCKED: REMARK    9  A    between atoms: C_35  and  C_36 
DOCKED: REMARK   10  A    between atoms: C_36  and  O_38 
DOCKED: USER                              x       y       z     vdW  Elec       q    Type
DOCKED: USER                           _______ _______ _______ _____ _____    ______ ____
DOCKED: ROOT
DOCKED: ATOM      1  C   UNL d   1     -17.630   6.970  18.503 -0.09 +0.05    +0.064 C 
DOCKED: ATOM      2  C   UNL d   1     -16.565  11.039  15.908 -0.08 +0.03    +0.064 A 
DOCKED: ATOM      3  C   UNL d   1     -12.279   9.153  14.841 -0.35 -0.00    +0.064 C 
DOCKED: ATOM      4  C   UNL d   1     -13.248   5.251  17.434 -0.17 +0.00    +0.064 C 
DOCKED: ATOM      5  C   UNL d   1     -17.695   8.326  17.941 -0.01 +0.07    +0.066 A 
DOCKED: ATOM      6  C   UNL d   1     -18.739   9.215  18.139 -0.06 -0.02    -0.021 A 
DOCKED: ATOM      7  C   UNL d   1     -18.444  10.343  17.415 -0.06 -0.02    -0.025 A 
DOCKED: ATOM      8  C   UNL d   1     -17.230  10.099  16.802 -0.08 +0.05    +0.066 A 
DOCKED: ATOM      9  C   UNL d   1     -19.277  11.586  17.338 -0.02 +0.02    +0.051 C 
DOCKED: ATOM     10  C   UNL d   1     -15.367  10.852  15.350 -0.11 +0.02    +0.066 A 
DOCKED: ATOM     11  C   UNL d   1     -14.808  11.719  14.409 -0.13 -0.00    -0.021 A 
DOCKED: ATOM     12  C   UNL d   1     -13.578  11.189  14.072 -0.25 -0.00    +0.000 A 
DOCKED: ATOM     13  C   UNL d   1     -13.454  10.010  14.827 -0.23 +0.00    +0.070 A 
DOCKED: ATOM     14  C   UNL d   1     -15.443  12.956  13.807 -0.11 -0.01    +0.052 C 
DOCKED: ATOM     15  C   UNL d   1     -12.174   7.990  15.527 -0.29 -0.00    +0.066 A 
DOCKED: ATOM     16  C   UNL d   1     -11.000   7.252  15.594 -0.40 +0.00    -0.021 A 
DOCKED: ATOM     17  C   UNL d   1     -11.278   6.124  16.338 -0.27 -0.00    +0.000 A 
DOCKED: ATOM     18  C   UNL d   1     -12.620   6.199  16.705 -0.20 -0.00    +0.070 A 
DOCKED: ATOM     19  C   UNL d   1      -9.673   7.578  14.962 -0.49 -0.02    +0.052 C 
DOCKED: ATOM     20  C   UNL d   1     -14.641   5.326  17.891 -0.10 +0.01    +0.066 A 
DOCKED: ATOM     21  C   UNL d   1     -15.361   4.271  18.470 -0.06 -0.00    -0.025 A 
DOCKED: ATOM     22  C   UNL d   1     -16.603   4.787  18.779 -0.05 -0.01    -0.021 A 
DOCKED: ATOM     23  C   UNL d   1     -16.594   6.126  18.372 -0.09 +0.03    +0.066 A 
DOCKED: ATOM     24  C   UNL d   1     -14.914   2.850  18.721 -0.04 +0.00    +0.051 C 
DOCKED: ATOM     25  N   UNL d   1     -16.772   8.875  17.132 -0.05 -0.28    -0.248 N 
DOCKED: ATOM     26  N   UNL d   1     -14.548   9.800  15.600 -0.10 -0.06    -0.248 N 
DOCKED: ATOM     27  N   UNL d   1     -13.160   7.367  16.244 -0.15 -0.02    -0.248 N 
DOCKED: ATOM     28  N   UNL d   1     -15.410   6.437  17.790 -0.09 -0.10    -0.248 N 
DOCKED: ATOM     29 FE   UNL d   1     -14.978   8.117  16.695 -0.03 +0.00    +0.000 Fe
DOCKED: ENDROOT
DOCKED: BRANCH   6  30
DOCKED: ATOM     30  C   UNL d   1     -19.946   9.013  18.990 -0.02 +0.02    +0.052 C 
DOCKED: BRANCH  30  31
DOCKED: ATOM     31  C   UNL d   1     -21.199   8.892  18.129 -0.02 +0.06    +0.115 C 
DOCKED: BRANCH  31  32
DOCKED: ATOM     32  C   UNL d   1     -20.939   8.005  16.943 +0.03 +0.15    +0.139 C 
DOCKED: ATOM     33  O   UNL d   1     -21.133   8.412  15.806 -0.23 -0.92    -0.650 OA
DOCKED: BRANCH  32  34
DOCKED: ATOM     34  O   UNL d   1     -20.491   6.752  17.124 -0.05 -1.00    -0.776 OA
DOCKED: ATOM     35  H   UNL d   1     -20.493   6.140  16.375 -0.00 +0.28    +0.167 HD
DOCKED: ENDBRANCH  32  34
DOCKED: ENDBRANCH  31  32
DOCKED: ENDBRANCH  30  31
DOCKED: ENDBRANCH   6  30
DOCKED: BRANCH  22  36
DOCKED: ATOM     36  C   UNL d   1     -17.748   4.019  19.385 -0.02 +0.01    +0.052 C 
DOCKED: BRANCH  36  37
DOCKED: ATOM     37  C   UNL d   1     -18.784   3.711  18.314 -0.03 +0.04    +0.115 C 
DOCKED: BRANCH  37  38
DOCKED: ATOM     38  C   UNL d   1     -18.231   3.966  16.940 -0.09 +0.09    +0.139 C 
DOCKED: ATOM     39  O   UNL d   1     -17.408   3.209  16.448 -0.01 -0.26    -0.650 OA
DOCKED: BRANCH  38  40
DOCKED: ATOM     40  O   UNL d   1     -18.639   5.040  16.241 -0.39 -1.30    -0.776 OA
DOCKED: ATOM     41  H   UNL d   1     -19.212   5.690  16.670 +0.01 +0.35    +0.167 HD
DOCKED: ENDBRANCH  38  40
DOCKED: ENDBRANCH  37  38
DOCKED: ENDBRANCH  36  37
DOCKED: ENDBRANCH  22  36
DOCKED: BRANCH  12  42
DOCKED: ATOM     42  C   UNL d   1     -12.630  11.786  13.082 -0.47 -0.00    +0.004 C 
DOCKED: ATOM     43  C   UNL d   1     -13.038  12.115  11.849 -0.50 -0.00    +0.012 C 
DOCKED: ENDBRANCH  12  42
DOCKED: BRANCH  17  44
DOCKED: ATOM     44  C   UNL d   1     -10.317   5.055  16.693 -0.43 -0.00    +0.004 C 
DOCKED: ATOM     45  C   UNL d   1      -9.720   5.040  17.889 -0.29 -0.00    +0.012 C 
DOCKED: ENDBRANCH  17  44
DOCKED: TORSDOF 10
DOCKED: TER
DOCKED: ENDMDL
________________________________________________________________________________


	BEGINNING GENETIC ALGORITHM DOCKING 48 of 100
Run: 48 Seed: 856893263 945383894 [ Run 48 of 100 GA/GALS ]
Beginning LAMARCKIAN GENETIC ALGORITHM (LGA), with a maximum of 25000000 energy evaluations.

Final-Value: -15.355


	FINAL GENETIC ALGORITHM DOCKED STATE
	_______________________________________________


Detailed state:  trans -14.545 -1.547 3.339 quatxyzw 0.618666 0.214734 -0.081928 0.751286 center -0.174 -0.001 -0.047 ntor 10 -52.0173 -178.9726 71.0802 -159.5965 96.7068 55.1414 -128.5396 -149.9479 177.7196 150.9602
State:	-14.545  -1.547   3.339   0.937  0.325 -0.124 82.596    -52.02 -178.97   71.08 -159.60   96.71   55.14 -128.54 -149.95  177.72  150.96

DOCKED: MODEL       48
DOCKED: USER    Run = 48
DOCKED: USER    DPF = D:/Protein_go_brrr/autodock/final/AncMH_nat/heme_Fe/dock.dpf
DOCKED: USER  
DOCKED: USER    Estimated Free Energy of Binding    =  -10.16 kcal/mol  [=(1)+(2)+(3)-(4)]
DOCKED: USER    Estimated Inhibition Constant, Ki   =   35.82 nM (nanomolar)  [Temperature = 298.15 K]
DOCKED: USER    
DOCKED: USER    (1) Final Intermolecular Energy     =  -13.14 kcal/mol
DOCKED: USER        vdW + Hbond + desolv Energy     =   -9.49 kcal/mol
DOCKED: USER        Electrostatic Energy            =   -3.65 kcal/mol
DOCKED: USER    (2) Final Total Internal Energy     =   -2.21 kcal/mol
DOCKED: USER    (3) Torsional Free Energy           =   +2.98 kcal/mol
DOCKED: USER    (4) Unbound System's Energy  [=(2)] =   -2.21 kcal/mol
DOCKED: USER    
DOCKED: USER    
DOCKED: USER    NEWDPF move heme_Fe_opt.pdbqt
DOCKED: USER    NEWDPF about -0.174000 -0.001000 -0.047000
DOCKED: USER    NEWDPF tran0 -14.545036 -1.547130 3.338961
DOCKED: USER    NEWDPF quaternion0 0.618666 0.214734 -0.081928 0.751286
DOCKED: USER    NEWDPF axisangle0 0.937404 0.325366 -0.124138 82.596281
DOCKED: USER    NEWDPF quat0 0.937404 0.325366 -0.124138 82.596281
DOCKED: USER    NEWDPF dihe0 -52.02 -178.97 71.08 -159.60 96.71 55.14 -128.54 -149.95 177.72 150.96 
DOCKED: USER  keepresnum = 1 
DOCKED: USER  
DOCKED: REMARK  10 active torsions:
DOCKED: REMARK  status: ('A' for Active; 'I' for Inactive)
DOCKED: REMARK    1  A    between atoms: C_6  and  C_10 
DOCKED: REMARK    2  A    between atoms: C_10  and  C_11 
DOCKED: REMARK    3  A    between atoms: C_11  and  C_12 
DOCKED: REMARK    4  A    between atoms: C_12  and  O_14 
DOCKED: REMARK    5  A    between atoms: C_17  and  C_20 
DOCKED: REMARK    6  A    between atoms: C_24  and  C_27 
DOCKED: REMARK    7  A    between atoms: C_31  and  C_34 
DOCKED: REMARK    8  A    between atoms: C_34  and  C_35 
DOCKED: REMARK    9  A    between atoms: C_35  and  C_36 
DOCKED: REMARK   10  A    between atoms: C_36  and  O_38 
DOCKED: USER                              x       y       z     vdW  Elec       q    Type
DOCKED: USER                           _______ _______ _______ _____ _____    ______ ____
DOCKED: ROOT
DOCKED: ATOM      1  C   UNL d   1     -16.551  -1.855   3.033 -0.11 +0.05    +0.064 C 
DOCKED: ATOM      2  C   UNL d   1     -13.676  -1.343   7.022 -0.34 +0.01    +0.064 A 
DOCKED: ATOM      3  C   UNL d   1     -10.185   0.366   4.201 -0.30 +0.02    +0.064 C 
DOCKED: ATOM      4  C   UNL d   1     -12.913  -0.219   0.315 -0.25 +0.07    +0.064 C 
DOCKED: ATOM      5  C   UNL d   1     -16.036  -1.948   4.406 -0.10 +0.04    +0.066 A 
DOCKED: ATOM      6  C   UNL d   1     -16.726  -2.498   5.474 -0.10 -0.01    -0.021 A 
DOCKED: ATOM      7  C   UNL d   1     -15.929  -2.352   6.582 -0.18 -0.01    -0.025 A 
DOCKED: ATOM      8  C   UNL d   1     -14.781  -1.718   6.147 -0.18 +0.02    +0.066 A 
DOCKED: ATOM      9  C   UNL d   1     -16.251  -2.816   7.969 -0.27 +0.01    +0.051 C 
DOCKED: ATOM     10  C   UNL d   1     -12.535  -0.783   6.619 -0.36 +0.01    +0.066 A 
DOCKED: ATOM     11  C   UNL d   1     -11.543  -0.331   7.493 -0.47 -0.00    -0.021 A 
DOCKED: ATOM     12  C   UNL d   1     -10.532   0.182   6.705 -0.47 +0.00    +0.000 A 
DOCKED: ATOM     13  C   UNL d   1     -10.968   0.022   5.378 -0.39 +0.02    +0.070 A 
DOCKED: ATOM     14  C   UNL d   1     -11.586  -0.325   9.008 -0.51 +0.01    +0.052 C 
DOCKED: ATOM     15  C   UNL d   1     -10.620   0.262   2.923 -0.22 +0.03    +0.066 A 
DOCKED: ATOM     16  C   UNL d   1      -9.807   0.506   1.823 -0.35 -0.01    -0.021 A 
DOCKED: ATOM     17  C   UNL d   1     -10.593   0.341   0.701 -0.35 +0.00    +0.000 A 
DOCKED: ATOM     18  C   UNL d   1     -11.870   0.004   1.144 -0.26 +0.05    +0.070 A 
DOCKED: ATOM     19  C   UNL d   1      -8.356   0.904   1.824 -0.42 +0.01    +0.052 C 
DOCKED: ATOM     20  C   UNL d   1     -14.254  -0.636   0.741 -0.19 +0.09    +0.066 A 
DOCKED: ATOM     21  C   UNL d   1     -15.389  -0.677  -0.080 -0.16 -0.04    -0.025 A 
DOCKED: ATOM     22  C   UNL d   1     -16.411  -1.157   0.711 -0.13 -0.03    -0.021 A 
DOCKED: ATOM     23  C   UNL d   1     -15.864  -1.384   1.980 -0.14 +0.07    +0.066 A 
DOCKED: ATOM     24  C   UNL d   1     -15.516  -0.282  -1.533 -0.14 +0.06    +0.051 C 
DOCKED: ATOM     25  N   UNL d   1     -14.845  -1.482   4.822 -0.08 -0.13    -0.248 N 
DOCKED: ATOM     26  N   UNL d   1     -12.192  -0.557   5.325 -0.26 -0.07    -0.248 N 
DOCKED: ATOM     27  N   UNL d   1     -11.877  -0.087   2.508 -0.16 -0.16    -0.248 N 
DOCKED: ATOM     28  N   UNL d   1     -14.559  -1.021   2.004 -0.15 -0.28    -0.248 N 
DOCKED: ATOM     29 FE   UNL d   1     -13.375  -0.789   3.663 -0.06 +0.00    +0.000 Fe
DOCKED: ENDROOT
DOCKED: BRANCH   6  30
DOCKED: ATOM     30  C   UNL d   1     -18.066  -3.150   5.442 -0.09 +0.02    +0.052 C 
DOCKED: BRANCH  30  31
DOCKED: ATOM     31  C   UNL d   1     -19.165  -2.140   5.755 -0.05 +0.06    +0.115 C 
DOCKED: BRANCH  31  32
DOCKED: ATOM     32  C   UNL d   1     -19.030  -0.926   4.879 -0.10 +0.12    +0.139 C 
DOCKED: ATOM     33  O   UNL d   1     -19.687  -0.822   3.852 -0.00 -0.69    -0.650 OA
DOCKED: BRANCH  32  34
DOCKED: ATOM     34  O   UNL d   1     -18.182   0.059   5.217 +0.02 -0.81    -0.776 OA
DOCKED: ATOM     35  H   UNL d   1     -17.535   0.367   4.566 +0.03 +0.19    +0.167 HD
DOCKED: ENDBRANCH  32  34
DOCKED: ENDBRANCH  31  32
DOCKED: ENDBRANCH  30  31
DOCKED: ENDBRANCH   6  30
DOCKED: BRANCH  22  36
DOCKED: ATOM     36  C   UNL d   1     -17.843  -1.341   0.284 -0.06 +0.05    +0.052 C 
DOCKED: BRANCH  36  37
DOCKED: ATOM     37  C   UNL d   1     -18.730  -0.347   1.019 -0.05 +0.12    +0.115 C 
DOCKED: BRANCH  37  38
DOCKED: ATOM     38  C   UNL d   1     -17.971   0.905   1.357 -0.11 +0.24    +0.139 C 
DOCKED: ATOM     39  O   UNL d   1     -17.399   1.543   0.486 +0.02 -1.53    -0.650 OA
DOCKED: BRANCH  38  40
DOCKED: ATOM     40  O   UNL d   1     -17.914   1.331   2.631 -0.35 -1.61    -0.776 OA
DOCKED: ATOM     41  H   UNL d   1     -18.356   0.816   3.319 +0.02 +0.32    +0.167 HD
DOCKED: ENDBRANCH  38  40
DOCKED: ENDBRANCH  37  38
DOCKED: ENDBRANCH  36  37
DOCKED: ENDBRANCH  22  36
DOCKED: BRANCH  12  42
DOCKED: ATOM     42  C   UNL d   1      -9.267   0.789   7.223 -0.47 +0.00    +0.004 C 
DOCKED: ATOM     43  C   UNL d   1      -8.074   0.261   6.919 -0.47 +0.00    +0.012 C 
DOCKED: ENDBRANCH  12  42
DOCKED: BRANCH  17  44
DOCKED: ATOM     44  C   UNL d   1     -10.146   0.477  -0.704 -0.39 +0.00    +0.004 C 
DOCKED: ATOM     45  C   UNL d   1     -10.485   1.547  -1.430 -0.34 +0.00    +0.012 C 
DOCKED: ENDBRANCH  17  44
DOCKED: TORSDOF 10
DOCKED: TER
DOCKED: ENDMDL
________________________________________________________________________________


	BEGINNING GENETIC ALGORITHM DOCKING 49 of 100
Run: 49 Seed: 1175373812 518655624 [ Run 49 of 100 GA/GALS ]
Beginning LAMARCKIAN GENETIC ALGORITHM (LGA), with a maximum of 25000000 energy evaluations.

Final-Value: -14.470


	FINAL GENETIC ALGORITHM DOCKED STATE
	_______________________________________________


Detailed state:  trans -11.508 -0.176 1.940 quatxyzw 0.569487 0.305375 0.115817 0.754333 center -0.174 -0.001 -0.047 ntor 10 -156.1868 88.0545 177.6641 -122.4088 0.7925 143.1935 89.6918 39.9403 -151.0429 -165.6639
State:	-11.508  -0.176   1.940   0.867  0.465  0.176 82.066   -156.19   88.05  177.66 -122.41    0.79  143.19   89.69   39.94 -151.04 -165.66

DOCKED: MODEL       49
DOCKED: USER    Run = 49
DOCKED: USER    DPF = D:/Protein_go_brrr/autodock/final/AncMH_nat/heme_Fe/dock.dpf
DOCKED: USER  
DOCKED: USER    Estimated Free Energy of Binding    =  -10.99 kcal/mol  [=(1)+(2)+(3)-(4)]
DOCKED: USER    Estimated Inhibition Constant, Ki   =    8.81 nM (nanomolar)  [Temperature = 298.15 K]
DOCKED: USER    
DOCKED: USER    (1) Final Intermolecular Energy     =  -13.97 kcal/mol
DOCKED: USER        vdW + Hbond + desolv Energy     =  -10.63 kcal/mol
DOCKED: USER        Electrostatic Energy            =   -3.35 kcal/mol
DOCKED: USER    (2) Final Total Internal Energy     =   -0.50 kcal/mol
DOCKED: USER    (3) Torsional Free Energy           =   +2.98 kcal/mol
DOCKED: USER    (4) Unbound System's Energy  [=(2)] =   -0.50 kcal/mol
DOCKED: USER    
DOCKED: USER    
DOCKED: USER    NEWDPF move heme_Fe_opt.pdbqt
DOCKED: USER    NEWDPF about -0.174000 -0.001000 -0.047000
DOCKED: USER    NEWDPF tran0 -11.507501 -0.176086 1.939678
DOCKED: USER    NEWDPF quaternion0 0.569487 0.305375 0.115817 0.754333
DOCKED: USER    NEWDPF axisangle0 0.867468 0.465162 0.176417 82.065837
DOCKED: USER    NEWDPF quat0 0.867468 0.465162 0.176417 82.065837
DOCKED: USER    NEWDPF dihe0 -156.19 88.05 177.66 -122.41 0.79 143.19 89.69 39.94 -151.04 -165.66 
DOCKED: USER  keepresnum = 1 
DOCKED: USER  
DOCKED: REMARK  10 active torsions:
DOCKED: REMARK  status: ('A' for Active; 'I' for Inactive)
DOCKED: REMARK    1  A    between atoms: C_6  and  C_10 
DOCKED: REMARK    2  A    between atoms: C_10  and  C_11 
DOCKED: REMARK    3  A    between atoms: C_11  and  C_12 
DOCKED: REMARK    4  A    between atoms: C_12  and  O_14 
DOCKED: REMARK    5  A    between atoms: C_17  and  C_20 
DOCKED: REMARK    6  A    between atoms: C_24  and  C_27 
DOCKED: REMARK    7  A    between atoms: C_31  and  C_34 
DOCKED: REMARK    8  A    between atoms: C_34  and  C_35 
DOCKED: REMARK    9  A    between atoms: C_35  and  C_36 
DOCKED: REMARK   10  A    between atoms: C_36  and  O_38 
DOCKED: USER                              x       y       z     vdW  Elec       q    Type
DOCKED: USER                           _______ _______ _______ _____ _____    ______ ____
DOCKED: ROOT
DOCKED: ATOM      1  C   UNL d   1     -13.272  -0.043   0.900 -0.25 +0.08    +0.064 C 
DOCKED: ATOM      2  C   UNL d   1     -12.072  -0.671   5.654 -0.35 +0.02    +0.064 A 
DOCKED: ATOM      3  C   UNL d   1      -7.589   0.716   4.634 -0.11 +0.02    +0.064 C 
DOCKED: ATOM      4  C   UNL d   1      -8.701   1.228   0.010 -0.39 +0.01    +0.064 C 
DOCKED: ATOM      5  C   UNL d   1     -13.329  -0.429   2.317 -0.25 +0.06    +0.066 A 
DOCKED: ATOM      6  C   UNL d   1     -14.434  -0.982   2.942 -0.23 -0.02    -0.021 A 
DOCKED: ATOM      7  C   UNL d   1     -14.102  -1.152   4.263 -0.17 -0.01    -0.025 A 
DOCKED: ATOM      8  C   UNL d   1     -12.804  -0.696   4.393 -0.25 +0.03    +0.066 A 
DOCKED: ATOM      9  C   UNL d   1     -14.979  -1.738   5.326 -0.18 +0.02    +0.051 C 
DOCKED: ATOM     10  C   UNL d   1     -10.802  -0.290   5.796 -0.37 +0.01    +0.066 A 
DOCKED: ATOM     11  C   UNL d   1     -10.164  -0.167   7.033 -0.28 -0.00    -0.021 A 
DOCKED: ATOM     12  C   UNL d   1      -8.874   0.247   6.768 -0.41 +0.00    +0.000 A 
DOCKED: ATOM     13  C   UNL d   1      -8.794   0.366   5.369 +0.10 +0.02    +0.070 A 
DOCKED: ATOM     14  C   UNL d   1     -10.773  -0.369   8.406 -0.44 +0.01    +0.052 C 
DOCKED: ATOM     15  C   UNL d   1      -7.519   0.881   3.292 -0.29 +0.01    +0.066 A 
DOCKED: ATOM     16  C   UNL d   1      -6.328   1.118   2.617 -0.35 -0.00    -0.021 A 
DOCKED: ATOM     17  C   UNL d   1      -6.647   1.269   1.284 -0.41 +0.00    +0.000 A 
DOCKED: ATOM     18  C   UNL d   1      -8.029   1.126   1.177 -0.39 +0.01    +0.070 A 
DOCKED: ATOM     19  C   UNL d   1      -4.946   1.223   3.204 -0.10 +0.00    +0.052 C 
DOCKED: ATOM     20  C   UNL d   1     -10.145   1.022  -0.151 -0.31 +0.02    +0.066 A 
DOCKED: ATOM     21  C   UNL d   1     -10.882   1.319  -1.306 -0.28 -0.01    -0.025 A 
DOCKED: ATOM     22  C   UNL d   1     -12.180   0.937  -1.035 -0.22 -0.02    -0.021 A 
DOCKED: ATOM     23  C   UNL d   1     -12.185   0.431   0.271 -0.23 +0.06    +0.066 A 
DOCKED: ATOM     24  C   UNL d   1     -10.401   1.934  -2.600 -0.26 +0.01    +0.051 C 
DOCKED: ATOM     25  N   UNL d   1     -12.334  -0.266   3.206 -0.17 -0.15    -0.248 N 
DOCKED: ATOM     26  N   UNL d   1      -9.971   0.047   4.777 -0.23 -0.08    -0.248 N 
DOCKED: ATOM     27  N   UNL d   1      -8.560   0.844   2.404 -0.22 -0.06    -0.248 N 
DOCKED: ATOM     28  N   UNL d   1     -10.950   0.527   0.820 -0.16 -0.14    -0.248 N 
DOCKED: ATOM     29 FE   UNL d   1     -10.459   0.288   2.797 -0.07 +0.00    +0.000 Fe
DOCKED: ENDROOT
DOCKED: BRANCH   6  30
DOCKED: ATOM     30  C   UNL d   1     -15.735  -1.351   2.314 -0.18 +0.05    +0.052 C 
DOCKED: BRANCH  30  31
DOCKED: ATOM     31  C   UNL d   1     -16.420  -0.121   1.727 -0.09 +0.18    +0.115 C 
DOCKED: BRANCH  31  32
DOCKED: ATOM     32  C   UNL d   1     -17.316   0.519   2.750 -0.19 +0.21    +0.139 C 
DOCKED: ATOM     33  O   UNL d   1     -17.408   0.054   3.878 -0.03 -0.75    -0.650 OA
DOCKED: BRANCH  32  34
DOCKED: ATOM     34  O   UNL d   1     -18.028   1.614   2.433 -0.45 -1.76    -0.776 OA
DOCKED: ATOM     35  H   UNL d   1     -18.239   1.783   1.504 +0.02 +0.34    +0.167 HD
DOCKED: ENDBRANCH  32  34
DOCKED: ENDBRANCH  31  32
DOCKED: ENDBRANCH  30  31
DOCKED: ENDBRANCH   6  30
DOCKED: BRANCH  22  36
DOCKED: ATOM     36  C   UNL d   1     -13.356   1.096  -1.962 -0.16 +0.05    +0.052 C 
DOCKED: BRANCH  36  37
DOCKED: ATOM     37  C   UNL d   1     -13.689   2.573  -2.119 -0.09 +0.13    +0.115 C 
DOCKED: BRANCH  37  38
DOCKED: ATOM     38  C   UNL d   1     -15.176   2.789  -2.156 +0.25 +0.21    +0.139 C 
DOCKED: ATOM     39  O   UNL d   1     -15.678   3.771  -1.630 -0.47 -1.30    -0.650 OA
DOCKED: BRANCH  38  40
DOCKED: ATOM     40  O   UNL d   1     -15.969   1.893  -2.770 +0.01 -0.72    -0.776 OA
DOCKED: ATOM     41  H   UNL d   1     -16.193   2.024  -3.702 +0.01 +0.09    +0.167 HD
DOCKED: ENDBRANCH  38  40
DOCKED: ENDBRANCH  37  38
DOCKED: ENDBRANCH  36  37
DOCKED: ENDBRANCH  22  36
DOCKED: BRANCH  12  42
DOCKED: ATOM     42  C   UNL d   1      -7.831   0.518   7.805 -0.52 +0.00    +0.004 C 
DOCKED: ATOM     43  C   UNL d   1      -7.069   1.618   7.745 -0.52 +0.00    +0.012 C 
DOCKED: ENDBRANCH  12  42
DOCKED: BRANCH  17  44
DOCKED: ATOM     44  C   UNL d   1      -5.690   1.515   0.181 -0.36 +0.00    +0.004 C 
DOCKED: ATOM     45  C   UNL d   1      -5.035   2.677   0.090 -0.59 -0.00    +0.012 C 
DOCKED: ENDBRANCH  17  44
DOCKED: TORSDOF 10
DOCKED: TER
DOCKED: ENDMDL
________________________________________________________________________________


	BEGINNING GENETIC ALGORITHM DOCKING 50 of 100
Run: 50 Seed: 1411241313 247119066 [ Run 50 of 100 GA/GALS ]
Beginning LAMARCKIAN GENETIC ALGORITHM (LGA), with a maximum of 25000000 energy evaluations.

Final-Value: -15.542


	FINAL GENETIC ALGORITHM DOCKED STATE
	_______________________________________________


Detailed state:  trans -14.351 -1.463 3.485 quatxyzw 0.615811 0.191742 -0.088539 0.759060 center -0.174 -0.001 -0.047 ntor 10 -41.7873 -100.2773 64.0988 -164.2778 65.7092 88.0543 -98.0815 104.1498 -177.8770 -162.7720
State:	-14.351  -1.463   3.485   0.946  0.295 -0.136 81.237    -41.79 -100.28   64.10 -164.28   65.71   88.05  -98.08  104.15 -177.88 -162.77

DOCKED: MODEL       50
DOCKED: USER    Run = 50
DOCKED: USER    DPF = D:/Protein_go_brrr/autodock/final/AncMH_nat/heme_Fe/dock.dpf
DOCKED: USER  
DOCKED: USER    Estimated Free Energy of Binding    =   -9.94 kcal/mol  [=(1)+(2)+(3)-(4)]
DOCKED: USER    Estimated Inhibition Constant, Ki   =   51.91 nM (nanomolar)  [Temperature = 298.15 K]
DOCKED: USER    
DOCKED: USER    (1) Final Intermolecular Energy     =  -12.92 kcal/mol
DOCKED: USER        vdW + Hbond + desolv Energy     =   -9.45 kcal/mol
DOCKED: USER        Electrostatic Energy            =   -3.47 kcal/mol
DOCKED: USER    (2) Final Total Internal Energy     =   -2.62 kcal/mol
DOCKED: USER    (3) Torsional Free Energy           =   +2.98 kcal/mol
DOCKED: USER    (4) Unbound System's Energy  [=(2)] =   -2.62 kcal/mol
DOCKED: USER    
DOCKED: USER    
DOCKED: USER    NEWDPF move heme_Fe_opt.pdbqt
DOCKED: USER    NEWDPF about -0.174000 -0.001000 -0.047000
DOCKED: USER    NEWDPF tran0 -14.351239 -1.462946 3.484746
DOCKED: USER    NEWDPF quaternion0 0.615811 0.191742 -0.088539 0.759060
DOCKED: USER    NEWDPF axisangle0 0.945917 0.294526 -0.136000 81.237176
DOCKED: USER    NEWDPF quat0 0.945917 0.294526 -0.136000 81.237176
DOCKED: USER    NEWDPF dihe0 -41.79 -100.28 64.10 -164.28 65.71 88.05 -98.08 104.15 -177.88 -162.77 
DOCKED: USER  keepresnum = 1 
DOCKED: USER  
DOCKED: REMARK  10 active torsions:
DOCKED: REMARK  status: ('A' for Active; 'I' for Inactive)
DOCKED: REMARK    1  A    between atoms: C_6  and  C_10 
DOCKED: REMARK    2  A    between atoms: C_10  and  C_11 
DOCKED: REMARK    3  A    between atoms: C_11  and  C_12 
DOCKED: REMARK    4  A    between atoms: C_12  and  O_14 
DOCKED: REMARK    5  A    between atoms: C_17  and  C_20 
DOCKED: REMARK    6  A    between atoms: C_24  and  C_27 
DOCKED: REMARK    7  A    between atoms: C_31  and  C_34 
DOCKED: REMARK    8  A    between atoms: C_34  and  C_35 
DOCKED: REMARK    9  A    between atoms: C_35  and  C_36 
DOCKED: REMARK   10  A    between atoms: C_36  and  O_38 
DOCKED: USER                              x       y       z     vdW  Elec       q    Type
DOCKED: USER                           _______ _______ _______ _____ _____    ______ ____
DOCKED: ROOT
DOCKED: ATOM      1  C   UNL d   1     -16.374  -1.731   3.271 -0.12 +0.05    +0.064 C 
DOCKED: ATOM      2  C   UNL d   1     -13.309  -1.304   7.124 -0.37 +0.01    +0.064 A 
DOCKED: ATOM      3  C   UNL d   1      -9.921   0.363   4.156 -0.24 +0.02    +0.064 C 
DOCKED: ATOM      4  C   UNL d   1     -12.836  -0.142   0.397 -0.26 +0.07    +0.064 C 
DOCKED: ATOM      5  C   UNL d   1     -15.798  -1.844   4.618 -0.11 +0.04    +0.066 A 
DOCKED: ATOM      6  C   UNL d   1     -16.448  -2.390   5.712 -0.12 -0.01    -0.021 A 
DOCKED: ATOM      7  C   UNL d   1     -15.598  -2.268   6.783 -0.21 -0.01    -0.025 A 
DOCKED: ATOM      8  C   UNL d   1     -14.460  -1.651   6.300 -0.21 +0.02    +0.066 A 
DOCKED: ATOM      9  C   UNL d   1     -15.864  -2.736   8.181 -0.31 +0.01    +0.051 C 
DOCKED: ATOM     10  C   UNL d   1     -12.177  -0.761   6.673 -0.35 +0.01    +0.066 A 
DOCKED: ATOM     11  C   UNL d   1     -11.137  -0.334   7.503 -0.41 -0.00    -0.021 A 
DOCKED: ATOM     12  C   UNL d   1     -10.155   0.166   6.672 -0.45 +0.00    +0.000 A 
DOCKED: ATOM     13  C   UNL d   1     -10.654   0.025   5.366 -0.37 +0.02    +0.070 A 
DOCKED: ATOM     14  C   UNL d   1     -11.110  -0.339   9.018 -0.41 +0.01    +0.052 C 
DOCKED: ATOM     15  C   UNL d   1     -10.416   0.277   2.899 -0.23 +0.02    +0.066 A 
DOCKED: ATOM     16  C   UNL d   1      -9.652   0.515   1.764 -0.36 -0.01    -0.021 A 
DOCKED: ATOM     17  C   UNL d   1     -10.491   0.373   0.679 -0.35 +0.00    +0.000 A 
DOCKED: ATOM     18  C   UNL d   1     -11.752   0.056   1.178 -0.26 +0.05    +0.070 A 
DOCKED: ATOM     19  C   UNL d   1      -8.194   0.885   1.700 -0.43 +0.01    +0.052 C 
DOCKED: ATOM     20  C   UNL d   1     -14.164  -0.537   0.883 -0.20 +0.09    +0.066 A 
DOCKED: ATOM     21  C   UNL d   1     -15.337  -0.551   0.115 -0.14 -0.04    -0.025 A 
DOCKED: ATOM     22  C   UNL d   1     -16.330  -1.019   0.950 -0.14 -0.03    -0.021 A 
DOCKED: ATOM     23  C   UNL d   1     -15.729  -1.265   2.190 -0.15 +0.07    +0.066 A 
DOCKED: ATOM     24  C   UNL d   1     -15.524  -0.143  -1.328 -0.14 +0.07    +0.051 C 
DOCKED: ATOM     25  N   UNL d   1     -14.581  -1.403   4.980 -0.09 -0.12    -0.248 N 
DOCKED: ATOM     26  N   UNL d   1     -11.890  -0.532   5.366 -0.27 -0.07    -0.248 N 
DOCKED: ATOM     27  N   UNL d   1     -11.698  -0.046   2.540 -0.16 -0.15    -0.248 N 
DOCKED: ATOM     28  N   UNL d   1     -14.417  -0.927   2.156 -0.15 -0.27    -0.248 N 
DOCKED: ATOM     29 FE   UNL d   1     -13.153  -0.729   3.759 -0.06 +0.00    +0.000 Fe
DOCKED: ENDROOT
DOCKED: BRANCH   6  30
DOCKED: ATOM     30  C   UNL d   1     -17.800  -3.017   5.738 -0.11 +0.02    +0.052 C 
DOCKED: BRANCH  30  31
DOCKED: ATOM     31  C   UNL d   1     -18.876  -1.969   6.002 -0.06 +0.06    +0.115 C 
DOCKED: BRANCH  31  32
DOCKED: ATOM     32  C   UNL d   1     -19.235  -1.251   4.731 -0.07 +0.11    +0.139 C 
DOCKED: ATOM     33  O   UNL d   1     -19.775  -1.848   3.809 +0.04 -0.46    -0.650 OA
DOCKED: BRANCH  32  34
DOCKED: ATOM     34  O   UNL d   1     -18.965   0.058   4.595 +0.09 -1.08    -0.776 OA
DOCKED: ATOM     35  H   UNL d   1     -18.612   0.380   3.754 +0.02 +0.28    +0.167 HD
DOCKED: ENDBRANCH  32  34
DOCKED: ENDBRANCH  31  32
DOCKED: ENDBRANCH  30  31
DOCKED: ENDBRANCH   6  30
DOCKED: BRANCH  22  36
DOCKED: ATOM     36  C   UNL d   1     -17.784  -1.173   0.588 -0.07 +0.05    +0.052 C 
DOCKED: BRANCH  36  37
DOCKED: ATOM     37  C   UNL d   1     -18.396   0.196   0.328 -0.06 +0.13    +0.115 C 
DOCKED: BRANCH  37  38
DOCKED: ATOM     38  C   UNL d   1     -18.667   0.918   1.618 -0.11 +0.23    +0.139 C 
DOCKED: ATOM     39  O   UNL d   1     -17.806   1.613   2.138 -0.45 -1.40    -0.650 OA
DOCKED: BRANCH  38  40
DOCKED: ATOM     40  O   UNL d   1     -19.866   0.800   2.214 +0.03 -1.56    -0.776 OA
DOCKED: ATOM     41  H   UNL d   1     -20.057   0.008   2.735 +0.01 +0.26    +0.167 HD
DOCKED: ENDBRANCH  38  40
DOCKED: ENDBRANCH  37  38
DOCKED: ENDBRANCH  36  37
DOCKED: ENDBRANCH  22  36
DOCKED: BRANCH  12  42
DOCKED: ATOM     42  C   UNL d   1      -8.856   0.746   7.134 -0.48 +0.00    +0.004 C 
DOCKED: ATOM     43  C   UNL d   1      -7.696   0.122   6.889 -0.47 +0.00    +0.012 C 
DOCKED: ENDBRANCH  12  42
DOCKED: BRANCH  17  44
DOCKED: ATOM     44  C   UNL d   1     -10.107   0.511  -0.744 -0.38 +0.00    +0.004 C 
DOCKED: ATOM     45  C   UNL d   1     -10.538   1.547  -1.472 -0.34 +0.00    +0.012 C 
DOCKED: ENDBRANCH  17  44
DOCKED: TORSDOF 10
DOCKED: TER
DOCKED: ENDMDL
________________________________________________________________________________


	BEGINNING GENETIC ALGORITHM DOCKING 51 of 100
Run: 51 Seed: 1837700622 736612445 [ Run 51 of 100 GA/GALS ]
Beginning LAMARCKIAN GENETIC ALGORITHM (LGA), with a maximum of 25000000 energy evaluations.

Final-Value: -14.545


	FINAL GENETIC ALGORITHM DOCKED STATE
	_______________________________________________


Detailed state:  trans -14.826 -1.565 3.470 quatxyzw 0.619651 0.199472 -0.095025 0.753136 center -0.174 -0.001 -0.047 ntor 10 -51.1077 -142.0475 70.0436 -137.5535 61.0504 71.9942 -87.4957 -173.1023 -178.5416 171.5139
State:	-14.826  -1.565   3.470   0.942  0.303 -0.144 82.275    -51.11 -142.05   70.04 -137.55   61.05   71.99  -87.50 -173.10 -178.54  171.51

DOCKED: MODEL       51
DOCKED: USER    Run = 51
DOCKED: USER    DPF = D:/Protein_go_brrr/autodock/final/AncMH_nat/heme_Fe/dock.dpf
DOCKED: USER  
DOCKED: USER    Estimated Free Energy of Binding    =   -9.90 kcal/mol  [=(1)+(2)+(3)-(4)]
DOCKED: USER    Estimated Inhibition Constant, Ki   =   55.82 nM (nanomolar)  [Temperature = 298.15 K]
DOCKED: USER    
DOCKED: USER    (1) Final Intermolecular Energy     =  -12.88 kcal/mol
DOCKED: USER        vdW + Hbond + desolv Energy     =   -9.22 kcal/mol
DOCKED: USER        Electrostatic Energy            =   -3.66 kcal/mol
DOCKED: USER    (2) Final Total Internal Energy     =   -1.67 kcal/mol
DOCKED: USER    (3) Torsional Free Energy           =   +2.98 kcal/mol
DOCKED: USER    (4) Unbound System's Energy  [=(2)] =   -1.67 kcal/mol
DOCKED: USER    
DOCKED: USER    
DOCKED: USER    NEWDPF move heme_Fe_opt.pdbqt
DOCKED: USER    NEWDPF about -0.174000 -0.001000 -0.047000
DOCKED: USER    NEWDPF tran0 -14.825548 -1.564645 3.469825
DOCKED: USER    NEWDPF quaternion0 0.619651 0.199472 -0.095025 0.753136
DOCKED: USER    NEWDPF axisangle0 0.941912 0.303212 -0.144445 82.274512
DOCKED: USER    NEWDPF quat0 0.941912 0.303212 -0.144445 82.274512
DOCKED: USER    NEWDPF dihe0 -51.11 -142.05 70.04 -137.55 61.05 71.99 -87.50 -173.10 -178.54 171.51 
DOCKED: USER  keepresnum = 1 
DOCKED: USER  
DOCKED: REMARK  10 active torsions:
DOCKED: REMARK  status: ('A' for Active; 'I' for Inactive)
DOCKED: REMARK    1  A    between atoms: C_6  and  C_10 
DOCKED: REMARK    2  A    between atoms: C_10  and  C_11 
DOCKED: REMARK    3  A    between atoms: C_11  and  C_12 
DOCKED: REMARK    4  A    between atoms: C_12  and  O_14 
DOCKED: REMARK    5  A    between atoms: C_17  and  C_20 
DOCKED: REMARK    6  A    between atoms: C_24  and  C_27 
DOCKED: REMARK    7  A    between atoms: C_31  and  C_34 
DOCKED: REMARK    8  A    between atoms: C_34  and  C_35 
DOCKED: REMARK    9  A    between atoms: C_35  and  C_36 
DOCKED: REMARK   10  A    between atoms: C_36  and  O_38 
DOCKED: USER                              x       y       z     vdW  Elec       q    Type
DOCKED: USER                           _______ _______ _______ _____ _____    ______ ____
DOCKED: ROOT
DOCKED: ATOM      1  C   UNL d   1     -16.842  -1.874   3.246 -0.09 +0.05    +0.064 C 
DOCKED: ATOM      2  C   UNL d   1     -13.811  -1.334   7.113 -0.33 +0.01    +0.064 A 
DOCKED: ATOM      3  C   UNL d   1     -10.435   0.354   4.144 -0.34 +0.02    +0.064 C 
DOCKED: ATOM      4  C   UNL d   1     -13.315  -0.259   0.373 -0.24 +0.08    +0.064 C 
DOCKED: ATOM      5  C   UNL d   1     -16.273  -1.957   4.599 -0.09 +0.04    +0.066 A 
DOCKED: ATOM      6  C   UNL d   1     -16.920  -2.500   5.697 -0.10 -0.01    -0.021 A 
DOCKED: ATOM      7  C   UNL d   1     -16.079  -2.346   6.771 -0.18 -0.01    -0.025 A 
DOCKED: ATOM      8  C   UNL d   1     -14.950  -1.715   6.287 -0.17 +0.02    +0.066 A 
DOCKED: ATOM      9  C   UNL d   1     -16.346  -2.800   8.173 -0.27 +0.01    +0.051 C 
DOCKED: ATOM     10  C   UNL d   1     -12.687  -0.776   6.662 -0.37 +0.01    +0.066 A 
DOCKED: ATOM     11  C   UNL d   1     -11.661  -0.318   7.492 -0.48 -0.00    -0.021 A 
DOCKED: ATOM     12  C   UNL d   1     -10.682   0.189   6.661 -0.48 +0.00    +0.000 A 
DOCKED: ATOM     13  C   UNL d   1     -11.170   0.020   5.353 -0.39 +0.02    +0.070 A 
DOCKED: ATOM     14  C   UNL d   1     -11.644  -0.301   9.007 -0.52 +0.01    +0.052 C 
DOCKED: ATOM     15  C   UNL d   1     -10.920   0.242   2.885 -0.22 +0.03    +0.066 A 
DOCKED: ATOM     16  C   UNL d   1     -10.152   0.477   1.752 -0.33 -0.01    -0.021 A 
DOCKED: ATOM     17  C   UNL d   1     -10.982   0.304   0.663 -0.32 +0.00    +0.000 A 
DOCKED: ATOM     18  C   UNL d   1     -12.240  -0.030   1.159 -0.25 +0.06    +0.070 A 
DOCKED: ATOM     19  C   UNL d   1      -8.702   0.874   1.692 -0.42 +0.01    +0.052 C 
DOCKED: ATOM     20  C   UNL d   1     -14.638  -0.672   0.856 -0.18 +0.10    +0.066 A 
DOCKED: ATOM     21  C   UNL d   1     -15.805  -0.719   0.080 -0.14 -0.04    -0.025 A 
DOCKED: ATOM     22  C   UNL d   1     -16.795  -1.194   0.916 -0.11 -0.02    -0.021 A 
DOCKED: ATOM     23  C   UNL d   1     -16.198  -1.411   2.163 -0.12 +0.07    +0.066 A 
DOCKED: ATOM     24  C   UNL d   1     -15.990  -0.335  -1.369 -0.13 +0.06    +0.051 C 
DOCKED: ATOM     25  N   UNL d   1     -15.067  -1.488   4.963 -0.06 -0.13    -0.248 N 
DOCKED: ATOM     26  N   UNL d   1     -12.395  -0.561   5.354 -0.25 -0.07    -0.248 N 
DOCKED: ATOM     27  N   UNL d   1     -12.193  -0.111   2.523 -0.16 -0.17    -0.248 N 
DOCKED: ATOM     28  N   UNL d   1     -14.892  -1.049   2.133 -0.13 -0.28    -0.248 N 
DOCKED: ATOM     29 FE   UNL d   1     -13.644  -0.804   3.741 -0.06 +0.00    +0.000 Fe
DOCKED: ENDROOT
DOCKED: BRANCH   6  30
DOCKED: ATOM     30  C   UNL d   1     -18.260  -3.151   5.723 -0.10 +0.02    +0.052 C 
DOCKED: BRANCH  30  31
DOCKED: ATOM     31  C   UNL d   1     -19.356  -2.123   5.981 -0.05 +0.06    +0.115 C 
DOCKED: BRANCH  31  32
DOCKED: ATOM     32  C   UNL d   1     -19.906  -1.603   4.682 -0.05 +0.10    +0.139 C 
DOCKED: ATOM     33  O   UNL d   1     -20.442  -2.360   3.884 +0.04 -0.37    -0.650 OA
DOCKED: BRANCH  32  34
DOCKED: ATOM     34  O   UNL d   1     -19.813  -0.296   4.385 -0.01 -1.06    -0.776 OA
DOCKED: ATOM     35  H   UNL d   1     -19.445  -0.034   3.529 +0.02 +0.26    +0.167 HD
DOCKED: ENDBRANCH  32  34
DOCKED: ENDBRANCH  31  32
DOCKED: ENDBRANCH  30  31
DOCKED: ENDBRANCH   6  30
DOCKED: BRANCH  22  36
DOCKED: ATOM     36  C   UNL d   1     -18.243  -1.381   0.547 -0.04 +0.05    +0.052 C 
DOCKED: BRANCH  36  37
DOCKED: ATOM     37  C   UNL d   1     -19.024  -0.118   0.878 -0.05 +0.12    +0.115 C 
DOCKED: BRANCH  37  38
DOCKED: ATOM     38  C   UNL d   1     -18.105   0.981   1.331 -0.12 +0.24    +0.139 C 
DOCKED: ATOM     39  O   UNL d   1     -17.369   1.548   0.537 +0.04 -1.57    -0.650 OA
DOCKED: BRANCH  38  40
DOCKED: ATOM     40  O   UNL d   1     -18.084   1.347   2.625 -0.36 -1.67    -0.776 OA
DOCKED: ATOM     41  H   UNL d   1     -18.173   0.667   3.308 +0.02 +0.29    +0.167 HD
DOCKED: ENDBRANCH  38  40
DOCKED: ENDBRANCH  37  38
DOCKED: ENDBRANCH  36  37
DOCKED: ENDBRANCH  22  36
DOCKED: BRANCH  12  42
DOCKED: ATOM     42  C   UNL d   1      -9.398   0.799   7.124 -0.46 +0.00    +0.004 C 
DOCKED: ATOM     43  C   UNL d   1      -8.219   0.257   6.793 -0.47 +0.00    +0.012 C 
DOCKED: ENDBRANCH  12  42
DOCKED: BRANCH  17  44
DOCKED: ATOM     44  C   UNL d   1     -10.591   0.430  -0.759 -0.37 +0.00    +0.004 C 
DOCKED: ATOM     45  C   UNL d   1     -10.558   1.625  -1.357 -0.34 +0.00    +0.012 C 
DOCKED: ENDBRANCH  17  44
DOCKED: TORSDOF 10
DOCKED: TER
DOCKED: ENDMDL
________________________________________________________________________________


	BEGINNING GENETIC ALGORITHM DOCKING 52 of 100
Run: 52 Seed: 1951945334 1543993706 [ Run 52 of 100 GA/GALS ]
Beginning LAMARCKIAN GENETIC ALGORITHM (LGA), with a maximum of 25000000 energy evaluations.

Final-Value: -11.110


	FINAL GENETIC ALGORITHM DOCKED STATE
	_______________________________________________


Detailed state:  trans 5.883 12.376 7.212 quatxyzw -0.056910 0.170852 -0.506174 -0.843421 center -0.174 -0.001 -0.047 ntor 10 -157.3669 -125.6137 38.5496 35.9887 -125.2862 79.8921 -138.2266 113.8604 152.4490 18.9936
State:	  5.883  12.376   7.212  -0.106  0.318 -0.942 -64.994   -157.37 -125.61   38.55   35.99 -125.29   79.89 -138.23  113.86  152.45   18.99

DOCKED: MODEL       52
DOCKED: USER    Run = 52
DOCKED: USER    DPF = D:/Protein_go_brrr/autodock/final/AncMH_nat/heme_Fe/dock.dpf
DOCKED: USER  
DOCKED: USER    Estimated Free Energy of Binding    =   -7.34 kcal/mol  [=(1)+(2)+(3)-(4)]
DOCKED: USER    Estimated Inhibition Constant, Ki   =    4.16 uM (micromolar)  [Temperature = 298.15 K]
DOCKED: USER    
DOCKED: USER    (1) Final Intermolecular Energy     =  -10.32 kcal/mol
DOCKED: USER        vdW + Hbond + desolv Energy     =   -7.82 kcal/mol
DOCKED: USER        Electrostatic Energy            =   -2.51 kcal/mol
DOCKED: USER    (2) Final Total Internal Energy     =   -0.79 kcal/mol
DOCKED: USER    (3) Torsional Free Energy           =   +2.98 kcal/mol
DOCKED: USER    (4) Unbound System's Energy  [=(2)] =   -0.79 kcal/mol
DOCKED: USER    
DOCKED: USER    
DOCKED: USER    NEWDPF move heme_Fe_opt.pdbqt
DOCKED: USER    NEWDPF about -0.174000 -0.001000 -0.047000
DOCKED: USER    NEWDPF tran0 5.883019 12.376324 7.211611
DOCKED: USER    NEWDPF quaternion0 -0.056910 0.170852 -0.506174 -0.843421
DOCKED: USER    NEWDPF axisangle0 -0.105928 0.318011 -0.942151 -64.993742
DOCKED: USER    NEWDPF quat0 -0.105928 0.318011 -0.942151 -64.993742
DOCKED: USER    NEWDPF dihe0 -157.37 -125.61 38.55 35.99 -125.29 79.89 -138.23 113.86 152.45 18.99 
DOCKED: USER  keepresnum = 1 
DOCKED: USER  
DOCKED: REMARK  10 active torsions:
DOCKED: REMARK  status: ('A' for Active; 'I' for Inactive)
DOCKED: REMARK    1  A    between atoms: C_6  and  C_10 
DOCKED: REMARK    2  A    between atoms: C_10  and  C_11 
DOCKED: REMARK    3  A    between atoms: C_11  and  C_12 
DOCKED: REMARK    4  A    between atoms: C_12  and  O_14 
DOCKED: REMARK    5  A    between atoms: C_17  and  C_20 
DOCKED: REMARK    6  A    between atoms: C_24  and  C_27 
DOCKED: REMARK    7  A    between atoms: C_31  and  C_34 
DOCKED: REMARK    8  A    between atoms: C_34  and  C_35 
DOCKED: REMARK    9  A    between atoms: C_35  and  C_36 
DOCKED: REMARK   10  A    between atoms: C_36  and  O_38 
DOCKED: USER                              x       y       z     vdW  Elec       q    Type
DOCKED: USER                           _______ _______ _______ _____ _____    ______ ____
DOCKED: ROOT
DOCKED: ATOM      1  C   UNL d   1       5.168  14.037   8.182 -0.14 +0.00    +0.064 C 
DOCKED: ATOM      2  C   UNL d   1       3.894   9.263   8.053 -0.35 +0.00    +0.064 A 
DOCKED: ATOM      3  C   UNL d   1       8.130   8.259   6.026 -0.30 -0.01    +0.064 C 
DOCKED: ATOM      4  C   UNL d   1       9.340  12.887   6.045 -0.13 -0.00    +0.064 C 
DOCKED: ATOM      5  C   UNL d   1       4.382  12.797   8.257 -0.19 -0.00    +0.066 A 
DOCKED: ATOM      6  C   UNL d   1       3.067  12.719   8.685 -0.26 +0.00    -0.021 A 
DOCKED: ATOM      7  C   UNL d   1       2.715  11.393   8.653 -0.42 +0.00    -0.025 A 
DOCKED: ATOM      8  C   UNL d   1       3.830  10.711   8.205 -0.33 +0.00    +0.066 A 
DOCKED: ATOM      9  C   UNL d   1       1.377  10.825   9.014 -0.15 -0.04    +0.051 C 
DOCKED: ATOM     10  C   UNL d   1       4.936   8.587   7.568 -0.27 +0.00    +0.066 A 
DOCKED: ATOM     11  C   UNL d   1       5.011   7.192   7.542 -0.37 +0.00    -0.021 A 
DOCKED: ATOM     12  C   UNL d   1       6.230   6.877   6.977 -0.31 -0.00    +0.000 A 
DOCKED: ATOM     13  C   UNL d   1       6.847   8.108   6.693 -0.20 -0.01    +0.070 A 
DOCKED: ATOM     14  C   UNL d   1       3.998   6.207   8.091 -0.45 -0.01    +0.052 C 
DOCKED: ATOM     15  C   UNL d   1       8.751   9.440   5.797 -0.21 -0.01    +0.066 A 
DOCKED: ATOM     16  C   UNL d   1       9.929   9.549   5.068 -0.26 +0.01    -0.021 A 
DOCKED: ATOM     17  C   UNL d   1      10.281  10.882   5.075 -0.18 -0.00    +0.000 A 
DOCKED: ATOM     18  C   UNL d   1       9.311  11.556   5.813 -0.15 -0.01    +0.070 A 
DOCKED: ATOM     19  C   UNL d   1      10.708   8.441   4.411 -0.20 -0.03    +0.052 C 
DOCKED: ATOM     20  C   UNL d   1       8.305  13.639   6.764 -0.09 +0.00    +0.066 A 
DOCKED: ATOM     21  C   UNL d   1       8.417  14.972   7.183 -0.07 -0.00    -0.025 A 
DOCKED: ATOM     22  C   UNL d   1       7.212  15.283   7.779 -0.07 -0.00    -0.021 A 
DOCKED: ATOM     23  C   UNL d   1       6.419  14.132   7.705 -0.10 +0.00    +0.066 A 
DOCKED: ATOM     24  C   UNL d   1       9.593  15.911   7.040 -0.05 +0.01    +0.051 C 
DOCKED: ATOM     25  N   UNL d   1       4.839  11.570   7.956 +0.07 -0.03    -0.248 N 
DOCKED: ATOM     26  N   UNL d   1       6.062   9.150   7.062 +0.26 -0.06    -0.248 N 
DOCKED: ATOM     27  N   UNL d   1       8.347  10.677   6.220 -0.08 +0.02    -0.248 N 
DOCKED: ATOM     28  N   UNL d   1       7.108  13.119   7.126 -0.08 +0.01    -0.248 N 
DOCKED: ATOM     29 FE   UNL d   1       6.587  11.135   7.093 -0.03 +0.00    +0.000 Fe
DOCKED: ENDROOT
DOCKED: BRANCH   6  30
DOCKED: ATOM     30  C   UNL d   1       2.181  13.849   9.086 -0.24 -0.02    +0.052 C 
DOCKED: BRANCH  30  31
DOCKED: ATOM     31  C   UNL d   1       1.751  13.708  10.542 -0.10 -0.06    +0.115 C 
DOCKED: BRANCH  31  32
DOCKED: ATOM     32  C   UNL d   1       2.911  13.267  11.392 -0.12 +0.02    +0.139 C 
DOCKED: ATOM     33  O   UNL d   1       2.824  12.271  12.097 -0.11 -0.64    -0.650 OA
DOCKED: BRANCH  32  34
DOCKED: ATOM     34  O   UNL d   1       4.057  13.968  11.385 +0.05 -0.10    -0.776 OA
DOCKED: ATOM     35  H   UNL d   1       4.038  14.897  11.115 +0.02 +0.01    +0.167 HD
DOCKED: ENDBRANCH  32  34
DOCKED: ENDBRANCH  31  32
DOCKED: ENDBRANCH  30  31
DOCKED: ENDBRANCH   6  30
DOCKED: BRANCH  22  36
DOCKED: ATOM     36  C   UNL d   1       6.863  16.598   8.424 -0.03 +0.01    +0.052 C 
DOCKED: BRANCH  36  37
DOCKED: ATOM     37  C   UNL d   1       5.726  17.260   7.660 -0.09 +0.05    +0.115 C 
DOCKED: BRANCH  37  38
DOCKED: ATOM     38  C   UNL d   1       6.168  17.669   6.284 -0.11 +0.14    +0.139 C 
DOCKED: ATOM     39  O   UNL d   1       6.233  16.851   5.378 -0.12 -0.63    -0.650 OA
DOCKED: BRANCH  38  40
DOCKED: ATOM     40  O   UNL d   1       6.502  18.949   6.039 -0.46 -1.28    -0.776 OA
DOCKED: ATOM     41  H   UNL d   1       7.171  19.374   6.593 +0.02 +0.14    +0.167 HD
DOCKED: ENDBRANCH  38  40
DOCKED: ENDBRANCH  37  38
DOCKED: ENDBRANCH  36  37
DOCKED: ENDBRANCH  22  36
DOCKED: BRANCH  12  42
DOCKED: ATOM     42  C   UNL d   1       6.740   5.487   6.760 -0.40 -0.00    +0.004 C 
DOCKED: ATOM     43  C   UNL d   1       6.430   4.805   5.650 -0.57 -0.01    +0.012 C 
DOCKED: ENDBRANCH  12  42
DOCKED: BRANCH  17  44
DOCKED: ATOM     44  C   UNL d   1      11.459  11.476   4.402 -0.17 -0.00    +0.004 C 
DOCKED: ATOM     45  C   UNL d   1      11.377  11.918   3.143 -0.27 +0.00    +0.012 C 
DOCKED: ENDBRANCH  17  44
DOCKED: TORSDOF 10
DOCKED: TER
DOCKED: ENDMDL
________________________________________________________________________________


	BEGINNING GENETIC ALGORITHM DOCKING 53 of 100
Run: 53 Seed: 2135055925 194745348 [ Run 53 of 100 GA/GALS ]
Beginning LAMARCKIAN GENETIC ALGORITHM (LGA), with a maximum of 25000000 energy evaluations.

Final-Value: -14.577


	FINAL GENETIC ALGORITHM DOCKED STATE
	_______________________________________________


Detailed state:  trans -12.916 -0.048 1.953 quatxyzw -0.761306 0.180495 -0.295106 0.548404 center -0.174 -0.001 -0.047 ntor 10 -98.0480 -124.7867 77.2955 -9.0590 -156.6139 64.4505 -103.5801 -143.3457 -27.6702 -17.6015
State:	-12.916  -0.048   1.953  -0.910  0.216 -0.353 113.485    -98.05 -124.79   77.30   -9.06 -156.61   64.45 -103.58 -143.35  -27.67  -17.60

DOCKED: MODEL       53
DOCKED: USER    Run = 53
DOCKED: USER    DPF = D:/Protein_go_brrr/autodock/final/AncMH_nat/heme_Fe/dock.dpf
DOCKED: USER  
DOCKED: USER    Estimated Free Energy of Binding    =  -11.02 kcal/mol  [=(1)+(2)+(3)-(4)]
DOCKED: USER    Estimated Inhibition Constant, Ki   =    8.42 nM (nanomolar)  [Temperature = 298.15 K]
DOCKED: USER    
DOCKED: USER    (1) Final Intermolecular Energy     =  -14.00 kcal/mol
DOCKED: USER        vdW + Hbond + desolv Energy     =  -10.23 kcal/mol
DOCKED: USER        Electrostatic Energy            =   -3.77 kcal/mol
DOCKED: USER    (2) Final Total Internal Energy     =   -0.58 kcal/mol
DOCKED: USER    (3) Torsional Free Energy           =   +2.98 kcal/mol
DOCKED: USER    (4) Unbound System's Energy  [=(2)] =   -0.58 kcal/mol
DOCKED: USER    
DOCKED: USER    
DOCKED: USER    NEWDPF move heme_Fe_opt.pdbqt
DOCKED: USER    NEWDPF about -0.174000 -0.001000 -0.047000
DOCKED: USER    NEWDPF tran0 -12.915976 -0.047898 1.952670
DOCKED: USER    NEWDPF quaternion0 -0.761306 0.180495 -0.295106 0.548404
DOCKED: USER    NEWDPF axisangle0 -0.910421 0.215848 -0.352908 113.484888
DOCKED: USER    NEWDPF quat0 -0.910421 0.215848 -0.352908 113.484888
DOCKED: USER    NEWDPF dihe0 -98.05 -124.79 77.30 -9.06 -156.61 64.45 -103.58 -143.35 -27.67 -17.60 
DOCKED: USER  keepresnum = 1 
DOCKED: USER  
DOCKED: REMARK  10 active torsions:
DOCKED: REMARK  status: ('A' for Active; 'I' for Inactive)
DOCKED: REMARK    1  A    between atoms: C_6  and  C_10 
DOCKED: REMARK    2  A    between atoms: C_10  and  C_11 
DOCKED: REMARK    3  A    between atoms: C_11  and  C_12 
DOCKED: REMARK    4  A    between atoms: C_12  and  O_14 
DOCKED: REMARK    5  A    between atoms: C_17  and  C_20 
DOCKED: REMARK    6  A    between atoms: C_24  and  C_27 
DOCKED: REMARK    7  A    between atoms: C_31  and  C_34 
DOCKED: REMARK    8  A    between atoms: C_34  and  C_35 
DOCKED: REMARK    9  A    between atoms: C_35  and  C_36 
DOCKED: REMARK   10  A    between atoms: C_36  and  O_38 
DOCKED: USER                              x       y       z     vdW  Elec       q    Type
DOCKED: USER                           _______ _______ _______ _____ _____    ______ ____
DOCKED: ROOT
DOCKED: ATOM      1  C   UNL d   1     -14.254  -0.626   0.508 -0.22 +0.09    +0.064 C 
DOCKED: ATOM      2  C   UNL d   1      -9.535   0.844   0.493 -0.36 +0.02    +0.064 A 
DOCKED: ATOM      3  C   UNL d   1      -9.370   0.131   5.240 -0.17 +0.02    +0.064 C 
DOCKED: ATOM      4  C   UNL d   1     -13.967  -1.193   5.293 -0.09 +0.02    +0.064 C 
DOCKED: ATOM      5  C   UNL d   1     -12.965  -0.067   0.076 -0.21 +0.08    +0.066 A 
DOCKED: ATOM      6  C   UNL d   1     -12.682   0.366  -1.209 -0.21 -0.02    -0.021 A 
DOCKED: ATOM      7  C   UNL d   1     -11.370   0.771  -1.213 -0.27 -0.01    -0.025 A 
DOCKED: ATOM      8  C   UNL d   1     -10.903   0.569   0.072 -0.28 +0.04    +0.066 A 
DOCKED: ATOM      9  C   UNL d   1     -10.624   1.335  -2.383 -0.32 +0.01    +0.051 C 
DOCKED: ATOM     10  C   UNL d   1      -9.074   0.712   1.738 -0.35 +0.02    +0.066 A 
DOCKED: ATOM     11  C   UNL d   1      -7.731   0.873   2.089 -0.37 -0.00    -0.021 A 
DOCKED: ATOM     12  C   UNL d   1      -7.654   0.656   3.450 -0.34 +0.00    +0.000 A 
DOCKED: ATOM     13  C   UNL d   1      -8.966   0.364   3.863 -0.14 +0.02    +0.070 A 
DOCKED: ATOM     14  C   UNL d   1      -6.566   1.151   1.161 -0.36 +0.01    +0.052 C 
DOCKED: ATOM     15  C   UNL d   1     -10.621  -0.201   5.636 -0.37 +0.02    +0.066 A 
DOCKED: ATOM     16  C   UNL d   1     -10.990  -0.317   6.970 -0.37 -0.00    -0.021 A 
DOCKED: ATOM     17  C   UNL d   1     -12.314  -0.702   6.988 -0.43 +0.00    +0.000 A 
DOCKED: ATOM     18  C   UNL d   1     -12.722  -0.817   5.661 -0.32 +0.02    +0.070 A 
DOCKED: ATOM     19  C   UNL d   1     -10.126  -0.099   8.183 -0.39 +0.01    +0.052 C 
DOCKED: ATOM     20  C   UNL d   1     -14.450  -1.265   3.909 -0.18 +0.04    +0.066 A 
DOCKED: ATOM     21  C   UNL d   1     -15.662  -1.841   3.503 -0.14 -0.02    -0.025 A 
DOCKED: ATOM     22  C   UNL d   1     -15.730  -1.657   2.138 -0.16 -0.02    -0.021 A 
DOCKED: ATOM     23  C   UNL d   1     -14.559  -0.986   1.765 -0.21 +0.08    +0.066 A 
DOCKED: ATOM     24  C   UNL d   1     -16.707  -2.533   4.347 -0.09 +0.03    +0.051 C 
DOCKED: ATOM     25  N   UNL d   1     -11.878   0.069   0.856 -0.16 -0.20    -0.248 N 
DOCKED: ATOM     26  N   UNL d   1      -9.830   0.389   2.818 -0.20 -0.08    -0.248 N 
DOCKED: ATOM     27  N   UNL d   1     -11.696  -0.467   4.829 -0.22 -0.08    -0.248 N 
DOCKED: ATOM     28  N   UNL d   1     -13.762  -0.790   2.843 -0.16 -0.21    -0.248 N 
DOCKED: ATOM     29 FE   UNL d   1     -11.797  -0.201   2.832 -0.07 +0.00    +0.000 Fe
DOCKED: ENDROOT
DOCKED: BRANCH   6  30
DOCKED: ATOM     30  C   UNL d   1     -13.615   0.414  -2.370 -0.16 +0.04    +0.052 C 
DOCKED: BRANCH  30  31
DOCKED: ATOM     31  C   UNL d   1     -14.787   1.346  -2.084 -0.06 +0.15    +0.115 C 
DOCKED: BRANCH  31  32
DOCKED: ATOM     32  C   UNL d   1     -14.360   2.783  -2.211 +0.00 +0.18    +0.139 C 
DOCKED: ATOM     33  O   UNL d   1     -14.976   3.669  -1.636 -0.24 -1.31    -0.650 OA
DOCKED: BRANCH  32  34
DOCKED: ATOM     34  O   UNL d   1     -13.293   3.106  -2.961 +0.07 -0.43    -0.776 OA
DOCKED: ATOM     35  H   UNL d   1     -13.401   3.192  -3.918 +0.04 +0.05    +0.167 HD
DOCKED: ENDBRANCH  32  34
DOCKED: ENDBRANCH  31  32
DOCKED: ENDBRANCH  30  31
DOCKED: ENDBRANCH   6  30
DOCKED: BRANCH  22  36
DOCKED: ATOM     36  C   UNL d   1     -16.835  -2.143   1.238 -0.12 +0.05    +0.052 C 
DOCKED: BRANCH  36  37
DOCKED: ATOM     37  C   UNL d   1     -18.026  -1.201   1.333 -0.05 +0.11    +0.115 C 
DOCKED: BRANCH  37  38
DOCKED: ATOM     38  C   UNL d   1     -17.575   0.223   1.497 -0.11 +0.21    +0.139 C 
DOCKED: ATOM     39  O   UNL d   1     -16.946   0.785   0.613 -0.36 -1.55    -0.650 OA
DOCKED: BRANCH  38  40
DOCKED: ATOM     40  O   UNL d   1     -17.861   0.891   2.629 -0.19 -1.38    -0.776 OA
DOCKED: ATOM     41  H   UNL d   1     -17.595   0.512   3.478 +0.03 +0.24    +0.167 HD
DOCKED: ENDBRANCH  38  40
DOCKED: ENDBRANCH  37  38
DOCKED: ENDBRANCH  36  37
DOCKED: ENDBRANCH  22  36
DOCKED: BRANCH  12  42
DOCKED: ATOM     42  C   UNL d   1      -6.396   0.715   4.257 -0.40 +0.00    +0.004 C 
DOCKED: ATOM     43  C   UNL d   1      -6.301   1.512   5.328 -0.42 +0.00    +0.012 C 
DOCKED: ENDBRANCH  12  42
DOCKED: BRANCH  17  44
DOCKED: ATOM     44  C   UNL d   1     -13.141  -0.926   8.195 -0.54 +0.00    +0.004 C 
DOCKED: ATOM     45  C   UNL d   1     -13.112  -0.062   9.215 -0.56 +0.00    +0.012 C 
DOCKED: ENDBRANCH  17  44
DOCKED: TORSDOF 10
DOCKED: TER
DOCKED: ENDMDL
________________________________________________________________________________


	BEGINNING GENETIC ALGORITHM DOCKING 54 of 100
Run: 54 Seed: 1497181402 1911772546 [ Run 54 of 100 GA/GALS ]
Beginning LAMARCKIAN GENETIC ALGORITHM (LGA), with a maximum of 25000000 energy evaluations.

Final-Value: -11.460


	FINAL GENETIC ALGORITHM DOCKED STATE
	_______________________________________________


Detailed state:  trans -16.432 8.419 16.602 quatxyzw -0.235210 0.204674 0.138483 -0.940004 center -0.174 -0.001 -0.047 ntor 10 -166.6363 47.1371 -149.4044 -113.4163 109.3104 -87.8537 137.2050 -127.6723 6.9209 -25.2839
State:	-16.432   8.419  16.602  -0.689  0.600  0.406 -39.896   -166.64   47.14 -149.40 -113.42  109.31  -87.85  137.21 -127.67    6.92  -25.28

DOCKED: MODEL       54
DOCKED: USER    Run = 54
DOCKED: USER    DPF = D:/Protein_go_brrr/autodock/final/AncMH_nat/heme_Fe/dock.dpf
DOCKED: USER  
DOCKED: USER    Estimated Free Energy of Binding    =   -6.96 kcal/mol  [=(1)+(2)+(3)-(4)]
DOCKED: USER    Estimated Inhibition Constant, Ki   =    7.86 uM (micromolar)  [Temperature = 298.15 K]
DOCKED: USER    
DOCKED: USER    (1) Final Intermolecular Energy     =   -9.95 kcal/mol
DOCKED: USER        vdW + Hbond + desolv Energy     =   -6.92 kcal/mol
DOCKED: USER        Electrostatic Energy            =   -3.03 kcal/mol
DOCKED: USER    (2) Final Total Internal Energy     =   -1.51 kcal/mol
DOCKED: USER    (3) Torsional Free Energy           =   +2.98 kcal/mol
DOCKED: USER    (4) Unbound System's Energy  [=(2)] =   -1.51 kcal/mol
DOCKED: USER    
DOCKED: USER    
DOCKED: USER    NEWDPF move heme_Fe_opt.pdbqt
DOCKED: USER    NEWDPF about -0.174000 -0.001000 -0.047000
DOCKED: USER    NEWDPF tran0 -16.431537 8.419447 16.602037
DOCKED: USER    NEWDPF quaternion0 -0.235210 0.204674 0.138483 -0.940004
DOCKED: USER    NEWDPF axisangle0 -0.689435 0.599928 0.405913 -39.895627
DOCKED: USER    NEWDPF quat0 -0.689435 0.599928 0.405913 -39.895627
DOCKED: USER    NEWDPF dihe0 -166.64 47.14 -149.40 -113.42 109.31 -87.85 137.21 -127.67 6.92 -25.28 
DOCKED: USER  keepresnum = 1 
DOCKED: USER  
DOCKED: REMARK  10 active torsions:
DOCKED: REMARK  status: ('A' for Active; 'I' for Inactive)
DOCKED: REMARK    1  A    between atoms: C_6  and  C_10 
DOCKED: REMARK    2  A    between atoms: C_10  and  C_11 
DOCKED: REMARK    3  A    between atoms: C_11  and  C_12 
DOCKED: REMARK    4  A    between atoms: C_12  and  O_14 
DOCKED: REMARK    5  A    between atoms: C_17  and  C_20 
DOCKED: REMARK    6  A    between atoms: C_24  and  C_27 
DOCKED: REMARK    7  A    between atoms: C_31  and  C_34 
DOCKED: REMARK    8  A    between atoms: C_34  and  C_35 
DOCKED: REMARK    9  A    between atoms: C_35  and  C_36 
DOCKED: REMARK   10  A    between atoms: C_36  and  O_38 
DOCKED: USER                              x       y       z     vdW  Elec       q    Type
DOCKED: USER                           _______ _______ _______ _____ _____    ______ ____
DOCKED: ROOT
DOCKED: ATOM      1  C   UNL d   1     -17.979   8.310  17.945 +0.01 +0.07    +0.064 C 
DOCKED: ATOM      2  C   UNL d   1     -13.650   5.982  17.427 -0.14 +0.01    +0.064 A 
DOCKED: ATOM      3  C   UNL d   1     -12.269   9.386  14.333 -0.39 -0.00    +0.064 C 
DOCKED: ATOM      4  C   UNL d   1     -16.492  11.597  14.739 -0.11 +0.02    +0.064 C 
DOCKED: ATOM      5  C   UNL d   1     -16.921   7.294  18.022 -0.09 +0.06    +0.066 A 
DOCKED: ATOM      6  C   UNL d   1     -17.013   6.108  18.733 -0.07 -0.01    -0.021 A 
DOCKED: ATOM      7  C   UNL d   1     -15.808   5.465  18.592 -0.07 -0.01    -0.025 A 
DOCKED: ATOM      8  C   UNL d   1     -15.027   6.282  17.799 -0.11 +0.02    +0.066 A 
DOCKED: ATOM      9  C   UNL d   1     -15.446   4.132  19.173 -0.03 +0.01    +0.051 C 
DOCKED: ATOM     10  C   UNL d   1     -12.894   6.726  16.617 -0.19 +0.00    +0.066 A 
DOCKED: ATOM     11  C   UNL d   1     -11.542   6.473  16.371 -0.27 +0.00    -0.021 A 
DOCKED: ATOM     12  C   UNL d   1     -11.116   7.451  15.495 -0.41 -0.00    +0.000 A 
DOCKED: ATOM     13  C   UNL d   1     -12.239   8.262  15.255 -0.30 -0.00    +0.070 A 
DOCKED: ATOM     14  C   UNL d   1     -10.680   5.394  16.994 -0.33 -0.01    +0.052 C 
DOCKED: ATOM     15  C   UNL d   1     -13.332  10.202  14.138 -0.29 -0.00    +0.066 A 
DOCKED: ATOM     16  C   UNL d   1     -13.354  11.203  13.176 -0.37 +0.00    -0.021 A 
DOCKED: ATOM     17  C   UNL d   1     -14.570  11.844  13.293 -0.25 -0.00    +0.000 A 
DOCKED: ATOM     18  C   UNL d   1     -15.261  11.220  14.330 -0.15 +0.01    +0.070 A 
DOCKED: ATOM     19  C   UNL d   1     -12.266  11.562  12.199 -0.40 -0.01    +0.052 C 
DOCKED: ATOM     20  C   UNL d   1     -17.274  10.926  15.784 -0.09 +0.04    +0.066 A 
DOCKED: ATOM     21  C   UNL d   1     -18.456  11.420  16.354 -0.05 -0.01    -0.025 A 
DOCKED: ATOM     22  C   UNL d   1     -18.869  10.461  17.256 -0.05 -0.01    -0.021 A 
DOCKED: ATOM     23  C   UNL d   1     -17.925   9.429  17.205 +0.21 +0.08    +0.066 A 
DOCKED: ATOM     24  C   UNL d   1     -19.164  12.725  16.075 -0.01 +0.01    +0.051 C 
DOCKED: ATOM     25  N   UNL d   1     -15.710   7.390  17.446 -0.10 -0.16    -0.248 N 
DOCKED: ATOM     26  N   UNL d   1     -13.320   7.826  15.946 -0.15 -0.03    -0.248 N 
DOCKED: ATOM     27  N   UNL d   1     -14.519  10.183  14.821 -0.13 -0.04    -0.248 N 
DOCKED: ATOM     28  N   UNL d   1     -16.931   9.738  16.338 -0.08 -0.25    -0.248 N 
DOCKED: ATOM     29 FE   UNL d   1     -15.126   8.784  16.141 -0.04 +0.00    +0.000 Fe
DOCKED: ENDROOT
DOCKED: BRANCH   6  30
DOCKED: ATOM     30  C   UNL d   1     -18.191   5.601  19.491 -0.03 +0.02    +0.052 C 
DOCKED: BRANCH  30  31
DOCKED: ATOM     31  C   UNL d   1     -19.003   4.630  18.641 -0.03 +0.05    +0.115 C 
DOCKED: BRANCH  31  32
DOCKED: ATOM     32  C   UNL d   1     -19.143   5.150  17.237 -0.00 +0.15    +0.139 C 
DOCKED: ATOM     33  O   UNL d   1     -18.551   4.613  16.312 -0.45 -0.75    -0.650 OA
DOCKED: BRANCH  32  34
DOCKED: ATOM     34  O   UNL d   1     -19.924   6.215  16.987 -0.10 -1.29    -0.776 OA
DOCKED: ATOM     35  H   UNL d   1     -20.233   6.755  17.728 +0.00 +0.17    +0.167 HD
DOCKED: ENDBRANCH  32  34
DOCKED: ENDBRANCH  31  32
DOCKED: ENDBRANCH  30  31
DOCKED: ENDBRANCH   6  30
DOCKED: BRANCH  22  36
DOCKED: ATOM     36  C   UNL d   1     -20.077  10.557  18.150 -0.02 +0.02    +0.052 C 
DOCKED: BRANCH  36  37
DOCKED: ATOM     37  C   UNL d   1     -21.344  10.411  17.319 -0.01 +0.05    +0.115 C 
DOCKED: BRANCH  37  38
DOCKED: ATOM     38  C   UNL d   1     -21.282   9.182  16.456 -0.04 +0.11    +0.139 C 
DOCKED: ATOM     39  O   UNL d   1     -20.783   9.226  15.341 -0.43 -0.93    -0.650 OA
DOCKED: BRANCH  38  40
DOCKED: ATOM     40  O   UNL d   1     -21.784   8.019  16.907 -0.00 -0.55    -0.776 OA
DOCKED: ATOM     41  H   UNL d   1     -21.259   7.212  16.812 +0.00 +0.17    +0.167 HD
DOCKED: ENDBRANCH  38  40
DOCKED: ENDBRANCH  37  38
DOCKED: ENDBRANCH  36  37
DOCKED: ENDBRANCH  22  36
DOCKED: BRANCH  12  42
DOCKED: ATOM     42  C   UNL d   1      -9.723   7.577  14.964 -0.54 -0.00    +0.004 C 
DOCKED: ATOM     43  C   UNL d   1      -8.872   8.480  15.467 -0.33 -0.00    +0.012 C 
DOCKED: ENDBRANCH  12  42
DOCKED: BRANCH  17  44
DOCKED: ATOM     44  C   UNL d   1     -15.048  12.967  12.455 -0.24 -0.00    +0.004 C 
DOCKED: ATOM     45  C   UNL d   1     -14.370  14.118  12.402 -0.23 -0.00    +0.012 C 
DOCKED: ENDBRANCH  17  44
DOCKED: TORSDOF 10
DOCKED: TER
DOCKED: ENDMDL
________________________________________________________________________________


	BEGINNING GENETIC ALGORITHM DOCKING 55 of 100
Run: 55 Seed: 1026257800 926281310 [ Run 55 of 100 GA/GALS ]
Beginning LAMARCKIAN GENETIC ALGORITHM (LGA), with a maximum of 25000000 energy evaluations.

Final-Value: -14.988


	FINAL GENETIC ALGORITHM DOCKED STATE
	_______________________________________________


Detailed state:  trans -14.936 -0.878 3.408 quatxyzw -0.770185 -0.071912 -0.118201 0.622633 center -0.174 -0.001 -0.047 ntor 10 -166.1161 -60.8084 8.6031 84.2321 75.6027 55.8180 -179.1420 -115.1509 -8.2941 -5.5630
State:	-14.936  -0.878   3.408  -0.984 -0.092 -0.151 102.983   -166.12  -60.81    8.60   84.23   75.60   55.82 -179.14 -115.15   -8.29   -5.56

DOCKED: MODEL       55
DOCKED: USER    Run = 55
DOCKED: USER    DPF = D:/Protein_go_brrr/autodock/final/AncMH_nat/heme_Fe/dock.dpf
DOCKED: USER  
DOCKED: USER    Estimated Free Energy of Binding    =   -9.99 kcal/mol  [=(1)+(2)+(3)-(4)]
DOCKED: USER    Estimated Inhibition Constant, Ki   =   47.52 nM (nanomolar)  [Temperature = 298.15 K]
DOCKED: USER    
DOCKED: USER    (1) Final Intermolecular Energy     =  -12.97 kcal/mol
DOCKED: USER        vdW + Hbond + desolv Energy     =   -9.39 kcal/mol
DOCKED: USER        Electrostatic Energy            =   -3.58 kcal/mol
DOCKED: USER    (2) Final Total Internal Energy     =   -2.01 kcal/mol
DOCKED: USER    (3) Torsional Free Energy           =   +2.98 kcal/mol
DOCKED: USER    (4) Unbound System's Energy  [=(2)] =   -2.01 kcal/mol
DOCKED: USER    
DOCKED: USER    
DOCKED: USER    NEWDPF move heme_Fe_opt.pdbqt
DOCKED: USER    NEWDPF about -0.174000 -0.001000 -0.047000
DOCKED: USER    NEWDPF tran0 -14.936279 -0.877787 3.407699
DOCKED: USER    NEWDPF quaternion0 -0.770185 -0.071912 -0.118201 0.622633
DOCKED: USER    NEWDPF axisangle0 -0.984245 -0.091899 -0.151052 102.982613
DOCKED: USER    NEWDPF quat0 -0.984245 -0.091899 -0.151052 102.982613
DOCKED: USER    NEWDPF dihe0 -166.12 -60.81 8.60 84.23 75.60 55.82 -179.14 -115.15 -8.29 -5.56 
DOCKED: USER  keepresnum = 1 
DOCKED: USER  
DOCKED: REMARK  10 active torsions:
DOCKED: REMARK  status: ('A' for Active; 'I' for Inactive)
DOCKED: REMARK    1  A    between atoms: C_6  and  C_10 
DOCKED: REMARK    2  A    between atoms: C_10  and  C_11 
DOCKED: REMARK    3  A    between atoms: C_11  and  C_12 
DOCKED: REMARK    4  A    between atoms: C_12  and  O_14 
DOCKED: REMARK    5  A    between atoms: C_17  and  C_20 
DOCKED: REMARK    6  A    between atoms: C_24  and  C_27 
DOCKED: REMARK    7  A    between atoms: C_31  and  C_34 
DOCKED: REMARK    8  A    between atoms: C_34  and  C_35 
DOCKED: REMARK    9  A    between atoms: C_35  and  C_36 
DOCKED: REMARK   10  A    between atoms: C_36  and  O_38 
DOCKED: USER                              x       y       z     vdW  Elec       q    Type
DOCKED: USER                           _______ _______ _______ _____ _____    ______ ____
DOCKED: ROOT
DOCKED: ATOM      1  C   UNL d   1     -16.695  -1.877   3.062 -0.10 +0.05    +0.064 C 
DOCKED: ATOM      2  C   UNL d   1     -13.114  -0.040   0.193 -0.21 +0.08    +0.064 A 
DOCKED: ATOM      3  C   UNL d   1     -10.299   0.338   4.066 -0.32 +0.02    +0.064 C 
DOCKED: ATOM      4  C   UNL d   1     -13.787  -1.340   6.877 -0.36 +0.01    +0.064 C 
DOCKED: ATOM      5  C   UNL d   1     -15.977  -1.317   1.909 -0.14 +0.07    +0.066 A 
DOCKED: ATOM      6  C   UNL d   1     -16.517  -1.157   0.643 -0.13 -0.03    -0.021 A 
DOCKED: ATOM      7  C   UNL d   1     -15.521  -0.651  -0.154 -0.15 -0.04    -0.025 A 
DOCKED: ATOM      8  C   UNL d   1     -14.410  -0.520   0.657 -0.18 +0.10    +0.066 A 
DOCKED: ATOM      9  C   UNL d   1     -15.644  -0.298  -1.605 -0.14 +0.06    +0.051 C 
DOCKED: ATOM     10  C   UNL d   1     -12.044   0.150   0.966 -0.25 +0.06    +0.066 A 
DOCKED: ATOM     11  C   UNL d   1     -10.785   0.501   0.473 -0.32 -0.01    -0.021 A 
DOCKED: ATOM     12  C   UNL d   1      -9.950   0.600   1.569 -0.36 +0.00    +0.000 A 
DOCKED: ATOM     13  C   UNL d   1     -10.750   0.293   2.684 -0.25 +0.03    +0.070 A 
DOCKED: ATOM     14  C   UNL d   1     -10.379   0.667  -0.977 -0.34 +0.02    +0.052 C 
DOCKED: ATOM     15  C   UNL d   1     -11.050  -0.007   5.138 -0.37 +0.02    +0.066 A 
DOCKED: ATOM     16  C   UNL d   1     -10.616   0.145   6.449 -0.46 -0.00    -0.021 A 
DOCKED: ATOM     17  C   UNL d   1     -11.619  -0.342   7.262 -0.47 +0.00    +0.000 A 
DOCKED: ATOM     18  C   UNL d   1     -12.642  -0.784   6.426 -0.35 +0.01    +0.070 A 
DOCKED: ATOM     19  C   UNL d   1      -9.300   0.701   6.921 -0.41 +0.01    +0.052 C 
DOCKED: ATOM     20  C   UNL d   1     -14.910  -1.760   6.031 -0.18 +0.02    +0.066 A 
DOCKED: ATOM     21  C   UNL d   1     -16.011  -2.515   6.462 -0.17 -0.01    -0.025 A 
DOCKED: ATOM     22  C   UNL d   1     -16.833  -2.646   5.361 -0.09 -0.01    -0.021 A 
DOCKED: ATOM     23  C   UNL d   1     -16.202  -1.974   4.307 -0.09 +0.04    +0.066 A 
DOCKED: ATOM     24  C   UNL d   1     -16.281  -3.092   7.832 -0.28 +0.01    +0.051 C 
DOCKED: ATOM     25  N   UNL d   1     -14.694  -0.917   1.913 -0.14 -0.29    -0.248 N 
DOCKED: ATOM     26  N   UNL d   1     -12.024   0.010   2.316 -0.16 -0.17    -0.248 N 
DOCKED: ATOM     27  N   UNL d   1     -12.312  -0.539   5.122 -0.25 -0.07    -0.248 N 
DOCKED: ATOM     28  N   UNL d   1     -15.009  -1.474   4.710 -0.08 -0.14    -0.248 N 
DOCKED: ATOM     29 FE   UNL d   1     -13.516  -0.733   3.515 -0.06 +0.00    +0.000 Fe
DOCKED: ENDROOT
DOCKED: BRANCH   6  30
DOCKED: ATOM     30  C   UNL d   1     -17.914  -1.451   0.215 -0.06 +0.05    +0.052 C 
DOCKED: BRANCH  30  31
DOCKED: ATOM     31  C   UNL d   1     -18.847  -0.307   0.596 -0.04 +0.11    +0.115 C 
DOCKED: BRANCH  31  32
DOCKED: ATOM     32  C   UNL d   1     -18.080   0.795   1.273 -0.12 +0.22    +0.139 C 
DOCKED: ATOM     33  O   UNL d   1     -17.371   1.551   0.624 +0.05 -1.57    -0.650 OA
DOCKED: BRANCH  32  34
DOCKED: ATOM     34  O   UNL d   1     -18.167   0.958   2.604 -0.27 -1.48    -0.776 OA
DOCKED: ATOM     35  H   UNL d   1     -18.556   0.252   3.139 +0.03 +0.26    +0.167 HD
DOCKED: ENDBRANCH  32  34
DOCKED: ENDBRANCH  31  32
DOCKED: ENDBRANCH  30  31
DOCKED: ENDBRANCH   6  30
DOCKED: BRANCH  22  36
DOCKED: ATOM     36  C   UNL d   1     -18.127  -3.415   5.316 -0.09 +0.02    +0.052 C 
DOCKED: BRANCH  36  37
DOCKED: ATOM     37  C   UNL d   1     -19.286  -2.489   5.656 -0.05 +0.06    +0.115 C 
DOCKED: BRANCH  37  38
DOCKED: ATOM     38  C   UNL d   1     -19.431  -1.408   4.623 -0.06 +0.11    +0.139 C 
DOCKED: ATOM     39  O   UNL d   1     -19.569  -1.686   3.441 +0.04 -0.50    -0.650 OA
DOCKED: BRANCH  38  40
DOCKED: ATOM     40  O   UNL d   1     -19.407  -0.116   4.997 +0.05 -0.98    -0.776 OA
DOCKED: ATOM     41  H   UNL d   1     -18.714   0.462   4.647 +0.03 +0.26    +0.167 HD
DOCKED: ENDBRANCH  38  40
DOCKED: ENDBRANCH  37  38
DOCKED: ENDBRANCH  36  37
DOCKED: ENDBRANCH  22  36
DOCKED: BRANCH  12  42
DOCKED: ATOM     42  C   UNL d   1      -8.497   0.946   1.510 -0.46 +0.00    +0.004 C 
DOCKED: ATOM     43  C   UNL d   1      -8.082   2.082   0.933 -0.44 +0.00    +0.012 C 
DOCKED: ENDBRANCH  12  42
DOCKED: BRANCH  17  44
DOCKED: ATOM     44  C   UNL d   1     -11.608  -0.363   8.742 -0.61 +0.00    +0.004 C 
DOCKED: ATOM     45  C   UNL d   1     -12.702  -0.042   9.439 -0.59 +0.00    +0.012 C 
DOCKED: ENDBRANCH  17  44
DOCKED: TORSDOF 10
DOCKED: TER
DOCKED: ENDMDL
________________________________________________________________________________


	BEGINNING GENETIC ALGORITHM DOCKING 56 of 100
Run: 56 Seed: 957351985 148572204 [ Run 56 of 100 GA/GALS ]
Beginning LAMARCKIAN GENETIC ALGORITHM (LGA), with a maximum of 25000000 energy evaluations.

Final-Value: -13.841


	FINAL GENETIC ALGORITHM DOCKED STATE
	_______________________________________________


Detailed state:  trans -14.276 -1.668 2.642 quatxyzw -0.582114 -0.279733 0.055582 -0.761448 center -0.174 -0.001 -0.047 ntor 10 179.7771 -179.2248 83.9457 179.7994 127.8325 82.9039 111.6320 114.7011 7.7458 -167.5171
State:	-14.276  -1.668   2.642  -0.898 -0.432  0.086 -80.816    179.78 -179.22   83.95  179.80  127.83   82.90  111.63  114.70    7.75 -167.52

DOCKED: MODEL       56
DOCKED: USER    Run = 56
DOCKED: USER    DPF = D:/Protein_go_brrr/autodock/final/AncMH_nat/heme_Fe/dock.dpf
DOCKED: USER  
DOCKED: USER    Estimated Free Energy of Binding    =  -10.15 kcal/mol  [=(1)+(2)+(3)-(4)]
DOCKED: USER    Estimated Inhibition Constant, Ki   =   36.56 nM (nanomolar)  [Temperature = 298.15 K]
DOCKED: USER    
DOCKED: USER    (1) Final Intermolecular Energy     =  -13.13 kcal/mol
DOCKED: USER        vdW + Hbond + desolv Energy     =   -9.80 kcal/mol
DOCKED: USER        Electrostatic Energy            =   -3.33 kcal/mol
DOCKED: USER    (2) Final Total Internal Energy     =   -0.71 kcal/mol
DOCKED: USER    (3) Torsional Free Energy           =   +2.98 kcal/mol
DOCKED: USER    (4) Unbound System's Energy  [=(2)] =   -0.71 kcal/mol
DOCKED: USER    
DOCKED: USER    
DOCKED: USER    NEWDPF move heme_Fe_opt.pdbqt
DOCKED: USER    NEWDPF about -0.174000 -0.001000 -0.047000
DOCKED: USER    NEWDPF tran0 -14.275776 -1.667781 2.642140
DOCKED: USER    NEWDPF quaternion0 -0.582114 -0.279733 0.055582 -0.761448
DOCKED: USER    NEWDPF axisangle0 -0.898011 -0.431536 0.085745 -80.815903
DOCKED: USER    NEWDPF quat0 -0.898011 -0.431536 0.085745 -80.815903
DOCKED: USER    NEWDPF dihe0 179.78 -179.22 83.95 179.80 127.83 82.90 111.63 114.70 7.75 -167.52 
DOCKED: USER  keepresnum = 1 
DOCKED: USER  
DOCKED: REMARK  10 active torsions:
DOCKED: REMARK  status: ('A' for Active; 'I' for Inactive)
DOCKED: REMARK    1  A    between atoms: C_6  and  C_10 
DOCKED: REMARK    2  A    between atoms: C_10  and  C_11 
DOCKED: REMARK    3  A    between atoms: C_11  and  C_12 
DOCKED: REMARK    4  A    between atoms: C_12  and  O_14 
DOCKED: REMARK    5  A    between atoms: C_17  and  C_20 
DOCKED: REMARK    6  A    between atoms: C_24  and  C_27 
DOCKED: REMARK    7  A    between atoms: C_31  and  C_34 
DOCKED: REMARK    8  A    between atoms: C_34  and  C_35 
DOCKED: REMARK    9  A    between atoms: C_35  and  C_36 
DOCKED: REMARK   10  A    between atoms: C_36  and  O_38 
DOCKED: USER                              x       y       z     vdW  Elec       q    Type
DOCKED: USER                           _______ _______ _______ _____ _____    ______ ____
DOCKED: ROOT
DOCKED: ATOM      1  C   UNL d   1     -16.210  -2.044   2.069 -0.14 +0.06    +0.064 C 
DOCKED: ATOM      2  C   UNL d   1     -13.858  -1.763   6.407 -0.31 +0.02    +0.064 A 
DOCKED: ATOM      3  C   UNL d   1     -10.169   0.370   4.191 -0.30 +0.02    +0.064 C 
DOCKED: ATOM      4  C   UNL d   1     -12.383   0.013  -0.035 -0.26 +0.06    +0.064 C 
DOCKED: ATOM      5  C   UNL d   1     -15.855  -2.238   3.481 -0.11 +0.05    +0.066 A 
DOCKED: ATOM      6  C   UNL d   1     -16.631  -2.919   4.405 -0.08 -0.01    -0.021 A 
DOCKED: ATOM      7  C   UNL d   1     -15.979  -2.837   5.611 -0.14 -0.01    -0.025 A 
DOCKED: ATOM      8  C   UNL d   1     -14.828  -2.109   5.376 -0.18 +0.03    +0.066 A 
DOCKED: ATOM      9  C   UNL d   1     -16.433  -3.442   6.903 -0.22 +0.02    +0.051 C 
DOCKED: ATOM     10  C   UNL d   1     -12.713  -1.112   6.197 -0.34 +0.01    +0.066 A 
DOCKED: ATOM     11  C   UNL d   1     -11.859  -0.694   7.221 -0.37 -0.00    -0.021 A 
DOCKED: ATOM     12  C   UNL d   1     -10.796  -0.061   6.609 -0.48 +0.00    +0.000 A 
DOCKED: ATOM     13  C   UNL d   1     -11.062  -0.119   5.229 -0.36 +0.02    +0.070 A 
DOCKED: ATOM     14  C   UNL d   1     -12.080  -0.831   8.713 -0.52 +0.00    +0.052 C 
DOCKED: ATOM     15  C   UNL d   1     -10.445   0.364   2.865 -0.27 +0.03    +0.066 A 
DOCKED: ATOM     16  C   UNL d   1      -9.525   0.748   1.897 -0.35 -0.01    -0.021 A 
DOCKED: ATOM     17  C   UNL d   1     -10.163   0.649   0.678 -0.36 +0.00    +0.000 A 
DOCKED: ATOM     18  C   UNL d   1     -11.460   0.210   0.931 -0.26 +0.05    +0.070 A 
DOCKED: ATOM     19  C   UNL d   1      -8.110   1.215   2.110 -0.40 +0.01    +0.052 C 
DOCKED: ATOM     20  C   UNL d   1     -13.738  -0.507   0.188 -0.18 +0.09    +0.066 A 
DOCKED: ATOM     21  C   UNL d   1     -14.764  -0.527  -0.767 -0.17 -0.03    -0.025 A 
DOCKED: ATOM     22  C   UNL d   1     -15.842  -1.129  -0.150 -0.16 -0.03    -0.021 A 
DOCKED: ATOM     23  C   UNL d   1     -15.434  -1.445   1.152 -0.16 +0.08    +0.066 A 
DOCKED: ATOM     24  C   UNL d   1     -14.744  -0.007  -2.186 -0.14 +0.05    +0.051 C 
DOCKED: ATOM     25  N   UNL d   1     -14.751  -1.755   4.077 -0.11 -0.15    -0.248 N 
DOCKED: ATOM     26  N   UNL d   1     -12.235  -0.751   4.978 -0.22 -0.08    -0.248 N 
DOCKED: ATOM     27  N   UNL d   1     -11.621  -0.008   2.271 -0.16 -0.15    -0.248 N 
DOCKED: ATOM     28  N   UNL d   1     -14.164  -1.022   1.366 -0.16 -0.30    -0.248 N 
DOCKED: ATOM     29 FE   UNL d   1     -13.199  -0.886   3.170 -0.06 +0.00    +0.000 Fe
DOCKED: ENDROOT
DOCKED: BRANCH   6  30
DOCKED: ATOM     30  C   UNL d   1     -17.916  -3.630   4.154 -0.08 +0.03    +0.052 C 
DOCKED: BRANCH  30  31
DOCKED: ATOM     31  C   UNL d   1     -17.678  -5.122   3.952 -0.11 +0.06    +0.115 C 
DOCKED: BRANCH  31  32
DOCKED: ATOM     32  C   UNL d   1     -16.943  -5.367   2.663 -0.09 +0.12    +0.139 C 
DOCKED: ATOM     33  O   UNL d   1     -15.922  -6.041   2.647 -0.41 -0.73    -0.650 OA
DOCKED: BRANCH  32  34
DOCKED: ATOM     34  O   UNL d   1     -17.403  -4.845   1.514 -0.10 -0.88    -0.776 OA
DOCKED: ATOM     35  H   UNL d   1     -18.212  -4.315   1.530 +0.02 +0.13    +0.167 HD
DOCKED: ENDBRANCH  32  34
DOCKED: ENDBRANCH  31  32
DOCKED: ENDBRANCH  30  31
DOCKED: ENDBRANCH   6  30
DOCKED: BRANCH  22  36
DOCKED: ATOM     36  C   UNL d   1     -17.200  -1.343  -0.764 -0.10 +0.05    +0.052 C 
DOCKED: BRANCH  36  37
DOCKED: ATOM     37  C   UNL d   1     -17.913  -0.007  -0.910 -0.04 +0.11    +0.115 C 
DOCKED: BRANCH  37  38
DOCKED: ATOM     38  C   UNL d   1     -18.223   0.588   0.434 -0.08 +0.18    +0.139 C 
DOCKED: ATOM     39  O   UNL d   1     -17.378   1.223   1.047 -0.23 -1.46    -0.650 OA
DOCKED: BRANCH  38  40
DOCKED: ATOM     40  O   UNL d   1     -19.443   0.421   0.977 +0.02 -0.91    -0.776 OA
DOCKED: ATOM     41  H   UNL d   1     -20.106  -0.090   0.494 +0.02 +0.14    +0.167 HD
DOCKED: ENDBRANCH  38  40
DOCKED: ENDBRANCH  37  38
DOCKED: ENDBRANCH  36  37
DOCKED: ENDBRANCH  22  36
DOCKED: BRANCH  12  42
DOCKED: ATOM     42  C   UNL d   1      -9.639   0.557   7.327 -0.50 +0.00    +0.004 C 
DOCKED: ATOM     43  C   UNL d   1      -8.379   0.304   6.949 -0.48 +0.00    +0.012 C 
DOCKED: ENDBRANCH  12  42
DOCKED: BRANCH  17  44
DOCKED: ATOM     44  C   UNL d   1      -9.563   0.936  -0.645 -0.39 +0.00    +0.004 C 
DOCKED: ATOM     45  C   UNL d   1     -10.146   1.794  -1.489 -0.32 +0.00    +0.012 C 
DOCKED: ENDBRANCH  17  44
DOCKED: TORSDOF 10
DOCKED: TER
DOCKED: ENDMDL
________________________________________________________________________________


	BEGINNING GENETIC ALGORITHM DOCKING 57 of 100
Run: 57 Seed: 867865437 1286471196 [ Run 57 of 100 GA/GALS ]
Beginning LAMARCKIAN GENETIC ALGORITHM (LGA), with a maximum of 25000000 energy evaluations.

Final-Value: -11.145


	FINAL GENETIC ALGORITHM DOCKED STATE
	_______________________________________________


Detailed state:  trans -11.660 -12.003 17.731 quatxyzw 0.926767 -0.360055 -0.082595 -0.068135 center -0.174 -0.001 -0.047 ntor 10 -177.7858 -2.9062 81.5178 -156.0704 -61.3735 -131.4752 24.5315 -62.2389 -29.7219 -23.9198
State:	-11.660 -12.003  17.731   0.929 -0.361 -0.083 -172.186   -177.79   -2.91   81.52 -156.07  -61.37 -131.48   24.53  -62.24  -29.72  -23.92

DOCKED: MODEL       57
DOCKED: USER    Run = 57
DOCKED: USER    DPF = D:/Protein_go_brrr/autodock/final/AncMH_nat/heme_Fe/dock.dpf
DOCKED: USER  
DOCKED: USER    Estimated Free Energy of Binding    =   -6.38 kcal/mol  [=(1)+(2)+(3)-(4)]
DOCKED: USER    Estimated Inhibition Constant, Ki   =   21.20 uM (micromolar)  [Temperature = 298.15 K]
DOCKED: USER    
DOCKED: USER    (1) Final Intermolecular Energy     =   -9.36 kcal/mol
DOCKED: USER        vdW + Hbond + desolv Energy     =   -7.07 kcal/mol
DOCKED: USER        Electrostatic Energy            =   -2.28 kcal/mol
DOCKED: USER    (2) Final Total Internal Energy     =   -1.79 kcal/mol
DOCKED: USER    (3) Torsional Free Energy           =   +2.98 kcal/mol
DOCKED: USER    (4) Unbound System's Energy  [=(2)] =   -1.79 kcal/mol
DOCKED: USER    
DOCKED: USER    
DOCKED: USER    NEWDPF move heme_Fe_opt.pdbqt
DOCKED: USER    NEWDPF about -0.174000 -0.001000 -0.047000
DOCKED: USER    NEWDPF tran0 -11.660451 -12.002954 17.730990
DOCKED: USER    NEWDPF quaternion0 0.926767 -0.360055 -0.082595 -0.068135
DOCKED: USER    NEWDPF axisangle0 0.928925 -0.360894 -0.082787 -172.186234
DOCKED: USER    NEWDPF quat0 0.928925 -0.360894 -0.082787 -172.186234
DOCKED: USER    NEWDPF dihe0 -177.79 -2.91 81.52 -156.07 -61.37 -131.48 24.53 -62.24 -29.72 -23.92 
DOCKED: USER  keepresnum = 1 
DOCKED: USER  
DOCKED: REMARK  10 active torsions:
DOCKED: REMARK  status: ('A' for Active; 'I' for Inactive)
DOCKED: REMARK    1  A    between atoms: C_6  and  C_10 
DOCKED: REMARK    2  A    between atoms: C_10  and  C_11 
DOCKED: REMARK    3  A    between atoms: C_11  and  C_12 
DOCKED: REMARK    4  A    between atoms: C_12  and  O_14 
DOCKED: REMARK    5  A    between atoms: C_17  and  C_20 
DOCKED: REMARK    6  A    between atoms: C_24  and  C_27 
DOCKED: REMARK    7  A    between atoms: C_31  and  C_34 
DOCKED: REMARK    8  A    between atoms: C_34  and  C_35 
DOCKED: REMARK    9  A    between atoms: C_35  and  C_36 
DOCKED: REMARK   10  A    between atoms: C_36  and  O_38 
DOCKED: USER                              x       y       z     vdW  Elec       q    Type
DOCKED: USER                           _______ _______ _______ _____ _____    ______ ____
DOCKED: ROOT
DOCKED: ATOM      1  C   UNL d   1     -13.170 -10.651  17.406 -0.15 +0.02    +0.064 C 
DOCKED: ATOM      2  C   UNL d   1      -8.294 -10.684  16.598 -0.27 +0.03    +0.064 A 
DOCKED: ATOM      3  C   UNL d   1      -8.282 -15.438  17.282 -0.13 -0.00    +0.064 C 
DOCKED: ATOM      4  C   UNL d   1     -12.983 -15.413  18.171 -0.12 -0.02    +0.064 C 
DOCKED: ATOM      5  C   UNL d   1     -11.784 -10.208  17.198 -0.22 +0.02    +0.066 A 
DOCKED: ATOM      6  C   UNL d   1     -11.387  -8.886  17.074 -0.30 -0.01    -0.021 A 
DOCKED: ATOM      7  C   UNL d   1     -10.033  -8.897  16.846 -0.34 -0.01    -0.025 A 
DOCKED: ATOM      8  C   UNL d   1      -9.656 -10.225  16.840 -0.26 +0.02    +0.066 A 
DOCKED: ATOM      9  C   UNL d   1      -9.159  -7.694  16.666 -0.44 +0.01    +0.051 C 
DOCKED: ATOM     10  C   UNL d   1      -7.892 -11.956  16.643 -0.20 +0.04    +0.066 A 
DOCKED: ATOM     11  C   UNL d   1      -6.606 -12.375  16.295 -0.26 -0.01    -0.021 A 
DOCKED: ATOM     12  C   UNL d   1      -6.582 -13.745  16.468 -0.25 +0.00    +0.000 A 
DOCKED: ATOM     13  C   UNL d   1      -7.870 -14.095  16.909 -0.20 +0.02    +0.070 A 
DOCKED: ATOM     14  C   UNL d   1      -5.475 -11.522  15.758 -0.28 +0.01    +0.052 C 
DOCKED: ATOM     15  C   UNL d   1      -9.535 -15.789  17.658 -0.09 -0.01    +0.066 A 
DOCKED: ATOM     16  C   UNL d   1      -9.865 -17.062  18.103 -0.05 +0.00    -0.021 A 
DOCKED: ATOM     17  C   UNL d   1     -11.221 -17.059  18.356 -0.08 -0.00    +0.000 A 
DOCKED: ATOM     18  C   UNL d   1     -11.688 -15.781  18.055 -0.10 -0.01    +0.070 A 
DOCKED: ATOM     19  C   UNL d   1      -8.949 -18.246  18.260 -0.06 -0.01    +0.052 C 
DOCKED: ATOM     20  C   UNL d   1     -13.500 -14.062  17.923 -0.16 -0.02    +0.066 A 
DOCKED: ATOM     21  C   UNL d   1     -14.856 -13.716  17.844 -0.17 +0.01    -0.025 A 
DOCKED: ATOM     22  C   UNL d   1     -14.887 -12.352  17.638 -0.20 +0.00    -0.021 A 
DOCKED: ATOM     23  C   UNL d   1     -13.555 -11.923  17.593 -0.18 +0.00    +0.066 A 
DOCKED: ATOM     24  C   UNL d   1     -16.067 -14.614  17.951 -0.11 -0.03    +0.051 C 
DOCKED: ATOM     25  N   UNL d   1     -10.722 -11.020  17.063 -0.14 -0.07    -0.248 N 
DOCKED: ATOM     26  N   UNL d   1      -8.672 -13.006  17.007 -0.11 -0.10    -0.248 N 
DOCKED: ATOM     27  N   UNL d   1     -10.645 -14.987  17.668 -0.09 +0.03    -0.248 N 
DOCKED: ATOM     28  N   UNL d   1     -12.713 -12.978  17.723 -0.12 +0.03    -0.248 N 
DOCKED: ATOM     29 FE   UNL d   1     -10.694 -12.993  17.365 -0.04 +0.00    +0.000 Fe
DOCKED: ENDROOT
DOCKED: BRANCH   6  30
DOCKED: ATOM     30  C   UNL d   1     -12.245  -7.673  17.188 -0.35 +0.02    +0.052 C 
DOCKED: BRANCH  30  31
DOCKED: ATOM     31  C   UNL d   1     -12.908  -7.607  18.559 -0.17 +0.05    +0.115 C 
DOCKED: BRANCH  31  32
DOCKED: ATOM     32  C   UNL d   1     -14.171  -6.793  18.494 -0.10 +0.13    +0.139 C 
DOCKED: ATOM     33  O   UNL d   1     -14.136  -5.613  18.173 -0.05 -0.52    -0.650 OA
DOCKED: BRANCH  32  34
DOCKED: ATOM     34  O   UNL d   1     -15.354  -7.357  18.790 -0.18 -1.16    -0.776 OA
DOCKED: ATOM     35  H   UNL d   1     -15.374  -8.282  19.075 +0.01 +0.18    +0.167 HD
DOCKED: ENDBRANCH  32  34
DOCKED: ENDBRANCH  31  32
DOCKED: ENDBRANCH  30  31
DOCKED: ENDBRANCH   6  30
DOCKED: BRANCH  22  36
DOCKED: ATOM     36  C   UNL d   1     -16.126 -11.519  17.447 -0.14 +0.01    +0.052 C 
DOCKED: BRANCH  36  37
DOCKED: ATOM     37  C   UNL d   1     -16.855 -11.370  18.774 -0.08 +0.02    +0.115 C 
DOCKED: BRANCH  37  38
DOCKED: ATOM     38  C   UNL d   1     -16.901  -9.931  19.205 -0.08 +0.08    +0.139 C 
DOCKED: ATOM     39  O   UNL d   1     -16.590  -9.608  20.342 -0.00 -0.23    -0.650 OA
DOCKED: BRANCH  38  40
DOCKED: ATOM     40  O   UNL d   1     -17.293  -8.983  18.335 -0.37 -1.14    -0.776 OA
DOCKED: ATOM     41  H   UNL d   1     -17.362  -8.067  18.639 +0.01 +0.31    +0.167 HD
DOCKED: ENDBRANCH  38  40
DOCKED: ENDBRANCH  37  38
DOCKED: ENDBRANCH  36  37
DOCKED: ENDBRANCH  22  36
DOCKED: BRANCH  12  42
DOCKED: ATOM     42  C   UNL d   1      -5.399 -14.620  16.201 -0.23 +0.00    +0.004 C 
DOCKED: ATOM     43  C   UNL d   1      -4.970 -15.497  17.118 -0.15 -0.00    +0.012 C 
DOCKED: ENDBRANCH  12  42
DOCKED: BRANCH  17  44
DOCKED: ATOM     44  C   UNL d   1     -12.015 -18.197  18.873 -0.04 -0.00    +0.004 C 
DOCKED: ATOM     45  C   UNL d   1     -12.781 -18.925  18.054 -0.04 -0.00    +0.012 C 
DOCKED: ENDBRANCH  17  44
DOCKED: TORSDOF 10
DOCKED: TER
DOCKED: ENDMDL
________________________________________________________________________________


	BEGINNING GENETIC ALGORITHM DOCKING 58 of 100
Run: 58 Seed: 1270750702 1468671949 [ Run 58 of 100 GA/GALS ]
Beginning LAMARCKIAN GENETIC ALGORITHM (LGA), with a maximum of 25000000 energy evaluations.

Final-Value: -15.824


	FINAL GENETIC ALGORITHM DOCKED STATE
	_______________________________________________


Detailed state:  trans -12.671 -0.133 1.846 quatxyzw -0.753618 0.183781 -0.316262 0.546135 center -0.174 -0.001 -0.047 ntor 10 -52.9863 -155.7082 69.2857 -8.4802 162.4899 -106.1977 82.1638 -149.3869 -5.1063 -24.1895
State:	-12.671  -0.133   1.846  -0.900  0.219 -0.378 113.796    -52.99 -155.71   69.29   -8.48  162.49 -106.20   82.16 -149.39   -5.11  -24.19

DOCKED: MODEL       58
DOCKED: USER    Run = 58
DOCKED: USER    DPF = D:/Protein_go_brrr/autodock/final/AncMH_nat/heme_Fe/dock.dpf
DOCKED: USER  
DOCKED: USER    Estimated Free Energy of Binding    =  -10.84 kcal/mol  [=(1)+(2)+(3)-(4)]
DOCKED: USER    Estimated Inhibition Constant, Ki   =   11.33 nM (nanomolar)  [Temperature = 298.15 K]
DOCKED: USER    
DOCKED: USER    (1) Final Intermolecular Energy     =  -13.82 kcal/mol
DOCKED: USER        vdW + Hbond + desolv Energy     =  -10.00 kcal/mol
DOCKED: USER        Electrostatic Energy            =   -3.82 kcal/mol
DOCKED: USER    (2) Final Total Internal Energy     =   -2.00 kcal/mol
DOCKED: USER    (3) Torsional Free Energy           =   +2.98 kcal/mol
DOCKED: USER    (4) Unbound System's Energy  [=(2)] =   -2.00 kcal/mol
DOCKED: USER    
DOCKED: USER    
DOCKED: USER    NEWDPF move heme_Fe_opt.pdbqt
DOCKED: USER    NEWDPF about -0.174000 -0.001000 -0.047000
DOCKED: USER    NEWDPF tran0 -12.671174 -0.133428 1.846418
DOCKED: USER    NEWDPF quaternion0 -0.753618 0.183781 -0.316262 0.546135
DOCKED: USER    NEWDPF axisangle0 -0.899630 0.219388 -0.377538 113.795534
DOCKED: USER    NEWDPF quat0 -0.899630 0.219388 -0.377538 113.795534
DOCKED: USER    NEWDPF dihe0 -52.99 -155.71 69.29 -8.48 162.49 -106.20 82.16 -149.39 -5.11 -24.19 
DOCKED: USER  keepresnum = 1 
DOCKED: USER  
DOCKED: REMARK  10 active torsions:
DOCKED: REMARK  status: ('A' for Active; 'I' for Inactive)
DOCKED: REMARK    1  A    between atoms: C_6  and  C_10 
DOCKED: REMARK    2  A    between atoms: C_10  and  C_11 
DOCKED: REMARK    3  A    between atoms: C_11  and  C_12 
DOCKED: REMARK    4  A    between atoms: C_12  and  O_14 
DOCKED: REMARK    5  A    between atoms: C_17  and  C_20 
DOCKED: REMARK    6  A    between atoms: C_24  and  C_27 
DOCKED: REMARK    7  A    between atoms: C_31  and  C_34 
DOCKED: REMARK    8  A    between atoms: C_34  and  C_35 
DOCKED: REMARK    9  A    between atoms: C_35  and  C_36 
DOCKED: REMARK   10  A    between atoms: C_36  and  O_38 
DOCKED: USER                              x       y       z     vdW  Elec       q    Type
DOCKED: USER                           _______ _______ _______ _____ _____    ______ ____
DOCKED: ROOT
DOCKED: ATOM      1  C   UNL d   1     -13.939  -0.749   0.355 -0.19 +0.08    +0.064 C 
DOCKED: ATOM      2  C   UNL d   1      -9.248   0.800   0.517 -0.38 +0.02    +0.064 A 
DOCKED: ATOM      3  C   UNL d   1      -9.267   0.140   5.275 -0.15 +0.02    +0.064 C 
DOCKED: ATOM      4  C   UNL d   1     -13.840  -1.262   5.153 -0.20 +0.03    +0.064 C 
DOCKED: ATOM      5  C   UNL d   1     -12.643  -0.172  -0.030 -0.20 +0.07    +0.066 A 
DOCKED: ATOM      6  C   UNL d   1     -12.314   0.252  -1.307 -0.21 -0.02    -0.021 A 
DOCKED: ATOM      7  C   UNL d   1     -11.010   0.679  -1.262 -0.28 -0.01    -0.025 A 
DOCKED: ATOM      8  C   UNL d   1     -10.592   0.498   0.043 -0.31 +0.03    +0.066 A 
DOCKED: ATOM      9  C   UNL d   1     -10.225   1.243  -2.406 -0.30 +0.01    +0.051 C 
DOCKED: ATOM     10  C   UNL d   1      -8.837   0.690   1.782 -0.35 +0.01    +0.066 A 
DOCKED: ATOM     11  C   UNL d   1      -7.512   0.876   2.185 -0.36 -0.00    -0.021 A 
DOCKED: ATOM     12  C   UNL d   1      -7.488   0.675   3.551 -0.34 +0.00    +0.000 A 
DOCKED: ATOM     13  C   UNL d   1      -8.811   0.365   3.912 -0.13 +0.02    +0.070 A 
DOCKED: ATOM     14  C   UNL d   1      -6.315   1.165   1.303 -0.34 +0.00    +0.052 C 
DOCKED: ATOM     15  C   UNL d   1     -10.528  -0.210   5.622 -0.37 +0.02    +0.066 A 
DOCKED: ATOM     16  C   UNL d   1     -10.949  -0.318   6.942 -0.36 -0.00    -0.021 A 
DOCKED: ATOM     17  C   UNL d   1     -12.267  -0.726   6.909 -0.43 +0.00    +0.000 A 
DOCKED: ATOM     18  C   UNL d   1     -12.618  -0.861   5.568 -0.33 +0.02    +0.070 A 
DOCKED: ATOM     19  C   UNL d   1     -10.140  -0.073   8.187 -0.42 +0.01    +0.052 C 
DOCKED: ATOM     20  C   UNL d   1     -14.264  -1.357   3.751 -0.20 +0.04    +0.066 A 
DOCKED: ATOM     21  C   UNL d   1     -15.449  -1.957   3.303 -0.15 -0.02    -0.025 A 
DOCKED: ATOM     22  C   UNL d   1     -15.463  -1.788   1.933 -0.17 -0.02    -0.021 A 
DOCKED: ATOM     23  C   UNL d   1     -14.289  -1.101   1.602 -0.22 +0.08    +0.066 A 
DOCKED: ATOM     24  C   UNL d   1     -16.516  -2.658   4.111 -0.10 +0.03    +0.051 C 
DOCKED: ATOM     25  N   UNL d   1     -11.591  -0.010   0.792 -0.17 -0.18    -0.248 N 
DOCKED: ATOM     26  N   UNL d   1      -9.631   0.365   2.833 -0.21 -0.08    -0.248 N 
DOCKED: ATOM     27  N   UNL d   1     -11.564  -0.502   4.775 -0.18 -0.08    -0.248 N 
DOCKED: ATOM     28  N   UNL d   1     -13.540  -0.880   2.710 -0.16 -0.21    -0.248 N 
DOCKED: ATOM     29 FE   UNL d   1     -11.587  -0.258   2.773 -0.07 +0.00    +0.000 Fe
DOCKED: ENDROOT
DOCKED: BRANCH   6  30
DOCKED: ATOM     30  C   UNL d   1     -13.198   0.272  -2.506 -0.17 +0.04    +0.052 C 
DOCKED: BRANCH  30  31
DOCKED: ATOM     31  C   UNL d   1     -14.046   1.540  -2.532 -0.09 +0.10    +0.115 C 
DOCKED: BRANCH  31  32
DOCKED: ATOM     32  C   UNL d   1     -15.417   1.267  -1.978 -0.01 +0.19    +0.139 C 
DOCKED: ATOM     33  O   UNL d   1     -16.136   2.186  -1.613 +0.04 -1.26    -0.650 OA
DOCKED: BRANCH  32  34
DOCKED: ATOM     34  O   UNL d   1     -15.866   0.004  -1.880 +0.02 -0.84    -0.776 OA
DOCKED: ATOM     35  H   UNL d   1     -16.201  -0.310  -1.029 +0.03 +0.21    +0.167 HD
DOCKED: ENDBRANCH  32  34
DOCKED: ENDBRANCH  31  32
DOCKED: ENDBRANCH  30  31
DOCKED: ENDBRANCH   6  30
DOCKED: BRANCH  22  36
DOCKED: ATOM     36  C   UNL d   1     -16.522  -2.302   0.994 -0.10 +0.06    +0.052 C 
DOCKED: BRANCH  36  37
DOCKED: ATOM     37  C   UNL d   1     -17.791  -1.476   1.149 -0.05 +0.11    +0.115 C 
DOCKED: BRANCH  37  38
DOCKED: ATOM     38  C   UNL d   1     -17.469  -0.068   1.562 -0.11 +0.19    +0.139 C 
DOCKED: ATOM     39  O   UNL d   1     -17.680   0.313   2.704 -0.07 -0.95    -0.650 OA
DOCKED: BRANCH  38  40
DOCKED: ATOM     40  O   UNL d   1     -16.947   0.791   0.668 -0.33 -1.86    -0.776 OA
DOCKED: ATOM     41  H   UNL d   1     -17.099   0.638  -0.275 +0.02 +0.29    +0.167 HD
DOCKED: ENDBRANCH  38  40
DOCKED: ENDBRANCH  37  38
DOCKED: ENDBRANCH  36  37
DOCKED: ENDBRANCH  22  36
DOCKED: BRANCH  12  42
DOCKED: ATOM     42  C   UNL d   1      -6.265   0.764   4.408 -0.39 +0.00    +0.004 C 
DOCKED: ATOM     43  C   UNL d   1      -6.167   1.685   5.375 -0.42 +0.00    +0.012 C 
DOCKED: ENDBRANCH  12  42
DOCKED: BRANCH  17  44
DOCKED: ATOM     44  C   UNL d   1     -13.139  -0.951   8.084 -0.54 +0.00    +0.004 C 
DOCKED: ATOM     45  C   UNL d   1     -13.175  -0.070   9.089 -0.54 +0.00    +0.012 C 
DOCKED: ENDBRANCH  17  44
DOCKED: TORSDOF 10
DOCKED: TER
DOCKED: ENDMDL
________________________________________________________________________________


	BEGINNING GENETIC ALGORITHM DOCKING 59 of 100
Run: 59 Seed: 551431569 1564439436 [ Run 59 of 100 GA/GALS ]
Beginning LAMARCKIAN GENETIC ALGORITHM (LGA), with a maximum of 25000000 energy evaluations.

Final-Value: -15.163


	FINAL GENETIC ALGORITHM DOCKED STATE
	_______________________________________________


Detailed state:  trans -10.612 -0.011 2.453 quatxyzw -0.567886 -0.285814 -0.056312 -0.769835 center -0.174 -0.001 -0.047 ntor 10 -75.4889 -32.1992 46.7704 -124.7014 163.6268 -53.1369 -69.0851 0.0144 177.8238 -154.6398
State:	-10.612  -0.011   2.453  -0.890 -0.448 -0.088 -79.322    -75.49  -32.20   46.77 -124.70  163.63  -53.14  -69.09    0.01  177.82 -154.64

DOCKED: MODEL       59
DOCKED: USER    Run = 59
DOCKED: USER    DPF = D:/Protein_go_brrr/autodock/final/AncMH_nat/heme_Fe/dock.dpf
DOCKED: USER  
DOCKED: USER    Estimated Free Energy of Binding    =  -11.82 kcal/mol  [=(1)+(2)+(3)-(4)]
DOCKED: USER    Estimated Inhibition Constant, Ki   =    2.15 nM (nanomolar)  [Temperature = 298.15 K]
DOCKED: USER    
DOCKED: USER    (1) Final Intermolecular Energy     =  -14.81 kcal/mol
DOCKED: USER        vdW + Hbond + desolv Energy     =  -11.51 kcal/mol
DOCKED: USER        Electrostatic Energy            =   -3.30 kcal/mol
DOCKED: USER    (2) Final Total Internal Energy     =   -0.36 kcal/mol
DOCKED: USER    (3) Torsional Free Energy           =   +2.98 kcal/mol
DOCKED: USER    (4) Unbound System's Energy  [=(2)] =   -0.36 kcal/mol
DOCKED: USER    
DOCKED: USER    
DOCKED: USER    NEWDPF move heme_Fe_opt.pdbqt
DOCKED: USER    NEWDPF about -0.174000 -0.001000 -0.047000
DOCKED: USER    NEWDPF tran0 -10.611864 -0.010998 2.452963
DOCKED: USER    NEWDPF quaternion0 -0.567886 -0.285814 -0.056312 -0.769835
DOCKED: USER    NEWDPF axisangle0 -0.889763 -0.447813 -0.088229 -79.321931
DOCKED: USER    NEWDPF quat0 -0.889763 -0.447813 -0.088229 -79.321931
DOCKED: USER    NEWDPF dihe0 -75.49 -32.20 46.77 -124.70 163.63 -53.14 -69.09 0.01 177.82 -154.64 
DOCKED: USER  keepresnum = 1 
DOCKED: USER  
DOCKED: REMARK  10 active torsions:
DOCKED: REMARK  status: ('A' for Active; 'I' for Inactive)
DOCKED: REMARK    1  A    between atoms: C_6  and  C_10 
DOCKED: REMARK    2  A    between atoms: C_10  and  C_11 
DOCKED: REMARK    3  A    between atoms: C_11  and  C_12 
DOCKED: REMARK    4  A    between atoms: C_12  and  O_14 
DOCKED: REMARK    5  A    between atoms: C_17  and  C_20 
DOCKED: REMARK    6  A    between atoms: C_24  and  C_27 
DOCKED: REMARK    7  A    between atoms: C_31  and  C_34 
DOCKED: REMARK    8  A    between atoms: C_34  and  C_35 
DOCKED: REMARK    9  A    between atoms: C_35  and  C_36 
DOCKED: REMARK   10  A    between atoms: C_36  and  O_38 
DOCKED: USER                              x       y       z     vdW  Elec       q    Type
DOCKED: USER                           _______ _______ _______ _____ _____    ______ ____
DOCKED: ROOT
DOCKED: ATOM      1  C   UNL d   1     -12.481  -0.021   1.606 -0.29 +0.06    +0.064 C 
DOCKED: ATOM      2  C   UNL d   1     -10.743  -0.487   6.210 -0.31 +0.01    +0.064 A 
DOCKED: ATOM      3  C   UNL d   1      -6.505   1.200   4.707 -0.36 +0.01    +0.064 C 
DOCKED: ATOM      4  C   UNL d   1      -8.135   1.560   0.224 -0.33 +0.01    +0.064 C 
DOCKED: ATOM      5  C   UNL d   1     -12.360  -0.387   3.024 -0.18 +0.04    +0.066 A 
DOCKED: ATOM      6  C   UNL d   1     -13.350  -1.008   3.768 -0.25 -0.01    -0.021 A 
DOCKED: ATOM      7  C   UNL d   1     -12.868  -1.134   5.047 -0.30 -0.01    -0.025 A 
DOCKED: ATOM      8  C   UNL d   1     -11.601  -0.584   5.035 -0.16 +0.02    +0.066 A 
DOCKED: ATOM      9  C   UNL d   1     -13.584  -1.764   6.202 -0.38 +0.01    +0.051 C 
DOCKED: ATOM     10  C   UNL d   1      -9.496  -0.014   6.213 -0.36 +0.01    +0.066 A 
DOCKED: ATOM     11  C   UNL d   1      -8.741   0.173   7.374 -0.38 -0.00    -0.021 A 
DOCKED: ATOM     12  C   UNL d   1      -7.521   0.674   6.969 -0.43 +0.00    +0.000 A 
DOCKED: ATOM     13  C   UNL d   1      -7.597   0.776   5.569 -0.16 +0.02    +0.070 A 
DOCKED: ATOM     14  C   UNL d   1      -9.186  -0.051   8.805 -0.36 +0.01    +0.052 C 
DOCKED: ATOM     15  C   UNL d   1      -6.590   1.349   3.364 -0.32 +0.01    +0.066 A 
DOCKED: ATOM     16  C   UNL d   1      -5.497   1.659   2.565 -0.36 -0.00    -0.021 A 
DOCKED: ATOM     17  C   UNL d   1      -5.966   1.767   1.271 -0.43 +0.00    +0.000 A 
DOCKED: ATOM     18  C   UNL d   1      -7.337   1.524   1.313 -0.39 +0.01    +0.070 A 
DOCKED: ATOM     19  C   UNL d   1      -4.072   1.872   3.000 -0.16 -0.00    +0.052 C 
DOCKED: ATOM     20  C   UNL d   1      -9.569   1.249   0.220 -0.33 +0.02    +0.066 A 
DOCKED: ATOM     21  C   UNL d   1     -10.444   1.475  -0.853 -0.30 -0.01    -0.025 A 
DOCKED: ATOM     22  C   UNL d   1     -11.674   1.005  -0.441 -0.25 -0.02    -0.021 A 
DOCKED: ATOM     23  C   UNL d   1     -11.504   0.520   0.861 -0.25 +0.05    +0.066 A 
DOCKED: ATOM     24  C   UNL d   1     -10.148   2.102  -2.195 -0.19 +0.01    +0.051 C 
DOCKED: ATOM     25  N   UNL d   1     -11.291  -0.140   3.801 -0.08 -0.10    -0.248 N 
DOCKED: ATOM     26  N   UNL d   1      -8.804   0.365   5.109 -0.07 -0.09    -0.248 N 
DOCKED: ATOM     27  N   UNL d   1      -7.714   1.224   2.592 -0.22 -0.04    -0.248 N 
DOCKED: ATOM     28  N   UNL d   1     -10.228   0.713   1.275 -0.18 -0.10    -0.248 N 
DOCKED: ATOM     29 FE   UNL d   1      -9.515   0.540   3.190 -0.08 +0.00    +0.000 Fe
DOCKED: ENDROOT
DOCKED: BRANCH   6  30
DOCKED: ATOM     30  C   UNL d   1     -14.679  -1.478   3.285 -0.23 +0.04    +0.052 C 
DOCKED: BRANCH  30  31
DOCKED: ATOM     31  C   UNL d   1     -15.740  -0.402   3.489 +0.04 +0.11    +0.115 C 
DOCKED: BRANCH  31  32
DOCKED: ATOM     32  C   UNL d   1     -16.192   0.150   2.165 -0.02 +0.23    +0.139 C 
DOCKED: ATOM     33  O   UNL d   1     -17.229   0.792   2.079 -0.23 -1.20    -0.650 OA
DOCKED: BRANCH  32  34
DOCKED: ATOM     34  O   UNL d   1     -15.456  -0.060   1.061 -0.27 -1.53    -0.776 OA
DOCKED: ATOM     35  H   UNL d   1     -15.756  -0.715   0.414 +0.03 +0.25    +0.167 HD
DOCKED: ENDBRANCH  32  34
DOCKED: ENDBRANCH  31  32
DOCKED: ENDBRANCH  30  31
DOCKED: ENDBRANCH   6  30
DOCKED: BRANCH  22  36
DOCKED: ATOM     36  C   UNL d   1     -12.950   1.066  -1.239 -0.19 +0.06    +0.052 C 
DOCKED: BRANCH  36  37
DOCKED: ATOM     37  C   UNL d   1     -13.258   2.510  -1.605 -0.06 +0.15    +0.115 C 
DOCKED: BRANCH  37  38
DOCKED: ATOM     38  C   UNL d   1     -14.518   2.602  -2.420 -0.05 +0.16    +0.139 C 
DOCKED: ATOM     39  O   UNL d   1     -14.657   1.933  -3.433 +0.03 -0.40    -0.650 OA
DOCKED: BRANCH  38  40
DOCKED: ATOM     40  O   UNL d   1     -15.505   3.431  -2.037 -0.42 -1.21    -0.776 OA
DOCKED: ATOM     41  H   UNL d   1     -16.054   3.852  -2.714 +0.01 +0.14    +0.167 HD
DOCKED: ENDBRANCH  38  40
DOCKED: ENDBRANCH  37  38
DOCKED: ENDBRANCH  36  37
DOCKED: ENDBRANCH  22  36
DOCKED: BRANCH  12  42
DOCKED: ATOM     42  C   UNL d   1      -6.396   1.035   7.887 -0.55 +0.00    +0.004 C 
DOCKED: ATOM     43  C   UNL d   1      -5.417   0.161   8.154 -0.56 -0.00    +0.012 C 
DOCKED: ENDBRANCH  12  42
DOCKED: BRANCH  17  44
DOCKED: ATOM     44  C   UNL d   1      -5.151   2.063   0.071 -0.59 -0.00    +0.004 C 
DOCKED: ATOM     45  C   UNL d   1      -4.633   3.280  -0.121 -0.59 -0.00    +0.012 C 
DOCKED: ENDBRANCH  17  44
DOCKED: TORSDOF 10
DOCKED: TER
DOCKED: ENDMDL
________________________________________________________________________________


	BEGINNING GENETIC ALGORITHM DOCKING 60 of 100
Run: 60 Seed: 509651223 1997634245 [ Run 60 of 100 GA/GALS ]
Beginning LAMARCKIAN GENETIC ALGORITHM (LGA), with a maximum of 25000000 energy evaluations.

Final-Value: -14.498


	FINAL GENETIC ALGORITHM DOCKED STATE
	_______________________________________________


Detailed state:  trans -12.992 -0.091 1.711 quatxyzw 0.760200 -0.194217 0.318865 -0.531696 center -0.174 -0.001 -0.047 ntor 10 40.5618 -106.0332 180.0000 -12.2390 -59.6042 -59.8017 64.3137 127.3802 2.4691 26.0542
State:	-12.992  -0.091   1.711   0.898 -0.229  0.376 -115.760     40.56 -106.03  180.00  -12.24  -59.60  -59.80   64.31  127.38    2.47   26.05

DOCKED: MODEL       60
DOCKED: USER    Run = 60
DOCKED: USER    DPF = D:/Protein_go_brrr/autodock/final/AncMH_nat/heme_Fe/dock.dpf
DOCKED: USER  
DOCKED: USER    Estimated Free Energy of Binding    =   -9.91 kcal/mol  [=(1)+(2)+(3)-(4)]
DOCKED: USER    Estimated Inhibition Constant, Ki   =   54.85 nM (nanomolar)  [Temperature = 298.15 K]
DOCKED: USER    
DOCKED: USER    (1) Final Intermolecular Energy     =  -12.89 kcal/mol
DOCKED: USER        vdW + Hbond + desolv Energy     =   -9.62 kcal/mol
DOCKED: USER        Electrostatic Energy            =   -3.27 kcal/mol
DOCKED: USER    (2) Final Total Internal Energy     =   -1.61 kcal/mol
DOCKED: USER    (3) Torsional Free Energy           =   +2.98 kcal/mol
DOCKED: USER    (4) Unbound System's Energy  [=(2)] =   -1.61 kcal/mol
DOCKED: USER    
DOCKED: USER    
DOCKED: USER    NEWDPF move heme_Fe_opt.pdbqt
DOCKED: USER    NEWDPF about -0.174000 -0.001000 -0.047000
DOCKED: USER    NEWDPF tran0 -12.991621 -0.091063 1.711153
DOCKED: USER    NEWDPF quaternion0 0.760200 -0.194217 0.318865 -0.531696
DOCKED: USER    NEWDPF axisangle0 0.897589 -0.229317 0.376493 -115.759722
DOCKED: USER    NEWDPF quat0 0.897589 -0.229317 0.376493 -115.759722
DOCKED: USER    NEWDPF dihe0 40.56 -106.03 180.00 -12.24 -59.60 -59.80 64.31 127.38 2.47 26.05 
DOCKED: USER  keepresnum = 1 
DOCKED: USER  
DOCKED: REMARK  10 active torsions:
DOCKED: REMARK  status: ('A' for Active; 'I' for Inactive)
DOCKED: REMARK    1  A    between atoms: C_6  and  C_10 
DOCKED: REMARK    2  A    between atoms: C_10  and  C_11 
DOCKED: REMARK    3  A    between atoms: C_11  and  C_12 
DOCKED: REMARK    4  A    between atoms: C_12  and  O_14 
DOCKED: REMARK    5  A    between atoms: C_17  and  C_20 
DOCKED: REMARK    6  A    between atoms: C_24  and  C_27 
DOCKED: REMARK    7  A    between atoms: C_31  and  C_34 
DOCKED: REMARK    8  A    between atoms: C_34  and  C_35 
DOCKED: REMARK    9  A    between atoms: C_35  and  C_36 
DOCKED: REMARK   10  A    between atoms: C_36  and  O_38 
DOCKED: USER                              x       y       z     vdW  Elec       q    Type
DOCKED: USER                           _______ _______ _______ _____ _____    ______ ____
DOCKED: ROOT
DOCKED: ATOM      1  C   UNL d   1     -14.235  -0.653   0.178 -0.19 +0.09    +0.064 C 
DOCKED: ATOM      2  C   UNL d   1      -9.546   0.882   0.472 -0.35 +0.02    +0.064 A 
DOCKED: ATOM      3  C   UNL d   1      -9.645   0.058   5.202 -0.29 +0.02    +0.064 C 
DOCKED: ATOM      4  C   UNL d   1     -14.216  -1.331   4.957 -0.18 +0.03    +0.064 C 
DOCKED: ATOM      5  C   UNL d   1     -12.932  -0.065  -0.165 -0.20 +0.07    +0.066 A 
DOCKED: ATOM      6  C   UNL d   1     -12.582   0.403  -1.421 -0.21 -0.02    -0.021 A 
DOCKED: ATOM      7  C   UNL d   1     -11.278   0.825  -1.339 -0.27 -0.01    -0.025 A 
DOCKED: ATOM      8  C   UNL d   1     -10.883   0.599  -0.035 -0.28 +0.03    +0.066 A 
DOCKED: ATOM      9  C   UNL d   1     -10.474   1.428  -2.450 -0.31 +0.01    +0.051 C 
DOCKED: ATOM     10  C   UNL d   1      -9.156   0.728   1.738 -0.34 +0.02    +0.066 A 
DOCKED: ATOM     11  C   UNL d   1      -7.838   0.898   2.169 -0.37 -0.00    -0.021 A 
DOCKED: ATOM     12  C   UNL d   1      -7.836   0.650   3.527 -0.29 +0.00    +0.000 A 
DOCKED: ATOM     13  C   UNL d   1      -9.165   0.329   3.856 -0.15 +0.02    +0.070 A 
DOCKED: ATOM     14  C   UNL d   1      -6.626   1.215   1.317 -0.42 +0.01    +0.052 C 
DOCKED: ATOM     15  C   UNL d   1     -10.911  -0.301   5.517 -0.36 +0.02    +0.066 A 
DOCKED: ATOM     16  C   UNL d   1     -11.354  -0.454   6.824 -0.40 -0.00    -0.021 A 
DOCKED: ATOM     17  C   UNL d   1     -12.671  -0.859   6.756 -0.42 +0.00    +0.000 A 
DOCKED: ATOM     18  C   UNL d   1     -13.001  -0.947   5.405 -0.28 +0.02    +0.070 A 
DOCKED: ATOM     19  C   UNL d   1     -10.565  -0.254   8.090 -0.39 +0.01    +0.052 C 
DOCKED: ATOM     20  C   UNL d   1     -14.617  -1.377   3.546 -0.19 +0.05    +0.066 A 
DOCKED: ATOM     21  C   UNL d   1     -15.795  -1.959   3.057 -0.13 -0.02    -0.025 A 
DOCKED: ATOM     22  C   UNL d   1     -15.786  -1.743   1.695 -0.16 -0.02    -0.021 A 
DOCKED: ATOM     23  C   UNL d   1     -14.606  -1.047   1.407 -0.21 +0.08    +0.066 A 
DOCKED: ATOM     24  C   UNL d   1     -16.876  -2.686   3.823 -0.08 +0.03    +0.051 C 
DOCKED: ATOM     25  N   UNL d   1     -11.894   0.067   0.679 -0.16 -0.20    -0.248 N 
DOCKED: ATOM     26  N   UNL d   1      -9.968   0.368   2.764 -0.20 -0.08    -0.248 N 
DOCKED: ATOM     27  N   UNL d   1     -11.933  -0.563   4.643 -0.17 -0.08    -0.248 N 
DOCKED: ATOM     28  N   UNL d   1     -13.876  -0.866   2.534 -0.16 -0.23    -0.248 N 
DOCKED: ATOM     29 FE   UNL d   1     -11.923  -0.250   2.650 -0.07 +0.00    +0.000 Fe
DOCKED: ENDROOT
DOCKED: BRANCH   6  30
DOCKED: ATOM     30  C   UNL d   1     -13.447   0.466  -2.633 -0.15 +0.04    +0.052 C 
DOCKED: BRANCH  30  31
DOCKED: ATOM     31  C   UNL d   1     -14.151   1.815  -2.724 -0.08 +0.10    +0.115 C 
DOCKED: BRANCH  31  32
DOCKED: ATOM     32  C   UNL d   1     -15.640   1.640  -2.602 -0.06 +0.14    +0.139 C 
DOCKED: ATOM     33  O   UNL d   1     -16.254   0.949  -3.402 +0.03 -0.41    -0.650 OA
DOCKED: BRANCH  32  34
DOCKED: ATOM     34  O   UNL d   1     -16.310   2.245  -1.607 +0.01 -1.45    -0.776 OA
DOCKED: ATOM     35  H   UNL d   1     -17.016   1.762  -1.155 +0.01 +0.29    +0.167 HD
DOCKED: ENDBRANCH  32  34
DOCKED: ENDBRANCH  31  32
DOCKED: ENDBRANCH  30  31
DOCKED: ENDBRANCH   6  30
DOCKED: BRANCH  22  36
DOCKED: ATOM     36  C   UNL d   1     -16.830  -2.223   0.721 -0.11 +0.06    +0.052 C 
DOCKED: BRANCH  36  37
DOCKED: ATOM     37  C   UNL d   1     -17.402  -1.038  -0.043 -0.08 +0.12    +0.115 C 
DOCKED: BRANCH  37  38
DOCKED: ATOM     38  C   UNL d   1     -17.896   0.023   0.899 -0.08 +0.18    +0.139 C 
DOCKED: ATOM     39  O   UNL d   1     -18.776  -0.222   1.710 +0.01 -0.76    -0.650 OA
DOCKED: BRANCH  38  40
DOCKED: ATOM     40  O   UNL d   1     -17.371   1.260   0.851 -0.17 -1.77    -0.776 OA
DOCKED: ATOM     41  H   UNL d   1     -17.607   1.844   0.116 +0.02 +0.35    +0.167 HD
DOCKED: ENDBRANCH  38  40
DOCKED: ENDBRANCH  37  38
DOCKED: ENDBRANCH  36  37
DOCKED: ENDBRANCH  22  36
DOCKED: BRANCH  12  42
DOCKED: ATOM     42  C   UNL d   1      -6.628   0.706   4.407 -0.41 +0.00    +0.004 C 
DOCKED: ATOM     43  C   UNL d   1      -6.356  -0.282   5.269 -0.41 +0.00    +0.012 C 
DOCKED: ENDBRANCH  12  42
DOCKED: BRANCH  17  44
DOCKED: ATOM     44  C   UNL d   1     -13.563  -1.123   7.908 -0.47 +0.00    +0.004 C 
DOCKED: ATOM     45  C   UNL d   1     -13.560  -0.317   8.975 -0.44 +0.00    +0.012 C 
DOCKED: ENDBRANCH  17  44
DOCKED: TORSDOF 10
DOCKED: TER
DOCKED: ENDMDL
________________________________________________________________________________


	BEGINNING GENETIC ALGORITHM DOCKING 61 of 100
Run: 61 Seed: 2033600171 1080289406 [ Run 61 of 100 GA/GALS ]
Beginning LAMARCKIAN GENETIC ALGORITHM (LGA), with a maximum of 25000000 energy evaluations.

Final-Value: -15.394


	FINAL GENETIC ALGORITHM DOCKED STATE
	_______________________________________________


Detailed state:  trans -12.743 0.015 1.635 quatxyzw 0.765400 -0.175036 0.286444 -0.549067 center -0.174 -0.001 -0.047 ntor 10 -180.0000 -168.0974 57.2025 -12.3072 -178.0541 -125.0608 -74.4672 -127.0299 179.1347 -14.9669
State:	-12.743   0.015   1.635   0.916 -0.209  0.343 -113.394   -180.00 -168.10   57.20  -12.31 -178.05 -125.06  -74.47 -127.03  179.13  -14.97

DOCKED: MODEL       61
DOCKED: USER    Run = 61
DOCKED: USER    DPF = D:/Protein_go_brrr/autodock/final/AncMH_nat/heme_Fe/dock.dpf
DOCKED: USER  
DOCKED: USER    Estimated Free Energy of Binding    =  -10.67 kcal/mol  [=(1)+(2)+(3)-(4)]
DOCKED: USER    Estimated Inhibition Constant, Ki   =   15.18 nM (nanomolar)  [Temperature = 298.15 K]
DOCKED: USER    
DOCKED: USER    (1) Final Intermolecular Energy     =  -13.65 kcal/mol
DOCKED: USER        vdW + Hbond + desolv Energy     =  -10.24 kcal/mol
DOCKED: USER        Electrostatic Energy            =   -3.41 kcal/mol
DOCKED: USER    (2) Final Total Internal Energy     =   -1.74 kcal/mol
DOCKED: USER    (3) Torsional Free Energy           =   +2.98 kcal/mol
DOCKED: USER    (4) Unbound System's Energy  [=(2)] =   -1.74 kcal/mol
DOCKED: USER    
DOCKED: USER    
DOCKED: USER    NEWDPF move heme_Fe_opt.pdbqt
DOCKED: USER    NEWDPF about -0.174000 -0.001000 -0.047000
DOCKED: USER    NEWDPF tran0 -12.742931 0.015258 1.634867
DOCKED: USER    NEWDPF quaternion0 0.765400 -0.175036 0.286444 -0.549067
DOCKED: USER    NEWDPF axisangle0 0.915793 -0.209429 0.342728 -113.393985
DOCKED: USER    NEWDPF quat0 0.915793 -0.209429 0.342728 -113.393985
DOCKED: USER    NEWDPF dihe0 -180.00 -168.10 57.20 -12.31 -178.05 -125.06 -74.47 -127.03 179.13 -14.97 
DOCKED: USER  keepresnum = 1 
DOCKED: USER  
DOCKED: REMARK  10 active torsions:
DOCKED: REMARK  status: ('A' for Active; 'I' for Inactive)
DOCKED: REMARK    1  A    between atoms: C_6  and  C_10 
DOCKED: REMARK    2  A    between atoms: C_10  and  C_11 
DOCKED: REMARK    3  A    between atoms: C_11  and  C_12 
DOCKED: REMARK    4  A    between atoms: C_12  and  O_14 
DOCKED: REMARK    5  A    between atoms: C_17  and  C_20 
DOCKED: REMARK    6  A    between atoms: C_24  and  C_27 
DOCKED: REMARK    7  A    between atoms: C_31  and  C_34 
DOCKED: REMARK    8  A    between atoms: C_34  and  C_35 
DOCKED: REMARK    9  A    between atoms: C_35  and  C_36 
DOCKED: REMARK   10  A    between atoms: C_36  and  O_38 
DOCKED: USER                              x       y       z     vdW  Elec       q    Type
DOCKED: USER                           _______ _______ _______ _____ _____    ______ ____
DOCKED: ROOT
DOCKED: ATOM      1  C   UNL d   1     -14.112  -0.558   0.218 -0.21 +0.09    +0.064 C 
DOCKED: ATOM      2  C   UNL d   1      -9.394   0.911   0.105 -0.36 +0.02    +0.064 A 
DOCKED: ATOM      3  C   UNL d   1      -9.126   0.183   4.845 +0.01 +0.02    +0.064 C 
DOCKED: ATOM      4  C   UNL d   1     -13.721  -1.141   4.993 -0.19 +0.03    +0.064 C 
DOCKED: ATOM      5  C   UNL d   1     -12.833   0.003  -0.240 -0.20 +0.07    +0.066 A 
DOCKED: ATOM      6  C   UNL d   1     -12.578   0.440  -1.529 -0.21 -0.02    -0.021 A 
DOCKED: ATOM      7  C   UNL d   1     -11.266   0.844  -1.561 -0.27 -0.01    -0.025 A 
DOCKED: ATOM      8  C   UNL d   1     -10.771   0.639  -0.288 -0.29 +0.03    +0.066 A 
DOCKED: ATOM      9  C   UNL d   1     -10.546   1.412  -2.745 -0.32 +0.01    +0.051 C 
DOCKED: ATOM     10  C   UNL d   1      -8.906   0.776   1.339 -0.37 +0.01    +0.066 A 
DOCKED: ATOM     11  C   UNL d   1      -7.556   0.935   1.661 -0.38 -0.00    -0.021 A 
DOCKED: ATOM     12  C   UNL d   1      -7.450   0.714   3.019 -0.35 +0.00    +0.000 A 
DOCKED: ATOM     13  C   UNL d   1      -8.752   0.420   3.459 -0.23 +0.02    +0.070 A 
DOCKED: ATOM     14  C   UNL d   1      -6.412   1.216   0.708 -0.37 +0.00    +0.052 C 
DOCKED: ATOM     15  C   UNL d   1     -10.369  -0.151   5.267 -0.33 +0.02    +0.066 A 
DOCKED: ATOM     16  C   UNL d   1     -10.708  -0.271   6.608 -0.36 -0.00    -0.021 A 
DOCKED: ATOM     17  C   UNL d   1     -12.031  -0.656   6.653 -0.40 +0.00    +0.000 A 
DOCKED: ATOM     18  C   UNL d   1     -12.469  -0.767   5.335 -0.32 +0.02    +0.070 A 
DOCKED: ATOM     19  C   UNL d   1      -9.817  -0.057   7.803 -0.39 +0.01    +0.052 C 
DOCKED: ATOM     20  C   UNL d   1     -14.234  -1.209   3.620 -0.20 +0.05    +0.066 A 
DOCKED: ATOM     21  C   UNL d   1     -15.455  -1.783   3.239 -0.15 -0.02    -0.025 A 
DOCKED: ATOM     22  C   UNL d   1     -15.552  -1.594   1.876 -0.17 -0.02    -0.021 A 
DOCKED: ATOM     23  C   UNL d   1     -14.390  -0.922   1.480 -0.22 +0.08    +0.066 A 
DOCKED: ATOM     24  C   UNL d   1     -16.481  -2.478   4.103 -0.10 +0.03    +0.051 C 
DOCKED: ATOM     25  N   UNL d   1     -11.729   0.136   0.516 -0.16 -0.19    -0.248 N 
DOCKED: ATOM     26  N   UNL d   1      -9.639   0.449   2.434 -0.21 -0.08    -0.248 N 
DOCKED: ATOM     27  N   UNL d   1     -11.460  -0.414   4.483 -0.12 -0.08    -0.248 N 
DOCKED: ATOM     28  N   UNL d   1     -13.569  -0.729   2.541 -0.17 -0.23    -0.248 N 
DOCKED: ATOM     29 FE   UNL d   1     -11.605  -0.141   2.489 -0.07 +0.00    +0.000 Fe
DOCKED: ENDROOT
DOCKED: BRANCH   6  30
DOCKED: ATOM     30  C   UNL d   1     -13.536   0.492  -2.670 -0.15 +0.04    +0.052 C 
DOCKED: BRANCH  30  31
DOCKED: ATOM     31  C   UNL d   1     -13.479  -0.797  -3.482 -0.11 +0.07    +0.115 C 
DOCKED: BRANCH  31  32
DOCKED: ATOM     32  C   UNL d   1     -14.690  -1.645  -3.209 +0.01 +0.12    +0.139 C 
DOCKED: ATOM     33  O   UNL d   1     -14.818  -2.739  -3.740 -0.19 -0.72    -0.650 OA
DOCKED: BRANCH  32  34
DOCKED: ATOM     34  O   UNL d   1     -15.648  -1.204  -2.376 -0.00 -0.72    -0.776 OA
DOCKED: ATOM     35  H   UNL d   1     -15.545  -0.338  -1.958 +0.03 +0.17    +0.167 HD
DOCKED: ENDBRANCH  32  34
DOCKED: ENDBRANCH  31  32
DOCKED: ENDBRANCH  30  31
DOCKED: ENDBRANCH   6  30
DOCKED: BRANCH  22  36
DOCKED: ATOM     36  C   UNL d   1     -16.677  -2.077   0.999 -0.13 +0.06    +0.052 C 
DOCKED: BRANCH  36  37
DOCKED: ATOM     37  C   UNL d   1     -17.841  -1.101   1.073 -0.06 +0.12    +0.115 C 
DOCKED: BRANCH  37  38
DOCKED: ATOM     38  C   UNL d   1     -17.385   0.303   0.794 -0.04 +0.23    +0.139 C 
DOCKED: ATOM     39  O   UNL d   1     -17.610   1.204   1.589 -0.25 -1.31    -0.650 OA
DOCKED: BRANCH  38  40
DOCKED: ATOM     40  O   UNL d   1     -16.725   0.581  -0.345 -0.33 -1.52    -0.776 OA
DOCKED: ATOM     41  H   UNL d   1     -16.698  -0.084  -1.047 +0.02 +0.21    +0.167 HD
DOCKED: ENDBRANCH  38  40
DOCKED: ENDBRANCH  37  38
DOCKED: ENDBRANCH  36  37
DOCKED: ENDBRANCH  22  36
DOCKED: BRANCH  12  42
DOCKED: ATOM     42  C   UNL d   1      -6.174   0.770   3.798 -0.39 +0.00    +0.004 C 
DOCKED: ATOM     43  C   UNL d   1      -5.899   1.810   4.596 -0.41 +0.00    +0.012 C 
DOCKED: ENDBRANCH  12  42
DOCKED: BRANCH  17  44
DOCKED: ATOM     44  C   UNL d   1     -12.832  -0.884   7.878 -0.56 +0.00    +0.004 C 
DOCKED: ATOM     45  C   UNL d   1     -12.731  -0.058   8.925 -0.60 +0.00    +0.012 C 
DOCKED: ENDBRANCH  17  44
DOCKED: TORSDOF 10
DOCKED: TER
DOCKED: ENDMDL
________________________________________________________________________________


	BEGINNING GENETIC ALGORITHM DOCKING 62 of 100
Run: 62 Seed: 1349194172 696719399 [ Run 62 of 100 GA/GALS ]
Beginning LAMARCKIAN GENETIC ALGORITHM (LGA), with a maximum of 25000000 energy evaluations.

Final-Value: -9.306


	FINAL GENETIC ALGORITHM DOCKED STATE
	_______________________________________________


Detailed state:  trans 4.683 -14.438 -1.601 quatxyzw 0.360699 0.325529 -0.343518 -0.803693 center -0.174 -0.001 -0.047 ntor 10 -143.7144 -109.1423 -168.4492 -142.8128 -135.3553 -153.1321 -141.0093 70.9326 149.0918 174.8232
State:	  4.683 -14.438  -1.601   0.606  0.547 -0.577 -73.032   -143.71 -109.14 -168.45 -142.81 -135.36 -153.13 -141.01   70.93  149.09  174.82

DOCKED: MODEL       62
DOCKED: USER    Run = 62
DOCKED: USER    DPF = D:/Protein_go_brrr/autodock/final/AncMH_nat/heme_Fe/dock.dpf
DOCKED: USER  
DOCKED: USER    Estimated Free Energy of Binding    =   -4.74 kcal/mol  [=(1)+(2)+(3)-(4)]
DOCKED: USER    Estimated Inhibition Constant, Ki   =  334.26 uM (micromolar)  [Temperature = 298.15 K]
DOCKED: USER    
DOCKED: USER    (1) Final Intermolecular Energy     =   -7.72 kcal/mol
DOCKED: USER        vdW + Hbond + desolv Energy     =   -5.28 kcal/mol
DOCKED: USER        Electrostatic Energy            =   -2.45 kcal/mol
DOCKED: USER    (2) Final Total Internal Energy     =   -1.58 kcal/mol
DOCKED: USER    (3) Torsional Free Energy           =   +2.98 kcal/mol
DOCKED: USER    (4) Unbound System's Energy  [=(2)] =   -1.58 kcal/mol
DOCKED: USER    
DOCKED: USER    
DOCKED: USER    NEWDPF move heme_Fe_opt.pdbqt
DOCKED: USER    NEWDPF about -0.174000 -0.001000 -0.047000
DOCKED: USER    NEWDPF tran0 4.682529 -14.438438 -1.600722
DOCKED: USER    NEWDPF quaternion0 0.360699 0.325529 -0.343518 -0.803693
DOCKED: USER    NEWDPF axisangle0 0.606171 0.547067 -0.577299 -73.031555
DOCKED: USER    NEWDPF quat0 0.606171 0.547067 -0.577299 -73.031555
DOCKED: USER    NEWDPF dihe0 -143.71 -109.14 -168.45 -142.81 -135.36 -153.13 -141.01 70.93 149.09 174.82 
DOCKED: USER  keepresnum = 1 
DOCKED: USER  
DOCKED: REMARK  10 active torsions:
DOCKED: REMARK  status: ('A' for Active; 'I' for Inactive)
DOCKED: REMARK    1  A    between atoms: C_6  and  C_10 
DOCKED: REMARK    2  A    between atoms: C_10  and  C_11 
DOCKED: REMARK    3  A    between atoms: C_11  and  C_12 
DOCKED: REMARK    4  A    between atoms: C_12  and  O_14 
DOCKED: REMARK    5  A    between atoms: C_17  and  C_20 
DOCKED: REMARK    6  A    between atoms: C_24  and  C_27 
DOCKED: REMARK    7  A    between atoms: C_31  and  C_34 
DOCKED: REMARK    8  A    between atoms: C_34  and  C_35 
DOCKED: REMARK    9  A    between atoms: C_35  and  C_36 
DOCKED: REMARK   10  A    between atoms: C_36  and  O_38 
DOCKED: USER                              x       y       z     vdW  Elec       q    Type
DOCKED: USER                           _______ _______ _______ _____ _____    ______ ____
DOCKED: ROOT
DOCKED: ATOM      1  C   UNL d   1       3.689 -14.267   0.187 -0.24 +0.02    +0.064 C 
DOCKED: ATOM      2  C   UNL d   1       3.035 -16.945  -3.916 -0.06 -0.04    +0.064 A 
DOCKED: ATOM      3  C   UNL d   1       7.515 -15.853  -5.260 -0.02 -0.01    +0.064 C 
DOCKED: ATOM      4  C   UNL d   1       8.132 -13.170  -1.348 -0.27 -0.00    +0.064 C 
DOCKED: ATOM      5  C   UNL d   1       3.061 -15.054  -0.884 -0.20 +0.01    +0.066 A 
DOCKED: ATOM      6  C   UNL d   1       1.735 -15.456  -0.895 -0.22 -0.00    -0.021 A 
DOCKED: ATOM      7  C   UNL d   1       1.555 -16.203  -2.033 -0.12 +0.01    -0.025 A 
DOCKED: ATOM      8  C   UNL d   1       2.779 -16.227  -2.673 +0.02 -0.04    +0.066 A 
DOCKED: ATOM      9  C   UNL d   1       0.273 -16.836  -2.481 -0.13 -0.01    +0.051 C 
DOCKED: ATOM     10  C   UNL d   1       4.190 -16.938  -4.583 -0.06 -0.03    +0.066 A 
DOCKED: ATOM     11  C   UNL d   1       4.439 -17.726  -5.709 -0.02 +0.01    -0.021 A 
DOCKED: ATOM     12  C   UNL d   1       5.731 -17.442  -6.106 -0.00 -0.00    +0.000 A 
DOCKED: ATOM     13  C   UNL d   1       6.210 -16.492  -5.188 -0.01 -0.01    +0.070 A 
DOCKED: ATOM     14  C   UNL d   1       3.516 -18.752  -6.336 -0.01 -0.01    +0.052 C 
DOCKED: ATOM     15  C   UNL d   1       8.000 -14.976  -4.350 -0.04 -0.01    +0.066 A 
DOCKED: ATOM     16  C   UNL d   1       9.210 -14.312  -4.506 -0.09 +0.00    -0.021 A 
DOCKED: ATOM     17  C   UNL d   1       9.392 -13.541  -3.377 -0.21 -0.00    +0.000 A 
DOCKED: ATOM     18  C   UNL d   1       8.289 -13.756  -2.555 -0.19 -0.00    +0.070 A 
DOCKED: ATOM     19  C   UNL d   1      10.172 -14.416  -5.659 -0.06 -0.01    +0.052 C 
DOCKED: ATOM     20  C   UNL d   1       6.957 -13.325  -0.483 -0.19 +0.01    +0.066 A 
DOCKED: ATOM     21  C   UNL d   1       6.867 -12.890   0.847 -0.24 +0.00    -0.025 A 
DOCKED: ATOM     22  C   UNL d   1       5.588 -13.201   1.261 -0.19 -0.00    -0.021 A 
DOCKED: ATOM     23  C   UNL d   1       4.953 -13.816   0.175 -0.19 +0.02    +0.066 A 
DOCKED: ATOM     24  C   UNL d   1       7.924 -12.220   1.694 -0.27 -0.03    +0.051 C 
DOCKED: ATOM     25  N   UNL d   1       3.691 -15.519  -1.976 -0.11 +0.04    -0.248 N 
DOCKED: ATOM     26  N   UNL d   1       5.274 -16.191  -4.254 -0.04 +0.06    -0.248 N 
DOCKED: ATOM     27  N   UNL d   1       7.412 -14.604  -3.171 -0.06 -0.00    -0.248 N 
DOCKED: ATOM     28  N   UNL d   1       5.808 -13.929  -0.871 -0.12 -0.07    -0.248 N 
DOCKED: ATOM     29 FE   UNL d   1       5.543 -15.059  -2.562 -0.03 +0.00    +0.000 Fe
DOCKED: ENDROOT
DOCKED: BRANCH   6  30
DOCKED: ATOM     30  C   UNL d   1       0.685 -15.131   0.111 -0.34 +0.01    +0.052 C 
DOCKED: BRANCH  30  31
DOCKED: ATOM     31  C   UNL d   1       0.101 -16.404   0.713 -0.08 +0.06    +0.115 C 
DOCKED: BRANCH  31  32
DOCKED: ATOM     32  C   UNL d   1       1.182 -17.426   0.932 -0.09 +0.11    +0.139 C 
DOCKED: ATOM     33  O   UNL d   1       1.006 -18.596   0.620 -0.05 -0.32    -0.650 OA
DOCKED: BRANCH  32  34
DOCKED: ATOM     34  O   UNL d   1       2.356 -17.062   1.475 -0.31 -1.03    -0.776 OA
DOCKED: ATOM     35  H   UNL d   1       2.363 -16.385   2.167 +0.04 +0.33    +0.167 HD
DOCKED: ENDBRANCH  32  34
DOCKED: ENDBRANCH  31  32
DOCKED: ENDBRANCH  30  31
DOCKED: ENDBRANCH   6  30
DOCKED: BRANCH  22  36
DOCKED: ATOM     36  C   UNL d   1       5.027 -12.964   2.638 -0.14 +0.01    +0.052 C 
DOCKED: BRANCH  36  37
DOCKED: ATOM     37  C   UNL d   1       5.326 -14.162   3.527 -0.09 +0.02    +0.115 C 
DOCKED: BRANCH  37  38
DOCKED: ATOM     38  C   UNL d   1       4.072 -14.929   3.838 -0.07 +0.12    +0.139 C 
DOCKED: ATOM     39  O   UNL d   1       3.980 -15.587   4.864 -0.47 -0.95    -0.650 OA
DOCKED: BRANCH  38  40
DOCKED: ATOM     40  O   UNL d   1       3.037 -14.899   2.980 +0.03 -0.88    -0.776 OA
DOCKED: ATOM     41  H   UNL d   1       3.117 -15.356   2.131 +0.03 +0.16    +0.167 HD
DOCKED: ENDBRANCH  38  40
DOCKED: ENDBRANCH  37  38
DOCKED: ENDBRANCH  36  37
DOCKED: ENDBRANCH  22  36
DOCKED: BRANCH  12  42
DOCKED: ATOM     42  C   UNL d   1       6.425 -18.070  -7.273 +0.00 -0.00    +0.004 C 
DOCKED: ATOM     43  C   UNL d   1       7.561 -18.760  -7.108 +0.00 -0.00    +0.012 C 
DOCKED: ENDBRANCH  12  42
DOCKED: BRANCH  17  44
DOCKED: ATOM     44  C   UNL d   1      10.537 -12.640  -3.112 -0.20 -0.00    +0.004 C 
DOCKED: ATOM     45  C   UNL d   1      11.639 -13.094  -2.506 -0.16 -0.00    +0.012 C 
DOCKED: ENDBRANCH  17  44
DOCKED: TORSDOF 10
DOCKED: TER
DOCKED: ENDMDL
________________________________________________________________________________


	BEGINNING GENETIC ALGORITHM DOCKING 63 of 100
Run: 63 Seed: 1847147121 872655320 [ Run 63 of 100 GA/GALS ]
Beginning LAMARCKIAN GENETIC ALGORITHM (LGA), with a maximum of 25000000 energy evaluations.

Final-Value: -14.975


	FINAL GENETIC ALGORITHM DOCKED STATE
	_______________________________________________


Detailed state:  trans -14.852 -0.748 3.632 quatxyzw -0.770884 -0.040854 -0.099367 0.627850 center -0.174 -0.001 -0.047 ntor 10 -94.7052 37.3629 16.4029 60.2404 86.8468 -166.5042 112.1876 -85.7988 16.4433 -7.3418
State:	-14.852  -0.748   3.632  -0.990 -0.052 -0.128 102.217    -94.71   37.36   16.40   60.24   86.85 -166.50  112.19  -85.80   16.44   -7.34

DOCKED: MODEL       63
DOCKED: USER    Run = 63
DOCKED: USER    DPF = D:/Protein_go_brrr/autodock/final/AncMH_nat/heme_Fe/dock.dpf
DOCKED: USER  
DOCKED: USER    Estimated Free Energy of Binding    =   -9.85 kcal/mol  [=(1)+(2)+(3)-(4)]
DOCKED: USER    Estimated Inhibition Constant, Ki   =   60.19 nM (nanomolar)  [Temperature = 298.15 K]
DOCKED: USER    
DOCKED: USER    (1) Final Intermolecular Energy     =  -12.83 kcal/mol
DOCKED: USER        vdW + Hbond + desolv Energy     =   -9.41 kcal/mol
DOCKED: USER        Electrostatic Energy            =   -3.42 kcal/mol
DOCKED: USER    (2) Final Total Internal Energy     =   -2.14 kcal/mol
DOCKED: USER    (3) Torsional Free Energy           =   +2.98 kcal/mol
DOCKED: USER    (4) Unbound System's Energy  [=(2)] =   -2.14 kcal/mol
DOCKED: USER    
DOCKED: USER    
DOCKED: USER    NEWDPF move heme_Fe_opt.pdbqt
DOCKED: USER    NEWDPF about -0.174000 -0.001000 -0.047000
DOCKED: USER    NEWDPF tran0 -14.851675 -0.748207 3.632150
DOCKED: USER    NEWDPF quaternion0 -0.770884 -0.040854 -0.099367 0.627850
DOCKED: USER    NEWDPF axisangle0 -0.990427 -0.052488 -0.127666 102.216665
DOCKED: USER    NEWDPF quat0 -0.990427 -0.052488 -0.127666 102.216665
DOCKED: USER    NEWDPF dihe0 -94.71 37.36 16.40 60.24 86.85 -166.50 112.19 -85.80 16.44 -7.34 
DOCKED: USER  keepresnum = 1 
DOCKED: USER  
DOCKED: REMARK  10 active torsions:
DOCKED: REMARK  status: ('A' for Active; 'I' for Inactive)
DOCKED: REMARK    1  A    between atoms: C_6  and  C_10 
DOCKED: REMARK    2  A    between atoms: C_10  and  C_11 
DOCKED: REMARK    3  A    between atoms: C_11  and  C_12 
DOCKED: REMARK    4  A    between atoms: C_12  and  O_14 
DOCKED: REMARK    5  A    between atoms: C_17  and  C_20 
DOCKED: REMARK    6  A    between atoms: C_24  and  C_27 
DOCKED: REMARK    7  A    between atoms: C_31  and  C_34 
DOCKED: REMARK    8  A    between atoms: C_34  and  C_35 
DOCKED: REMARK    9  A    between atoms: C_35  and  C_36 
DOCKED: REMARK   10  A    between atoms: C_36  and  O_38 
DOCKED: USER                              x       y       z     vdW  Elec       q    Type
DOCKED: USER                           _______ _______ _______ _____ _____    ______ ____
DOCKED: ROOT
DOCKED: ATOM      1  C   UNL d   1     -16.675  -1.619   3.271 -0.11 +0.05    +0.064 C 
DOCKED: ATOM      2  C   UNL d   1     -12.941  -0.054   0.434 -0.22 +0.08    +0.064 A 
DOCKED: ATOM      3  C   UNL d   1     -10.145   0.129   4.336 -0.27 +0.02    +0.064 C 
DOCKED: ATOM      4  C   UNL d   1     -13.774  -1.282   7.115 -0.36 +0.01    +0.064 C 
DOCKED: ATOM      5  C   UNL d   1     -15.906  -1.115   2.124 -0.14 +0.07    +0.066 A 
DOCKED: ATOM      6  C   UNL d   1     -16.420  -0.920   0.852 -0.13 -0.03    -0.021 A 
DOCKED: ATOM      7  C   UNL d   1     -15.382  -0.490   0.064 -0.14 -0.04    -0.025 A 
DOCKED: ATOM      8  C   UNL d   1     -14.273  -0.437   0.886 -0.18 +0.10    +0.066 A 
DOCKED: ATOM      9  C   UNL d   1     -15.465  -0.133  -1.388 -0.14 +0.06    +0.051 C 
DOCKED: ATOM     10  C   UNL d   1     -11.867   0.060   1.218 -0.26 +0.05    +0.066 A 
DOCKED: ATOM     11  C   UNL d   1     -10.581   0.317   0.738 -0.33 -0.01    -0.021 A 
DOCKED: ATOM     12  C   UNL d   1      -9.753   0.358   1.842 -0.37 +0.00    +0.000 A 
DOCKED: ATOM     13  C   UNL d   1     -10.584   0.113   2.949 -0.14 +0.03    +0.070 A 
DOCKED: ATOM     14  C   UNL d   1     -10.150   0.449  -0.709 -0.35 +0.02    +0.052 C 
DOCKED: ATOM     15  C   UNL d   1     -10.930  -0.157   5.401 -0.37 +0.02    +0.066 A 
DOCKED: ATOM     16  C   UNL d   1     -10.500  -0.033   6.716 -0.45 -0.00    -0.021 A 
DOCKED: ATOM     17  C   UNL d   1     -11.544  -0.443   7.519 -0.48 +0.00    +0.000 A 
DOCKED: ATOM     18  C   UNL d   1     -12.587  -0.812   6.673 -0.37 +0.01    +0.070 A 
DOCKED: ATOM     19  C   UNL d   1      -9.152   0.428   7.201 -0.46 +0.01    +0.052 C 
DOCKED: ATOM     20  C   UNL d   1     -14.917  -1.622   6.258 -0.12 +0.02    +0.066 A 
DOCKED: ATOM     21  C   UNL d   1     -16.073  -2.294   6.678 -0.17 -0.01    -0.025 A 
DOCKED: ATOM     22  C   UNL d   1     -16.891  -2.368   5.570 -0.10 -0.01    -0.021 A 
DOCKED: ATOM     23  C   UNL d   1     -16.203  -1.747   4.521 -0.10 +0.04    +0.066 A 
DOCKED: ATOM     24  C   UNL d   1     -16.398  -2.846   8.047 -0.26 +0.01    +0.051 C 
DOCKED: ATOM     25  N   UNL d   1     -14.597  -0.809   2.140 -0.15 -0.28    -0.248 N 
DOCKED: ATOM     26  N   UNL d   1     -11.871  -0.078   2.569 -0.16 -0.15    -0.248 N 
DOCKED: ATOM     27  N   UNL d   1     -12.227  -0.595   5.373 -0.26 -0.07    -0.248 N 
DOCKED: ATOM     28  N   UNL d   1     -14.980  -1.334   4.935 -0.05 -0.13    -0.248 N 
DOCKED: ATOM     29 FE   UNL d   1     -13.426  -0.706   3.754 -0.06 +0.00    +0.000 Fe
DOCKED: ENDROOT
DOCKED: BRANCH   6  30
DOCKED: ATOM     30  C   UNL d   1     -17.831  -1.113   0.410 -0.06 +0.05    +0.052 C 
DOCKED: BRANCH  30  31
DOCKED: ATOM     31  C   UNL d   1     -18.521   0.231   0.205 -0.06 +0.13    +0.115 C 
DOCKED: BRANCH  31  32
DOCKED: ATOM     32  C   UNL d   1     -18.700   0.937   1.521 -0.11 +0.23    +0.139 C 
DOCKED: ATOM     33  O   UNL d   1     -17.812   1.646   1.973 -0.39 -1.40    -0.650 OA
DOCKED: BRANCH  32  34
DOCKED: ATOM     34  O   UNL d   1     -19.842   0.794   2.213 +0.02 -1.56    -0.776 OA
DOCKED: ATOM     35  H   UNL d   1     -19.939   0.036   2.807 +0.01 +0.27    +0.167 HD
DOCKED: ENDBRANCH  32  34
DOCKED: ENDBRANCH  31  32
DOCKED: ENDBRANCH  30  31
DOCKED: ENDBRANCH   6  30
DOCKED: BRANCH  22  36
DOCKED: ATOM     36  C   UNL d   1     -18.237  -3.041   5.513 -0.09 +0.02    +0.052 C 
DOCKED: BRANCH  36  37
DOCKED: ATOM     37  C   UNL d   1     -19.326  -2.044   5.882 -0.05 +0.06    +0.115 C 
DOCKED: BRANCH  37  38
DOCKED: ATOM     38  C   UNL d   1     -19.893  -1.388   4.655 -0.06 +0.11    +0.139 C 
DOCKED: ATOM     39  O   UNL d   1     -20.596  -0.393   4.746 -0.14 -0.80    -0.650 OA
DOCKED: BRANCH  38  40
DOCKED: ATOM     40  O   UNL d   1     -19.630  -1.899   3.438 +0.06 -0.55    -0.776 OA
DOCKED: ATOM     41  H   UNL d   1     -19.493  -1.295   2.695 +0.03 +0.15    +0.167 HD
DOCKED: ENDBRANCH  38  40
DOCKED: ENDBRANCH  37  38
DOCKED: ENDBRANCH  36  37
DOCKED: ENDBRANCH  22  36
DOCKED: BRANCH  12  42
DOCKED: ATOM     42  C   UNL d   1      -8.278   0.598   1.797 -0.44 +0.00    +0.004 C 
DOCKED: ATOM     43  C   UNL d   1      -7.782   1.765   1.364 -0.46 +0.00    +0.012 C 
DOCKED: ENDBRANCH  12  42
DOCKED: BRANCH  17  44
DOCKED: ATOM     44  C   UNL d   1     -11.549  -0.461   8.999 -0.52 +0.00    +0.004 C 
DOCKED: ATOM     45  C   UNL d   1     -12.365   0.342   9.691 -0.47 +0.00    +0.012 C 
DOCKED: ENDBRANCH  17  44
DOCKED: TORSDOF 10
DOCKED: TER
DOCKED: ENDMDL
________________________________________________________________________________


	BEGINNING GENETIC ALGORITHM DOCKING 64 of 100
Run: 64 Seed: 1230944255 111739937 [ Run 64 of 100 GA/GALS ]
Beginning LAMARCKIAN GENETIC ALGORITHM (LGA), with a maximum of 25000000 energy evaluations.

Final-Value: -13.746


	FINAL GENETIC ALGORITHM DOCKED STATE
	_______________________________________________


Detailed state:  trans -14.244 -1.618 2.698 quatxyzw 0.595562 0.274997 -0.048869 0.753190 center -0.174 -0.001 -0.047 ntor 10 143.2955 -137.2771 81.5023 167.7990 144.1891 -24.0049 98.6840 130.4979 2.8738 -147.5067
State:	-14.244  -1.618   2.698   0.905  0.418 -0.074 82.265    143.30 -137.28   81.50  167.80  144.19  -24.00   98.68  130.50    2.87 -147.51

DOCKED: MODEL       64
DOCKED: USER    Run = 64
DOCKED: USER    DPF = D:/Protein_go_brrr/autodock/final/AncMH_nat/heme_Fe/dock.dpf
DOCKED: USER  
DOCKED: USER    Estimated Free Energy of Binding    =  -10.26 kcal/mol  [=(1)+(2)+(3)-(4)]
DOCKED: USER    Estimated Inhibition Constant, Ki   =   30.01 nM (nanomolar)  [Temperature = 298.15 K]
DOCKED: USER    
DOCKED: USER    (1) Final Intermolecular Energy     =  -13.25 kcal/mol
DOCKED: USER        vdW + Hbond + desolv Energy     =   -9.81 kcal/mol
DOCKED: USER        Electrostatic Energy            =   -3.43 kcal/mol
DOCKED: USER    (2) Final Total Internal Energy     =   -0.50 kcal/mol
DOCKED: USER    (3) Torsional Free Energy           =   +2.98 kcal/mol
DOCKED: USER    (4) Unbound System's Energy  [=(2)] =   -0.50 kcal/mol
DOCKED: USER    
DOCKED: USER    
DOCKED: USER    NEWDPF move heme_Fe_opt.pdbqt
DOCKED: USER    NEWDPF about -0.174000 -0.001000 -0.047000
DOCKED: USER    NEWDPF tran0 -14.243675 -1.618205 2.697889
DOCKED: USER    NEWDPF quaternion0 0.595562 0.274997 -0.048869 0.753190
DOCKED: USER    NEWDPF axisangle0 0.905380 0.418054 -0.074291 82.265130
DOCKED: USER    NEWDPF quat0 0.905380 0.418054 -0.074291 82.265130
DOCKED: USER    NEWDPF dihe0 143.30 -137.28 81.50 167.80 144.19 -24.00 98.68 130.50 2.87 -147.51 
DOCKED: USER  keepresnum = 1 
DOCKED: USER  
DOCKED: REMARK  10 active torsions:
DOCKED: REMARK  status: ('A' for Active; 'I' for Inactive)
DOCKED: REMARK    1  A    between atoms: C_6  and  C_10 
DOCKED: REMARK    2  A    between atoms: C_10  and  C_11 
DOCKED: REMARK    3  A    between atoms: C_11  and  C_12 
DOCKED: REMARK    4  A    between atoms: C_12  and  O_14 
DOCKED: REMARK    5  A    between atoms: C_17  and  C_20 
DOCKED: REMARK    6  A    between atoms: C_24  and  C_27 
DOCKED: REMARK    7  A    between atoms: C_31  and  C_34 
DOCKED: REMARK    8  A    between atoms: C_34  and  C_35 
DOCKED: REMARK    9  A    between atoms: C_35  and  C_36 
DOCKED: REMARK   10  A    between atoms: C_36  and  O_38 
DOCKED: USER                              x       y       z     vdW  Elec       q    Type
DOCKED: USER                           _______ _______ _______ _____ _____    ______ ____
DOCKED: ROOT
DOCKED: ATOM      1  C   UNL d   1     -16.182  -1.967   2.121 -0.14 +0.06    +0.064 C 
DOCKED: ATOM      2  C   UNL d   1     -13.852  -1.621   6.467 -0.30 +0.02    +0.064 A 
DOCKED: ATOM      3  C   UNL d   1     -10.103   0.369   4.220 -0.28 +0.02    +0.064 C 
DOCKED: ATOM      4  C   UNL d   1     -12.297  -0.053  -0.010 -0.27 +0.06    +0.064 C 
DOCKED: ATOM      5  C   UNL d   1     -15.840  -2.131   3.541 -0.11 +0.05    +0.066 A 
DOCKED: ATOM      6  C   UNL d   1     -16.637  -2.768   4.477 -0.08 -0.01    -0.021 A 
DOCKED: ATOM      7  C   UNL d   1     -15.991  -2.669   5.685 -0.14 -0.01    -0.025 A 
DOCKED: ATOM      8  C   UNL d   1     -14.823  -1.973   5.438 -0.18 +0.03    +0.066 A 
DOCKED: ATOM      9  C   UNL d   1     -16.468  -3.229   6.990 -0.21 +0.02    +0.051 C 
DOCKED: ATOM     10  C   UNL d   1     -12.692  -1.001   6.247 -0.35 +0.01    +0.066 A 
DOCKED: ATOM     11  C   UNL d   1     -11.835  -0.576   7.265 -0.42 -0.00    -0.021 A 
DOCKED: ATOM     12  C   UNL d   1     -10.754   0.017   6.644 -0.48 +0.00    +0.000 A 
DOCKED: ATOM     13  C   UNL d   1     -11.013  -0.072   5.265 -0.38 +0.02    +0.070 A 
DOCKED: ATOM     14  C   UNL d   1     -12.068  -0.667   8.760 -0.54 +0.00    +0.052 C 
DOCKED: ATOM     15  C   UNL d   1     -10.370   0.333   2.893 -0.26 +0.02    +0.066 A 
DOCKED: ATOM     16  C   UNL d   1      -9.435   0.671   1.922 -0.35 -0.01    -0.021 A 
DOCKED: ATOM     17  C   UNL d   1     -10.067   0.553   0.701 -0.37 +0.00    +0.000 A 
DOCKED: ATOM     18  C   UNL d   1     -11.376   0.150   0.957 -0.27 +0.05    +0.070 A 
DOCKED: ATOM     19  C   UNL d   1      -8.012   1.111   2.132 -0.40 +0.01    +0.052 C 
DOCKED: ATOM     20  C   UNL d   1     -13.664  -0.536   0.217 -0.17 +0.08    +0.066 A 
DOCKED: ATOM     21  C   UNL d   1     -14.685  -0.560  -0.744 -0.16 -0.03    -0.025 A 
DOCKED: ATOM     22  C   UNL d   1     -15.779  -1.120  -0.119 -0.16 -0.03    -0.021 A 
DOCKED: ATOM     23  C   UNL d   1     -15.387  -1.410   1.194 -0.16 +0.08    +0.066 A 
DOCKED: ATOM     24  C   UNL d   1     -14.644  -0.078  -2.176 -0.15 +0.05    +0.051 C 
DOCKED: ATOM     25  N   UNL d   1     -14.730  -1.656   4.132 -0.11 -0.15    -0.248 N 
DOCKED: ATOM     26  N   UNL d   1     -12.198  -0.685   5.023 -0.23 -0.08    -0.248 N 
DOCKED: ATOM     27  N   UNL d   1     -11.550  -0.028   2.301 -0.16 -0.15    -0.248 N 
DOCKED: ATOM     28  N   UNL d   1     -14.110  -1.010   1.406 -0.16 -0.30    -0.248 N 
DOCKED: ATOM     29 FE   UNL d   1     -13.153  -0.847   3.212 -0.06 +0.00    +0.000 Fe
DOCKED: ENDROOT
DOCKED: BRANCH   6  30
DOCKED: ATOM     30  C   UNL d   1     -17.937  -3.457   4.236 -0.07 +0.03    +0.052 C 
DOCKED: BRANCH  30  31
DOCKED: ATOM     31  C   UNL d   1     -17.719  -4.940   3.957 -0.10 +0.06    +0.115 C 
DOCKED: BRANCH  31  32
DOCKED: ATOM     32  C   UNL d   1     -17.325  -5.152   2.521 -0.10 +0.12    +0.139 C 
DOCKED: ATOM     33  O   UNL d   1     -16.520  -6.022   2.218 -0.51 -0.79    -0.650 OA
DOCKED: BRANCH  32  34
DOCKED: ATOM     34  O   UNL d   1     -17.856  -4.384   1.555 +0.00 -0.70    -0.776 OA
DOCKED: ATOM     35  H   UNL d   1     -18.781  -4.111   1.628 +0.02 +0.11    +0.167 HD
DOCKED: ENDBRANCH  32  34
DOCKED: ENDBRANCH  31  32
DOCKED: ENDBRANCH  30  31
DOCKED: ENDBRANCH   6  30
DOCKED: BRANCH  22  36
DOCKED: ATOM     36  C   UNL d   1     -17.138  -1.321  -0.736 -0.11 +0.05    +0.052 C 
DOCKED: BRANCH  36  37
DOCKED: ATOM     37  C   UNL d   1     -17.610  -0.021  -1.371 -0.04 +0.11    +0.115 C 
DOCKED: BRANCH  37  38
DOCKED: ATOM     38  C   UNL d   1     -17.483   1.126  -0.409 +0.11 +0.23    +0.139 C 
DOCKED: ATOM     39  O   UNL d   1     -17.478   0.933   0.797 -0.34 -1.28    -0.650 OA
DOCKED: BRANCH  38  40
DOCKED: ATOM     40  O   UNL d   1     -17.376   2.384  -0.875 +0.02 -1.38    -0.776 OA
DOCKED: ATOM     41  H   UNL d   1     -17.940   2.662  -1.610 +0.01 +0.17    +0.167 HD
DOCKED: ENDBRANCH  38  40
DOCKED: ENDBRANCH  37  38
DOCKED: ENDBRANCH  36  37
DOCKED: ENDBRANCH  22  36
DOCKED: BRANCH  12  42
DOCKED: ATOM     42  C   UNL d   1      -9.588   0.628   7.354 -0.48 +0.00    +0.004 C 
DOCKED: ATOM     43  C   UNL d   1      -8.332   0.301   7.024 -0.48 +0.00    +0.012 C 
DOCKED: ENDBRANCH  12  42
DOCKED: BRANCH  17  44
DOCKED: ATOM     44  C   UNL d   1      -9.453   0.791  -0.624 -0.38 +0.00    +0.004 C 
DOCKED: ATOM     45  C   UNL d   1     -10.121   1.443  -1.582 -0.33 +0.00    +0.012 C 
DOCKED: ENDBRANCH  17  44
DOCKED: TORSDOF 10
DOCKED: TER
DOCKED: ENDMDL
________________________________________________________________________________


	BEGINNING GENETIC ALGORITHM DOCKING 65 of 100
Run: 65 Seed: 932049065 1904328739 [ Run 65 of 100 GA/GALS ]
Beginning LAMARCKIAN GENETIC ALGORITHM (LGA), with a maximum of 25000000 energy evaluations.

Final-Value: -14.776


	FINAL GENETIC ALGORITHM DOCKED STATE
	_______________________________________________


Detailed state:  trans -14.410 -1.401 3.405 quatxyzw -0.618980 -0.193520 0.078684 -0.757115 center -0.174 -0.001 -0.047 ntor 10 178.5212 -45.2733 66.1516 -165.6821 -85.5198 95.2598 168.5645 108.9617 -170.6347 -175.5669
State:	-14.410  -1.401   3.405  -0.947 -0.296  0.120 -81.579    178.52  -45.27   66.15 -165.68  -85.52   95.26  168.56  108.96 -170.63 -175.57

DOCKED: MODEL       65
DOCKED: USER    Run = 65
DOCKED: USER    DPF = D:/Protein_go_brrr/autodock/final/AncMH_nat/heme_Fe/dock.dpf
DOCKED: USER  
DOCKED: USER    Estimated Free Energy of Binding    =   -9.69 kcal/mol  [=(1)+(2)+(3)-(4)]
DOCKED: USER    Estimated Inhibition Constant, Ki   =   78.67 nM (nanomolar)  [Temperature = 298.15 K]
DOCKED: USER    
DOCKED: USER    (1) Final Intermolecular Energy     =  -12.67 kcal/mol
DOCKED: USER        vdW + Hbond + desolv Energy     =   -9.60 kcal/mol
DOCKED: USER        Electrostatic Energy            =   -3.08 kcal/mol
DOCKED: USER    (2) Final Total Internal Energy     =   -2.10 kcal/mol
DOCKED: USER    (3) Torsional Free Energy           =   +2.98 kcal/mol
DOCKED: USER    (4) Unbound System's Energy  [=(2)] =   -2.10 kcal/mol
DOCKED: USER    
DOCKED: USER    
DOCKED: USER    NEWDPF move heme_Fe_opt.pdbqt
DOCKED: USER    NEWDPF about -0.174000 -0.001000 -0.047000
DOCKED: USER    NEWDPF tran0 -14.409824 -1.401164 3.405155
DOCKED: USER    NEWDPF quaternion0 -0.618980 -0.193520 0.078684 -0.757115
DOCKED: USER    NEWDPF axisangle0 -0.947493 -0.296227 0.120444 -81.579006
DOCKED: USER    NEWDPF quat0 -0.947493 -0.296227 0.120444 -81.579006
DOCKED: USER    NEWDPF dihe0 178.52 -45.27 66.15 -165.68 -85.52 95.26 168.56 108.96 -170.63 -175.57 
DOCKED: USER  keepresnum = 1 
DOCKED: USER  
DOCKED: REMARK  10 active torsions:
DOCKED: REMARK  status: ('A' for Active; 'I' for Inactive)
DOCKED: REMARK    1  A    between atoms: C_6  and  C_10 
DOCKED: REMARK    2  A    between atoms: C_10  and  C_11 
DOCKED: REMARK    3  A    between atoms: C_11  and  C_12 
DOCKED: REMARK    4  A    between atoms: C_12  and  O_14 
DOCKED: REMARK    5  A    between atoms: C_17  and  C_20 
DOCKED: REMARK    6  A    between atoms: C_24  and  C_27 
DOCKED: REMARK    7  A    between atoms: C_31  and  C_34 
DOCKED: REMARK    8  A    between atoms: C_34  and  C_35 
DOCKED: REMARK    9  A    between atoms: C_35  and  C_36 
DOCKED: REMARK   10  A    between atoms: C_36  and  O_38 
DOCKED: USER                              x       y       z     vdW  Elec       q    Type
DOCKED: USER                           _______ _______ _______ _____ _____    ______ ____
DOCKED: ROOT
DOCKED: ATOM      1  C   UNL d   1     -16.433  -1.642   3.159 -0.12 +0.05    +0.064 C 
DOCKED: ATOM      2  C   UNL d   1     -13.424  -1.244   7.061 -0.35 +0.01    +0.064 A 
DOCKED: ATOM      3  C   UNL d   1      -9.966   0.366   4.142 -0.25 +0.02    +0.064 C 
DOCKED: ATOM      4  C   UNL d   1     -12.828  -0.111   0.338 -0.26 +0.07    +0.064 C 
DOCKED: ATOM      5  C   UNL d   1     -15.880  -1.759   4.516 -0.11 +0.04    +0.066 A 
DOCKED: ATOM      6  C   UNL d   1     -16.555  -2.293   5.601 -0.11 -0.01    -0.021 A 
DOCKED: ATOM      7  C   UNL d   1     -15.720  -2.178   6.685 -0.19 -0.01    -0.025 A 
DOCKED: ATOM      8  C   UNL d   1     -14.566  -1.579   6.219 -0.15 +0.02    +0.066 A 
DOCKED: ATOM      9  C   UNL d   1     -16.015  -2.639   8.080 -0.28 +0.01    +0.051 C 
DOCKED: ATOM     10  C   UNL d   1     -12.278  -0.719   6.626 -0.37 +0.01    +0.066 A 
DOCKED: ATOM     11  C   UNL d   1     -11.246  -0.303   7.471 -0.44 -0.00    -0.021 A 
DOCKED: ATOM     12  C   UNL d   1     -10.243   0.181   6.655 -0.46 +0.00    +0.000 A 
DOCKED: ATOM     13  C   UNL d   1     -10.724   0.042   5.341 -0.38 +0.02    +0.070 A 
DOCKED: ATOM     14  C   UNL d   1     -11.243  -0.304   8.987 -0.45 +0.01    +0.052 C 
DOCKED: ATOM     15  C   UNL d   1     -10.443   0.283   2.878 -0.24 +0.03    +0.066 A 
DOCKED: ATOM     16  C   UNL d   1      -9.656   0.507   1.755 -0.36 -0.01    -0.021 A 
DOCKED: ATOM     17  C   UNL d   1     -10.481   0.373   0.656 -0.35 +0.00    +0.000 A 
DOCKED: ATOM     18  C   UNL d   1     -11.754   0.075   1.137 -0.26 +0.05    +0.070 A 
DOCKED: ATOM     19  C   UNL d   1      -8.193   0.857   1.713 -0.43 +0.01    +0.052 C 
DOCKED: ATOM     20  C   UNL d   1     -14.168  -0.486   0.804 -0.20 +0.09    +0.066 A 
DOCKED: ATOM     21  C   UNL d   1     -15.328  -0.486   0.017 -0.14 -0.04    -0.025 A 
DOCKED: ATOM     22  C   UNL d   1     -16.341  -0.938   0.837 -0.13 -0.03    -0.021 A 
DOCKED: ATOM     23  C   UNL d   1     -15.763  -1.189   2.088 -0.15 +0.07    +0.066 A 
DOCKED: ATOM     24  C   UNL d   1     -15.487  -0.081  -1.430 -0.14 +0.06    +0.051 C 
DOCKED: ATOM     25  N   UNL d   1     -14.663  -1.334   4.897 -0.08 -0.12    -0.248 N 
DOCKED: ATOM     26  N   UNL d   1     -11.967  -0.498   5.323 -0.27 -0.07    -0.248 N 
DOCKED: ATOM     27  N   UNL d   1     -11.722  -0.024   2.499 -0.16 -0.15    -0.248 N 
DOCKED: ATOM     28  N   UNL d   1     -14.447  -0.868   2.074 -0.15 -0.28    -0.248 N 
DOCKED: ATOM     29 FE   UNL d   1     -13.207  -0.683   3.696 -0.06 +0.00    +0.000 Fe
DOCKED: ENDROOT
DOCKED: BRANCH   6  30
DOCKED: ATOM     30  C   UNL d   1     -17.916  -2.900   5.607 -0.10 +0.02    +0.052 C 
DOCKED: BRANCH  30  31
DOCKED: ATOM     31  C   UNL d   1     -18.990  -1.820   5.672 -0.06 +0.07    +0.115 C 
DOCKED: BRANCH  31  32
DOCKED: ATOM     32  C   UNL d   1     -18.375  -0.485   5.988 -0.15 +0.10    +0.139 C 
DOCKED: ATOM     33  O   UNL d   1     -18.172  -0.151   7.147 -0.03 -0.38    -0.650 OA
DOCKED: BRANCH  32  34
DOCKED: ATOM     34  O   UNL d   1     -18.042   0.357   4.995 +0.05 -0.92    -0.776 OA
DOCKED: ATOM     35  H   UNL d   1     -18.183   0.081   4.079 +0.03 +0.22    +0.167 HD
DOCKED: ENDBRANCH  32  34
DOCKED: ENDBRANCH  31  32
DOCKED: ENDBRANCH  30  31
DOCKED: ENDBRANCH   6  30
DOCKED: BRANCH  22  36
DOCKED: ATOM     36  C   UNL d   1     -17.791  -1.074   0.452 -0.07 +0.05    +0.052 C 
DOCKED: BRANCH  36  37
DOCKED: ATOM     37  C   UNL d   1     -18.461   0.292   0.487 -0.07 +0.14    +0.115 C 
DOCKED: BRANCH  37  38
DOCKED: ATOM     38  C   UNL d   1     -18.643   0.767   1.901 -0.11 +0.23    +0.139 C 
DOCKED: ATOM     39  O   UNL d   1     -17.821   1.505   2.423 -0.44 -1.38    -0.650 OA
DOCKED: BRANCH  38  40
DOCKED: ATOM     40  O   UNL d   1     -19.718   0.375   2.608 +0.01 -1.40    -0.776 OA
DOCKED: ATOM     41  H   UNL d   1     -19.598   0.074   3.519 +0.01 +0.29    +0.167 HD
DOCKED: ENDBRANCH  38  40
DOCKED: ENDBRANCH  37  38
DOCKED: ENDBRANCH  36  37
DOCKED: ENDBRANCH  22  36
DOCKED: BRANCH  12  42
DOCKED: ATOM     42  C   UNL d   1      -8.944   0.744   7.137 -0.47 +0.00    +0.004 C 
DOCKED: ATOM     43  C   UNL d   1      -7.786   0.124   6.876 -0.47 +0.00    +0.012 C 
DOCKED: ENDBRANCH  12  42
DOCKED: BRANCH  17  44
DOCKED: ATOM     44  C   UNL d   1     -10.072   0.502  -0.761 -0.37 +0.00    +0.004 C 
DOCKED: ATOM     45  C   UNL d   1     -10.499   1.526  -1.506 -0.34 +0.00    +0.012 C 
DOCKED: ENDBRANCH  17  44
DOCKED: TORSDOF 10
DOCKED: TER
DOCKED: ENDMDL
________________________________________________________________________________


	BEGINNING GENETIC ALGORITHM DOCKING 66 of 100
Run: 66 Seed: 1400322343 443706498 [ Run 66 of 100 GA/GALS ]
Beginning LAMARCKIAN GENETIC ALGORITHM (LGA), with a maximum of 25000000 energy evaluations.

Final-Value: -15.193


	FINAL GENETIC ALGORITHM DOCKED STATE
	_______________________________________________


Detailed state:  trans -14.341 -1.559 3.408 quatxyzw -0.620093 -0.207847 0.089141 -0.751225 center -0.174 -0.001 -0.047 ntor 10 -28.9343 -143.3670 60.0442 -161.1027 58.9685 36.6631 -93.4957 -135.5246 178.6430 147.4843
State:	-14.341  -1.559   3.408  -0.939 -0.315  0.135 -82.607    -28.93 -143.37   60.04 -161.10   58.97   36.66  -93.50 -135.52  178.64  147.48

DOCKED: MODEL       66
DOCKED: USER    Run = 66
DOCKED: USER    DPF = D:/Protein_go_brrr/autodock/final/AncMH_nat/heme_Fe/dock.dpf
DOCKED: USER  
DOCKED: USER    Estimated Free Energy of Binding    =  -10.34 kcal/mol  [=(1)+(2)+(3)-(4)]
DOCKED: USER    Estimated Inhibition Constant, Ki   =   26.50 nM (nanomolar)  [Temperature = 298.15 K]
DOCKED: USER    
DOCKED: USER    (1) Final Intermolecular Energy     =  -13.32 kcal/mol
DOCKED: USER        vdW + Hbond + desolv Energy     =   -9.69 kcal/mol
DOCKED: USER        Electrostatic Energy            =   -3.63 kcal/mol
DOCKED: USER    (2) Final Total Internal Energy     =   -1.87 kcal/mol
DOCKED: USER    (3) Torsional Free Energy           =   +2.98 kcal/mol
DOCKED: USER    (4) Unbound System's Energy  [=(2)] =   -1.87 kcal/mol
DOCKED: USER    
DOCKED: USER    
DOCKED: USER    NEWDPF move heme_Fe_opt.pdbqt
DOCKED: USER    NEWDPF about -0.174000 -0.001000 -0.047000
DOCKED: USER    NEWDPF tran0 -14.340792 -1.559499 3.408259
DOCKED: USER    NEWDPF quaternion0 -0.620093 -0.207847 0.089141 -0.751225
DOCKED: USER    NEWDPF axisangle0 -0.939468 -0.314897 0.135053 -82.606861
DOCKED: USER    NEWDPF quat0 -0.939468 -0.314897 0.135053 -82.606861
DOCKED: USER    NEWDPF dihe0 -28.93 -143.37 60.04 -161.10 58.97 36.66 -93.50 -135.52 178.64 147.48 
DOCKED: USER  keepresnum = 1 
DOCKED: USER  
DOCKED: REMARK  10 active torsions:
DOCKED: REMARK  status: ('A' for Active; 'I' for Inactive)
DOCKED: REMARK    1  A    between atoms: C_6  and  C_10 
DOCKED: REMARK    2  A    between atoms: C_10  and  C_11 
DOCKED: REMARK    3  A    between atoms: C_11  and  C_12 
DOCKED: REMARK    4  A    between atoms: C_12  and  O_14 
DOCKED: REMARK    5  A    between atoms: C_17  and  C_20 
DOCKED: REMARK    6  A    between atoms: C_24  and  C_27 
DOCKED: REMARK    7  A    between atoms: C_31  and  C_34 
DOCKED: REMARK    8  A    between atoms: C_34  and  C_35 
DOCKED: REMARK    9  A    between atoms: C_35  and  C_36 
DOCKED: REMARK   10  A    between atoms: C_36  and  O_38 
DOCKED: USER                              x       y       z     vdW  Elec       q    Type
DOCKED: USER                           _______ _______ _______ _____ _____    ______ ____
DOCKED: ROOT
DOCKED: ATOM      1  C   UNL d   1     -16.351  -1.872   3.143 -0.12 +0.05    +0.064 C 
DOCKED: ATOM      2  C   UNL d   1     -13.403  -1.330   7.072 -0.37 +0.01    +0.064 A 
DOCKED: ATOM      3  C   UNL d   1      -9.969   0.366   4.175 -0.25 +0.02    +0.064 C 
DOCKED: ATOM      4  C   UNL d   1     -12.768  -0.249   0.345 -0.26 +0.07    +0.064 C 
DOCKED: ATOM      5  C   UNL d   1     -15.811  -1.955   4.506 -0.11 +0.04    +0.066 A 
DOCKED: ATOM      6  C   UNL d   1     -16.479  -2.500   5.590 -0.11 -0.01    -0.021 A 
DOCKED: ATOM      7  C   UNL d   1     -15.661  -2.346   6.682 -0.20 -0.01    -0.025 A 
DOCKED: ATOM      8  C   UNL d   1     -14.523  -1.712   6.222 -0.21 +0.02    +0.066 A 
DOCKED: ATOM      9  C   UNL d   1     -15.957  -2.802   8.078 -0.30 +0.01    +0.051 C 
DOCKED: ATOM     10  C   UNL d   1     -12.270  -0.771   6.645 -0.37 +0.01    +0.066 A 
DOCKED: ATOM     11  C   UNL d   1     -11.263  -0.311   7.497 -0.44 -0.00    -0.021 A 
DOCKED: ATOM     12  C   UNL d   1     -10.268   0.198   6.686 -0.46 +0.00    +0.000 A 
DOCKED: ATOM     13  C   UNL d   1     -10.728   0.029   5.369 -0.38 +0.02    +0.070 A 
DOCKED: ATOM     14  C   UNL d   1     -11.277  -0.296   9.012 -0.45 +0.01    +0.052 C 
DOCKED: ATOM     15  C   UNL d   1     -10.428   0.254   2.906 -0.22 +0.02    +0.066 A 
DOCKED: ATOM     16  C   UNL d   1      -9.637   0.492   1.789 -0.36 -0.01    -0.021 A 
DOCKED: ATOM     17  C   UNL d   1     -10.443   0.318   0.684 -0.36 +0.00    +0.000 A 
DOCKED: ATOM     18  C   UNL d   1     -11.711  -0.018   1.153 -0.26 +0.05    +0.070 A 
DOCKED: ATOM     19  C   UNL d   1      -8.186   0.892   1.760 -0.43 +0.01    +0.052 C 
DOCKED: ATOM     20  C   UNL d   1     -14.101  -0.665   0.800 -0.20 +0.09    +0.066 A 
DOCKED: ATOM     21  C   UNL d   1     -15.251  -0.712   0.000 -0.16 -0.04    -0.025 A 
DOCKED: ATOM     22  C   UNL d   1     -16.257  -1.190   0.814 -0.14 -0.03    -0.021 A 
DOCKED: ATOM     23  C   UNL d   1     -15.686  -1.407   2.074 -0.15 +0.07    +0.066 A 
DOCKED: ATOM     24  C   UNL d   1     -15.407  -0.328  -1.453 -0.15 +0.06    +0.051 C 
DOCKED: ATOM     25  N   UNL d   1     -14.613  -1.485   4.896 -0.10 -0.12    -0.248 N 
DOCKED: ATOM     26  N   UNL d   1     -11.952  -0.553   5.343 -0.26 -0.07    -0.248 N 
DOCKED: ATOM     27  N   UNL d   1     -11.691  -0.101   2.517 -0.15 -0.15    -0.248 N 
DOCKED: ATOM     28  N   UNL d   1     -14.381  -1.042   2.071 -0.15 -0.27    -0.248 N 
DOCKED: ATOM     29 FE   UNL d   1     -13.166  -0.797   3.705 -0.06 +0.00    +0.000 Fe
DOCKED: ENDROOT
DOCKED: BRANCH   6  30
DOCKED: ATOM     30  C   UNL d   1     -17.819  -3.154   5.588 -0.10 +0.02    +0.052 C 
DOCKED: BRANCH  30  31
DOCKED: ATOM     31  C   UNL d   1     -18.916  -2.140   5.893 -0.06 +0.06    +0.115 C 
DOCKED: BRANCH  31  32
DOCKED: ATOM     32  C   UNL d   1     -19.366  -1.457   4.632 -0.06 +0.11    +0.139 C 
DOCKED: ATOM     33  O   UNL d   1     -19.820  -2.105   3.699 +0.04 -0.42    -0.650 OA
DOCKED: BRANCH  32  34
DOCKED: ATOM     34  O   UNL d   1     -19.273  -0.121   4.518 +0.03 -1.05    -0.776 OA
DOCKED: ATOM     35  H   UNL d   1     -19.150   0.268   3.641 +0.02 +0.30    +0.167 HD
DOCKED: ENDBRANCH  32  34
DOCKED: ENDBRANCH  31  32
DOCKED: ENDBRANCH  30  31
DOCKED: ENDBRANCH   6  30
DOCKED: BRANCH  22  36
DOCKED: ATOM     36  C   UNL d   1     -17.697  -1.379   0.415 -0.07 +0.05    +0.052 C 
DOCKED: BRANCH  36  37
DOCKED: ATOM     37  C   UNL d   1     -18.581  -0.441   1.223 -0.06 +0.12    +0.115 C 
DOCKED: BRANCH  37  38
DOCKED: ATOM     38  C   UNL d   1     -17.975   0.932   1.307 -0.10 +0.24    +0.139 C 
DOCKED: ATOM     39  O   UNL d   1     -17.370   1.407   0.358 -0.10 -1.47    -0.650 OA
DOCKED: BRANCH  38  40
DOCKED: ATOM     40  O   UNL d   1     -18.094   1.649   2.439 -0.45 -1.80    -0.776 OA
DOCKED: ATOM     41  H   UNL d   1     -18.059   1.193   3.291 +0.02 +0.34    +0.167 HD
DOCKED: ENDBRANCH  38  40
DOCKED: ENDBRANCH  37  38
DOCKED: ENDBRANCH  36  37
DOCKED: ENDBRANCH  22  36
DOCKED: BRANCH  12  42
DOCKED: ATOM     42  C   UNL d   1      -8.994   0.810   7.176 -0.46 +0.00    +0.004 C 
DOCKED: ATOM     43  C   UNL d   1      -7.825   0.170   7.042 -0.47 +0.00    +0.012 C 
DOCKED: ENDBRANCH  12  42
DOCKED: BRANCH  17  44
DOCKED: ATOM     44  C   UNL d   1     -10.023   0.446  -0.730 -0.35 +0.00    +0.004 C 
DOCKED: ATOM     45  C   UNL d   1     -10.403   1.496  -1.465 -0.34 +0.00    +0.012 C 
DOCKED: ENDBRANCH  17  44
DOCKED: TORSDOF 10
DOCKED: TER
DOCKED: ENDMDL
________________________________________________________________________________


	BEGINNING GENETIC ALGORITHM DOCKING 67 of 100
Run: 67 Seed: 2097815702 1159039372 [ Run 67 of 100 GA/GALS ]
Beginning LAMARCKIAN GENETIC ALGORITHM (LGA), with a maximum of 25000000 energy evaluations.

Final-Value: -14.132


	FINAL GENETIC ALGORITHM DOCKED STATE
	_______________________________________________


Detailed state:  trans -14.221 -1.372 3.575 quatxyzw -0.621545 -0.174274 0.088278 -0.758628 center -0.174 -0.001 -0.047 ntor 10 72.3488 140.6899 84.8790 179.0508 168.1902 170.0761 -81.2727 108.7773 146.4522 -160.6705
State:	-14.221  -1.372   3.575  -0.954 -0.267  0.135 -81.313     72.35  140.69   84.88  179.05  168.19  170.08  -81.27  108.78  146.45 -160.67

DOCKED: MODEL       67
DOCKED: USER    Run = 67
DOCKED: USER    DPF = D:/Protein_go_brrr/autodock/final/AncMH_nat/heme_Fe/dock.dpf
DOCKED: USER  
DOCKED: USER    Estimated Free Energy of Binding    =   -9.72 kcal/mol  [=(1)+(2)+(3)-(4)]
DOCKED: USER    Estimated Inhibition Constant, Ki   =   75.08 nM (nanomolar)  [Temperature = 298.15 K]
DOCKED: USER    
DOCKED: USER    (1) Final Intermolecular Energy     =  -12.70 kcal/mol
DOCKED: USER        vdW + Hbond + desolv Energy     =   -9.71 kcal/mol
DOCKED: USER        Electrostatic Energy            =   -2.99 kcal/mol
DOCKED: USER    (2) Final Total Internal Energy     =   -1.43 kcal/mol
DOCKED: USER    (3) Torsional Free Energy           =   +2.98 kcal/mol
DOCKED: USER    (4) Unbound System's Energy  [=(2)] =   -1.43 kcal/mol
DOCKED: USER    
DOCKED: USER    
DOCKED: USER    NEWDPF move heme_Fe_opt.pdbqt
DOCKED: USER    NEWDPF about -0.174000 -0.001000 -0.047000
DOCKED: USER    NEWDPF tran0 -14.220989 -1.372469 3.575482
DOCKED: USER    NEWDPF quaternion0 -0.621545 -0.174274 0.088278 -0.758628
DOCKED: USER    NEWDPF axisangle0 -0.953987 -0.267487 0.135494 -81.313140
DOCKED: USER    NEWDPF quat0 -0.953987 -0.267487 0.135494 -81.313140
DOCKED: USER    NEWDPF dihe0 72.35 140.69 84.88 179.05 168.19 170.08 -81.27 108.78 146.45 -160.67 
DOCKED: USER  keepresnum = 1 
DOCKED: USER  
DOCKED: REMARK  10 active torsions:
DOCKED: REMARK  status: ('A' for Active; 'I' for Inactive)
DOCKED: REMARK    1  A    between atoms: C_6  and  C_10 
DOCKED: REMARK    2  A    between atoms: C_10  and  C_11 
DOCKED: REMARK    3  A    between atoms: C_11  and  C_12 
DOCKED: REMARK    4  A    between atoms: C_12  and  O_14 
DOCKED: REMARK    5  A    between atoms: C_17  and  C_20 
DOCKED: REMARK    6  A    between atoms: C_24  and  C_27 
DOCKED: REMARK    7  A    between atoms: C_31  and  C_34 
DOCKED: REMARK    8  A    between atoms: C_34  and  C_35 
DOCKED: REMARK    9  A    between atoms: C_35  and  C_36 
DOCKED: REMARK   10  A    between atoms: C_36  and  O_38 
DOCKED: USER                              x       y       z     vdW  Elec       q    Type
DOCKED: USER                           _______ _______ _______ _____ _____    ______ ____
DOCKED: ROOT
DOCKED: ATOM      1  C   UNL d   1     -16.255  -1.594   3.415 -0.13 +0.05    +0.064 C 
DOCKED: ATOM      2  C   UNL d   1     -13.084  -1.195   7.186 -0.39 +0.01    +0.064 A 
DOCKED: ATOM      3  C   UNL d   1      -9.733   0.354   4.113 -0.20 +0.02    +0.064 C 
DOCKED: ATOM      4  C   UNL d   1     -12.753  -0.126   0.435 -0.26 +0.07    +0.064 C 
DOCKED: ATOM      5  C   UNL d   1     -15.648  -1.705   4.749 -0.10 +0.04    +0.066 A 
DOCKED: ATOM      6  C   UNL d   1     -16.283  -2.222   5.866 -0.13 -0.01    -0.021 A 
DOCKED: ATOM      7  C   UNL d   1     -15.403  -2.107   6.914 -0.23 -0.01    -0.025 A 
DOCKED: ATOM      8  C   UNL d   1     -14.263  -1.524   6.395 -0.21 +0.02    +0.066 A 
DOCKED: ATOM      9  C   UNL d   1     -15.645  -2.553   8.323 -0.30 +0.01    +0.051 C 
DOCKED: ATOM     10  C   UNL d   1     -11.951  -0.685   6.700 -0.34 +0.01    +0.066 A 
DOCKED: ATOM     11  C   UNL d   1     -10.881  -0.274   7.498 -0.37 -0.00    -0.021 A 
DOCKED: ATOM     12  C   UNL d   1      -9.908   0.192   6.637 -0.43 +0.00    +0.000 A 
DOCKED: ATOM     13  C   UNL d   1     -10.443   0.048   5.345 -0.36 +0.02    +0.070 A 
DOCKED: ATOM     14  C   UNL d   1     -10.815  -0.262   9.012 -0.37 +0.01    +0.052 C 
DOCKED: ATOM     15  C   UNL d   1     -10.262   0.265   2.870 -0.24 +0.02    +0.066 A 
DOCKED: ATOM     16  C   UNL d   1      -9.520   0.470   1.714 -0.37 -0.01    -0.021 A 
DOCKED: ATOM     17  C   UNL d   1     -10.390   0.336   0.652 -0.36 +0.00    +0.000 A 
DOCKED: ATOM     18  C   UNL d   1     -11.645   0.056   1.186 -0.26 +0.05    +0.070 A 
DOCKED: ATOM     19  C   UNL d   1      -8.057   0.805   1.609 -0.44 +0.01    +0.052 C 
DOCKED: ATOM     20  C   UNL d   1     -14.077  -0.483   0.958 -0.20 +0.09    +0.066 A 
DOCKED: ATOM     21  C   UNL d   1     -15.269  -0.477   0.220 -0.13 -0.04    -0.025 A 
DOCKED: ATOM     22  C   UNL d   1     -16.252  -0.911   1.085 -0.14 -0.03    -0.021 A 
DOCKED: ATOM     23  C   UNL d   1     -15.626  -1.157   2.313 -0.16 +0.07    +0.066 A 
DOCKED: ATOM     24  C   UNL d   1     -15.483  -0.082  -1.223 -0.14 +0.07    +0.051 C 
DOCKED: ATOM     25  N   UNL d   1     -14.412  -1.289   5.076 -0.07 -0.11    -0.248 N 
DOCKED: ATOM     26  N   UNL d   1     -11.692  -0.479   5.383 -0.27 -0.06    -0.248 N 
DOCKED: ATOM     27  N   UNL d   1     -11.559  -0.032   2.548 -0.15 -0.14    -0.248 N 
DOCKED: ATOM     28  N   UNL d   1     -14.307  -0.851   2.242 -0.15 -0.27    -0.248 N 
DOCKED: ATOM     29 FE   UNL d   1     -12.999  -0.664   3.811 -0.07 +0.00    +0.000 Fe
DOCKED: ENDROOT
DOCKED: BRANCH   6  30
DOCKED: ATOM     30  C   UNL d   1     -17.648  -2.815   5.933 -0.11 +0.02    +0.052 C 
DOCKED: BRANCH  30  31
DOCKED: ATOM     31  C   UNL d   1     -18.496  -2.102   6.981 -0.08 +0.05    +0.115 C 
DOCKED: BRANCH  31  32
DOCKED: ATOM     32  C   UNL d   1     -19.393  -1.086   6.329 -0.08 +0.09    +0.139 C 
DOCKED: ATOM     33  O   UNL d   1     -20.301  -0.561   6.958 +0.02 -0.40    -0.650 OA
DOCKED: BRANCH  32  34
DOCKED: ATOM     34  O   UNL d   1     -19.202  -0.744   5.044 +0.03 -0.72    -0.776 OA
DOCKED: ATOM     35  H   UNL d   1     -18.834   0.127   4.839 +0.03 +0.22    +0.167 HD
DOCKED: ENDBRANCH  32  34
DOCKED: ENDBRANCH  31  32
DOCKED: ENDBRANCH  30  31
DOCKED: ENDBRANCH   6  30
DOCKED: BRANCH  22  36
DOCKED: ATOM     36  C   UNL d   1     -17.717  -1.034   0.761 -0.07 +0.05    +0.052 C 
DOCKED: BRANCH  36  37
DOCKED: ATOM     37  C   UNL d   1     -18.291   0.340   0.449 -0.07 +0.14    +0.115 C 
DOCKED: BRANCH  37  38
DOCKED: ATOM     38  C   UNL d   1     -18.405   1.172   1.695 -0.12 +0.25    +0.139 C 
DOCKED: ATOM     39  O   UNL d   1     -18.672   2.363   1.630 -0.58 -1.50    -0.650 OA
DOCKED: BRANCH  38  40
DOCKED: ATOM     40  O   UNL d   1     -18.209   0.607   2.900 -0.13 -1.31    -0.776 OA
DOCKED: ATOM     41  H   UNL d   1     -18.553  -0.282   3.064 +0.03 +0.21    +0.167 HD
DOCKED: ENDBRANCH  38  40
DOCKED: ENDBRANCH  37  38
DOCKED: ENDBRANCH  36  37
DOCKED: ENDBRANCH  22  36
DOCKED: BRANCH  12  42
DOCKED: ATOM     42  C   UNL d   1      -8.584   0.746   7.059 -0.48 +0.00    +0.004 C 
DOCKED: ATOM     43  C   UNL d   1      -7.450   0.348   6.468 -0.45 +0.00    +0.012 C 
DOCKED: ENDBRANCH  12  42
DOCKED: BRANCH  17  44
DOCKED: ATOM     44  C   UNL d   1     -10.039   0.448  -0.782 -0.34 +0.00    +0.004 C 
DOCKED: ATOM     45  C   UNL d   1     -10.710   1.276  -1.589 -0.34 +0.00    +0.012 C 
DOCKED: ENDBRANCH  17  44
DOCKED: TORSDOF 10
DOCKED: TER
DOCKED: ENDMDL
________________________________________________________________________________


	BEGINNING GENETIC ALGORITHM DOCKING 68 of 100
Run: 68 Seed: 1548348141 783810152 [ Run 68 of 100 GA/GALS ]
Beginning LAMARCKIAN GENETIC ALGORITHM (LGA), with a maximum of 25000000 energy evaluations.

Final-Value: -14.245


	FINAL GENETIC ALGORITHM DOCKED STATE
	_______________________________________________


Detailed state:  trans -14.870 -1.709 3.406 quatxyzw 0.611238 0.216691 -0.102274 0.754303 center -0.174 -0.001 -0.047 ntor 10 107.6152 -150.0383 70.9949 -133.9083 -63.8147 84.1838 154.3857 164.9264 -160.9220 -175.1012
State:	-14.870  -1.709   3.406   0.931  0.330 -0.156 82.071    107.62 -150.04   70.99 -133.91  -63.81   84.18  154.39  164.93 -160.92 -175.10

DOCKED: MODEL       68
DOCKED: USER    Run = 68
DOCKED: USER    DPF = D:/Protein_go_brrr/autodock/final/AncMH_nat/heme_Fe/dock.dpf
DOCKED: USER  
DOCKED: USER    Estimated Free Energy of Binding    =   -9.75 kcal/mol  [=(1)+(2)+(3)-(4)]
DOCKED: USER    Estimated Inhibition Constant, Ki   =   71.56 nM (nanomolar)  [Temperature = 298.15 K]
DOCKED: USER    
DOCKED: USER    (1) Final Intermolecular Energy     =  -12.73 kcal/mol
DOCKED: USER        vdW + Hbond + desolv Energy     =   -9.24 kcal/mol
DOCKED: USER        Electrostatic Energy            =   -3.49 kcal/mol
DOCKED: USER    (2) Final Total Internal Energy     =   -1.51 kcal/mol
DOCKED: USER    (3) Torsional Free Energy           =   +2.98 kcal/mol
DOCKED: USER    (4) Unbound System's Energy  [=(2)] =   -1.51 kcal/mol
DOCKED: USER    
DOCKED: USER    
DOCKED: USER    NEWDPF move heme_Fe_opt.pdbqt
DOCKED: USER    NEWDPF about -0.174000 -0.001000 -0.047000
DOCKED: USER    NEWDPF tran0 -14.870269 -1.709289 3.405895
DOCKED: USER    NEWDPF quaternion0 0.611238 0.216691 -0.102274 0.754303
DOCKED: USER    NEWDPF axisangle0 0.931018 0.330057 -0.155781 82.070966
DOCKED: USER    NEWDPF quat0 0.931018 0.330057 -0.155781 82.070966
DOCKED: USER    NEWDPF dihe0 107.62 -150.04 70.99 -133.91 -63.81 84.18 154.39 164.93 -160.92 -175.10 
DOCKED: USER  keepresnum = 1 
DOCKED: USER  
DOCKED: REMARK  10 active torsions:
DOCKED: REMARK  status: ('A' for Active; 'I' for Inactive)
DOCKED: REMARK    1  A    between atoms: C_6  and  C_10 
DOCKED: REMARK    2  A    between atoms: C_10  and  C_11 
DOCKED: REMARK    3  A    between atoms: C_11  and  C_12 
DOCKED: REMARK    4  A    between atoms: C_12  and  O_14 
DOCKED: REMARK    5  A    between atoms: C_17  and  C_20 
DOCKED: REMARK    6  A    between atoms: C_24  and  C_27 
DOCKED: REMARK    7  A    between atoms: C_31  and  C_34 
DOCKED: REMARK    8  A    between atoms: C_34  and  C_35 
DOCKED: REMARK    9  A    between atoms: C_35  and  C_36 
DOCKED: REMARK   10  A    between atoms: C_36  and  O_38 
DOCKED: USER                              x       y       z     vdW  Elec       q    Type
DOCKED: USER                           _______ _______ _______ _____ _____    ______ ____
DOCKED: ROOT
DOCKED: ATOM      1  C   UNL d   1     -16.871  -2.086   3.148 -0.09 +0.05    +0.064 C 
DOCKED: ATOM      2  C   UNL d   1     -13.918  -1.497   7.067 -0.32 +0.01    +0.064 A 
DOCKED: ATOM      3  C   UNL d   1     -10.561   0.353   4.174 -0.36 +0.02    +0.064 C 
DOCKED: ATOM      4  C   UNL d   1     -13.362  -0.306   0.352 -0.23 +0.08    +0.064 C 
DOCKED: ATOM      5  C   UNL d   1     -16.319  -2.169   4.507 -0.08 +0.04    +0.066 A 
DOCKED: ATOM      6  C   UNL d   1     -16.962  -2.751   5.587 -0.10 -0.01    -0.021 A 
DOCKED: ATOM      7  C   UNL d   1     -16.143  -2.583   6.676 -0.17 -0.01    -0.025 A 
DOCKED: ATOM      8  C   UNL d   1     -15.030  -1.905   6.218 -0.19 +0.02    +0.066 A 
DOCKED: ATOM      9  C   UNL d   1     -16.415  -3.067   8.068 -0.28 +0.01    +0.051 C 
DOCKED: ATOM     10  C   UNL d   1     -12.808  -0.893   6.641 -0.36 +0.01    +0.066 A 
DOCKED: ATOM     11  C   UNL d   1     -11.811  -0.412   7.493 -0.49 -0.00    -0.021 A 
DOCKED: ATOM     12  C   UNL d   1     -10.839   0.142   6.684 -0.48 +0.00    +0.000 A 
DOCKED: ATOM     13  C   UNL d   1     -11.301  -0.025   5.367 -0.39 +0.02    +0.070 A 
DOCKED: ATOM     14  C   UNL d   1     -11.817  -0.416   9.008 -0.54 +0.01    +0.052 C 
DOCKED: ATOM     15  C   UNL d   1     -11.024   0.242   2.906 -0.22 +0.03    +0.066 A 
DOCKED: ATOM     16  C   UNL d   1     -10.248   0.521   1.788 -0.32 -0.01    -0.021 A 
DOCKED: ATOM     17  C   UNL d   1     -11.055   0.335   0.685 -0.32 +0.00    +0.000 A 
DOCKED: ATOM     18  C   UNL d   1     -12.307  -0.050   1.157 -0.24 +0.06    +0.070 A 
DOCKED: ATOM     19  C   UNL d   1      -8.812   0.970   1.756 -0.40 +0.01    +0.052 C 
DOCKED: ATOM     20  C   UNL d   1     -14.676  -0.772   0.808 -0.18 +0.09    +0.066 A 
DOCKED: ATOM     21  C   UNL d   1     -15.829  -0.849   0.014 -0.15 -0.03    -0.025 A 
DOCKED: ATOM     22  C   UNL d   1     -16.814  -1.371   0.828 -0.11 -0.02    -0.021 A 
DOCKED: ATOM     23  C   UNL d   1     -16.228  -1.585   2.081 -0.12 +0.07    +0.066 A 
DOCKED: ATOM     24  C   UNL d   1     -16.007  -0.450  -1.432 -0.13 +0.06    +0.051 C 
DOCKED: ATOM     25  N   UNL d   1     -15.136  -1.663   4.896 -0.08 -0.13    -0.248 N 
DOCKED: ATOM     26  N   UNL d   1     -12.505  -0.648   5.340 -0.25 -0.07    -0.248 N 
DOCKED: ATOM     27  N   UNL d   1     -12.277  -0.150   2.519 -0.16 -0.18    -0.248 N 
DOCKED: ATOM     28  N   UNL d   1     -14.936  -1.176   2.076 -0.13 -0.28    -0.248 N 
DOCKED: ATOM     29 FE   UNL d   1     -13.720  -0.912   3.706 -0.06 +0.00    +0.000 Fe
DOCKED: ENDROOT
DOCKED: BRANCH   6  30
DOCKED: ATOM     30  C   UNL d   1     -18.279  -3.449   5.584 -0.10 +0.02    +0.052 C 
DOCKED: BRANCH  30  31
DOCKED: ATOM     31  C   UNL d   1     -19.419  -2.453   5.403 -0.04 +0.06    +0.115 C 
DOCKED: BRANCH  31  32
DOCKED: ATOM     32  C   UNL d   1     -19.009  -1.091   5.891 -0.09 +0.09    +0.139 C 
DOCKED: ATOM     33  O   UNL d   1     -18.745  -0.905   7.070 +0.03 -0.34    -0.650 OA
DOCKED: BRANCH  32  34
DOCKED: ATOM     34  O   UNL d   1     -18.930  -0.062   5.030 +0.04 -0.93    -0.776 OA
DOCKED: ATOM     35  H   UNL d   1     -18.202  -0.037   4.394 +0.03 +0.20    +0.167 HD
DOCKED: ENDBRANCH  32  34
DOCKED: ENDBRANCH  31  32
DOCKED: ENDBRANCH  30  31
DOCKED: ENDBRANCH   6  30
DOCKED: BRANCH  22  36
DOCKED: ATOM     36  C   UNL d   1     -18.249  -1.603   0.434 -0.04 +0.04    +0.052 C 
DOCKED: BRANCH  36  37
DOCKED: ATOM     37  C   UNL d   1     -19.008  -0.284   0.458 -0.03 +0.11    +0.115 C 
DOCKED: BRANCH  37  38
DOCKED: ATOM     38  C   UNL d   1     -18.243   0.763   1.217 -0.12 +0.21    +0.139 C 
DOCKED: ATOM     39  O   UNL d   1     -17.369   1.419   0.669 -0.06 -1.53    -0.650 OA
DOCKED: BRANCH  38  40
DOCKED: ATOM     40  O   UNL d   1     -18.517   0.985   2.515 -0.26 -1.58    -0.776 OA
DOCKED: ATOM     41  H   UNL d   1     -18.845   0.254   3.058 +0.02 +0.27    +0.167 HD
DOCKED: ENDBRANCH  38  40
DOCKED: ENDBRANCH  37  38
DOCKED: ENDBRANCH  36  37
DOCKED: ENDBRANCH  22  36
DOCKED: BRANCH  12  42
DOCKED: ATOM     42  C   UNL d   1      -9.584   0.791   7.175 -0.47 +0.00    +0.004 C 
DOCKED: ATOM     43  C   UNL d   1      -8.381   0.306   6.839 -0.47 +0.00    +0.012 C 
DOCKED: ENDBRANCH  12  42
DOCKED: BRANCH  17  44
DOCKED: ATOM     44  C   UNL d   1     -10.648   0.495  -0.730 -0.37 +0.00    +0.004 C 
DOCKED: ATOM     45  C   UNL d   1     -10.579   1.708  -1.289 -0.33 +0.00    +0.012 C 
DOCKED: ENDBRANCH  17  44
DOCKED: TORSDOF 10
DOCKED: TER
DOCKED: ENDMDL
________________________________________________________________________________


	BEGINNING GENETIC ALGORITHM DOCKING 69 of 100
Run: 69 Seed: 94837956 932129629 [ Run 69 of 100 GA/GALS ]
Beginning LAMARCKIAN GENETIC ALGORITHM (LGA), with a maximum of 25000000 energy evaluations.

Final-Value: -15.135


	FINAL GENETIC ALGORITHM DOCKED STATE
	_______________________________________________


Detailed state:  trans -14.697 -1.579 3.383 quatxyzw -0.617740 -0.212223 0.088151 -0.752056 center -0.174 -0.001 -0.047 ntor 10 11.1561 -156.1328 68.9784 -149.8305 -86.1838 68.0999 -132.4953 -164.2797 179.0722 162.1645
State:	-14.697  -1.579   3.383  -0.937 -0.322  0.134 -82.462     11.16 -156.13   68.98 -149.83  -86.18   68.10 -132.50 -164.28  179.07  162.16

DOCKED: MODEL       69
DOCKED: USER    Run = 69
DOCKED: USER    DPF = D:/Protein_go_brrr/autodock/final/AncMH_nat/heme_Fe/dock.dpf
DOCKED: USER  
DOCKED: USER    Estimated Free Energy of Binding    =  -10.01 kcal/mol  [=(1)+(2)+(3)-(4)]
DOCKED: USER    Estimated Inhibition Constant, Ki   =   45.98 nM (nanomolar)  [Temperature = 298.15 K]
DOCKED: USER    
DOCKED: USER    (1) Final Intermolecular Energy     =  -12.99 kcal/mol
DOCKED: USER        vdW + Hbond + desolv Energy     =   -9.38 kcal/mol
DOCKED: USER        Electrostatic Energy            =   -3.61 kcal/mol
DOCKED: USER    (2) Final Total Internal Energy     =   -2.14 kcal/mol
DOCKED: USER    (3) Torsional Free Energy           =   +2.98 kcal/mol
DOCKED: USER    (4) Unbound System's Energy  [=(2)] =   -2.14 kcal/mol
DOCKED: USER    
DOCKED: USER    
DOCKED: USER    NEWDPF move heme_Fe_opt.pdbqt
DOCKED: USER    NEWDPF about -0.174000 -0.001000 -0.047000
DOCKED: USER    NEWDPF tran0 -14.697463 -1.579375 3.382739
DOCKED: USER    NEWDPF quaternion0 -0.617740 -0.212223 0.088151 -0.752056
DOCKED: USER    NEWDPF axisangle0 -0.937249 -0.321989 0.133745 -82.462454
DOCKED: USER    NEWDPF quat0 -0.937249 -0.321989 0.133745 -82.462454
DOCKED: USER    NEWDPF dihe0 11.16 -156.13 68.98 -149.83 -86.18 68.10 -132.50 -164.28 179.07 162.16 
DOCKED: USER  keepresnum = 1 
DOCKED: USER  
DOCKED: REMARK  10 active torsions:
DOCKED: REMARK  status: ('A' for Active; 'I' for Inactive)
DOCKED: REMARK    1  A    between atoms: C_6  and  C_10 
DOCKED: REMARK    2  A    between atoms: C_10  and  C_11 
DOCKED: REMARK    3  A    between atoms: C_11  and  C_12 
DOCKED: REMARK    4  A    between atoms: C_12  and  O_14 
DOCKED: REMARK    5  A    between atoms: C_17  and  C_20 
DOCKED: REMARK    6  A    between atoms: C_24  and  C_27 
DOCKED: REMARK    7  A    between atoms: C_31  and  C_34 
DOCKED: REMARK    8  A    between atoms: C_34  and  C_35 
DOCKED: REMARK    9  A    between atoms: C_35  and  C_36 
DOCKED: REMARK   10  A    between atoms: C_36  and  O_38 
DOCKED: USER                              x       y       z     vdW  Elec       q    Type
DOCKED: USER                           _______ _______ _______ _____ _____    ______ ____
DOCKED: ROOT
DOCKED: ATOM      1  C   UNL d   1     -16.705  -1.900   3.101 -0.10 +0.05    +0.064 C 
DOCKED: ATOM      2  C   UNL d   1     -13.786  -1.367   7.055 -0.33 +0.01    +0.064 A 
DOCKED: ATOM      3  C   UNL d   1     -10.340   0.363   4.191 -0.33 +0.02    +0.064 C 
DOCKED: ATOM      4  C   UNL d   1     -13.110  -0.243   0.338 -0.24 +0.08    +0.064 C 
DOCKED: ATOM      5  C   UNL d   1     -16.173  -1.989   4.468 -0.09 +0.04    +0.066 A 
DOCKED: ATOM      6  C   UNL d   1     -16.847  -2.543   5.544 -0.10 -0.01    -0.021 A 
DOCKED: ATOM      7  C   UNL d   1     -16.037  -2.391   6.643 -0.17 -0.01    -0.025 A 
DOCKED: ATOM      8  C   UNL d   1     -14.899  -1.749   6.194 -0.19 +0.02    +0.066 A 
DOCKED: ATOM      9  C   UNL d   1     -16.340  -2.856   8.034 -0.27 +0.01    +0.051 C 
DOCKED: ATOM     10  C   UNL d   1     -12.653  -0.799   6.638 -0.37 +0.01    +0.066 A 
DOCKED: ATOM     11  C   UNL d   1     -11.654  -0.340   7.500 -0.48 -0.00    -0.021 A 
DOCKED: ATOM     12  C   UNL d   1     -10.656   0.179   6.699 -0.48 +0.00    +0.000 A 
DOCKED: ATOM     13  C   UNL d   1     -11.106   0.015   5.378 -0.39 +0.02    +0.070 A 
DOCKED: ATOM     14  C   UNL d   1     -11.679  -0.334   9.015 -0.52 +0.01    +0.052 C 
DOCKED: ATOM     15  C   UNL d   1     -10.789   0.255   2.919 -0.22 +0.03    +0.066 A 
DOCKED: ATOM     16  C   UNL d   1      -9.992   0.504   1.809 -0.34 -0.01    -0.021 A 
DOCKED: ATOM     17  C   UNL d   1     -10.790   0.333   0.696 -0.33 +0.00    +0.000 A 
DOCKED: ATOM     18  C   UNL d   1     -12.059  -0.012   1.155 -0.25 +0.06    +0.070 A 
DOCKED: ATOM     19  C   UNL d   1      -8.543   0.910   1.792 -0.41 +0.01    +0.052 C 
DOCKED: ATOM     20  C   UNL d   1     -14.443  -0.668   0.781 -0.19 +0.09    +0.066 A 
DOCKED: ATOM     21  C   UNL d   1     -15.588  -0.717  -0.027 -0.15 -0.04    -0.025 A 
DOCKED: ATOM     22  C   UNL d   1     -16.597  -1.204   0.777 -0.12 -0.03    -0.021 A 
DOCKED: ATOM     23  C   UNL d   1     -16.034  -1.426   2.040 -0.13 +0.07    +0.066 A 
DOCKED: ATOM     24  C   UNL d   1     -15.735  -0.325  -1.479 -0.14 +0.06    +0.051 C 
DOCKED: ATOM     25  N   UNL d   1     -14.981  -1.515   4.869 -0.08 -0.13    -0.248 N 
DOCKED: ATOM     26  N   UNL d   1     -12.327  -0.573   5.340 -0.26 -0.07    -0.248 N 
DOCKED: ATOM     27  N   UNL d   1     -12.049  -0.103   2.519 -0.16 -0.16    -0.248 N 
DOCKED: ATOM     28  N   UNL d   1     -14.730  -1.055   2.048 -0.14 -0.28    -0.248 N 
DOCKED: ATOM     29 FE   UNL d   1     -13.528  -0.813   3.692 -0.06 +0.00    +0.000 Fe
DOCKED: ENDROOT
DOCKED: BRANCH   6  30
DOCKED: ATOM     30  C   UNL d   1     -18.183  -3.203   5.528 -0.09 +0.02    +0.052 C 
DOCKED: BRANCH  30  31
DOCKED: ATOM     31  C   UNL d   1     -19.288  -2.194   5.821 -0.05 +0.06    +0.115 C 
DOCKED: BRANCH  31  32
DOCKED: ATOM     32  C   UNL d   1     -19.105  -0.957   4.986 -0.09 +0.12    +0.139 C 
DOCKED: ATOM     33  O   UNL d   1     -18.384  -0.046   5.370 -0.03 -0.66    -0.650 OA
DOCKED: BRANCH  32  34
DOCKED: ATOM     34  O   UNL d   1     -19.736  -0.841   3.806 +0.02 -0.82    -0.776 OA
DOCKED: ATOM     35  H   UNL d   1     -19.486  -0.122   3.208 +0.02 +0.25    +0.167 HD
DOCKED: ENDBRANCH  32  34
DOCKED: ENDBRANCH  31  32
DOCKED: ENDBRANCH  30  31
DOCKED: ENDBRANCH   6  30
DOCKED: BRANCH  22  36
DOCKED: ATOM     36  C   UNL d   1     -18.033  -1.397   0.367 -0.05 +0.05    +0.052 C 
DOCKED: BRANCH  36  37
DOCKED: ATOM     37  C   UNL d   1     -18.877  -0.244   0.890 -0.05 +0.12    +0.115 C 
DOCKED: BRANCH  37  38
DOCKED: ATOM     38  C   UNL d   1     -18.009   0.901   1.330 -0.11 +0.24    +0.139 C 
DOCKED: ATOM     39  O   UNL d   1     -17.369   1.550   0.516 +0.04 -1.57    -0.650 OA
DOCKED: BRANCH  38  40
DOCKED: ATOM     40  O   UNL d   1     -17.929   1.219   2.634 -0.33 -1.55    -0.776 OA
DOCKED: ATOM     41  H   UNL d   1     -18.128   0.542   3.296 +0.03 +0.27    +0.167 HD
DOCKED: ENDBRANCH  38  40
DOCKED: ENDBRANCH  37  38
DOCKED: ENDBRANCH  36  37
DOCKED: ENDBRANCH  22  36
DOCKED: BRANCH  12  42
DOCKED: ATOM     42  C   UNL d   1      -9.389   0.794   7.202 -0.47 +0.00    +0.004 C 
DOCKED: ATOM     43  C   UNL d   1      -8.198   0.249   6.918 -0.47 +0.00    +0.012 C 
DOCKED: ENDBRANCH  12  42
DOCKED: BRANCH  17  44
DOCKED: ATOM     44  C   UNL d   1     -10.360   0.470  -0.714 -0.38 +0.00    +0.004 C 
DOCKED: ATOM     45  C   UNL d   1     -10.546   1.616  -1.377 -0.34 +0.00    +0.012 C 
DOCKED: ENDBRANCH  17  44
DOCKED: TORSDOF 10
DOCKED: TER
DOCKED: ENDMDL
________________________________________________________________________________


	BEGINNING GENETIC ALGORITHM DOCKING 70 of 100
Run: 70 Seed: 1844770544 1660191933 [ Run 70 of 100 GA/GALS ]
Beginning LAMARCKIAN GENETIC ALGORITHM (LGA), with a maximum of 25000000 energy evaluations.

Final-Value: -16.643


	FINAL GENETIC ALGORITHM DOCKED STATE
	_______________________________________________


Detailed state:  trans -10.745 0.636 3.071 quatxyzw 0.800376 -0.048460 0.154191 -0.577299 center -0.174 -0.001 -0.047 ntor 10 134.6209 6.0703 37.0127 -98.9378 171.5805 -166.5444 -26.3012 -71.6374 155.4084 26.1372
State:	-10.745   0.636   3.071   0.980 -0.059  0.189 -109.478    134.62    6.07   37.01  -98.94  171.58 -166.54  -26.30  -71.64  155.41   26.14

DOCKED: MODEL       70
DOCKED: USER    Run = 70
DOCKED: USER    DPF = D:/Protein_go_brrr/autodock/final/AncMH_nat/heme_Fe/dock.dpf
DOCKED: USER  
DOCKED: USER    Estimated Free Energy of Binding    =  -11.71 kcal/mol  [=(1)+(2)+(3)-(4)]
DOCKED: USER    Estimated Inhibition Constant, Ki   =    2.63 nM (nanomolar)  [Temperature = 298.15 K]
DOCKED: USER    
DOCKED: USER    (1) Final Intermolecular Energy     =  -14.69 kcal/mol
DOCKED: USER        vdW + Hbond + desolv Energy     =  -11.72 kcal/mol
DOCKED: USER        Electrostatic Energy            =   -2.97 kcal/mol
DOCKED: USER    (2) Final Total Internal Energy     =   -1.95 kcal/mol
DOCKED: USER    (3) Torsional Free Energy           =   +2.98 kcal/mol
DOCKED: USER    (4) Unbound System's Energy  [=(2)] =   -1.95 kcal/mol
DOCKED: USER    
DOCKED: USER    
DOCKED: USER    NEWDPF move heme_Fe_opt.pdbqt
DOCKED: USER    NEWDPF about -0.174000 -0.001000 -0.047000
DOCKED: USER    NEWDPF tran0 -10.744631 0.635710 3.071116
DOCKED: USER    NEWDPF quaternion0 0.800376 -0.048460 0.154191 -0.577299
DOCKED: USER    NEWDPF axisangle0 0.980214 -0.059349 0.188836 -109.478397
DOCKED: USER    NEWDPF quat0 0.980214 -0.059349 0.188836 -109.478397
DOCKED: USER    NEWDPF dihe0 134.62 6.07 37.01 -98.94 171.58 -166.54 -26.30 -71.64 155.41 26.14 
DOCKED: USER  keepresnum = 1 
DOCKED: USER  
DOCKED: REMARK  10 active torsions:
DOCKED: REMARK  status: ('A' for Active; 'I' for Inactive)
DOCKED: REMARK    1  A    between atoms: C_6  and  C_10 
DOCKED: REMARK    2  A    between atoms: C_10  and  C_11 
DOCKED: REMARK    3  A    between atoms: C_11  and  C_12 
DOCKED: REMARK    4  A    between atoms: C_12  and  O_14 
DOCKED: REMARK    5  A    between atoms: C_17  and  C_20 
DOCKED: REMARK    6  A    between atoms: C_24  and  C_27 
DOCKED: REMARK    7  A    between atoms: C_31  and  C_34 
DOCKED: REMARK    8  A    between atoms: C_34  and  C_35 
DOCKED: REMARK    9  A    between atoms: C_35  and  C_36 
DOCKED: REMARK   10  A    between atoms: C_36  and  O_38 
DOCKED: USER                              x       y       z     vdW  Elec       q    Type
DOCKED: USER                           _______ _______ _______ _____ _____    ______ ____
DOCKED: ROOT
DOCKED: ATOM      1  C   UNL d   1     -12.506  -0.043   2.266 -0.31 +0.05    +0.064 C 
DOCKED: ATOM      2  C   UNL d   1      -8.231   1.599   0.404 -0.34 +0.01    +0.064 A 
DOCKED: ATOM      3  C   UNL d   1      -6.220   1.065   4.733 -0.34 +0.00    +0.064 C 
DOCKED: ATOM      4  C   UNL d   1     -10.374  -0.426   6.579 -0.25 +0.01    +0.064 C 
DOCKED: ATOM      5  C   UNL d   1     -11.511   0.547   1.360 -0.26 +0.05    +0.066 A 
DOCKED: ATOM      6  C   UNL d   1     -11.764   0.944   0.057 -0.25 -0.02    -0.021 A 
DOCKED: ATOM      7  C   UNL d   1     -10.576   1.396  -0.461 -0.29 -0.01    -0.025 A 
DOCKED: ATOM      8  C   UNL d   1      -9.642   1.259   0.548 -0.32 +0.02    +0.066 A 
DOCKED: ATOM      9  C   UNL d   1     -10.365   1.945  -1.838 -0.27 +0.01    +0.051 C 
DOCKED: ATOM     10  C   UNL d   1      -7.322   1.530   1.377 -0.39 +0.01    +0.066 A 
DOCKED: ATOM     11  C   UNL d   1      -5.957   1.753   1.179 -0.42 -0.00    -0.021 A 
DOCKED: ATOM     12  C   UNL d   1      -5.352   1.588   2.409 -0.36 +0.00    +0.000 A 
DOCKED: ATOM     13  C   UNL d   1      -6.389   1.262   3.301 -0.32 +0.01    +0.070 A 
DOCKED: ATOM     14  C   UNL d   1      -5.253   2.040  -0.131 -0.44 -0.00    +0.052 C 
DOCKED: ATOM     15  C   UNL d   1      -7.206   0.701   5.587 -0.31 +0.01    +0.066 A 
DOCKED: ATOM     16  C   UNL d   1      -7.027   0.620   6.962 -0.41 -0.00    -0.021 A 
DOCKED: ATOM     17  C   UNL d   1      -8.223   0.187   7.496 -0.42 +0.00    +0.000 A 
DOCKED: ATOM     18  C   UNL d   1      -9.103   0.009   6.432 -0.35 +0.01    +0.070 A 
DOCKED: ATOM     19  C   UNL d   1      -5.774   0.914   7.743 -0.51 +0.00    +0.052 C 
DOCKED: ATOM     20  C   UNL d   1     -11.348  -0.566   5.490 -0.30 +0.02    +0.066 A 
DOCKED: ATOM     21  C   UNL d   1     -12.594  -1.201   5.595 -0.34 -0.01    -0.025 A 
DOCKED: ATOM     22  C   UNL d   1     -13.190  -1.069   4.358 -0.27 -0.01    -0.021 A 
DOCKED: ATOM     23  C   UNL d   1     -12.286  -0.368   3.549 -0.18 +0.03    +0.066 A 
DOCKED: ATOM     24  C   UNL d   1     -13.199  -1.900   6.790 -0.33 +0.01    +0.051 C 
DOCKED: ATOM     25  N   UNL d   1     -10.215   0.751   1.657 -0.18 -0.10    -0.248 N 
DOCKED: ATOM     26  N   UNL d   1      -7.588   1.218   2.671 -0.22 -0.04    -0.248 N 
DOCKED: ATOM     27  N   UNL d   1      -8.493   0.367   5.262 -0.14 -0.08    -0.248 N 
DOCKED: ATOM     28  N   UNL d   1     -11.146  -0.104   4.233 -0.17 -0.09    -0.248 N 
DOCKED: ATOM     29 FE   UNL d   1      -9.368   0.556   3.454 -0.08 +0.00    +0.000 Fe
DOCKED: ENDROOT
DOCKED: BRANCH   6  30
DOCKED: ATOM     30  C   UNL d   1     -13.073   0.915  -0.656 -0.11 +0.07    +0.052 C 
DOCKED: BRANCH  30  31
DOCKED: ATOM     31  C   UNL d   1     -13.029  -0.062  -1.826 -0.17 +0.10    +0.115 C 
DOCKED: BRANCH  31  32
DOCKED: ATOM     32  C   UNL d   1     -14.408  -0.576  -2.133 -0.11 +0.13    +0.139 C 
DOCKED: ATOM     33  O   UNL d   1     -14.614  -1.250  -3.133 -0.02 -0.52    -0.650 OA
DOCKED: BRANCH  32  34
DOCKED: ATOM     34  O   UNL d   1     -15.432  -0.299  -1.308 -0.02 -0.97    -0.776 OA
DOCKED: ATOM     35  H   UNL d   1     -15.305  -0.396  -0.354 +0.03 +0.26    +0.167 HD
DOCKED: ENDBRANCH  32  34
DOCKED: ENDBRANCH  31  32
DOCKED: ENDBRANCH  30  31
DOCKED: ENDBRANCH   6  30
DOCKED: BRANCH  22  36
DOCKED: ATOM     36  C   UNL d   1     -14.531  -1.628   3.963 -0.23 +0.03    +0.052 C 
DOCKED: BRANCH  36  37
DOCKED: ATOM     37  C   UNL d   1     -15.431  -0.504   3.470 -0.03 +0.11    +0.115 C 
DOCKED: BRANCH  37  38
DOCKED: ATOM     38  C   UNL d   1     -15.614  -0.575   1.980 -0.16 +0.19    +0.139 C 
DOCKED: ATOM     39  O   UNL d   1     -16.094   0.364   1.364 -0.31 -1.53    -0.650 OA
DOCKED: BRANCH  38  40
DOCKED: ATOM     40  O   UNL d   1     -15.250  -1.684   1.311 +0.03 -0.95    -0.776 OA
DOCKED: ATOM     41  H   UNL d   1     -15.293  -1.686   0.345 +0.03 +0.22    +0.167 HD
DOCKED: ENDBRANCH  38  40
DOCKED: ENDBRANCH  37  38
DOCKED: ENDBRANCH  36  37
DOCKED: ENDBRANCH  22  36
DOCKED: BRANCH  12  42
DOCKED: ATOM     42  C   UNL d   1      -3.885   1.723   2.667 -0.32 -0.00    +0.004 C 
DOCKED: ATOM     43  C   UNL d   1      -3.334   2.920   2.905 -0.46 -0.00    +0.012 C 
DOCKED: ENDBRANCH  12  42
DOCKED: BRANCH  17  44
DOCKED: ATOM     44  C   UNL d   1      -8.509  -0.024   8.933 -0.51 +0.00    +0.004 C 
DOCKED: ATOM     45  C   UNL d   1      -7.636  -0.662   9.719 -0.59 +0.00    +0.012 C 
DOCKED: ENDBRANCH  17  44
DOCKED: TORSDOF 10
DOCKED: TER
DOCKED: ENDMDL
________________________________________________________________________________


	BEGINNING GENETIC ALGORITHM DOCKING 71 of 100
Run: 71 Seed: 1854916479 317096220 [ Run 71 of 100 GA/GALS ]
Beginning LAMARCKIAN GENETIC ALGORITHM (LGA), with a maximum of 25000000 energy evaluations.

Final-Value: -15.437


	FINAL GENETIC ALGORITHM DOCKED STATE
	_______________________________________________


Detailed state:  trans -14.673 -0.853 3.373 quatxyzw 0.770797 0.068228 0.122808 -0.621398 center -0.174 -0.001 -0.047 ntor 10 -141.6345 3.5778 8.1048 67.4869 45.2671 -84.5579 -148.8274 -133.7937 -28.8271 -6.1846
State:	-14.673  -0.853   3.373   0.984  0.087  0.157 -103.163   -141.63    3.58    8.10   67.49   45.27  -84.56 -148.83 -133.79  -28.83   -6.18

DOCKED: MODEL       71
DOCKED: USER    Run = 71
DOCKED: USER    DPF = D:/Protein_go_brrr/autodock/final/AncMH_nat/heme_Fe/dock.dpf
DOCKED: USER  
DOCKED: USER    Estimated Free Energy of Binding    =  -10.43 kcal/mol  [=(1)+(2)+(3)-(4)]
DOCKED: USER    Estimated Inhibition Constant, Ki   =   22.45 nM (nanomolar)  [Temperature = 298.15 K]
DOCKED: USER    
DOCKED: USER    (1) Final Intermolecular Energy     =  -13.42 kcal/mol
DOCKED: USER        vdW + Hbond + desolv Energy     =   -9.89 kcal/mol
DOCKED: USER        Electrostatic Energy            =   -3.53 kcal/mol
DOCKED: USER    (2) Final Total Internal Energy     =   -2.02 kcal/mol
DOCKED: USER    (3) Torsional Free Energy           =   +2.98 kcal/mol
DOCKED: USER    (4) Unbound System's Energy  [=(2)] =   -2.02 kcal/mol
DOCKED: USER    
DOCKED: USER    
DOCKED: USER    NEWDPF move heme_Fe_opt.pdbqt
DOCKED: USER    NEWDPF about -0.174000 -0.001000 -0.047000
DOCKED: USER    NEWDPF tran0 -14.673358 -0.853266 3.373099
DOCKED: USER    NEWDPF quaternion0 0.770797 0.068228 0.122808 -0.621398
DOCKED: USER    NEWDPF axisangle0 0.983793 0.087081 0.156744 -103.163436
DOCKED: USER    NEWDPF quat0 0.983793 0.087081 0.156744 -103.163436
DOCKED: USER    NEWDPF dihe0 -141.63 3.58 8.10 67.49 45.27 -84.56 -148.83 -133.79 -28.83 -6.18 
DOCKED: USER  keepresnum = 1 
DOCKED: USER  
DOCKED: REMARK  10 active torsions:
DOCKED: REMARK  status: ('A' for Active; 'I' for Inactive)
DOCKED: REMARK    1  A    between atoms: C_6  and  C_10 
DOCKED: REMARK    2  A    between atoms: C_10  and  C_11 
DOCKED: REMARK    3  A    between atoms: C_11  and  C_12 
DOCKED: REMARK    4  A    between atoms: C_12  and  O_14 
DOCKED: REMARK    5  A    between atoms: C_17  and  C_20 
DOCKED: REMARK    6  A    between atoms: C_24  and  C_27 
DOCKED: REMARK    7  A    between atoms: C_31  and  C_34 
DOCKED: REMARK    8  A    between atoms: C_34  and  C_35 
DOCKED: REMARK    9  A    between atoms: C_35  and  C_36 
DOCKED: REMARK   10  A    between atoms: C_36  and  O_38 
DOCKED: USER                              x       y       z     vdW  Elec       q    Type
DOCKED: USER                           _______ _______ _______ _____ _____    ______ ____
DOCKED: ROOT
DOCKED: ATOM      1  C   UNL d   1     -16.428  -1.852   3.003 -0.12 +0.05    +0.064 C 
DOCKED: ATOM      2  C   UNL d   1     -12.815  -0.001   0.183 -0.21 +0.07    +0.064 A 
DOCKED: ATOM      3  C   UNL d   1     -10.044   0.361   4.089 -0.28 +0.02    +0.064 C 
DOCKED: ATOM      4  C   UNL d   1     -13.564  -1.330   6.854 -0.39 +0.01    +0.064 C 
DOCKED: ATOM      5  C   UNL d   1     -15.697  -1.287   1.861 -0.15 +0.08    +0.066 A 
DOCKED: ATOM      6  C   UNL d   1     -16.222  -1.122   0.590 -0.14 -0.03    -0.021 A 
DOCKED: ATOM      7  C   UNL d   1     -15.217  -0.611  -0.194 -0.16 -0.04    -0.025 A 
DOCKED: ATOM      8  C   UNL d   1     -14.116  -0.484   0.630 -0.20 +0.09    +0.066 A 
DOCKED: ATOM      9  C   UNL d   1     -15.325  -0.252  -1.644 -0.15 +0.06    +0.051 C 
DOCKED: ATOM     10  C   UNL d   1     -11.753   0.185   0.969 -0.26 +0.05    +0.066 A 
DOCKED: ATOM     11  C   UNL d   1     -10.489   0.539   0.492 -0.33 -0.01    -0.021 A 
DOCKED: ATOM     12  C   UNL d   1      -9.667   0.633   1.597 -0.37 +0.00    +0.000 A 
DOCKED: ATOM     13  C   UNL d   1     -10.479   0.321   2.702 -0.26 +0.03    +0.070 A 
DOCKED: ATOM     14  C   UNL d   1     -10.067   0.711  -0.953 -0.33 +0.01    +0.052 C 
DOCKED: ATOM     15  C   UNL d   1     -10.807   0.011   5.151 -0.37 +0.02    +0.066 A 
DOCKED: ATOM     16  C   UNL d   1     -10.388   0.157   6.467 -0.45 -0.00    -0.021 A 
DOCKED: ATOM     17  C   UNL d   1     -11.400  -0.333   7.267 -0.46 +0.00    +0.000 A 
DOCKED: ATOM     18  C   UNL d   1     -12.413  -0.771   6.417 -0.35 +0.01    +0.070 A 
DOCKED: ATOM     19  C   UNL d   1      -9.078   0.713   6.957 -0.42 +0.01    +0.052 C 
DOCKED: ATOM     20  C   UNL d   1     -14.677  -1.746   5.993 -0.20 +0.02    +0.066 A 
DOCKED: ATOM     21  C   UNL d   1     -15.782  -2.504   6.408 -0.18 -0.01    -0.025 A 
DOCKED: ATOM     22  C   UNL d   1     -16.591  -2.630   5.298 -0.10 -0.01    -0.021 A 
DOCKED: ATOM     23  C   UNL d   1     -15.949  -1.954   4.254 -0.10 +0.04    +0.066 A 
DOCKED: ATOM     24  C   UNL d   1     -16.068  -3.086   7.773 -0.29 +0.01    +0.051 C 
DOCKED: ATOM     25  N   UNL d   1     -14.414  -0.886   1.881 -0.15 -0.29    -0.248 N 
DOCKED: ATOM     26  N   UNL d   1     -11.749   0.039   2.318 -0.16 -0.16    -0.248 N 
DOCKED: ATOM     27  N   UNL d   1     -12.069  -0.521   5.118 -0.25 -0.07    -0.248 N 
DOCKED: ATOM     28  N   UNL d   1     -14.760  -1.455   4.672 -0.09 -0.13    -0.248 N 
DOCKED: ATOM     29 FE   UNL d   1     -13.255  -0.708   3.497 -0.06 +0.00    +0.000 Fe
DOCKED: ENDROOT
DOCKED: BRANCH   6  30
DOCKED: ATOM     30  C   UNL d   1     -17.615  -1.414   0.144 -0.08 +0.05    +0.052 C 
DOCKED: BRANCH  30  31
DOCKED: ATOM     31  C   UNL d   1     -18.619  -0.572   0.924 -0.04 +0.11    +0.115 C 
DOCKED: BRANCH  31  32
DOCKED: ATOM     32  C   UNL d   1     -18.012   0.750   1.308 -0.12 +0.23    +0.139 C 
DOCKED: ATOM     33  O   UNL d   1     -17.373   1.402   0.494 -0.09 -1.50    -0.650 OA
DOCKED: BRANCH  32  34
DOCKED: ATOM     34  O   UNL d   1     -18.168   1.227   2.554 -0.37 -1.61    -0.776 OA
DOCKED: ATOM     35  H   UNL d   1     -18.136   0.611   3.300 +0.03 +0.28    +0.167 HD
DOCKED: ENDBRANCH  32  34
DOCKED: ENDBRANCH  31  32
DOCKED: ENDBRANCH  30  31
DOCKED: ENDBRANCH   6  30
DOCKED: BRANCH  22  36
DOCKED: ATOM     36  C   UNL d   1     -17.884  -3.399   5.235 -0.10 +0.02    +0.052 C 
DOCKED: BRANCH  36  37
DOCKED: ATOM     37  C   UNL d   1     -19.046  -2.479   5.580 -0.05 +0.06    +0.115 C 
DOCKED: BRANCH  37  38
DOCKED: ATOM     38  C   UNL d   1     -18.925  -1.165   4.862 -0.08 +0.11    +0.139 C 
DOCKED: ATOM     39  O   UNL d   1     -18.245  -0.261   5.323 -0.02 -0.60    -0.650 OA
DOCKED: BRANCH  38  40
DOCKED: ATOM     40  O   UNL d   1     -19.572  -0.974   3.698 +0.03 -0.77    -0.776 OA
DOCKED: ATOM     41  H   UNL d   1     -19.446  -0.141   3.222 +0.02 +0.24    +0.167 HD
DOCKED: ENDBRANCH  38  40
DOCKED: ENDBRANCH  37  38
DOCKED: ENDBRANCH  36  37
DOCKED: ENDBRANCH  22  36
DOCKED: BRANCH  12  42
DOCKED: ATOM     42  C   UNL d   1      -8.213   0.980   1.556 -0.46 +0.00    +0.004 C 
DOCKED: ATOM     43  C   UNL d   1      -7.791   2.114   0.981 -0.45 +0.00    +0.012 C 
DOCKED: ENDBRANCH  12  42
DOCKED: BRANCH  17  44
DOCKED: ATOM     44  C   UNL d   1     -11.406  -0.360   8.747 -0.59 +0.00    +0.004 C 
DOCKED: ATOM     45  C   UNL d   1     -12.366   0.261   9.439 -0.53 +0.00    +0.012 C 
DOCKED: ENDBRANCH  17  44
DOCKED: TORSDOF 10
DOCKED: TER
DOCKED: ENDMDL
________________________________________________________________________________


	BEGINNING GENETIC ALGORITHM DOCKING 72 of 100
Run: 72 Seed: 907440032 481497503 [ Run 72 of 100 GA/GALS ]
Beginning LAMARCKIAN GENETIC ALGORITHM (LGA), with a maximum of 25000000 energy evaluations.

Final-Value: -15.430


	FINAL GENETIC ALGORITHM DOCKED STATE
	_______________________________________________


Detailed state:  trans -8.838 0.938 6.038 quatxyzw -0.487644 -0.567418 0.341446 0.568906 center -0.174 -0.001 -0.047 ntor 10 179.6600 -73.2859 51.0348 -145.4762 -26.8820 -91.9262 -68.8285 -103.4178 13.0604 146.5577
State:	 -8.838   0.938   6.038  -0.593 -0.690  0.415 110.652    179.66  -73.29   51.03 -145.48  -26.88  -91.93  -68.83 -103.42   13.06  146.56

DOCKED: MODEL       72
DOCKED: USER    Run = 72
DOCKED: USER    DPF = D:/Protein_go_brrr/autodock/final/AncMH_nat/heme_Fe/dock.dpf
DOCKED: USER  
DOCKED: USER    Estimated Free Energy of Binding    =  -11.78 kcal/mol  [=(1)+(2)+(3)-(4)]
DOCKED: USER    Estimated Inhibition Constant, Ki   =    2.34 nM (nanomolar)  [Temperature = 298.15 K]
DOCKED: USER    
DOCKED: USER    (1) Final Intermolecular Energy     =  -14.76 kcal/mol
DOCKED: USER        vdW + Hbond + desolv Energy     =  -14.63 kcal/mol
DOCKED: USER        Electrostatic Energy            =   -0.13 kcal/mol
DOCKED: USER    (2) Final Total Internal Energy     =   -0.67 kcal/mol
DOCKED: USER    (3) Torsional Free Energy           =   +2.98 kcal/mol
DOCKED: USER    (4) Unbound System's Energy  [=(2)] =   -0.67 kcal/mol
DOCKED: USER    
DOCKED: USER    
DOCKED: USER    NEWDPF move heme_Fe_opt.pdbqt
DOCKED: USER    NEWDPF about -0.174000 -0.001000 -0.047000
DOCKED: USER    NEWDPF tran0 -8.837589 0.937609 6.037637
DOCKED: USER    NEWDPF quaternion0 -0.487644 -0.567418 0.341446 0.568906
DOCKED: USER    NEWDPF axisangle0 -0.592950 -0.689952 0.415182 110.651997
DOCKED: USER    NEWDPF quat0 -0.592950 -0.689952 0.415182 110.651997
DOCKED: USER    NEWDPF dihe0 179.66 -73.29 51.03 -145.48 -26.88 -91.93 -68.83 -103.42 13.06 146.56 
DOCKED: USER  keepresnum = 1 
DOCKED: USER  
DOCKED: REMARK  10 active torsions:
DOCKED: REMARK  status: ('A' for Active; 'I' for Inactive)
DOCKED: REMARK    1  A    between atoms: C_6  and  C_10 
DOCKED: REMARK    2  A    between atoms: C_10  and  C_11 
DOCKED: REMARK    3  A    between atoms: C_11  and  C_12 
DOCKED: REMARK    4  A    between atoms: C_12  and  O_14 
DOCKED: REMARK    5  A    between atoms: C_17  and  C_20 
DOCKED: REMARK    6  A    between atoms: C_24  and  C_27 
DOCKED: REMARK    7  A    between atoms: C_31  and  C_34 
DOCKED: REMARK    8  A    between atoms: C_34  and  C_35 
DOCKED: REMARK    9  A    between atoms: C_35  and  C_36 
DOCKED: REMARK   10  A    between atoms: C_36  and  O_38 
DOCKED: USER                              x       y       z     vdW  Elec       q    Type
DOCKED: USER                           _______ _______ _______ _____ _____    ______ ____
DOCKED: ROOT
DOCKED: ATOM      1  C   UNL d   1      -8.970   0.092   7.903 -0.38 +0.01    +0.064 C 
DOCKED: ATOM      2  C   UNL d   1     -11.714  -0.091   3.796 -0.20 +0.03    +0.064 A 
DOCKED: ATOM      3  C   UNL d   1      -8.048   1.811   1.344 -0.41 +0.01    +0.064 C 
DOCKED: ATOM      4  C   UNL d   1      -5.413   2.095   5.327 -0.28 +0.00    +0.064 C 
DOCKED: ATOM      5  C   UNL d   1     -10.112  -0.058   6.990 -0.37 +0.01    +0.066 A 
DOCKED: ATOM      6  C   UNL d   1     -11.378  -0.475   7.369 -0.42 -0.00    -0.021 A 
DOCKED: ATOM      7  C   UNL d   1     -12.138  -0.529   6.227 -0.40 -0.01    -0.025 A 
DOCKED: ATOM      8  C   UNL d   1     -11.306  -0.143   5.194 -0.36 +0.02    +0.066 A 
DOCKED: ATOM      9  C   UNL d   1     -13.584  -0.913   6.147 -0.14 +0.01    +0.051 C 
DOCKED: ATOM     10  C   UNL d   1     -10.949   0.333   2.788 -0.26 +0.03    +0.066 A 
DOCKED: ATOM     11  C   UNL d   1     -11.328   0.263   1.445 -0.29 -0.01    -0.021 A 
DOCKED: ATOM     12  C   UNL d   1     -10.281   0.790   0.716 -0.35 +0.00    +0.000 A 
DOCKED: ATOM     13  C   UNL d   1      -9.304   1.150   1.661 -0.31 +0.02    +0.070 A 
DOCKED: ATOM     14  C   UNL d   1     -12.598  -0.340   0.879 -0.29 +0.05    +0.052 C 
DOCKED: ATOM     15  C   UNL d   1      -7.082   2.113   2.244 -0.33 +0.01    +0.066 A 
DOCKED: ATOM     16  C   UNL d   1      -5.940   2.833   1.918 -0.39 -0.00    -0.021 A 
DOCKED: ATOM     17  C   UNL d   1      -5.177   2.913   3.065 -0.40 -0.00    +0.000 A 
DOCKED: ATOM     18  C   UNL d   1      -5.871   2.235   4.064 -0.35 +0.00    +0.070 A 
DOCKED: ATOM     19  C   UNL d   1      -5.566   3.403   0.577 -0.39 +0.00    +0.052 C 
DOCKED: ATOM     20  C   UNL d   1      -6.143   1.441   6.420 -0.37 +0.00    +0.066 A 
DOCKED: ATOM     21  C   UNL d   1      -5.603   1.113   7.672 -0.47 -0.00    -0.025 A 
DOCKED: ATOM     22  C   UNL d   1      -6.638   0.556   8.394 -0.46 -0.00    -0.021 A 
DOCKED: ATOM     23  C   UNL d   1      -7.760   0.559   7.557 -0.40 +0.01    +0.066 A 
DOCKED: ATOM     24  C   UNL d   1      -4.190   1.307   8.170 -0.51 -0.00    +0.051 C 
DOCKED: ATOM     25  N   UNL d   1     -10.077   0.153   5.663 -0.27 -0.06    -0.248 N 
DOCKED: ATOM     26  N   UNL d   1      -9.707   0.864   2.923 -0.17 -0.08    -0.248 N 
DOCKED: ATOM     27  N   UNL d   1      -7.062   1.780   3.572 -0.15 -0.03    -0.248 N 
DOCKED: ATOM     28  N   UNL d   1      -7.440   1.059   6.339 -0.22 -0.03    -0.248 N 
DOCKED: ATOM     29 FE   UNL d   1      -8.572   0.962   4.631 -0.08 +0.00    +0.000 Fe
DOCKED: ENDROOT
DOCKED: BRANCH   6  30
DOCKED: ATOM     30  C   UNL d   1     -11.849  -0.786   8.748 -0.51 +0.00    +0.052 C 
DOCKED: BRANCH  30  31
DOCKED: ATOM     31  C   UNL d   1     -12.682   0.362   9.306 -0.36 +0.01    +0.115 C 
DOCKED: BRANCH  31  32
DOCKED: ATOM     32  C   UNL d   1     -14.123  -0.048   9.438 -0.36 +0.02    +0.139 C 
DOCKED: ATOM     33  O   UNL d   1     -14.593  -0.913   8.713 -0.24 -0.08    -0.650 OA
DOCKED: BRANCH  32  34
DOCKED: ATOM     34  O   UNL d   1     -14.910   0.536  10.357 -0.07 -0.06    -0.776 OA
DOCKED: ATOM     35  H   UNL d   1     -14.533   1.217  10.933 -0.47 -0.03    +0.167 HD
DOCKED: ENDBRANCH  32  34
DOCKED: ENDBRANCH  31  32
DOCKED: ENDBRANCH  30  31
DOCKED: ENDBRANCH   6  30
DOCKED: BRANCH  22  36
DOCKED: ATOM     36  C   UNL d   1      -6.538   0.006   9.793 -0.56 +0.00    +0.052 C 
DOCKED: BRANCH  36  37
DOCKED: ATOM     37  C   UNL d   1      -6.828  -1.488   9.779 -0.43 -0.00    +0.115 C 
DOCKED: BRANCH  37  38
DOCKED: ATOM     38  C   UNL d   1      -5.657  -2.259   9.239 -0.54 -0.01    +0.139 C 
DOCKED: ATOM     39  O   UNL d   1      -5.580  -2.526   8.049 -0.01 +0.01    -0.650 OA
DOCKED: BRANCH  38  40
DOCKED: ATOM     40  O   UNL d   1      -4.680  -2.666  10.069 +0.28 +0.09    -0.776 OA
DOCKED: ATOM     41  H   UNL d   1      -4.622  -3.603  10.302 -0.26 -0.06    +0.167 HD
DOCKED: ENDBRANCH  38  40
DOCKED: ENDBRANCH  37  38
DOCKED: ENDBRANCH  36  37
DOCKED: ENDBRANCH  22  36
DOCKED: BRANCH  12  42
DOCKED: ATOM     42  C   UNL d   1     -10.248   0.905  -0.775 -0.40 +0.00    +0.004 C 
DOCKED: ATOM     43  C   UNL d   1     -10.541   2.062  -1.383 -0.31 +0.00    +0.012 C 
DOCKED: ENDBRANCH  12  42
DOCKED: BRANCH  17  44
DOCKED: ATOM     44  C   UNL d   1      -3.878   3.611   3.200 -0.47 -0.00    +0.004 C 
DOCKED: ATOM     45  C   UNL d   1      -2.727   2.962   2.998 -0.50 -0.00    +0.012 C 
DOCKED: ENDBRANCH  17  44
DOCKED: TORSDOF 10
DOCKED: TER
DOCKED: ENDMDL
________________________________________________________________________________


	BEGINNING GENETIC ALGORITHM DOCKING 73 of 100
Run: 73 Seed: 1505908261 470424027 [ Run 73 of 100 GA/GALS ]
Beginning LAMARCKIAN GENETIC ALGORITHM (LGA), with a maximum of 25000000 energy evaluations.

Final-Value: -14.201


	FINAL GENETIC ALGORITHM DOCKED STATE
	_______________________________________________


Detailed state:  trans -12.822 -0.921 1.569 quatxyzw 0.510069 0.435079 0.223930 0.707383 center -0.174 -0.001 -0.047 ntor 10 -175.6544 130.9751 -117.9402 -168.8781 78.4625 107.2228 140.3432 111.6515 -162.2681 -150.5195
State:	-12.822  -0.921   1.569   0.722  0.616  0.317 89.955   -175.65  130.98 -117.94 -168.88   78.46  107.22  140.34  111.65 -162.27 -150.52

DOCKED: MODEL       73
DOCKED: USER    Run = 73
DOCKED: USER    DPF = D:/Protein_go_brrr/autodock/final/AncMH_nat/heme_Fe/dock.dpf
DOCKED: USER  
DOCKED: USER    Estimated Free Energy of Binding    =  -10.84 kcal/mol  [=(1)+(2)+(3)-(4)]
DOCKED: USER    Estimated Inhibition Constant, Ki   =   11.38 nM (nanomolar)  [Temperature = 298.15 K]
DOCKED: USER    
DOCKED: USER    (1) Final Intermolecular Energy     =  -13.82 kcal/mol
DOCKED: USER        vdW + Hbond + desolv Energy     =   -9.93 kcal/mol
DOCKED: USER        Electrostatic Energy            =   -3.89 kcal/mol
DOCKED: USER    (2) Final Total Internal Energy     =   -0.38 kcal/mol
DOCKED: USER    (3) Torsional Free Energy           =   +2.98 kcal/mol
DOCKED: USER    (4) Unbound System's Energy  [=(2)] =   -0.38 kcal/mol
DOCKED: USER    
DOCKED: USER    
DOCKED: USER    NEWDPF move heme_Fe_opt.pdbqt
DOCKED: USER    NEWDPF about -0.174000 -0.001000 -0.047000
DOCKED: USER    NEWDPF tran0 -12.822257 -0.921140 1.569311
DOCKED: USER    NEWDPF quaternion0 0.510069 0.435079 0.223930 0.707383
DOCKED: USER    NEWDPF axisangle0 0.721629 0.615536 0.316809 89.955175
DOCKED: USER    NEWDPF quat0 0.721629 0.615536 0.316809 89.955175
DOCKED: USER    NEWDPF dihe0 -175.65 130.98 -117.94 -168.88 78.46 107.22 140.34 111.65 -162.27 -150.52 
DOCKED: USER  keepresnum = 1 
DOCKED: USER  
DOCKED: REMARK  10 active torsions:
DOCKED: REMARK  status: ('A' for Active; 'I' for Inactive)
DOCKED: REMARK    1  A    between atoms: C_6  and  C_10 
DOCKED: REMARK    2  A    between atoms: C_10  and  C_11 
DOCKED: REMARK    3  A    between atoms: C_11  and  C_12 
DOCKED: REMARK    4  A    between atoms: C_12  and  O_14 
DOCKED: REMARK    5  A    between atoms: C_17  and  C_20 
DOCKED: REMARK    6  A    between atoms: C_24  and  C_27 
DOCKED: REMARK    7  A    between atoms: C_31  and  C_34 
DOCKED: REMARK    8  A    between atoms: C_34  and  C_35 
DOCKED: REMARK    9  A    between atoms: C_35  and  C_36 
DOCKED: REMARK   10  A    between atoms: C_36  and  O_38 
DOCKED: USER                              x       y       z     vdW  Elec       q    Type
DOCKED: USER                           _______ _______ _______ _____ _____    ______ ____
DOCKED: ROOT
DOCKED: ATOM      1  C   UNL d   1     -14.105  -0.708  -0.018 -0.14 +0.09    +0.064 C 
DOCKED: ATOM      2  C   UNL d   1     -14.656  -1.683   4.796 -0.16 +0.03    +0.064 A 
DOCKED: ATOM      3  C   UNL d   1     -10.135  -0.240   5.535 -0.39 +0.02    +0.064 C 
DOCKED: ATOM      4  C   UNL d   1      -9.547   0.611   0.865 -0.42 +0.02    +0.064 C 
DOCKED: ATOM      5  C   UNL d   1     -14.653  -1.195   1.256 -0.20 +0.08    +0.066 A 
DOCKED: ATOM      6  C   UNL d   1     -15.895  -1.789   1.407 -0.15 -0.02    -0.021 A 
DOCKED: ATOM      7  C   UNL d   1     -16.049  -2.056   2.745 -0.12 -0.02    -0.025 A 
DOCKED: ATOM      8  C   UNL d   1     -14.893  -1.614   3.360 -0.17 +0.05    +0.066 A 
DOCKED: ATOM      9  C   UNL d   1     -17.233  -2.715   3.384 -0.07 +0.04    +0.051 C 
DOCKED: ATOM     10  C   UNL d   1     -13.528  -1.317   5.407 -0.26 +0.02    +0.066 A 
DOCKED: ATOM     11  C   UNL d   1     -13.373  -1.287   6.795 -0.37 -0.00    -0.021 A 
DOCKED: ATOM     12  C   UNL d   1     -12.083  -0.858   7.035 -0.37 +0.00    +0.000 A 
DOCKED: ATOM     13  C   UNL d   1     -11.515  -0.639   5.768 -0.32 +0.02    +0.070 A 
DOCKED: ATOM     14  C   UNL d   1     -14.425  -1.586   7.844 -0.36 +0.01    +0.052 C 
DOCKED: ATOM     15  C   UNL d   1      -9.598   0.023   4.321 -0.19 +0.02    +0.066 A 
DOCKED: ATOM     16  C   UNL d   1      -8.251   0.304   4.131 -0.22 -0.01    -0.021 A 
DOCKED: ATOM     17  C   UNL d   1      -8.080   0.553   2.785 -0.36 +0.00    +0.000 A 
DOCKED: ATOM     18  C   UNL d   1      -9.330   0.422   2.185 -0.33 +0.02    +0.070 A 
DOCKED: ATOM     19  C   UNL d   1      -7.170   0.361   5.177 -0.40 +0.01    +0.052 C 
DOCKED: ATOM     20  C   UNL d   1     -10.835   0.422   0.188 -0.29 +0.03    +0.066 A 
DOCKED: ATOM     21  C   UNL d   1     -11.121   0.804  -1.131 -0.28 -0.01    -0.025 A 
DOCKED: ATOM     22  C   UNL d   1     -12.421   0.408  -1.365 -0.22 -0.02    -0.021 A 
DOCKED: ATOM     23  C   UNL d   1     -12.877  -0.192  -0.185 -0.17 +0.07    +0.066 A 
DOCKED: ATOM     24  C   UNL d   1     -10.226   1.510  -2.123 -0.29 +0.01    +0.051 C 
DOCKED: ATOM     25  N   UNL d   1     -14.041  -1.100   2.450 -0.16 -0.24    -0.248 N 
DOCKED: ATOM     26  N   UNL d   1     -12.398  -0.910   4.776 -0.20 -0.09    -0.248 N 
DOCKED: ATOM     27  N   UNL d   1     -10.256   0.053   3.120 -0.14 -0.09    -0.248 N 
DOCKED: ATOM     28  N   UNL d   1     -11.920  -0.140   0.773 -0.17 -0.20    -0.248 N 
DOCKED: ATOM     29 FE   UNL d   1     -12.157  -0.524   2.773 -0.07 +0.00    +0.000 Fe
DOCKED: ENDROOT
DOCKED: BRANCH   6  30
DOCKED: ATOM     30  C   UNL d   1     -16.879  -2.107   0.334 -0.11 +0.06    +0.052 C 
DOCKED: BRANCH  30  31
DOCKED: ATOM     31  C   UNL d   1     -17.545  -0.836  -0.182 -0.07 +0.12    +0.115 C 
DOCKED: BRANCH  31  32
DOCKED: ATOM     32  C   UNL d   1     -17.834   0.106   0.954 -0.08 +0.19    +0.139 C 
DOCKED: ATOM     33  O   UNL d   1     -16.944   0.792   1.437 -0.32 -1.45    -0.650 OA
DOCKED: BRANCH  32  34
DOCKED: ATOM     34  O   UNL d   1     -19.079   0.201   1.451 +0.01 -0.98    -0.776 OA
DOCKED: ATOM     35  H   UNL d   1     -19.767  -0.387   1.111 +0.02 +0.16    +0.167 HD
DOCKED: ENDBRANCH  32  34
DOCKED: ENDBRANCH  31  32
DOCKED: ENDBRANCH  30  31
DOCKED: ENDBRANCH   6  30
DOCKED: BRANCH  22  36
DOCKED: ATOM     36  C   UNL d   1     -13.195   0.638  -2.636 -0.16 +0.03    +0.052 C 
DOCKED: BRANCH  36  37
DOCKED: ATOM     37  C   UNL d   1     -13.163   2.116  -2.997 -0.09 +0.06    +0.115 C 
DOCKED: BRANCH  37  38
DOCKED: ATOM     38  C   UNL d   1     -13.967   2.926  -2.020 -0.03 +0.18    +0.139 C 
DOCKED: ATOM     39  O   UNL d   1     -13.414   3.643  -1.199 -0.02 -0.97    -0.650 OA
DOCKED: BRANCH  38  40
DOCKED: ATOM     40  O   UNL d   1     -15.310   2.865  -2.042 -0.23 -1.28    -0.776 OA
DOCKED: ATOM     41  H   UNL d   1     -15.772   2.972  -2.885 +0.01 +0.15    +0.167 HD
DOCKED: ENDBRANCH  38  40
DOCKED: ENDBRANCH  37  38
DOCKED: ENDBRANCH  36  37
DOCKED: ENDBRANCH  22  36
DOCKED: BRANCH  12  42
DOCKED: ATOM     42  C   UNL d   1     -11.482  -0.667   8.391 -0.53 +0.00    +0.004 C 
DOCKED: ATOM     43  C   UNL d   1     -11.884   0.332   9.188 -0.48 +0.00    +0.012 C 
DOCKED: ENDBRANCH  12  42
DOCKED: BRANCH  17  44
DOCKED: ATOM     44  C   UNL d   1      -6.800   0.875   2.115 -0.37 +0.00    +0.004 C 
DOCKED: ATOM     45  C   UNL d   1      -6.607   2.068   1.544 -0.47 +0.00    +0.012 C 
DOCKED: ENDBRANCH  17  44
DOCKED: TORSDOF 10
DOCKED: TER
DOCKED: ENDMDL
________________________________________________________________________________


	BEGINNING GENETIC ALGORITHM DOCKING 74 of 100
Run: 74 Seed: 1697134972 1115964332 [ Run 74 of 100 GA/GALS ]
Beginning LAMARCKIAN GENETIC ALGORITHM (LGA), with a maximum of 25000000 energy evaluations.

Final-Value: -10.802


	FINAL GENETIC ALGORITHM DOCKED STATE
	_______________________________________________


Detailed state:  trans -16.656 8.828 17.239 quatxyzw 0.915955 0.141147 -0.294479 -0.233208 center -0.174 -0.001 -0.047 ntor 10 -74.7795 -163.0508 0.0222 -171.0194 8.4927 109.9270 -79.1179 137.6625 -175.2141 -172.7772
State:	-16.656   8.828  17.239   0.942  0.145 -0.303 -153.028    -74.78 -163.05    0.02 -171.02    8.49  109.93  -79.12  137.66 -175.21 -172.78

DOCKED: MODEL       74
DOCKED: USER    Run = 74
DOCKED: USER    DPF = D:/Protein_go_brrr/autodock/final/AncMH_nat/heme_Fe/dock.dpf
DOCKED: USER  
DOCKED: USER    Estimated Free Energy of Binding    =   -5.56 kcal/mol  [=(1)+(2)+(3)-(4)]
DOCKED: USER    Estimated Inhibition Constant, Ki   =   84.53 uM (micromolar)  [Temperature = 298.15 K]
DOCKED: USER    
DOCKED: USER    (1) Final Intermolecular Energy     =   -8.54 kcal/mol
DOCKED: USER        vdW + Hbond + desolv Energy     =   -6.36 kcal/mol
DOCKED: USER        Electrostatic Energy            =   -2.18 kcal/mol
DOCKED: USER    (2) Final Total Internal Energy     =   -2.26 kcal/mol
DOCKED: USER    (3) Torsional Free Energy           =   +2.98 kcal/mol
DOCKED: USER    (4) Unbound System's Energy  [=(2)] =   -2.26 kcal/mol
DOCKED: USER    
DOCKED: USER    
DOCKED: USER    NEWDPF move heme_Fe_opt.pdbqt
DOCKED: USER    NEWDPF about -0.174000 -0.001000 -0.047000
DOCKED: USER    NEWDPF tran0 -16.656075 8.828454 17.238642
DOCKED: USER    NEWDPF quaternion0 0.915955 0.141147 -0.294479 -0.233208
DOCKED: USER    NEWDPF axisangle0 0.941927 0.145149 -0.302828 -153.027975
DOCKED: USER    NEWDPF quat0 0.941927 0.145149 -0.302828 -153.027975
DOCKED: USER    NEWDPF dihe0 -74.78 -163.05 0.02 -171.02 8.49 109.93 -79.12 137.66 -175.21 -172.78 
DOCKED: USER  keepresnum = 1 
DOCKED: USER  
DOCKED: REMARK  10 active torsions:
DOCKED: REMARK  status: ('A' for Active; 'I' for Inactive)
DOCKED: REMARK    1  A    between atoms: C_6  and  C_10 
DOCKED: REMARK    2  A    between atoms: C_10  and  C_11 
DOCKED: REMARK    3  A    between atoms: C_11  and  C_12 
DOCKED: REMARK    4  A    between atoms: C_12  and  O_14 
DOCKED: REMARK    5  A    between atoms: C_17  and  C_20 
DOCKED: REMARK    6  A    between atoms: C_24  and  C_27 
DOCKED: REMARK    7  A    between atoms: C_31  and  C_34 
DOCKED: REMARK    8  A    between atoms: C_34  and  C_35 
DOCKED: REMARK    9  A    between atoms: C_35  and  C_36 
DOCKED: REMARK   10  A    between atoms: C_36  and  O_38 
DOCKED: USER                              x       y       z     vdW  Elec       q    Type
DOCKED: USER                           _______ _______ _______ _____ _____    ______ ____
DOCKED: ROOT
DOCKED: ATOM      1  C   UNL d   1     -18.490   8.367  18.036 -0.00 +0.07    +0.064 C 
DOCKED: ATOM      2  C   UNL d   1     -16.841  11.740  14.820 -0.07 +0.02    +0.064 A 
DOCKED: ATOM      3  C   UNL d   1     -12.762   9.241  14.397 -0.39 -0.00    +0.064 C 
DOCKED: ATOM      4  C   UNL d   1     -14.295   6.022  17.586 -0.14 +0.01    +0.064 C 
DOCKED: ATOM      5  C   UNL d   1     -18.371   9.592  17.233 +0.09 +0.07    +0.066 A 
DOCKED: ATOM      6  C   UNL d   1     -19.311  10.609  17.198 -0.05 -0.01    -0.021 A 
DOCKED: ATOM      7  C   UNL d   1     -18.854  11.543  16.302 -0.04 -0.01    -0.025 A 
DOCKED: ATOM      8  C   UNL d   1     -17.651  11.061  15.824 -0.08 +0.04    +0.066 A 
DOCKED: ATOM      9  C   UNL d   1     -19.532  12.831  15.946 -0.01 +0.01    +0.051 C 
DOCKED: ATOM     10  C   UNL d   1     -15.650  11.325  14.385 -0.14 +0.01    +0.066 A 
DOCKED: ATOM     11  C   UNL d   1     -14.952  11.934  13.340 -0.22 +0.00    -0.021 A 
DOCKED: ATOM     12  C   UNL d   1     -13.779  11.222  13.187 -0.35 -0.00    +0.000 A 
DOCKED: ATOM     13  C   UNL d   1     -13.827  10.200  14.151 -0.27 +0.00    +0.070 A 
DOCKED: ATOM     14  C   UNL d   1     -15.410  13.097  12.483 -0.18 -0.01    +0.052 C 
DOCKED: ATOM     15  C   UNL d   1     -12.825   8.223  15.287 -0.27 +0.00    +0.066 A 
DOCKED: ATOM     16  C   UNL d   1     -11.749   7.389  15.564 -0.34 +0.00    -0.021 A 
DOCKED: ATOM     17  C   UNL d   1     -12.190   6.458  16.481 -0.24 -0.00    +0.000 A 
DOCKED: ATOM     18  C   UNL d   1     -13.528   6.743  16.740 -0.17 +0.01    +0.070 A 
DOCKED: ATOM     19  C   UNL d   1     -10.366   7.448  14.972 -0.52 -0.01    +0.052 C 
DOCKED: ATOM     20  C   UNL d   1     -15.689   6.329  17.929 -0.11 +0.03    +0.066 A 
DOCKED: ATOM     21  C   UNL d   1     -16.552   5.485  18.642 -0.07 -0.01    -0.025 A 
DOCKED: ATOM     22  C   UNL d   1     -17.738   6.178  18.770 -0.07 -0.01    -0.021 A 
DOCKED: ATOM     23  C   UNL d   1     -17.554   7.409  18.128 -0.04 +0.07    +0.066 A 
DOCKED: ATOM     24  C   UNL d   1     -16.286   4.096  19.175 -0.03 +0.01    +0.051 C 
DOCKED: ATOM     25  N   UNL d   1     -17.355   9.878  16.400 -0.05 -0.27    -0.248 N 
DOCKED: ATOM     26  N   UNL d   1     -14.972  10.256  14.875 -0.12 -0.06    -0.248 N 
DOCKED: ATOM     27  N   UNL d   1     -13.908   7.854  16.040 -0.14 -0.06    -0.248 N 
DOCKED: ATOM     28  N   UNL d   1     -16.317   7.476  17.578 -0.10 -0.21    -0.248 N 
DOCKED: ATOM     29 FE   UNL d   1     -15.644   8.865  16.227 -0.04 +0.00    +0.000 Fe
DOCKED: ENDROOT
DOCKED: BRANCH   6  30
DOCKED: ATOM     30  C   UNL d   1     -20.570  10.701  17.990 -0.01 +0.02    +0.052 C 
DOCKED: BRANCH  30  31
DOCKED: ATOM     31  C   UNL d   1     -21.705   9.964  17.287 -0.01 +0.05    +0.115 C 
DOCKED: BRANCH  31  32
DOCKED: ATOM     32  C   UNL d   1     -21.925   8.615  17.915 -0.01 +0.06    +0.139 C 
DOCKED: ATOM     33  O   UNL d   1     -21.346   8.306  18.947 +0.01 -0.23    -0.650 OA
DOCKED: BRANCH  32  34
DOCKED: ATOM     34  O   UNL d   1     -22.762   7.734  17.343 +0.01 -0.30    -0.776 OA
DOCKED: ATOM     35  H   UNL d   1     -22.394   6.976  16.868 +0.01 +0.09    +0.167 HD
DOCKED: ENDBRANCH  32  34
DOCKED: ENDBRANCH  31  32
DOCKED: ENDBRANCH  30  31
DOCKED: ENDBRANCH   6  30
DOCKED: BRANCH  22  36
DOCKED: ATOM     36  C   UNL d   1     -18.991   5.665  19.429 -0.03 +0.02    +0.052 C 
DOCKED: BRANCH  36  37
DOCKED: ATOM     37  C   UNL d   1     -19.684   4.670  18.510 -0.03 +0.05    +0.115 C 
DOCKED: BRANCH  37  38
DOCKED: ATOM     38  C   UNL d   1     -19.694   5.164  17.091 -0.02 +0.15    +0.139 C 
DOCKED: ATOM     39  O   UNL d   1     -19.008   4.624  16.236 -0.57 -0.78    -0.650 OA
DOCKED: BRANCH  38  40
DOCKED: ATOM     40  O   UNL d   1     -20.462   6.215  16.752 -0.17 -1.12    -0.776 OA
DOCKED: ATOM     41  H   UNL d   1     -20.807   6.789  17.449 +0.00 +0.15    +0.167 HD
DOCKED: ENDBRANCH  38  40
DOCKED: ENDBRANCH  37  38
DOCKED: ENDBRANCH  36  37
DOCKED: ENDBRANCH  22  36
DOCKED: BRANCH  12  42
DOCKED: ATOM     42  C   UNL d   1     -12.724  11.518  12.169 -0.51 -0.00    +0.004 C 
DOCKED: ATOM     43  C   UNL d   1     -12.269  12.766  11.991 -0.29 -0.00    +0.012 C 
DOCKED: ENDBRANCH  12  42
DOCKED: BRANCH  17  44
DOCKED: ATOM     44  C   UNL d   1     -11.377   5.378  17.086 -0.29 -0.00    +0.004 C 
DOCKED: ATOM     45  C   UNL d   1     -11.683   4.093  16.879 -0.28 -0.00    +0.012 C 
DOCKED: ENDBRANCH  17  44
DOCKED: TORSDOF 10
DOCKED: TER
DOCKED: ENDMDL
________________________________________________________________________________


	BEGINNING GENETIC ALGORITHM DOCKING 75 of 100
Run: 75 Seed: 884229833 1293259902 [ Run 75 of 100 GA/GALS ]
Beginning LAMARCKIAN GENETIC ALGORITHM (LGA), with a maximum of 25000000 energy evaluations.

Final-Value: -14.153


	FINAL GENETIC ALGORITHM DOCKED STATE
	_______________________________________________


Detailed state:  trans -14.561 -1.176 2.807 quatxyzw -0.781804 -0.065726 -0.208066 0.584099 center -0.174 -0.001 -0.047 ntor 10 -158.4884 -100.1616 179.6209 47.1761 -79.2142 -3.8625 -175.2010 75.5262 5.2257 162.9143
State:	-14.561  -1.176   2.807  -0.963 -0.081 -0.256 108.521   -158.49 -100.16  179.62   47.18  -79.21   -3.86 -175.20   75.53    5.23  162.91

DOCKED: MODEL       75
DOCKED: USER    Run = 75
DOCKED: USER    DPF = D:/Protein_go_brrr/autodock/final/AncMH_nat/heme_Fe/dock.dpf
DOCKED: USER  
DOCKED: USER    Estimated Free Energy of Binding    =  -10.56 kcal/mol  [=(1)+(2)+(3)-(4)]
DOCKED: USER    Estimated Inhibition Constant, Ki   =   18.11 nM (nanomolar)  [Temperature = 298.15 K]
DOCKED: USER    
DOCKED: USER    (1) Final Intermolecular Energy     =  -13.54 kcal/mol
DOCKED: USER        vdW + Hbond + desolv Energy     =   -9.89 kcal/mol
DOCKED: USER        Electrostatic Energy            =   -3.66 kcal/mol
DOCKED: USER    (2) Final Total Internal Energy     =   -0.61 kcal/mol
DOCKED: USER    (3) Torsional Free Energy           =   +2.98 kcal/mol
DOCKED: USER    (4) Unbound System's Energy  [=(2)] =   -0.61 kcal/mol
DOCKED: USER    
DOCKED: USER    
DOCKED: USER    NEWDPF move heme_Fe_opt.pdbqt
DOCKED: USER    NEWDPF about -0.174000 -0.001000 -0.047000
DOCKED: USER    NEWDPF tran0 -14.561154 -1.175999 2.807254
DOCKED: USER    NEWDPF quaternion0 -0.781804 -0.065726 -0.208066 0.584099
DOCKED: USER    NEWDPF axisangle0 -0.963189 -0.080975 -0.256339 108.521310
DOCKED: USER    NEWDPF quat0 -0.963189 -0.080975 -0.256339 108.521310
DOCKED: USER    NEWDPF dihe0 -158.49 -100.16 179.62 47.18 -79.21 -3.86 -175.20 75.53 5.23 162.91 
DOCKED: USER  keepresnum = 1 
DOCKED: USER  
DOCKED: REMARK  10 active torsions:
DOCKED: REMARK  status: ('A' for Active; 'I' for Inactive)
DOCKED: REMARK    1  A    between atoms: C_6  and  C_10 
DOCKED: REMARK    2  A    between atoms: C_10  and  C_11 
DOCKED: REMARK    3  A    between atoms: C_11  and  C_12 
DOCKED: REMARK    4  A    between atoms: C_12  and  O_14 
DOCKED: REMARK    5  A    between atoms: C_17  and  C_20 
DOCKED: REMARK    6  A    between atoms: C_24  and  C_27 
DOCKED: REMARK    7  A    between atoms: C_31  and  C_34 
DOCKED: REMARK    8  A    between atoms: C_34  and  C_35 
DOCKED: REMARK    9  A    between atoms: C_35  and  C_36 
DOCKED: REMARK   10  A    between atoms: C_36  and  O_38 
DOCKED: USER                              x       y       z     vdW  Elec       q    Type
DOCKED: USER                           _______ _______ _______ _____ _____    ______ ____
DOCKED: ROOT
DOCKED: ATOM      1  C   UNL d   1     -16.131  -2.314   2.136 -0.13 +0.06    +0.064 C 
DOCKED: ATOM      2  C   UNL d   1     -12.439   0.148  -0.039 -0.22 +0.06    +0.064 A 
DOCKED: ATOM      3  C   UNL d   1     -10.223   0.443   4.213 -0.21 +0.02    +0.064 C 
DOCKED: ATOM      4  C   UNL d   1     -13.836  -1.846   6.357 -0.35 +0.02    +0.064 C 
DOCKED: ATOM      5  C   UNL d   1     -15.337  -1.575   1.145 -0.16 +0.08    +0.066 A 
DOCKED: ATOM      6  C   UNL d   1     -15.719  -1.352  -0.167 -0.16 -0.03    -0.021 A 
DOCKED: ATOM      7  C   UNL d   1     -14.691  -0.672  -0.772 -0.13 -0.03    -0.025 A 
DOCKED: ATOM      8  C   UNL d   1     -13.720  -0.505   0.197 -0.18 +0.09    +0.066 A 
DOCKED: ATOM      9  C   UNL d   1     -14.662  -0.197  -2.192 -0.15 +0.05    +0.051 C 
DOCKED: ATOM     10  C   UNL d   1     -11.509   0.373   0.891 -0.26 +0.05    +0.066 A 
DOCKED: ATOM     11  C   UNL d   1     -10.245   0.897   0.612 -0.33 -0.01    -0.021 A 
DOCKED: ATOM     12  C   UNL d   1      -9.580   0.977   1.820 -0.35 +0.00    +0.000 A 
DOCKED: ATOM     13  C   UNL d   1     -10.479   0.484   2.781 -0.28 +0.03    +0.070 A 
DOCKED: ATOM     14  C   UNL d   1      -9.672   1.242  -0.748 -0.37 +0.01    +0.052 C 
DOCKED: ATOM     15  C   UNL d   1     -11.065  -0.078   5.136 -0.36 +0.02    +0.066 A 
DOCKED: ATOM     16  C   UNL d   1     -10.828  -0.008   6.503 -0.46 -0.00    -0.021 A 
DOCKED: ATOM     17  C   UNL d   1     -11.867  -0.670   7.124 -0.39 +0.00    +0.000 A 
DOCKED: ATOM     18  C   UNL d   1     -12.713  -1.134   6.118 -0.34 +0.02    +0.070 A 
DOCKED: ATOM     19  C   UNL d   1      -9.660   0.634   7.201 -0.45 +0.01    +0.052 C 
DOCKED: ATOM     20  C   UNL d   1     -14.781  -2.297   5.329 -0.19 +0.03    +0.066 A 
DOCKED: ATOM     21  C   UNL d   1     -15.834  -3.199   5.536 -0.15 -0.01    -0.025 A 
DOCKED: ATOM     22  C   UNL d   1     -16.483  -3.308   4.324 -0.10 -0.01    -0.021 A 
DOCKED: ATOM     23  C   UNL d   1     -15.800  -2.478   3.427 -0.11 +0.05    +0.066 A 
DOCKED: ATOM     24  C   UNL d   1     -16.215  -3.929   6.804 -0.26 +0.02    +0.051 C 
DOCKED: ATOM     25  N   UNL d   1     -14.120  -1.047   1.364 -0.17 -0.30    -0.248 N 
DOCKED: ATOM     26  N   UNL d   1     -11.652   0.107   2.215 -0.16 -0.16    -0.248 N 
DOCKED: ATOM     27  N   UNL d   1     -12.244  -0.733   4.898 -0.22 -0.08    -0.248 N 
DOCKED: ATOM     28  N   UNL d   1     -14.736  -1.898   4.034 -0.11 -0.16    -0.248 N 
DOCKED: ATOM     29 FE   UNL d   1     -13.194  -0.896   3.126 -0.06 +0.00    +0.000 Fe
DOCKED: ENDROOT
DOCKED: BRANCH   6  30
DOCKED: ATOM     30  C   UNL d   1     -17.004  -1.746  -0.811 -0.12 +0.05    +0.052 C 
DOCKED: BRANCH  30  31
DOCKED: ATOM     31  C   UNL d   1     -18.007  -0.599  -0.762 -0.04 +0.10    +0.115 C 
DOCKED: BRANCH  31  32
DOCKED: ATOM     32  C   UNL d   1     -17.369   0.633  -0.183 +0.03 +0.22    +0.139 C 
DOCKED: ATOM     33  O   UNL d   1     -17.226   0.753   1.025 -0.40 -1.34    -0.650 OA
DOCKED: BRANCH  32  34
DOCKED: ATOM     34  O   UNL d   1     -16.948   1.619  -0.994 +0.03 -1.47    -0.776 OA
DOCKED: ATOM     35  H   UNL d   1     -17.322   1.688  -1.883 +0.01 +0.18    +0.167 HD
DOCKED: ENDBRANCH  32  34
DOCKED: ENDBRANCH  31  32
DOCKED: ENDBRANCH  30  31
DOCKED: ENDBRANCH   6  30
DOCKED: BRANCH  22  36
DOCKED: ATOM     36  C   UNL d   1     -17.662  -4.199   4.034 -0.10 +0.03    +0.052 C 
DOCKED: BRANCH  36  37
DOCKED: ATOM     37  C   UNL d   1     -17.190  -5.461   3.327 -0.15 +0.07    +0.115 C 
DOCKED: BRANCH  37  38
DOCKED: ATOM     38  C   UNL d   1     -17.538  -5.421   1.865 -0.05 +0.13    +0.139 C 
DOCKED: ATOM     39  O   UNL d   1     -18.187  -4.495   1.402 -0.02 -0.54    -0.650 OA
DOCKED: BRANCH  38  40
DOCKED: ATOM     40  O   UNL d   1     -17.137  -6.415   1.053 -0.35 -1.07    -0.776 OA
DOCKED: ATOM     41  H   UNL d   1     -17.634  -7.245   1.044 +0.03 +0.14    +0.167 HD
DOCKED: ENDBRANCH  38  40
DOCKED: ENDBRANCH  37  38
DOCKED: ENDBRANCH  36  37
DOCKED: ENDBRANCH  22  36
DOCKED: BRANCH  12  42
DOCKED: ATOM     42  C   UNL d   1      -8.181   1.476   1.996 -0.40 +0.00    +0.004 C 
DOCKED: ATOM     43  C   UNL d   1      -7.293   0.793   2.730 -0.40 +0.00    +0.012 C 
DOCKED: ENDBRANCH  12  42
DOCKED: BRANCH  17  44
DOCKED: ATOM     44  C   UNL d   1     -12.050  -0.832   8.584 -0.61 +0.00    +0.004 C 
DOCKED: ATOM     45  C   UNL d   1     -12.911  -0.060   9.256 -0.58 +0.00    +0.012 C 
DOCKED: ENDBRANCH  17  44
DOCKED: TORSDOF 10
DOCKED: TER
DOCKED: ENDMDL
________________________________________________________________________________


	BEGINNING GENETIC ALGORITHM DOCKING 76 of 100
Run: 76 Seed: 1577229660 1915670868 [ Run 76 of 100 GA/GALS ]
Beginning LAMARCKIAN GENETIC ALGORITHM (LGA), with a maximum of 25000000 energy evaluations.

Final-Value: -15.844


	FINAL GENETIC ALGORITHM DOCKED STATE
	_______________________________________________


Detailed state:  trans -12.463 0.194 2.052 quatxyzw -0.774571 0.151035 -0.247378 0.562168 center -0.174 -0.001 -0.047 ntor 10 68.3206 -99.0167 26.7446 9.5298 -174.7647 -152.3403 -72.6305 -115.0419 -154.8321 -34.1292
State:	-12.463   0.194   2.052  -0.937  0.183 -0.299 111.588     68.32  -99.02   26.74    9.53 -174.76 -152.34  -72.63 -115.04 -154.83  -34.13

DOCKED: MODEL       76
DOCKED: USER    Run = 76
DOCKED: USER    DPF = D:/Protein_go_brrr/autodock/final/AncMH_nat/heme_Fe/dock.dpf
DOCKED: USER  
DOCKED: USER    Estimated Free Energy of Binding    =  -11.16 kcal/mol  [=(1)+(2)+(3)-(4)]
DOCKED: USER    Estimated Inhibition Constant, Ki   =    6.59 nM (nanomolar)  [Temperature = 298.15 K]
DOCKED: USER    
DOCKED: USER    (1) Final Intermolecular Energy     =  -14.14 kcal/mol
DOCKED: USER        vdW + Hbond + desolv Energy     =  -10.40 kcal/mol
DOCKED: USER        Electrostatic Energy            =   -3.74 kcal/mol
DOCKED: USER    (2) Final Total Internal Energy     =   -1.70 kcal/mol
DOCKED: USER    (3) Torsional Free Energy           =   +2.98 kcal/mol
DOCKED: USER    (4) Unbound System's Energy  [=(2)] =   -1.70 kcal/mol
DOCKED: USER    
DOCKED: USER    
DOCKED: USER    NEWDPF move heme_Fe_opt.pdbqt
DOCKED: USER    NEWDPF about -0.174000 -0.001000 -0.047000
DOCKED: USER    NEWDPF tran0 -12.462940 0.194484 2.052204
DOCKED: USER    NEWDPF quaternion0 -0.774571 0.151035 -0.247378 0.562168
DOCKED: USER    NEWDPF axisangle0 -0.936577 0.182624 -0.299119 111.588285
DOCKED: USER    NEWDPF quat0 -0.936577 0.182624 -0.299119 111.588285
DOCKED: USER    NEWDPF dihe0 68.32 -99.02 26.74 9.53 -174.76 -152.34 -72.63 -115.04 -154.83 -34.13 
DOCKED: USER  keepresnum = 1 
DOCKED: USER  
DOCKED: REMARK  10 active torsions:
DOCKED: REMARK  status: ('A' for Active; 'I' for Inactive)
DOCKED: REMARK    1  A    between atoms: C_6  and  C_10 
DOCKED: REMARK    2  A    between atoms: C_10  and  C_11 
DOCKED: REMARK    3  A    between atoms: C_11  and  C_12 
DOCKED: REMARK    4  A    between atoms: C_12  and  O_14 
DOCKED: REMARK    5  A    between atoms: C_17  and  C_20 
DOCKED: REMARK    6  A    between atoms: C_24  and  C_27 
DOCKED: REMARK    7  A    between atoms: C_31  and  C_34 
DOCKED: REMARK    8  A    between atoms: C_34  and  C_35 
DOCKED: REMARK    9  A    between atoms: C_35  and  C_36 
DOCKED: REMARK   10  A    between atoms: C_36  and  O_38 
DOCKED: USER                              x       y       z     vdW  Elec       q    Type
DOCKED: USER                           _______ _______ _______ _____ _____    ______ ____
DOCKED: ROOT
DOCKED: ATOM      1  C   UNL d   1     -13.967  -0.377   0.779 -0.22 +0.09    +0.064 C 
DOCKED: ATOM      2  C   UNL d   1      -9.268   1.039   0.199 -0.36 +0.01    +0.064 A 
DOCKED: ATOM      3  C   UNL d   1      -8.553   0.353   4.899 +0.10 +0.02    +0.064 C 
DOCKED: ATOM      4  C   UNL d   1     -13.125  -0.919   5.501 -0.32 +0.02    +0.064 C 
DOCKED: ATOM      5  C   UNL d   1     -12.733   0.165   0.195 -0.21 +0.08    +0.066 A 
DOCKED: ATOM      6  C   UNL d   1     -12.598   0.587  -1.117 -0.21 -0.02    -0.021 A 
DOCKED: ATOM      7  C   UNL d   1     -11.292   0.977  -1.279 -0.27 -0.01    -0.025 A 
DOCKED: ATOM      8  C   UNL d   1     -10.679   0.778  -0.057 -0.29 +0.03    +0.066 A 
DOCKED: ATOM      9  C   UNL d   1     -10.682   1.526  -2.532 -0.31 +0.01    +0.051 C 
DOCKED: ATOM     10  C   UNL d   1      -8.665   0.910   1.382 -0.37 +0.01    +0.066 A 
DOCKED: ATOM     11  C   UNL d   1      -7.289   1.058   1.571 -0.38 -0.00    -0.021 A 
DOCKED: ATOM     12  C   UNL d   1      -7.055   0.848   2.916 -0.36 +0.00    +0.000 A 
DOCKED: ATOM     13  C   UNL d   1      -8.312   0.573   3.482 -0.19 +0.02    +0.070 A 
DOCKED: ATOM     14  C   UNL d   1      -6.238   1.318   0.511 -0.35 +0.00    +0.052 C 
DOCKED: ATOM     15  C   UNL d   1      -9.753   0.037   5.441 -0.30 +0.02    +0.066 A 
DOCKED: ATOM     16  C   UNL d   1      -9.963  -0.066   6.810 -0.38 -0.00    -0.021 A 
DOCKED: ATOM     17  C   UNL d   1     -11.280  -0.437   6.986 -0.41 +0.00    +0.000 A 
DOCKED: ATOM     18  C   UNL d   1     -11.843  -0.555   5.717 -0.36 +0.02    +0.070 A 
DOCKED: ATOM     19  C   UNL d   1      -8.960   0.149   7.912 -0.40 +0.01    +0.052 C 
DOCKED: ATOM     20  C   UNL d   1     -13.769  -0.994   4.184 -0.19 +0.04    +0.066 A 
DOCKED: ATOM     21  C   UNL d   1     -15.026  -1.558   3.928 -0.17 -0.02    -0.025 A 
DOCKED: ATOM     22  C   UNL d   1     -15.252  -1.382   2.578 -0.18 -0.02    -0.021 A 
DOCKED: ATOM     23  C   UNL d   1     -14.126  -0.726   2.066 -0.23 +0.07    +0.066 A 
DOCKED: ATOM     24  C   UNL d   1     -15.972  -2.234   4.894 -0.14 +0.03    +0.051 C 
DOCKED: ATOM     25  N   UNL d   1     -11.560   0.293   0.840 -0.16 -0.18    -0.248 N 
DOCKED: ATOM     26  N   UNL d   1      -9.292   0.602   2.546 -0.21 -0.07    -0.248 N 
DOCKED: ATOM     27  N   UNL d   1     -10.917  -0.221   4.769 -0.20 -0.07    -0.248 N 
DOCKED: ATOM     28  N   UNL d   1     -13.206  -0.532   3.041 -0.17 -0.19    -0.248 N 
DOCKED: ATOM     29 FE   UNL d   1     -11.250   0.034   2.795 -0.07 +0.00    +0.000 Fe
DOCKED: ENDROOT
DOCKED: BRANCH   6  30
DOCKED: ATOM     30  C   UNL d   1     -13.660   0.639  -2.162 -0.16 +0.05    +0.052 C 
DOCKED: BRANCH  30  31
DOCKED: ATOM     31  C   UNL d   1     -14.141  -0.765  -2.513 -0.06 +0.10    +0.115 C 
DOCKED: BRANCH  31  32
DOCKED: ATOM     32  C   UNL d   1     -15.516  -1.005  -1.955 -0.12 +0.14    +0.139 C 
DOCKED: ATOM     33  O   UNL d   1     -16.043  -2.105  -2.046 -0.02 -0.74    -0.650 OA
DOCKED: BRANCH  32  34
DOCKED: ATOM     34  O   UNL d   1     -16.181  -0.008  -1.347 -0.04 -0.97    -0.776 OA
DOCKED: ATOM     35  H   UNL d   1     -16.339  -0.060  -0.394 +0.02 +0.26    +0.167 HD
DOCKED: ENDBRANCH  32  34
DOCKED: ENDBRANCH  31  32
DOCKED: ENDBRANCH  30  31
DOCKED: ENDBRANCH   6  30
DOCKED: BRANCH  22  36
DOCKED: ATOM     36  C   UNL d   1     -16.460  -1.861   1.818 -0.13 +0.05    +0.052 C 
DOCKED: BRANCH  36  37
DOCKED: ATOM     37  C   UNL d   1     -17.708  -1.170   2.349 -0.07 +0.11    +0.115 C 
DOCKED: BRANCH  37  38
DOCKED: ATOM     38  C   UNL d   1     -17.649   0.311   2.103 -0.15 +0.21    +0.139 C 
DOCKED: ATOM     39  O   UNL d   1     -18.239   1.090   2.838 -0.29 -1.34    -0.650 OA
DOCKED: BRANCH  38  40
DOCKED: ATOM     40  O   UNL d   1     -16.945   0.792   1.063 -0.32 -1.83    -0.776 OA
DOCKED: ATOM     41  H   UNL d   1     -17.342   0.779   0.181 +0.02 +0.31    +0.167 HD
DOCKED: ENDBRANCH  38  40
DOCKED: ENDBRANCH  37  38
DOCKED: ENDBRANCH  36  37
DOCKED: ENDBRANCH  22  36
DOCKED: BRANCH  12  42
DOCKED: ATOM     42  C   UNL d   1      -5.710   0.898   3.568 -0.33 +0.00    +0.004 C 
DOCKED: ATOM     43  C   UNL d   1      -5.095   2.066   3.792 -0.33 +0.00    +0.012 C 
DOCKED: ENDBRANCH  12  42
DOCKED: BRANCH  17  44
DOCKED: ATOM     44  C   UNL d   1     -11.961  -0.644   8.284 -0.61 +0.00    +0.004 C 
DOCKED: ATOM     45  C   UNL d   1     -12.116   0.367   9.145 -0.51 +0.00    +0.012 C 
DOCKED: ENDBRANCH  17  44
DOCKED: TORSDOF 10
DOCKED: TER
DOCKED: ENDMDL
________________________________________________________________________________


	BEGINNING GENETIC ALGORITHM DOCKING 77 of 100
Run: 77 Seed: 2124220036 342155093 [ Run 77 of 100 GA/GALS ]
Beginning LAMARCKIAN GENETIC ALGORITHM (LGA), with a maximum of 25000000 energy evaluations.

Final-Value: -15.271


	FINAL GENETIC ALGORITHM DOCKED STATE
	_______________________________________________


Detailed state:  trans -14.362 -1.404 3.470 quatxyzw -0.622546 -0.188747 0.082477 -0.754989 center -0.174 -0.001 -0.047 ntor 10 62.9585 -53.6375 59.8169 -165.0136 -72.1467 127.8958 -110.9800 105.1215 161.0492 -166.3405
State:	-14.362  -1.404   3.470  -0.949 -0.288  0.126 -81.951     62.96  -53.64   59.82 -165.01  -72.15  127.90 -110.98  105.12  161.05 -166.34

DOCKED: MODEL       77
DOCKED: USER    Run = 77
DOCKED: USER    DPF = D:/Protein_go_brrr/autodock/final/AncMH_nat/heme_Fe/dock.dpf
DOCKED: USER  
DOCKED: USER    Estimated Free Energy of Binding    =  -10.19 kcal/mol  [=(1)+(2)+(3)-(4)]
DOCKED: USER    Estimated Inhibition Constant, Ki   =   33.83 nM (nanomolar)  [Temperature = 298.15 K]
DOCKED: USER    
DOCKED: USER    (1) Final Intermolecular Energy     =  -13.17 kcal/mol
DOCKED: USER        vdW + Hbond + desolv Energy     =   -9.86 kcal/mol
DOCKED: USER        Electrostatic Energy            =   -3.32 kcal/mol
DOCKED: USER    (2) Final Total Internal Energy     =   -2.10 kcal/mol
DOCKED: USER    (3) Torsional Free Energy           =   +2.98 kcal/mol
DOCKED: USER    (4) Unbound System's Energy  [=(2)] =   -2.10 kcal/mol
DOCKED: USER    
DOCKED: USER    
DOCKED: USER    NEWDPF move heme_Fe_opt.pdbqt
DOCKED: USER    NEWDPF about -0.174000 -0.001000 -0.047000
DOCKED: USER    NEWDPF tran0 -14.361710 -1.404259 3.469821
DOCKED: USER    NEWDPF quaternion0 -0.622546 -0.188747 0.082477 -0.754989
DOCKED: USER    NEWDPF axisangle0 -0.949383 -0.287840 0.125777 -81.951185
DOCKED: USER    NEWDPF quat0 -0.949383 -0.287840 0.125777 -81.951185
DOCKED: USER    NEWDPF dihe0 62.96 -53.64 59.82 -165.01 -72.15 127.90 -110.98 105.12 161.05 -166.34 
DOCKED: USER  keepresnum = 1 
DOCKED: USER  
DOCKED: REMARK  10 active torsions:
DOCKED: REMARK  status: ('A' for Active; 'I' for Inactive)
DOCKED: REMARK    1  A    between atoms: C_6  and  C_10 
DOCKED: REMARK    2  A    between atoms: C_10  and  C_11 
DOCKED: REMARK    3  A    between atoms: C_11  and  C_12 
DOCKED: REMARK    4  A    between atoms: C_12  and  O_14 
DOCKED: REMARK    5  A    between atoms: C_17  and  C_20 
DOCKED: REMARK    6  A    between atoms: C_24  and  C_27 
DOCKED: REMARK    7  A    between atoms: C_31  and  C_34 
DOCKED: REMARK    8  A    between atoms: C_34  and  C_35 
DOCKED: REMARK    9  A    between atoms: C_35  and  C_36 
DOCKED: REMARK   10  A    between atoms: C_36  and  O_38 
DOCKED: USER                              x       y       z     vdW  Elec       q    Type
DOCKED: USER                           _______ _______ _______ _____ _____    ______ ____
DOCKED: ROOT
DOCKED: ATOM      1  C   UNL d   1     -16.387  -1.645   3.248 -0.12 +0.05    +0.064 C 
DOCKED: ATOM      2  C   UNL d   1     -13.337  -1.211   7.113 -0.36 +0.01    +0.064 A 
DOCKED: ATOM      3  C   UNL d   1      -9.909   0.365   4.142 -0.24 +0.02    +0.064 C 
DOCKED: ATOM      4  C   UNL d   1     -12.810  -0.148   0.373 -0.26 +0.07    +0.064 C 
DOCKED: ATOM      5  C   UNL d   1     -15.821  -1.749   4.599 -0.11 +0.04    +0.066 A 
DOCKED: ATOM      6  C   UNL d   1     -16.485  -2.270   5.698 -0.12 -0.01    -0.021 A 
DOCKED: ATOM      7  C   UNL d   1     -15.638  -2.146   6.771 -0.20 -0.01    -0.025 A 
DOCKED: ATOM      8  C   UNL d   1     -14.489  -1.553   6.287 -0.16 +0.02    +0.066 A 
DOCKED: ATOM      9  C   UNL d   1     -15.919  -2.592   8.173 -0.29 +0.01    +0.051 C 
DOCKED: ATOM     10  C   UNL d   1     -12.195  -0.691   6.661 -0.37 +0.01    +0.066 A 
DOCKED: ATOM     11  C   UNL d   1     -11.154  -0.269   7.491 -0.43 -0.00    -0.021 A 
DOCKED: ATOM     12  C   UNL d   1     -10.159   0.206   6.659 -0.45 +0.00    +0.000 A 
DOCKED: ATOM     13  C   UNL d   1     -10.654   0.054   5.352 -0.37 +0.02    +0.070 A 
DOCKED: ATOM     14  C   UNL d   1     -11.135  -0.254   9.006 -0.43 +0.01    +0.052 C 
DOCKED: ATOM     15  C   UNL d   1     -10.398   0.270   2.883 -0.23 +0.02    +0.066 A 
DOCKED: ATOM     16  C   UNL d   1      -9.624   0.481   1.750 -0.36 -0.01    -0.021 A 
DOCKED: ATOM     17  C   UNL d   1     -10.460   0.337   0.662 -0.36 +0.00    +0.000 A 
DOCKED: ATOM     18  C   UNL d   1     -11.728   0.045   1.158 -0.26 +0.05    +0.070 A 
DOCKED: ATOM     19  C   UNL d   1      -8.161   0.829   1.689 -0.43 +0.01    +0.052 C 
DOCKED: ATOM     20  C   UNL d   1     -14.146  -0.516   0.857 -0.20 +0.09    +0.066 A 
DOCKED: ATOM     21  C   UNL d   1     -15.315  -0.523   0.082 -0.14 -0.04    -0.025 A 
DOCKED: ATOM     22  C   UNL d   1     -16.319  -0.965   0.918 -0.14 -0.03    -0.021 A 
DOCKED: ATOM     23  C   UNL d   1     -15.729  -1.204   2.165 -0.15 +0.07    +0.066 A 
DOCKED: ATOM     24  C   UNL d   1     -15.488  -0.132  -1.367 -0.14 +0.06    +0.051 C 
DOCKED: ATOM     25  N   UNL d   1     -14.599  -1.321   4.963 -0.08 -0.12    -0.248 N 
DOCKED: ATOM     26  N   UNL d   1     -11.898  -0.484   5.353 -0.27 -0.07    -0.248 N 
DOCKED: ATOM     27  N   UNL d   1     -11.682  -0.039   2.522 -0.16 -0.15    -0.248 N 
DOCKED: ATOM     28  N   UNL d   1     -14.412  -0.885   2.133 -0.15 -0.27    -0.248 N 
DOCKED: ATOM     29 FE   UNL d   1     -13.155  -0.684   3.741 -0.06 +0.00    +0.000 Fe
DOCKED: ENDROOT
DOCKED: BRANCH   6  30
DOCKED: ATOM     30  C   UNL d   1     -17.846  -2.876   5.724 -0.10 +0.02    +0.052 C 
DOCKED: BRANCH  30  31
DOCKED: ATOM     31  C   UNL d   1     -18.827  -1.969   6.458 -0.07 +0.05    +0.115 C 
DOCKED: BRANCH  31  32
DOCKED: ATOM     32  C   UNL d   1     -19.087  -0.721   5.660 -0.11 +0.11    +0.139 C 
DOCKED: ATOM     33  O   UNL d   1     -18.230   0.146   5.563 -0.02 -0.65    -0.650 OA
DOCKED: BRANCH  32  34
DOCKED: ATOM     34  O   UNL d   1     -20.269  -0.547   5.046 -0.02 -0.83    -0.776 OA
DOCKED: ATOM     35  H   UNL d   1     -20.292  -0.484   4.080 +0.01 +0.21    +0.167 HD
DOCKED: ENDBRANCH  32  34
DOCKED: ENDBRANCH  31  32
DOCKED: ENDBRANCH  30  31
DOCKED: ENDBRANCH   6  30
DOCKED: BRANCH  22  36
DOCKED: ATOM     36  C   UNL d   1     -17.773  -1.103   0.549 -0.07 +0.05    +0.052 C 
DOCKED: BRANCH  36  37
DOCKED: ATOM     37  C   UNL d   1     -18.386   0.276   0.354 -0.07 +0.14    +0.115 C 
DOCKED: BRANCH  37  38
DOCKED: ATOM     38  C   UNL d   1     -18.635   0.947   1.676 -0.11 +0.24    +0.139 C 
DOCKED: ATOM     39  O   UNL d   1     -18.216   2.074   1.893 -0.63 -1.50    -0.650 OA
DOCKED: BRANCH  38  40
DOCKED: ATOM     40  O   UNL d   1     -19.322   0.304   2.636 -0.03 -1.32    -0.776 OA
DOCKED: ATOM     41  H   UNL d   1     -18.928   0.212   3.515 +0.02 +0.28    +0.167 HD
DOCKED: ENDBRANCH  38  40
DOCKED: ENDBRANCH  37  38
DOCKED: ENDBRANCH  36  37
DOCKED: ENDBRANCH  22  36
DOCKED: BRANCH  12  42
DOCKED: ATOM     42  C   UNL d   1      -8.855   0.772   7.121 -0.47 +0.00    +0.004 C 
DOCKED: ATOM     43  C   UNL d   1      -7.713   0.089   6.966 -0.47 +0.00    +0.012 C 
DOCKED: ENDBRANCH  12  42
DOCKED: BRANCH  17  44
DOCKED: ATOM     44  C   UNL d   1     -10.066   0.450  -0.761 -0.36 +0.00    +0.004 C 
DOCKED: ATOM     45  C   UNL d   1     -10.489   1.475  -1.509 -0.34 +0.00    +0.012 C 
DOCKED: ENDBRANCH  17  44
DOCKED: TORSDOF 10
DOCKED: TER
DOCKED: ENDMDL
________________________________________________________________________________


	BEGINNING GENETIC ALGORITHM DOCKING 78 of 100
Run: 78 Seed: 2085062344 2119805861 [ Run 78 of 100 GA/GALS ]
Beginning LAMARCKIAN GENETIC ALGORITHM (LGA), with a maximum of 25000000 energy evaluations.

Final-Value: -15.256


	FINAL GENETIC ALGORITHM DOCKED STATE
	_______________________________________________


Detailed state:  trans -14.774 -0.854 3.590 quatxyzw -0.764316 -0.063904 -0.126259 0.629123 center -0.174 -0.001 -0.047 ntor 10 -173.8170 -43.5242 17.1973 67.5661 61.5243 83.1598 -158.2750 -128.3763 -20.5739 -3.3427
State:	-14.774  -0.854   3.590  -0.983 -0.082 -0.162 102.029   -173.82  -43.52   17.20   67.57   61.52   83.16 -158.27 -128.38  -20.57   -3.34

DOCKED: MODEL       78
DOCKED: USER    Run = 78
DOCKED: USER    DPF = D:/Protein_go_brrr/autodock/final/AncMH_nat/heme_Fe/dock.dpf
DOCKED: USER  
DOCKED: USER    Estimated Free Energy of Binding    =  -10.18 kcal/mol  [=(1)+(2)+(3)-(4)]
DOCKED: USER    Estimated Inhibition Constant, Ki   =   34.46 nM (nanomolar)  [Temperature = 298.15 K]
DOCKED: USER    
DOCKED: USER    (1) Final Intermolecular Energy     =  -13.16 kcal/mol
DOCKED: USER        vdW + Hbond + desolv Energy     =   -9.64 kcal/mol
DOCKED: USER        Electrostatic Energy            =   -3.52 kcal/mol
DOCKED: USER    (2) Final Total Internal Energy     =   -2.09 kcal/mol
DOCKED: USER    (3) Torsional Free Energy           =   +2.98 kcal/mol
DOCKED: USER    (4) Unbound System's Energy  [=(2)] =   -2.09 kcal/mol
DOCKED: USER    
DOCKED: USER    
DOCKED: USER    NEWDPF move heme_Fe_opt.pdbqt
DOCKED: USER    NEWDPF about -0.174000 -0.001000 -0.047000
DOCKED: USER    NEWDPF tran0 -14.773540 -0.853942 3.590262
DOCKED: USER    NEWDPF quaternion0 -0.764316 -0.063904 -0.126259 0.629123
DOCKED: USER    NEWDPF axisangle0 -0.983289 -0.082212 -0.162431 102.029064
DOCKED: USER    NEWDPF quat0 -0.983289 -0.082212 -0.162431 102.029064
DOCKED: USER    NEWDPF dihe0 -173.82 -43.52 17.20 67.57 61.52 83.16 -158.27 -128.38 -20.57 -3.34 
DOCKED: USER  keepresnum = 1 
DOCKED: USER  
DOCKED: REMARK  10 active torsions:
DOCKED: REMARK  status: ('A' for Active; 'I' for Inactive)
DOCKED: REMARK    1  A    between atoms: C_6  and  C_10 
DOCKED: REMARK    2  A    between atoms: C_10  and  C_11 
DOCKED: REMARK    3  A    between atoms: C_11  and  C_12 
DOCKED: REMARK    4  A    between atoms: C_12  and  O_14 
DOCKED: REMARK    5  A    between atoms: C_17  and  C_20 
DOCKED: REMARK    6  A    between atoms: C_24  and  C_27 
DOCKED: REMARK    7  A    between atoms: C_31  and  C_34 
DOCKED: REMARK    8  A    between atoms: C_34  and  C_35 
DOCKED: REMARK    9  A    between atoms: C_35  and  C_36 
DOCKED: REMARK   10  A    between atoms: C_36  and  O_38 
DOCKED: USER                              x       y       z     vdW  Elec       q    Type
DOCKED: USER                           _______ _______ _______ _____ _____    ______ ____
DOCKED: ROOT
DOCKED: ATOM      1  C   UNL d   1     -16.526  -1.853   3.216 -0.11 +0.05    +0.064 C 
DOCKED: ATOM      2  C   UNL d   1     -12.870  -0.067   0.410 -0.22 +0.07    +0.064 A 
DOCKED: ATOM      3  C   UNL d   1     -10.150   0.358   4.345 -0.29 +0.02    +0.064 C 
DOCKED: ATOM      4  C   UNL d   1     -13.712  -1.270   7.094 -0.37 +0.01    +0.064 C 
DOCKED: ATOM      5  C   UNL d   1     -15.778  -1.312   2.072 -0.15 +0.07    +0.066 A 
DOCKED: ATOM      6  C   UNL d   1     -16.286  -1.169   0.792 -0.14 -0.03    -0.021 A 
DOCKED: ATOM      7  C   UNL d   1     -15.269  -0.676   0.012 -0.16 -0.04    -0.025 A 
DOCKED: ATOM      8  C   UNL d   1     -14.178  -0.537   0.848 -0.20 +0.09    +0.066 A 
DOCKED: ATOM      9  C   UNL d   1     -15.356  -0.343  -1.446 -0.15 +0.06    +0.051 C 
DOCKED: ATOM     10  C   UNL d   1     -11.818   0.130   1.206 -0.26 +0.05    +0.066 A 
DOCKED: ATOM     11  C   UNL d   1     -10.546   0.471   0.740 -0.33 -0.01    -0.021 A 
DOCKED: ATOM     12  C   UNL d   1      -9.739   0.583   1.855 -0.36 +0.00    +0.000 A 
DOCKED: ATOM     13  C   UNL d   1     -10.567   0.294   2.953 -0.23 +0.03    +0.070 A 
DOCKED: ATOM     14  C   UNL d   1     -10.104   0.615  -0.702 -0.36 +0.02    +0.052 C 
DOCKED: ATOM     15  C   UNL d   1     -10.929   0.030   5.404 -0.39 +0.02    +0.066 A 
DOCKED: ATOM     16  C   UNL d   1     -10.526   0.200   6.723 -0.46 -0.00    -0.021 A 
DOCKED: ATOM     17  C   UNL d   1     -11.551  -0.272   7.517 -0.50 +0.00    +0.000 A 
DOCKED: ATOM     18  C   UNL d   1     -12.554  -0.723   6.662 -0.36 +0.01    +0.070 A 
DOCKED: ATOM     19  C   UNL d   1      -9.221   0.759   7.219 -0.44 +0.01    +0.052 C 
DOCKED: ATOM     20  C   UNL d   1     -14.815  -1.699   6.226 -0.17 +0.02    +0.066 A 
DOCKED: ATOM     21  C   UNL d   1     -15.928  -2.445   6.640 -0.18 -0.01    -0.025 A 
DOCKED: ATOM     22  C   UNL d   1     -16.723  -2.588   5.522 -0.10 -0.01    -0.021 A 
DOCKED: ATOM     23  C   UNL d   1     -16.065  -1.934   4.474 -0.10 +0.04    +0.066 A 
DOCKED: ATOM     24  C   UNL d   1     -16.234  -3.001   8.011 -0.28 +0.01    +0.051 C 
DOCKED: ATOM     25  N   UNL d   1     -14.494  -0.915   2.103 -0.15 -0.28    -0.248 N 
DOCKED: ATOM     26  N   UNL d   1     -11.832   0.009   2.558 -0.16 -0.15    -0.248 N 
DOCKED: ATOM     27  N   UNL d   1     -12.191  -0.498   5.364 -0.26 -0.07    -0.248 N 
DOCKED: ATOM     28  N   UNL d   1     -14.880  -1.432   4.899 -0.07 -0.13    -0.248 N 
DOCKED: ATOM     29 FE   UNL d   1     -13.356  -0.711   3.731 -0.06 +0.00    +0.000 Fe
DOCKED: ENDROOT
DOCKED: BRANCH   6  30
DOCKED: ATOM     30  C   UNL d   1     -17.673  -1.464   0.333 -0.08 +0.05    +0.052 C 
DOCKED: BRANCH  30  31
DOCKED: ATOM     31  C   UNL d   1     -18.663  -0.470   0.931 -0.04 +0.12    +0.115 C 
DOCKED: BRANCH  31  32
DOCKED: ATOM     32  C   UNL d   1     -17.956   0.789   1.350 -0.12 +0.23    +0.139 C 
DOCKED: ATOM     33  O   UNL d   1     -17.370   1.478   0.527 -0.02 -1.54    -0.650 OA
DOCKED: BRANCH  32  34
DOCKED: ATOM     34  O   UNL d   1     -17.962   1.169   2.639 -0.31 -1.54    -0.776 OA
DOCKED: ATOM     35  H   UNL d   1     -18.347   0.578   3.301 +0.02 +0.29    +0.167 HD
DOCKED: ENDBRANCH  32  34
DOCKED: ENDBRANCH  31  32
DOCKED: ENDBRANCH  30  31
DOCKED: ENDBRANCH   6  30
DOCKED: BRANCH  22  36
DOCKED: ATOM     36  C   UNL d   1     -18.018  -3.354   5.455 -0.10 +0.02    +0.052 C 
DOCKED: BRANCH  36  37
DOCKED: ATOM     37  C   UNL d   1     -19.186  -2.410   5.698 -0.05 +0.06    +0.115 C 
DOCKED: BRANCH  37  38
DOCKED: ATOM     38  C   UNL d   1     -19.096  -1.202   4.810 -0.08 +0.11    +0.139 C 
DOCKED: ATOM     39  O   UNL d   1     -19.505  -1.241   3.659 +0.02 -0.58    -0.650 OA
DOCKED: BRANCH  38  40
DOCKED: ATOM     40  O   UNL d   1     -18.557  -0.063   5.278 +0.02 -0.82    -0.776 OA
DOCKED: ATOM     41  H   UNL d   1     -17.940   0.430   4.719 +0.03 +0.21    +0.167 HD
DOCKED: ENDBRANCH  38  40
DOCKED: ENDBRANCH  37  38
DOCKED: ENDBRANCH  36  37
DOCKED: ENDBRANCH  22  36
DOCKED: BRANCH  12  42
DOCKED: ATOM     42  C   UNL d   1      -8.283   0.925   1.826 -0.45 +0.00    +0.004 C 
DOCKED: ATOM     43  C   UNL d   1      -7.865   2.123   1.400 -0.43 +0.00    +0.012 C 
DOCKED: ENDBRANCH  12  42
DOCKED: BRANCH  17  44
DOCKED: ATOM     44  C   UNL d   1     -11.576  -0.273   8.997 -0.56 +0.00    +0.004 C 
DOCKED: ATOM     45  C   UNL d   1     -12.544   0.363   9.665 -0.50 +0.00    +0.012 C 
DOCKED: ENDBRANCH  17  44
DOCKED: TORSDOF 10
DOCKED: TER
DOCKED: ENDMDL
________________________________________________________________________________


	BEGINNING GENETIC ALGORITHM DOCKING 79 of 100
Run: 79 Seed: 132727734 1006347892 [ Run 79 of 100 GA/GALS ]
Beginning LAMARCKIAN GENETIC ALGORITHM (LGA), with a maximum of 25000000 energy evaluations.

Final-Value: -14.479


	FINAL GENETIC ALGORITHM DOCKED STATE
	_______________________________________________


Detailed state:  trans -14.668 -1.477 3.229 quatxyzw 0.616388 0.223324 -0.064684 0.752335 center -0.174 -0.001 -0.047 ntor 10 129.7797 -141.5231 76.3156 -156.2214 -16.7289 78.5078 98.2415 126.9702 -131.0018 -171.5801
State:	-14.668  -1.477   3.229   0.936  0.339 -0.098 82.414    129.78 -141.52   76.32 -156.22  -16.73   78.51   98.24  126.97 -131.00 -171.58

DOCKED: MODEL       79
DOCKED: USER    Run = 79
DOCKED: USER    DPF = D:/Protein_go_brrr/autodock/final/AncMH_nat/heme_Fe/dock.dpf
DOCKED: USER  
DOCKED: USER    Estimated Free Energy of Binding    =   -9.94 kcal/mol  [=(1)+(2)+(3)-(4)]
DOCKED: USER    Estimated Inhibition Constant, Ki   =   51.32 nM (nanomolar)  [Temperature = 298.15 K]
DOCKED: USER    
DOCKED: USER    (1) Final Intermolecular Energy     =  -12.93 kcal/mol
DOCKED: USER        vdW + Hbond + desolv Energy     =   -9.18 kcal/mol
DOCKED: USER        Electrostatic Energy            =   -3.75 kcal/mol
DOCKED: USER    (2) Final Total Internal Energy     =   -1.55 kcal/mol
DOCKED: USER    (3) Torsional Free Energy           =   +2.98 kcal/mol
DOCKED: USER    (4) Unbound System's Energy  [=(2)] =   -1.55 kcal/mol
DOCKED: USER    
DOCKED: USER    
DOCKED: USER    NEWDPF move heme_Fe_opt.pdbqt
DOCKED: USER    NEWDPF about -0.174000 -0.001000 -0.047000
DOCKED: USER    NEWDPF tran0 -14.667706 -1.476517 3.229075
DOCKED: USER    NEWDPF quaternion0 0.616388 0.223324 -0.064684 0.752335
DOCKED: USER    NEWDPF axisangle0 0.935650 0.338995 -0.098187 82.413889
DOCKED: USER    NEWDPF quat0 0.935650 0.338995 -0.098187 82.413889
DOCKED: USER    NEWDPF dihe0 129.78 -141.52 76.32 -156.22 -16.73 78.51 98.24 126.97 -131.00 -171.58 
DOCKED: USER  keepresnum = 1 
DOCKED: USER  
DOCKED: REMARK  10 active torsions:
DOCKED: REMARK  status: ('A' for Active; 'I' for Inactive)
DOCKED: REMARK    1  A    between atoms: C_6  and  C_10 
DOCKED: REMARK    2  A    between atoms: C_10  and  C_11 
DOCKED: REMARK    3  A    between atoms: C_11  and  C_12 
DOCKED: REMARK    4  A    between atoms: C_12  and  O_14 
DOCKED: REMARK    5  A    between atoms: C_17  and  C_20 
DOCKED: REMARK    6  A    between atoms: C_24  and  C_27 
DOCKED: REMARK    7  A    between atoms: C_31  and  C_34 
DOCKED: REMARK    8  A    between atoms: C_34  and  C_35 
DOCKED: REMARK    9  A    between atoms: C_35  and  C_36 
DOCKED: REMARK   10  A    between atoms: C_36  and  O_38 
DOCKED: USER                              x       y       z     vdW  Elec       q    Type
DOCKED: USER                           _______ _______ _______ _____ _____    ______ ____
DOCKED: ROOT
DOCKED: ATOM      1  C   UNL d   1     -16.666  -1.750   2.852 -0.11 +0.06    +0.064 C 
DOCKED: ATOM      2  C   UNL d   1     -13.920  -1.334   6.941 -0.30 +0.01    +0.064 A 
DOCKED: ATOM      3  C   UNL d   1     -10.312   0.361   4.262 -0.32 +0.02    +0.064 C 
DOCKED: ATOM      4  C   UNL d   1     -12.916  -0.133   0.279 -0.25 +0.07    +0.064 C 
DOCKED: ATOM      5  C   UNL d   1     -16.199  -1.869   4.241 -0.09 +0.04    +0.066 A 
DOCKED: ATOM      6  C   UNL d   1     -16.932  -2.424   5.277 -0.09 -0.01    -0.021 A 
DOCKED: ATOM      7  C   UNL d   1     -16.171  -2.304   6.413 -0.15 -0.01    -0.025 A 
DOCKED: ATOM      8  C   UNL d   1     -15.000  -1.681   6.026 -0.12 +0.02    +0.066 A 
DOCKED: ATOM      9  C   UNL d   1     -16.546  -2.782   7.782 -0.23 +0.01    +0.051 C 
DOCKED: ATOM     10  C   UNL d   1     -12.758  -0.785   6.585 -0.35 +0.01    +0.066 A 
DOCKED: ATOM     11  C   UNL d   1     -11.790  -0.360   7.497 -0.49 -0.00    -0.021 A 
DOCKED: ATOM     12  C   UNL d   1     -10.746   0.149   6.750 -0.48 +0.00    +0.000 A 
DOCKED: ATOM     13  C   UNL d   1     -11.139   0.013   5.408 -0.39 +0.02    +0.070 A 
DOCKED: ATOM     14  C   UNL d   1     -11.883  -0.373   9.010 -0.55 +0.01    +0.052 C 
DOCKED: ATOM     15  C   UNL d   1     -10.705   0.281   2.969 -0.23 +0.03    +0.066 A 
DOCKED: ATOM     16  C   UNL d   1      -9.853   0.527   1.900 -0.34 -0.01    -0.021 A 
DOCKED: ATOM     17  C   UNL d   1     -10.603   0.389   0.751 -0.34 +0.00    +0.000 A 
DOCKED: ATOM     18  C   UNL d   1     -11.899   0.064   1.146 -0.25 +0.06    +0.070 A 
DOCKED: ATOM     19  C   UNL d   1      -8.397   0.903   1.955 -0.41 +0.01    +0.052 C 
DOCKED: ATOM     20  C   UNL d   1     -14.277  -0.535   0.656 -0.19 +0.10    +0.066 A 
DOCKED: ATOM     21  C   UNL d   1     -15.384  -0.548  -0.204 -0.15 -0.04    -0.025 A 
DOCKED: ATOM     22  C   UNL d   1     -16.439  -1.025   0.546 -0.13 -0.03    -0.021 A 
DOCKED: ATOM     23  C   UNL d   1     -15.938  -1.276   1.829 -0.14 +0.08    +0.066 A 
DOCKED: ATOM     24  C   UNL d   1     -15.457  -0.133  -1.655 -0.14 +0.06    +0.051 C 
DOCKED: ATOM     25  N   UNL d   1     -15.017  -1.426   4.702 -0.07 -0.14    -0.248 N 
DOCKED: ATOM     26  N   UNL d   1     -12.368  -0.548   5.306 -0.25 -0.07    -0.248 N 
DOCKED: ATOM     27  N   UNL d   1     -11.953  -0.045   2.508 -0.16 -0.16    -0.248 N 
DOCKED: ATOM     28  N   UNL d   1     -14.629  -0.933   1.902 -0.15 -0.29    -0.248 N 
DOCKED: ATOM     29 FE   UNL d   1     -13.498  -0.740   3.602 -0.06 +0.00    +0.000 Fe
DOCKED: ENDROOT
DOCKED: BRANCH   6  30
DOCKED: ATOM     30  C   UNL d   1     -18.280  -3.055   5.191 -0.08 +0.03    +0.052 C 
DOCKED: BRANCH  30  31
DOCKED: ATOM     31  C   UNL d   1     -19.198  -2.248   4.279 -0.03 +0.07    +0.115 C 
DOCKED: BRANCH  31  32
DOCKED: ATOM     32  C   UNL d   1     -19.787  -1.083   5.024 -0.07 +0.12    +0.139 C 
DOCKED: ATOM     33  O   UNL d   1     -19.768  -1.050   6.247 +0.02 -0.42    -0.650 OA
DOCKED: BRANCH  32  34
DOCKED: ATOM     34  O   UNL d   1     -20.343  -0.062   4.349 -0.14 -1.26    -0.776 OA
DOCKED: ATOM     35  H   UNL d   1     -19.846   0.350   3.629 +0.01 +0.36    +0.167 HD
DOCKED: ENDBRANCH  32  34
DOCKED: ENDBRANCH  31  32
DOCKED: ENDBRANCH  30  31
DOCKED: ENDBRANCH   6  30
DOCKED: BRANCH  22  36
DOCKED: ATOM     36  C   UNL d   1     -17.859  -1.182   0.069 -0.06 +0.05    +0.052 C 
DOCKED: BRANCH  36  37
DOCKED: ATOM     37  C   UNL d   1     -18.523   0.184  -0.023 -0.05 +0.12    +0.115 C 
DOCKED: BRANCH  37  38
DOCKED: ATOM     38  C   UNL d   1     -18.410   0.927   1.278 -0.12 +0.22    +0.139 C 
DOCKED: ATOM     39  O   UNL d   1     -17.369   1.485   1.591 +0.01 -1.50    -0.650 OA
DOCKED: BRANCH  38  40
DOCKED: ATOM     40  O   UNL d   1     -19.462   0.978   2.115 -0.05 -1.63    -0.776 OA
DOCKED: ATOM     41  H   UNL d   1     -20.020   0.195   2.217 +0.01 +0.25    +0.167 HD
DOCKED: ENDBRANCH  38  40
DOCKED: ENDBRANCH  37  38
DOCKED: ENDBRANCH  36  37
DOCKED: ENDBRANCH  22  36
DOCKED: BRANCH  12  42
DOCKED: ATOM     42  C   UNL d   1      -9.490   0.730   7.318 -0.48 +0.00    +0.004 C 
DOCKED: ATOM     43  C   UNL d   1      -8.289   0.254   6.966 -0.47 +0.00    +0.012 C 
DOCKED: ENDBRANCH  12  42
DOCKED: BRANCH  17  44
DOCKED: ATOM     44  C   UNL d   1     -10.107   0.536  -0.636 -0.39 +0.00    +0.004 C 
DOCKED: ATOM     45  C   UNL d   1     -10.350   1.650  -1.335 -0.34 +0.00    +0.012 C 
DOCKED: ENDBRANCH  17  44
DOCKED: TORSDOF 10
DOCKED: TER
DOCKED: ENDMDL
________________________________________________________________________________


	BEGINNING GENETIC ALGORITHM DOCKING 80 of 100
Run: 80 Seed: 2129629849 1378647287 [ Run 80 of 100 GA/GALS ]
Beginning LAMARCKIAN GENETIC ALGORITHM (LGA), with a maximum of 25000000 energy evaluations.

Final-Value: -15.226


	FINAL GENETIC ALGORITHM DOCKED STATE
	_______________________________________________


Detailed state:  trans -12.942 -0.623 0.990 quatxyzw -0.513615 -0.410483 -0.202644 -0.725699 center -0.174 -0.001 -0.047 ntor 10 -100.2396 180.0000 -87.7373 -143.3334 -112.5446 0.0317 -146.0888 -112.5582 166.7747 126.9380
State:	-12.942  -0.623   0.990  -0.747 -0.597 -0.295 -86.946   -100.24  180.00  -87.74 -143.33 -112.54    0.03 -146.09 -112.56  166.77  126.94

DOCKED: MODEL       80
DOCKED: USER    Run = 80
DOCKED: USER    DPF = D:/Protein_go_brrr/autodock/final/AncMH_nat/heme_Fe/dock.dpf
DOCKED: USER  
DOCKED: USER    Estimated Free Energy of Binding    =  -11.02 kcal/mol  [=(1)+(2)+(3)-(4)]
DOCKED: USER    Estimated Inhibition Constant, Ki   =    8.33 nM (nanomolar)  [Temperature = 298.15 K]
DOCKED: USER    
DOCKED: USER    (1) Final Intermolecular Energy     =  -14.01 kcal/mol
DOCKED: USER        vdW + Hbond + desolv Energy     =   -9.71 kcal/mol
DOCKED: USER        Electrostatic Energy            =   -4.30 kcal/mol
DOCKED: USER    (2) Final Total Internal Energy     =   -1.22 kcal/mol
DOCKED: USER    (3) Torsional Free Energy           =   +2.98 kcal/mol
DOCKED: USER    (4) Unbound System's Energy  [=(2)] =   -1.22 kcal/mol
DOCKED: USER    
DOCKED: USER    
DOCKED: USER    NEWDPF move heme_Fe_opt.pdbqt
DOCKED: USER    NEWDPF about -0.174000 -0.001000 -0.047000
DOCKED: USER    NEWDPF tran0 -12.942254 -0.622840 0.989774
DOCKED: USER    NEWDPF quaternion0 -0.513615 -0.410483 -0.202644 -0.725699
DOCKED: USER    NEWDPF axisangle0 -0.746520 -0.596621 -0.294535 -86.945905
DOCKED: USER    NEWDPF quat0 -0.746520 -0.596621 -0.294535 -86.945905
DOCKED: USER    NEWDPF dihe0 -100.24 180.00 -87.74 -143.33 -112.54 0.03 -146.09 -112.56 166.77 126.94 
DOCKED: USER  keepresnum = 1 
DOCKED: USER  
DOCKED: REMARK  10 active torsions:
DOCKED: REMARK  status: ('A' for Active; 'I' for Inactive)
DOCKED: REMARK    1  A    between atoms: C_6  and  C_10 
DOCKED: REMARK    2  A    between atoms: C_10  and  C_11 
DOCKED: REMARK    3  A    between atoms: C_11  and  C_12 
DOCKED: REMARK    4  A    between atoms: C_12  and  O_14 
DOCKED: REMARK    5  A    between atoms: C_17  and  C_20 
DOCKED: REMARK    6  A    between atoms: C_24  and  C_27 
DOCKED: REMARK    7  A    between atoms: C_31  and  C_34 
DOCKED: REMARK    8  A    between atoms: C_34  and  C_35 
DOCKED: REMARK    9  A    between atoms: C_35  and  C_36 
DOCKED: REMARK   10  A    between atoms: C_36  and  O_38 
DOCKED: USER                              x       y       z     vdW  Elec       q    Type
DOCKED: USER                           _______ _______ _______ _____ _____    ______ ____
DOCKED: ROOT
DOCKED: ATOM      1  C   UNL d   1     -14.341  -0.413  -0.497 -0.18 +0.09    +0.064 C 
DOCKED: ATOM      2  C   UNL d   1     -14.525  -1.422   4.339 -0.16 +0.04    +0.064 A 
DOCKED: ATOM      3  C   UNL d   1      -9.976   0.063   4.751 -0.29 +0.02    +0.064 C 
DOCKED: ATOM      4  C   UNL d   1      -9.743   0.947   0.055 -0.39 +0.02    +0.064 C 
DOCKED: ATOM      5  C   UNL d   1     -14.788  -0.914   0.811 -0.19 +0.09    +0.066 A 
DOCKED: ATOM      6  C   UNL d   1     -16.010  -1.521   1.050 -0.15 -0.03    -0.021 A 
DOCKED: ATOM      7  C   UNL d   1     -16.061  -1.798   2.394 -0.13 -0.02    -0.025 A 
DOCKED: ATOM      8  C   UNL d   1     -14.868  -1.348   2.924 -0.18 +0.06    +0.066 A 
DOCKED: ATOM      9  C   UNL d   1     -17.188  -2.472   3.114 -0.07 +0.04    +0.051 C 
DOCKED: ATOM     10  C   UNL d   1     -13.358  -1.049   4.867 -0.23 +0.03    +0.066 A 
DOCKED: ATOM     11  C   UNL d   1     -13.101  -1.025   6.240 -0.34 -0.00    -0.021 A 
DOCKED: ATOM     12  C   UNL d   1     -11.801  -0.584   6.386 -0.40 +0.00    +0.000 A 
DOCKED: ATOM     13  C   UNL d   1     -11.330  -0.351   5.082 -0.28 +0.02    +0.070 A 
DOCKED: ATOM     14  C   UNL d   1     -14.070  -1.341   7.361 -0.37 +0.01    +0.052 C 
DOCKED: ATOM     15  C   UNL d   1      -9.533   0.338   3.501 -0.26 +0.02    +0.066 A 
DOCKED: ATOM     16  C   UNL d   1      -8.206   0.634   3.215 -0.29 -0.01    -0.021 A 
DOCKED: ATOM     17  C   UNL d   1      -8.138   0.893   1.861 -0.40 +0.00    +0.000 A 
DOCKED: ATOM     18  C   UNL d   1      -9.427   0.753   1.354 -0.34 +0.02    +0.070 A 
DOCKED: ATOM     19  C   UNL d   1      -7.051   0.697   4.177 -0.37 +0.01    +0.052 C 
DOCKED: ATOM     20  C   UNL d   1     -11.076   0.749  -0.526 -0.27 +0.04    +0.066 A 
DOCKED: ATOM     21  C   UNL d   1     -11.463   1.136  -1.817 -0.25 -0.01    -0.025 A 
DOCKED: ATOM     22  C   UNL d   1     -12.773   0.727  -1.958 -0.18 -0.02    -0.021 A 
DOCKED: ATOM     23  C   UNL d   1     -13.134   0.116  -0.751 -0.18 +0.08    +0.066 A 
DOCKED: ATOM     24  C   UNL d   1     -10.651   1.856  -2.869 -0.29 +0.01    +0.051 C 
DOCKED: ATOM     25  N   UNL d   1     -14.091  -0.819   1.957 -0.16 -0.28    -0.248 N 
DOCKED: ATOM     26  N   UNL d   1     -12.282  -0.626   4.156 -0.13 -0.11    -0.248 N 
DOCKED: ATOM     27  N   UNL d   1     -10.278   0.369   2.353 -0.19 -0.09    -0.248 N 
DOCKED: ATOM     28  N   UNL d   1     -12.109   0.172   0.134 -0.16 -0.22    -0.248 N 
DOCKED: ATOM     29 FE   UNL d   1     -12.194  -0.226   2.144 -0.06 +0.00    +0.000 Fe
DOCKED: ENDROOT
DOCKED: BRANCH   6  30
DOCKED: ATOM     30  C   UNL d   1     -17.067  -1.843   0.050 -0.11 +0.06    +0.052 C 
DOCKED: BRANCH  30  31
DOCKED: ATOM     31  C   UNL d   1     -18.223  -0.853   0.149 -0.03 +0.11    +0.115 C 
DOCKED: BRANCH  31  32
DOCKED: ATOM     32  C   UNL d   1     -17.716   0.512   0.523 -0.04 +0.21    +0.139 C 
DOCKED: ATOM     33  O   UNL d   1     -17.991   1.003   1.609 -0.22 -1.16    -0.650 OA
DOCKED: BRANCH  32  34
DOCKED: ATOM     34  O   UNL d   1     -16.952   1.207  -0.336 -0.07 -1.77    -0.776 OA
DOCKED: ATOM     35  H   UNL d   1     -17.377   1.681  -1.064 +0.01 +0.26    +0.167 HD
DOCKED: ENDBRANCH  32  34
DOCKED: ENDBRANCH  31  32
DOCKED: ENDBRANCH  30  31
DOCKED: ENDBRANCH   6  30
DOCKED: BRANCH  22  36
DOCKED: ATOM     36  C   UNL d   1     -13.641   0.956  -3.167 -0.10 +0.03    +0.052 C 
DOCKED: BRANCH  36  37
DOCKED: ATOM     37  C   UNL d   1     -15.025   1.411  -2.726 -0.07 +0.11    +0.115 C 
DOCKED: BRANCH  37  38
DOCKED: ATOM     38  C   UNL d   1     -14.967   2.768  -2.084 +0.26 +0.22    +0.139 C 
DOCKED: ATOM     39  O   UNL d   1     -13.904   3.361  -1.969 -0.07 -0.81    -0.650 OA
DOCKED: BRANCH  38  40
DOCKED: ATOM     40  O   UNL d   1     -16.093   3.341  -1.624 -0.33 -1.58    -0.776 OA
DOCKED: ATOM     41  H   UNL d   1     -16.933   2.870  -1.717 +0.01 +0.24    +0.167 HD
DOCKED: ENDBRANCH  38  40
DOCKED: ENDBRANCH  37  38
DOCKED: ENDBRANCH  36  37
DOCKED: ENDBRANCH  22  36
DOCKED: BRANCH  12  42
DOCKED: ATOM     42  C   UNL d   1     -11.104  -0.394   7.695 -0.47 +0.00    +0.004 C 
DOCKED: ATOM     43  C   UNL d   1     -11.747   0.124   8.750 -0.58 +0.00    +0.012 C 
DOCKED: ENDBRANCH  12  42
DOCKED: BRANCH  17  44
DOCKED: ATOM     44  C   UNL d   1      -6.914   1.232   1.100 -0.48 +0.00    +0.004 C 
DOCKED: ATOM     45  C   UNL d   1      -6.526   2.504   0.960 -0.48 +0.00    +0.012 C 
DOCKED: ENDBRANCH  17  44
DOCKED: TORSDOF 10
DOCKED: TER
DOCKED: ENDMDL
________________________________________________________________________________


	BEGINNING GENETIC ALGORITHM DOCKING 81 of 100
Run: 81 Seed: 1914335998 1218171074 [ Run 81 of 100 GA/GALS ]
Beginning LAMARCKIAN GENETIC ALGORITHM (LGA), with a maximum of 25000000 energy evaluations.

Final-Value: -14.388


	FINAL GENETIC ALGORITHM DOCKED STATE
	_______________________________________________


Detailed state:  trans -14.548 -1.205 3.048 quatxyzw -0.769146 -0.073001 -0.193574 0.604660 center -0.174 -0.001 -0.047 ntor 10 -153.0649 -115.0435 170.8874 65.2167 -89.9997 -11.5325 -171.0743 88.5180 0.3610 173.9427
State:	-14.548  -1.205   3.048  -0.966 -0.092 -0.243 105.591   -153.06 -115.04  170.89   65.22  -90.00  -11.53 -171.07   88.52    0.36  173.94

DOCKED: MODEL       81
DOCKED: USER    Run = 81
DOCKED: USER    DPF = D:/Protein_go_brrr/autodock/final/AncMH_nat/heme_Fe/dock.dpf
DOCKED: USER  
DOCKED: USER    Estimated Free Energy of Binding    =  -10.77 kcal/mol  [=(1)+(2)+(3)-(4)]
DOCKED: USER    Estimated Inhibition Constant, Ki   =   12.70 nM (nanomolar)  [Temperature = 298.15 K]
DOCKED: USER    
DOCKED: USER    (1) Final Intermolecular Energy     =  -13.76 kcal/mol
DOCKED: USER        vdW + Hbond + desolv Energy     =  -10.32 kcal/mol
DOCKED: USER        Electrostatic Energy            =   -3.44 kcal/mol
DOCKED: USER    (2) Final Total Internal Energy     =   -0.63 kcal/mol
DOCKED: USER    (3) Torsional Free Energy           =   +2.98 kcal/mol
DOCKED: USER    (4) Unbound System's Energy  [=(2)] =   -0.63 kcal/mol
DOCKED: USER    
DOCKED: USER    
DOCKED: USER    NEWDPF move heme_Fe_opt.pdbqt
DOCKED: USER    NEWDPF about -0.174000 -0.001000 -0.047000
DOCKED: USER    NEWDPF tran0 -14.547556 -1.204542 3.048151
DOCKED: USER    NEWDPF quaternion0 -0.769146 -0.073001 -0.193574 0.604660
DOCKED: USER    NEWDPF axisangle0 -0.965678 -0.091654 -0.243036 105.591203
DOCKED: USER    NEWDPF quat0 -0.965678 -0.091654 -0.243036 105.591203
DOCKED: USER    NEWDPF dihe0 -153.06 -115.04 170.89 65.22 -90.00 -11.53 -171.07 88.52 0.36 173.94 
DOCKED: USER  keepresnum = 1 
DOCKED: USER  
DOCKED: REMARK  10 active torsions:
DOCKED: REMARK  status: ('A' for Active; 'I' for Inactive)
DOCKED: REMARK    1  A    between atoms: C_6  and  C_10 
DOCKED: REMARK    2  A    between atoms: C_10  and  C_11 
DOCKED: REMARK    3  A    between atoms: C_11  and  C_12 
DOCKED: REMARK    4  A    between atoms: C_12  and  O_14 
DOCKED: REMARK    5  A    between atoms: C_17  and  C_20 
DOCKED: REMARK    6  A    between atoms: C_24  and  C_27 
DOCKED: REMARK    7  A    between atoms: C_31  and  C_34 
DOCKED: REMARK    8  A    between atoms: C_34  and  C_35 
DOCKED: REMARK    9  A    between atoms: C_35  and  C_36 
DOCKED: REMARK   10  A    between atoms: C_36  and  O_38 
DOCKED: USER                              x       y       z     vdW  Elec       q    Type
DOCKED: USER                           _______ _______ _______ _____ _____    ______ ____
DOCKED: ROOT
DOCKED: ATOM      1  C   UNL d   1     -16.146  -2.355   2.473 -0.13 +0.06    +0.064 C 
DOCKED: ATOM      2  C   UNL d   1     -12.477  -0.057   0.089 -0.23 +0.06    +0.064 A 
DOCKED: ATOM      3  C   UNL d   1     -10.159   0.428   4.268 -0.20 +0.02    +0.064 C 
DOCKED: ATOM      4  C   UNL d   1     -13.747  -1.699   6.610 -0.37 +0.01    +0.064 C 
DOCKED: ATOM      5  C   UNL d   1     -15.367  -1.679   1.427 -0.16 +0.08    +0.066 A 
DOCKED: ATOM      6  C   UNL d   1     -15.777  -1.519   0.114 -0.14 -0.03    -0.021 A 
DOCKED: ATOM      7  C   UNL d   1     -14.756  -0.884  -0.548 -0.13 -0.03    -0.025 A 
DOCKED: ATOM      8  C   UNL d   1     -13.760  -0.681   0.388 -0.16 +0.08    +0.066 A 
DOCKED: ATOM      9  C   UNL d   1     -14.754  -0.484  -1.992 -0.16 +0.05    +0.051 C 
DOCKED: ATOM     10  C   UNL d   1     -11.523   0.203   0.985 -0.26 +0.05    +0.066 A 
DOCKED: ATOM     11  C   UNL d   1     -10.260   0.696   0.650 -0.34 -0.01    -0.021 A 
DOCKED: ATOM     12  C   UNL d   1      -9.566   0.829   1.836 -0.36 +0.00    +0.000 A 
DOCKED: ATOM     13  C   UNL d   1     -10.448   0.398   2.843 -0.27 +0.03    +0.070 A 
DOCKED: ATOM     14  C   UNL d   1      -9.715   0.963  -0.738 -0.38 +0.01    +0.052 C 
DOCKED: ATOM     15  C   UNL d   1     -10.985  -0.033   5.236 -0.38 +0.02    +0.066 A 
DOCKED: ATOM     16  C   UNL d   1     -10.715   0.104   6.592 -0.46 -0.00    -0.021 A 
DOCKED: ATOM     17  C   UNL d   1     -11.747  -0.512   7.270 -0.46 +0.00    +0.000 A 
DOCKED: ATOM     18  C   UNL d   1     -12.621  -1.015   6.309 -0.34 +0.01    +0.070 A 
DOCKED: ATOM     19  C   UNL d   1      -9.523   0.766   7.229 -0.44 +0.01    +0.052 C 
DOCKED: ATOM     20  C   UNL d   1     -14.721  -2.191   5.629 -0.20 +0.03    +0.066 A 
DOCKED: ATOM     21  C   UNL d   1     -15.780  -3.067   5.907 -0.16 -0.01    -0.025 A 
DOCKED: ATOM     22  C   UNL d   1     -16.458  -3.230   4.717 -0.10 -0.01    -0.021 A 
DOCKED: ATOM     23  C   UNL d   1     -15.787  -2.456   3.763 -0.11 +0.05    +0.066 A 
DOCKED: ATOM     24  C   UNL d   1     -16.140  -3.725   7.219 -0.29 +0.01    +0.051 C 
DOCKED: ATOM     25  N   UNL d   1     -14.139  -1.157   1.591 -0.16 -0.28    -0.248 N 
DOCKED: ATOM     26  N   UNL d   1     -11.638   0.008   2.323 -0.16 -0.15    -0.248 N 
DOCKED: ATOM     27  N   UNL d   1     -12.176  -0.684   5.060 -0.23 -0.08    -0.248 N 
DOCKED: ATOM     28  N   UNL d   1     -14.702  -1.860   4.315 -0.11 -0.14    -0.248 N 
DOCKED: ATOM     29 FE   UNL d   1     -13.170  -0.926   3.321 -0.06 +0.00    +0.000 Fe
DOCKED: ENDROOT
DOCKED: BRANCH   6  30
DOCKED: ATOM     30  C   UNL d   1     -17.081  -1.929  -0.479 -0.11 +0.05    +0.052 C 
DOCKED: BRANCH  30  31
DOCKED: ATOM     31  C   UNL d   1     -18.107  -0.807  -0.358 -0.03 +0.10    +0.115 C 
DOCKED: BRANCH  31  32
DOCKED: ATOM     32  C   UNL d   1     -17.449   0.457   0.123 +0.00 +0.22    +0.139 C 
DOCKED: ATOM     33  O   UNL d   1     -17.367   0.701   1.319 -0.39 -1.22    -0.650 OA
DOCKED: BRANCH  32  34
DOCKED: ATOM     34  O   UNL d   1     -16.943   1.333  -0.761 -0.06 -1.52    -0.776 OA
DOCKED: ATOM     35  H   UNL d   1     -17.320   1.373  -1.651 +0.02 +0.19    +0.167 HD
DOCKED: ENDBRANCH  32  34
DOCKED: ENDBRANCH  31  32
DOCKED: ENDBRANCH  30  31
DOCKED: ENDBRANCH   6  30
DOCKED: BRANCH  22  36
DOCKED: ATOM     36  C   UNL d   1     -17.654  -4.119   4.501 -0.10 +0.03    +0.052 C 
DOCKED: BRANCH  36  37
DOCKED: ATOM     37  C   UNL d   1     -17.192  -5.515   4.108 -0.05 +0.06    +0.115 C 
DOCKED: BRANCH  37  38
DOCKED: ATOM     38  C   UNL d   1     -17.113  -5.655   2.614 -0.11 +0.12    +0.139 C 
DOCKED: ATOM     39  O   UNL d   1     -17.595  -4.806   1.880 -0.09 -0.61    -0.650 OA
DOCKED: BRANCH  38  40
DOCKED: ATOM     40  O   UNL d   1     -16.510  -6.728   2.072 -0.50 -0.81    -0.776 OA
DOCKED: ATOM     41  H   UNL d   1     -16.894  -7.605   2.213 +0.06 +0.11    +0.167 HD
DOCKED: ENDBRANCH  38  40
DOCKED: ENDBRANCH  37  38
DOCKED: ENDBRANCH  36  37
DOCKED: ENDBRANCH  22  36
DOCKED: BRANCH  12  42
DOCKED: ATOM     42  C   UNL d   1      -8.157   1.318   1.954 -0.43 +0.00    +0.004 C 
DOCKED: ATOM     43  C   UNL d   1      -7.308   0.769   2.833 -0.40 +0.00    +0.012 C 
DOCKED: ENDBRANCH  12  42
DOCKED: BRANCH  17  44
DOCKED: ATOM     44  C   UNL d   1     -11.897  -0.595   8.740 -0.60 +0.00    +0.004 C 
DOCKED: ATOM     45  C   UNL d   1     -12.958  -0.057   9.352 -0.58 +0.00    +0.012 C 
DOCKED: ENDBRANCH  17  44
DOCKED: TORSDOF 10
DOCKED: TER
DOCKED: ENDMDL
________________________________________________________________________________


	BEGINNING GENETIC ALGORITHM DOCKING 82 of 100
Run: 82 Seed: 90153229 558278093 [ Run 82 of 100 GA/GALS ]
Beginning LAMARCKIAN GENETIC ALGORITHM (LGA), with a maximum of 25000000 energy evaluations.

Final-Value: -13.704


	FINAL GENETIC ALGORITHM DOCKED STATE
	_______________________________________________


Detailed state:  trans -13.005 -0.904 1.388 quatxyzw 0.518971 0.422731 0.209697 0.712737 center -0.174 -0.001 -0.047 ntor 10 177.3797 -103.8360 -108.7144 -157.6298 107.8719 -151.4134 133.1929 -108.6966 -155.8812 150.2465
State:	-13.005  -0.904   1.388   0.740  0.603  0.299 89.084    177.38 -103.84 -108.71 -157.63  107.87 -151.41  133.19 -108.70 -155.88  150.25

DOCKED: MODEL       82
DOCKED: USER    Run = 82
DOCKED: USER    DPF = D:/Protein_go_brrr/autodock/final/AncMH_nat/heme_Fe/dock.dpf
DOCKED: USER  
DOCKED: USER    Estimated Free Energy of Binding    =  -10.02 kcal/mol  [=(1)+(2)+(3)-(4)]
DOCKED: USER    Estimated Inhibition Constant, Ki   =   45.40 nM (nanomolar)  [Temperature = 298.15 K]
DOCKED: USER    
DOCKED: USER    (1) Final Intermolecular Energy     =  -13.00 kcal/mol
DOCKED: USER        vdW + Hbond + desolv Energy     =   -9.70 kcal/mol
DOCKED: USER        Electrostatic Energy            =   -3.30 kcal/mol
DOCKED: USER    (2) Final Total Internal Energy     =   -0.70 kcal/mol
DOCKED: USER    (3) Torsional Free Energy           =   +2.98 kcal/mol
DOCKED: USER    (4) Unbound System's Energy  [=(2)] =   -0.70 kcal/mol
DOCKED: USER    
DOCKED: USER    
DOCKED: USER    NEWDPF move heme_Fe_opt.pdbqt
DOCKED: USER    NEWDPF about -0.174000 -0.001000 -0.047000
DOCKED: USER    NEWDPF tran0 -13.005239 -0.904080 1.387887
DOCKED: USER    NEWDPF quaternion0 0.518971 0.422731 0.209697 0.712737
DOCKED: USER    NEWDPF axisangle0 0.739875 0.602669 0.298956 89.083834
DOCKED: USER    NEWDPF quat0 0.739875 0.602669 0.298956 89.083834
DOCKED: USER    NEWDPF dihe0 177.38 -103.84 -108.71 -157.63 107.87 -151.41 133.19 -108.70 -155.88 150.25 
DOCKED: USER  keepresnum = 1 
DOCKED: USER  
DOCKED: REMARK  10 active torsions:
DOCKED: REMARK  status: ('A' for Active; 'I' for Inactive)
DOCKED: REMARK    1  A    between atoms: C_6  and  C_10 
DOCKED: REMARK    2  A    between atoms: C_10  and  C_11 
DOCKED: REMARK    3  A    between atoms: C_11  and  C_12 
DOCKED: REMARK    4  A    between atoms: C_12  and  O_14 
DOCKED: REMARK    5  A    between atoms: C_17  and  C_20 
DOCKED: REMARK    6  A    between atoms: C_24  and  C_27 
DOCKED: REMARK    7  A    between atoms: C_31  and  C_34 
DOCKED: REMARK    8  A    between atoms: C_34  and  C_35 
DOCKED: REMARK    9  A    between atoms: C_35  and  C_36 
DOCKED: REMARK   10  A    between atoms: C_36  and  O_38 
DOCKED: USER                              x       y       z     vdW  Elec       q    Type
DOCKED: USER                           _______ _______ _______ _____ _____    ______ ____
DOCKED: ROOT
DOCKED: ATOM      1  C   UNL d   1     -14.352  -0.715  -0.149 -0.15 +0.09    +0.064 C 
DOCKED: ATOM      2  C   UNL d   1     -14.705  -1.624   4.697 -0.15 +0.03    +0.064 A 
DOCKED: ATOM      3  C   UNL d   1     -10.161  -0.162   5.232 -0.37 +0.02    +0.064 C 
DOCKED: ATOM      4  C   UNL d   1      -9.765   0.624   0.529 -0.41 +0.02    +0.064 C 
DOCKED: ATOM      5  C   UNL d   1     -14.846  -1.186   1.153 -0.19 +0.08    +0.066 A 
DOCKED: ATOM      6  C   UNL d   1     -16.080  -1.780   1.363 -0.15 -0.02    -0.021 A 
DOCKED: ATOM      7  C   UNL d   1     -16.178  -2.028   2.710 -0.12 -0.02    -0.025 A 
DOCKED: ATOM      8  C   UNL d   1     -15.000  -1.576   3.270 -0.17 +0.05    +0.066 A 
DOCKED: ATOM      9  C   UNL d   1     -17.334  -2.680   3.405 -0.06 +0.04    +0.051 C 
DOCKED: ATOM     10  C   UNL d   1     -13.554  -1.248   5.257 -0.23 +0.02    +0.066 A 
DOCKED: ATOM     11  C   UNL d   1     -13.343  -1.198   6.637 -0.34 -0.00    -0.021 A 
DOCKED: ATOM     12  C   UNL d   1     -12.045  -0.763   6.818 -0.37 +0.00    +0.000 A 
DOCKED: ATOM     13  C   UNL d   1     -11.529  -0.560   5.526 -0.33 +0.02    +0.070 A 
DOCKED: ATOM     14  C   UNL d   1     -14.350  -1.484   7.731 -0.38 +0.01    +0.052 C 
DOCKED: ATOM     15  C   UNL d   1      -9.675   0.084   3.992 -0.18 +0.02    +0.066 A 
DOCKED: ATOM     16  C   UNL d   1      -8.337   0.365   3.745 -0.28 -0.01    -0.021 A 
DOCKED: ATOM     17  C   UNL d   1      -8.221   0.596   2.390 -0.37 +0.00    +0.000 A 
DOCKED: ATOM     18  C   UNL d   1      -9.494   0.454   1.842 -0.33 +0.02    +0.070 A 
DOCKED: ATOM     19  C   UNL d   1      -7.214   0.440   4.744 -0.38 +0.01    +0.052 C 
DOCKED: ATOM     20  C   UNL d   1     -11.079   0.423  -0.092 -0.28 +0.04    +0.066 A 
DOCKED: ATOM     21  C   UNL d   1     -11.419   0.787  -1.403 -0.26 -0.01    -0.025 A 
DOCKED: ATOM     22  C   UNL d   1     -12.727   0.384  -1.579 -0.20 -0.02    -0.021 A 
DOCKED: ATOM     23  C   UNL d   1     -13.133  -0.200  -0.373 -0.15 +0.08    +0.066 A 
DOCKED: ATOM     24  C   UNL d   1     -10.568   1.480  -2.441 -0.32 +0.01    +0.051 C 
DOCKED: ATOM     25  N   UNL d   1     -14.187  -1.073   2.320 -0.15 -0.25    -0.248 N 
DOCKED: ATOM     26  N   UNL d   1     -12.451  -0.847   4.574 -0.17 -0.09    -0.248 N 
DOCKED: ATOM     27  N   UNL d   1     -10.380   0.097   2.819 -0.16 -0.09    -0.248 N 
DOCKED: ATOM     28  N   UNL d   1     -12.138  -0.133   0.545 -0.17 -0.22    -0.248 N 
DOCKED: ATOM     29 FE   UNL d   1     -12.293  -0.489   2.558 -0.06 +0.00    +0.000 Fe
DOCKED: ENDROOT
DOCKED: BRANCH   6  30
DOCKED: ATOM     30  C   UNL d   1     -17.106  -2.115   0.335 -0.11 +0.05    +0.052 C 
DOCKED: BRANCH  30  31
DOCKED: ATOM     31  C   UNL d   1     -17.684  -0.847  -0.284 -0.06 +0.11    +0.115 C 
DOCKED: BRANCH  31  32
DOCKED: ATOM     32  C   UNL d   1     -18.041   0.146   0.787 -0.08 +0.18    +0.139 C 
DOCKED: ATOM     33  O   UNL d   1     -17.370   1.156   0.949 -0.26 -1.44    -0.650 OA
DOCKED: BRANCH  32  34
DOCKED: ATOM     34  O   UNL d   1     -19.105  -0.068   1.578 +0.03 -0.92    -0.776 OA
DOCKED: ATOM     35  H   UNL d   1     -19.656  -0.848   1.423 +0.02 +0.15    +0.167 HD
DOCKED: ENDBRANCH  32  34
DOCKED: ENDBRANCH  31  32
DOCKED: ENDBRANCH  30  31
DOCKED: ENDBRANCH   6  30
DOCKED: BRANCH  22  36
DOCKED: ATOM     36  C   UNL d   1     -13.553   0.595  -2.821 -0.14 +0.04    +0.052 C 
DOCKED: BRANCH  36  37
DOCKED: ATOM     37  C   UNL d   1     -14.680   1.573  -2.527 -0.08 +0.12    +0.115 C 
DOCKED: BRANCH  37  38
DOCKED: ATOM     38  C   UNL d   1     -14.149   2.965  -2.330 -0.06 +0.15    +0.139 C 
DOCKED: ATOM     39  O   UNL d   1     -14.735   3.762  -1.613 -0.27 -1.23    -0.650 OA
DOCKED: BRANCH  38  40
DOCKED: ATOM     40  O   UNL d   1     -13.017   3.345  -2.949 +0.08 -0.37    -0.776 OA
DOCKED: ATOM     41  H   UNL d   1     -13.044   3.550  -3.894 +0.04 +0.04    +0.167 HD
DOCKED: ENDBRANCH  38  40
DOCKED: ENDBRANCH  37  38
DOCKED: ENDBRANCH  36  37
DOCKED: ENDBRANCH  22  36
DOCKED: BRANCH  12  42
DOCKED: ATOM     42  C   UNL d   1     -11.390  -0.551   8.145 -0.54 +0.00    +0.004 C 
DOCKED: ATOM     43  C   UNL d   1     -11.878   0.337   9.021 -0.53 +0.00    +0.012 C 
DOCKED: ENDBRANCH  12  42
DOCKED: BRANCH  17  44
DOCKED: ATOM     44  C   UNL d   1      -6.970   0.911   1.663 -0.39 +0.00    +0.004 C 
DOCKED: ATOM     45  C   UNL d   1      -6.707   2.159   1.261 -0.48 +0.00    +0.012 C 
DOCKED: ENDBRANCH  17  44
DOCKED: TORSDOF 10
DOCKED: TER
DOCKED: ENDMDL
________________________________________________________________________________


	BEGINNING GENETIC ALGORITHM DOCKING 83 of 100
Run: 83 Seed: 543179732 57303491 [ Run 83 of 100 GA/GALS ]
Beginning LAMARCKIAN GENETIC ALGORITHM (LGA), with a maximum of 25000000 energy evaluations.

Final-Value: -14.957


	FINAL GENETIC ALGORITHM DOCKED STATE
	_______________________________________________


Detailed state:  trans -14.866 -1.643 3.403 quatxyzw 0.620528 0.212847 -0.092578 0.749046 center -0.174 -0.001 -0.047 ntor 10 19.7949 -148.2238 69.6865 -139.9458 -100.1059 74.4946 -124.4793 -179.0477 175.9510 170.5291
State:	-14.866  -1.643   3.403   0.937  0.321 -0.140 82.984     19.79 -148.22   69.69 -139.95 -100.11   74.49 -124.48 -179.05  175.95  170.53

DOCKED: MODEL       83
DOCKED: USER    Run = 83
DOCKED: USER    DPF = D:/Protein_go_brrr/autodock/final/AncMH_nat/heme_Fe/dock.dpf
DOCKED: USER  
DOCKED: USER    Estimated Free Energy of Binding    =   -9.87 kcal/mol  [=(1)+(2)+(3)-(4)]
DOCKED: USER    Estimated Inhibition Constant, Ki   =   58.50 nM (nanomolar)  [Temperature = 298.15 K]
DOCKED: USER    
DOCKED: USER    (1) Final Intermolecular Energy     =  -12.85 kcal/mol
DOCKED: USER        vdW + Hbond + desolv Energy     =   -9.25 kcal/mol
DOCKED: USER        Electrostatic Energy            =   -3.60 kcal/mol
DOCKED: USER    (2) Final Total Internal Energy     =   -2.11 kcal/mol
DOCKED: USER    (3) Torsional Free Energy           =   +2.98 kcal/mol
DOCKED: USER    (4) Unbound System's Energy  [=(2)] =   -2.11 kcal/mol
DOCKED: USER    
DOCKED: USER    
DOCKED: USER    NEWDPF move heme_Fe_opt.pdbqt
DOCKED: USER    NEWDPF about -0.174000 -0.001000 -0.047000
DOCKED: USER    NEWDPF tran0 -14.865911 -1.643402 3.402916
DOCKED: USER    NEWDPF quaternion0 0.620528 0.212847 -0.092578 0.749046
DOCKED: USER    NEWDPF axisangle0 0.936621 0.321270 -0.139736 82.984317
DOCKED: USER    NEWDPF quat0 0.936621 0.321270 -0.139736 82.984317
DOCKED: USER    NEWDPF dihe0 19.79 -148.22 69.69 -139.95 -100.11 74.49 -124.48 -179.05 175.95 170.53 
DOCKED: USER  keepresnum = 1 
DOCKED: USER  
DOCKED: REMARK  10 active torsions:
DOCKED: REMARK  status: ('A' for Active; 'I' for Inactive)
DOCKED: REMARK    1  A    between atoms: C_6  and  C_10 
DOCKED: REMARK    2  A    between atoms: C_10  and  C_11 
DOCKED: REMARK    3  A    between atoms: C_11  and  C_12 
DOCKED: REMARK    4  A    between atoms: C_12  and  O_14 
DOCKED: REMARK    5  A    between atoms: C_17  and  C_20 
DOCKED: REMARK    6  A    between atoms: C_24  and  C_27 
DOCKED: REMARK    7  A    between atoms: C_31  and  C_34 
DOCKED: REMARK    8  A    between atoms: C_34  and  C_35 
DOCKED: REMARK    9  A    between atoms: C_35  and  C_36 
DOCKED: REMARK   10  A    between atoms: C_36  and  O_38 
DOCKED: USER                              x       y       z     vdW  Elec       q    Type
DOCKED: USER                           _______ _______ _______ _____ _____    ______ ____
DOCKED: ROOT
DOCKED: ATOM      1  C   UNL d   1     -16.872  -1.980   3.130 -0.09 +0.05    +0.064 C 
DOCKED: ATOM      2  C   UNL d   1     -13.946  -1.389   7.070 -0.31 +0.01    +0.064 A 
DOCKED: ATOM      3  C   UNL d   1     -10.520   0.336   4.180 -0.34 +0.02    +0.064 C 
DOCKED: ATOM      4  C   UNL d   1     -13.296  -0.326   0.341 -0.24 +0.08    +0.064 C 
DOCKED: ATOM      5  C   UNL d   1     -16.336  -2.052   4.496 -0.08 +0.04    +0.066 A 
DOCKED: ATOM      6  C   UNL d   1     -17.003  -2.600   5.580 -0.10 -0.01    -0.021 A 
DOCKED: ATOM      7  C   UNL d   1     -16.191  -2.432   6.674 -0.17 -0.01    -0.025 A 
DOCKED: ATOM      8  C   UNL d   1     -15.058  -1.788   6.216 -0.18 +0.02    +0.066 A 
DOCKED: ATOM      9  C   UNL d   1     -16.487  -2.886   8.071 -0.26 +0.01    +0.051 C 
DOCKED: ATOM     10  C   UNL d   1     -12.818  -0.818   6.645 -0.34 +0.01    +0.066 A 
DOCKED: ATOM     11  C   UNL d   1     -11.820  -0.344   7.499 -0.49 -0.00    -0.021 A 
DOCKED: ATOM     12  C   UNL d   1     -10.828   0.174   6.691 -0.49 +0.00    +0.000 A 
DOCKED: ATOM     13  C   UNL d   1     -11.280  -0.005   5.372 -0.39 +0.02    +0.070 A 
DOCKED: ATOM     14  C   UNL d   1     -11.841  -0.323   9.014 -0.55 +0.01    +0.052 C 
DOCKED: ATOM     15  C   UNL d   1     -10.972   0.213   2.910 -0.21 +0.03    +0.066 A 
DOCKED: ATOM     16  C   UNL d   1     -10.179   0.456   1.796 -0.33 -0.01    -0.021 A 
DOCKED: ATOM     17  C   UNL d   1     -10.979   0.269   0.687 -0.32 +0.00    +0.000 A 
DOCKED: ATOM     18  C   UNL d   1     -12.244  -0.080   1.153 -0.25 +0.06    +0.070 A 
DOCKED: ATOM     19  C   UNL d   1      -8.733   0.872   1.771 -0.41 +0.01    +0.052 C 
DOCKED: ATOM     20  C   UNL d   1     -14.625  -0.756   0.792 -0.18 +0.09    +0.066 A 
DOCKED: ATOM     21  C   UNL d   1     -15.772  -0.820  -0.012 -0.15 -0.03    -0.025 A 
DOCKED: ATOM     22  C   UNL d   1     -16.776  -1.306   0.799 -0.12 -0.02    -0.021 A 
DOCKED: ATOM     23  C   UNL d   1     -16.207  -1.512   2.062 -0.12 +0.07    +0.066 A 
DOCKED: ATOM     24  C   UNL d   1     -15.925  -0.443  -1.467 -0.13 +0.06    +0.051 C 
DOCKED: ATOM     25  N   UNL d   1     -15.145  -1.566   4.889 -0.07 -0.13    -0.248 N 
DOCKED: ATOM     26  N   UNL d   1     -12.497  -0.602   5.344 -0.25 -0.07    -0.248 N 
DOCKED: ATOM     27  N   UNL d   1     -12.230  -0.157   2.517 -0.16 -0.17    -0.248 N 
DOCKED: ATOM     28  N   UNL d   1     -14.906  -1.132   2.063 -0.13 -0.28    -0.248 N 
DOCKED: ATOM     29 FE   UNL d   1     -13.701  -0.867   3.702 -0.06 +0.00    +0.000 Fe
DOCKED: ENDROOT
DOCKED: BRANCH   6  30
DOCKED: ATOM     30  C   UNL d   1     -18.334  -3.270   5.574 -0.09 +0.02    +0.052 C 
DOCKED: BRANCH  30  31
DOCKED: ATOM     31  C   UNL d   1     -19.437  -2.281   5.936 -0.05 +0.06    +0.115 C 
DOCKED: BRANCH  31  32
DOCKED: ATOM     32  C   UNL d   1     -19.405  -1.095   5.012 -0.08 +0.11    +0.139 C 
DOCKED: ATOM     33  O   UNL d   1     -18.889  -0.044   5.366 +0.01 -0.72    -0.650 OA
DOCKED: BRANCH  32  34
DOCKED: ATOM     34  O   UNL d   1     -19.944  -1.181   3.785 +0.03 -0.71    -0.776 OA
DOCKED: ATOM     35  H   UNL d   1     -19.676  -0.543   3.108 +0.02 +0.20    +0.167 HD
DOCKED: ENDBRANCH  32  34
DOCKED: ENDBRANCH  31  32
DOCKED: ENDBRANCH  30  31
DOCKED: ENDBRANCH   6  30
DOCKED: BRANCH  22  36
DOCKED: ATOM     36  C   UNL d   1     -18.211  -1.513   0.395 -0.04 +0.05    +0.052 C 
DOCKED: BRANCH  36  37
DOCKED: ATOM     37  C   UNL d   1     -19.022  -0.269   0.725 -0.04 +0.11    +0.115 C 
DOCKED: BRANCH  37  38
DOCKED: ATOM     38  C   UNL d   1     -18.156   0.789   1.348 -0.12 +0.22    +0.139 C 
DOCKED: ATOM     39  O   UNL d   1     -17.370   1.433   0.670 -0.05 -1.53    -0.650 OA
DOCKED: BRANCH  38  40
DOCKED: ATOM     40  O   UNL d   1     -18.239   1.032   2.669 -0.29 -1.54    -0.776 OA
DOCKED: ATOM     41  H   UNL d   1     -18.459   0.305   3.268 +0.03 +0.26    +0.167 HD
DOCKED: ENDBRANCH  38  40
DOCKED: ENDBRANCH  37  38
DOCKED: ENDBRANCH  36  37
DOCKED: ENDBRANCH  22  36
DOCKED: BRANCH  12  42
DOCKED: ATOM     42  C   UNL d   1      -9.563   0.803   7.184 -0.46 +0.00    +0.004 C 
DOCKED: ATOM     43  C   UNL d   1      -8.369   0.271   6.891 -0.47 +0.00    +0.012 C 
DOCKED: ENDBRANCH  12  42
DOCKED: BRANCH  17  44
DOCKED: ATOM     44  C   UNL d   1     -10.554   0.396  -0.725 -0.38 +0.00    +0.004 C 
DOCKED: ATOM     45  C   UNL d   1     -10.567   1.583  -1.340 -0.34 +0.00    +0.012 C 
DOCKED: ENDBRANCH  17  44
DOCKED: TORSDOF 10
DOCKED: TER
DOCKED: ENDMDL
________________________________________________________________________________


	BEGINNING GENETIC ALGORITHM DOCKING 84 of 100
Run: 84 Seed: 1241747704 637826956 [ Run 84 of 100 GA/GALS ]
Beginning LAMARCKIAN GENETIC ALGORITHM (LGA), with a maximum of 25000000 energy evaluations.

Final-Value: -14.780


	FINAL GENETIC ALGORITHM DOCKED STATE
	_______________________________________________


Detailed state:  trans -14.386 -1.400 3.365 quatxyzw -0.619681 -0.200941 0.072124 -0.755259 center -0.174 -0.001 -0.047 ntor 10 -120.1832 -65.4455 65.3587 -156.0652 -92.0926 111.3174 177.1695 101.3710 -172.3992 -173.3265
State:	-14.386  -1.400   3.365  -0.945 -0.307  0.110 -81.904   -120.18  -65.45   65.36 -156.07  -92.09  111.32  177.17  101.37 -172.40 -173.33

DOCKED: MODEL       84
DOCKED: USER    Run = 84
DOCKED: USER    DPF = D:/Protein_go_brrr/autodock/final/AncMH_nat/heme_Fe/dock.dpf
DOCKED: USER  
DOCKED: USER    Estimated Free Energy of Binding    =   -9.79 kcal/mol  [=(1)+(2)+(3)-(4)]
DOCKED: USER    Estimated Inhibition Constant, Ki   =   66.17 nM (nanomolar)  [Temperature = 298.15 K]
DOCKED: USER    
DOCKED: USER    (1) Final Intermolecular Energy     =  -12.78 kcal/mol
DOCKED: USER        vdW + Hbond + desolv Energy     =   -9.75 kcal/mol
DOCKED: USER        Electrostatic Energy            =   -3.03 kcal/mol
DOCKED: USER    (2) Final Total Internal Energy     =   -2.00 kcal/mol
DOCKED: USER    (3) Torsional Free Energy           =   +2.98 kcal/mol
DOCKED: USER    (4) Unbound System's Energy  [=(2)] =   -2.00 kcal/mol
DOCKED: USER    
DOCKED: USER    
DOCKED: USER    NEWDPF move heme_Fe_opt.pdbqt
DOCKED: USER    NEWDPF about -0.174000 -0.001000 -0.047000
DOCKED: USER    NEWDPF tran0 -14.386114 -1.399630 3.364975
DOCKED: USER    NEWDPF quaternion0 -0.619681 -0.200941 0.072124 -0.755259
DOCKED: USER    NEWDPF axisangle0 -0.945462 -0.306581 0.110041 -81.903968
DOCKED: USER    NEWDPF quat0 -0.945462 -0.306581 0.110041 -81.903968
DOCKED: USER    NEWDPF dihe0 -120.18 -65.45 65.36 -156.07 -92.09 111.32 177.17 101.37 -172.40 -173.33 
DOCKED: USER  keepresnum = 1 
DOCKED: USER  
DOCKED: REMARK  10 active torsions:
DOCKED: REMARK  status: ('A' for Active; 'I' for Inactive)
DOCKED: REMARK    1  A    between atoms: C_6  and  C_10 
DOCKED: REMARK    2  A    between atoms: C_10  and  C_11 
DOCKED: REMARK    3  A    between atoms: C_11  and  C_12 
DOCKED: REMARK    4  A    between atoms: C_12  and  O_14 
DOCKED: REMARK    5  A    between atoms: C_17  and  C_20 
DOCKED: REMARK    6  A    between atoms: C_24  and  C_27 
DOCKED: REMARK    7  A    between atoms: C_31  and  C_34 
DOCKED: REMARK    8  A    between atoms: C_34  and  C_35 
DOCKED: REMARK    9  A    between atoms: C_35  and  C_36 
DOCKED: REMARK   10  A    between atoms: C_36  and  O_38 
DOCKED: USER                              x       y       z     vdW  Elec       q    Type
DOCKED: USER                           _______ _______ _______ _____ _____    ______ ____
DOCKED: ROOT
DOCKED: ATOM      1  C   UNL d   1     -16.404  -1.639   3.078 -0.12 +0.05    +0.064 C 
DOCKED: ATOM      2  C   UNL d   1     -13.474  -1.245   7.040 -0.34 +0.01    +0.064 A 
DOCKED: ATOM      3  C   UNL d   1      -9.957   0.364   4.192 -0.24 +0.02    +0.064 C 
DOCKED: ATOM      4  C   UNL d   1     -12.741  -0.110   0.331 -0.26 +0.07    +0.064 C 
DOCKED: ATOM      5  C   UNL d   1     -15.879  -1.757   4.446 -0.11 +0.04    +0.066 A 
DOCKED: ATOM      6  C   UNL d   1     -16.576  -2.290   5.517 -0.11 -0.01    -0.021 A 
DOCKED: ATOM      7  C   UNL d   1     -15.763  -2.177   6.618 -0.19 -0.01    -0.025 A 
DOCKED: ATOM      8  C   UNL d   1     -14.599  -1.578   6.175 -0.14 +0.02    +0.066 A 
DOCKED: ATOM      9  C   UNL d   1     -16.087  -2.638   8.006 -0.27 +0.01    +0.051 C 
DOCKED: ATOM     10  C   UNL d   1     -12.319  -0.720   6.628 -0.37 +0.01    +0.066 A 
DOCKED: ATOM     11  C   UNL d   1     -11.304  -0.306   7.495 -0.45 -0.00    -0.021 A 
DOCKED: ATOM     12  C   UNL d   1     -10.285   0.178   6.699 -0.46 +0.00    +0.000 A 
DOCKED: ATOM     13  C   UNL d   1     -10.739   0.040   5.375 -0.38 +0.02    +0.070 A 
DOCKED: ATOM     14  C   UNL d   1     -11.332  -0.307   9.010 -0.46 +0.01    +0.052 C 
DOCKED: ATOM     15  C   UNL d   1     -10.408   0.282   2.918 -0.23 +0.02    +0.066 A 
DOCKED: ATOM     16  C   UNL d   1      -9.599   0.505   1.811 -0.36 -0.01    -0.021 A 
DOCKED: ATOM     17  C   UNL d   1     -10.401   0.373   0.697 -0.36 +0.00    +0.000 A 
DOCKED: ATOM     18  C   UNL d   1     -11.684   0.075   1.151 -0.26 +0.05    +0.070 A 
DOCKED: ATOM     19  C   UNL d   1      -8.135   0.855   1.799 -0.43 +0.01    +0.052 C 
DOCKED: ATOM     20  C   UNL d   1     -14.091  -0.484   0.769 -0.20 +0.09    +0.066 A 
DOCKED: ATOM     21  C   UNL d   1     -15.235  -0.483  -0.041 -0.15 -0.04    -0.025 A 
DOCKED: ATOM     22  C   UNL d   1     -16.265  -0.934   0.759 -0.14 -0.03    -0.021 A 
DOCKED: ATOM     23  C   UNL d   1     -15.713  -1.186   2.021 -0.15 +0.07    +0.066 A 
DOCKED: ATOM     24  C   UNL d   1     -15.364  -0.077  -1.491 -0.14 +0.06    +0.051 C 
DOCKED: ATOM     25  N   UNL d   1     -14.669  -1.332   4.851 -0.08 -0.13    -0.248 N 
DOCKED: ATOM     26  N   UNL d   1     -11.982  -0.499   5.332 -0.27 -0.07    -0.248 N 
DOCKED: ATOM     27  N   UNL d   1     -11.680  -0.024   2.514 -0.16 -0.15    -0.248 N 
DOCKED: ATOM     28  N   UNL d   1     -14.396  -0.866   2.033 -0.15 -0.28    -0.248 N 
DOCKED: ATOM     29 FE   UNL d   1     -13.188  -0.682   3.681 -0.06 +0.00    +0.000 Fe
DOCKED: ENDROOT
DOCKED: BRANCH   6  30
DOCKED: ATOM     30  C   UNL d   1     -17.937  -2.897   5.495 -0.09 +0.02    +0.052 C 
DOCKED: BRANCH  30  31
DOCKED: ATOM     31  C   UNL d   1     -19.011  -1.818   5.582 -0.06 +0.07    +0.115 C 
DOCKED: BRANCH  31  32
DOCKED: ATOM     32  C   UNL d   1     -18.382  -0.461   5.733 -0.15 +0.11    +0.139 C 
DOCKED: ATOM     33  O   UNL d   1     -18.180   0.012   6.843 -0.04 -0.43    -0.650 OA
DOCKED: BRANCH  32  34
DOCKED: ATOM     34  O   UNL d   1     -18.036   0.247   4.645 +0.02 -0.95    -0.776 OA
DOCKED: ATOM     35  H   UNL d   1     -18.720   0.489   4.005 +0.02 +0.29    +0.167 HD
DOCKED: ENDBRANCH  32  34
DOCKED: ENDBRANCH  31  32
DOCKED: ENDBRANCH  30  31
DOCKED: ENDBRANCH   6  30
DOCKED: BRANCH  22  36
DOCKED: ATOM     36  C   UNL d   1     -17.706  -1.069   0.345 -0.07 +0.05    +0.052 C 
DOCKED: BRANCH  36  37
DOCKED: ATOM     37  C   UNL d   1     -18.362   0.304   0.313 -0.07 +0.14    +0.115 C 
DOCKED: BRANCH  37  38
DOCKED: ATOM     38  C   UNL d   1     -18.738   0.753   1.697 -0.11 +0.22    +0.139 C 
DOCKED: ATOM     39  O   UNL d   1     -18.156   1.685   2.232 -0.55 -1.49    -0.650 OA
DOCKED: BRANCH  38  40
DOCKED: ATOM     40  O   UNL d   1     -19.724   0.124   2.361 -0.00 -1.17    -0.776 OA
DOCKED: ATOM     41  H   UNL d   1     -19.508  -0.372   3.163 +0.02 +0.22    +0.167 HD
DOCKED: ENDBRANCH  38  40
DOCKED: ENDBRANCH  37  38
DOCKED: ENDBRANCH  36  37
DOCKED: ENDBRANCH  22  36
DOCKED: BRANCH  12  42
DOCKED: ATOM     42  C   UNL d   1      -8.995   0.740   7.207 -0.48 +0.00    +0.004 C 
DOCKED: ATOM     43  C   UNL d   1      -7.834   0.112   6.983 -0.47 +0.00    +0.012 C 
DOCKED: ENDBRANCH  12  42
DOCKED: BRANCH  17  44
DOCKED: ATOM     44  C   UNL d   1      -9.963   0.501  -0.712 -0.36 +0.00    +0.004 C 
DOCKED: ATOM     45  C   UNL d   1     -10.214   1.615  -1.407 -0.34 +0.00    +0.012 C 
DOCKED: ENDBRANCH  17  44
DOCKED: TORSDOF 10
DOCKED: TER
DOCKED: ENDMDL
________________________________________________________________________________


	BEGINNING GENETIC ALGORITHM DOCKING 85 of 100
Run: 85 Seed: 1224778480 292799396 [ Run 85 of 100 GA/GALS ]
Beginning LAMARCKIAN GENETIC ALGORITHM (LGA), with a maximum of 25000000 energy evaluations.

Final-Value: -10.498


	FINAL GENETIC ALGORITHM DOCKED STATE
	_______________________________________________


Detailed state:  trans -1.266 12.470 15.430 quatxyzw -0.541983 0.801633 -0.235485 0.090480 center -0.174 -0.001 -0.047 ntor 10 164.6952 106.9879 87.4683 -108.6366 -57.2447 53.4777 138.5492 -21.0317 -157.7209 179.5259
State:	 -1.266  12.470  15.430  -0.544  0.805 -0.236 169.618    164.70  106.99   87.47 -108.64  -57.24   53.48  138.55  -21.03 -157.72  179.53

DOCKED: MODEL       85
DOCKED: USER    Run = 85
DOCKED: USER    DPF = D:/Protein_go_brrr/autodock/final/AncMH_nat/heme_Fe/dock.dpf
DOCKED: USER  
DOCKED: USER    Estimated Free Energy of Binding    =   -6.87 kcal/mol  [=(1)+(2)+(3)-(4)]
DOCKED: USER    Estimated Inhibition Constant, Ki   =    9.15 uM (micromolar)  [Temperature = 298.15 K]
DOCKED: USER    
DOCKED: USER    (1) Final Intermolecular Energy     =   -9.86 kcal/mol
DOCKED: USER        vdW + Hbond + desolv Energy     =   -7.47 kcal/mol
DOCKED: USER        Electrostatic Energy            =   -2.38 kcal/mol
DOCKED: USER    (2) Final Total Internal Energy     =   -0.64 kcal/mol
DOCKED: USER    (3) Torsional Free Energy           =   +2.98 kcal/mol
DOCKED: USER    (4) Unbound System's Energy  [=(2)] =   -0.64 kcal/mol
DOCKED: USER    
DOCKED: USER    
DOCKED: USER    NEWDPF move heme_Fe_opt.pdbqt
DOCKED: USER    NEWDPF about -0.174000 -0.001000 -0.047000
DOCKED: USER    NEWDPF tran0 -1.265646 12.469549 15.429631
DOCKED: USER    NEWDPF quaternion0 -0.541983 0.801633 -0.235485 0.090480
DOCKED: USER    NEWDPF axisangle0 -0.544215 0.804934 -0.236455 169.617601
DOCKED: USER    NEWDPF quat0 -0.544215 0.804934 -0.236455 169.617601
DOCKED: USER    NEWDPF dihe0 164.70 106.99 87.47 -108.64 -57.24 53.48 138.55 -21.03 -157.72 179.53 
DOCKED: USER  keepresnum = 1 
DOCKED: USER  
DOCKED: REMARK  10 active torsions:
DOCKED: REMARK  status: ('A' for Active; 'I' for Inactive)
DOCKED: REMARK    1  A    between atoms: C_6  and  C_10 
DOCKED: REMARK    2  A    between atoms: C_10  and  C_11 
DOCKED: REMARK    3  A    between atoms: C_11  and  C_12 
DOCKED: REMARK    4  A    between atoms: C_12  and  O_14 
DOCKED: REMARK    5  A    between atoms: C_17  and  C_20 
DOCKED: REMARK    6  A    between atoms: C_24  and  C_27 
DOCKED: REMARK    7  A    between atoms: C_31  and  C_34 
DOCKED: REMARK    8  A    between atoms: C_34  and  C_35 
DOCKED: REMARK    9  A    between atoms: C_35  and  C_36 
DOCKED: REMARK   10  A    between atoms: C_36  and  O_38 
DOCKED: USER                              x       y       z     vdW  Elec       q    Type
DOCKED: USER                           _______ _______ _______ _____ _____    ______ ____
DOCKED: ROOT
DOCKED: ATOM      1  C   UNL d   1      -0.368  13.836  14.189 -0.09 -0.01    +0.064 C 
DOCKED: ATOM      2  C   UNL d   1       1.194   9.907  16.749 -0.06 +0.02    +0.064 A 
DOCKED: ATOM      3  C   UNL d   1      -3.376   8.546  17.318 -0.27 -0.05    +0.064 C 
DOCKED: ATOM      4  C   UNL d   1      -4.916  12.397  14.934 -0.26 -0.01    +0.064 C 
DOCKED: ATOM      5  C   UNL d   1       0.491  12.901  14.928 -0.07 +0.00    +0.066 A 
DOCKED: ATOM      6  C   UNL d   1       1.861  13.038  15.081 -0.05 -0.01    -0.021 A 
DOCKED: ATOM      7  C   UNL d   1       2.295  11.945  15.789 -0.05 -0.01    -0.025 A 
DOCKED: ATOM      8  C   UNL d   1       1.171  11.181  16.042 -0.06 +0.02    +0.066 A 
DOCKED: ATOM      9  C   UNL d   1       3.705  11.669  16.211 -0.03 +0.02    +0.051 C 
DOCKED: ATOM     10  C   UNL d   1       0.119   9.180  17.056 -0.09 +0.00    +0.066 A 
DOCKED: ATOM     11  C   UNL d   1       0.182   7.909  17.633 -0.15 +0.00    -0.021 A 
DOCKED: ATOM     12  C   UNL d   1      -1.123   7.487  17.792 -0.18 -0.00    +0.000 A 
DOCKED: ATOM     13  C   UNL d   1      -1.922   8.530  17.291 -0.18 -0.03    +0.070 A 
DOCKED: ATOM     14  C   UNL d   1       1.426   7.106  17.954 -0.15 -0.00    +0.052 C 
DOCKED: ATOM     15  C   UNL d   1      -4.151   9.524  16.791 -0.23 -0.04    +0.066 A 
DOCKED: ATOM     16  C   UNL d   1      -5.533   9.552  16.925 -0.22 +0.01    -0.021 A 
DOCKED: ATOM     17  C   UNL d   1      -5.979  10.660  16.235 -0.21 -0.00    +0.000 A 
DOCKED: ATOM     18  C   UNL d   1      -4.857  11.281  15.692 -0.17 -0.02    +0.070 A 
DOCKED: ATOM     19  C   UNL d   1      -6.405   8.564  17.652 -0.19 -0.05    +0.052 C 
DOCKED: ATOM     20  C   UNL d   1      -3.752  13.112  14.396 -0.19 -0.01    +0.066 A 
DOCKED: ATOM     21  C   UNL d   1      -3.802  14.146  13.451 -0.30 +0.00    -0.025 A 
DOCKED: ATOM     22  C   UNL d   1      -2.496  14.550  13.263 -0.22 +0.00    -0.021 A 
DOCKED: ATOM     23  C   UNL d   1      -1.704  13.746  14.092 -0.12 -0.02    +0.066 A 
DOCKED: ATOM     24  C   UNL d   1      -5.009  14.728  12.752 -0.36 -0.00    +0.051 C 
DOCKED: ATOM     25  N   UNL d   1       0.074  11.770  15.525 -0.05 -0.03    -0.248 N 
DOCKED: ATOM     26  N   UNL d   1      -1.166   9.558  16.834 -0.05 +0.04    -0.248 N 
DOCKED: ATOM     27  N   UNL d   1      -3.729  10.608  16.069 -0.11 +0.07    -0.248 N 
DOCKED: ATOM     28  N   UNL d   1      -2.471  12.841  14.747 -0.07 +0.05    -0.248 N 
DOCKED: ATOM     29 FE   UNL d   1      -1.820  11.200  15.790 -0.03 -0.00    +0.000 Fe
DOCKED: ENDROOT
DOCKED: BRANCH   6  30
DOCKED: ATOM     30  C   UNL d   1       2.714  14.161  14.599 -0.02 +0.01    +0.052 C 
DOCKED: BRANCH  30  31
DOCKED: ATOM     31  C   UNL d   1       2.794  14.164  13.076 -0.05 +0.02    +0.115 C 
DOCKED: BRANCH  31  32
DOCKED: ATOM     32  C   UNL d   1       2.945  12.761  12.555 +0.00 +0.09    +0.139 C 
DOCKED: ATOM     33  O   UNL d   1       3.878  12.059  12.917 -0.00 -0.73    -0.650 OA
DOCKED: BRANCH  32  34
DOCKED: ATOM     34  O   UNL d   1       2.051  12.266  11.683 -0.35 -0.34    -0.776 OA
DOCKED: ATOM     35  H   UNL d   1       1.206  12.721  11.567 -0.54 -0.18    +0.167 HD
DOCKED: ENDBRANCH  32  34
DOCKED: ENDBRANCH  31  32
DOCKED: ENDBRANCH  30  31
DOCKED: ENDBRANCH   6  30
DOCKED: BRANCH  22  36
DOCKED: ATOM     36  C   UNL d   1      -2.034  15.615  12.303 -0.17 +0.02    +0.052 C 
DOCKED: BRANCH  36  37
DOCKED: ATOM     37  C   UNL d   1      -1.877  15.019  10.912 -0.18 -0.01    +0.115 C 
DOCKED: BRANCH  37  38
DOCKED: ATOM     38  C   UNL d   1      -1.942  16.087   9.858 -0.27 +0.10    +0.139 C 
DOCKED: ATOM     39  O   UNL d   1      -1.214  17.067   9.914 -0.25 -0.89    -0.650 OA
DOCKED: BRANCH  38  40
DOCKED: ATOM     40  O   UNL d   1      -2.813  15.973   8.839 -0.04 -0.41    -0.776 OA
DOCKED: ATOM     41  H   UNL d   1      -2.636  15.327   8.140 -0.50 -0.01    +0.167 HD
DOCKED: ENDBRANCH  38  40
DOCKED: ENDBRANCH  37  38
DOCKED: ENDBRANCH  36  37
DOCKED: ENDBRANCH  22  36
DOCKED: BRANCH  12  42
DOCKED: ATOM     42  C   UNL d   1      -1.532   6.169  18.367 -0.13 -0.00    +0.004 C 
DOCKED: ATOM     43  C   UNL d   1      -2.522   6.086  19.265 -0.20 -0.01    +0.012 C 
DOCKED: ENDBRANCH  12  42
DOCKED: BRANCH  17  44
DOCKED: ATOM     44  C   UNL d   1      -7.386  11.107  16.121 -0.28 -0.00    +0.004 C 
DOCKED: ATOM     45  C   UNL d   1      -8.333  10.280  15.667 -0.29 -0.00    +0.012 C 
DOCKED: ENDBRANCH  17  44
DOCKED: TORSDOF 10
DOCKED: TER
DOCKED: ENDMDL
________________________________________________________________________________


	BEGINNING GENETIC ALGORITHM DOCKING 86 of 100
Run: 86 Seed: 474677573 1274206020 [ Run 86 of 100 GA/GALS ]
Beginning LAMARCKIAN GENETIC ALGORITHM (LGA), with a maximum of 25000000 energy evaluations.

Final-Value: -16.238


	FINAL GENETIC ALGORITHM DOCKED STATE
	_______________________________________________


Detailed state:  trans -10.362 0.871 3.297 quatxyzw -0.792788 0.041060 -0.138786 0.592064 center -0.174 -0.001 -0.047 ntor 10 58.0561 153.9636 50.3890 -121.0704 86.4547 -119.5655 -46.9202 25.4829 -137.2955 178.9158
State:	-10.362   0.871   3.297  -0.984  0.051 -0.172 107.393     58.06  153.96   50.39 -121.07   86.45 -119.57  -46.92   25.48 -137.30  178.92

DOCKED: MODEL       86
DOCKED: USER    Run = 86
DOCKED: USER    DPF = D:/Protein_go_brrr/autodock/final/AncMH_nat/heme_Fe/dock.dpf
DOCKED: USER  
DOCKED: USER    Estimated Free Energy of Binding    =  -11.73 kcal/mol  [=(1)+(2)+(3)-(4)]
DOCKED: USER    Estimated Inhibition Constant, Ki   =    2.53 nM (nanomolar)  [Temperature = 298.15 K]
DOCKED: USER    
DOCKED: USER    (1) Final Intermolecular Energy     =  -14.71 kcal/mol
DOCKED: USER        vdW + Hbond + desolv Energy     =  -11.76 kcal/mol
DOCKED: USER        Electrostatic Energy            =   -2.95 kcal/mol
DOCKED: USER    (2) Final Total Internal Energy     =   -1.53 kcal/mol
DOCKED: USER    (3) Torsional Free Energy           =   +2.98 kcal/mol
DOCKED: USER    (4) Unbound System's Energy  [=(2)] =   -1.53 kcal/mol
DOCKED: USER    
DOCKED: USER    
DOCKED: USER    NEWDPF move heme_Fe_opt.pdbqt
DOCKED: USER    NEWDPF about -0.174000 -0.001000 -0.047000
DOCKED: USER    NEWDPF tran0 -10.361519 0.871204 3.296872
DOCKED: USER    NEWDPF quaternion0 -0.792788 0.041060 -0.138786 0.592064
DOCKED: USER    NEWDPF axisangle0 -0.983741 0.050950 -0.172215 107.392719
DOCKED: USER    NEWDPF quat0 -0.983741 0.050950 -0.172215 107.392719
DOCKED: USER    NEWDPF dihe0 58.06 153.96 50.39 -121.07 86.45 -119.57 -46.92 25.48 -137.30 178.92 
DOCKED: USER  keepresnum = 1 
DOCKED: USER  
DOCKED: REMARK  10 active torsions:
DOCKED: REMARK  status: ('A' for Active; 'I' for Inactive)
DOCKED: REMARK    1  A    between atoms: C_6  and  C_10 
DOCKED: REMARK    2  A    between atoms: C_10  and  C_11 
DOCKED: REMARK    3  A    between atoms: C_11  and  C_12 
DOCKED: REMARK    4  A    between atoms: C_12  and  O_14 
DOCKED: REMARK    5  A    between atoms: C_17  and  C_20 
DOCKED: REMARK    6  A    between atoms: C_24  and  C_27 
DOCKED: REMARK    7  A    between atoms: C_31  and  C_34 
DOCKED: REMARK    8  A    between atoms: C_34  and  C_35 
DOCKED: REMARK    9  A    between atoms: C_35  and  C_36 
DOCKED: REMARK   10  A    between atoms: C_36  and  O_38 
DOCKED: USER                              x       y       z     vdW  Elec       q    Type
DOCKED: USER                           _______ _______ _______ _____ _____    ______ ____
DOCKED: ROOT
DOCKED: ATOM      1  C   UNL d   1     -12.155   0.187   2.571 -0.32 +0.04    +0.064 C 
DOCKED: ATOM      2  C   UNL d   1      -7.926   1.716   0.520 -0.37 +0.01    +0.064 A 
DOCKED: ATOM      3  C   UNL d   1      -5.781   1.302   4.797 -0.15 +0.00    +0.064 C 
DOCKED: ATOM      4  C   UNL d   1      -9.888  -0.079   6.825 -0.39 +0.01    +0.064 C 
DOCKED: ATOM      5  C   UNL d   1     -11.184   0.735   1.615 -0.27 +0.04    +0.066 A 
DOCKED: ATOM      6  C   UNL d   1     -11.475   1.091   0.308 -0.26 -0.02    -0.021 A 
DOCKED: ATOM      7  C   UNL d   1     -10.299   1.512  -0.262 -0.30 -0.01    -0.025 A 
DOCKED: ATOM      8  C   UNL d   1      -9.334   1.398   0.720 -0.33 +0.02    +0.066 A 
DOCKED: ATOM      9  C   UNL d   1     -10.127   2.013  -1.663 -0.23 +0.01    +0.051 C 
DOCKED: ATOM     10  C   UNL d   1      -6.986   1.669   1.465 -0.38 +0.01    +0.066 A 
DOCKED: ATOM     11  C   UNL d   1      -5.626   1.869   1.216 -0.42 -0.00    -0.021 A 
DOCKED: ATOM     12  C   UNL d   1      -4.984   1.738   2.431 -0.36 +0.00    +0.000 A 
DOCKED: ATOM     13  C   UNL d   1      -5.994   1.454   3.366 -0.33 +0.00    +0.070 A 
DOCKED: ATOM     14  C   UNL d   1      -4.962   2.104  -0.125 -0.54 -0.00    +0.052 C 
DOCKED: ATOM     15  C   UNL d   1      -6.742   0.978   5.694 -0.33 +0.01    +0.066 A 
DOCKED: ATOM     16  C   UNL d   1      -6.520   0.940   7.064 -0.42 -0.00    -0.021 A 
DOCKED: ATOM     17  C   UNL d   1      -7.702   0.539   7.651 -0.45 +0.00    +0.000 A 
DOCKED: ATOM     18  C   UNL d   1      -8.619   0.336   6.622 -0.36 +0.01    +0.070 A 
DOCKED: ATOM     19  C   UNL d   1      -5.240   1.245   7.795 -0.54 -0.00    +0.052 C 
DOCKED: ATOM     20  C   UNL d   1     -10.899  -0.243   5.773 -0.38 +0.01    +0.066 A 
DOCKED: ATOM     21  C   UNL d   1     -12.147  -0.859   5.939 -0.37 -0.01    -0.025 A 
DOCKED: ATOM     22  C   UNL d   1     -12.782  -0.761   4.717 -0.29 -0.01    -0.021 A 
DOCKED: ATOM     23  C   UNL d   1     -11.897  -0.098   3.858 -0.24 +0.03    +0.066 A 
DOCKED: ATOM     24  C   UNL d   1     -12.721  -1.512   7.175 -0.27 +0.01    +0.051 C 
DOCKED: ATOM     25  N   UNL d   1      -9.877   0.934   1.863 -0.19 -0.08    -0.248 N 
DOCKED: ATOM     26  N   UNL d   1      -7.214   1.403   2.776 -0.22 -0.03    -0.248 N 
DOCKED: ATOM     27  N   UNL d   1      -8.043   0.648   5.422 +0.03 -0.08    -0.248 N 
DOCKED: ATOM     28  N   UNL d   1     -10.733   0.175   4.495 -0.24 -0.08    -0.248 N 
DOCKED: ATOM     29 FE   UNL d   1      -8.974   0.788   3.638 -0.08 +0.00    +0.000 Fe
DOCKED: ENDROOT
DOCKED: BRANCH   6  30
DOCKED: ATOM     30  C   UNL d   1     -12.806   1.055  -0.361 -0.08 +0.07    +0.052 C 
DOCKED: BRANCH  30  31
DOCKED: ATOM     31  C   UNL d   1     -13.499  -0.281  -0.112 -0.18 +0.15    +0.115 C 
DOCKED: BRANCH  31  32
DOCKED: ATOM     32  C   UNL d   1     -14.929  -0.064   0.299 +0.21 +0.27    +0.139 C 
DOCKED: ATOM     33  O   UNL d   1     -15.808   0.058  -0.542 -0.29 -1.13    -0.650 OA
DOCKED: BRANCH  32  34
DOCKED: ATOM     34  O   UNL d   1     -15.253  -0.002   1.602 -0.14 -1.43    -0.776 OA
DOCKED: ATOM     35  H   UNL d   1     -15.902  -0.627   1.954 +0.04 +0.22    +0.167 HD
DOCKED: ENDBRANCH  32  34
DOCKED: ENDBRANCH  31  32
DOCKED: ENDBRANCH  30  31
DOCKED: ENDBRANCH   6  30
DOCKED: BRANCH  22  36
DOCKED: ATOM     36  C   UNL d   1     -14.141  -1.317   4.385 -0.24 +0.03    +0.052 C 
DOCKED: BRANCH  36  37
DOCKED: ATOM     37  C   UNL d   1     -14.016  -2.785   4.003 -0.24 +0.07    +0.115 C 
DOCKED: BRANCH  37  38
DOCKED: ATOM     38  C   UNL d   1     -15.157  -3.211   3.123 -0.14 +0.12    +0.139 C 
DOCKED: ATOM     39  O   UNL d   1     -15.917  -4.102   3.473 +0.05 -0.50    -0.650 OA
DOCKED: BRANCH  38  40
DOCKED: ATOM     40  O   UNL d   1     -15.348  -2.613   1.934 +0.10 -0.90    -0.776 OA
DOCKED: ATOM     41  H   UNL d   1     -15.034  -1.707   1.808 +0.05 +0.19    +0.167 HD
DOCKED: ENDBRANCH  38  40
DOCKED: ENDBRANCH  37  38
DOCKED: ENDBRANCH  36  37
DOCKED: ENDBRANCH  22  36
DOCKED: BRANCH  12  42
DOCKED: ATOM     42  C   UNL d   1      -3.508   1.864   2.637 -0.37 -0.00    +0.004 C 
DOCKED: ATOM     43  C   UNL d   1      -2.968   3.008   3.077 -0.48 -0.00    +0.012 C 
DOCKED: ENDBRANCH  12  42
DOCKED: BRANCH  17  44
DOCKED: ATOM     44  C   UNL d   1      -7.944   0.379   9.103 -0.40 +0.00    +0.004 C 
DOCKED: ATOM     45  C   UNL d   1      -7.325  -0.580   9.799 -0.64 +0.00    +0.012 C 
DOCKED: ENDBRANCH  17  44
DOCKED: TORSDOF 10
DOCKED: TER
DOCKED: ENDMDL
________________________________________________________________________________


	BEGINNING GENETIC ALGORITHM DOCKING 87 of 100
Run: 87 Seed: 640713803 168514178 [ Run 87 of 100 GA/GALS ]
Beginning LAMARCKIAN GENETIC ALGORITHM (LGA), with a maximum of 25000000 energy evaluations.

Final-Value: -15.040


	FINAL GENETIC ALGORITHM DOCKED STATE
	_______________________________________________


Detailed state:  trans -14.602 -1.468 3.281 quatxyzw 0.615268 0.216525 -0.069689 0.754788 center -0.174 -0.001 -0.047 ntor 10 62.9323 -67.3720 74.3145 -159.8534 -67.8790 88.4394 -114.2859 122.0001 165.6585 -169.4426
State:	-14.602  -1.468   3.281   0.938  0.330 -0.106 81.986     62.93  -67.37   74.31 -159.85  -67.88   88.44 -114.29  122.00  165.66 -169.44

DOCKED: MODEL       87
DOCKED: USER    Run = 87
DOCKED: USER    DPF = D:/Protein_go_brrr/autodock/final/AncMH_nat/heme_Fe/dock.dpf
DOCKED: USER  
DOCKED: USER    Estimated Free Energy of Binding    =   -9.97 kcal/mol  [=(1)+(2)+(3)-(4)]
DOCKED: USER    Estimated Inhibition Constant, Ki   =   49.13 nM (nanomolar)  [Temperature = 298.15 K]
DOCKED: USER    
DOCKED: USER    (1) Final Intermolecular Energy     =  -12.95 kcal/mol
DOCKED: USER        vdW + Hbond + desolv Energy     =   -9.28 kcal/mol
DOCKED: USER        Electrostatic Energy            =   -3.67 kcal/mol
DOCKED: USER    (2) Final Total Internal Energy     =   -2.09 kcal/mol
DOCKED: USER    (3) Torsional Free Energy           =   +2.98 kcal/mol
DOCKED: USER    (4) Unbound System's Energy  [=(2)] =   -2.09 kcal/mol
DOCKED: USER    
DOCKED: USER    
DOCKED: USER    NEWDPF move heme_Fe_opt.pdbqt
DOCKED: USER    NEWDPF about -0.174000 -0.001000 -0.047000
DOCKED: USER    NEWDPF tran0 -14.602234 -1.468176 3.281150
DOCKED: USER    NEWDPF quaternion0 0.615268 0.216525 -0.069689 0.754788
DOCKED: USER    NEWDPF axisangle0 0.937954 0.330084 -0.106238 81.986271
DOCKED: USER    NEWDPF quat0 0.937954 0.330084 -0.106238 81.986271
DOCKED: USER    NEWDPF dihe0 62.93 -67.37 74.31 -159.85 -67.88 88.44 -114.29 122.00 165.66 -169.44 
DOCKED: USER  keepresnum = 1 
DOCKED: USER  
DOCKED: REMARK  10 active torsions:
DOCKED: REMARK  status: ('A' for Active; 'I' for Inactive)
DOCKED: REMARK    1  A    between atoms: C_6  and  C_10 
DOCKED: REMARK    2  A    between atoms: C_10  and  C_11 
DOCKED: REMARK    3  A    between atoms: C_11  and  C_12 
DOCKED: REMARK    4  A    between atoms: C_12  and  O_14 
DOCKED: REMARK    5  A    between atoms: C_17  and  C_20 
DOCKED: REMARK    6  A    between atoms: C_24  and  C_27 
DOCKED: REMARK    7  A    between atoms: C_31  and  C_34 
DOCKED: REMARK    8  A    between atoms: C_34  and  C_35 
DOCKED: REMARK    9  A    between atoms: C_35  and  C_36 
DOCKED: REMARK   10  A    between atoms: C_36  and  O_38 
DOCKED: USER                              x       y       z     vdW  Elec       q    Type
DOCKED: USER                           _______ _______ _______ _____ _____    ______ ____
DOCKED: ROOT
DOCKED: ATOM      1  C   UNL d   1     -16.607  -1.740   2.939 -0.11 +0.05    +0.064 C 
DOCKED: ATOM      2  C   UNL d   1     -13.789  -1.332   6.980 -0.32 +0.01    +0.064 A 
DOCKED: ATOM      3  C   UNL d   1     -10.228   0.365   4.240 -0.31 +0.02    +0.064 C 
DOCKED: ATOM      4  C   UNL d   1     -12.902  -0.121   0.303 -0.25 +0.07    +0.064 C 
DOCKED: ATOM      5  C   UNL d   1     -16.116  -1.861   4.319 -0.10 +0.04    +0.066 A 
DOCKED: ATOM      6  C   UNL d   1     -16.831  -2.417   5.367 -0.10 -0.01    -0.021 A 
DOCKED: ATOM      7  C   UNL d   1     -16.049  -2.300   6.489 -0.16 -0.01    -0.025 A 
DOCKED: ATOM      8  C   UNL d   1     -14.885  -1.677   6.083 -0.13 +0.02    +0.066 A 
DOCKED: ATOM      9  C   UNL d   1     -16.401  -2.780   7.864 -0.25 +0.01    +0.051 C 
DOCKED: ATOM     10  C   UNL d   1     -12.633  -0.784   6.604 -0.36 +0.01    +0.066 A 
DOCKED: ATOM     11  C   UNL d   1     -11.649  -0.360   7.500 -0.48 -0.00    -0.021 A 
DOCKED: ATOM     12  C   UNL d   1     -10.618   0.149   6.735 -0.48 +0.00    +0.000 A 
DOCKED: ATOM     13  C   UNL d   1     -11.034   0.016   5.399 -0.39 +0.02    +0.070 A 
DOCKED: ATOM     14  C   UNL d   1     -11.715  -0.376   9.013 -0.52 +0.01    +0.052 C 
DOCKED: ATOM     15  C   UNL d   1     -10.644   0.287   2.954 -0.23 +0.03    +0.066 A 
DOCKED: ATOM     16  C   UNL d   1      -9.811   0.534   1.871 -0.34 -0.01    -0.021 A 
DOCKED: ATOM     17  C   UNL d   1     -10.581   0.398   0.734 -0.34 +0.00    +0.000 A 
DOCKED: ATOM     18  C   UNL d   1     -11.869   0.074   1.152 -0.25 +0.05    +0.070 A 
DOCKED: ATOM     19  C   UNL d   1      -8.353   0.909   1.900 -0.41 +0.01    +0.052 C 
DOCKED: ATOM     20  C   UNL d   1     -14.256  -0.523   0.703 -0.19 +0.09    +0.066 A 
DOCKED: ATOM     21  C   UNL d   1     -15.379  -0.534  -0.137 -0.15 -0.04    -0.025 A 
DOCKED: ATOM     22  C   UNL d   1     -16.420  -1.011   0.631 -0.13 -0.03    -0.021 A 
DOCKED: ATOM     23  C   UNL d   1     -15.897  -1.264   1.904 -0.14 +0.07    +0.066 A 
DOCKED: ATOM     24  C   UNL d   1     -15.477  -0.116  -1.586 -0.14 +0.06    +0.051 C 
DOCKED: ATOM     25  N   UNL d   1     -14.925  -1.420   4.760 -0.08 -0.13    -0.248 N 
DOCKED: ATOM     26  N   UNL d   1     -12.266  -0.544   5.319 -0.26 -0.07    -0.248 N 
DOCKED: ATOM     27  N   UNL d   1     -11.899  -0.037   2.514 -0.16 -0.16    -0.248 N 
DOCKED: ATOM     28  N   UNL d   1     -14.587  -0.923   1.954 -0.15 -0.29    -0.248 N 
DOCKED: ATOM     29 FE   UNL d   1     -13.426  -0.733   3.635 -0.06 +0.00    +0.000 Fe
DOCKED: ENDROOT
DOCKED: BRANCH   6  30
DOCKED: ATOM     30  C   UNL d   1     -18.180  -3.047   5.304 -0.08 +0.02    +0.052 C 
DOCKED: BRANCH  30  31
DOCKED: ATOM     31  C   UNL d   1     -19.237  -2.122   5.897 -0.05 +0.06    +0.115 C 
DOCKED: BRANCH  31  32
DOCKED: ATOM     32  C   UNL d   1     -19.384  -0.884   5.056 -0.09 +0.12    +0.139 C 
DOCKED: ATOM     33  O   UNL d   1     -18.481  -0.062   4.994 -0.02 -0.72    -0.650 OA
DOCKED: BRANCH  32  34
DOCKED: ATOM     34  O   UNL d   1     -20.516  -0.670   4.364 -0.08 -0.87    -0.776 OA
DOCKED: ATOM     35  H   UNL d   1     -20.474  -0.630   3.398 +0.01 +0.20    +0.167 HD
DOCKED: ENDBRANCH  32  34
DOCKED: ENDBRANCH  31  32
DOCKED: ENDBRANCH  30  31
DOCKED: ENDBRANCH   6  30
DOCKED: BRANCH  22  36
DOCKED: ATOM     36  C   UNL d   1     -17.848  -1.166   0.178 -0.06 +0.05    +0.052 C 
DOCKED: BRANCH  36  37
DOCKED: ATOM     37  C   UNL d   1     -18.498   0.204   0.049 -0.05 +0.12    +0.115 C 
DOCKED: BRANCH  37  38
DOCKED: ATOM     38  C   UNL d   1     -18.464   0.941   1.358 -0.12 +0.22    +0.139 C 
DOCKED: ATOM     39  O   UNL d   1     -17.508   1.641   1.657 +0.01 -1.49    -0.650 OA
DOCKED: BRANCH  38  40
DOCKED: ATOM     40  O   UNL d   1     -19.493   0.831   2.217 -0.06 -1.57    -0.776 OA
DOCKED: ATOM     41  H   UNL d   1     -19.356   0.376   3.059 +0.01 +0.32    +0.167 HD
DOCKED: ENDBRANCH  38  40
DOCKED: ENDBRANCH  37  38
DOCKED: ENDBRANCH  36  37
DOCKED: ENDBRANCH  22  36
DOCKED: BRANCH  12  42
DOCKED: ATOM     42  C   UNL d   1      -9.352   0.728   7.282 -0.48 +0.00    +0.004 C 
DOCKED: ATOM     43  C   UNL d   1      -8.159   0.226   6.938 -0.47 +0.00    +0.012 C 
DOCKED: ENDBRANCH  12  42
DOCKED: BRANCH  17  44
DOCKED: ATOM     44  C   UNL d   1     -10.109   0.548  -0.661 -0.39 +0.00    +0.004 C 
DOCKED: ATOM     45  C   UNL d   1     -10.425   1.631  -1.378 -0.34 +0.00    +0.012 C 
DOCKED: ENDBRANCH  17  44
DOCKED: TORSDOF 10
DOCKED: TER
DOCKED: ENDMDL
________________________________________________________________________________


	BEGINNING GENETIC ALGORITHM DOCKING 88 of 100
Run: 88 Seed: 1600079787 161181380 [ Run 88 of 100 GA/GALS ]
Beginning LAMARCKIAN GENETIC ALGORITHM (LGA), with a maximum of 25000000 energy evaluations.

Final-Value: -10.889


	FINAL GENETIC ALGORITHM DOCKED STATE
	_______________________________________________


Detailed state:  trans -16.350 8.582 17.480 quatxyzw 0.906217 0.152563 -0.313873 -0.238701 center -0.174 -0.001 -0.047 ntor 10 -120.3801 179.2464 0.3004 -151.8152 -69.6533 46.7159 164.3019 -131.7762 -155.2677 147.5974
State:	-16.350   8.582  17.480   0.933  0.157 -0.323 -152.380   -120.38  179.25    0.30 -151.82  -69.65   46.72  164.30 -131.78 -155.27  147.60

DOCKED: MODEL       88
DOCKED: USER    Run = 88
DOCKED: USER    DPF = D:/Protein_go_brrr/autodock/final/AncMH_nat/heme_Fe/dock.dpf
DOCKED: USER  
DOCKED: USER    Estimated Free Energy of Binding    =   -6.53 kcal/mol  [=(1)+(2)+(3)-(4)]
DOCKED: USER    Estimated Inhibition Constant, Ki   =   16.34 uM (micromolar)  [Temperature = 298.15 K]
DOCKED: USER    
DOCKED: USER    (1) Final Intermolecular Energy     =   -9.51 kcal/mol
DOCKED: USER        vdW + Hbond + desolv Energy     =   -6.56 kcal/mol
DOCKED: USER        Electrostatic Energy            =   -2.95 kcal/mol
DOCKED: USER    (2) Final Total Internal Energy     =   -1.38 kcal/mol
DOCKED: USER    (3) Torsional Free Energy           =   +2.98 kcal/mol
DOCKED: USER    (4) Unbound System's Energy  [=(2)] =   -1.38 kcal/mol
DOCKED: USER    
DOCKED: USER    
DOCKED: USER    NEWDPF move heme_Fe_opt.pdbqt
DOCKED: USER    NEWDPF about -0.174000 -0.001000 -0.047000
DOCKED: USER    NEWDPF tran0 -16.350112 8.581865 17.480401
DOCKED: USER    NEWDPF quaternion0 0.906217 0.152563 -0.313873 -0.238701
DOCKED: USER    NEWDPF axisangle0 0.933193 0.157105 -0.323216 -152.380190
DOCKED: USER    NEWDPF quat0 0.933193 0.157105 -0.323216 -152.380190
DOCKED: USER    NEWDPF dihe0 -120.38 179.25 0.30 -151.82 -69.65 46.72 164.30 -131.78 -155.27 147.60 
DOCKED: USER  keepresnum = 1 
DOCKED: USER  
DOCKED: REMARK  10 active torsions:
DOCKED: REMARK  status: ('A' for Active; 'I' for Inactive)
DOCKED: REMARK    1  A    between atoms: C_6  and  C_10 
DOCKED: REMARK    2  A    between atoms: C_10  and  C_11 
DOCKED: REMARK    3  A    between atoms: C_11  and  C_12 
DOCKED: REMARK    4  A    between atoms: C_12  and  O_14 
DOCKED: REMARK    5  A    between atoms: C_17  and  C_20 
DOCKED: REMARK    6  A    between atoms: C_24  and  C_27 
DOCKED: REMARK    7  A    between atoms: C_31  and  C_34 
DOCKED: REMARK    8  A    between atoms: C_34  and  C_35 
DOCKED: REMARK    9  A    between atoms: C_35  and  C_36 
DOCKED: REMARK   10  A    between atoms: C_36  and  O_38 
DOCKED: USER                              x       y       z     vdW  Elec       q    Type
DOCKED: USER                           _______ _______ _______ _____ _____    ______ ____
DOCKED: ROOT
DOCKED: ATOM      1  C   UNL d   1     -18.138   8.099  18.365 -0.07 +0.06    +0.064 C 
DOCKED: ATOM      2  C   UNL d   1     -16.697  11.456  15.035 -0.09 +0.02    +0.064 A 
DOCKED: ATOM      3  C   UNL d   1     -12.595   9.023  14.460 -0.40 -0.00    +0.064 C 
DOCKED: ATOM      4  C   UNL d   1     -13.925   5.822  17.757 -0.13 +0.01    +0.064 C 
DOCKED: ATOM      5  C   UNL d   1     -18.077   9.315  17.543 -0.01 +0.07    +0.066 A 
DOCKED: ATOM      6  C   UNL d   1     -19.036  10.315  17.536 -0.05 -0.01    -0.021 A 
DOCKED: ATOM      7  C   UNL d   1     -18.637  11.245  16.609 -0.05 -0.01    -0.025 A 
DOCKED: ATOM      8  C   UNL d   1     -17.448  10.777  16.084 -0.08 +0.04    +0.066 A 
DOCKED: ATOM      9  C   UNL d   1     -19.353  12.515  16.267 -0.01 +0.01    +0.051 C 
DOCKED: ATOM     10  C   UNL d   1     -15.519  11.056  14.552 -0.15 +0.01    +0.066 A 
DOCKED: ATOM     11  C   UNL d   1     -14.879  11.663  13.469 -0.22 +0.00    -0.021 A 
DOCKED: ATOM     12  C   UNL d   1     -13.702  10.970  13.272 -0.36 -0.00    +0.000 A 
DOCKED: ATOM     13  C   UNL d   1     -13.688   9.960  14.250 -0.28 +0.00    +0.070 A 
DOCKED: ATOM     14  C   UNL d   1     -15.397  12.806  12.619 -0.20 -0.01    +0.052 C 
DOCKED: ATOM     15  C   UNL d   1     -12.600   8.017  15.366 -0.29 +0.00    +0.066 A 
DOCKED: ATOM     16  C   UNL d   1     -11.497   7.206  15.605 -0.36 +0.00    -0.021 A 
DOCKED: ATOM     17  C   UNL d   1     -11.880   6.280  16.553 -0.25 -0.00    +0.000 A 
DOCKED: ATOM     18  C   UNL d   1     -13.211   6.545  16.868 -0.17 +0.00    +0.070 A 
DOCKED: ATOM     19  C   UNL d   1     -10.144   7.281  14.951 -0.51 -0.02    +0.052 C 
DOCKED: ATOM     20  C   UNL d   1     -15.308   6.109  18.159 -0.09 +0.02    +0.066 A 
DOCKED: ATOM     21  C   UNL d   1     -16.123   5.260  18.921 -0.05 -0.01    -0.025 A 
DOCKED: ATOM     22  C   UNL d   1     -17.314   5.934  19.093 -0.05 -0.01    -0.021 A 
DOCKED: ATOM     23  C   UNL d   1     -17.182   7.159  18.427 -0.08 +0.05    +0.066 A 
DOCKED: ATOM     24  C   UNL d   1     -15.808   3.884  19.460 -0.02 +0.01    +0.051 C 
DOCKED: ATOM     25  N   UNL d   1     -17.105   9.608  16.661 -0.04 -0.27    -0.248 N 
DOCKED: ATOM     26  N   UNL d   1     -14.800  10.006  15.025 -0.13 -0.06    -0.248 N 
DOCKED: ATOM     27  N   UNL d   1     -13.641   7.640  16.171 -0.14 -0.05    -0.248 N 
DOCKED: ATOM     28  N   UNL d   1     -15.972   7.241  17.822 -0.09 -0.15    -0.248 N 
DOCKED: ATOM     29 FE   UNL d   1     -15.385   8.622  16.424 -0.03 +0.00    +0.000 Fe
DOCKED: ENDROOT
DOCKED: BRANCH   6  30
DOCKED: ATOM     30  C   UNL d   1     -20.260  10.395  18.383 -0.01 +0.02    +0.052 C 
DOCKED: BRANCH  30  31
DOCKED: ATOM     31  C   UNL d   1     -21.232   9.274  18.035 -0.02 +0.05    +0.115 C 
DOCKED: BRANCH  31  32
DOCKED: ATOM     32  C   UNL d   1     -20.870   8.654  16.714 +0.01 +0.15    +0.139 C 
DOCKED: ATOM     33  O   UNL d   1     -21.021   9.276  15.672 -0.32 -0.74    -0.650 OA
DOCKED: BRANCH  32  34
DOCKED: ATOM     34  O   UNL d   1     -20.375   7.406  16.667 +0.37 -1.43    -0.776 OA
DOCKED: ATOM     35  H   UNL d   1     -20.907   6.677  17.016 +0.00 +0.18    +0.167 HD
DOCKED: ENDBRANCH  32  34
DOCKED: ENDBRANCH  31  32
DOCKED: ENDBRANCH  30  31
DOCKED: ENDBRANCH   6  30
DOCKED: BRANCH  22  36
DOCKED: ATOM     36  C   UNL d   1     -18.526   5.408  19.815 -0.02 +0.02    +0.052 C 
DOCKED: BRANCH  36  37
DOCKED: ATOM     37  C   UNL d   1     -19.679   5.249  18.834 -0.03 +0.05    +0.115 C 
DOCKED: BRANCH  37  38
DOCKED: ATOM     38  C   UNL d   1     -19.231   4.542  17.586 -0.07 +0.09    +0.139 C 
DOCKED: ATOM     39  O   UNL d   1     -18.554   3.527  17.651 +0.00 -0.26    -0.650 OA
DOCKED: BRANCH  38  40
DOCKED: ATOM     40  O   UNL d   1     -19.572   5.029  16.380 -0.57 -1.10    -0.776 OA
DOCKED: ATOM     41  H   UNL d   1     -20.118   5.827  16.332 +0.00 +0.32    +0.167 HD
DOCKED: ENDBRANCH  38  40
DOCKED: ENDBRANCH  37  38
DOCKED: ENDBRANCH  36  37
DOCKED: ENDBRANCH  22  36
DOCKED: BRANCH  12  42
DOCKED: ATOM     42  C   UNL d   1     -12.699  11.270  12.204 -0.45 -0.00    +0.004 C 
DOCKED: ATOM     43  C   UNL d   1     -12.271  12.522  11.993 -0.39 -0.00    +0.012 C 
DOCKED: ENDBRANCH  12  42
DOCKED: BRANCH  17  44
DOCKED: ATOM     44  C   UNL d   1     -11.022   5.223  17.135 -0.32 -0.00    +0.004 C 
DOCKED: ATOM     45  C   UNL d   1     -11.066   3.971  16.668 -0.35 -0.00    +0.012 C 
DOCKED: ENDBRANCH  17  44
DOCKED: TORSDOF 10
DOCKED: TER
DOCKED: ENDMDL
________________________________________________________________________________


	BEGINNING GENETIC ALGORITHM DOCKING 89 of 100
Run: 89 Seed: 688679203 749655021 [ Run 89 of 100 GA/GALS ]
Beginning LAMARCKIAN GENETIC ALGORITHM (LGA), with a maximum of 25000000 energy evaluations.

Final-Value: -15.089


	FINAL GENETIC ALGORITHM DOCKED STATE
	_______________________________________________


Detailed state:  trans -14.294 -1.394 3.605 quatxyzw -0.618593 -0.172790 0.093387 -0.760766 center -0.174 -0.001 -0.047 ntor 10 -46.8558 106.1551 53.3308 -160.0401 85.5902 -176.2873 -107.0241 105.2848 173.9561 -153.7434
State:	-14.294  -1.394   3.605  -0.953 -0.266  0.144 -80.936    -46.86  106.16   53.33 -160.04   85.59 -176.29 -107.02  105.28  173.96 -153.74

DOCKED: MODEL       89
DOCKED: USER    Run = 89
DOCKED: USER    DPF = D:/Protein_go_brrr/autodock/final/AncMH_nat/heme_Fe/dock.dpf
DOCKED: USER  
DOCKED: USER    Estimated Free Energy of Binding    =   -9.99 kcal/mol  [=(1)+(2)+(3)-(4)]
DOCKED: USER    Estimated Inhibition Constant, Ki   =   47.30 nM (nanomolar)  [Temperature = 298.15 K]
DOCKED: USER    
DOCKED: USER    (1) Final Intermolecular Energy     =  -12.98 kcal/mol
DOCKED: USER        vdW + Hbond + desolv Energy     =   -9.76 kcal/mol
DOCKED: USER        Electrostatic Energy            =   -3.21 kcal/mol
DOCKED: USER    (2) Final Total Internal Energy     =   -2.11 kcal/mol
DOCKED: USER    (3) Torsional Free Energy           =   +2.98 kcal/mol
DOCKED: USER    (4) Unbound System's Energy  [=(2)] =   -2.11 kcal/mol
DOCKED: USER    
DOCKED: USER    
DOCKED: USER    NEWDPF move heme_Fe_opt.pdbqt
DOCKED: USER    NEWDPF about -0.174000 -0.001000 -0.047000
DOCKED: USER    NEWDPF tran0 -14.294004 -1.393886 3.605192
DOCKED: USER    NEWDPF quaternion0 -0.618593 -0.172790 0.093387 -0.760766
DOCKED: USER    NEWDPF axisangle0 -0.953110 -0.266229 0.143887 -80.936423
DOCKED: USER    NEWDPF quat0 -0.953110 -0.266229 0.143887 -80.936423
DOCKED: USER    NEWDPF dihe0 -46.86 106.16 53.33 -160.04 85.59 -176.29 -107.02 105.28 173.96 -153.74 
DOCKED: USER  keepresnum = 1 
DOCKED: USER  
DOCKED: REMARK  10 active torsions:
DOCKED: REMARK  status: ('A' for Active; 'I' for Inactive)
DOCKED: REMARK    1  A    between atoms: C_6  and  C_10 
DOCKED: REMARK    2  A    between atoms: C_10  and  C_11 
DOCKED: REMARK    3  A    between atoms: C_11  and  C_12 
DOCKED: REMARK    4  A    between atoms: C_12  and  O_14 
DOCKED: REMARK    5  A    between atoms: C_17  and  C_20 
DOCKED: REMARK    6  A    between atoms: C_24  and  C_27 
DOCKED: REMARK    7  A    between atoms: C_31  and  C_34 
DOCKED: REMARK    8  A    between atoms: C_34  and  C_35 
DOCKED: REMARK    9  A    between atoms: C_35  and  C_36 
DOCKED: REMARK   10  A    between atoms: C_36  and  O_38 
DOCKED: USER                              x       y       z     vdW  Elec       q    Type
DOCKED: USER                           _______ _______ _______ _____ _____    ______ ____
DOCKED: ROOT
DOCKED: ATOM      1  C   UNL d   1     -16.328  -1.628   3.464 -0.12 +0.05    +0.064 C 
DOCKED: ATOM      2  C   UNL d   1     -13.122  -1.227   7.205 -0.39 +0.01    +0.064 A 
DOCKED: ATOM      3  C   UNL d   1      -9.812   0.359   4.108 -0.22 +0.02    +0.064 C 
DOCKED: ATOM      4  C   UNL d   1     -12.866  -0.122   0.457 -0.26 +0.07    +0.064 C 
DOCKED: ATOM      5  C   UNL d   1     -15.707  -1.742   4.791 -0.10 +0.04    +0.066 A 
DOCKED: ATOM      6  C   UNL d   1     -16.327  -2.269   5.912 -0.13 -0.01    -0.021 A 
DOCKED: ATOM      7  C   UNL d   1     -15.438  -2.153   6.951 -0.23 -0.01    -0.025 A 
DOCKED: ATOM      8  C   UNL d   1     -14.307  -1.560   6.424 -0.21 +0.02    +0.066 A 
DOCKED: ATOM      9  C   UNL d   1     -15.663  -2.608   8.360 -0.31 +0.01    +0.051 C 
DOCKED: ATOM     10  C   UNL d   1     -11.998  -0.708   6.710 -0.34 +0.01    +0.066 A 
DOCKED: ATOM     11  C   UNL d   1     -10.923  -0.293   7.500 -0.37 -0.00    -0.021 A 
DOCKED: ATOM     12  C   UNL d   1      -9.961   0.184   6.632 -0.44 +0.00    +0.000 A 
DOCKED: ATOM     13  C   UNL d   1     -10.508   0.042   5.345 -0.36 +0.02    +0.070 A 
DOCKED: ATOM     14  C   UNL d   1     -10.842  -0.288   9.013 -0.37 +0.01    +0.052 C 
DOCKED: ATOM     15  C   UNL d   1     -10.353   0.273   2.869 -0.24 +0.02    +0.066 A 
DOCKED: ATOM     16  C   UNL d   1      -9.624   0.489   1.707 -0.36 -0.01    -0.021 A 
DOCKED: ATOM     17  C   UNL d   1     -10.504   0.354   0.652 -0.35 +0.00    +0.000 A 
DOCKED: ATOM     18  C   UNL d   1     -11.752   0.063   1.198 -0.26 +0.05    +0.070 A 
DOCKED: ATOM     19  C   UNL d   1      -8.164   0.834   1.589 -0.44 +0.01    +0.052 C 
DOCKED: ATOM     20  C   UNL d   1     -14.182  -0.490   0.991 -0.20 +0.09    +0.066 A 
DOCKED: ATOM     21  C   UNL d   1     -15.381  -0.488   0.264 -0.13 -0.04    -0.025 A 
DOCKED: ATOM     22  C   UNL d   1     -16.352  -0.933   1.137 -0.13 -0.03    -0.021 A 
DOCKED: ATOM     23  C   UNL d   1     -15.712  -1.181   2.358 -0.15 +0.07    +0.066 A 
DOCKED: ATOM     24  C   UNL d   1     -15.611  -0.087  -1.174 -0.14 +0.07    +0.051 C 
DOCKED: ATOM     25  N   UNL d   1     -14.470  -1.320   5.107 -0.08 -0.11    -0.248 N 
DOCKED: ATOM     26  N   UNL d   1     -11.753  -0.493   5.392 -0.27 -0.06    -0.248 N 
DOCKED: ATOM     27  N   UNL d   1     -11.651  -0.030   2.558 -0.16 -0.14    -0.248 N 
DOCKED: ATOM     28  N   UNL d   1     -14.397  -0.866   2.275 -0.15 -0.27    -0.248 N 
DOCKED: ATOM     29 FE   UNL d   1     -13.075  -0.679   3.832 -0.07 +0.00    +0.000 Fe
DOCKED: ENDROOT
DOCKED: BRANCH   6  30
DOCKED: ATOM     30  C   UNL d   1     -17.689  -2.871   5.989 -0.11 +0.02    +0.052 C 
DOCKED: BRANCH  30  31
DOCKED: ATOM     31  C   UNL d   1     -18.706  -1.846   6.479 -0.07 +0.06    +0.115 C 
DOCKED: BRANCH  31  32
DOCKED: ATOM     32  C   UNL d   1     -18.997  -0.838   5.402 -0.11 +0.11    +0.139 C 
DOCKED: ATOM     33  O   UNL d   1     -19.844  -1.063   4.550 +0.00 -0.59    -0.650 OA
DOCKED: BRANCH  32  34
DOCKED: ATOM     34  O   UNL d   1     -18.324   0.325   5.367 +0.07 -0.89    -0.776 OA
DOCKED: ATOM     35  H   UNL d   1     -17.956   0.629   4.526 +0.03 +0.23    +0.167 HD
DOCKED: ENDBRANCH  32  34
DOCKED: ENDBRANCH  31  32
DOCKED: ENDBRANCH  30  31
DOCKED: ENDBRANCH   6  30
DOCKED: BRANCH  22  36
DOCKED: ATOM     36  C   UNL d   1     -17.820  -1.064   0.827 -0.07 +0.05    +0.052 C 
DOCKED: BRANCH  36  37
DOCKED: ATOM     37  C   UNL d   1     -18.368   0.277   0.362 -0.07 +0.14    +0.115 C 
DOCKED: BRANCH  37  38
DOCKED: ATOM     38  C   UNL d   1     -18.545   1.218   1.520 -0.11 +0.25    +0.139 C 
DOCKED: ATOM     39  O   UNL d   1     -19.038   2.324   1.357 -0.50 -1.34    -0.650 OA
DOCKED: BRANCH  38  40
DOCKED: ATOM     40  O   UNL d   1     -18.155   0.846   2.752 -0.21 -1.42    -0.776 OA
DOCKED: ATOM     41  H   UNL d   1     -18.687   0.201   3.239 +0.02 +0.26    +0.167 HD
DOCKED: ENDBRANCH  38  40
DOCKED: ENDBRANCH  37  38
DOCKED: ENDBRANCH  36  37
DOCKED: ENDBRANCH  22  36
DOCKED: BRANCH  12  42
DOCKED: ATOM     42  C   UNL d   1      -8.637   0.744   7.044 -0.47 +0.00    +0.004 C 
DOCKED: ATOM     43  C   UNL d   1      -7.521   0.009   6.958 -0.47 +0.00    +0.012 C 
DOCKED: ENDBRANCH  12  42
DOCKED: BRANCH  17  44
DOCKED: ATOM     44  C   UNL d   1     -10.167   0.476  -0.784 -0.37 +0.00    +0.004 C 
DOCKED: ATOM     45  C   UNL d   1     -10.533   1.555  -1.484 -0.34 +0.00    +0.012 C 
DOCKED: ENDBRANCH  17  44
DOCKED: TORSDOF 10
DOCKED: TER
DOCKED: ENDMDL
________________________________________________________________________________


	BEGINNING GENETIC ALGORITHM DOCKING 90 of 100
Run: 90 Seed: 944178208 294137575 [ Run 90 of 100 GA/GALS ]
Beginning LAMARCKIAN GENETIC ALGORITHM (LGA), with a maximum of 25000000 energy evaluations.

Final-Value: -14.801


	FINAL GENETIC ALGORITHM DOCKED STATE
	_______________________________________________


Detailed state:  trans -14.314 -1.397 3.243 quatxyzw -0.621052 -0.216697 0.059136 -0.750893 center -0.174 -0.001 -0.047 ntor 10 -172.7838 54.9361 69.4073 -170.1657 -87.9164 -61.9288 179.5341 99.4704 178.7474 180.0000
State:	-14.314  -1.397   3.243  -0.940 -0.328  0.090 -82.664   -172.78   54.94   69.41 -170.17  -87.92  -61.93  179.53   99.47  178.75  180.00

DOCKED: MODEL       90
DOCKED: USER    Run = 90
DOCKED: USER    DPF = D:/Protein_go_brrr/autodock/final/AncMH_nat/heme_Fe/dock.dpf
DOCKED: USER  
DOCKED: USER    Estimated Free Energy of Binding    =   -9.62 kcal/mol  [=(1)+(2)+(3)-(4)]
DOCKED: USER    Estimated Inhibition Constant, Ki   =   89.39 nM (nanomolar)  [Temperature = 298.15 K]
DOCKED: USER    
DOCKED: USER    (1) Final Intermolecular Energy     =  -12.60 kcal/mol
DOCKED: USER        vdW + Hbond + desolv Energy     =   -9.69 kcal/mol
DOCKED: USER        Electrostatic Energy            =   -2.91 kcal/mol
DOCKED: USER    (2) Final Total Internal Energy     =   -2.20 kcal/mol
DOCKED: USER    (3) Torsional Free Energy           =   +2.98 kcal/mol
DOCKED: USER    (4) Unbound System's Energy  [=(2)] =   -2.20 kcal/mol
DOCKED: USER    
DOCKED: USER    
DOCKED: USER    NEWDPF move heme_Fe_opt.pdbqt
DOCKED: USER    NEWDPF about -0.174000 -0.001000 -0.047000
DOCKED: USER    NEWDPF tran0 -14.314109 -1.397234 3.242658
DOCKED: USER    NEWDPF quaternion0 -0.621052 -0.216697 0.059136 -0.750893
DOCKED: USER    NEWDPF axisangle0 -0.940384 -0.328117 0.089542 -82.664472
DOCKED: USER    NEWDPF quat0 -0.940384 -0.328117 0.089542 -82.664472
DOCKED: USER    NEWDPF dihe0 -172.78 54.94 69.41 -170.17 -87.92 -61.93 179.53 99.47 178.75 180.00 
DOCKED: USER  keepresnum = 1 
DOCKED: USER  
DOCKED: REMARK  10 active torsions:
DOCKED: REMARK  status: ('A' for Active; 'I' for Inactive)
DOCKED: REMARK    1  A    between atoms: C_6  and  C_10 
DOCKED: REMARK    2  A    between atoms: C_10  and  C_11 
DOCKED: REMARK    3  A    between atoms: C_11  and  C_12 
DOCKED: REMARK    4  A    between atoms: C_12  and  O_14 
DOCKED: REMARK    5  A    between atoms: C_17  and  C_20 
DOCKED: REMARK    6  A    between atoms: C_24  and  C_27 
DOCKED: REMARK    7  A    between atoms: C_31  and  C_34 
DOCKED: REMARK    8  A    between atoms: C_34  and  C_35 
DOCKED: REMARK    9  A    between atoms: C_35  and  C_36 
DOCKED: REMARK   10  A    between atoms: C_36  and  O_38 
DOCKED: USER                              x       y       z     vdW  Elec       q    Type
DOCKED: USER                           _______ _______ _______ _____ _____    ______ ____
DOCKED: ROOT
DOCKED: ATOM      1  C   UNL d   1     -16.318  -1.637   2.872 -0.13 +0.06    +0.064 C 
DOCKED: ATOM      2  C   UNL d   1     -13.557  -1.242   6.952 -0.32 +0.01    +0.064 A 
DOCKED: ATOM      3  C   UNL d   1      -9.924   0.367   4.255 -0.22 +0.02    +0.064 C 
DOCKED: ATOM      4  C   UNL d   1     -12.544  -0.107   0.280 -0.27 +0.06    +0.064 C 
DOCKED: ATOM      5  C   UNL d   1     -15.851  -1.754   4.260 -0.11 +0.04    +0.066 A 
DOCKED: ATOM      6  C   UNL d   1     -16.592  -2.288   5.301 -0.10 -0.01    -0.021 A 
DOCKED: ATOM      7  C   UNL d   1     -15.826  -2.174   6.435 -0.17 -0.01    -0.025 A 
DOCKED: ATOM      8  C   UNL d   1     -14.645  -1.576   6.041 -0.11 +0.02    +0.066 A 
DOCKED: ATOM      9  C   UNL d   1     -16.207  -2.635   7.808 -0.25 +0.01    +0.051 C 
DOCKED: ATOM     10  C   UNL d   1     -12.385  -0.717   6.590 -0.37 +0.01    +0.066 A 
DOCKED: ATOM     11  C   UNL d   1     -11.408  -0.303   7.498 -0.47 -0.00    -0.021 A 
DOCKED: ATOM     12  C   UNL d   1     -10.356   0.181   6.745 -0.46 +0.00    +0.000 A 
DOCKED: ATOM     13  C   UNL d   1     -10.754   0.043   5.404 -0.38 +0.02    +0.070 A 
DOCKED: ATOM     14  C   UNL d   1     -11.499  -0.304   9.010 -0.49 +0.01    +0.052 C 
DOCKED: ATOM     15  C   UNL d   1     -10.321   0.285   2.963 -0.24 +0.02    +0.066 A 
DOCKED: ATOM     16  C   UNL d   1      -9.466   0.508   1.891 -0.36 -0.01    -0.021 A 
DOCKED: ATOM     17  C   UNL d   1     -10.221   0.375   0.743 -0.37 +0.00    +0.000 A 
DOCKED: ATOM     18  C   UNL d   1     -11.521   0.078   1.144 -0.26 +0.05    +0.070 A 
DOCKED: ATOM     19  C   UNL d   1      -8.003   0.857   1.940 -0.42 +0.01    +0.052 C 
DOCKED: ATOM     20  C   UNL d   1     -13.911  -0.482   0.662 -0.21 +0.09    +0.066 A 
DOCKED: ATOM     21  C   UNL d   1     -15.020  -0.481  -0.196 -0.16 -0.04    -0.025 A 
DOCKED: ATOM     22  C   UNL d   1     -16.082  -0.932   0.560 -0.15 -0.03    -0.021 A 
DOCKED: ATOM     23  C   UNL d   1     -15.583  -1.183   1.844 -0.16 +0.08    +0.066 A 
DOCKED: ATOM     24  C   UNL d   1     -15.088  -0.074  -1.650 -0.15 +0.06    +0.051 C 
DOCKED: ATOM     25  N   UNL d   1     -14.659  -1.330   4.716 -0.09 -0.13    -0.248 N 
DOCKED: ATOM     26  N   UNL d   1     -11.994  -0.496   5.309 -0.27 -0.07    -0.248 N 
DOCKED: ATOM     27  N   UNL d   1     -11.575  -0.021   2.506 -0.16 -0.14    -0.248 N 
DOCKED: ATOM     28  N   UNL d   1     -14.268  -0.864   1.912 -0.16 -0.28    -0.248 N 
DOCKED: ATOM     29 FE   UNL d   1     -13.131  -0.680   3.608 -0.06 +0.00    +0.000 Fe
DOCKED: ENDROOT
DOCKED: BRANCH   6  30
DOCKED: ATOM     30  C   UNL d   1     -17.951  -2.895   5.222 -0.08 +0.03    +0.052 C 
DOCKED: BRANCH  30  31
DOCKED: ATOM     31  C   UNL d   1     -19.027  -1.846   5.482 -0.06 +0.07    +0.115 C 
DOCKED: BRANCH  31  32
DOCKED: ATOM     32  C   UNL d   1     -18.401  -0.506   5.753 -0.15 +0.11    +0.139 C 
DOCKED: ATOM     33  O   UNL d   1     -18.077  -0.187   6.889 -0.02 -0.40    -0.650 OA
DOCKED: BRANCH  32  34
DOCKED: ATOM     34  O   UNL d   1     -18.192   0.357   4.745 +0.03 -1.00    -0.776 OA
DOCKED: ATOM     35  H   UNL d   1     -18.544   0.148   3.868 +0.03 +0.24    +0.167 HD
DOCKED: ENDBRANCH  32  34
DOCKED: ENDBRANCH  31  32
DOCKED: ENDBRANCH  30  31
DOCKED: ENDBRANCH   6  30
DOCKED: BRANCH  22  36
DOCKED: ATOM     36  C   UNL d   1     -17.505  -1.066   0.086 -0.08 +0.05    +0.052 C 
DOCKED: BRANCH  36  37
DOCKED: ATOM     37  C   UNL d   1     -18.208   0.280   0.184 -0.06 +0.14    +0.115 C 
DOCKED: BRANCH  37  38
DOCKED: ATOM     38  C   UNL d   1     -18.682   0.539   1.586 -0.11 +0.20    +0.139 C 
DOCKED: ATOM     39  O   UNL d   1     -19.504  -0.195   2.114 +0.01 -0.81    -0.650 OA
DOCKED: BRANCH  38  40
DOCKED: ATOM     40  O   UNL d   1     -18.203   1.592   2.272 -0.50 -1.75    -0.776 OA
DOCKED: ATOM     41  H   UNL d   1     -17.803   1.445   3.140 +0.02 +0.34    +0.167 HD
DOCKED: ENDBRANCH  38  40
DOCKED: ENDBRANCH  37  38
DOCKED: ENDBRANCH  36  37
DOCKED: ENDBRANCH  22  36
DOCKED: BRANCH  12  42
DOCKED: ATOM     42  C   UNL d   1      -9.089   0.743   7.307 -0.49 +0.00    +0.004 C 
DOCKED: ATOM     43  C   UNL d   1      -7.908   0.158   7.064 -0.47 +0.00    +0.012 C 
DOCKED: ENDBRANCH  12  42
DOCKED: BRANCH  17  44
DOCKED: ATOM     44  C   UNL d   1      -9.725   0.504  -0.645 -0.34 +0.00    +0.004 C 
DOCKED: ATOM     45  C   UNL d   1     -10.172   1.478  -1.445 -0.35 +0.00    +0.012 C 
DOCKED: ENDBRANCH  17  44
DOCKED: TORSDOF 10
DOCKED: TER
DOCKED: ENDMDL
________________________________________________________________________________


	BEGINNING GENETIC ALGORITHM DOCKING 91 of 100
Run: 91 Seed: 282915662 427478599 [ Run 91 of 100 GA/GALS ]
Beginning LAMARCKIAN GENETIC ALGORITHM (LGA), with a maximum of 25000000 energy evaluations.

Final-Value: -16.397


	FINAL GENETIC ALGORITHM DOCKED STATE
	_______________________________________________


Detailed state:  trans -10.414 0.052 2.548 quatxyzw 0.573074 0.253517 0.051155 0.777624 center -0.174 -0.001 -0.047 ntor 10 34.0450 169.7162 31.3483 -131.1753 -179.6614 146.5132 -51.7780 -33.0412 -147.1568 -19.0078
State:	-10.414   0.052   2.548   0.911  0.403  0.081 77.913     34.04  169.72   31.35 -131.18 -179.66  146.51  -51.78  -33.04 -147.16  -19.01

DOCKED: MODEL       91
DOCKED: USER    Run = 91
DOCKED: USER    DPF = D:/Protein_go_brrr/autodock/final/AncMH_nat/heme_Fe/dock.dpf
DOCKED: USER  
DOCKED: USER    Estimated Free Energy of Binding    =  -11.69 kcal/mol  [=(1)+(2)+(3)-(4)]
DOCKED: USER    Estimated Inhibition Constant, Ki   =    2.68 nM (nanomolar)  [Temperature = 298.15 K]
DOCKED: USER    
DOCKED: USER    (1) Final Intermolecular Energy     =  -14.68 kcal/mol
DOCKED: USER        vdW + Hbond + desolv Energy     =  -11.90 kcal/mol
DOCKED: USER        Electrostatic Energy            =   -2.77 kcal/mol
DOCKED: USER    (2) Final Total Internal Energy     =   -1.72 kcal/mol
DOCKED: USER    (3) Torsional Free Energy           =   +2.98 kcal/mol
DOCKED: USER    (4) Unbound System's Energy  [=(2)] =   -1.72 kcal/mol
DOCKED: USER    
DOCKED: USER    
DOCKED: USER    NEWDPF move heme_Fe_opt.pdbqt
DOCKED: USER    NEWDPF about -0.174000 -0.001000 -0.047000
DOCKED: USER    NEWDPF tran0 -10.413542 0.052406 2.547889
DOCKED: USER    NEWDPF quaternion0 0.573074 0.253517 0.051155 0.777624
DOCKED: USER    NEWDPF axisangle0 0.911478 0.403221 0.081362 77.912992
DOCKED: USER    NEWDPF quat0 0.911478 0.403221 0.081362 77.912992
DOCKED: USER    NEWDPF dihe0 34.04 169.72 31.35 -131.18 -179.66 146.51 -51.78 -33.04 -147.16 -19.01 
DOCKED: USER  keepresnum = 1 
DOCKED: USER  
DOCKED: REMARK  10 active torsions:
DOCKED: REMARK  status: ('A' for Active; 'I' for Inactive)
DOCKED: REMARK    1  A    between atoms: C_6  and  C_10 
DOCKED: REMARK    2  A    between atoms: C_10  and  C_11 
DOCKED: REMARK    3  A    between atoms: C_11  and  C_12 
DOCKED: REMARK    4  A    between atoms: C_12  and  O_14 
DOCKED: REMARK    5  A    between atoms: C_17  and  C_20 
DOCKED: REMARK    6  A    between atoms: C_24  and  C_27 
DOCKED: REMARK    7  A    between atoms: C_31  and  C_34 
DOCKED: REMARK    8  A    between atoms: C_34  and  C_35 
DOCKED: REMARK    9  A    between atoms: C_35  and  C_36 
DOCKED: REMARK   10  A    between atoms: C_36  and  O_38 
DOCKED: USER                              x       y       z     vdW  Elec       q    Type
DOCKED: USER                           _______ _______ _______ _____ _____    ______ ____
DOCKED: ROOT
DOCKED: ATOM      1  C   UNL d   1     -12.330   0.102   1.816 -0.30 +0.06    +0.064 C 
DOCKED: ATOM      2  C   UNL d   1     -10.332  -0.429   6.306 -0.25 +0.01    +0.064 A 
DOCKED: ATOM      3  C   UNL d   1      -6.142   1.131   4.550 -0.34 +0.00    +0.064 C 
DOCKED: ATOM      4  C   UNL d   1      -8.028   1.552   0.174 -0.29 +0.01    +0.064 C 
DOCKED: ATOM      5  C   UNL d   1     -12.135  -0.271   3.224 -0.15 +0.04    +0.066 A 
DOCKED: ATOM      6  C   UNL d   1     -13.096  -0.863   4.025 -0.27 -0.01    -0.021 A 
DOCKED: ATOM      7  C   UNL d   1     -12.542  -1.007   5.273 -0.32 -0.01    -0.025 A 
DOCKED: ATOM      8  C   UNL d   1     -11.261  -0.497   5.185 -0.27 +0.02    +0.066 A 
DOCKED: ATOM      9  C   UNL d   1     -13.206  -1.618   6.469 -0.39 +0.01    +0.051 C 
DOCKED: ATOM     10  C   UNL d   1      -9.073   0.006   6.234 -0.35 +0.01    +0.066 A 
DOCKED: ATOM     11  C   UNL d   1      -8.244   0.166   7.347 -0.40 -0.00    -0.021 A 
DOCKED: ATOM     12  C   UNL d   1      -7.035   0.631   6.869 -0.42 +0.00    +0.000 A 
DOCKED: ATOM     13  C   UNL d   1      -7.193   0.739   5.476 -0.30 +0.01    +0.070 A 
DOCKED: ATOM     14  C   UNL d   1      -8.608  -0.047   8.802 -0.46 +0.00    +0.052 C 
DOCKED: ATOM     15  C   UNL d   1      -6.304   1.286   3.215 -0.33 +0.01    +0.066 A 
DOCKED: ATOM     16  C   UNL d   1      -5.253   1.564   2.350 -0.33 -0.00    -0.021 A 
DOCKED: ATOM     17  C   UNL d   1      -5.795   1.690   1.088 -0.43 +0.00    +0.000 A 
DOCKED: ATOM     18  C   UNL d   1      -7.168   1.488   1.213 -0.39 +0.01    +0.070 A 
DOCKED: ATOM     19  C   UNL d   1      -3.798   1.732   2.698 -0.25 -0.00    +0.052 C 
DOCKED: ATOM     20  C   UNL d   1      -9.469   1.285   0.256 -0.33 +0.02    +0.066 A 
DOCKED: ATOM     21  C   UNL d   1     -10.400   1.540  -0.761 -0.30 -0.01    -0.025 A 
DOCKED: ATOM     22  C   UNL d   1     -11.617   1.108  -0.276 -0.25 -0.02    -0.021 A 
DOCKED: ATOM     23  C   UNL d   1     -11.384   0.615   1.013 -0.26 +0.05    +0.066 A 
DOCKED: ATOM     24  C   UNL d   1     -10.167   2.161  -2.119 -0.19 +0.01    +0.051 C 
DOCKED: ATOM     25  N   UNL d   1     -11.013  -0.059   3.934 -0.16 -0.09    -0.248 N 
DOCKED: ATOM     26  N   UNL d   1      -8.438   0.366   5.090 -0.13 -0.09    -0.248 N 
DOCKED: ATOM     27  N   UNL d   1      -7.476   1.197   2.512 -0.23 -0.04    -0.248 N 
DOCKED: ATOM     28  N   UNL d   1     -10.080   0.767   1.349 -0.18 -0.09    -0.248 N 
DOCKED: ATOM     29 FE   UNL d   1      -9.258   0.567   3.218 -0.08 +0.00    +0.000 Fe
DOCKED: ENDROOT
DOCKED: BRANCH   6  30
DOCKED: ATOM     30  C   UNL d   1     -14.466  -1.291   3.624 -0.23 +0.04    +0.052 C 
DOCKED: BRANCH  30  31
DOCKED: ATOM     31  C   UNL d   1     -15.259  -0.113   3.066 -0.09 +0.13    +0.115 C 
DOCKED: BRANCH  31  32
DOCKED: ATOM     32  C   UNL d   1     -15.847  -0.462   1.728 -0.14 +0.20    +0.139 C 
DOCKED: ATOM     33  O   UNL d   1     -16.517   0.354   1.110 -0.47 -1.43    -0.650 OA
DOCKED: BRANCH  32  34
DOCKED: ATOM     34  O   UNL d   1     -15.641  -1.679   1.196 +0.03 -0.94    -0.776 OA
DOCKED: ATOM     35  H   UNL d   1     -15.558  -1.763   0.236 +0.02 +0.22    +0.167 HD
DOCKED: ENDBRANCH  32  34
DOCKED: ENDBRANCH  31  32
DOCKED: ENDBRANCH  30  31
DOCKED: ENDBRANCH   6  30
DOCKED: BRANCH  22  36
DOCKED: ATOM     36  C   UNL d   1     -12.937   1.210  -0.995 -0.15 +0.07    +0.052 C 
DOCKED: BRANCH  36  37
DOCKED: ATOM     37  C   UNL d   1     -13.035   0.113  -2.045 -0.17 +0.09    +0.115 C 
DOCKED: BRANCH  37  38
DOCKED: ATOM     38  C   UNL d   1     -14.451  -0.367  -2.191 -0.13 +0.13    +0.139 C 
DOCKED: ATOM     39  O   UNL d   1     -14.878  -0.735  -3.276 -0.01 -0.46    -0.650 OA
DOCKED: BRANCH  38  40
DOCKED: ATOM     40  O   UNL d   1     -15.265  -0.392  -1.121 -0.03 -1.01    -0.776 OA
DOCKED: ATOM     41  H   UNL d   1     -14.890  -0.248  -0.241 +0.03 +0.27    +0.167 HD
DOCKED: ENDBRANCH  38  40
DOCKED: ENDBRANCH  37  38
DOCKED: ENDBRANCH  36  37
DOCKED: ENDBRANCH  22  36
DOCKED: BRANCH  12  42
DOCKED: ATOM     42  C   UNL d   1      -5.846   0.955   7.717 -0.54 +0.00    +0.004 C 
DOCKED: ATOM     43  C   UNL d   1      -5.043  -0.014   8.177 -0.58 -0.00    +0.012 C 
DOCKED: ENDBRANCH  12  42
DOCKED: BRANCH  17  44
DOCKED: ATOM     44  C   UNL d   1      -5.046   1.963  -0.159 -0.51 -0.00    +0.004 C 
DOCKED: ATOM     45  C   UNL d   1      -4.613   3.197  -0.441 -0.59 -0.00    +0.012 C 
DOCKED: ENDBRANCH  17  44
DOCKED: TORSDOF 10
DOCKED: TER
DOCKED: ENDMDL
________________________________________________________________________________


	BEGINNING GENETIC ALGORITHM DOCKING 92 of 100
Run: 92 Seed: 704301105 223981012 [ Run 92 of 100 GA/GALS ]
Beginning LAMARCKIAN GENETIC ALGORITHM (LGA), with a maximum of 25000000 energy evaluations.

Final-Value: -15.844


	FINAL GENETIC ALGORITHM DOCKED STATE
	_______________________________________________


Detailed state:  trans -8.630 1.556 3.640 quatxyzw -0.618950 0.497151 -0.544694 0.270277 center -0.174 -0.001 -0.047 ntor 10 162.2327 161.0878 -155.2228 -126.9732 117.9760 93.2718 109.2432 132.2238 173.2375 -6.3162
State:	 -8.630   1.556   3.640  -0.643  0.516 -0.566 148.638    162.23  161.09 -155.22 -126.97  117.98   93.27  109.24  132.22  173.24   -6.32

DOCKED: MODEL       92
DOCKED: USER    Run = 92
DOCKED: USER    DPF = D:/Protein_go_brrr/autodock/final/AncMH_nat/heme_Fe/dock.dpf
DOCKED: USER  
DOCKED: USER    Estimated Free Energy of Binding    =  -12.30 kcal/mol  [=(1)+(2)+(3)-(4)]
DOCKED: USER    Estimated Inhibition Constant, Ki   =  957.72 pM (picomolar)  [Temperature = 298.15 K]
DOCKED: USER    
DOCKED: USER    (1) Final Intermolecular Energy     =  -15.29 kcal/mol
DOCKED: USER        vdW + Hbond + desolv Energy     =  -13.46 kcal/mol
DOCKED: USER        Electrostatic Energy            =   -1.83 kcal/mol
DOCKED: USER    (2) Final Total Internal Energy     =   -0.56 kcal/mol
DOCKED: USER    (3) Torsional Free Energy           =   +2.98 kcal/mol
DOCKED: USER    (4) Unbound System's Energy  [=(2)] =   -0.56 kcal/mol
DOCKED: USER    
DOCKED: USER    
DOCKED: USER    NEWDPF move heme_Fe_opt.pdbqt
DOCKED: USER    NEWDPF about -0.174000 -0.001000 -0.047000
DOCKED: USER    NEWDPF tran0 -8.629892 1.556120 3.640359
DOCKED: USER    NEWDPF quaternion0 -0.618950 0.497151 -0.544694 0.270277
DOCKED: USER    NEWDPF axisangle0 -0.642876 0.516369 -0.565750 148.638478
DOCKED: USER    NEWDPF quat0 -0.642876 0.516369 -0.565750 148.638478
DOCKED: USER    NEWDPF dihe0 162.23 161.09 -155.22 -126.97 117.98 93.27 109.24 132.22 173.24 -6.32 
DOCKED: USER  keepresnum = 1 
DOCKED: USER  
DOCKED: REMARK  10 active torsions:
DOCKED: REMARK  status: ('A' for Active; 'I' for Inactive)
DOCKED: REMARK    1  A    between atoms: C_6  and  C_10 
DOCKED: REMARK    2  A    between atoms: C_10  and  C_11 
DOCKED: REMARK    3  A    between atoms: C_11  and  C_12 
DOCKED: REMARK    4  A    between atoms: C_12  and  O_14 
DOCKED: REMARK    5  A    between atoms: C_17  and  C_20 
DOCKED: REMARK    6  A    between atoms: C_24  and  C_27 
DOCKED: REMARK    7  A    between atoms: C_31  and  C_34 
DOCKED: REMARK    8  A    between atoms: C_34  and  C_35 
DOCKED: REMARK    9  A    between atoms: C_35  and  C_36 
DOCKED: REMARK   10  A    between atoms: C_36  and  O_38 
DOCKED: USER                              x       y       z     vdW  Elec       q    Type
DOCKED: USER                           _______ _______ _______ _____ _____    ______ ____
DOCKED: ROOT
DOCKED: ATOM      1  C   UNL d   1      -8.187   1.747   1.646 -0.38 +0.01    +0.064 C 
DOCKED: ATOM      2  C   UNL d   1      -5.560   1.940   5.829 -0.27 +0.00    +0.064 A 
DOCKED: ATOM      3  C   UNL d   1      -9.254  -0.059   8.159 -0.36 +0.01    +0.064 C 
DOCKED: ATOM      4  C   UNL d   1     -11.852  -0.159   4.143 -0.28 +0.03    +0.064 C 
DOCKED: ATOM      5  C   UNL d   1      -7.136   2.064   2.623 -0.29 +0.01    +0.066 A 
DOCKED: ATOM      6  C   UNL d   1      -5.966   2.746   2.333 -0.39 -0.00    -0.021 A 
DOCKED: ATOM      7  C   UNL d   1      -5.236   2.796   3.495 -0.38 +0.00    -0.025 A 
DOCKED: ATOM      8  C   UNL d   1      -5.989   2.142   4.450 -0.35 +0.00    +0.066 A 
DOCKED: ATOM      9  C   UNL d   1      -3.901   3.454   3.671 -0.44 -0.00    +0.051 C 
DOCKED: ATOM     10  C   UNL d   1      -6.292   1.364   6.784 -0.38 +0.00    +0.066 A 
DOCKED: ATOM     11  C   UNL d   1      -5.810   1.082   8.065 -0.50 -0.00    -0.021 A 
DOCKED: ATOM     12  C   UNL d   1      -6.851   0.490   8.751 -0.46 +0.00    +0.000 A 
DOCKED: ATOM     13  C   UNL d   1      -7.922   0.432   7.842 -0.40 +0.01    +0.070 A 
DOCKED: ATOM     14  C   UNL d   1      -4.406   1.304   8.588 -0.43 -0.00    +0.052 C 
DOCKED: ATOM     15  C   UNL d   1     -10.272  -0.164   7.273 -0.25 +0.01    +0.066 A 
DOCKED: ATOM     16  C   UNL d   1     -11.558  -0.545   7.637 -0.42 -0.00    -0.021 A 
DOCKED: ATOM     17  C   UNL d   1     -12.308  -0.577   6.480 -0.42 +0.00    +0.000 A 
DOCKED: ATOM     18  C   UNL d   1     -11.460  -0.220   5.434 -0.37 +0.02    +0.070 A 
DOCKED: ATOM     19  C   UNL d   1     -12.058  -0.889   9.014 -0.37 +0.00    +0.052 C 
DOCKED: ATOM     20  C   UNL d   1     -11.004   0.273   3.025 -0.23 +0.03    +0.066 A 
DOCKED: ATOM     21  C   UNL d   1     -11.331   0.151   1.667 -0.29 -0.02    -0.025 A 
DOCKED: ATOM     22  C   UNL d   1     -10.278   0.712   0.974 -0.33 -0.01    -0.021 A 
DOCKED: ATOM     23  C   UNL d   1      -9.353   1.146   1.931 -0.30 +0.02    +0.066 A 
DOCKED: ATOM     24  C   UNL d   1     -12.563  -0.463   1.044 -0.30 +0.05    +0.051 C 
DOCKED: ATOM     25  N   UNL d   1      -7.149   1.706   3.919 -0.07 -0.04    -0.248 N 
DOCKED: ATOM     26  N   UNL d   1      -7.579   0.957   6.640 -0.24 -0.03    -0.248 N 
DOCKED: ATOM     27  N   UNL d   1     -10.219   0.077   5.926 -0.28 -0.06    -0.248 N 
DOCKED: ATOM     28  N   UNL d   1      -9.780   0.834   3.178 -0.15 -0.09    -0.248 N 
DOCKED: ATOM     29 FE   UNL d   1      -8.681   0.895   4.909 -0.08 +0.00    +0.000 Fe
DOCKED: ENDROOT
DOCKED: BRANCH   6  30
DOCKED: ATOM     30  C   UNL d   1      -5.569   3.340   1.026 -0.42 +0.00    +0.052 C 
DOCKED: BRANCH  30  31
DOCKED: ATOM     31  C   UNL d   1      -4.645   2.398   0.262 -0.52 -0.00    +0.115 C 
DOCKED: BRANCH  31  32
DOCKED: ATOM     32  C   UNL d   1      -3.297   2.332   0.925 -0.36 -0.00    +0.139 C 
DOCKED: ATOM     33  O   UNL d   1      -2.876   1.278   1.379 -0.04 +0.02    -0.650 OA
DOCKED: BRANCH  32  34
DOCKED: ATOM     34  O   UNL d   1      -2.539   3.438   1.023 +0.16 +0.03    -0.776 OA
DOCKED: ATOM     35  H   UNL d   1      -2.737   4.195   0.454 +0.11 -0.01    +0.167 HD
DOCKED: ENDBRANCH  32  34
DOCKED: ENDBRANCH  31  32
DOCKED: ENDBRANCH  30  31
DOCKED: ENDBRANCH   6  30
DOCKED: BRANCH  22  36
DOCKED: ATOM     36  C   UNL d   1     -10.149   0.781  -0.525 -0.38 +0.02    +0.052 C 
DOCKED: BRANCH  36  37
DOCKED: ATOM     37  C   UNL d   1     -10.759   2.079  -1.033 -0.25 +0.05    +0.115 C 
DOCKED: BRANCH  37  38
DOCKED: ATOM     38  C   UNL d   1     -12.125   2.299  -0.446 -0.16 +0.16    +0.139 C 
DOCKED: ATOM     39  O   UNL d   1     -12.268   2.957   0.574 -0.49 -0.94    -0.650 OA
DOCKED: BRANCH  38  40
DOCKED: ATOM     40  O   UNL d   1     -13.205   1.764  -1.042 -0.06 -1.24    -0.776 OA
DOCKED: ATOM     41  H   UNL d   1     -13.144   1.490  -1.967 +0.05 +0.16    +0.167 HD
DOCKED: ENDBRANCH  38  40
DOCKED: ENDBRANCH  37  38
DOCKED: ENDBRANCH  36  37
DOCKED: ENDBRANCH  22  36
DOCKED: BRANCH  12  42
DOCKED: ATOM     42  C   UNL d   1      -6.780   0.011  10.166 -0.56 +0.00    +0.004 C 
DOCKED: ATOM     43  C   UNL d   1      -6.744  -1.298  10.450 -0.73 -0.00    +0.012 C 
DOCKED: ENDBRANCH  12  42
DOCKED: BRANCH  17  44
DOCKED: ATOM     44  C   UNL d   1     -13.748  -0.909   6.384 -0.05 +0.00    +0.004 C 
DOCKED: ATOM     45  C   UNL d   1     -14.172  -2.168   6.534 -0.37 +0.00    +0.012 C 
DOCKED: ENDBRANCH  17  44
DOCKED: TORSDOF 10
DOCKED: TER
DOCKED: ENDMDL
________________________________________________________________________________


	BEGINNING GENETIC ALGORITHM DOCKING 93 of 100
Run: 93 Seed: 1518714071 534766568 [ Run 93 of 100 GA/GALS ]
Beginning LAMARCKIAN GENETIC ALGORITHM (LGA), with a maximum of 25000000 energy evaluations.

Final-Value: -9.861


	FINAL GENETIC ALGORITHM DOCKED STATE
	_______________________________________________


Detailed state:  trans 1.814 -19.131 1.370 quatxyzw 0.102059 -0.190581 -0.967114 0.133992 center -0.174 -0.001 -0.047 ntor 10 141.3091 125.3987 14.5049 -139.3053 -55.4511 73.3956 154.8729 -131.2410 -154.0365 147.6283
State:	  1.814 -19.131   1.370   0.103 -0.192 -0.976 164.599    141.31  125.40   14.50 -139.31  -55.45   73.40  154.87 -131.24 -154.04  147.63

DOCKED: MODEL       93
DOCKED: USER    Run = 93
DOCKED: USER    DPF = D:/Protein_go_brrr/autodock/final/AncMH_nat/heme_Fe/dock.dpf
DOCKED: USER  
DOCKED: USER    Estimated Free Energy of Binding    =   -5.17 kcal/mol  [=(1)+(2)+(3)-(4)]
DOCKED: USER    Estimated Inhibition Constant, Ki   =  162.46 uM (micromolar)  [Temperature = 298.15 K]
DOCKED: USER    
DOCKED: USER    (1) Final Intermolecular Energy     =   -8.15 kcal/mol
DOCKED: USER        vdW + Hbond + desolv Energy     =   -5.80 kcal/mol
DOCKED: USER        Electrostatic Energy            =   -2.35 kcal/mol
DOCKED: USER    (2) Final Total Internal Energy     =   -1.71 kcal/mol
DOCKED: USER    (3) Torsional Free Energy           =   +2.98 kcal/mol
DOCKED: USER    (4) Unbound System's Energy  [=(2)] =   -1.71 kcal/mol
DOCKED: USER    
DOCKED: USER    
DOCKED: USER    NEWDPF move heme_Fe_opt.pdbqt
DOCKED: USER    NEWDPF about -0.174000 -0.001000 -0.047000
DOCKED: USER    NEWDPF tran0 1.813566 -19.131425 1.370407
DOCKED: USER    NEWDPF quaternion0 0.102059 -0.190581 -0.967114 0.133992
DOCKED: USER    NEWDPF axisangle0 0.102987 -0.192316 -0.975914 164.599310
DOCKED: USER    NEWDPF quat0 0.102987 -0.192316 -0.975914 164.599310
DOCKED: USER    NEWDPF dihe0 141.31 125.40 14.50 -139.31 -55.45 73.40 154.87 -131.24 -154.04 147.63 
DOCKED: USER  keepresnum = 1 
DOCKED: USER  
DOCKED: REMARK  10 active torsions:
DOCKED: REMARK  status: ('A' for Active; 'I' for Inactive)
DOCKED: REMARK    1  A    between atoms: C_6  and  C_10 
DOCKED: REMARK    2  A    between atoms: C_10  and  C_11 
DOCKED: REMARK    3  A    between atoms: C_11  and  C_12 
DOCKED: REMARK    4  A    between atoms: C_12  and  O_14 
DOCKED: REMARK    5  A    between atoms: C_17  and  C_20 
DOCKED: REMARK    6  A    between atoms: C_24  and  C_27 
DOCKED: REMARK    7  A    between atoms: C_31  and  C_34 
DOCKED: REMARK    8  A    between atoms: C_34  and  C_35 
DOCKED: REMARK    9  A    between atoms: C_35  and  C_36 
DOCKED: REMARK   10  A    between atoms: C_36  and  O_38 
DOCKED: USER                              x       y       z     vdW  Elec       q    Type
DOCKED: USER                           _______ _______ _______ _____ _____    ______ ____
DOCKED: ROOT
DOCKED: ATOM      1  C   UNL d   1       3.622 -19.305   2.325 -0.06 +0.05    +0.064 C 
DOCKED: ATOM      2  C   UNL d   1       1.197 -15.613   0.107 -0.23 +0.02    +0.064 A 
DOCKED: ATOM      3  C   UNL d   1      -2.807 -18.262   0.228 -0.20 +0.02    +0.064 C 
DOCKED: ATOM      4  C   UNL d   1      -0.455 -21.888   2.280 -0.11 -0.01    +0.064 C 
DOCKED: ATOM      5  C   UNL d   1       3.330 -18.052   1.614 +0.04 +0.06    +0.066 A 
DOCKED: ATOM      6  C   UNL d   1       4.271 -17.088   1.291 -0.06 -0.01    -0.021 A 
DOCKED: ATOM      7  C   UNL d   1       3.596 -16.061   0.679 -0.10 -0.01    -0.025 A 
DOCKED: ATOM      8  C   UNL d   1       2.267 -16.439   0.650 -0.13 +0.04    +0.066 A 
DOCKED: ATOM      9  C   UNL d   1       4.204 -14.804   0.138 -0.17 +0.01    +0.051 C 
DOCKED: ATOM     10  C   UNL d   1      -0.084 -15.977   0.015 -0.23 +0.02    +0.066 A 
DOCKED: ATOM     11  C   UNL d   1      -1.105 -15.121  -0.405 -0.38 -0.00    -0.021 A 
DOCKED: ATOM     12  C   UNL d   1      -2.272 -15.856  -0.362 -0.36 +0.00    +0.000 A 
DOCKED: ATOM     13  C   UNL d   1      -1.901 -17.133   0.093 -0.21 +0.02    +0.070 A 
DOCKED: ATOM     14  C   UNL d   1      -0.985 -13.654  -0.763 -0.41 +0.01    +0.052 C 
DOCKED: ATOM     15  C   UNL d   1      -2.465 -19.478   0.715 -0.18 +0.01    +0.066 A 
DOCKED: ATOM     16  C   UNL d   1      -3.336 -20.560   0.735 -0.17 -0.00    -0.021 A 
DOCKED: ATOM     17  C   UNL d   1      -2.660 -21.606   1.330 -0.12 -0.00    +0.000 A 
DOCKED: ATOM     18  C   UNL d   1      -1.393 -21.135   1.663 -0.11 -0.00    +0.070 A 
DOCKED: ATOM     19  C   UNL d   1      -4.756 -20.605   0.239 -0.20 +0.01    +0.052 C 
DOCKED: ATOM     20  C   UNL d   1       0.909 -21.446   2.591 -0.07 +0.01    +0.066 A 
DOCKED: ATOM     21  C   UNL d   1       1.820 -22.137   3.402 -0.04 -0.00    -0.025 A 
DOCKED: ATOM     22  C   UNL d   1       2.979 -21.390   3.390 -0.04 -0.00    -0.021 A 
DOCKED: ATOM     23  C   UNL d   1       2.730 -20.274   2.582 -0.07 +0.04    +0.066 A 
DOCKED: ATOM     24  C   UNL d   1       1.618 -23.432   4.155 -0.06 -0.01    +0.051 C 
DOCKED: ATOM     25  N   UNL d   1       2.110 -17.655   1.211 -0.04 -0.27    -0.248 N 
DOCKED: ATOM     26  N   UNL d   1      -0.568 -17.205   0.332 -0.12 -0.09    -0.248 N 
DOCKED: ATOM     27  N   UNL d   1      -1.256 -19.841   1.247 -0.10 -0.05    -0.248 N 
DOCKED: ATOM     28  N   UNL d   1       1.451 -20.291   2.134 -0.07 -0.12    -0.248 N 
DOCKED: ATOM     29 FE   UNL d   1       0.441 -18.750   1.234 -0.04 +0.00    +0.000 Fe
DOCKED: ENDROOT
DOCKED: BRANCH   6  30
DOCKED: ATOM     30  C   UNL d   1       5.740 -17.146   1.533 -0.02 +0.01    +0.052 C 
DOCKED: BRANCH  30  31
DOCKED: ATOM     31  C   UNL d   1       6.042 -17.165   3.028 -0.02 +0.04    +0.115 C 
DOCKED: BRANCH  31  32
DOCKED: ATOM     32  C   UNL d   1       4.920 -16.528   3.799 -0.03 +0.12    +0.139 C 
DOCKED: ATOM     33  O   UNL d   1       4.553 -15.390   3.541 -0.13 -0.51    -0.650 OA
DOCKED: BRANCH  32  34
DOCKED: ATOM     34  O   UNL d   1       4.307 -17.207   4.783 -0.13 -1.19    -0.776 OA
DOCKED: ATOM     35  H   UNL d   1       4.139 -18.152   4.668 +0.00 +0.23    +0.167 HD
DOCKED: ENDBRANCH  32  34
DOCKED: ENDBRANCH  31  32
DOCKED: ENDBRANCH  30  31
DOCKED: ENDBRANCH   6  30
DOCKED: BRANCH  22  36
DOCKED: ATOM     36  C   UNL d   1       4.238 -21.707   4.153 -0.01 +0.01    +0.052 C 
DOCKED: BRANCH  36  37
DOCKED: ATOM     37  C   UNL d   1       4.496 -20.625   5.191 -0.02 +0.03    +0.115 C 
DOCKED: BRANCH  37  38
DOCKED: ATOM     38  C   UNL d   1       3.252 -20.327   5.980 -0.06 +0.06    +0.139 C 
DOCKED: ATOM     39  O   UNL d   1       2.841 -21.114   6.819 +0.03 -0.06    -0.650 OA
DOCKED: BRANCH  38  40
DOCKED: ATOM     40  O   UNL d   1       2.576 -19.185   5.762 -0.26 -1.12    -0.776 OA
DOCKED: ATOM     41  H   UNL d   1       3.046 -18.341   5.827 +0.02 +0.31    +0.167 HD
DOCKED: ENDBRANCH  38  40
DOCKED: ENDBRANCH  37  38
DOCKED: ENDBRANCH  36  37
DOCKED: ENDBRANCH  22  36
DOCKED: BRANCH  12  42
DOCKED: ATOM     42  C   UNL d   1      -3.627 -15.333  -0.721 -0.43 +0.00    +0.004 C 
DOCKED: ATOM     43  C   UNL d   1      -3.893 -14.903  -1.961 -0.47 +0.00    +0.012 C 
DOCKED: ENDBRANCH  12  42
DOCKED: BRANCH  17  44
DOCKED: ATOM     44  C   UNL d   1      -3.187 -22.973   1.546 -0.10 -0.00    +0.004 C 
DOCKED: ATOM     45  C   UNL d   1      -3.915 -23.263   2.630 -0.15 -0.01    +0.012 C 
DOCKED: ENDBRANCH  17  44
DOCKED: TORSDOF 10
DOCKED: TER
DOCKED: ENDMDL
________________________________________________________________________________


	BEGINNING GENETIC ALGORITHM DOCKING 94 of 100
Run: 94 Seed: 391848768 1426827288 [ Run 94 of 100 GA/GALS ]
Beginning LAMARCKIAN GENETIC ALGORITHM (LGA), with a maximum of 25000000 energy evaluations.

Final-Value: -14.084


	FINAL GENETIC ALGORITHM DOCKED STATE
	_______________________________________________


Detailed state:  trans -14.519 -0.986 3.070 quatxyzw 0.773813 0.049533 0.174574 -0.606864 center -0.174 -0.001 -0.047 ntor 10 -153.7597 175.3610 5.9085 68.8790 90.9792 92.1083 121.7488 116.2237 11.7444 -177.3498
State:	-14.519  -0.986   3.070   0.974  0.062  0.220 -105.274   -153.76  175.36    5.91   68.88   90.98   92.11  121.75  116.22   11.74 -177.35

DOCKED: MODEL       94
DOCKED: USER    Run = 94
DOCKED: USER    DPF = D:/Protein_go_brrr/autodock/final/AncMH_nat/heme_Fe/dock.dpf
DOCKED: USER  
DOCKED: USER    Estimated Free Energy of Binding    =  -10.41 kcal/mol  [=(1)+(2)+(3)-(4)]
DOCKED: USER    Estimated Inhibition Constant, Ki   =   23.43 nM (nanomolar)  [Temperature = 298.15 K]
DOCKED: USER    
DOCKED: USER    (1) Final Intermolecular Energy     =  -13.39 kcal/mol
DOCKED: USER        vdW + Hbond + desolv Energy     =  -10.16 kcal/mol
DOCKED: USER        Electrostatic Energy            =   -3.24 kcal/mol
DOCKED: USER    (2) Final Total Internal Energy     =   -0.69 kcal/mol
DOCKED: USER    (3) Torsional Free Energy           =   +2.98 kcal/mol
DOCKED: USER    (4) Unbound System's Energy  [=(2)] =   -0.69 kcal/mol
DOCKED: USER    
DOCKED: USER    
DOCKED: USER    NEWDPF move heme_Fe_opt.pdbqt
DOCKED: USER    NEWDPF about -0.174000 -0.001000 -0.047000
DOCKED: USER    NEWDPF tran0 -14.519191 -0.986352 3.069891
DOCKED: USER    NEWDPF quaternion0 0.773813 0.049533 0.174574 -0.606864
DOCKED: USER    NEWDPF axisangle0 0.973587 0.062321 0.219644 -105.273819
DOCKED: USER    NEWDPF quat0 0.973587 0.062321 0.219644 -105.273819
DOCKED: USER    NEWDPF dihe0 -153.76 175.36 5.91 68.88 90.98 92.11 121.75 116.22 11.74 -177.35 
DOCKED: USER  keepresnum = 1 
DOCKED: USER  
DOCKED: REMARK  10 active torsions:
DOCKED: REMARK  status: ('A' for Active; 'I' for Inactive)
DOCKED: REMARK    1  A    between atoms: C_6  and  C_10 
DOCKED: REMARK    2  A    between atoms: C_10  and  C_11 
DOCKED: REMARK    3  A    between atoms: C_11  and  C_12 
DOCKED: REMARK    4  A    between atoms: C_12  and  O_14 
DOCKED: REMARK    5  A    between atoms: C_17  and  C_20 
DOCKED: REMARK    6  A    between atoms: C_24  and  C_27 
DOCKED: REMARK    7  A    between atoms: C_31  and  C_34 
DOCKED: REMARK    8  A    between atoms: C_34  and  C_35 
DOCKED: REMARK    9  A    between atoms: C_35  and  C_36 
DOCKED: REMARK   10  A    between atoms: C_36  and  O_38 
DOCKED: USER                              x       y       z     vdW  Elec       q    Type
DOCKED: USER                           _______ _______ _______ _____ _____    ______ ____
DOCKED: ROOT
DOCKED: ATOM      1  C   UNL d   1     -16.186  -2.033   2.490 -0.13 +0.06    +0.064 C 
DOCKED: ATOM      2  C   UNL d   1     -12.389   0.059   0.116 -0.23 +0.06    +0.064 A 
DOCKED: ATOM      3  C   UNL d   1     -10.037   0.367   4.292 -0.25 +0.02    +0.064 C 
DOCKED: ATOM      4  C   UNL d   1     -13.743  -1.560   6.625 -0.36 +0.01    +0.064 C 
DOCKED: ATOM      5  C   UNL d   1     -15.369  -1.397   1.447 -0.17 +0.08    +0.066 A 
DOCKED: ATOM      6  C   UNL d   1     -15.772  -1.201   0.136 -0.16 -0.03    -0.021 A 
DOCKED: ATOM      7  C   UNL d   1     -14.715  -0.623  -0.523 -0.16 -0.03    -0.025 A 
DOCKED: ATOM      8  C   UNL d   1     -13.707  -0.488   0.412 -0.20 +0.09    +0.066 A 
DOCKED: ATOM      9  C   UNL d   1     -14.692  -0.211  -1.963 -0.16 +0.05    +0.051 C 
DOCKED: ATOM     10  C   UNL d   1     -11.419   0.253   1.011 -0.26 +0.04    +0.066 A 
DOCKED: ATOM     11  C   UNL d   1     -10.129   0.672   0.677 -0.35 -0.01    -0.021 A 
DOCKED: ATOM     12  C   UNL d   1      -9.426   0.752   1.863 -0.36 +0.00    +0.000 A 
DOCKED: ATOM     13  C   UNL d   1     -10.330   0.367   2.867 -0.27 +0.03    +0.070 A 
DOCKED: ATOM     14  C   UNL d   1      -9.572   0.917  -0.711 -0.35 +0.01    +0.052 C 
DOCKED: ATOM     15  C   UNL d   1     -10.887  -0.052   5.259 -0.38 +0.02    +0.066 A 
DOCKED: ATOM     16  C   UNL d   1     -10.607   0.057   6.615 -0.46 -0.00    -0.021 A 
DOCKED: ATOM     17  C   UNL d   1     -11.673  -0.501   7.290 -0.45 +0.00    +0.000 A 
DOCKED: ATOM     18  C   UNL d   1     -12.578  -0.942   6.327 -0.35 +0.01    +0.070 A 
DOCKED: ATOM     19  C   UNL d   1      -9.376   0.640   7.254 -0.45 +0.01    +0.052 C 
DOCKED: ATOM     20  C   UNL d   1     -14.747  -1.982   5.642 -0.19 +0.03    +0.066 A 
DOCKED: ATOM     21  C   UNL d   1     -15.856  -2.796   5.916 -0.16 -0.01    -0.025 A 
DOCKED: ATOM     22  C   UNL d   1     -16.545  -2.907   4.726 -0.09 -0.01    -0.021 A 
DOCKED: ATOM     23  C   UNL d   1     -15.830  -2.167   3.777 -0.11 +0.05    +0.066 A 
DOCKED: ATOM     24  C   UNL d   1     -16.252  -3.442   7.223 -0.26 +0.01    +0.051 C 
DOCKED: ATOM     25  N   UNL d   1     -14.111  -0.951   1.612 -0.16 -0.29    -0.248 N 
DOCKED: ATOM     26  N   UNL d   1     -11.543   0.054   2.348 -0.16 -0.14    -0.248 N 
DOCKED: ATOM     27  N   UNL d   1     -12.117  -0.628   5.080 -0.24 -0.07    -0.248 N 
DOCKED: ATOM     28  N   UNL d   1     -14.711  -1.642   4.331 -0.11 -0.14    -0.248 N 
DOCKED: ATOM     29 FE   UNL d   1     -13.127  -0.795   3.342 -0.06 +0.00    +0.000 Fe
DOCKED: ENDROOT
DOCKED: BRANCH   6  30
DOCKED: ATOM     30  C   UNL d   1     -17.100  -1.526  -0.457 -0.11 +0.05    +0.052 C 
DOCKED: BRANCH  30  31
DOCKED: ATOM     31  C   UNL d   1     -17.958  -0.271  -0.579 -0.04 +0.11    +0.115 C 
DOCKED: BRANCH  31  32
DOCKED: ATOM     32  C   UNL d   1     -18.147   0.370   0.767 -0.08 +0.19    +0.139 C 
DOCKED: ATOM     33  O   UNL d   1     -17.369   1.226   1.165 -0.22 -1.46    -0.650 OA
DOCKED: BRANCH  32  34
DOCKED: ATOM     34  O   UNL d   1     -19.178   0.007   1.549 +0.03 -0.94    -0.776 OA
DOCKED: ATOM     35  H   UNL d   1     -19.554  -0.879   1.449 +0.02 +0.15    +0.167 HD
DOCKED: ENDBRANCH  32  34
DOCKED: ENDBRANCH  31  32
DOCKED: ENDBRANCH  30  31
DOCKED: ENDBRANCH   6  30
DOCKED: BRANCH  22  36
DOCKED: ATOM     36  C   UNL d   1     -17.794  -3.720   4.506 -0.09 +0.03    +0.052 C 
DOCKED: BRANCH  36  37
DOCKED: ATOM     37  C   UNL d   1     -17.425  -5.184   4.312 -0.07 +0.05    +0.115 C 
DOCKED: BRANCH  37  38
DOCKED: ATOM     38  C   UNL d   1     -16.616  -5.374   3.061 -0.12 +0.11    +0.139 C 
DOCKED: ATOM     39  O   UNL d   1     -15.395  -5.341   3.095 -0.11 -0.65    -0.650 OA
DOCKED: BRANCH  38  40
DOCKED: ATOM     40  O   UNL d   1     -17.236  -5.581   1.885 -0.30 -0.85    -0.776 OA
DOCKED: ATOM     41  H   UNL d   1     -18.199  -5.676   1.872 +0.02 +0.12    +0.167 HD
DOCKED: ENDBRANCH  38  40
DOCKED: ENDBRANCH  37  38
DOCKED: ENDBRANCH  36  37
DOCKED: ENDBRANCH  22  36
DOCKED: BRANCH  12  42
DOCKED: ATOM     42  C   UNL d   1      -7.990   1.154   1.981 -0.44 +0.00    +0.004 C 
DOCKED: ATOM     43  C   UNL d   1      -7.550   2.304   1.453 -0.43 +0.00    +0.012 C 
DOCKED: ENDBRANCH  12  42
DOCKED: BRANCH  17  44
DOCKED: ATOM     44  C   UNL d   1     -11.825  -0.587   8.760 -0.59 +0.00    +0.004 C 
DOCKED: ATOM     45  C   UNL d   1     -12.888  -0.054   9.371 -0.58 +0.00    +0.012 C 
DOCKED: ENDBRANCH  17  44
DOCKED: TORSDOF 10
DOCKED: TER
DOCKED: ENDMDL
________________________________________________________________________________


	BEGINNING GENETIC ALGORITHM DOCKING 95 of 100
Run: 95 Seed: 62924649 314679905 [ Run 95 of 100 GA/GALS ]
Beginning LAMARCKIAN GENETIC ALGORITHM (LGA), with a maximum of 25000000 energy evaluations.

Final-Value: -17.244


	FINAL GENETIC ALGORITHM DOCKED STATE
	_______________________________________________


Detailed state:  trans -10.499 0.075 2.556 quatxyzw -0.572190 -0.253275 -0.055401 -0.778063 center -0.174 -0.001 -0.047 ntor 10 18.2739 61.7307 22.1541 -127.8292 166.3195 -162.3503 -56.1419 -41.9530 -147.8652 -7.8096
State:	-10.499   0.075   2.556  -0.911 -0.403 -0.088 -77.833     18.27   61.73   22.15 -127.83  166.32 -162.35  -56.14  -41.95 -147.87   -7.81

DOCKED: MODEL       95
DOCKED: USER    Run = 95
DOCKED: USER    DPF = D:/Protein_go_brrr/autodock/final/AncMH_nat/heme_Fe/dock.dpf
DOCKED: USER  
DOCKED: USER    Estimated Free Energy of Binding    =  -11.91 kcal/mol  [=(1)+(2)+(3)-(4)]
DOCKED: USER    Estimated Inhibition Constant, Ki   =    1.86 nM (nanomolar)  [Temperature = 298.15 K]
DOCKED: USER    
DOCKED: USER    (1) Final Intermolecular Energy     =  -14.89 kcal/mol
DOCKED: USER        vdW + Hbond + desolv Energy     =  -11.80 kcal/mol
DOCKED: USER        Electrostatic Energy            =   -3.09 kcal/mol
DOCKED: USER    (2) Final Total Internal Energy     =   -2.35 kcal/mol
DOCKED: USER    (3) Torsional Free Energy           =   +2.98 kcal/mol
DOCKED: USER    (4) Unbound System's Energy  [=(2)] =   -2.35 kcal/mol
DOCKED: USER    
DOCKED: USER    
DOCKED: USER    NEWDPF move heme_Fe_opt.pdbqt
DOCKED: USER    NEWDPF about -0.174000 -0.001000 -0.047000
DOCKED: USER    NEWDPF tran0 -10.499293 0.075344 2.555674
DOCKED: USER    NEWDPF quaternion0 -0.572190 -0.253275 -0.055401 -0.778063
DOCKED: USER    NEWDPF axisangle0 -0.910860 -0.403184 -0.088191 -77.832917
DOCKED: USER    NEWDPF quat0 -0.910860 -0.403184 -0.088191 -77.832917
DOCKED: USER    NEWDPF dihe0 18.27 61.73 22.15 -127.83 166.32 -162.35 -56.14 -41.95 -147.87 -7.81 
DOCKED: USER  keepresnum = 1 
DOCKED: USER  
DOCKED: REMARK  10 active torsions:
DOCKED: REMARK  status: ('A' for Active; 'I' for Inactive)
DOCKED: REMARK    1  A    between atoms: C_6  and  C_10 
DOCKED: REMARK    2  A    between atoms: C_10  and  C_11 
DOCKED: REMARK    3  A    between atoms: C_11  and  C_12 
DOCKED: REMARK    4  A    between atoms: C_12  and  O_14 
DOCKED: REMARK    5  A    between atoms: C_17  and  C_20 
DOCKED: REMARK    6  A    between atoms: C_24  and  C_27 
DOCKED: REMARK    7  A    between atoms: C_31  and  C_34 
DOCKED: REMARK    8  A    between atoms: C_34  and  C_35 
DOCKED: REMARK    9  A    between atoms: C_35  and  C_36 
DOCKED: REMARK   10  A    between atoms: C_36  and  O_38 
DOCKED: USER                              x       y       z     vdW  Elec       q    Type
DOCKED: USER                           _______ _______ _______ _____ _____    ______ ____
DOCKED: ROOT
DOCKED: ATOM      1  C   UNL d   1     -12.412   0.141   1.816 -0.30 +0.06    +0.064 C 
DOCKED: ATOM      2  C   UNL d   1     -10.437  -0.421   6.312 -0.27 +0.01    +0.064 A 
DOCKED: ATOM      3  C   UNL d   1      -6.230   1.118   4.580 -0.35 +0.01    +0.064 C 
DOCKED: ATOM      4  C   UNL d   1      -8.094   1.569   0.198 -0.31 +0.01    +0.064 C 
DOCKED: ATOM      5  C   UNL d   1     -12.225  -0.240   3.223 -0.20 +0.04    +0.066 A 
DOCKED: ATOM      6  C   UNL d   1     -13.194  -0.829   4.018 -0.27 -0.01    -0.021 A 
DOCKED: ATOM      7  C   UNL d   1     -12.646  -0.981   5.267 -0.34 -0.01    -0.025 A 
DOCKED: ATOM      8  C   UNL d   1     -11.362  -0.479   5.186 -0.30 +0.02    +0.066 A 
DOCKED: ATOM      9  C   UNL d   1     -13.319  -1.593   6.458 -0.39 +0.01    +0.051 C 
DOCKED: ATOM     10  C   UNL d   1      -9.175   0.005   6.247 -0.35 +0.01    +0.066 A 
DOCKED: ATOM     11  C   UNL d   1      -8.350   0.156   7.364 -0.39 -0.00    -0.021 A 
DOCKED: ATOM     12  C   UNL d   1      -7.136   0.615   6.894 -0.42 +0.00    +0.000 A 
DOCKED: ATOM     13  C   UNL d   1      -7.287   0.729   5.501 -0.27 +0.01    +0.070 A 
DOCKED: ATOM     14  C   UNL d   1      -8.721  -0.061   8.817 -0.44 +0.00    +0.052 C 
DOCKED: ATOM     15  C   UNL d   1      -6.385   1.280   3.245 -0.33 +0.01    +0.066 A 
DOCKED: ATOM     16  C   UNL d   1      -5.328   1.555   2.387 -0.34 -0.00    -0.021 A 
DOCKED: ATOM     17  C   UNL d   1      -5.864   1.689   1.123 -0.43 +0.00    +0.000 A 
DOCKED: ATOM     18  C   UNL d   1      -7.238   1.496   1.241 -0.39 +0.01    +0.070 A 
DOCKED: ATOM     19  C   UNL d   1      -3.874   1.712   2.742 -0.21 -0.00    +0.052 C 
DOCKED: ATOM     20  C   UNL d   1      -9.537   1.311   0.273 -0.33 +0.02    +0.066 A 
DOCKED: ATOM     21  C   UNL d   1     -10.462   1.576  -0.747 -0.29 -0.01    -0.025 A 
DOCKED: ATOM     22  C   UNL d   1     -11.684   1.150  -0.269 -0.25 -0.02    -0.021 A 
DOCKED: ATOM     23  C   UNL d   1     -11.459   0.650   1.019 -0.25 +0.05    +0.066 A 
DOCKED: ATOM     24  C   UNL d   1     -10.219   2.201  -2.101 -0.20 +0.01    +0.051 C 
DOCKED: ATOM     25  N   UNL d   1     -11.106  -0.037   3.939 -0.17 -0.09    -0.248 N 
DOCKED: ATOM     26  N   UNL d   1      -8.532   0.366   5.107 -0.11 -0.09    -0.248 N 
DOCKED: ATOM     27  N   UNL d   1      -7.554   1.201   2.537 -0.23 -0.04    -0.248 N 
DOCKED: ATOM     28  N   UNL d   1     -10.156   0.792   1.362 -0.18 -0.10    -0.248 N 
DOCKED: ATOM     29 FE   UNL d   1      -9.343   0.580   3.233 -0.08 +0.00    +0.000 Fe
DOCKED: ENDROOT
DOCKED: BRANCH   6  30
DOCKED: ATOM     30  C   UNL d   1     -14.565  -1.247   3.608 -0.22 +0.04    +0.052 C 
DOCKED: BRANCH  30  31
DOCKED: ATOM     31  C   UNL d   1     -15.354  -0.058   3.069 -0.08 +0.14    +0.115 C 
DOCKED: BRANCH  31  32
DOCKED: ATOM     32  C   UNL d   1     -15.853  -0.345   1.680 -0.09 +0.21    +0.139 C 
DOCKED: ATOM     33  O   UNL d   1     -16.708   0.363   1.166 -0.48 -1.34    -0.650 OA
DOCKED: BRANCH  32  34
DOCKED: ATOM     34  O   UNL d   1     -15.361  -1.387   0.988 +0.01 -0.99    -0.776 OA
DOCKED: ATOM     35  H   UNL d   1     -15.479  -1.410   0.028 +0.03 +0.22    +0.167 HD
DOCKED: ENDBRANCH  32  34
DOCKED: ENDBRANCH  31  32
DOCKED: ENDBRANCH  30  31
DOCKED: ENDBRANCH   6  30
DOCKED: BRANCH  22  36
DOCKED: ATOM     36  C   UNL d   1     -12.999   1.263  -0.993 -0.11 +0.07    +0.052 C 
DOCKED: BRANCH  36  37
DOCKED: ATOM     37  C   UNL d   1     -13.224   0.023  -1.846 -0.17 +0.10    +0.115 C 
DOCKED: BRANCH  37  38
DOCKED: ATOM     38  C   UNL d   1     -14.644  -0.457  -1.736 -0.14 +0.15    +0.139 C 
DOCKED: ATOM     39  O   UNL d   1     -14.949  -1.591  -2.074 +0.11 -0.72    -0.650 OA
DOCKED: BRANCH  38  40
DOCKED: ATOM     40  O   UNL d   1     -15.596   0.368  -1.264 -0.07 -1.18    -0.776 OA
DOCKED: ATOM     41  H   UNL d   1     -16.070   0.125  -0.456 +0.02 +0.30    +0.167 HD
DOCKED: ENDBRANCH  38  40
DOCKED: ENDBRANCH  37  38
DOCKED: ENDBRANCH  36  37
DOCKED: ENDBRANCH  22  36
DOCKED: BRANCH  12  42
DOCKED: ATOM     42  C   UNL d   1      -5.949   0.927   7.749 -0.54 +0.00    +0.004 C 
DOCKED: ATOM     43  C   UNL d   1      -5.262  -0.048   8.357 -0.58 -0.00    +0.012 C 
DOCKED: ENDBRANCH  12  42
DOCKED: BRANCH  17  44
DOCKED: ATOM     44  C   UNL d   1      -5.108   1.963  -0.120 -0.50 -0.00    +0.004 C 
DOCKED: ATOM     45  C   UNL d   1      -4.609   3.179  -0.364 -0.60 -0.00    +0.012 C 
DOCKED: ENDBRANCH  17  44
DOCKED: TORSDOF 10
DOCKED: TER
DOCKED: ENDMDL
________________________________________________________________________________


	BEGINNING GENETIC ALGORITHM DOCKING 96 of 100
Run: 96 Seed: 660287729 1666414700 [ Run 96 of 100 GA/GALS ]
Beginning LAMARCKIAN GENETIC ALGORITHM (LGA), with a maximum of 25000000 energy evaluations.

Final-Value: -15.589


	FINAL GENETIC ALGORITHM DOCKED STATE
	_______________________________________________


Detailed state:  trans -14.422 -1.435 3.436 quatxyzw 0.617469 0.193482 -0.083447 0.757848 center -0.174 -0.001 -0.047 ntor 10 -37.7148 -83.5328 66.4379 -160.7080 88.1695 88.1024 -100.7535 106.2800 176.4410 -164.7955
State:	-14.422  -1.435   3.436   0.946  0.297 -0.128 81.450    -37.71  -83.53   66.44 -160.71   88.17   88.10 -100.75  106.28  176.44 -164.80

DOCKED: MODEL       96
DOCKED: USER    Run = 96
DOCKED: USER    DPF = D:/Protein_go_brrr/autodock/final/AncMH_nat/heme_Fe/dock.dpf
DOCKED: USER  
DOCKED: USER    Estimated Free Energy of Binding    =   -9.94 kcal/mol  [=(1)+(2)+(3)-(4)]
DOCKED: USER    Estimated Inhibition Constant, Ki   =   51.71 nM (nanomolar)  [Temperature = 298.15 K]
DOCKED: USER    
DOCKED: USER    (1) Final Intermolecular Energy     =  -12.92 kcal/mol
DOCKED: USER        vdW + Hbond + desolv Energy     =   -9.45 kcal/mol
DOCKED: USER        Electrostatic Energy            =   -3.47 kcal/mol
DOCKED: USER    (2) Final Total Internal Energy     =   -2.67 kcal/mol
DOCKED: USER    (3) Torsional Free Energy           =   +2.98 kcal/mol
DOCKED: USER    (4) Unbound System's Energy  [=(2)] =   -2.67 kcal/mol
DOCKED: USER    
DOCKED: USER    
DOCKED: USER    NEWDPF move heme_Fe_opt.pdbqt
DOCKED: USER    NEWDPF about -0.174000 -0.001000 -0.047000
DOCKED: USER    NEWDPF tran0 -14.422122 -1.434789 3.435965
DOCKED: USER    NEWDPF quaternion0 0.617469 0.193482 -0.083447 0.757848
DOCKED: USER    NEWDPF axisangle0 0.946412 0.296555 -0.127902 81.450304
DOCKED: USER    NEWDPF quat0 0.946412 0.296555 -0.127902 81.450304
DOCKED: USER    NEWDPF dihe0 -37.71 -83.53 66.44 -160.71 88.17 88.10 -100.75 106.28 176.44 -164.80 
DOCKED: USER  keepresnum = 1 
DOCKED: USER  
DOCKED: REMARK  10 active torsions:
DOCKED: REMARK  status: ('A' for Active; 'I' for Inactive)
DOCKED: REMARK    1  A    between atoms: C_6  and  C_10 
DOCKED: REMARK    2  A    between atoms: C_10  and  C_11 
DOCKED: REMARK    3  A    between atoms: C_11  and  C_12 
DOCKED: REMARK    4  A    between atoms: C_12  and  O_14 
DOCKED: REMARK    5  A    between atoms: C_17  and  C_20 
DOCKED: REMARK    6  A    between atoms: C_24  and  C_27 
DOCKED: REMARK    7  A    between atoms: C_31  and  C_34 
DOCKED: REMARK    8  A    between atoms: C_34  and  C_35 
DOCKED: REMARK    9  A    between atoms: C_35  and  C_36 
DOCKED: REMARK   10  A    between atoms: C_36  and  O_38 
DOCKED: USER                              x       y       z     vdW  Elec       q    Type
DOCKED: USER                           _______ _______ _______ _____ _____    ______ ____
DOCKED: ROOT
DOCKED: ATOM      1  C   UNL d   1     -16.445  -1.691   3.203 -0.12 +0.05    +0.064 C 
DOCKED: ATOM      2  C   UNL d   1     -13.414  -1.275   7.085 -0.36 +0.01    +0.064 A 
DOCKED: ATOM      3  C   UNL d   1      -9.987   0.366   4.147 -0.26 +0.02    +0.064 C 
DOCKED: ATOM      4  C   UNL d   1     -12.870  -0.129   0.361 -0.26 +0.07    +0.064 C 
DOCKED: ATOM      5  C   UNL d   1     -15.882  -1.805   4.556 -0.11 +0.04    +0.066 A 
DOCKED: ATOM      6  C   UNL d   1     -16.546  -2.345   5.645 -0.11 -0.01    -0.021 A 
DOCKED: ATOM      7  C   UNL d   1     -15.705  -2.226   6.723 -0.20 -0.01    -0.025 A 
DOCKED: ATOM      8  C   UNL d   1     -14.559  -1.617   6.250 -0.17 +0.02    +0.066 A 
DOCKED: ATOM      9  C   UNL d   1     -15.988  -2.691   8.119 -0.29 +0.01    +0.051 C 
DOCKED: ATOM     10  C   UNL d   1     -12.274  -0.740   6.644 -0.37 +0.01    +0.066 A 
DOCKED: ATOM     11  C   UNL d   1     -11.240  -0.318   7.483 -0.43 -0.00    -0.021 A 
DOCKED: ATOM     12  C   UNL d   1     -10.247   0.175   6.661 -0.46 +0.00    +0.000 A 
DOCKED: ATOM     13  C   UNL d   1     -10.734   0.034   5.350 -0.38 +0.02    +0.070 A 
DOCKED: ATOM     14  C   UNL d   1     -11.228  -0.321   8.998 -0.44 +0.01    +0.052 C 
DOCKED: ATOM     15  C   UNL d   1     -10.471   0.281   2.885 -0.23 +0.03    +0.066 A 
DOCKED: ATOM     16  C   UNL d   1      -9.694   0.511   1.757 -0.36 -0.01    -0.021 A 
DOCKED: ATOM     17  C   UNL d   1     -10.524   0.373   0.664 -0.35 +0.00    +0.000 A 
DOCKED: ATOM     18  C   UNL d   1     -11.792   0.064   1.152 -0.26 +0.05    +0.070 A 
DOCKED: ATOM     19  C   UNL d   1      -8.234   0.873   1.707 -0.43 +0.01    +0.052 C 
DOCKED: ATOM     20  C   UNL d   1     -14.204  -0.515   0.834 -0.20 +0.09    +0.066 A 
DOCKED: ATOM     21  C   UNL d   1     -15.369  -0.523   0.055 -0.14 -0.04    -0.025 A 
DOCKED: ATOM     22  C   UNL d   1     -16.373  -0.983   0.881 -0.13 -0.03    -0.021 A 
DOCKED: ATOM     23  C   UNL d   1     -15.786  -1.231   2.128 -0.15 +0.07    +0.066 A 
DOCKED: ATOM     24  C   UNL d   1     -15.540  -0.116  -1.391 -0.14 +0.06    +0.051 C 
DOCKED: ATOM     25  N   UNL d   1     -14.666  -1.371   4.929 -0.08 -0.12    -0.248 N 
DOCKED: ATOM     26  N   UNL d   1     -11.974  -0.515   5.339 -0.27 -0.07    -0.248 N 
DOCKED: ATOM     27  N   UNL d   1     -11.751  -0.036   2.515 -0.16 -0.15    -0.248 N 
DOCKED: ATOM     28  N   UNL d   1     -14.472  -0.901   2.105 -0.15 -0.28    -0.248 N 
DOCKED: ATOM     29 FE   UNL d   1     -13.222  -0.708   3.721 -0.06 +0.00    +0.000 Fe
DOCKED: ENDROOT
DOCKED: BRANCH   6  30
DOCKED: ATOM     30  C   UNL d   1     -17.902  -2.964   5.659 -0.10 +0.02    +0.052 C 
DOCKED: BRANCH  30  31
DOCKED: ATOM     31  C   UNL d   1     -18.960  -1.937   6.048 -0.06 +0.06    +0.115 C 
DOCKED: BRANCH  31  32
DOCKED: ATOM     32  C   UNL d   1     -19.305  -1.065   4.873 -0.08 +0.12    +0.139 C 
DOCKED: ATOM     33  O   UNL d   1     -20.183  -1.396   4.088 +0.01 -0.53    -0.650 OA
DOCKED: BRANCH  32  34
DOCKED: ATOM     34  O   UNL d   1     -18.649   0.090   4.675 +0.06 -1.01    -0.776 OA
DOCKED: ATOM     35  H   UNL d   1     -18.436   0.360   3.770 +0.02 +0.26    +0.167 HD
DOCKED: ENDBRANCH  32  34
DOCKED: ENDBRANCH  31  32
DOCKED: ENDBRANCH  30  31
DOCKED: ENDBRANCH   6  30
DOCKED: BRANCH  22  36
DOCKED: ATOM     36  C   UNL d   1     -17.824  -1.129   0.505 -0.07 +0.05    +0.052 C 
DOCKED: BRANCH  36  37
DOCKED: ATOM     37  C   UNL d   1     -18.439   0.245   0.287 -0.06 +0.13    +0.115 C 
DOCKED: BRANCH  37  38
DOCKED: ATOM     38  C   UNL d   1     -18.672   0.946   1.595 -0.11 +0.23    +0.139 C 
DOCKED: ATOM     39  O   UNL d   1     -17.795   1.630   2.103 -0.44 -1.40    -0.650 OA
DOCKED: BRANCH  38  40
DOCKED: ATOM     40  O   UNL d   1     -19.855   0.821   2.222 +0.06 -1.59    -0.776 OA
DOCKED: ATOM     41  H   UNL d   1     -19.949   0.158   2.921 +0.01 +0.29    +0.167 HD
DOCKED: ENDBRANCH  38  40
DOCKED: ENDBRANCH  37  38
DOCKED: ENDBRANCH  36  37
DOCKED: ENDBRANCH  22  36
DOCKED: BRANCH  12  42
DOCKED: ATOM     42  C   UNL d   1      -8.949   0.747   7.135 -0.47 +0.00    +0.004 C 
DOCKED: ATOM     43  C   UNL d   1      -7.787   0.140   6.861 -0.47 +0.00    +0.012 C 
DOCKED: ENDBRANCH  12  42
DOCKED: BRANCH  17  44
DOCKED: ATOM     44  C   UNL d   1     -10.126   0.506  -0.755 -0.38 +0.00    +0.004 C 
DOCKED: ATOM     45  C   UNL d   1     -10.484   1.579  -1.469 -0.34 +0.00    +0.012 C 
DOCKED: ENDBRANCH  17  44
DOCKED: TORSDOF 10
DOCKED: TER
DOCKED: ENDMDL
________________________________________________________________________________


	BEGINNING GENETIC ALGORITHM DOCKING 97 of 100
Run: 97 Seed: 376065917 1303318410 [ Run 97 of 100 GA/GALS ]
Beginning LAMARCKIAN GENETIC ALGORITHM (LGA), with a maximum of 25000000 energy evaluations.

Final-Value: -16.590


	FINAL GENETIC ALGORITHM DOCKED STATE
	_______________________________________________


Detailed state:  trans -10.275 1.104 3.302 quatxyzw 0.802276 -0.052286 0.134378 -0.579277 center -0.174 -0.001 -0.047 ntor 10 60.4888 -25.0998 44.4881 -116.2873 161.7101 -176.8863 -30.2955 49.0289 176.1598 138.4788
State:	-10.275   1.104   3.302   0.984 -0.064  0.165 -109.201     60.49  -25.10   44.49 -116.29  161.71 -176.89  -30.30   49.03  176.16  138.48

DOCKED: MODEL       97
DOCKED: USER    Run = 97
DOCKED: USER    DPF = D:/Protein_go_brrr/autodock/final/AncMH_nat/heme_Fe/dock.dpf
DOCKED: USER  
DOCKED: USER    Estimated Free Energy of Binding    =  -11.82 kcal/mol  [=(1)+(2)+(3)-(4)]
DOCKED: USER    Estimated Inhibition Constant, Ki   =    2.17 nM (nanomolar)  [Temperature = 298.15 K]
DOCKED: USER    
DOCKED: USER    (1) Final Intermolecular Energy     =  -14.80 kcal/mol
DOCKED: USER        vdW + Hbond + desolv Energy     =  -11.71 kcal/mol
DOCKED: USER        Electrostatic Energy            =   -3.09 kcal/mol
DOCKED: USER    (2) Final Total Internal Energy     =   -1.79 kcal/mol
DOCKED: USER    (3) Torsional Free Energy           =   +2.98 kcal/mol
DOCKED: USER    (4) Unbound System's Energy  [=(2)] =   -1.79 kcal/mol
DOCKED: USER    
DOCKED: USER    
DOCKED: USER    NEWDPF move heme_Fe_opt.pdbqt
DOCKED: USER    NEWDPF about -0.174000 -0.001000 -0.047000
DOCKED: USER    NEWDPF tran0 -10.274863 1.103993 3.301830
DOCKED: USER    NEWDPF quaternion0 0.802276 -0.052286 0.134378 -0.579277
DOCKED: USER    NEWDPF axisangle0 0.984230 -0.064145 0.164854 -109.200616
DOCKED: USER    NEWDPF quat0 0.984230 -0.064145 0.164854 -109.200616
DOCKED: USER    NEWDPF dihe0 60.49 -25.10 44.49 -116.29 161.71 -176.89 -30.30 49.03 176.16 138.48 
DOCKED: USER  keepresnum = 1 
DOCKED: USER  
DOCKED: REMARK  10 active torsions:
DOCKED: REMARK  status: ('A' for Active; 'I' for Inactive)
DOCKED: REMARK    1  A    between atoms: C_6  and  C_10 
DOCKED: REMARK    2  A    between atoms: C_10  and  C_11 
DOCKED: REMARK    3  A    between atoms: C_11  and  C_12 
DOCKED: REMARK    4  A    between atoms: C_12  and  O_14 
DOCKED: REMARK    5  A    between atoms: C_17  and  C_20 
DOCKED: REMARK    6  A    between atoms: C_24  and  C_27 
DOCKED: REMARK    7  A    between atoms: C_31  and  C_34 
DOCKED: REMARK    8  A    between atoms: C_34  and  C_35 
DOCKED: REMARK    9  A    between atoms: C_35  and  C_36 
DOCKED: REMARK   10  A    between atoms: C_36  and  O_38 
DOCKED: USER                              x       y       z     vdW  Elec       q    Type
DOCKED: USER                           _______ _______ _______ _____ _____    ______ ____
DOCKED: ROOT
DOCKED: ATOM      1  C   UNL d   1     -12.077   0.479   2.545 -0.34 +0.05    +0.064 C 
DOCKED: ATOM      2  C   UNL d   1      -7.810   1.999   0.567 -0.33 +0.01    +0.064 A 
DOCKED: ATOM      3  C   UNL d   1      -5.695   1.396   4.836 -0.08 +0.00    +0.064 C 
DOCKED: ATOM      4  C   UNL d   1      -9.837   0.023   6.797 -0.42 +0.01    +0.064 C 
DOCKED: ATOM      5  C   UNL d   1     -11.091   1.043   1.613 -0.27 +0.04    +0.066 A 
DOCKED: ATOM      6  C   UNL d   1     -11.369   1.449   0.318 -0.26 -0.02    -0.021 A 
DOCKED: ATOM      7  C   UNL d   1     -10.183   1.868  -0.232 -0.28 -0.01    -0.025 A 
DOCKED: ATOM      8  C   UNL d   1      -9.225   1.701   0.749 -0.31 +0.02    +0.066 A 
DOCKED: ATOM      9  C   UNL d   1      -9.994   2.414  -1.614 -0.01 +0.01    +0.051 C 
DOCKED: ATOM     10  C   UNL d   1      -6.876   1.901   1.514 -0.38 +0.01    +0.066 A 
DOCKED: ATOM     11  C   UNL d   1      -5.511   2.084   1.278 -0.43 -0.00    -0.021 A 
DOCKED: ATOM     12  C   UNL d   1      -4.877   1.899   2.491 -0.37 +0.00    +0.000 A 
DOCKED: ATOM     13  C   UNL d   1      -5.898   1.602   3.411 -0.33 +0.00    +0.070 A 
DOCKED: ATOM     14  C   UNL d   1      -4.836   2.354  -0.051 -0.56 -0.00    +0.052 C 
DOCKED: ATOM     15  C   UNL d   1      -6.667   1.059   5.717 -0.33 +0.01    +0.066 A 
DOCKED: ATOM     16  C   UNL d   1      -6.451   0.969   7.086 -0.42 -0.00    -0.021 A 
DOCKED: ATOM     17  C   UNL d   1      -7.644   0.570   7.653 -0.45 +0.00    +0.000 A 
DOCKED: ATOM     18  C   UNL d   1      -8.559   0.421   6.614 -0.35 +0.01    +0.070 A 
DOCKED: ATOM     19  C   UNL d   1      -5.170   1.224   7.833 -0.55 -0.00    +0.052 C 
DOCKED: ATOM     20  C   UNL d   1     -10.845  -0.086   5.735 -0.40 +0.02    +0.066 A 
DOCKED: ATOM     21  C   UNL d   1     -12.106  -0.684   5.873 -0.38 -0.01    -0.025 A 
DOCKED: ATOM     22  C   UNL d   1     -12.732  -0.531   4.654 -0.30 -0.01    -0.021 A 
DOCKED: ATOM     23  C   UNL d   1     -11.831   0.144   3.822 -0.29 +0.03    +0.066 A 
DOCKED: ATOM     24  C   UNL d   1     -12.698  -1.368   7.084 -0.37 +0.01    +0.051 C 
DOCKED: ATOM     25  N   UNL d   1      -9.782   1.207   1.873 -0.19 -0.08    -0.248 N 
DOCKED: ATOM     26  N   UNL d   1      -7.115   1.594   2.814 -0.22 -0.03    -0.248 N 
DOCKED: ATOM     27  N   UNL d   1      -7.972   0.763   5.428 +0.05 -0.08    -0.248 N 
DOCKED: ATOM     28  N   UNL d   1     -10.665   0.373   4.473 -0.25 -0.08    -0.248 N 
DOCKED: ATOM     29 FE   UNL d   1      -8.891   0.983   3.645 -0.08 +0.00    +0.000 Fe
DOCKED: ENDROOT
DOCKED: BRANCH   6  30
DOCKED: ATOM     30  C   UNL d   1     -12.698   1.461  -0.358 +0.01 +0.08    +0.052 C 
DOCKED: BRANCH  30  31
DOCKED: ATOM     31  C   UNL d   1     -12.905   0.183  -1.163 -0.19 +0.11    +0.115 C 
DOCKED: BRANCH  31  32
DOCKED: ATOM     32  C   UNL d   1     -14.365  -0.172  -1.219 -0.15 +0.17    +0.139 C 
DOCKED: ATOM     33  O   UNL d   1     -14.787  -0.945  -2.068 -0.03 -0.65    -0.650 OA
DOCKED: BRANCH  32  34
DOCKED: ATOM     34  O   UNL d   1     -15.224   0.360  -0.333 -0.01 -1.72    -0.776 OA
DOCKED: ATOM     35  H   UNL d   1     -15.717  -0.229   0.255 +0.03 +0.30    +0.167 HD
DOCKED: ENDBRANCH  32  34
DOCKED: ENDBRANCH  31  32
DOCKED: ENDBRANCH  30  31
DOCKED: ENDBRANCH   6  30
DOCKED: BRANCH  22  36
DOCKED: ATOM     36  C   UNL d   1     -14.100  -1.050   4.296 -0.17 +0.03    +0.052 C 
DOCKED: BRANCH  36  37
DOCKED: ATOM     37  C   UNL d   1     -14.008  -1.929   3.058 -0.24 +0.09    +0.115 C 
DOCKED: BRANCH  37  38
DOCKED: ATOM     38  C   UNL d   1     -15.056  -1.552   2.050 -0.19 +0.15    +0.139 C 
DOCKED: ATOM     39  O   UNL d   1     -15.179  -2.182   1.010 +0.02 -0.87    -0.650 OA
DOCKED: BRANCH  38  40
DOCKED: ATOM     40  O   UNL d   1     -15.870  -0.508   2.287 -0.00 -0.99    -0.776 OA
DOCKED: ATOM     41  H   UNL d   1     -16.268  -0.042   1.538 +0.03 +0.29    +0.167 HD
DOCKED: ENDBRANCH  38  40
DOCKED: ENDBRANCH  37  38
DOCKED: ENDBRANCH  36  37
DOCKED: ENDBRANCH  22  36
DOCKED: BRANCH  12  42
DOCKED: ATOM     42  C   UNL d   1      -3.400   1.990   2.707 -0.34 -0.00    +0.004 C 
DOCKED: ATOM     43  C   UNL d   1      -2.827   3.143   3.077 -0.49 -0.00    +0.012 C 
DOCKED: ENDBRANCH  12  42
DOCKED: BRANCH  17  44
DOCKED: ATOM     44  C   UNL d   1      -7.897   0.364   9.098 -0.43 +0.00    +0.004 C 
DOCKED: ATOM     45  C   UNL d   1      -7.228  -0.569   9.784 -0.64 +0.00    +0.012 C 
DOCKED: ENDBRANCH  17  44
DOCKED: TORSDOF 10
DOCKED: TER
DOCKED: ENDMDL
________________________________________________________________________________


	BEGINNING GENETIC ALGORITHM DOCKING 98 of 100
Run: 98 Seed: 2021766950 995528013 [ Run 98 of 100 GA/GALS ]
Beginning LAMARCKIAN GENETIC ALGORITHM (LGA), with a maximum of 25000000 energy evaluations.

Final-Value: -14.203


	FINAL GENETIC ALGORITHM DOCKED STATE
	_______________________________________________


Detailed state:  trans -14.500 -0.889 3.485 quatxyzw -0.773892 -0.057768 -0.144274 0.613953 center -0.174 -0.001 -0.047 ntor 10 -117.5094 -14.6603 8.3277 51.5204 -151.5912 -5.4454 -127.0188 32.9267 -34.1988 10.2784
State:	-14.500  -0.889   3.485  -0.980 -0.073 -0.183 104.248   -117.51  -14.66    8.33   51.52 -151.59   -5.45 -127.02   32.93  -34.20   10.28

DOCKED: MODEL       98
DOCKED: USER    Run = 98
DOCKED: USER    DPF = D:/Protein_go_brrr/autodock/final/AncMH_nat/heme_Fe/dock.dpf
DOCKED: USER  
DOCKED: USER    Estimated Free Energy of Binding    =  -10.60 kcal/mol  [=(1)+(2)+(3)-(4)]
DOCKED: USER    Estimated Inhibition Constant, Ki   =   17.12 nM (nanomolar)  [Temperature = 298.15 K]
DOCKED: USER    
DOCKED: USER    (1) Final Intermolecular Energy     =  -13.58 kcal/mol
DOCKED: USER        vdW + Hbond + desolv Energy     =  -10.61 kcal/mol
DOCKED: USER        Electrostatic Energy            =   -2.97 kcal/mol
DOCKED: USER    (2) Final Total Internal Energy     =   -0.62 kcal/mol
DOCKED: USER    (3) Torsional Free Energy           =   +2.98 kcal/mol
DOCKED: USER    (4) Unbound System's Energy  [=(2)] =   -0.62 kcal/mol
DOCKED: USER    
DOCKED: USER    
DOCKED: USER    NEWDPF move heme_Fe_opt.pdbqt
DOCKED: USER    NEWDPF about -0.174000 -0.001000 -0.047000
DOCKED: USER    NEWDPF tran0 -14.500175 -0.889123 3.485162
DOCKED: USER    NEWDPF quaternion0 -0.773892 -0.057768 -0.144274 0.613953
DOCKED: USER    NEWDPF axisangle0 -0.980427 -0.073185 -0.182777 104.248191
DOCKED: USER    NEWDPF quat0 -0.980427 -0.073185 -0.182777 104.248191
DOCKED: USER    NEWDPF dihe0 -117.51 -14.66 8.33 51.52 -151.59 -5.45 -127.02 32.93 -34.20 10.28 
DOCKED: USER  keepresnum = 1 
DOCKED: USER  
DOCKED: REMARK  10 active torsions:
DOCKED: REMARK  status: ('A' for Active; 'I' for Inactive)
DOCKED: REMARK    1  A    between atoms: C_6  and  C_10 
DOCKED: REMARK    2  A    between atoms: C_10  and  C_11 
DOCKED: REMARK    3  A    between atoms: C_11  and  C_12 
DOCKED: REMARK    4  A    between atoms: C_12  and  O_14 
DOCKED: REMARK    5  A    between atoms: C_17  and  C_20 
DOCKED: REMARK    6  A    between atoms: C_24  and  C_27 
DOCKED: REMARK    7  A    between atoms: C_31  and  C_34 
DOCKED: REMARK    8  A    between atoms: C_34  and  C_35 
DOCKED: REMARK    9  A    between atoms: C_35  and  C_36 
DOCKED: REMARK   10  A    between atoms: C_36  and  O_38 
DOCKED: USER                              x       y       z     vdW  Elec       q    Type
DOCKED: USER                           _______ _______ _______ _____ _____    ______ ____
DOCKED: ROOT
DOCKED: ATOM      1  C   UNL d   1     -16.224  -1.900   3.017 -0.13 +0.05    +0.064 C 
DOCKED: ATOM      2  C   UNL d   1     -12.514   0.051   0.399 -0.23 +0.07    +0.064 A 
DOCKED: ATOM      3  C   UNL d   1      -9.923   0.362   4.431 -0.19 +0.02    +0.064 C 
DOCKED: ATOM      4  C   UNL d   1     -13.539  -1.426   7.001 -0.41 +0.01    +0.064 C 
DOCKED: ATOM      5  C   UNL d   1     -15.451  -1.302   1.920 -0.17 +0.07    +0.066 A 
DOCKED: ATOM      6  C   UNL d   1     -15.921  -1.117   0.631 -0.16 -0.03    -0.021 A 
DOCKED: ATOM      7  C   UNL d   1     -14.889  -0.578  -0.097 -0.17 -0.04    -0.025 A 
DOCKED: ATOM      8  C   UNL d   1     -13.827  -0.455   0.778 -0.21 +0.09    +0.066 A 
DOCKED: ATOM      9  C   UNL d   1     -14.937  -0.190  -1.543 -0.16 +0.06    +0.051 C 
DOCKED: ATOM     10  C   UNL d   1     -11.490   0.233   1.235 -0.26 +0.04    +0.066 A 
DOCKED: ATOM     11  C   UNL d   1     -10.210   0.611   0.822 -0.34 -0.01    -0.021 A 
DOCKED: ATOM     12  C   UNL d   1      -9.439   0.692   1.964 -0.36 +0.00    +0.000 A 
DOCKED: ATOM     13  C   UNL d   1     -10.296   0.347   3.025 -0.26 +0.03    +0.070 A 
DOCKED: ATOM     14  C   UNL d   1      -9.727   0.819  -0.599 -0.39 +0.01    +0.052 C 
DOCKED: ATOM     15  C   UNL d   1     -10.728  -0.018   5.451 -0.39 +0.02    +0.066 A 
DOCKED: ATOM     16  C   UNL d   1     -10.369   0.105   6.787 -0.44 -0.00    -0.021 A 
DOCKED: ATOM     17  C   UNL d   1     -11.409  -0.413   7.530 -0.47 +0.00    +0.000 A 
DOCKED: ATOM     18  C   UNL d   1     -12.378  -0.845   6.628 -0.36 +0.01    +0.070 A 
DOCKED: ATOM     19  C   UNL d   1      -9.088   0.665   7.346 -0.45 +0.01    +0.052 C 
DOCKED: ATOM     20  C   UNL d   1     -14.609  -1.837   6.084 -0.22 +0.02    +0.066 A 
DOCKED: ATOM     21  C   UNL d   1     -15.721  -2.616   6.433 -0.18 -0.01    -0.025 A 
DOCKED: ATOM     22  C   UNL d   1     -16.479  -2.728   5.286 -0.10 -0.01    -0.021 A 
DOCKED: ATOM     23  C   UNL d   1     -15.800  -2.022   4.285 -0.11 +0.04    +0.066 A 
DOCKED: ATOM     24  C   UNL d   1     -16.060  -3.230   7.772 -0.30 +0.01    +0.051 C 
DOCKED: ATOM     25  N   UNL d   1     -14.174  -0.888   2.006 -0.16 -0.27    -0.248 N 
DOCKED: ATOM     26  N   UNL d   1     -11.543   0.059   2.580 -0.16 -0.14    -0.248 N 
DOCKED: ATOM     27  N   UNL d   1     -11.980  -0.563   5.351 -0.26 -0.07    -0.248 N 
DOCKED: ATOM     28  N   UNL d   1     -14.637  -1.519   4.767 -0.10 -0.13    -0.248 N 
DOCKED: ATOM     29 FE   UNL d   1     -13.090  -0.731   3.675 -0.06 +0.00    +0.000 Fe
DOCKED: ENDROOT
DOCKED: BRANCH   6  30
DOCKED: ATOM     30  C   UNL d   1     -17.289  -1.415   0.118 -0.10 +0.05    +0.052 C 
DOCKED: BRANCH  30  31
DOCKED: ATOM     31  C   UNL d   1     -18.346  -0.703   0.955 -0.04 +0.12    +0.115 C 
DOCKED: BRANCH  31  32
DOCKED: ATOM     32  C   UNL d   1     -18.042   0.766   1.049 -0.10 +0.22    +0.139 C 
DOCKED: ATOM     33  O   UNL d   1     -18.402   1.416   2.020 -0.48 -1.37    -0.650 OA
DOCKED: BRANCH  32  34
DOCKED: ATOM     34  O   UNL d   1     -17.369   1.380   0.061 -0.12 -1.65    -0.776 OA
DOCKED: ATOM     35  H   UNL d   1     -17.760   1.413  -0.823 +0.02 +0.23    +0.167 HD
DOCKED: ENDBRANCH  32  34
DOCKED: ENDBRANCH  31  32
DOCKED: ENDBRANCH  30  31
DOCKED: ENDBRANCH   6  30
DOCKED: BRANCH  22  36
DOCKED: ATOM     36  C   UNL d   1     -17.758  -3.510   5.150 -0.10 +0.02    +0.052 C 
DOCKED: BRANCH  36  37
DOCKED: ATOM     37  C   UNL d   1     -18.938  -2.554   5.056 -0.04 +0.06    +0.115 C 
DOCKED: BRANCH  37  38
DOCKED: ATOM     38  C   UNL d   1     -20.168  -3.152   5.676 -0.05 +0.06    +0.139 C 
DOCKED: ATOM     39  O   UNL d   1     -20.166  -4.306   6.081 -0.58 -0.30    -0.650 OA
DOCKED: BRANCH  38  40
DOCKED: ATOM     40  O   UNL d   1     -21.289  -2.417   5.788 +0.04 -0.34    -0.776 OA
DOCKED: ATOM     41  H   UNL d   1     -22.126  -2.863   5.982 +0.01 +0.06    +0.167 HD
DOCKED: ENDBRANCH  38  40
DOCKED: ENDBRANCH  37  38
DOCKED: ENDBRANCH  36  37
DOCKED: ENDBRANCH  22  36
DOCKED: BRANCH  12  42
DOCKED: ATOM     42  C   UNL d   1      -7.989   1.057   1.995 -0.44 +0.00    +0.004 C 
DOCKED: ATOM     43  C   UNL d   1      -7.557   2.209   1.466 -0.43 +0.00    +0.012 C 
DOCKED: ENDBRANCH  12  42
DOCKED: BRANCH  17  44
DOCKED: ATOM     44  C   UNL d   1     -11.480  -0.472   9.008 -0.50 +0.00    +0.004 C 
DOCKED: ATOM     45  C   UNL d   1     -12.269   0.364   9.689 -0.46 +0.00    +0.012 C 
DOCKED: ENDBRANCH  17  44
DOCKED: TORSDOF 10
DOCKED: TER
DOCKED: ENDMDL
________________________________________________________________________________


	BEGINNING GENETIC ALGORITHM DOCKING 99 of 100
Run: 99 Seed: 1260899353 1308730615 [ Run 99 of 100 GA/GALS ]
Beginning LAMARCKIAN GENETIC ALGORITHM (LGA), with a maximum of 25000000 energy evaluations.

Final-Value: -15.444


	FINAL GENETIC ALGORITHM DOCKED STATE
	_______________________________________________


Detailed state:  trans -12.935 -1.043 1.865 quatxyzw -0.509879 -0.447570 -0.228258 -0.698285 center -0.174 -0.001 -0.047 ntor 10 -126.7123 37.4872 -124.0575 -169.6492 -99.7460 -35.8576 -146.8818 62.1020 177.6177 -177.6371
State:	-12.935  -1.043   1.865  -0.712 -0.625 -0.319 -91.421   -126.71   37.49 -124.06 -169.65  -99.75  -35.86 -146.88   62.10  177.62 -177.64

DOCKED: MODEL       99
DOCKED: USER    Run = 99
DOCKED: USER    DPF = D:/Protein_go_brrr/autodock/final/AncMH_nat/heme_Fe/dock.dpf
DOCKED: USER  
DOCKED: USER    Estimated Free Energy of Binding    =  -10.72 kcal/mol  [=(1)+(2)+(3)-(4)]
DOCKED: USER    Estimated Inhibition Constant, Ki   =   13.97 nM (nanomolar)  [Temperature = 298.15 K]
DOCKED: USER    
DOCKED: USER    (1) Final Intermolecular Energy     =  -13.70 kcal/mol
DOCKED: USER        vdW + Hbond + desolv Energy     =   -9.91 kcal/mol
DOCKED: USER        Electrostatic Energy            =   -3.79 kcal/mol
DOCKED: USER    (2) Final Total Internal Energy     =   -1.74 kcal/mol
DOCKED: USER    (3) Torsional Free Energy           =   +2.98 kcal/mol
DOCKED: USER    (4) Unbound System's Energy  [=(2)] =   -1.74 kcal/mol
DOCKED: USER    
DOCKED: USER    
DOCKED: USER    NEWDPF move heme_Fe_opt.pdbqt
DOCKED: USER    NEWDPF about -0.174000 -0.001000 -0.047000
DOCKED: USER    NEWDPF tran0 -12.935039 -1.042746 1.864798
DOCKED: USER    NEWDPF quaternion0 -0.509879 -0.447570 -0.228258 -0.698285
DOCKED: USER    NEWDPF axisangle0 -0.712301 -0.625256 -0.318877 -91.420787
DOCKED: USER    NEWDPF quat0 -0.712301 -0.625256 -0.318877 -91.420787
DOCKED: USER    NEWDPF dihe0 -126.71 37.49 -124.06 -169.65 -99.75 -35.86 -146.88 62.10 177.62 -177.64 
DOCKED: USER  keepresnum = 1 
DOCKED: USER  
DOCKED: REMARK  10 active torsions:
DOCKED: REMARK  status: ('A' for Active; 'I' for Inactive)
DOCKED: REMARK    1  A    between atoms: C_6  and  C_10 
DOCKED: REMARK    2  A    between atoms: C_10  and  C_11 
DOCKED: REMARK    3  A    between atoms: C_11  and  C_12 
DOCKED: REMARK    4  A    between atoms: C_12  and  O_14 
DOCKED: REMARK    5  A    between atoms: C_17  and  C_20 
DOCKED: REMARK    6  A    between atoms: C_24  and  C_27 
DOCKED: REMARK    7  A    between atoms: C_31  and  C_34 
DOCKED: REMARK    8  A    between atoms: C_34  and  C_35 
DOCKED: REMARK    9  A    between atoms: C_35  and  C_36 
DOCKED: REMARK   10  A    between atoms: C_36  and  O_38 
DOCKED: USER                              x       y       z     vdW  Elec       q    Type
DOCKED: USER                           _______ _______ _______ _____ _____    ______ ____
DOCKED: ROOT
DOCKED: ATOM      1  C   UNL d   1     -14.170  -0.850   0.238 -0.17 +0.09    +0.064 C 
DOCKED: ATOM      2  C   UNL d   1     -14.863  -1.775   5.043 -0.16 +0.03    +0.064 A 
DOCKED: ATOM      3  C   UNL d   1     -10.370  -0.311   5.902 -0.40 +0.01    +0.064 C 
DOCKED: ATOM      4  C   UNL d   1      -9.644   0.491   1.242 -0.41 +0.02    +0.064 C 
DOCKED: ATOM      5  C   UNL d   1     -14.754  -1.325   1.500 -0.20 +0.08    +0.066 A 
DOCKED: ATOM      6  C   UNL d   1     -15.999  -1.921   1.620 -0.14 -0.02    -0.021 A 
DOCKED: ATOM      7  C   UNL d   1     -16.192  -2.174   2.955 -0.11 -0.02    -0.025 A 
DOCKED: ATOM      8  C   UNL d   1     -15.057  -1.723   3.600 -0.16 +0.05    +0.066 A 
DOCKED: ATOM      9  C   UNL d   1     -17.394  -2.829   3.565 -0.06 +0.03    +0.051 C 
DOCKED: ATOM     10  C   UNL d   1     -13.755  -1.400   5.684 -0.24 +0.02    +0.066 A 
DOCKED: ATOM     11  C   UNL d   1     -13.642  -1.354   7.076 -0.38 -0.00    -0.021 A 
DOCKED: ATOM     12  C   UNL d   1     -12.361  -0.919   7.349 -0.44 +0.00    +0.000 A 
DOCKED: ATOM     13  C   UNL d   1     -11.755  -0.711   6.098 -0.32 +0.01    +0.070 A 
DOCKED: ATOM     14  C   UNL d   1     -14.724  -1.645   8.095 -0.33 +0.01    +0.052 C 
DOCKED: ATOM     15  C   UNL d   1      -9.798  -0.060   4.701 -0.27 +0.02    +0.066 A 
DOCKED: ATOM     16  C   UNL d   1      -8.446   0.223   4.550 -0.10 -0.01    -0.021 A 
DOCKED: ATOM     17  C   UNL d   1      -8.235   0.458   3.207 -0.34 +0.00    +0.000 A 
DOCKED: ATOM     18  C   UNL d   1      -9.466   0.317   2.570 -0.31 +0.02    +0.070 A 
DOCKED: ATOM     19  C   UNL d   1      -7.397   0.295   5.626 -0.40 +0.01    +0.052 C 
DOCKED: ATOM     20  C   UNL d   1     -10.911   0.291   0.529 -0.29 +0.04    +0.066 A 
DOCKED: ATOM     21  C   UNL d   1     -11.158   0.658  -0.801 -0.28 -0.01    -0.025 A 
DOCKED: ATOM     22  C   UNL d   1     -12.449   0.255  -1.071 -0.22 -0.02    -0.021 A 
DOCKED: ATOM     23  C   UNL d   1     -12.939  -0.333   0.101 -0.19 +0.07    +0.066 A 
DOCKED: ATOM     24  C   UNL d   1     -10.235   1.356  -1.774 -0.32 +0.01    +0.051 C 
DOCKED: ATOM     25  N   UNL d   1     -14.180  -1.216   2.710 -0.15 -0.22    -0.248 N 
DOCKED: ATOM     26  N   UNL d   1     -12.607  -0.996   5.082 -0.23 -0.08    -0.248 N 
DOCKED: ATOM     27  N   UNL d   1     -10.419  -0.045   3.481 -0.11 -0.09    -0.248 N 
DOCKED: ATOM     28  N   UNL d   1     -12.011  -0.268   1.087 -0.17 -0.20    -0.248 N 
DOCKED: ATOM     29 FE   UNL d   1     -12.308  -0.631   3.084 -0.07 +0.00    +0.000 Fe
DOCKED: ENDROOT
DOCKED: BRANCH   6  30
DOCKED: ATOM     30  C   UNL d   1     -16.950  -2.253   0.521 -0.11 +0.06    +0.052 C 
DOCKED: BRANCH  30  31
DOCKED: ATOM     31  C   UNL d   1     -17.947  -1.119   0.308 -0.05 +0.11    +0.115 C 
DOCKED: BRANCH  31  32
DOCKED: ATOM     32  C   UNL d   1     -17.301   0.209   0.590 +0.01 +0.22    +0.139 C 
DOCKED: ATOM     33  O   UNL d   1     -17.479   0.773   1.660 -0.29 -1.19    -0.650 OA
DOCKED: BRANCH  32  34
DOCKED: ATOM     34  O   UNL d   1     -16.520   0.790  -0.336 -0.18 -1.82    -0.776 OA
DOCKED: ATOM     35  H   UNL d   1     -16.868   0.920  -1.229 +0.02 +0.24    +0.167 HD
DOCKED: ENDBRANCH  32  34
DOCKED: ENDBRANCH  31  32
DOCKED: ENDBRANCH  30  31
DOCKED: ENDBRANCH   6  30
DOCKED: BRANCH  22  36
DOCKED: ATOM     36  C   UNL d   1     -13.185   0.469  -2.367 -0.17 +0.04    +0.052 C 
DOCKED: BRANCH  36  37
DOCKED: ATOM     37  C   UNL d   1     -13.732   1.889  -2.419 -0.10 +0.11    +0.115 C 
DOCKED: BRANCH  37  38
DOCKED: ATOM     38  C   UNL d   1     -15.231   1.886  -2.516 -0.06 +0.15    +0.139 C 
DOCKED: ATOM     39  O   UNL d   1     -15.814   1.027  -3.162 +0.02 -0.47    -0.650 OA
DOCKED: BRANCH  38  40
DOCKED: ATOM     40  O   UNL d   1     -15.946   2.838  -1.891 -0.18 -1.38    -0.776 OA
DOCKED: ATOM     41  H   UNL d   1     -16.792   2.600  -1.486 +0.01 +0.29    +0.167 HD
DOCKED: ENDBRANCH  38  40
DOCKED: ENDBRANCH  37  38
DOCKED: ENDBRANCH  36  37
DOCKED: ENDBRANCH  22  36
DOCKED: BRANCH  12  42
DOCKED: ATOM     42  C   UNL d   1     -11.802  -0.711   8.721 -0.57 +0.00    +0.004 C 
DOCKED: ATOM     43  C   UNL d   1     -12.139   0.363   9.447 -0.49 +0.00    +0.012 C 
DOCKED: ENDBRANCH  12  42
DOCKED: BRANCH  17  44
DOCKED: ATOM     44  C   UNL d   1      -6.936   0.776   2.572 -0.38 +0.00    +0.004 C 
DOCKED: ATOM     45  C   UNL d   1      -6.735   1.959   1.980 -0.45 +0.00    +0.012 C 
DOCKED: ENDBRANCH  17  44
DOCKED: TORSDOF 10
DOCKED: TER
DOCKED: ENDMDL
________________________________________________________________________________


	BEGINNING GENETIC ALGORITHM DOCKING 100 of 100
Run: 100 Seed: 450825905 1609341104 [ Run 100 of 100 GA/GALS ]
Beginning LAMARCKIAN GENETIC ALGORITHM (LGA), with a maximum of 25000000 energy evaluations.

Final-Value: -14.975


	FINAL GENETIC ALGORITHM DOCKED STATE
	_______________________________________________


Detailed state:  trans -14.787 -1.692 3.441 quatxyzw 0.622168 0.213622 -0.102567 0.746158 center -0.174 -0.001 -0.047 ntor 10 -46.3028 -131.4728 68.3129 -138.7389 84.3253 88.4600 -117.3054 147.2046 177.1668 -167.9597
State:	-14.787  -1.692   3.441   0.935  0.321 -0.154 83.483    -46.30 -131.47   68.31 -138.74   84.33   88.46 -117.31  147.20  177.17 -167.96

DOCKED: MODEL      100
DOCKED: USER    Run = 100
DOCKED: USER    DPF = D:/Protein_go_brrr/autodock/final/AncMH_nat/heme_Fe/dock.dpf
DOCKED: USER  
DOCKED: USER    Estimated Free Energy of Binding    =   -9.78 kcal/mol  [=(1)+(2)+(3)-(4)]
DOCKED: USER    Estimated Inhibition Constant, Ki   =   67.30 nM (nanomolar)  [Temperature = 298.15 K]
DOCKED: USER    
DOCKED: USER    (1) Final Intermolecular Energy     =  -12.77 kcal/mol
DOCKED: USER        vdW + Hbond + desolv Energy     =   -9.14 kcal/mol
DOCKED: USER        Electrostatic Energy            =   -3.63 kcal/mol
DOCKED: USER    (2) Final Total Internal Energy     =   -2.21 kcal/mol
DOCKED: USER    (3) Torsional Free Energy           =   +2.98 kcal/mol
DOCKED: USER    (4) Unbound System's Energy  [=(2)] =   -2.21 kcal/mol
DOCKED: USER    
DOCKED: USER    
DOCKED: USER    NEWDPF move heme_Fe_opt.pdbqt
DOCKED: USER    NEWDPF about -0.174000 -0.001000 -0.047000
DOCKED: USER    NEWDPF tran0 -14.786770 -1.691778 3.441186
DOCKED: USER    NEWDPF quaternion0 0.622168 0.213622 -0.102567 0.746158
DOCKED: USER    NEWDPF axisangle0 0.934512 0.320865 -0.154058 83.482622
DOCKED: USER    NEWDPF quat0 0.934512 0.320865 -0.154058 83.482622
DOCKED: USER    NEWDPF dihe0 -46.30 -131.47 68.31 -138.74 84.33 88.46 -117.31 147.20 177.17 -167.96 
DOCKED: USER  keepresnum = 1 
DOCKED: USER  
DOCKED: REMARK  10 active torsions:
DOCKED: REMARK  status: ('A' for Active; 'I' for Inactive)
DOCKED: REMARK    1  A    between atoms: C_6  and  C_10 
DOCKED: REMARK    2  A    between atoms: C_10  and  C_11 
DOCKED: REMARK    3  A    between atoms: C_11  and  C_12 
DOCKED: REMARK    4  A    between atoms: C_12  and  O_14 
DOCKED: REMARK    5  A    between atoms: C_17  and  C_20 
DOCKED: REMARK    6  A    between atoms: C_24  and  C_27 
DOCKED: REMARK    7  A    between atoms: C_31  and  C_34 
DOCKED: REMARK    8  A    between atoms: C_34  and  C_35 
DOCKED: REMARK    9  A    between atoms: C_35  and  C_36 
DOCKED: REMARK   10  A    between atoms: C_36  and  O_38 
DOCKED: USER                              x       y       z     vdW  Elec       q    Type
DOCKED: USER                           _______ _______ _______ _____ _____    ______ ____
DOCKED: ROOT
DOCKED: ATOM      1  C   UNL d   1     -16.789  -2.063   3.191 -0.09 +0.05    +0.064 C 
DOCKED: ATOM      2  C   UNL d   1     -13.836  -1.386   7.096 -0.33 +0.01    +0.064 A 
DOCKED: ATOM      3  C   UNL d   1     -10.465   0.363   4.156 -0.35 +0.02    +0.064 C 
DOCKED: ATOM      4  C   UNL d   1     -13.267  -0.382   0.351 -0.24 +0.08    +0.064 C 
DOCKED: ATOM      5  C   UNL d   1     -16.239  -2.112   4.553 -0.09 +0.04    +0.066 A 
DOCKED: ATOM      6  C   UNL d   1     -16.887  -2.660   5.648 -0.10 -0.01    -0.021 A 
DOCKED: ATOM      7  C   UNL d   1     -16.068  -2.468   6.733 -0.18 -0.01    -0.025 A 
DOCKED: ATOM      8  C   UNL d   1     -14.950  -1.810   6.258 -0.20 +0.02    +0.066 A 
DOCKED: ATOM      9  C   UNL d   1     -16.343  -2.912   8.137 -0.28 +0.01    +0.051 C 
DOCKED: ATOM     10  C   UNL d   1     -12.721  -0.801   6.654 -0.36 +0.01    +0.066 A 
DOCKED: ATOM     11  C   UNL d   1     -11.722  -0.303   7.494 -0.48 -0.00    -0.021 A 
DOCKED: ATOM     12  C   UNL d   1     -10.746   0.222   6.671 -0.48 +0.00    +0.000 A 
DOCKED: ATOM     13  C   UNL d   1     -11.208   0.022   5.359 -0.39 +0.02    +0.070 A 
DOCKED: ATOM     14  C   UNL d   1     -11.729  -0.266   9.009 -0.54 +0.01    +0.052 C 
DOCKED: ATOM     15  C   UNL d   1     -10.927   0.221   2.892 -0.21 +0.03    +0.066 A 
DOCKED: ATOM     16  C   UNL d   1     -10.149   0.464   1.767 -0.33 -0.01    -0.021 A 
DOCKED: ATOM     17  C   UNL d   1     -10.956   0.254   0.669 -0.33 +0.00    +0.000 A 
DOCKED: ATOM     18  C   UNL d   1     -12.212  -0.111   1.150 -0.25 +0.06    +0.070 A 
DOCKED: ATOM     19  C   UNL d   1      -8.710   0.903   1.724 -0.41 +0.01    +0.052 C 
DOCKED: ATOM     20  C   UNL d   1     -14.585  -0.827   0.819 -0.19 +0.09    +0.066 A 
DOCKED: ATOM     21  C   UNL d   1     -15.738  -0.918   0.027 -0.16 -0.03    -0.025 A 
DOCKED: ATOM     22  C   UNL d   1     -16.726  -1.411   0.853 -0.12 -0.02    -0.021 A 
DOCKED: ATOM     23  C   UNL d   1     -16.143  -1.595   2.112 -0.12 +0.07    +0.066 A 
DOCKED: ATOM     24  C   UNL d   1     -15.912  -0.558  -1.430 -0.14 +0.06    +0.051 C 
DOCKED: ATOM     25  N   UNL d   1     -15.053  -1.604   4.929 -0.08 -0.13    -0.248 N 
DOCKED: ATOM     26  N   UNL d   1     -12.416  -0.593   5.348 -0.25 -0.07    -0.248 N 
DOCKED: ATOM     27  N   UNL d   1     -12.183  -0.174   2.515 -0.16 -0.17    -0.248 N 
DOCKED: ATOM     28  N   UNL d   1     -14.848  -1.195   2.097 -0.13 -0.27    -0.248 N 
DOCKED: ATOM     29 FE   UNL d   1     -13.632  -0.894   3.721 -0.06 +0.00    +0.000 Fe
DOCKED: ENDROOT
DOCKED: BRANCH   6  30
DOCKED: ATOM     30  C   UNL d   1     -18.208  -3.350   5.662 -0.10 +0.02    +0.052 C 
DOCKED: BRANCH  30  31
DOCKED: ATOM     31  C   UNL d   1     -19.327  -2.369   5.996 -0.05 +0.06    +0.115 C 
DOCKED: BRANCH  31  32
DOCKED: ATOM     32  C   UNL d   1     -19.424  -1.304   4.939 -0.07 +0.11    +0.139 C 
DOCKED: ATOM     33  O   UNL d   1     -20.063  -1.499   3.914 +0.02 -0.51    -0.650 OA
DOCKED: BRANCH  32  34
DOCKED: ATOM     34  O   UNL d   1     -18.807  -0.123   5.113 +0.03 -0.87    -0.776 OA
DOCKED: ATOM     35  H   UNL d   1     -18.290   0.248   4.384 +0.03 +0.23    +0.167 HD
DOCKED: ENDBRANCH  32  34
DOCKED: ENDBRANCH  31  32
DOCKED: ENDBRANCH  30  31
DOCKED: ENDBRANCH   6  30
DOCKED: BRANCH  22  36
DOCKED: ATOM     36  C   UNL d   1     -18.163  -1.645   0.465 -0.05 +0.05    +0.052 C 
DOCKED: BRANCH  36  37
DOCKED: ATOM     37  C   UNL d   1     -18.868  -0.310   0.279 -0.03 +0.11    +0.115 C 
DOCKED: BRANCH  37  38
DOCKED: ATOM     38  C   UNL d   1     -18.331   0.720   1.233 -0.11 +0.21    +0.139 C 
DOCKED: ATOM     39  O   UNL d   1     -17.369   1.411   0.931 -0.05 -1.54    -0.650 OA
DOCKED: BRANCH  38  40
DOCKED: ATOM     40  O   UNL d   1     -18.909   0.887   2.436 -0.15 -1.60    -0.776 OA
DOCKED: ATOM     41  H   UNL d   1     -19.093   0.109   2.981 +0.02 +0.26    +0.167 HD
DOCKED: ENDBRANCH  38  40
DOCKED: ENDBRANCH  37  38
DOCKED: ENDBRANCH  36  37
DOCKED: ENDBRANCH  22  36
DOCKED: BRANCH  12  42
DOCKED: ATOM     42  C   UNL d   1      -9.487   0.876   7.145 -0.40 +0.00    +0.004 C 
DOCKED: ATOM     43  C   UNL d   1      -8.289   0.345   6.869 -0.48 +0.00    +0.012 C 
DOCKED: ENDBRANCH  12  42
DOCKED: BRANCH  17  44
DOCKED: ATOM     44  C   UNL d   1     -10.547   0.373  -0.749 -0.38 +0.00    +0.004 C 
DOCKED: ATOM     45  C   UNL d   1     -10.563   1.557  -1.369 -0.34 +0.00    +0.012 C 
DOCKED: ENDBRANCH  17  44
DOCKED: TORSDOF 10
DOCKED: TER
DOCKED: ENDMDL
________________________________________________________________________________

DPF> analysis                             # perform a ranked cluster analysis


		CLUSTER ANALYSIS OF CONFORMATIONS
		_________________________________

Number of conformations = 100

RMSD cluster analysis will be performed using the ligand atoms only (45 / 45 total atoms).

Outputting structurally similar clusters, ranked in order of increasing energy.


________________________________________________________________________________

Number of distinct conformational clusters found = 16,  out of 100 runs,
Using an rmsd-tolerance of 2.0 A


	CLUSTERING HISTOGRAM
	____________________

________________________________________________________________________________
     |           |     |           |     |                                    
Clus | Lowest    | Run | Mean      | Num | Histogram                          
-ter | Binding   |     | Binding   | in  |                                    
Rank | Energy    |     | Energy    | Clus|    5    10   15   20   25   30   35
_____|___________|_____|___________|_____|____:____|____:____|____:____|____:___
   1 |    -12.60 |  24 |    -11.85 |  11 |###########
   2 |    -12.30 |  92 |    -12.30 |   1 |#
   3 |    -11.78 |  72 |    -11.78 |   1 |#
   4 |    -11.53 |  33 |    -10.56 |  31 |###############################
   5 |    -10.85 |  46 |    -10.07 |  40 |########################################
   6 |     -9.99 |  89 |     -9.80 |   3 |###
   7 |     -9.44 |   6 |     -9.44 |   1 |#
   8 |     -8.64 |  44 |     -8.64 |   1 |#
   9 |     -7.34 |  52 |     -7.34 |   1 |#
  10 |     -6.96 |  54 |     -6.36 |   4 |####
  11 |     -6.88 |  26 |     -6.88 |   1 |#
  12 |     -6.87 |  85 |     -6.87 |   1 |#
  13 |     -6.38 |  57 |     -6.38 |   1 |#
  14 |     -5.67 |  30 |     -5.67 |   1 |#
  15 |     -5.17 |  93 |     -5.17 |   1 |#
  16 |     -4.74 |  62 |     -4.74 |   1 |#
_____|___________|_____|___________|_____|______________________________________


Number of multi-member conformational clusters found = 5, out of 100 runs.

	RMSD TABLE
	__________

_____________________________________________________________________
     |      |      |           |         |                 |
Rank | Sub- | Run  | Binding   | Cluster | Reference       | Grep
     | Rank |      | Energy    | RMSD    | RMSD            | Pattern
_____|______|______|___________|_________|_________________|___________
   1      1     24      -12.60      0.00      8.26           RANKING
   1      2     16      -12.48      0.84      8.36           RANKING
   1      3      4      -12.03      0.89      8.25           RANKING
   1      4     95      -11.91      1.19      8.45           RANKING
   1      5     59      -11.82      1.87      8.52           RANKING
   1      6     97      -11.82      0.85      8.23           RANKING
   1      7     86      -11.73      0.49      8.39           RANKING
   1      8     70      -11.71      1.03      8.53           RANKING
   1      9     91      -11.69      1.19      8.38           RANKING
   1     10     11      -11.66      0.73      8.38           RANKING
   1     11      5      -10.92      1.95      9.19           RANKING
   2      1     92      -12.30      0.00      7.92           RANKING
   3      1     72      -11.78      0.00      8.92           RANKING
   4      1     33      -11.53      0.00     10.06           RANKING
   4      2     13      -11.21      1.59     10.32           RANKING
   4      3     76      -11.16      0.87      9.89           RANKING
   4      4     42      -11.14      0.87      9.76           RANKING
   4      5     80      -11.02      1.20     10.32           RANKING
   4      6     53      -11.02      1.07     10.14           RANKING
   4      7     49      -10.99      1.36      9.25           RANKING
   4      8     23      -10.87      0.78     10.24           RANKING
   4      9     58      -10.84      0.55     10.08           RANKING
   4     10     73      -10.84      1.33     10.44           RANKING
   4     11     40      -10.75      1.11     10.08           RANKING
   4     12     99      -10.72      1.20     10.58           RANKING
   4     13     27      -10.70      0.95     10.04           RANKING
   4     14     61      -10.67      1.15      9.98           RANKING
   4     15     20      -10.66      0.59     10.28           RANKING
   4     16     45      -10.59      1.30     10.20           RANKING
   4     17     37      -10.55      1.12     10.00           RANKING
   4     18     21      -10.51      1.17     10.41           RANKING
   4     19     71      -10.43      1.88     11.88           RANKING
   4     20     66      -10.34      1.97     11.85           RANKING
   4     21      2      -10.26      1.89     11.84           RANKING
   4     22     12      -10.25      1.29      9.95           RANKING
   4     23     28      -10.22      1.97     11.88           RANKING
   4     24     22      -10.22      1.89     11.58           RANKING
   4     25     78      -10.18      1.98     11.99           RANKING
   4     26     48      -10.16      1.99     11.92           RANKING
   4     27     82      -10.02      1.52     10.49           RANKING
   4     28     34       -9.98      1.98     11.89           RANKING
   4     29      8       -9.96      1.97     11.90           RANKING
   4     30     60       -9.91      0.87     10.34           RANKING
   4     31     90       -9.62      1.97     11.78           RANKING
   5      1     46      -10.85      0.00     11.52           RANKING
   5      2      1      -10.83      0.55     11.33           RANKING
   5      3      7      -10.81      0.38     11.39           RANKING
   5      4     10      -10.80      0.63     11.48           RANKING
   5      5     18      -10.80      0.60     11.32           RANKING
   5      6     81      -10.77      0.50     11.49           RANKING
   5      7     36      -10.67      0.60     11.34           RANKING
   5      8     98      -10.60      1.71     12.08           RANKING
   5      9     75      -10.56      0.60     11.46           RANKING
   5     10     39      -10.55      1.02     11.24           RANKING
   5     11     94      -10.41      0.81     11.57           RANKING
   5     12     25      -10.35      0.82     11.75           RANKING
   5     13     64      -10.26      0.77     11.45           RANKING
   5     14     17      -10.25      1.08     11.25           RANKING
   5     15     77      -10.19      1.98     11.96           RANKING
   5     16     56      -10.15      0.93     11.55           RANKING
   5     17     35      -10.02      1.90     11.94           RANKING
   5     18     69      -10.01      1.79     12.07           RANKING
   5     19     55       -9.99      1.74     12.11           RANKING
   5     20     87       -9.97      1.82     12.11           RANKING
   5     21     79       -9.94      1.91     12.17           RANKING
   5     22     29       -9.94      1.04     11.20           RANKING
   5     23     96       -9.94      1.91     11.97           RANKING
   5     24     50       -9.94      1.90     11.93           RANKING
   5     25     51       -9.90      1.87     12.24           RANKING
   5     26     14       -9.88      1.88     12.19           RANKING
   5     27     83       -9.87      1.81     12.25           RANKING
   5     28     63       -9.85      1.76     12.25           RANKING
   5     29     15       -9.84      1.15     11.59           RANKING
   5     30     84       -9.79      1.95     11.88           RANKING
   5     31    100       -9.78      1.86     12.21           RANKING
   5     32     68       -9.75      1.95     12.24           RANKING
   5     33      9       -9.74      1.79     12.11           RANKING
   5     34      3       -9.74      1.59     12.22           RANKING
   5     35     31       -9.72      1.96     11.92           RANKING
   5     36     38       -9.71      1.83     12.18           RANKING
   5     37     19       -9.60      1.74     12.25           RANKING
   5     38     32       -9.54      1.02     11.49           RANKING
   5     39     41       -8.87      1.78     11.59           RANKING
   5     40     43       -8.70      1.90     11.90           RANKING
   6      1     89       -9.99      0.00     11.84           RANKING
   6      2     67       -9.72      0.49     11.87           RANKING
   6      3     65       -9.69      0.54     11.89           RANKING
   7      1      6       -9.44      0.00      8.03           RANKING
   8      1     44       -8.64      0.00     11.59           RANKING
   9      1     52       -7.34      0.00     13.34           RANKING
  10      1     54       -6.96      0.00     21.28           RANKING
  10      2     88       -6.53      0.83     21.44           RANKING
  10      3     47       -6.41      1.17     21.21           RANKING
  10      4     74       -5.56      0.89     21.70           RANKING
  11      1     26       -6.88      0.00     21.14           RANKING
  12      1     85       -6.87      0.00     17.24           RANKING
  13      1     57       -6.38      0.00     22.23           RANKING
  14      1     30       -5.67      0.00     12.59           RANKING
  15      1     93       -5.17      0.00     15.97           RANKING
  16      1     62       -4.74      0.00     13.21           RANKING
_______________________________________________________________________



	INFORMATION ENTROPY ANALYSIS FOR THIS CLUSTERING
	________________________________________________


Information entropy for this clustering = 0.37  (rmstol = 2.00 Angstrom)

_______________________________________________________________________


	STATISTICAL MECHANICAL ANALYSIS
	_______________________________


Partition function, Q =   101.70            at Temperature, T = 298.15 K
Free energy,        A ~ -2738.49 kcal/mol   at Temperature, T = 298.15 K
Internal energy,    U =   -10.01 kcal/mol   at Temperature, T = 298.15 K
Entropy,            S =     9.15 kcal/mol/K at Temperature, T = 298.15 K

_______________________________________________________________________


	LOWEST ENERGY DOCKED CONFORMATION from EACH CLUSTER
	___________________________________________________



Keeping original residue number (specified in the input PDBQ file) for outputting.

MODEL       24
USER    Run = 24
USER    Cluster Rank = 1
USER    Number of conformations in this cluster = 11
USER  
USER    RMSD from reference structure       = 8.261 A
USER  
USER    Estimated Free Energy of Binding    =  -12.60 kcal/mol  [=(1)+(2)+(3)-(4)]
USER    Estimated Inhibition Constant, Ki   =  583.33 pM (picomolar)  [Temperature = 298.15 K]
USER    
USER    (1) Final Intermolecular Energy     =  -15.58 kcal/mol
USER        vdW + Hbond + desolv Energy     =  -12.60 kcal/mol
USER        Electrostatic Energy            =   -2.98 kcal/mol
USER    (2) Final Total Internal Energy     =   -1.60 kcal/mol
USER    (3) Torsional Free Energy           =   +2.98 kcal/mol
USER    (4) Unbound System's Energy  [=(2)] =   -1.60 kcal/mol
USER    
USER    
USER  
USER    DPF = D:/Protein_go_brrr/autodock/final/AncMH_nat/heme_Fe/dock.dpf
USER    NEWDPF move	heme_Fe_opt.pdbqt
USER    NEWDPF about	-0.174000 -0.001000 -0.047000
USER    NEWDPF tran0	-10.352664 0.945265 3.291623
USER    NEWDPF axisangle0	0.984902 -0.052884 0.164840 -108.100401
USER    NEWDPF quaternion0	0.797309 -0.042812 0.133443 -0.587076
USER    NEWDPF dihe0	64.84 108.77 47.96 -118.51 77.94 -108.56 -65.64 62.24 -156.38 -157.21 
USER  
USER                              x       y       z    vdW   Elec        q     RMS 
ATOM      1  C   UNL d   1     -12.156   0.284   2.570 -0.33 +0.05    +0.064     8.261
ATOM      2  C   UNL d   1      -7.931   1.812   0.509 -0.35 +0.01    +0.064     8.261
ATOM      3  C   UNL d   1      -5.759   1.321   4.764 -0.13 +0.00    +0.064     8.261
ATOM      4  C   UNL d   1      -9.861  -0.058   6.802 -0.41 +0.01    +0.064     8.261
ATOM      5  C   UNL d   1     -11.188   0.839   1.614 -0.27 +0.04    +0.066     8.261
ATOM      6  C   UNL d   1     -11.486   1.216   0.315 -0.26 -0.02    -0.021     8.261
ATOM      7  C   UNL d   1     -10.311   1.637  -0.258 -0.29 -0.01    -0.025     8.261
ATOM      8  C   UNL d   1      -9.340   1.501   0.715 -0.32 +0.02    +0.066     8.261
ATOM      9  C   UNL d   1     -10.146   2.156  -1.653 -0.24 +0.01    +0.051     8.261
ATOM     10  C   UNL d   1      -6.985   1.744   1.447 -0.38 +0.01    +0.066     8.261
ATOM     11  C   UNL d   1      -5.625   1.938   1.191 -0.43 -0.00    -0.021     8.261
ATOM     12  C   UNL d   1      -4.975   1.785   2.399 -0.37 +0.00    +0.000     8.261
ATOM     13  C   UNL d   1      -5.981   1.495   3.337 -0.33 +0.00    +0.070     8.261
ATOM     14  C   UNL d   1      -4.969   2.188  -0.152 -0.54 -0.00    +0.052     8.261
ATOM     15  C   UNL d   1      -6.716   0.991   5.663 -0.33 +0.01    +0.066     8.261
ATOM     16  C   UNL d   1      -6.483   0.933   7.032 -0.42 -0.00    -0.021     8.261
ATOM     17  C   UNL d   1      -7.664   0.532   7.621 -0.45 +0.00    +0.000     8.261
ATOM     18  C   UNL d   1      -8.590   0.351   6.596 -0.36 +0.01    +0.070     8.261
ATOM     19  C   UNL d   1      -5.196   1.217   7.757 -0.55 -0.00    +0.052     8.261
ATOM     20  C   UNL d   1     -10.880  -0.200   5.756 -0.39 +0.02    +0.066     8.261
ATOM     21  C   UNL d   1     -12.132  -0.809   5.922 -0.37 -0.01    -0.025     8.261
ATOM     22  C   UNL d   1     -12.774  -0.689   4.707 -0.29 -0.01    -0.021     8.261
ATOM     23  C   UNL d   1     -11.892  -0.021   3.850 -0.27 +0.03    +0.066     8.261
ATOM     24  C   UNL d   1     -12.702  -1.475   7.153 -0.29 +0.01    +0.051     8.261
ATOM     25  N   UNL d   1      -9.878   1.025   1.856 -0.19 -0.08    -0.248     8.261
ATOM     26  N   UNL d   1      -7.205   1.461   2.756 -0.22 -0.03    -0.248     8.261
ATOM     27  N   UNL d   1      -8.021   0.675   5.397 +0.03 -0.08    -0.248     8.261
ATOM     28  N   UNL d   1     -10.721   0.235   4.482 -0.24 -0.08    -0.248     8.261
ATOM     29 FE   UNL d   1      -8.963   0.847   3.621 -0.08 +0.00    +0.000     8.261
ATOM     30  C   UNL d   1     -12.822   1.198  -0.345 +0.01 +0.08    +0.052     8.261
ATOM     31  C   UNL d   1     -13.317  -0.233  -0.525 -0.15 +0.14    +0.115     8.261
ATOM     32  C   UNL d   1     -14.542  -0.475   0.312 -0.17 +0.21    +0.139     8.261
ATOM     33  O   UNL d   1     -15.636  -0.063  -0.049 -0.38 -1.22    -0.650     8.261
ATOM     34  O   UNL d   1     -14.445  -1.150   1.470 +0.04 -0.94    -0.776     8.261
ATOM     35  H   UNL d   1     -14.890  -2.005   1.554 +0.04 +0.20    +0.167     8.261
ATOM     36  C   UNL d   1     -14.140  -1.231   4.376 -0.20 +0.03    +0.052     8.261
ATOM     37  C   UNL d   1     -14.149  -2.742   4.551 -0.24 +0.06    +0.115     8.261
ATOM     38  C   UNL d   1     -14.459  -3.432   3.252 -0.17 +0.12    +0.139     8.261
ATOM     39  O   UNL d   1     -15.534  -3.987   3.080 +0.05 -0.60    -0.650     8.261
ATOM     40  O   UNL d   1     -13.545  -3.447   2.266 -0.45 -1.16    -0.776     8.261
ATOM     41  H   UNL d   1     -13.359  -2.629   1.784 +0.05 +0.22    +0.167     8.261
ATOM     42  C   UNL d   1      -3.496   1.897   2.596 -0.38 -0.00    +0.004     8.261
ATOM     43  C   UNL d   1      -2.940   3.046   3.002 -0.48 -0.00    +0.012     8.261
ATOM     44  C   UNL d   1      -7.898   0.353   9.072 -0.45 +0.00    +0.004     8.261
ATOM     45  C   UNL d   1      -7.242  -0.587   9.760 -0.64 +0.00    +0.012     8.261
TER
ENDMDL
MODEL       92
USER    Run = 92
USER    Cluster Rank = 2
USER    Number of conformations in this cluster = 1
USER  
USER    RMSD from reference structure       = 7.923 A
USER  
USER    Estimated Free Energy of Binding    =  -12.30 kcal/mol  [=(1)+(2)+(3)-(4)]
USER    Estimated Inhibition Constant, Ki   =  957.72 pM (picomolar)  [Temperature = 298.15 K]
USER    
USER    (1) Final Intermolecular Energy     =  -15.29 kcal/mol
USER        vdW + Hbond + desolv Energy     =  -13.46 kcal/mol
USER        Electrostatic Energy            =   -1.83 kcal/mol
USER    (2) Final Total Internal Energy     =   -0.56 kcal/mol
USER    (3) Torsional Free Energy           =   +2.98 kcal/mol
USER    (4) Unbound System's Energy  [=(2)] =   -0.56 kcal/mol
USER    
USER    
USER  
USER    DPF = D:/Protein_go_brrr/autodock/final/AncMH_nat/heme_Fe/dock.dpf
USER    NEWDPF move	heme_Fe_opt.pdbqt
USER    NEWDPF about	-0.174000 -0.001000 -0.047000
USER    NEWDPF tran0	-8.629892 1.556120 3.640359
USER    NEWDPF axisangle0	-0.642876 0.516369 -0.565750 148.638478
USER    NEWDPF quaternion0	-0.618950 0.497151 -0.544694 0.270277
USER    NEWDPF dihe0	162.23 161.09 -155.22 -126.97 117.98 93.27 109.24 132.22 173.24 -6.32 
USER  
USER                              x       y       z    vdW   Elec        q     RMS 
ATOM      1  C   UNL d   1      -8.187   1.747   1.646 -0.38 +0.01    +0.064     7.923
ATOM      2  C   UNL d   1      -5.560   1.940   5.829 -0.27 +0.00    +0.064     7.923
ATOM      3  C   UNL d   1      -9.254  -0.059   8.159 -0.36 +0.01    +0.064     7.923
ATOM      4  C   UNL d   1     -11.852  -0.159   4.143 -0.28 +0.03    +0.064     7.923
ATOM      5  C   UNL d   1      -7.136   2.064   2.623 -0.29 +0.01    +0.066     7.923
ATOM      6  C   UNL d   1      -5.966   2.746   2.333 -0.39 -0.00    -0.021     7.923
ATOM      7  C   UNL d   1      -5.236   2.796   3.495 -0.38 +0.00    -0.025     7.923
ATOM      8  C   UNL d   1      -5.989   2.142   4.450 -0.35 +0.00    +0.066     7.923
ATOM      9  C   UNL d   1      -3.901   3.454   3.671 -0.44 -0.00    +0.051     7.923
ATOM     10  C   UNL d   1      -6.292   1.364   6.784 -0.38 +0.00    +0.066     7.923
ATOM     11  C   UNL d   1      -5.810   1.082   8.065 -0.50 -0.00    -0.021     7.923
ATOM     12  C   UNL d   1      -6.851   0.490   8.751 -0.46 +0.00    +0.000     7.923
ATOM     13  C   UNL d   1      -7.922   0.432   7.842 -0.40 +0.01    +0.070     7.923
ATOM     14  C   UNL d   1      -4.406   1.304   8.588 -0.43 -0.00    +0.052     7.923
ATOM     15  C   UNL d   1     -10.272  -0.164   7.273 -0.25 +0.01    +0.066     7.923
ATOM     16  C   UNL d   1     -11.558  -0.545   7.637 -0.42 -0.00    -0.021     7.923
ATOM     17  C   UNL d   1     -12.308  -0.577   6.480 -0.42 +0.00    +0.000     7.923
ATOM     18  C   UNL d   1     -11.460  -0.220   5.434 -0.37 +0.02    +0.070     7.923
ATOM     19  C   UNL d   1     -12.058  -0.889   9.014 -0.37 +0.00    +0.052     7.923
ATOM     20  C   UNL d   1     -11.004   0.273   3.025 -0.23 +0.03    +0.066     7.923
ATOM     21  C   UNL d   1     -11.331   0.151   1.667 -0.29 -0.02    -0.025     7.923
ATOM     22  C   UNL d   1     -10.278   0.712   0.974 -0.33 -0.01    -0.021     7.923
ATOM     23  C   UNL d   1      -9.353   1.146   1.931 -0.30 +0.02    +0.066     7.923
ATOM     24  C   UNL d   1     -12.563  -0.463   1.044 -0.30 +0.05    +0.051     7.923
ATOM     25  N   UNL d   1      -7.149   1.706   3.919 -0.07 -0.04    -0.248     7.923
ATOM     26  N   UNL d   1      -7.579   0.957   6.640 -0.24 -0.03    -0.248     7.923
ATOM     27  N   UNL d   1     -10.219   0.077   5.926 -0.28 -0.06    -0.248     7.923
ATOM     28  N   UNL d   1      -9.780   0.834   3.178 -0.15 -0.09    -0.248     7.923
ATOM     29 FE   UNL d   1      -8.681   0.895   4.909 -0.08 +0.00    +0.000     7.923
ATOM     30  C   UNL d   1      -5.569   3.340   1.026 -0.42 +0.00    +0.052     7.923
ATOM     31  C   UNL d   1      -4.645   2.398   0.262 -0.52 -0.00    +0.115     7.923
ATOM     32  C   UNL d   1      -3.297   2.332   0.925 -0.36 -0.00    +0.139     7.923
ATOM     33  O   UNL d   1      -2.876   1.278   1.379 -0.04 +0.02    -0.650     7.923
ATOM     34  O   UNL d   1      -2.539   3.438   1.023 +0.16 +0.03    -0.776     7.923
ATOM     35  H   UNL d   1      -2.737   4.195   0.454 +0.11 -0.01    +0.167     7.923
ATOM     36  C   UNL d   1     -10.149   0.781  -0.525 -0.38 +0.02    +0.052     7.923
ATOM     37  C   UNL d   1     -10.759   2.079  -1.033 -0.25 +0.05    +0.115     7.923
ATOM     38  C   UNL d   1     -12.125   2.299  -0.446 -0.16 +0.16    +0.139     7.923
ATOM     39  O   UNL d   1     -12.268   2.957   0.574 -0.49 -0.94    -0.650     7.923
ATOM     40  O   UNL d   1     -13.205   1.764  -1.042 -0.06 -1.24    -0.776     7.923
ATOM     41  H   UNL d   1     -13.144   1.490  -1.967 +0.05 +0.16    +0.167     7.923
ATOM     42  C   UNL d   1      -6.780   0.011  10.166 -0.56 +0.00    +0.004     7.923
ATOM     43  C   UNL d   1      -6.744  -1.298  10.450 -0.73 -0.00    +0.012     7.923
ATOM     44  C   UNL d   1     -13.748  -0.909   6.384 -0.05 +0.00    +0.004     7.923
ATOM     45  C   UNL d   1     -14.172  -2.168   6.534 -0.37 +0.00    +0.012     7.923
TER
ENDMDL
MODEL       72
USER    Run = 72
USER    Cluster Rank = 3
USER    Number of conformations in this cluster = 1
USER  
USER    RMSD from reference structure       = 8.917 A
USER  
USER    Estimated Free Energy of Binding    =  -11.78 kcal/mol  [=(1)+(2)+(3)-(4)]
USER    Estimated Inhibition Constant, Ki   =    2.34 nM (nanomolar)  [Temperature = 298.15 K]
USER    
USER    (1) Final Intermolecular Energy     =  -14.76 kcal/mol
USER        vdW + Hbond + desolv Energy     =  -14.63 kcal/mol
USER        Electrostatic Energy            =   -0.13 kcal/mol
USER    (2) Final Total Internal Energy     =   -0.67 kcal/mol
USER    (3) Torsional Free Energy           =   +2.98 kcal/mol
USER    (4) Unbound System's Energy  [=(2)] =   -0.67 kcal/mol
USER    
USER    
USER  
USER    DPF = D:/Protein_go_brrr/autodock/final/AncMH_nat/heme_Fe/dock.dpf
USER    NEWDPF move	heme_Fe_opt.pdbqt
USER    NEWDPF about	-0.174000 -0.001000 -0.047000
USER    NEWDPF tran0	-8.837589 0.937609 6.037637
USER    NEWDPF axisangle0	-0.592950 -0.689952 0.415182 110.651997
USER    NEWDPF quaternion0	-0.487644 -0.567418 0.341446 0.568906
USER    NEWDPF dihe0	179.66 -73.29 51.03 -145.48 -26.88 -91.93 -68.83 -103.42 13.06 146.56 
USER  
USER                              x       y       z    vdW   Elec        q     RMS 
ATOM      1  C   UNL d   1      -8.970   0.092   7.903 -0.38 +0.01    +0.064     8.917
ATOM      2  C   UNL d   1     -11.714  -0.091   3.796 -0.20 +0.03    +0.064     8.917
ATOM      3  C   UNL d   1      -8.048   1.811   1.344 -0.41 +0.01    +0.064     8.917
ATOM      4  C   UNL d   1      -5.413   2.095   5.327 -0.28 +0.00    +0.064     8.917
ATOM      5  C   UNL d   1     -10.112  -0.058   6.990 -0.37 +0.01    +0.066     8.917
ATOM      6  C   UNL d   1     -11.378  -0.475   7.369 -0.42 -0.00    -0.021     8.917
ATOM      7  C   UNL d   1     -12.138  -0.529   6.227 -0.40 -0.01    -0.025     8.917
ATOM      8  C   UNL d   1     -11.306  -0.143   5.194 -0.36 +0.02    +0.066     8.917
ATOM      9  C   UNL d   1     -13.584  -0.913   6.147 -0.14 +0.01    +0.051     8.917
ATOM     10  C   UNL d   1     -10.949   0.333   2.788 -0.26 +0.03    +0.066     8.917
ATOM     11  C   UNL d   1     -11.328   0.263   1.445 -0.29 -0.01    -0.021     8.917
ATOM     12  C   UNL d   1     -10.281   0.790   0.716 -0.35 +0.00    +0.000     8.917
ATOM     13  C   UNL d   1      -9.304   1.150   1.661 -0.31 +0.02    +0.070     8.917
ATOM     14  C   UNL d   1     -12.598  -0.340   0.879 -0.29 +0.05    +0.052     8.917
ATOM     15  C   UNL d   1      -7.082   2.113   2.244 -0.33 +0.01    +0.066     8.917
ATOM     16  C   UNL d   1      -5.940   2.833   1.918 -0.39 -0.00    -0.021     8.917
ATOM     17  C   UNL d   1      -5.177   2.913   3.065 -0.40 -0.00    +0.000     8.917
ATOM     18  C   UNL d   1      -5.871   2.235   4.064 -0.35 +0.00    +0.070     8.917
ATOM     19  C   UNL d   1      -5.566   3.403   0.577 -0.39 +0.00    +0.052     8.917
ATOM     20  C   UNL d   1      -6.143   1.441   6.420 -0.37 +0.00    +0.066     8.917
ATOM     21  C   UNL d   1      -5.603   1.113   7.672 -0.47 -0.00    -0.025     8.917
ATOM     22  C   UNL d   1      -6.638   0.556   8.394 -0.46 -0.00    -0.021     8.917
ATOM     23  C   UNL d   1      -7.760   0.559   7.557 -0.40 +0.01    +0.066     8.917
ATOM     24  C   UNL d   1      -4.190   1.307   8.170 -0.51 -0.00    +0.051     8.917
ATOM     25  N   UNL d   1     -10.077   0.153   5.663 -0.27 -0.06    -0.248     8.917
ATOM     26  N   UNL d   1      -9.707   0.864   2.923 -0.17 -0.08    -0.248     8.917
ATOM     27  N   UNL d   1      -7.062   1.780   3.572 -0.15 -0.03    -0.248     8.917
ATOM     28  N   UNL d   1      -7.440   1.059   6.339 -0.22 -0.03    -0.248     8.917
ATOM     29 FE   UNL d   1      -8.572   0.962   4.631 -0.08 +0.00    +0.000     8.917
ATOM     30  C   UNL d   1     -11.849  -0.786   8.748 -0.51 +0.00    +0.052     8.917
ATOM     31  C   UNL d   1     -12.682   0.362   9.306 -0.36 +0.01    +0.115     8.917
ATOM     32  C   UNL d   1     -14.123  -0.048   9.438 -0.36 +0.02    +0.139     8.917
ATOM     33  O   UNL d   1     -14.593  -0.913   8.713 -0.24 -0.08    -0.650     8.917
ATOM     34  O   UNL d   1     -14.910   0.536  10.357 -0.07 -0.06    -0.776     8.917
ATOM     35  H   UNL d   1     -14.533   1.217  10.933 -0.47 -0.03    +0.167     8.917
ATOM     36  C   UNL d   1      -6.538   0.006   9.793 -0.56 +0.00    +0.052     8.917
ATOM     37  C   UNL d   1      -6.828  -1.488   9.779 -0.43 -0.00    +0.115     8.917
ATOM     38  C   UNL d   1      -5.657  -2.259   9.239 -0.54 -0.01    +0.139     8.917
ATOM     39  O   UNL d   1      -5.580  -2.526   8.049 -0.01 +0.01    -0.650     8.917
ATOM     40  O   UNL d   1      -4.680  -2.666  10.069 +0.28 +0.09    -0.776     8.917
ATOM     41  H   UNL d   1      -4.622  -3.603  10.302 -0.26 -0.06    +0.167     8.917
ATOM     42  C   UNL d   1     -10.248   0.905  -0.775 -0.40 +0.00    +0.004     8.917
ATOM     43  C   UNL d   1     -10.541   2.062  -1.383 -0.31 +0.00    +0.012     8.917
ATOM     44  C   UNL d   1      -3.878   3.611   3.200 -0.47 -0.00    +0.004     8.917
ATOM     45  C   UNL d   1      -2.727   2.962   2.998 -0.50 -0.00    +0.012     8.917
TER
ENDMDL
MODEL       33
USER    Run = 33
USER    Cluster Rank = 4
USER    Number of conformations in this cluster = 31
USER  
USER    RMSD from reference structure       = 10.063 A
USER  
USER    Estimated Free Energy of Binding    =  -11.53 kcal/mol  [=(1)+(2)+(3)-(4)]
USER    Estimated Inhibition Constant, Ki   =    3.56 nM (nanomolar)  [Temperature = 298.15 K]
USER    
USER    (1) Final Intermolecular Energy     =  -14.51 kcal/mol
USER        vdW + Hbond + desolv Energy     =  -10.42 kcal/mol
USER        Electrostatic Energy            =   -4.09 kcal/mol
USER    (2) Final Total Internal Energy     =   -1.43 kcal/mol
USER    (3) Torsional Free Energy           =   +2.98 kcal/mol
USER    (4) Unbound System's Energy  [=(2)] =   -1.43 kcal/mol
USER    
USER    
USER  
USER    DPF = D:/Protein_go_brrr/autodock/final/AncMH_nat/heme_Fe/dock.dpf
USER    NEWDPF move	heme_Fe_opt.pdbqt
USER    NEWDPF about	-0.174000 -0.001000 -0.047000
USER    NEWDPF tran0	-12.646296 0.044704 2.157491
USER    NEWDPF axisangle0	0.918778 -0.216080 0.330388 -112.363094
USER    NEWDPF quaternion0	0.763326 -0.179520 0.274488 -0.556563
USER    NEWDPF dihe0	-29.06 -150.85 80.62 -4.52 169.45 -141.80 69.84 -121.32 17.99 -30.05 
USER  
USER                              x       y       z    vdW   Elec        q     RMS 
ATOM      1  C   UNL d   1     -14.050  -0.503   0.765 -0.24 +0.09    +0.064    10.063
ATOM      2  C   UNL d   1      -9.299   0.846   0.572 -0.37 +0.02    +0.064    10.063
ATOM      3  C   UNL d   1      -8.979   0.144   5.313 -0.14 +0.02    +0.064    10.063
ATOM      4  C   UNL d   1     -13.602  -1.064   5.538 -0.16 +0.02    +0.064    10.063
ATOM      5  C   UNL d   1     -12.765   0.022   0.284 -0.22 +0.07    +0.066    10.063
ATOM      6  C   UNL d   1     -12.518   0.444  -1.012 -0.22 -0.02    -0.021    10.063
ATOM      7  C   UNL d   1     -11.197   0.815  -1.065 -0.28 -0.01    -0.025    10.063
ATOM      8  C   UNL d   1     -10.688   0.605   0.202 -0.29 +0.03    +0.066    10.063
ATOM      9  C   UNL d   1     -10.480   1.356  -2.264 -0.32 +0.01    +0.051    10.063
ATOM     10  C   UNL d   1      -8.797   0.707   1.800 -0.35 +0.01    +0.066    10.063
ATOM     11  C   UNL d   1      -7.438   0.834   2.100 -0.35 -0.00    -0.021    10.063
ATOM     12  C   UNL d   1      -7.317   0.620   3.459 -0.36 +0.00    +0.000    10.063
ATOM     13  C   UNL d   1      -8.620   0.362   3.920 -0.16 +0.02    +0.070    10.063
ATOM     14  C   UNL d   1      -6.302   1.080   1.129 -0.22 +0.00    +0.052    10.063
ATOM     15  C   UNL d   1     -10.223  -0.156   5.755 -0.37 +0.02    +0.066    10.063
ATOM     16  C   UNL d   1     -10.545  -0.259   7.102 -0.29 -0.00    -0.021    10.063
ATOM     17  C   UNL d   1     -11.877  -0.610   7.170 -0.42 +0.00    +0.000    10.063
ATOM     18  C   UNL d   1     -12.336  -0.718   5.859 -0.35 +0.02    +0.070    10.063
ATOM     19  C   UNL d   1      -9.632  -0.059   8.282 -0.38 +0.01    +0.052    10.063
ATOM     20  C   UNL d   1     -14.138  -1.128   4.173 -0.15 +0.04    +0.066    10.063
ATOM     21  C   UNL d   1     -15.378  -1.674   3.814 -0.15 -0.02    -0.025    10.063
ATOM     22  C   UNL d   1     -15.491  -1.492   2.451 -0.17 -0.02    -0.021    10.063
ATOM     23  C   UNL d   1     -14.318  -0.852   2.033 -0.23 +0.07    +0.066    10.063
ATOM     24  C   UNL d   1     -16.408  -2.337   4.699 -0.11 +0.03    +0.051    10.063
ATOM     25  N   UNL d   1     -11.647   0.132   1.023 -0.16 -0.18    -0.248    10.063
ATOM     26  N   UNL d   1      -9.521   0.406   2.908 -0.21 -0.08    -0.248    10.063
ATOM     27  N   UNL d   1     -11.332  -0.397   4.989 -0.22 -0.07    -0.248    10.063
ATOM     28  N   UNL d   1     -13.477  -0.673   3.081 -0.17 -0.19    -0.248    10.063
ATOM     29 FE   UNL d   1     -11.500  -0.134   2.996 -0.07 +0.00    +0.000    10.063
ATOM     30  C   UNL d   1     -13.491   0.512  -2.139 -0.17 +0.05    +0.052    10.063
ATOM     31  C   UNL d   1     -13.861   1.959  -2.446 -0.09 +0.11    +0.115    10.063
ATOM     32  C   UNL d   1     -15.284   2.234  -2.047 +0.19 +0.22    +0.139    10.063
ATOM     33  O   UNL d   1     -15.716   3.378  -2.029 -0.45 -1.02    -0.650    10.063
ATOM     34  O   UNL d   1     -16.097   1.221  -1.703 +0.01 -1.17    -0.776    10.063
ATOM     35  H   UNL d   1     -16.813   1.386  -1.074 +0.01 +0.30    +0.167    10.063
ATOM     36  C   UNL d   1     -16.640  -1.953   1.594 -0.12 +0.05    +0.052    10.063
ATOM     37  C   UNL d   1     -17.895  -1.172   1.956 -0.06 +0.11    +0.115    10.063
ATOM     38  C   UNL d   1     -17.679   0.305   1.786 -0.13 +0.21    +0.139    10.063
ATOM     39  O   UNL d   1     -18.162   1.102   2.576 -0.36 -1.30    -0.650    10.063
ATOM     40  O   UNL d   1     -16.949   0.762   0.753 -0.34 -1.83    -0.776    10.063
ATOM     41  H   UNL d   1     -16.923   0.250  -0.067 +0.02 +0.28    +0.167    10.063
ATOM     42  C   UNL d   1      -6.029   0.649   4.219 -0.34 +0.00    +0.004    10.063
ATOM     43  C   UNL d   1      -5.897   1.397   5.322 -0.34 +0.00    +0.012    10.063
ATOM     44  C   UNL d   1     -12.664  -0.810   8.408 -0.58 +0.00    +0.004    10.063
ATOM     45  C   UNL d   1     -12.646   0.102   9.385 -0.55 +0.00    +0.012    10.063
TER
ENDMDL
MODEL       46
USER    Run = 46
USER    Cluster Rank = 5
USER    Number of conformations in this cluster = 40
USER  
USER    RMSD from reference structure       = 11.521 A
USER  
USER    Estimated Free Energy of Binding    =  -10.85 kcal/mol  [=(1)+(2)+(3)-(4)]
USER    Estimated Inhibition Constant, Ki   =   11.05 nM (nanomolar)  [Temperature = 298.15 K]
USER    
USER    (1) Final Intermolecular Energy     =  -13.84 kcal/mol
USER        vdW + Hbond + desolv Energy     =  -10.25 kcal/mol
USER        Electrostatic Energy            =   -3.58 kcal/mol
USER    (2) Final Total Internal Energy     =   -0.65 kcal/mol
USER    (3) Torsional Free Energy           =   +2.98 kcal/mol
USER    (4) Unbound System's Energy  [=(2)] =   -0.65 kcal/mol
USER    
USER    
USER  
USER    DPF = D:/Protein_go_brrr/autodock/final/AncMH_nat/heme_Fe/dock.dpf
USER    NEWDPF move	heme_Fe_opt.pdbqt
USER    NEWDPF about	-0.174000 -0.001000 -0.047000
USER    NEWDPF tran0	-14.595442 -1.217276 3.084090
USER    NEWDPF axisangle0	0.966324 0.083715 0.243331 -105.774412
USER    NEWDPF quaternion0	0.770594 0.066758 0.194044 -0.603386
USER    NEWDPF dihe0	-155.75 161.99 166.44 61.64 -89.77 132.73 -170.34 106.18 0.60 178.92 
USER  
USER                              x       y       z    vdW   Elec        q     RMS 
ATOM      1  C   UNL d   1     -16.200  -2.350   2.490 -0.13 +0.06    +0.064    11.521
ATOM      2  C   UNL d   1     -12.493  -0.070   0.148 -0.23 +0.06    +0.064    11.521
ATOM      3  C   UNL d   1     -10.202   0.370   4.347 -0.29 +0.02    +0.064    11.521
ATOM      4  C   UNL d   1     -13.826  -1.741   6.649 -0.37 +0.01    +0.064    11.521
ATOM      5  C   UNL d   1     -15.406  -1.675   1.454 -0.16 +0.08    +0.066    11.521
ATOM      6  C   UNL d   1     -15.805  -1.503   0.139 -0.15 -0.03    -0.021    11.521
ATOM      7  C   UNL d   1     -14.774  -0.873  -0.512 -0.14 -0.03    -0.025    11.521
ATOM      8  C   UNL d   1     -13.784  -0.684   0.433 -0.17 +0.09    +0.066    11.521
ATOM      9  C   UNL d   1     -14.758  -0.464  -1.952 -0.16 +0.05    +0.051    11.521
ATOM     10  C   UNL d   1     -11.543   0.176   1.053 -0.26 +0.05    +0.066    11.521
ATOM     11  C   UNL d   1     -10.273   0.660   0.730 -0.34 -0.01    -0.021    11.521
ATOM     12  C   UNL d   1      -9.587   0.780   1.922 -0.35 +0.00    +0.000    11.521
ATOM     13  C   UNL d   1     -10.480   0.351   2.919 -0.26 +0.03    +0.070    11.521
ATOM     14  C   UNL d   1      -9.716   0.931  -0.653 -0.38 +0.01    +0.052    11.521
ATOM     15  C   UNL d   1     -11.039  -0.091   5.306 -0.38 +0.02    +0.066    11.521
ATOM     16  C   UNL d   1     -10.779   0.036   6.665 -0.46 -0.00    -0.021    11.521
ATOM     17  C   UNL d   1     -11.821  -0.575   7.331 -0.44 +0.00    +0.000    11.521
ATOM     18  C   UNL d   1     -12.692  -1.065   6.361 -0.35 +0.01    +0.070    11.521
ATOM     19  C   UNL d   1      -9.586   0.684   7.314 -0.45 +0.01    +0.052    11.521
ATOM     20  C   UNL d   1     -14.797  -2.218   5.657 -0.20 +0.03    +0.066    11.521
ATOM     21  C   UNL d   1     -15.865  -3.087   5.922 -0.16 -0.01    -0.025    11.521
ATOM     22  C   UNL d   1     -16.536  -3.236   4.726 -0.10 -0.01    -0.021    11.521
ATOM     23  C   UNL d   1     -15.851  -2.462   3.782 -0.10 +0.05    +0.066    11.521
ATOM     24  C   UNL d   1     -16.241  -3.749   7.227 -0.29 +0.01    +0.051    11.521
ATOM     25  N   UNL d   1     -14.175  -1.164   1.630 -0.16 -0.28    -0.248    11.521
ATOM     26  N   UNL d   1     -11.670  -0.026   2.389 -0.16 -0.15    -0.248    11.521
ATOM     27  N   UNL d   1     -12.235  -0.730   5.117 -0.24 -0.07    -0.248    11.521
ATOM     28  N   UNL d   1     -14.765  -1.879   4.345 -0.10 -0.14    -0.248    11.521
ATOM     29 FE   UNL d   1     -13.218  -0.953   3.369 -0.06 +0.00    +0.000    11.521
ATOM     30  C   UNL d   1     -17.109  -1.898  -0.467 -0.11 +0.05    +0.052    11.521
ATOM     31  C   UNL d   1     -18.123  -0.765  -0.351 -0.03 +0.11    +0.115    11.521
ATOM     32  C   UNL d   1     -17.453   0.495   0.122 +0.02 +0.22    +0.139    11.521
ATOM     33  O   UNL d   1     -17.365   0.743   1.316 -0.39 -1.24    -0.650    11.521
ATOM     34  O   UNL d   1     -16.944   1.363  -0.768 -0.05 -1.53    -0.776    11.521
ATOM     35  H   UNL d   1     -17.298   1.375  -1.668 +0.02 +0.19    +0.167    11.521
ATOM     36  C   UNL d   1     -17.738  -4.114   4.495 -0.10 +0.03    +0.052    11.521
ATOM     37  C   UNL d   1     -17.287  -5.540   4.218 +0.02 +0.05    +0.115    11.521
ATOM     38  C   UNL d   1     -16.719  -5.666   2.832 -0.06 +0.12    +0.139    11.521
ATOM     39  O   UNL d   1     -15.658  -6.241   2.641 -0.37 -0.73    -0.650    11.521
ATOM     40  O   UNL d   1     -17.380  -5.139   1.786 -0.21 -0.83    -0.776    11.521
ATOM     41  H   UNL d   1     -18.318  -4.924   1.882 +0.02 +0.12    +0.167    11.521
ATOM     42  C   UNL d   1      -8.175   1.256   2.054 -0.42 +0.00    +0.004    11.521
ATOM     43  C   UNL d   1      -7.364   0.756   2.995 -0.40 +0.00    +0.012    11.521
ATOM     44  C   UNL d   1     -11.983  -0.666   8.799 -0.57 +0.00    +0.004    11.521
ATOM     45  C   UNL d   1     -13.005  -0.062   9.414 -0.58 +0.00    +0.012    11.521
TER
ENDMDL
MODEL       89
USER    Run = 89
USER    Cluster Rank = 6
USER    Number of conformations in this cluster = 3
USER  
USER    RMSD from reference structure       = 11.836 A
USER  
USER    Estimated Free Energy of Binding    =   -9.99 kcal/mol  [=(1)+(2)+(3)-(4)]
USER    Estimated Inhibition Constant, Ki   =   47.30 nM (nanomolar)  [Temperature = 298.15 K]
USER    
USER    (1) Final Intermolecular Energy     =  -12.98 kcal/mol
USER        vdW + Hbond + desolv Energy     =   -9.76 kcal/mol
USER        Electrostatic Energy            =   -3.21 kcal/mol
USER    (2) Final Total Internal Energy     =   -2.11 kcal/mol
USER    (3) Torsional Free Energy           =   +2.98 kcal/mol
USER    (4) Unbound System's Energy  [=(2)] =   -2.11 kcal/mol
USER    
USER    
USER  
USER    DPF = D:/Protein_go_brrr/autodock/final/AncMH_nat/heme_Fe/dock.dpf
USER    NEWDPF move	heme_Fe_opt.pdbqt
USER    NEWDPF about	-0.174000 -0.001000 -0.047000
USER    NEWDPF tran0	-14.294004 -1.393886 3.605192
USER    NEWDPF axisangle0	-0.953110 -0.266229 0.143887 -80.936423
USER    NEWDPF quaternion0	-0.618593 -0.172790 0.093387 -0.760766
USER    NEWDPF dihe0	-46.86 106.16 53.33 -160.04 85.59 -176.29 -107.02 105.28 173.96 -153.74 
USER  
USER                              x       y       z    vdW   Elec        q     RMS 
ATOM      1  C   UNL d   1     -16.328  -1.628   3.464 -0.12 +0.05    +0.064    11.836
ATOM      2  C   UNL d   1     -13.122  -1.227   7.205 -0.39 +0.01    +0.064    11.836
ATOM      3  C   UNL d   1      -9.812   0.359   4.108 -0.22 +0.02    +0.064    11.836
ATOM      4  C   UNL d   1     -12.866  -0.122   0.457 -0.26 +0.07    +0.064    11.836
ATOM      5  C   UNL d   1     -15.707  -1.742   4.791 -0.10 +0.04    +0.066    11.836
ATOM      6  C   UNL d   1     -16.327  -2.269   5.912 -0.13 -0.01    -0.021    11.836
ATOM      7  C   UNL d   1     -15.438  -2.153   6.951 -0.23 -0.01    -0.025    11.836
ATOM      8  C   UNL d   1     -14.307  -1.560   6.424 -0.21 +0.02    +0.066    11.836
ATOM      9  C   UNL d   1     -15.663  -2.608   8.360 -0.31 +0.01    +0.051    11.836
ATOM     10  C   UNL d   1     -11.998  -0.708   6.710 -0.34 +0.01    +0.066    11.836
ATOM     11  C   UNL d   1     -10.923  -0.293   7.500 -0.37 -0.00    -0.021    11.836
ATOM     12  C   UNL d   1      -9.961   0.184   6.632 -0.44 +0.00    +0.000    11.836
ATOM     13  C   UNL d   1     -10.508   0.042   5.345 -0.36 +0.02    +0.070    11.836
ATOM     14  C   UNL d   1     -10.842  -0.288   9.013 -0.37 +0.01    +0.052    11.836
ATOM     15  C   UNL d   1     -10.353   0.273   2.869 -0.24 +0.02    +0.066    11.836
ATOM     16  C   UNL d   1      -9.624   0.489   1.707 -0.36 -0.01    -0.021    11.836
ATOM     17  C   UNL d   1     -10.504   0.354   0.652 -0.35 +0.00    +0.000    11.836
ATOM     18  C   UNL d   1     -11.752   0.063   1.198 -0.26 +0.05    +0.070    11.836
ATOM     19  C   UNL d   1      -8.164   0.834   1.589 -0.44 +0.01    +0.052    11.836
ATOM     20  C   UNL d   1     -14.182  -0.490   0.991 -0.20 +0.09    +0.066    11.836
ATOM     21  C   UNL d   1     -15.381  -0.488   0.264 -0.13 -0.04    -0.025    11.836
ATOM     22  C   UNL d   1     -16.352  -0.933   1.137 -0.13 -0.03    -0.021    11.836
ATOM     23  C   UNL d   1     -15.712  -1.181   2.358 -0.15 +0.07    +0.066    11.836
ATOM     24  C   UNL d   1     -15.611  -0.087  -1.174 -0.14 +0.07    +0.051    11.836
ATOM     25  N   UNL d   1     -14.470  -1.320   5.107 -0.08 -0.11    -0.248    11.836
ATOM     26  N   UNL d   1     -11.753  -0.493   5.392 -0.27 -0.06    -0.248    11.836
ATOM     27  N   UNL d   1     -11.651  -0.030   2.558 -0.16 -0.14    -0.248    11.836
ATOM     28  N   UNL d   1     -14.397  -0.866   2.275 -0.15 -0.27    -0.248    11.836
ATOM     29 FE   UNL d   1     -13.075  -0.679   3.832 -0.07 +0.00    +0.000    11.836
ATOM     30  C   UNL d   1     -17.689  -2.871   5.989 -0.11 +0.02    +0.052    11.836
ATOM     31  C   UNL d   1     -18.706  -1.846   6.479 -0.07 +0.06    +0.115    11.836
ATOM     32  C   UNL d   1     -18.997  -0.838   5.402 -0.11 +0.11    +0.139    11.836
ATOM     33  O   UNL d   1     -19.844  -1.063   4.550 +0.00 -0.59    -0.650    11.836
ATOM     34  O   UNL d   1     -18.324   0.325   5.367 +0.07 -0.89    -0.776    11.836
ATOM     35  H   UNL d   1     -17.956   0.629   4.526 +0.03 +0.23    +0.167    11.836
ATOM     36  C   UNL d   1     -17.820  -1.064   0.827 -0.07 +0.05    +0.052    11.836
ATOM     37  C   UNL d   1     -18.368   0.277   0.362 -0.07 +0.14    +0.115    11.836
ATOM     38  C   UNL d   1     -18.545   1.218   1.520 -0.11 +0.25    +0.139    11.836
ATOM     39  O   UNL d   1     -19.038   2.324   1.357 -0.50 -1.34    -0.650    11.836
ATOM     40  O   UNL d   1     -18.155   0.846   2.752 -0.21 -1.42    -0.776    11.836
ATOM     41  H   UNL d   1     -18.687   0.201   3.239 +0.02 +0.26    +0.167    11.836
ATOM     42  C   UNL d   1      -8.637   0.744   7.044 -0.47 +0.00    +0.004    11.836
ATOM     43  C   UNL d   1      -7.521   0.009   6.958 -0.47 +0.00    +0.012    11.836
ATOM     44  C   UNL d   1     -10.167   0.476  -0.784 -0.37 +0.00    +0.004    11.836
ATOM     45  C   UNL d   1     -10.533   1.555  -1.484 -0.34 +0.00    +0.012    11.836
TER
ENDMDL
MODEL        6
USER    Run = 6
USER    Cluster Rank = 7
USER    Number of conformations in this cluster = 1
USER  
USER    RMSD from reference structure       = 8.028 A
USER  
USER    Estimated Free Energy of Binding    =   -9.44 kcal/mol  [=(1)+(2)+(3)-(4)]
USER    Estimated Inhibition Constant, Ki   =  120.87 nM (nanomolar)  [Temperature = 298.15 K]
USER    
USER    (1) Final Intermolecular Energy     =  -12.42 kcal/mol
USER        vdW + Hbond + desolv Energy     =  -12.49 kcal/mol
USER        Electrostatic Energy            =   +0.07 kcal/mol
USER    (2) Final Total Internal Energy     =   -0.46 kcal/mol
USER    (3) Torsional Free Energy           =   +2.98 kcal/mol
USER    (4) Unbound System's Energy  [=(2)] =   -0.46 kcal/mol
USER    
USER    
USER  
USER    DPF = D:/Protein_go_brrr/autodock/final/AncMH_nat/heme_Fe/dock.dpf
USER    NEWDPF move	heme_Fe_opt.pdbqt
USER    NEWDPF about	-0.174000 -0.001000 -0.047000
USER    NEWDPF tran0	-7.517557 0.784280 4.204236
USER    NEWDPF axisangle0	-0.173578 0.598299 0.782246 -169.136201
USER    NEWDPF quaternion0	-0.172799 0.595612 0.778733 -0.094663
USER    NEWDPF dihe0	13.66 165.58 21.05 -180.00 -114.24 -79.67 -54.19 125.88 175.12 -11.24 
USER  
USER                              x       y       z    vdW   Elec        q     RMS 
ATOM      1  C   UNL d   1      -5.753   1.427   5.031 -0.14 +0.00    +0.064     8.028
ATOM      2  C   UNL d   1      -7.916   1.934   0.616 -0.35 +0.01    +0.064     8.028
ATOM      3  C   UNL d   1     -12.049   0.429   2.545 -0.34 +0.05    +0.064     8.028
ATOM      4  C   UNL d   1      -9.950  -0.168   6.802 -0.30 +0.01    +0.064     8.028
ATOM      5  C   UNL d   1      -5.958   1.629   3.590 -0.33 +0.00    +0.066     8.028
ATOM      6  C   UNL d   1      -4.960   1.959   2.687 -0.35 -0.00    -0.021     8.028
ATOM      7  C   UNL d   1      -5.563   2.103   1.462 -0.42 -0.00    -0.025     8.028
ATOM      8  C   UNL d   1      -6.907   1.855   1.664 -0.38 +0.01    +0.066     8.028
ATOM      9  C   UNL d   1      -4.875   2.440   0.175 -0.57 -0.00    +0.051     8.028
ATOM     10  C   UNL d   1      -9.209   1.644   0.771 -0.32 +0.02    +0.066     8.028
ATOM     11  C   UNL d   1     -10.172   1.839  -0.222 -0.29 -0.01    -0.021     8.028
ATOM     12  C   UNL d   1     -11.375   1.428   0.315 -0.27 +0.00    +0.000     8.028
ATOM     13  C   UNL d   1     -11.083   1.008   1.624 -0.27 +0.04    +0.070     8.028
ATOM     14  C   UNL d   1      -9.967   2.450  -1.593 +0.03 +0.01    +0.052     8.028
ATOM     15  C   UNL d   1     -11.784   0.072   3.824 -0.27 +0.03    +0.066     8.028
ATOM     16  C   UNL d   1     -12.708  -0.569   4.639 -0.30 -0.01    -0.021     8.028
ATOM     17  C   UNL d   1     -12.105  -0.740   5.869 -0.39 +0.00    +0.000     8.028
ATOM     18  C   UNL d   1     -10.827  -0.194   5.775 -0.38 +0.02    +0.070     8.028
ATOM     19  C   UNL d   1     -14.111  -0.984   4.288 -0.14 +0.03    +0.052     8.028
ATOM     20  C   UNL d   1      -8.576   0.342   6.723 -0.37 +0.01    +0.066     8.028
ATOM     21  C   UNL d   1      -7.728   0.558   7.819 -0.44 -0.00    -0.025     8.028
ATOM     22  C   UNL d   1      -6.533   1.001   7.290 -0.43 -0.00    -0.021     8.028
ATOM     23  C   UNL d   1      -6.700   1.043   5.901 -0.34 +0.01    +0.066     8.028
ATOM     24  C   UNL d   1      -8.019   0.366   9.289 -0.29 +0.00    +0.051     8.028
ATOM     25  N   UNL d   1      -7.143   1.558   2.958 -0.21 -0.03    -0.248     8.028
ATOM     26  N   UNL d   1      -9.765   1.148   1.906 -0.19 -0.08    -0.248     8.028
ATOM     27  N   UNL d   1     -10.613   0.266   4.506 -0.24 -0.08    -0.248     8.028
ATOM     28  N   UNL d   1      -7.963   0.683   5.564 -0.06 -0.07    -0.248     8.028
ATOM     29 FE   UNL d   1      -8.864   0.915   3.737 -0.08 +0.00    +0.000     8.028
ATOM     30  C   UNL d   1      -3.504   2.109   2.968 -0.23 -0.00    +0.052     8.028
ATOM     31  C   UNL d   1      -3.150   3.570   3.219 -0.41 -0.01    +0.115     8.028
ATOM     32  C   UNL d   1      -2.439   3.720   4.535 -0.52 -0.01    +0.139     8.028
ATOM     33  O   UNL d   1      -2.955   4.338   5.456 -0.01 +0.03    -0.650     8.028
ATOM     34  O   UNL d   1      -1.224   3.174   4.712 -0.01 +0.14    -0.776     8.028
ATOM     35  H   UNL d   1      -0.866   3.104   5.608 -0.32 -0.05    +0.167     8.028
ATOM     36  C   UNL d   1      -5.318   1.406   8.081 -0.55 -0.00    +0.052     8.028
ATOM     37  C   UNL d   1      -4.474   0.178   8.392 -0.51 -0.01    +0.115     8.028
ATOM     38  C   UNL d   1      -5.291  -0.874   9.088 -0.51 -0.00    +0.139     8.028
ATOM     39  O   UNL d   1      -5.525  -0.793  10.285 -0.04 -0.01    -0.650     8.028
ATOM     40  O   UNL d   1      -5.769  -1.921   8.393 +0.14 +0.01    -0.776     8.028
ATOM     41  H   UNL d   1      -5.770  -1.883   7.426 +0.13 +0.00    +0.167     8.028
ATOM     42  C   UNL d   1     -12.690   1.469  -0.398 -0.03 +0.01    +0.004     8.028
ATOM     43  C   UNL d   1     -12.938   0.655  -1.432 -0.22 +0.01    +0.012     8.028
ATOM     44  C   UNL d   1     -12.706  -1.400   7.050 -0.38 +0.00    +0.004     8.028
ATOM     45  C   UNL d   1     -12.760  -0.775   8.230 -0.57 +0.00    +0.012     8.028
TER
ENDMDL
MODEL       44
USER    Run = 44
USER    Cluster Rank = 8
USER    Number of conformations in this cluster = 1
USER  
USER    RMSD from reference structure       = 11.588 A
USER  
USER    Estimated Free Energy of Binding    =   -8.64 kcal/mol  [=(1)+(2)+(3)-(4)]
USER    Estimated Inhibition Constant, Ki   =  462.10 nM (nanomolar)  [Temperature = 298.15 K]
USER    
USER    (1) Final Intermolecular Energy     =  -11.63 kcal/mol
USER        vdW + Hbond + desolv Energy     =   -7.25 kcal/mol
USER        Electrostatic Energy            =   -4.37 kcal/mol
USER    (2) Final Total Internal Energy     =   -1.78 kcal/mol
USER    (3) Torsional Free Energy           =   +2.98 kcal/mol
USER    (4) Unbound System's Energy  [=(2)] =   -1.78 kcal/mol
USER    
USER    
USER  
USER    DPF = D:/Protein_go_brrr/autodock/final/AncMH_nat/heme_Fe/dock.dpf
USER    NEWDPF move	heme_Fe_opt.pdbqt
USER    NEWDPF about	-0.174000 -0.001000 -0.047000
USER    NEWDPF tran0	-14.842441 0.244859 0.632256
USER    NEWDPF axisangle0	-0.956931 -0.235003 0.170460 105.090445
USER    NEWDPF quaternion0	-0.759644 -0.186553 0.135317 0.608135
USER    NEWDPF dihe0	103.21 -12.84 22.68 -103.51 -138.07 84.61 91.65 -114.10 23.84 -3.88 
USER  
USER                              x       y       z    vdW   Elec        q     RMS 
ATOM      1  C   UNL d   1     -16.628  -0.498   1.318 -0.13 +0.09    +0.064    11.588
ATOM      2  C   UNL d   1     -14.858   0.760  -3.122 -0.06 +0.05    +0.064    11.588
ATOM      3  C   UNL d   1     -10.427   0.793  -1.269 -0.34 +0.02    +0.064    11.588
ATOM      4  C   UNL d   1     -12.130  -0.320   3.061 -0.17 +0.04    +0.064    11.588
ATOM      5  C   UNL d   1     -16.550  -0.065  -0.084 +0.01 +0.11    +0.066    11.588
ATOM      6  C   UNL d   1     -17.642   0.149  -0.907 -0.05 -0.02    -0.021    11.588
ATOM      7  C   UNL d   1     -17.150   0.495  -2.141 -0.04 -0.02    -0.025    11.588
ATOM      8  C   UNL d   1     -15.774   0.478  -2.023 -0.08 +0.07    +0.066    11.588
ATOM      9  C   UNL d   1     -17.962   0.838  -3.352 -0.00 +0.03    +0.051    11.588
ATOM     10  C   UNL d   1     -13.528   0.806  -3.021 -0.10 +0.04    +0.066    11.588
ATOM     11  C   UNL d   1     -12.673   0.965  -4.114 -0.10 -0.01    -0.021    11.588
ATOM     12  C   UNL d   1     -11.389   0.961  -3.608 -0.26 +0.00    +0.000    11.588
ATOM     13  C   UNL d   1     -11.528   0.791  -2.220 -0.23 +0.03    +0.070    11.588
ATOM     14  C   UNL d   1     -13.058   1.048  -5.577 -0.05 +0.00    +0.052    11.588
ATOM     15  C   UNL d   1     -10.551   0.577   0.062 -0.31 +0.03    +0.066    11.588
ATOM     16  C   UNL d   1      -9.489   0.687   0.950 -0.39 -0.01    -0.021    11.588
ATOM     17  C   UNL d   1      -9.977   0.363   2.199 -0.35 +0.00    +0.000    11.588
ATOM     18  C   UNL d   1     -11.327   0.059   2.042 -0.24 +0.04    +0.070    11.588
ATOM     19  C   UNL d   1      -8.064   1.057   0.637 -0.46 +0.01    +0.052    11.588
ATOM     20  C   UNL d   1     -13.568  -0.588   2.944 -0.24 +0.05    +0.066    11.588
ATOM     21  C   UNL d   1     -14.367  -1.171   3.939 -0.19 -0.02    -0.025    11.588
ATOM     22  C   UNL d   1     -15.647  -1.200   3.426 -0.15 -0.02    -0.021    11.588
ATOM     23  C   UNL d   1     -15.579  -0.644   2.143 -0.16 +0.08    +0.066    11.588
ATOM     24  C   UNL d   1     -13.956  -1.680   5.301 -0.30 +0.02    +0.051    11.588
ATOM     25  N   UNL d   1     -15.412   0.146  -0.768 -0.03 -0.42    -0.248    11.588
ATOM     26  N   UNL d   1     -12.831   0.687  -1.862 -0.11 -0.20    -0.248    11.588
ATOM     27  N   UNL d   1     -11.691   0.232   0.736 -0.16 -0.19    -0.248    11.588
ATOM     28  N   UNL d   1     -14.300  -0.313   1.837 -0.15 -0.34    -0.248    11.588
ATOM     29 FE   UNL d   1     -13.565   0.186  -0.011 -0.05 +0.00    +0.000    11.588
ATOM     30  C   UNL d   1     -19.083   0.052  -0.538 -0.02 +0.04    +0.052    11.588
ATOM     31  C   UNL d   1     -19.749   1.423  -0.595 -0.03 +0.10    +0.115    11.588
ATOM     32  C   UNL d   1     -19.611   2.130   0.725 -0.09 +0.20    +0.139    11.588
ATOM     33  O   UNL d   1     -20.550   2.753   1.199 -0.01 -1.13    -0.650    11.588
ATOM     34  O   UNL d   1     -18.448   2.084   1.397 -0.50 -1.59    -0.776    11.588
ATOM     35  H   UNL d   1     -18.218   1.279   1.882 +0.02 +0.32    +0.167    11.588
ATOM     36  C   UNL d   1     -16.857  -1.776   4.113 -0.10 +0.04    +0.052    11.588
ATOM     37  C   UNL d   1     -17.584  -0.680   4.878 -0.10 +0.09    +0.115    11.588
ATOM     38  C   UNL d   1     -18.142   0.352   3.939 -0.11 +0.20    +0.139    11.588
ATOM     39  O   UNL d   1     -19.228   0.188   3.403 +0.04 -1.12    -0.650    11.588
ATOM     40  O   UNL d   1     -17.442   1.471   3.679 -0.05 -1.39    -0.776    11.588
ATOM     41  H   UNL d   1     -17.712   2.032   2.939 +0.02 +0.39    +0.167    11.588
ATOM     42  C   UNL d   1     -10.145   1.095  -4.428 -0.41 -0.00    +0.004    11.588
ATOM     43  C   UNL d   1      -9.825   2.258  -5.011 -0.33 -0.01    +0.012    11.588
ATOM     44  C   UNL d   1      -9.207   0.365   3.463 -0.36 +0.00    +0.004    11.588
ATOM     45  C   UNL d   1      -8.025  -0.256   3.546 -0.34 +0.00    +0.012    11.588
TER
ENDMDL
MODEL       52
USER    Run = 52
USER    Cluster Rank = 9
USER    Number of conformations in this cluster = 1
USER  
USER    RMSD from reference structure       = 13.344 A
USER  
USER    Estimated Free Energy of Binding    =   -7.34 kcal/mol  [=(1)+(2)+(3)-(4)]
USER    Estimated Inhibition Constant, Ki   =    4.16 uM (micromolar)  [Temperature = 298.15 K]
USER    
USER    (1) Final Intermolecular Energy     =  -10.32 kcal/mol
USER        vdW + Hbond + desolv Energy     =   -7.82 kcal/mol
USER        Electrostatic Energy            =   -2.51 kcal/mol
USER    (2) Final Total Internal Energy     =   -0.79 kcal/mol
USER    (3) Torsional Free Energy           =   +2.98 kcal/mol
USER    (4) Unbound System's Energy  [=(2)] =   -0.79 kcal/mol
USER    
USER    
USER  
USER    DPF = D:/Protein_go_brrr/autodock/final/AncMH_nat/heme_Fe/dock.dpf
USER    NEWDPF move	heme_Fe_opt.pdbqt
USER    NEWDPF about	-0.174000 -0.001000 -0.047000
USER    NEWDPF tran0	5.883019 12.376324 7.211611
USER    NEWDPF axisangle0	-0.105928 0.318011 -0.942151 -64.993742
USER    NEWDPF quaternion0	-0.056910 0.170852 -0.506174 -0.843421
USER    NEWDPF dihe0	-157.37 -125.61 38.55 35.99 -125.29 79.89 -138.23 113.86 152.45 18.99 
USER  
USER                              x       y       z    vdW   Elec        q     RMS 
ATOM      1  C   UNL d   1       5.168  14.037   8.182 -0.14 +0.00    +0.064    13.344
ATOM      2  C   UNL d   1       3.894   9.263   8.053 -0.35 +0.00    +0.064    13.344
ATOM      3  C   UNL d   1       8.130   8.259   6.026 -0.30 -0.01    +0.064    13.344
ATOM      4  C   UNL d   1       9.340  12.887   6.045 -0.13 -0.00    +0.064    13.344
ATOM      5  C   UNL d   1       4.382  12.797   8.257 -0.19 -0.00    +0.066    13.344
ATOM      6  C   UNL d   1       3.067  12.719   8.685 -0.26 +0.00    -0.021    13.344
ATOM      7  C   UNL d   1       2.715  11.393   8.653 -0.42 +0.00    -0.025    13.344
ATOM      8  C   UNL d   1       3.830  10.711   8.205 -0.33 +0.00    +0.066    13.344
ATOM      9  C   UNL d   1       1.377  10.825   9.014 -0.15 -0.04    +0.051    13.344
ATOM     10  C   UNL d   1       4.936   8.587   7.568 -0.27 +0.00    +0.066    13.344
ATOM     11  C   UNL d   1       5.011   7.192   7.542 -0.37 +0.00    -0.021    13.344
ATOM     12  C   UNL d   1       6.230   6.877   6.977 -0.31 -0.00    +0.000    13.344
ATOM     13  C   UNL d   1       6.847   8.108   6.693 -0.20 -0.01    +0.070    13.344
ATOM     14  C   UNL d   1       3.998   6.207   8.091 -0.45 -0.01    +0.052    13.344
ATOM     15  C   UNL d   1       8.751   9.440   5.797 -0.21 -0.01    +0.066    13.344
ATOM     16  C   UNL d   1       9.929   9.549   5.068 -0.26 +0.01    -0.021    13.344
ATOM     17  C   UNL d   1      10.281  10.882   5.075 -0.18 -0.00    +0.000    13.344
ATOM     18  C   UNL d   1       9.311  11.556   5.813 -0.15 -0.01    +0.070    13.344
ATOM     19  C   UNL d   1      10.708   8.441   4.411 -0.20 -0.03    +0.052    13.344
ATOM     20  C   UNL d   1       8.305  13.639   6.764 -0.09 +0.00    +0.066    13.344
ATOM     21  C   UNL d   1       8.417  14.972   7.183 -0.07 -0.00    -0.025    13.344
ATOM     22  C   UNL d   1       7.212  15.283   7.779 -0.07 -0.00    -0.021    13.344
ATOM     23  C   UNL d   1       6.419  14.132   7.705 -0.10 +0.00    +0.066    13.344
ATOM     24  C   UNL d   1       9.593  15.911   7.040 -0.05 +0.01    +0.051    13.344
ATOM     25  N   UNL d   1       4.839  11.570   7.956 +0.07 -0.03    -0.248    13.344
ATOM     26  N   UNL d   1       6.062   9.150   7.062 +0.26 -0.06    -0.248    13.344
ATOM     27  N   UNL d   1       8.347  10.677   6.220 -0.08 +0.02    -0.248    13.344
ATOM     28  N   UNL d   1       7.108  13.119   7.126 -0.08 +0.01    -0.248    13.344
ATOM     29 FE   UNL d   1       6.587  11.135   7.093 -0.03 +0.00    +0.000    13.344
ATOM     30  C   UNL d   1       2.181  13.849   9.086 -0.24 -0.02    +0.052    13.344
ATOM     31  C   UNL d   1       1.751  13.708  10.542 -0.10 -0.06    +0.115    13.344
ATOM     32  C   UNL d   1       2.911  13.267  11.392 -0.12 +0.02    +0.139    13.344
ATOM     33  O   UNL d   1       2.824  12.271  12.097 -0.11 -0.64    -0.650    13.344
ATOM     34  O   UNL d   1       4.057  13.968  11.385 +0.05 -0.10    -0.776    13.344
ATOM     35  H   UNL d   1       4.038  14.897  11.115 +0.02 +0.01    +0.167    13.344
ATOM     36  C   UNL d   1       6.863  16.598   8.424 -0.03 +0.01    +0.052    13.344
ATOM     37  C   UNL d   1       5.726  17.260   7.660 -0.09 +0.05    +0.115    13.344
ATOM     38  C   UNL d   1       6.168  17.669   6.284 -0.11 +0.14    +0.139    13.344
ATOM     39  O   UNL d   1       6.233  16.851   5.378 -0.12 -0.63    -0.650    13.344
ATOM     40  O   UNL d   1       6.502  18.949   6.039 -0.46 -1.28    -0.776    13.344
ATOM     41  H   UNL d   1       7.171  19.374   6.593 +0.02 +0.14    +0.167    13.344
ATOM     42  C   UNL d   1       6.740   5.487   6.760 -0.40 -0.00    +0.004    13.344
ATOM     43  C   UNL d   1       6.430   4.805   5.650 -0.57 -0.01    +0.012    13.344
ATOM     44  C   UNL d   1      11.459  11.476   4.402 -0.17 -0.00    +0.004    13.344
ATOM     45  C   UNL d   1      11.377  11.918   3.143 -0.27 +0.00    +0.012    13.344
TER
ENDMDL
MODEL       54
USER    Run = 54
USER    Cluster Rank = 10
USER    Number of conformations in this cluster = 4
USER  
USER    RMSD from reference structure       = 21.280 A
USER  
USER    Estimated Free Energy of Binding    =   -6.96 kcal/mol  [=(1)+(2)+(3)-(4)]
USER    Estimated Inhibition Constant, Ki   =    7.86 uM (micromolar)  [Temperature = 298.15 K]
USER    
USER    (1) Final Intermolecular Energy     =   -9.95 kcal/mol
USER        vdW + Hbond + desolv Energy     =   -6.92 kcal/mol
USER        Electrostatic Energy            =   -3.03 kcal/mol
USER    (2) Final Total Internal Energy     =   -1.51 kcal/mol
USER    (3) Torsional Free Energy           =   +2.98 kcal/mol
USER    (4) Unbound System's Energy  [=(2)] =   -1.51 kcal/mol
USER    
USER    
USER  
USER    DPF = D:/Protein_go_brrr/autodock/final/AncMH_nat/heme_Fe/dock.dpf
USER    NEWDPF move	heme_Fe_opt.pdbqt
USER    NEWDPF about	-0.174000 -0.001000 -0.047000
USER    NEWDPF tran0	-16.431537 8.419447 16.602037
USER    NEWDPF axisangle0	-0.689435 0.599928 0.405913 -39.895627
USER    NEWDPF quaternion0	-0.235210 0.204674 0.138483 -0.940004
USER    NEWDPF dihe0	-166.64 47.14 -149.40 -113.42 109.31 -87.85 137.21 -127.67 6.92 -25.28 
USER  
USER                              x       y       z    vdW   Elec        q     RMS 
ATOM      1  C   UNL d   1     -17.979   8.310  17.945 +0.01 +0.07    +0.064    21.280
ATOM      2  C   UNL d   1     -13.650   5.982  17.427 -0.14 +0.01    +0.064    21.280
ATOM      3  C   UNL d   1     -12.269   9.386  14.333 -0.39 -0.00    +0.064    21.280
ATOM      4  C   UNL d   1     -16.492  11.597  14.739 -0.11 +0.02    +0.064    21.280
ATOM      5  C   UNL d   1     -16.921   7.294  18.022 -0.09 +0.06    +0.066    21.280
ATOM      6  C   UNL d   1     -17.013   6.108  18.733 -0.07 -0.01    -0.021    21.280
ATOM      7  C   UNL d   1     -15.808   5.465  18.592 -0.07 -0.01    -0.025    21.280
ATOM      8  C   UNL d   1     -15.027   6.282  17.799 -0.11 +0.02    +0.066    21.280
ATOM      9  C   UNL d   1     -15.446   4.132  19.173 -0.03 +0.01    +0.051    21.280
ATOM     10  C   UNL d   1     -12.894   6.726  16.617 -0.19 +0.00    +0.066    21.280
ATOM     11  C   UNL d   1     -11.542   6.473  16.371 -0.27 +0.00    -0.021    21.280
ATOM     12  C   UNL d   1     -11.116   7.451  15.495 -0.41 -0.00    +0.000    21.280
ATOM     13  C   UNL d   1     -12.239   8.262  15.255 -0.30 -0.00    +0.070    21.280
ATOM     14  C   UNL d   1     -10.680   5.394  16.994 -0.33 -0.01    +0.052    21.280
ATOM     15  C   UNL d   1     -13.332  10.202  14.138 -0.29 -0.00    +0.066    21.280
ATOM     16  C   UNL d   1     -13.354  11.203  13.176 -0.37 +0.00    -0.021    21.280
ATOM     17  C   UNL d   1     -14.570  11.844  13.293 -0.25 -0.00    +0.000    21.280
ATOM     18  C   UNL d   1     -15.261  11.220  14.330 -0.15 +0.01    +0.070    21.280
ATOM     19  C   UNL d   1     -12.266  11.562  12.199 -0.40 -0.01    +0.052    21.280
ATOM     20  C   UNL d   1     -17.274  10.926  15.784 -0.09 +0.04    +0.066    21.280
ATOM     21  C   UNL d   1     -18.456  11.420  16.354 -0.05 -0.01    -0.025    21.280
ATOM     22  C   UNL d   1     -18.869  10.461  17.256 -0.05 -0.01    -0.021    21.280
ATOM     23  C   UNL d   1     -17.925   9.429  17.205 +0.21 +0.08    +0.066    21.280
ATOM     24  C   UNL d   1     -19.164  12.725  16.075 -0.01 +0.01    +0.051    21.280
ATOM     25  N   UNL d   1     -15.710   7.390  17.446 -0.10 -0.16    -0.248    21.280
ATOM     26  N   UNL d   1     -13.320   7.826  15.946 -0.15 -0.03    -0.248    21.280
ATOM     27  N   UNL d   1     -14.519  10.183  14.821 -0.13 -0.04    -0.248    21.280
ATOM     28  N   UNL d   1     -16.931   9.738  16.338 -0.08 -0.25    -0.248    21.280
ATOM     29 FE   UNL d   1     -15.126   8.784  16.141 -0.04 +0.00    +0.000    21.280
ATOM     30  C   UNL d   1     -18.191   5.601  19.491 -0.03 +0.02    +0.052    21.280
ATOM     31  C   UNL d   1     -19.003   4.630  18.641 -0.03 +0.05    +0.115    21.280
ATOM     32  C   UNL d   1     -19.143   5.150  17.237 -0.00 +0.15    +0.139    21.280
ATOM     33  O   UNL d   1     -18.551   4.613  16.312 -0.45 -0.75    -0.650    21.280
ATOM     34  O   UNL d   1     -19.924   6.215  16.987 -0.10 -1.29    -0.776    21.280
ATOM     35  H   UNL d   1     -20.233   6.755  17.728 +0.00 +0.17    +0.167    21.280
ATOM     36  C   UNL d   1     -20.077  10.557  18.150 -0.02 +0.02    +0.052    21.280
ATOM     37  C   UNL d   1     -21.344  10.411  17.319 -0.01 +0.05    +0.115    21.280
ATOM     38  C   UNL d   1     -21.282   9.182  16.456 -0.04 +0.11    +0.139    21.280
ATOM     39  O   UNL d   1     -20.783   9.226  15.341 -0.43 -0.93    -0.650    21.280
ATOM     40  O   UNL d   1     -21.784   8.019  16.907 -0.00 -0.55    -0.776    21.280
ATOM     41  H   UNL d   1     -21.259   7.212  16.812 +0.00 +0.17    +0.167    21.280
ATOM     42  C   UNL d   1      -9.723   7.577  14.964 -0.54 -0.00    +0.004    21.280
ATOM     43  C   UNL d   1      -8.872   8.480  15.467 -0.33 -0.00    +0.012    21.280
ATOM     44  C   UNL d   1     -15.048  12.967  12.455 -0.24 -0.00    +0.004    21.280
ATOM     45  C   UNL d   1     -14.370  14.118  12.402 -0.23 -0.00    +0.012    21.280
TER
ENDMDL
MODEL       26
USER    Run = 26
USER    Cluster Rank = 11
USER    Number of conformations in this cluster = 1
USER  
USER    RMSD from reference structure       = 21.142 A
USER  
USER    Estimated Free Energy of Binding    =   -6.88 kcal/mol  [=(1)+(2)+(3)-(4)]
USER    Estimated Inhibition Constant, Ki   =    9.01 uM (micromolar)  [Temperature = 298.15 K]
USER    
USER    (1) Final Intermolecular Energy     =   -9.87 kcal/mol
USER        vdW + Hbond + desolv Energy     =   -7.37 kcal/mol
USER        Electrostatic Energy            =   -2.49 kcal/mol
USER    (2) Final Total Internal Energy     =   -0.73 kcal/mol
USER    (3) Torsional Free Energy           =   +2.98 kcal/mol
USER    (4) Unbound System's Energy  [=(2)] =   -0.73 kcal/mol
USER    
USER    
USER  
USER    DPF = D:/Protein_go_brrr/autodock/final/AncMH_nat/heme_Fe/dock.dpf
USER    NEWDPF move	heme_Fe_opt.pdbqt
USER    NEWDPF about	-0.174000 -0.001000 -0.047000
USER    NEWDPF tran0	-9.014623 -6.675069 18.703332
USER    NEWDPF axisangle0	-0.525958 0.581851 -0.620336 53.483447
USER    NEWDPF quaternion0	-0.236665 0.261815 -0.279132 0.893044
USER    NEWDPF dihe0	107.05 -95.28 54.75 29.69 109.91 -73.64 88.47 -43.65 175.36 -173.26 
USER  
USER                              x       y       z    vdW   Elec        q     RMS 
ATOM      1  C   UNL d   1     -10.557  -7.763  17.898 -0.27 +0.01    +0.064    21.142
ATOM      2  C   UNL d   1      -5.840  -8.719  19.023 -0.14 -0.01    +0.064    21.142
ATOM      3  C   UNL d   1      -5.724  -4.700  21.650 -0.12 -0.01    +0.064    21.142
ATOM      4  C   UNL d   1     -10.256  -3.701  20.488 -0.15 -0.01    +0.064    21.142
ATOM      5  C   UNL d   1      -9.215  -8.361  17.904 -0.26 +0.01    +0.066    21.142
ATOM      6  C   UNL d   1      -8.841  -9.472  17.165 -0.30 -0.00    -0.021    21.142
ATOM      7  C   UNL d   1      -7.532  -9.739  17.481 -0.29 -0.00    -0.025    21.142
ATOM      8  C   UNL d   1      -7.157  -8.780  18.401 -0.23 -0.00    +0.066    21.142
ATOM      9  C   UNL d   1      -6.694 -10.842  16.912 -0.32 +0.01    +0.051    21.142
ATOM     10  C   UNL d   1      -5.434  -7.771  19.870 -0.25 -0.01    +0.066    21.142
ATOM     11  C   UNL d   1      -4.207  -7.803  20.538 -0.23 +0.01    -0.021    21.142
ATOM     12  C   UNL d   1      -4.156  -6.663  21.315 -0.18 -0.00    +0.000    21.142
ATOM     13  C   UNL d   1      -5.370  -5.992  21.085 -0.14 -0.01    +0.070    21.142
ATOM     14  C   UNL d   1      -3.163  -8.900  20.491 -0.03 -0.01    +0.052    21.142
ATOM     15  C   UNL d   1      -6.912  -4.075  21.473 -0.12 -0.01    +0.066    21.142
ATOM     16  C   UNL d   1      -7.175  -2.796  21.948 -0.10 +0.00    -0.021    21.142
ATOM     17  C   UNL d   1      -8.482  -2.507  21.617 -0.13 -0.00    +0.000    21.142
ATOM     18  C   UNL d   1      -8.989  -3.620  20.950 -0.16 -0.01    +0.070    21.142
ATOM     19  C   UNL d   1      -6.243  -1.888  22.705 -0.05 -0.01    +0.052    21.142
ATOM     20  C   UNL d   1     -10.806  -4.831  19.729 -0.12 +0.00    +0.066    21.142
ATOM     21  C   UNL d   1     -12.160  -5.016  19.420 -0.13 -0.00    -0.025    21.142
ATOM     22  C   UNL d   1     -12.222  -6.173  18.671 -0.17 -0.01    -0.021    21.142
ATOM     23  C   UNL d   1     -10.910  -6.649  18.558 -0.16 +0.01    +0.066    21.142
ATOM     24  C   UNL d   1     -13.343  -4.159  19.808 -0.13 +0.01    +0.051    21.142
ATOM     25  N   UNL d   1      -8.180  -7.937  18.649 -0.17 +0.01    -0.248    21.142
ATOM     26  N   UNL d   1      -6.153  -6.672  20.211 -0.15 +0.04    -0.248    21.142
ATOM     27  N   UNL d   1      -8.012  -4.567  20.823 -0.12 +0.02    -0.248    21.142
ATOM     28  N   UNL d   1     -10.056  -5.850  19.244 -0.15 -0.02    -0.248    21.142
ATOM     29 FE   UNL d   1      -8.106  -6.259  19.728 -0.05 -0.00    +0.000    21.142
ATOM     30  C   UNL d   1      -9.678 -10.230  16.192 -0.38 +0.03    +0.052    21.142
ATOM     31  C   UNL d   1     -10.327 -11.436  16.862 -0.25 +0.04    +0.115    21.142
ATOM     32  C   UNL d   1      -9.453 -12.651  16.720 -0.22 +0.06    +0.139    21.142
ATOM     33  O   UNL d   1      -8.877 -13.121  17.691 +0.04 -0.13    -0.650    21.142
ATOM     34  O   UNL d   1      -9.298 -13.234  15.519 -0.13 -1.02    -0.776    21.142
ATOM     35  H   UNL d   1     -10.031 -13.744  15.147 -0.40 +0.08    +0.167    21.142
ATOM     36  C   UNL d   1     -13.478  -6.809  18.136 -0.22 +0.04    +0.052    21.142
ATOM     37  C   UNL d   1     -14.210  -7.524  19.262 -0.12 +0.08    +0.115    21.142
ATOM     38  C   UNL d   1     -15.684  -7.235  19.215 +0.05 +0.17    +0.139    21.142
ATOM     39  O   UNL d   1     -16.119  -6.145  19.555 -0.04 -0.57    -0.650    21.142
ATOM     40  O   UNL d   1     -16.541  -8.184  18.797 -0.45 -1.41    -0.776    21.142
ATOM     41  H   UNL d   1     -16.857  -8.843  19.430 +0.01 +0.14    +0.167    21.142
ATOM     42  C   UNL d   1      -3.020  -6.289  22.213 -0.10 -0.00    +0.004    21.142
ATOM     43  C   UNL d   1      -2.134  -5.353  21.849 -0.13 -0.00    +0.012    21.142
ATOM     44  C   UNL d   1      -9.194  -1.241  21.901 -0.11 -0.00    +0.004    21.142
ATOM     45  C   UNL d   1      -9.070  -0.187  21.087 -0.12 -0.00    +0.012    21.142
TER
ENDMDL
MODEL       85
USER    Run = 85
USER    Cluster Rank = 12
USER    Number of conformations in this cluster = 1
USER  
USER    RMSD from reference structure       = 17.238 A
USER  
USER    Estimated Free Energy of Binding    =   -6.87 kcal/mol  [=(1)+(2)+(3)-(4)]
USER    Estimated Inhibition Constant, Ki   =    9.15 uM (micromolar)  [Temperature = 298.15 K]
USER    
USER    (1) Final Intermolecular Energy     =   -9.86 kcal/mol
USER        vdW + Hbond + desolv Energy     =   -7.47 kcal/mol
USER        Electrostatic Energy            =   -2.38 kcal/mol
USER    (2) Final Total Internal Energy     =   -0.64 kcal/mol
USER    (3) Torsional Free Energy           =   +2.98 kcal/mol
USER    (4) Unbound System's Energy  [=(2)] =   -0.64 kcal/mol
USER    
USER    
USER  
USER    DPF = D:/Protein_go_brrr/autodock/final/AncMH_nat/heme_Fe/dock.dpf
USER    NEWDPF move	heme_Fe_opt.pdbqt
USER    NEWDPF about	-0.174000 -0.001000 -0.047000
USER    NEWDPF tran0	-1.265646 12.469549 15.429631
USER    NEWDPF axisangle0	-0.544215 0.804934 -0.236455 169.617601
USER    NEWDPF quaternion0	-0.541983 0.801633 -0.235485 0.090480
USER    NEWDPF dihe0	164.70 106.99 87.47 -108.64 -57.24 53.48 138.55 -21.03 -157.72 179.53 
USER  
USER                              x       y       z    vdW   Elec        q     RMS 
ATOM      1  C   UNL d   1      -0.368  13.836  14.189 -0.09 -0.01    +0.064    17.238
ATOM      2  C   UNL d   1       1.194   9.907  16.749 -0.06 +0.02    +0.064    17.238
ATOM      3  C   UNL d   1      -3.376   8.546  17.318 -0.27 -0.05    +0.064    17.238
ATOM      4  C   UNL d   1      -4.916  12.397  14.934 -0.26 -0.01    +0.064    17.238
ATOM      5  C   UNL d   1       0.491  12.901  14.928 -0.07 +0.00    +0.066    17.238
ATOM      6  C   UNL d   1       1.861  13.038  15.081 -0.05 -0.01    -0.021    17.238
ATOM      7  C   UNL d   1       2.295  11.945  15.789 -0.05 -0.01    -0.025    17.238
ATOM      8  C   UNL d   1       1.171  11.181  16.042 -0.06 +0.02    +0.066    17.238
ATOM      9  C   UNL d   1       3.705  11.669  16.211 -0.03 +0.02    +0.051    17.238
ATOM     10  C   UNL d   1       0.119   9.180  17.056 -0.09 +0.00    +0.066    17.238
ATOM     11  C   UNL d   1       0.182   7.909  17.633 -0.15 +0.00    -0.021    17.238
ATOM     12  C   UNL d   1      -1.123   7.487  17.792 -0.18 -0.00    +0.000    17.238
ATOM     13  C   UNL d   1      -1.922   8.530  17.291 -0.18 -0.03    +0.070    17.238
ATOM     14  C   UNL d   1       1.426   7.106  17.954 -0.15 -0.00    +0.052    17.238
ATOM     15  C   UNL d   1      -4.151   9.524  16.791 -0.23 -0.04    +0.066    17.238
ATOM     16  C   UNL d   1      -5.533   9.552  16.925 -0.22 +0.01    -0.021    17.238
ATOM     17  C   UNL d   1      -5.979  10.660  16.235 -0.21 -0.00    +0.000    17.238
ATOM     18  C   UNL d   1      -4.857  11.281  15.692 -0.17 -0.02    +0.070    17.238
ATOM     19  C   UNL d   1      -6.405   8.564  17.652 -0.19 -0.05    +0.052    17.238
ATOM     20  C   UNL d   1      -3.752  13.112  14.396 -0.19 -0.01    +0.066    17.238
ATOM     21  C   UNL d   1      -3.802  14.146  13.451 -0.30 +0.00    -0.025    17.238
ATOM     22  C   UNL d   1      -2.496  14.550  13.263 -0.22 +0.00    -0.021    17.238
ATOM     23  C   UNL d   1      -1.704  13.746  14.092 -0.12 -0.02    +0.066    17.238
ATOM     24  C   UNL d   1      -5.009  14.728  12.752 -0.36 -0.00    +0.051    17.238
ATOM     25  N   UNL d   1       0.074  11.770  15.525 -0.05 -0.03    -0.248    17.238
ATOM     26  N   UNL d   1      -1.166   9.558  16.834 -0.05 +0.04    -0.248    17.238
ATOM     27  N   UNL d   1      -3.729  10.608  16.069 -0.11 +0.07    -0.248    17.238
ATOM     28  N   UNL d   1      -2.471  12.841  14.747 -0.07 +0.05    -0.248    17.238
ATOM     29 FE   UNL d   1      -1.820  11.200  15.790 -0.03 -0.00    +0.000    17.238
ATOM     30  C   UNL d   1       2.714  14.161  14.599 -0.02 +0.01    +0.052    17.238
ATOM     31  C   UNL d   1       2.794  14.164  13.076 -0.05 +0.02    +0.115    17.238
ATOM     32  C   UNL d   1       2.945  12.761  12.555 +0.00 +0.09    +0.139    17.238
ATOM     33  O   UNL d   1       3.878  12.059  12.917 -0.00 -0.73    -0.650    17.238
ATOM     34  O   UNL d   1       2.051  12.266  11.683 -0.35 -0.34    -0.776    17.238
ATOM     35  H   UNL d   1       1.206  12.721  11.567 -0.54 -0.18    +0.167    17.238
ATOM     36  C   UNL d   1      -2.034  15.615  12.303 -0.17 +0.02    +0.052    17.238
ATOM     37  C   UNL d   1      -1.877  15.019  10.912 -0.18 -0.01    +0.115    17.238
ATOM     38  C   UNL d   1      -1.942  16.087   9.858 -0.27 +0.10    +0.139    17.238
ATOM     39  O   UNL d   1      -1.214  17.067   9.914 -0.25 -0.89    -0.650    17.238
ATOM     40  O   UNL d   1      -2.813  15.973   8.839 -0.04 -0.41    -0.776    17.238
ATOM     41  H   UNL d   1      -2.636  15.327   8.140 -0.50 -0.01    +0.167    17.238
ATOM     42  C   UNL d   1      -1.532   6.169  18.367 -0.13 -0.00    +0.004    17.238
ATOM     43  C   UNL d   1      -2.522   6.086  19.265 -0.20 -0.01    +0.012    17.238
ATOM     44  C   UNL d   1      -7.386  11.107  16.121 -0.28 -0.00    +0.004    17.238
ATOM     45  C   UNL d   1      -8.333  10.280  15.667 -0.29 -0.00    +0.012    17.238
TER
ENDMDL
MODEL       57
USER    Run = 57
USER    Cluster Rank = 13
USER    Number of conformations in this cluster = 1
USER  
USER    RMSD from reference structure       = 22.228 A
USER  
USER    Estimated Free Energy of Binding    =   -6.38 kcal/mol  [=(1)+(2)+(3)-(4)]
USER    Estimated Inhibition Constant, Ki   =   21.20 uM (micromolar)  [Temperature = 298.15 K]
USER    
USER    (1) Final Intermolecular Energy     =   -9.36 kcal/mol
USER        vdW + Hbond + desolv Energy     =   -7.07 kcal/mol
USER        Electrostatic Energy            =   -2.28 kcal/mol
USER    (2) Final Total Internal Energy     =   -1.79 kcal/mol
USER    (3) Torsional Free Energy           =   +2.98 kcal/mol
USER    (4) Unbound System's Energy  [=(2)] =   -1.79 kcal/mol
USER    
USER    
USER  
USER    DPF = D:/Protein_go_brrr/autodock/final/AncMH_nat/heme_Fe/dock.dpf
USER    NEWDPF move	heme_Fe_opt.pdbqt
USER    NEWDPF about	-0.174000 -0.001000 -0.047000
USER    NEWDPF tran0	-11.660451 -12.002954 17.730990
USER    NEWDPF axisangle0	0.928925 -0.360894 -0.082787 -172.186234
USER    NEWDPF quaternion0	0.926767 -0.360055 -0.082595 -0.068135
USER    NEWDPF dihe0	-177.79 -2.91 81.52 -156.07 -61.37 -131.48 24.53 -62.24 -29.72 -23.92 
USER  
USER                              x       y       z    vdW   Elec        q     RMS 
ATOM      1  C   UNL d   1     -13.170 -10.651  17.406 -0.15 +0.02    +0.064    22.228
ATOM      2  C   UNL d   1      -8.294 -10.684  16.598 -0.27 +0.03    +0.064    22.228
ATOM      3  C   UNL d   1      -8.282 -15.438  17.282 -0.13 -0.00    +0.064    22.228
ATOM      4  C   UNL d   1     -12.983 -15.413  18.171 -0.12 -0.02    +0.064    22.228
ATOM      5  C   UNL d   1     -11.784 -10.208  17.198 -0.22 +0.02    +0.066    22.228
ATOM      6  C   UNL d   1     -11.387  -8.886  17.074 -0.30 -0.01    -0.021    22.228
ATOM      7  C   UNL d   1     -10.033  -8.897  16.846 -0.34 -0.01    -0.025    22.228
ATOM      8  C   UNL d   1      -9.656 -10.225  16.840 -0.26 +0.02    +0.066    22.228
ATOM      9  C   UNL d   1      -9.159  -7.694  16.666 -0.44 +0.01    +0.051    22.228
ATOM     10  C   UNL d   1      -7.892 -11.956  16.643 -0.20 +0.04    +0.066    22.228
ATOM     11  C   UNL d   1      -6.606 -12.375  16.295 -0.26 -0.01    -0.021    22.228
ATOM     12  C   UNL d   1      -6.582 -13.745  16.468 -0.25 +0.00    +0.000    22.228
ATOM     13  C   UNL d   1      -7.870 -14.095  16.909 -0.20 +0.02    +0.070    22.228
ATOM     14  C   UNL d   1      -5.475 -11.522  15.758 -0.28 +0.01    +0.052    22.228
ATOM     15  C   UNL d   1      -9.535 -15.789  17.658 -0.09 -0.01    +0.066    22.228
ATOM     16  C   UNL d   1      -9.865 -17.062  18.103 -0.05 +0.00    -0.021    22.228
ATOM     17  C   UNL d   1     -11.221 -17.059  18.356 -0.08 -0.00    +0.000    22.228
ATOM     18  C   UNL d   1     -11.688 -15.781  18.055 -0.10 -0.01    +0.070    22.228
ATOM     19  C   UNL d   1      -8.949 -18.246  18.260 -0.06 -0.01    +0.052    22.228
ATOM     20  C   UNL d   1     -13.500 -14.062  17.923 -0.16 -0.02    +0.066    22.228
ATOM     21  C   UNL d   1     -14.856 -13.716  17.844 -0.17 +0.01    -0.025    22.228
ATOM     22  C   UNL d   1     -14.887 -12.352  17.638 -0.20 +0.00    -0.021    22.228
ATOM     23  C   UNL d   1     -13.555 -11.923  17.593 -0.18 +0.00    +0.066    22.228
ATOM     24  C   UNL d   1     -16.067 -14.614  17.951 -0.11 -0.03    +0.051    22.228
ATOM     25  N   UNL d   1     -10.722 -11.020  17.063 -0.14 -0.07    -0.248    22.228
ATOM     26  N   UNL d   1      -8.672 -13.006  17.007 -0.11 -0.10    -0.248    22.228
ATOM     27  N   UNL d   1     -10.645 -14.987  17.668 -0.09 +0.03    -0.248    22.228
ATOM     28  N   UNL d   1     -12.713 -12.978  17.723 -0.12 +0.03    -0.248    22.228
ATOM     29 FE   UNL d   1     -10.694 -12.993  17.365 -0.04 +0.00    +0.000    22.228
ATOM     30  C   UNL d   1     -12.245  -7.673  17.188 -0.35 +0.02    +0.052    22.228
ATOM     31  C   UNL d   1     -12.908  -7.607  18.559 -0.17 +0.05    +0.115    22.228
ATOM     32  C   UNL d   1     -14.171  -6.793  18.494 -0.10 +0.13    +0.139    22.228
ATOM     33  O   UNL d   1     -14.136  -5.613  18.173 -0.05 -0.52    -0.650    22.228
ATOM     34  O   UNL d   1     -15.354  -7.357  18.790 -0.18 -1.16    -0.776    22.228
ATOM     35  H   UNL d   1     -15.374  -8.282  19.075 +0.01 +0.18    +0.167    22.228
ATOM     36  C   UNL d   1     -16.126 -11.519  17.447 -0.14 +0.01    +0.052    22.228
ATOM     37  C   UNL d   1     -16.855 -11.370  18.774 -0.08 +0.02    +0.115    22.228
ATOM     38  C   UNL d   1     -16.901  -9.931  19.205 -0.08 +0.08    +0.139    22.228
ATOM     39  O   UNL d   1     -16.590  -9.608  20.342 -0.00 -0.23    -0.650    22.228
ATOM     40  O   UNL d   1     -17.293  -8.983  18.335 -0.37 -1.14    -0.776    22.228
ATOM     41  H   UNL d   1     -17.362  -8.067  18.639 +0.01 +0.31    +0.167    22.228
ATOM     42  C   UNL d   1      -5.399 -14.620  16.201 -0.23 +0.00    +0.004    22.228
ATOM     43  C   UNL d   1      -4.970 -15.497  17.118 -0.15 -0.00    +0.012    22.228
ATOM     44  C   UNL d   1     -12.015 -18.197  18.873 -0.04 -0.00    +0.004    22.228
ATOM     45  C   UNL d   1     -12.781 -18.925  18.054 -0.04 -0.00    +0.012    22.228
TER
ENDMDL
MODEL       30
USER    Run = 30
USER    Cluster Rank = 14
USER    Number of conformations in this cluster = 1
USER  
USER    RMSD from reference structure       = 12.585 A
USER  
USER    Estimated Free Energy of Binding    =   -5.67 kcal/mol  [=(1)+(2)+(3)-(4)]
USER    Estimated Inhibition Constant, Ki   =   69.77 uM (micromolar)  [Temperature = 298.15 K]
USER    
USER    (1) Final Intermolecular Energy     =   -8.65 kcal/mol
USER        vdW + Hbond + desolv Energy     =   -7.29 kcal/mol
USER        Electrostatic Energy            =   -1.36 kcal/mol
USER    (2) Final Total Internal Energy     =   -0.73 kcal/mol
USER    (3) Torsional Free Energy           =   +2.98 kcal/mol
USER    (4) Unbound System's Energy  [=(2)] =   -0.73 kcal/mol
USER    
USER    
USER  
USER    DPF = D:/Protein_go_brrr/autodock/final/AncMH_nat/heme_Fe/dock.dpf
USER    NEWDPF move	heme_Fe_opt.pdbqt
USER    NEWDPF about	-0.174000 -0.001000 -0.047000
USER    NEWDPF tran0	5.752238 -12.979211 4.011359
USER    NEWDPF axisangle0	0.626467 0.493804 -0.603073 -105.654864
USER    NEWDPF quaternion0	0.499181 0.393473 -0.480540 -0.604218
USER    NEWDPF dihe0	-144.92 -144.95 -167.81 -165.15 -95.82 -10.15 138.19 56.52 -156.32 9.99 
USER  
USER                              x       y       z    vdW   Elec        q     RMS 
ATOM      1  C   UNL d   1       5.240 -13.131   5.993 -0.15 +0.00    +0.064    12.585
ATOM      2  C   UNL d   1       2.838 -13.760   1.718 +0.09 +0.02    +0.064    12.585
ATOM      3  C   UNL d   1       7.064 -13.864  -0.561 -0.18 +0.00    +0.064    12.585
ATOM      4  C   UNL d   1       9.403 -13.151   3.550 -0.12 -0.04    +0.064    12.585
ATOM      5  C   UNL d   1       4.168 -13.215   4.990 -0.16 +0.02    +0.066    12.585
ATOM      6  C   UNL d   1       2.816 -13.106   5.268 -0.33 -0.01    -0.021    12.585
ATOM      7  C   UNL d   1       2.149 -13.284   4.081 -0.34 -0.01    -0.025    12.585
ATOM      8  C   UNL d   1       3.122 -13.495   3.123 +0.01 +0.03    +0.066    12.585
ATOM      9  C   UNL d   1       0.665 -13.233   3.886 -0.35 +0.03    +0.051    12.585
ATOM     10  C   UNL d   1       3.758 -13.909   0.764 -0.18 +0.02    +0.066    12.585
ATOM     11  C   UNL d   1       3.459 -14.275  -0.550 -0.25 -0.01    -0.021    12.585
ATOM     12  C   UNL d   1       4.663 -14.329  -1.224 -0.20 +0.00    +0.000    12.585
ATOM     13  C   UNL d   1       5.645 -13.998  -0.275 -0.16 +0.02    +0.070    12.585
ATOM     14  C   UNL d   1       2.099 -14.624  -1.120 -0.29 +0.00    +0.052    12.585
ATOM     15  C   UNL d   1       8.020 -13.596   0.360 -0.16 -0.01    +0.066    12.585
ATOM     16  C   UNL d   1       9.351 -13.378   0.031 -0.21 +0.00    -0.021    12.585
ATOM     17  C   UNL d   1      10.029 -13.176   1.215 -0.21 -0.00    +0.000    12.585
ATOM     18  C   UNL d   1       9.093 -13.280   2.242 -0.16 -0.03    +0.070    12.585
ATOM     19  C   UNL d   1       9.971 -13.384  -1.341 -0.20 -0.01    +0.052    12.585
ATOM     20  C   UNL d   1       8.436 -13.193   4.654 -0.09 -0.04    +0.066    12.585
ATOM     21  C   UNL d   1       8.763 -13.263   6.015 -0.12 +0.01    -0.025    12.585
ATOM     22  C   UNL d   1       7.562 -13.243   6.694 -0.11 +0.00    -0.021    12.585
ATOM     23  C   UNL d   1       6.555 -13.169   5.724 -0.12 -0.01    +0.066    12.585
ATOM     24  C   UNL d   1      10.130 -13.347   6.654 -0.09 -0.02    +0.051    12.585
ATOM     25  N   UNL d   1       4.350 -13.443   3.678 -0.08 -0.07    -0.248    12.585
ATOM     26  N   UNL d   1       5.095 -13.751   0.940 -0.10 -0.05    -0.248    12.585
ATOM     27  N   UNL d   1       7.850 -13.495   1.715 -0.08 +0.06    -0.248    12.585
ATOM     28  N   UNL d   1       7.092 -13.185   4.480 -0.07 +0.10    -0.248    12.585
ATOM     29 FE   UNL d   1       6.096 -13.468   2.710 -0.04 -0.00    +0.000    12.585
ATOM     30  C   UNL d   1       2.186 -12.825   6.590 -0.43 +0.01    +0.052    12.585
ATOM     31  C   UNL d   1       2.408 -13.988   7.551 -0.29 +0.03    +0.115    12.585
ATOM     32  C   UNL d   1       2.219 -15.300   6.843 -0.18 +0.12    +0.139    12.585
ATOM     33  O   UNL d   1       1.145 -15.885   6.889 +0.05 -0.63    -0.650    12.585
ATOM     34  O   UNL d   1       3.232 -15.844   6.149 -0.23 -1.08    -0.776    12.585
ATOM     35  H   UNL d   1       4.137 -15.735   6.475 +0.03 +0.11    +0.167    12.585
ATOM     36  C   UNL d   1       7.393 -13.339   8.187 -0.08 -0.01    +0.052    12.585
ATOM     37  C   UNL d   1       6.993 -11.982   8.747 -0.10 -0.01    +0.115    12.585
ATOM     38  C   UNL d   1       7.949 -11.538   9.817 -0.06 -0.02    +0.139    12.585
ATOM     39  O   UNL d   1       8.786 -12.307  10.267 +0.01 +0.12    -0.650    12.585
ATOM     40  O   UNL d   1       7.887 -10.282  10.293 -0.51 +0.27    -0.776    12.585
ATOM     41  H   UNL d   1       7.025  -9.850  10.369 -0.49 -0.28    +0.167    12.585
ATOM     42  C   UNL d   1       4.821 -14.693  -2.666 -0.15 +0.00    +0.004    12.585
ATOM     43  C   UNL d   1       5.560 -15.748  -3.034 -0.11 -0.00    +0.012    12.585
ATOM     44  C   UNL d   1      11.473 -12.882   1.354 -0.21 -0.00    +0.004    12.585
ATOM     45  C   UNL d   1      12.305 -13.778   1.895 -0.09 -0.00    +0.012    12.585
TER
ENDMDL
MODEL       93
USER    Run = 93
USER    Cluster Rank = 15
USER    Number of conformations in this cluster = 1
USER  
USER    RMSD from reference structure       = 15.968 A
USER  
USER    Estimated Free Energy of Binding    =   -5.17 kcal/mol  [=(1)+(2)+(3)-(4)]
USER    Estimated Inhibition Constant, Ki   =  162.46 uM (micromolar)  [Temperature = 298.15 K]
USER    
USER    (1) Final Intermolecular Energy     =   -8.15 kcal/mol
USER        vdW + Hbond + desolv Energy     =   -5.80 kcal/mol
USER        Electrostatic Energy            =   -2.35 kcal/mol
USER    (2) Final Total Internal Energy     =   -1.71 kcal/mol
USER    (3) Torsional Free Energy           =   +2.98 kcal/mol
USER    (4) Unbound System's Energy  [=(2)] =   -1.71 kcal/mol
USER    
USER    
USER  
USER    DPF = D:/Protein_go_brrr/autodock/final/AncMH_nat/heme_Fe/dock.dpf
USER    NEWDPF move	heme_Fe_opt.pdbqt
USER    NEWDPF about	-0.174000 -0.001000 -0.047000
USER    NEWDPF tran0	1.813566 -19.131425 1.370407
USER    NEWDPF axisangle0	0.102987 -0.192316 -0.975914 164.599310
USER    NEWDPF quaternion0	0.102059 -0.190581 -0.967114 0.133992
USER    NEWDPF dihe0	141.31 125.40 14.50 -139.31 -55.45 73.40 154.87 -131.24 -154.04 147.63 
USER  
USER                              x       y       z    vdW   Elec        q     RMS 
ATOM      1  C   UNL d   1       3.622 -19.305   2.325 -0.06 +0.05    +0.064    15.968
ATOM      2  C   UNL d   1       1.197 -15.613   0.107 -0.23 +0.02    +0.064    15.968
ATOM      3  C   UNL d   1      -2.807 -18.262   0.228 -0.20 +0.02    +0.064    15.968
ATOM      4  C   UNL d   1      -0.455 -21.888   2.280 -0.11 -0.01    +0.064    15.968
ATOM      5  C   UNL d   1       3.330 -18.052   1.614 +0.04 +0.06    +0.066    15.968
ATOM      6  C   UNL d   1       4.271 -17.088   1.291 -0.06 -0.01    -0.021    15.968
ATOM      7  C   UNL d   1       3.596 -16.061   0.679 -0.10 -0.01    -0.025    15.968
ATOM      8  C   UNL d   1       2.267 -16.439   0.650 -0.13 +0.04    +0.066    15.968
ATOM      9  C   UNL d   1       4.204 -14.804   0.138 -0.17 +0.01    +0.051    15.968
ATOM     10  C   UNL d   1      -0.084 -15.977   0.015 -0.23 +0.02    +0.066    15.968
ATOM     11  C   UNL d   1      -1.105 -15.121  -0.405 -0.38 -0.00    -0.021    15.968
ATOM     12  C   UNL d   1      -2.272 -15.856  -0.362 -0.36 +0.00    +0.000    15.968
ATOM     13  C   UNL d   1      -1.901 -17.133   0.093 -0.21 +0.02    +0.070    15.968
ATOM     14  C   UNL d   1      -0.985 -13.654  -0.763 -0.41 +0.01    +0.052    15.968
ATOM     15  C   UNL d   1      -2.465 -19.478   0.715 -0.18 +0.01    +0.066    15.968
ATOM     16  C   UNL d   1      -3.336 -20.560   0.735 -0.17 -0.00    -0.021    15.968
ATOM     17  C   UNL d   1      -2.660 -21.606   1.330 -0.12 -0.00    +0.000    15.968
ATOM     18  C   UNL d   1      -1.393 -21.135   1.663 -0.11 -0.00    +0.070    15.968
ATOM     19  C   UNL d   1      -4.756 -20.605   0.239 -0.20 +0.01    +0.052    15.968
ATOM     20  C   UNL d   1       0.909 -21.446   2.591 -0.07 +0.01    +0.066    15.968
ATOM     21  C   UNL d   1       1.820 -22.137   3.402 -0.04 -0.00    -0.025    15.968
ATOM     22  C   UNL d   1       2.979 -21.390   3.390 -0.04 -0.00    -0.021    15.968
ATOM     23  C   UNL d   1       2.730 -20.274   2.582 -0.07 +0.04    +0.066    15.968
ATOM     24  C   UNL d   1       1.618 -23.432   4.155 -0.06 -0.01    +0.051    15.968
ATOM     25  N   UNL d   1       2.110 -17.655   1.211 -0.04 -0.27    -0.248    15.968
ATOM     26  N   UNL d   1      -0.568 -17.205   0.332 -0.12 -0.09    -0.248    15.968
ATOM     27  N   UNL d   1      -1.256 -19.841   1.247 -0.10 -0.05    -0.248    15.968
ATOM     28  N   UNL d   1       1.451 -20.291   2.134 -0.07 -0.12    -0.248    15.968
ATOM     29 FE   UNL d   1       0.441 -18.750   1.234 -0.04 +0.00    +0.000    15.968
ATOM     30  C   UNL d   1       5.740 -17.146   1.533 -0.02 +0.01    +0.052    15.968
ATOM     31  C   UNL d   1       6.042 -17.165   3.028 -0.02 +0.04    +0.115    15.968
ATOM     32  C   UNL d   1       4.920 -16.528   3.799 -0.03 +0.12    +0.139    15.968
ATOM     33  O   UNL d   1       4.553 -15.390   3.541 -0.13 -0.51    -0.650    15.968
ATOM     34  O   UNL d   1       4.307 -17.207   4.783 -0.13 -1.19    -0.776    15.968
ATOM     35  H   UNL d   1       4.139 -18.152   4.668 +0.00 +0.23    +0.167    15.968
ATOM     36  C   UNL d   1       4.238 -21.707   4.153 -0.01 +0.01    +0.052    15.968
ATOM     37  C   UNL d   1       4.496 -20.625   5.191 -0.02 +0.03    +0.115    15.968
ATOM     38  C   UNL d   1       3.252 -20.327   5.980 -0.06 +0.06    +0.139    15.968
ATOM     39  O   UNL d   1       2.841 -21.114   6.819 +0.03 -0.06    -0.650    15.968
ATOM     40  O   UNL d   1       2.576 -19.185   5.762 -0.26 -1.12    -0.776    15.968
ATOM     41  H   UNL d   1       3.046 -18.341   5.827 +0.02 +0.31    +0.167    15.968
ATOM     42  C   UNL d   1      -3.627 -15.333  -0.721 -0.43 +0.00    +0.004    15.968
ATOM     43  C   UNL d   1      -3.893 -14.903  -1.961 -0.47 +0.00    +0.012    15.968
ATOM     44  C   UNL d   1      -3.187 -22.973   1.546 -0.10 -0.00    +0.004    15.968
ATOM     45  C   UNL d   1      -3.915 -23.263   2.630 -0.15 -0.01    +0.012    15.968
TER
ENDMDL
MODEL       62
USER    Run = 62
USER    Cluster Rank = 16
USER    Number of conformations in this cluster = 1
USER  
USER    RMSD from reference structure       = 13.209 A
USER  
USER    Estimated Free Energy of Binding    =   -4.74 kcal/mol  [=(1)+(2)+(3)-(4)]
USER    Estimated Inhibition Constant, Ki   =  334.26 uM (micromolar)  [Temperature = 298.15 K]
USER    
USER    (1) Final Intermolecular Energy     =   -7.72 kcal/mol
USER        vdW + Hbond + desolv Energy     =   -5.28 kcal/mol
USER        Electrostatic Energy            =   -2.45 kcal/mol
USER    (2) Final Total Internal Energy     =   -1.58 kcal/mol
USER    (3) Torsional Free Energy           =   +2.98 kcal/mol
USER    (4) Unbound System's Energy  [=(2)] =   -1.58 kcal/mol
USER    
USER    
USER  
USER    DPF = D:/Protein_go_brrr/autodock/final/AncMH_nat/heme_Fe/dock.dpf
USER    NEWDPF move	heme_Fe_opt.pdbqt
USER    NEWDPF about	-0.174000 -0.001000 -0.047000
USER    NEWDPF tran0	4.682529 -14.438438 -1.600722
USER    NEWDPF axisangle0	0.606171 0.547067 -0.577299 -73.031555
USER    NEWDPF quaternion0	0.360699 0.325529 -0.343518 -0.803693
USER    NEWDPF dihe0	-143.71 -109.14 -168.45 -142.81 -135.36 -153.13 -141.01 70.93 149.09 174.82 
USER  
USER                              x       y       z    vdW   Elec        q     RMS 
ATOM      1  C   UNL d   1       3.689 -14.267   0.187 -0.24 +0.02    +0.064    13.209
ATOM      2  C   UNL d   1       3.035 -16.945  -3.916 -0.06 -0.04    +0.064    13.209
ATOM      3  C   UNL d   1       7.515 -15.853  -5.260 -0.02 -0.01    +0.064    13.209
ATOM      4  C   UNL d   1       8.132 -13.170  -1.348 -0.27 -0.00    +0.064    13.209
ATOM      5  C   UNL d   1       3.061 -15.054  -0.884 -0.20 +0.01    +0.066    13.209
ATOM      6  C   UNL d   1       1.735 -15.456  -0.895 -0.22 -0.00    -0.021    13.209
ATOM      7  C   UNL d   1       1.555 -16.203  -2.033 -0.12 +0.01    -0.025    13.209
ATOM      8  C   UNL d   1       2.779 -16.227  -2.673 +0.02 -0.04    +0.066    13.209
ATOM      9  C   UNL d   1       0.273 -16.836  -2.481 -0.13 -0.01    +0.051    13.209
ATOM     10  C   UNL d   1       4.190 -16.938  -4.583 -0.06 -0.03    +0.066    13.209
ATOM     11  C   UNL d   1       4.439 -17.726  -5.709 -0.02 +0.01    -0.021    13.209
ATOM     12  C   UNL d   1       5.731 -17.442  -6.106 -0.00 -0.00    +0.000    13.209
ATOM     13  C   UNL d   1       6.210 -16.492  -5.188 -0.01 -0.01    +0.070    13.209
ATOM     14  C   UNL d   1       3.516 -18.752  -6.336 -0.01 -0.01    +0.052    13.209
ATOM     15  C   UNL d   1       8.000 -14.976  -4.350 -0.04 -0.01    +0.066    13.209
ATOM     16  C   UNL d   1       9.210 -14.312  -4.506 -0.09 +0.00    -0.021    13.209
ATOM     17  C   UNL d   1       9.392 -13.541  -3.377 -0.21 -0.00    +0.000    13.209
ATOM     18  C   UNL d   1       8.289 -13.756  -2.555 -0.19 -0.00    +0.070    13.209
ATOM     19  C   UNL d   1      10.172 -14.416  -5.659 -0.06 -0.01    +0.052    13.209
ATOM     20  C   UNL d   1       6.957 -13.325  -0.483 -0.19 +0.01    +0.066    13.209
ATOM     21  C   UNL d   1       6.867 -12.890   0.847 -0.24 +0.00    -0.025    13.209
ATOM     22  C   UNL d   1       5.588 -13.201   1.261 -0.19 -0.00    -0.021    13.209
ATOM     23  C   UNL d   1       4.953 -13.816   0.175 -0.19 +0.02    +0.066    13.209
ATOM     24  C   UNL d   1       7.924 -12.220   1.694 -0.27 -0.03    +0.051    13.209
ATOM     25  N   UNL d   1       3.691 -15.519  -1.976 -0.11 +0.04    -0.248    13.209
ATOM     26  N   UNL d   1       5.274 -16.191  -4.254 -0.04 +0.06    -0.248    13.209
ATOM     27  N   UNL d   1       7.412 -14.604  -3.171 -0.06 -0.00    -0.248    13.209
ATOM     28  N   UNL d   1       5.808 -13.929  -0.871 -0.12 -0.07    -0.248    13.209
ATOM     29 FE   UNL d   1       5.543 -15.059  -2.562 -0.03 +0.00    +0.000    13.209
ATOM     30  C   UNL d   1       0.685 -15.131   0.111 -0.34 +0.01    +0.052    13.209
ATOM     31  C   UNL d   1       0.101 -16.404   0.713 -0.08 +0.06    +0.115    13.209
ATOM     32  C   UNL d   1       1.182 -17.426   0.932 -0.09 +0.11    +0.139    13.209
ATOM     33  O   UNL d   1       1.006 -18.596   0.620 -0.05 -0.32    -0.650    13.209
ATOM     34  O   UNL d   1       2.356 -17.062   1.475 -0.31 -1.03    -0.776    13.209
ATOM     35  H   UNL d   1       2.363 -16.385   2.167 +0.04 +0.33    +0.167    13.209
ATOM     36  C   UNL d   1       5.027 -12.964   2.638 -0.14 +0.01    +0.052    13.209
ATOM     37  C   UNL d   1       5.326 -14.162   3.527 -0.09 +0.02    +0.115    13.209
ATOM     38  C   UNL d   1       4.072 -14.929   3.838 -0.07 +0.12    +0.139    13.209
ATOM     39  O   UNL d   1       3.980 -15.587   4.864 -0.47 -0.95    -0.650    13.209
ATOM     40  O   UNL d   1       3.037 -14.899   2.980 +0.03 -0.88    -0.776    13.209
ATOM     41  H   UNL d   1       3.117 -15.356   2.131 +0.03 +0.16    +0.167    13.209
ATOM     42  C   UNL d   1       6.425 -18.070  -7.273 +0.00 -0.00    +0.004    13.209
ATOM     43  C   UNL d   1       7.561 -18.760  -7.108 +0.00 -0.00    +0.012    13.209
ATOM     44  C   UNL d   1      10.537 -12.640  -3.112 -0.20 -0.00    +0.004    13.209
ATOM     45  C   UNL d   1      11.639 -13.094  -2.506 -0.16 -0.00    +0.012    13.209
TER
ENDMDL


AVSFLD: # AVS field file
AVSFLD: #
AVSFLD: # Created by AutoDock
AVSFLD: #
AVSFLD: ndim=2           # number of dimensions in the field
AVSFLD: nspace=1         # number of physical coordinates
AVSFLD: veclen=7         # vector size
AVSFLD: dim1=45          # atoms
AVSFLD: dim2=16          # conformations
AVSFLD: data=Real       # data type (byte,integer,Real,double)
AVSFLD: field=uniform    # field coordinate layout
AVSFLD: label= x y z vdW Elec q RMS
AVSFLD: variable 1 file = D:/Protein_go_brrr/autodock/final/AncMH_nat/heme_Fe/dock.dlg.pdb filetype = ascii offset = 5 stride = 12
AVSFLD: variable 2 file = D:/Protein_go_brrr/autodock/final/AncMH_nat/heme_Fe/dock.dlg.pdb filetype = ascii offset = 6 stride = 12
AVSFLD: variable 3 file = D:/Protein_go_brrr/autodock/final/AncMH_nat/heme_Fe/dock.dlg.pdb filetype = ascii offset = 7 stride = 12
AVSFLD: variable 4 file = D:/Protein_go_brrr/autodock/final/AncMH_nat/heme_Fe/dock.dlg.pdb filetype = ascii offset = 8 stride = 12
AVSFLD: variable 5 file = D:/Protein_go_brrr/autodock/final/AncMH_nat/heme_Fe/dock.dlg.pdb filetype = ascii offset = 9 stride = 12
AVSFLD: variable 6 file = D:/Protein_go_brrr/autodock/final/AncMH_nat/heme_Fe/dock.dlg.pdb filetype = ascii offset = 10 stride = 12
AVSFLD: variable 7 file = D:/Protein_go_brrr/autodock/final/AncMH_nat/heme_Fe/dock.dlg.pdb filetype = ascii offset = 11 stride = 12
AVSFLD: # end of file

>>> Closing the docking parameter file (DPF)...
This docking finished at:			7:31 10" a.m., 10/02/2025


________________________________________________________________________________

D:/autodockScripts/autodock4.exe: Successful Completion on "ACER"

Real= 7h 08m 22.84s,  CPU= 3m 11.47s,  System= 22.67s
________________________________________________________________________________

