          AutoDock 4.2 Release 4.2.6   
         (C) 1989-2012 The Scripps Research Institute
        AutoDock comes with ABSOLUTELY NO WARRANTY.
        AutoDock is free software, and you are welcome
        to redistribute it under certain conditions;
        for details type 'autodock4 -C'

                     main.cc  $Revision: 1.213 $

                   Compiled on Jul 18 2014 at 15:34:58


This file was created at:			1:37 09" a.m., 10/18/2025
                   on host:		"ACER"
Current Working Directory = "D:\Protein_go_brrr\autodock\final\mut_N102T\heme_O2"

      ________________________________________________________________

                   SETTING UP DEFAULT PARAMETER LIBRARY
      ________________________________________________________________


Random number generator was seeded with values 57720, 1760744229.
Docking parameter file (DPF) used for this docking:		D:/Protein_go_brrr/autodock/final/mut_N102T/heme_O2/dock.dpf
DPF> autodock_parameter_version 4.2       # used by autodock to validate parameter set

	Autodock parameter version 4.2.
DPF> outlev 1                             # diagnostic output level

Output Level = 1  ADT-COMPATIBLE OUTPUT DURING DOCKING.
DPF> intelec                              # calculate internal electrostatics

Electrostatic energies will be calculated for all non-bonds between moving atoms.
DPF> seed pid time                        # seeds for random generator

Random number generator was seeded with values 57720, 1760744229.
DPF> ligand_types A C OA N Fe HD          # atoms types in ligand

DPF> fld mut_N102T_m0.maps.fld            # grid_data_file

Opening Grid Map Dimensions file:		mut_N102T_m0.maps.fld
Grid Point Spacing =				0.697 Angstroms

Even Number of User-specified Grid Points =	126 x-points
						126 y-points
						126 z-points

Coordinates of Central Grid Point of Maps =	(1.333, -0.428, -0.352)
Macromolecule file used to create Grid Maps =	mut_N102T_m0.pdbqt
Grid Parameter file used to create Grid Maps =	D:/Protein_go_brrr/autodock/final/mut_N102T/heme_O2/grid.gpf
Minimum coordinates in grid = (-42.578, -44.339, -44.263)
Maximum coordinates in grid = (45.244, 43.483, 43.559)

DPF> map mut_N102T_m0.A.map               # atom-specific affinity map

DPF> map mut_N102T_m0.C.map               # atom-specific affinity map

DPF> map mut_N102T_m0.OA.map              # atom-specific affinity map

DPF> map mut_N102T_m0.N.map               # atom-specific affinity map

DPF> map mut_N102T_m0.Fe.map              # atom-specific affinity map

DPF> map mut_N102T_m0.HD.map              # atom-specific affinity map

DPF> elecmap mut_N102T_m0.e.map           # electrostatics map

DPF> desolvmap mut_N102T_m0.d.map         # desolvation map

DPF> move heme_O2_opt.pdbqt               # small molecule

1,4-interactions will be _ignored_ in the non-bonded internal energy calculation.

Ligand PDBQT file = "heme_O2_opt.pdbqt"

INPUT LIGAND PDBQT FILE:
________________________

INPUT-LIGAND-PDBQT: REMARK  10 active torsions:
INPUT-LIGAND-PDBQT: REMARK  status: ('A' for Active; 'I' for Inactive)
INPUT-LIGAND-PDBQT: REMARK    1  A    between atoms: C_6  and  C_10 
INPUT-LIGAND-PDBQT: REMARK    2  A    between atoms: C_10  and  C_11 
INPUT-LIGAND-PDBQT: REMARK    3  A    between atoms: C_11  and  C_12 
INPUT-LIGAND-PDBQT: REMARK    4  A    between atoms: C_12  and  O_14 
INPUT-LIGAND-PDBQT: REMARK    5  A    between atoms: C_17  and  C_20 
INPUT-LIGAND-PDBQT: REMARK    6  A    between atoms: C_24  and  C_27 
INPUT-LIGAND-PDBQT: REMARK    7  A    between atoms: C_31  and  C_34 
INPUT-LIGAND-PDBQT: REMARK    8  A    between atoms: C_34  and  C_35 
INPUT-LIGAND-PDBQT: REMARK    9  A    between atoms: C_35  and  C_36 
INPUT-LIGAND-PDBQT: REMARK   10  A    between atoms: C_36  and  O_38 
INPUT-LIGAND-PDBQT: ROOT
INPUT-LIGAND-PDBQT: ATOM      1  C   UNL d   1       6.417  35.070  -1.470  0.00  0.00     0.064 A 
INPUT-LIGAND-PDBQT: ATOM      2  C   UNL d   1       7.592  32.343   2.237  0.00  0.00     0.064 A 
INPUT-LIGAND-PDBQT: ATOM      3  C   UNL d   1      12.269  32.904   1.285  0.00  0.00     0.064 C 
INPUT-LIGAND-PDBQT: ATOM      4  C   UNL d   1      11.084  36.099  -2.244  0.00  0.00     0.064 A 
INPUT-LIGAND-PDBQT: ATOM      5  C   UNL d   1       6.355  34.284  -0.383  0.00  0.00     0.066 A 
INPUT-LIGAND-PDBQT: ATOM      6  C   UNL d   1       5.162  33.858   0.208  0.00  0.00    -0.021 A 
INPUT-LIGAND-PDBQT: ATOM      7  C   UNL d   1       5.501  33.104   1.307  0.00  0.00    -0.025 A 
INPUT-LIGAND-PDBQT: ATOM      8  C   UNL d   1       6.892  33.050   1.329  0.00  0.00     0.066 A 
INPUT-LIGAND-PDBQT: ATOM      9  C   UNL d   1       4.513  32.505   2.284  0.00  0.00     0.051 C 
INPUT-LIGAND-PDBQT: ATOM     10  C   UNL d   1       9.050  32.230   2.297  0.00  0.00     0.066 A 
INPUT-LIGAND-PDBQT: ATOM     11  C   UNL d   1       9.719  31.353   3.158  0.00  0.00    -0.021 A 
INPUT-LIGAND-PDBQT: ATOM     12  C   UNL d   1      11.068  31.487   2.886  0.00  0.00     0.000 A 
INPUT-LIGAND-PDBQT: ATOM     13  C   UNL d   1      11.148  32.469   1.860  0.00  0.00     0.070 A 
INPUT-LIGAND-PDBQT: ATOM     14  C   UNL d   1       9.096  30.407   4.178  0.00  0.00     0.052 C 
INPUT-LIGAND-PDBQT: ATOM     15  C   UNL d   1      12.395  33.921   0.269  0.00  0.00     0.066 A 
INPUT-LIGAND-PDBQT: ATOM     16  C   UNL d   1      13.607  34.449  -0.175  0.00  0.00    -0.021 A 
INPUT-LIGAND-PDBQT: ATOM     17  C   UNL d   1      13.294  35.363  -1.181  0.00  0.00     0.000 A 
INPUT-LIGAND-PDBQT: ATOM     18  C   UNL d   1      11.896  35.322  -1.278  0.00  0.00     0.070 A 
INPUT-LIGAND-PDBQT: ATOM     19  C   UNL d   1      14.937  34.079   0.432  0.00  0.00     0.052 C 
INPUT-LIGAND-PDBQT: ATOM     20  C   UNL d   1       9.740  36.116  -2.335  0.00  0.00     0.066 A 
INPUT-LIGAND-PDBQT: ATOM     21  C   UNL d   1       9.031  36.855  -3.278  0.00  0.00    -0.025 A 
INPUT-LIGAND-PDBQT: ATOM     22  C   UNL d   1       7.701  36.553  -3.090  0.00  0.00    -0.021 A 
INPUT-LIGAND-PDBQT: ATOM     23  C   UNL d   1       7.646  35.651  -2.023  0.00  0.00     0.066 A 
INPUT-LIGAND-PDBQT: ATOM     24  C   UNL d   1       9.594  37.804  -4.304  0.00  0.00     0.051 C 
INPUT-LIGAND-PDBQT: ATOM     25  N   UNL d   1       7.418  33.831   0.326  0.00  0.00    -0.248 N 
INPUT-LIGAND-PDBQT: ATOM     26  N   UNL d   1       9.916  32.919   1.511  0.00  0.00    -0.248 N 
INPUT-LIGAND-PDBQT: ATOM     27  N   UNL d   1      11.363  34.498  -0.340  0.00  0.00    -0.248 N 
INPUT-LIGAND-PDBQT: ATOM     28  N   UNL d   1       8.884  35.423  -1.538  0.00  0.00    -0.248 N 
INPUT-LIGAND-PDBQT: ATOM     29 FE   UNL d   1       9.399  34.181  -0.025  0.00  0.00     0.000 Fe
INPUT-LIGAND-PDBQT: ATOM     30  O   UNL d   1       8.866  34.841   1.280  0.00  0.00     0.000 OA
INPUT-LIGAND-PDBQT: ATOM     31  O   UNL d   1       9.881  35.626   0.366  0.00  0.00     0.000 OA
INPUT-LIGAND-PDBQT: ENDROOT
INPUT-LIGAND-PDBQT: BRANCH   6  32
INPUT-LIGAND-PDBQT: ATOM     32  C   UNL d   1       3.756  34.255  -0.161  0.00  0.00     0.052 C 
INPUT-LIGAND-PDBQT: BRANCH  32  33
INPUT-LIGAND-PDBQT: ATOM     33  C   UNL d   1       3.190  33.429  -1.312  0.00  0.00     0.115 C 
INPUT-LIGAND-PDBQT: BRANCH  33  34
INPUT-LIGAND-PDBQT: ATOM     34  C   UNL d   1       1.764  33.798  -1.638  0.00  0.00     0.139 C 
INPUT-LIGAND-PDBQT: ATOM     35  O   UNL d   1       1.015  32.956  -2.107  0.00  0.00    -0.650 OA
INPUT-LIGAND-PDBQT: BRANCH  34  36
INPUT-LIGAND-PDBQT: ATOM     36  O   UNL d   1       1.301  35.051  -1.449  0.00  0.00    -0.776 OA
INPUT-LIGAND-PDBQT: ATOM     37  H   UNL d   1       1.861  35.756  -1.104  0.00  0.00     0.167 HD
INPUT-LIGAND-PDBQT: ENDBRANCH  34  36
INPUT-LIGAND-PDBQT: ENDBRANCH  33  34
INPUT-LIGAND-PDBQT: ENDBRANCH  32  33
INPUT-LIGAND-PDBQT: ENDBRANCH   6  32
INPUT-LIGAND-PDBQT: BRANCH  22  38
INPUT-LIGAND-PDBQT: ATOM     38  C   UNL d   1       6.548  37.151  -3.854  0.00  0.00     0.052 C 
INPUT-LIGAND-PDBQT: BRANCH  38  39
INPUT-LIGAND-PDBQT: ATOM     39  C   UNL d   1       6.010  36.208  -4.928  0.00  0.00     0.115 C 
INPUT-LIGAND-PDBQT: BRANCH  39  40
INPUT-LIGAND-PDBQT: ATOM     40  C   UNL d   1       4.838  36.794  -5.675  0.00  0.00     0.139 C 
INPUT-LIGAND-PDBQT: ATOM     41  O   UNL d   1       4.700  36.561  -6.865  0.00  0.00    -0.650 OA
INPUT-LIGAND-PDBQT: BRANCH  40  42
INPUT-LIGAND-PDBQT: ATOM     42  O   UNL d   1       3.907  37.532  -5.040  0.00  0.00    -0.776 OA
INPUT-LIGAND-PDBQT: ATOM     43  H   UNL d   1       3.982  37.740  -4.101  0.00  0.00     0.167 HD
INPUT-LIGAND-PDBQT: ENDBRANCH  40  42
INPUT-LIGAND-PDBQT: ENDBRANCH  39  40
INPUT-LIGAND-PDBQT: ENDBRANCH  38  39
INPUT-LIGAND-PDBQT: ENDBRANCH  22  38
INPUT-LIGAND-PDBQT: BRANCH  12  44
INPUT-LIGAND-PDBQT: ATOM     44  C   UNL d   1      12.120  30.683   3.621  0.00  0.00     0.004 C 
INPUT-LIGAND-PDBQT: ATOM     45  C   UNL d   1      13.434  30.659   3.401  0.00  0.00     0.012 C 
INPUT-LIGAND-PDBQT: ENDBRANCH  12  44
INPUT-LIGAND-PDBQT: BRANCH  17  46
INPUT-LIGAND-PDBQT: ATOM     46  C   UNL d   1      14.171  36.282  -1.989  0.00  0.00     0.004 C 
INPUT-LIGAND-PDBQT: ATOM     47  C   UNL d   1      15.480  36.522  -1.839  0.00  0.00     0.012 C 
INPUT-LIGAND-PDBQT: ENDBRANCH  17  46
INPUT-LIGAND-PDBQT: TORSDOF 10
________________________________________________________________________________

Total charge on ligand                               =	-2.002 e
REMARK  10 active torsions:
REMARK  status: ('A' for Active; 'I' for Inactive)
REMARK    1  A    between atoms: C_6  and  C_10 
REMARK    2  A    between atoms: C_10  and  C_11 
REMARK    3  A    between atoms: C_11  and  C_12 
REMARK    4  A    between atoms: C_12  and  O_14 
REMARK    5  A    between atoms: C_17  and  C_20 
REMARK    6  A    between atoms: C_24  and  C_27 
REMARK    7  A    between atoms: C_31  and  C_34 
REMARK    8  A    between atoms: C_34  and  C_35 
REMARK    9  A    between atoms: C_35  and  C_36 
REMARK   10  A    between atoms: C_36  and  O_38 


Number of Rotatable Bonds in Small Molecule =	10 torsions
Number of atoms in ligand:  47

Number of non-hydrogen atoms in ligand:  45

Number of vibrational degrees of freedom of ligand:  135


Number of torsional degrees of freedom = 10
Estimated loss of torsional free energy upon binding = +2.9830 kcal/mol


DPF> about 8.287 34.468 -0.670            # small molecule center

Small molecule center of rotation =	(+8.287, +34.468, -0.670)

DPF> tran0 random                         # initial coordinates/A or random

Initial translation =			(-18.283, 34.341, 43.426) Angstroms
DPF> quaternion0 random                   # initial orientation

Each run will begin with a new, random initial orientation.
Initial quaternion,  (x,y,z,w) =	( -0.555, -0.237, 0.777, -0.181 ),
DPF> dihe0 random                         # initial dihedrals (relative) or random

DPF> torsdof 10                            # torsional degrees of freedom

Number of torsional degrees of freedom = 10
Free energy coefficient for torsional degrees of freedom = 0.2983, the factory default value.

Estimated loss of torsional free energy upon binding = +2.9830 kcal/mol

DPF> rmstol 2.0                           # cluster_tolerance/A

Maximum RMS tolerance for conformational cluster analysis = 2.00 Angstroms
DPF> extnrg 1000.0                        # external grid energy

External grid energy (beyond grid map walls) = 1000.00

DPF> e0max 0.0 10000                      # max initial energy; max number of retries

Using user-specified maximum number of retries for simanneal initialization, 10000 retries.
If the simanneal initial energy is greater than e0max, 0.000,
then a new, random initial state will be created.

DPF> ga_pop_size 150                      # number of individuals in population

A population of 150 individuals will be used
DPF> ga_num_evals 25000000                # maximum number of energy evaluations

There will be at most 25000000 function evaluations used.
DPF> ga_num_generations 27000             # maximum number of generations

The GA will run for at most 27000 generations.
DPF> ga_elitism 1                         # number of top individuals to survive to next generation

The 1 best will be preserved each GA generation.
DPF> ga_mutation_rate 0.02                # rate of gene mutation

The mutation rate is 0.020000.
DPF> ga_crossover_rate 0.8                # rate of crossover

The crossover rate is 0.800000.
DPF> ga_window_size 10                    # 

The GA's selection window is 10 generations.
DPF> ga_cauchy_alpha 0.0                  # Alpha parameter of Cauchy distribution

The alpha parameter (for the Cauchy distribution) is being set to 0.000000.
DPF> ga_cauchy_beta 1.0                   # Beta parameter Cauchy distribution

The beta parameter (for the Cauchy distribution) is being set to 1.000000.
DPF> set_ga                               # set the above parameters for GA or LGA

DPF> sw_max_its 300                       # iterations of Solis & Wets local search

Solis & Wets algorithms will perform at most 300 iterations.
DPF> sw_max_succ 4                        # consecutive successes before changing rho

Solis & Wets algorithms expand rho every 4 in a row successes.
DPF> sw_max_fail 4                        # consecutive failures before changing rho

Solis & Wets algorithms contract rho every 4 in a row failures.
DPF> sw_rho 1.0                           # size of local search space to sample

rho is set to 1.000000.
DPF> sw_lb_rho 0.01                       # lower bound on rho

rho will never get smaller than 0.010000.
DPF> ls_search_freq 0.06                  # probability of performing local search on individual

Local search will be performed with frequency 0.060000.
DPF> set_psw1                             # set the above pseudo-Solis & Wets parameters

Creating a new Local Search object using the pseudo-Solis-Wets algorithm (pSW1) with the current settings.

DPF> unbound_model bound                  # state of unbound ligand

DPF> ga_run 100                           # do this many hybrid GA-LS runs

centering ligand on specified point: 8.287 34.468 -0.670
Furthest true ligand atom from "about" center is 7.588 Angstroms (maxrad).
Number of requested GA dockings = 100 runs
Unbound model to be used is 'same as bound' [AutoDock 4.2 default].

	BEGINNING GENETIC ALGORITHM DOCKING 1 of 100
Run: 1 Seed: 1017782538 213999685 [ Run 1 of 100 GA/GALS ]
Beginning LAMARCKIAN GENETIC ALGORITHM (LGA), with a maximum of 25000000 energy evaluations.

Final-Value: -8.600


	FINAL GENETIC ALGORITHM DOCKED STATE
	_______________________________________________


Detailed state:  trans 11.483 16.710 8.460 quatxyzw 0.259094 0.321568 0.438131 0.798439 center 8.287 34.468 -0.670 ntor 10 -24.9875 117.2820 -94.7609 125.8072 -123.2415 -179.4534 137.9949 117.6465 5.5577 6.6076
State:	 11.483  16.710   8.460   0.430  0.534  0.728 74.037    -24.99  117.28  -94.76  125.81 -123.24 -179.45  137.99  117.65    5.56    6.61

DOCKED: MODEL        1
DOCKED: USER    Run = 1
DOCKED: USER    DPF = D:/Protein_go_brrr/autodock/final/mut_N102T/heme_O2/dock.dpf
DOCKED: USER  
DOCKED: USER    Estimated Free Energy of Binding    =   -5.05 kcal/mol  [=(1)+(2)+(3)-(4)]
DOCKED: USER    Estimated Inhibition Constant, Ki   =  199.57 uM (micromolar)  [Temperature = 298.15 K]
DOCKED: USER    
DOCKED: USER    (1) Final Intermolecular Energy     =   -8.03 kcal/mol
DOCKED: USER        vdW + Hbond + desolv Energy     =   -5.44 kcal/mol
DOCKED: USER        Electrostatic Energy            =   -2.59 kcal/mol
DOCKED: USER    (2) Final Total Internal Energy     =   -0.57 kcal/mol
DOCKED: USER    (3) Torsional Free Energy           =   +2.98 kcal/mol
DOCKED: USER    (4) Unbound System's Energy  [=(2)] =   -0.57 kcal/mol
DOCKED: USER    
DOCKED: USER    
DOCKED: USER    NEWDPF move heme_O2_opt.pdbqt
DOCKED: USER    NEWDPF about 8.287000 34.468000 -0.670000
DOCKED: USER    NEWDPF tran0 11.483414 16.710312 8.459987
DOCKED: USER    NEWDPF quaternion0 0.259094 0.321568 0.438131 0.798439
DOCKED: USER    NEWDPF axisangle0 0.430334 0.534099 0.727702 74.037319
DOCKED: USER    NEWDPF quat0 0.430334 0.534099 0.727702 74.037319
DOCKED: USER    NEWDPF dihe0 -24.99 117.28 -94.76 125.81 -123.24 -179.45 137.99 117.65 5.56 6.61 
DOCKED: USER  keepresnum = 1 
DOCKED: USER  
DOCKED: REMARK  10 active torsions:
DOCKED: REMARK  status: ('A' for Active; 'I' for Inactive)
DOCKED: REMARK    1  A    between atoms: C_6  and  C_10 
DOCKED: REMARK    2  A    between atoms: C_10  and  C_11 
DOCKED: REMARK    3  A    between atoms: C_11  and  C_12 
DOCKED: REMARK    4  A    between atoms: C_12  and  O_14 
DOCKED: REMARK    5  A    between atoms: C_17  and  C_20 
DOCKED: REMARK    6  A    between atoms: C_24  and  C_27 
DOCKED: REMARK    7  A    between atoms: C_31  and  C_34 
DOCKED: REMARK    8  A    between atoms: C_34  and  C_35 
DOCKED: REMARK    9  A    between atoms: C_35  and  C_36 
DOCKED: REMARK   10  A    between atoms: C_36  and  O_38 
DOCKED: USER                              x       y       z     vdW  Elec       q    Type
DOCKED: USER                           _______ _______ _______ _____ _____    ______ ____
DOCKED: ROOT
DOCKED: ATOM      1  C   UNL d   1      11.469  17.441   6.469 -0.09 +0.04    +0.064 A 
DOCKED: ATOM      2  C   UNL d   1       8.525  18.079  10.141 -0.16 -0.00    +0.064 A 
DOCKED: ATOM      3  C   UNL d   1      11.198  15.194  12.903 -0.18 -0.00    +0.064 C 
DOCKED: ATOM      4  C   UNL d   1      14.492  14.911   9.279 -0.10 +0.01    +0.064 A 
DOCKED: ATOM      5  C   UNL d   1      10.451  17.851   7.243 -0.12 +0.02    +0.066 A 
DOCKED: ATOM      6  C   UNL d   1       9.424  18.693   6.805 -0.08 -0.00    -0.021 A 
DOCKED: ATOM      7  C   UNL d   1       8.595  18.913   7.880 -0.11 -0.00    -0.025 A 
DOCKED: ATOM      8  C   UNL d   1       9.111  18.161   8.931 -0.05 +0.00    +0.066 A 
DOCKED: ATOM      9  C   UNL d   1       7.392  19.831   7.871 -0.14 -0.01    +0.051 C 
DOCKED: ATOM     10  C   UNL d   1       9.007  17.289  11.275 -0.18 -0.01    +0.066 A 
DOCKED: ATOM     11  C   UNL d   1       8.274  17.109  12.454 -0.23 +0.00    -0.021 A 
DOCKED: ATOM     12  C   UNL d   1       9.021  16.265  13.256 -0.19 -0.00    +0.000 A 
DOCKED: ATOM     13  C   UNL d   1      10.198  15.982  12.510 -0.16 -0.00    +0.070 A 
DOCKED: ATOM     14  C   UNL d   1       6.908  17.694  12.789 -0.21 -0.01    +0.052 C 
DOCKED: ATOM     15  C   UNL d   1      12.422  14.910  12.193 -0.16 +0.00    +0.066 A 
DOCKED: ATOM     16  C   UNL d   1      13.502  14.210  12.728 -0.12 -0.00    -0.021 A 
DOCKED: ATOM     17  C   UNL d   1      14.454  14.117  11.713 -0.11 +0.00    +0.000 A 
DOCKED: ATOM     18  C   UNL d   1      13.874  14.775  10.619 -0.14 +0.01    +0.070 A 
DOCKED: ATOM     19  C   UNL d   1      13.552  13.745  14.162 -0.10 +0.00    +0.052 C 
DOCKED: ATOM     20  C   UNL d   1      13.983  15.572   8.221 -0.08 +0.02    +0.066 A 
DOCKED: ATOM     21  C   UNL d   1      14.603  15.650   6.977 -0.05 -0.01    -0.025 A 
DOCKED: ATOM     22  C   UNL d   1      13.743  16.344   6.156 -0.06 -0.01    -0.021 A 
DOCKED: ATOM     23  C   UNL d   1      12.633  16.681   6.938 -0.10 +0.04    +0.066 A 
DOCKED: ATOM     24  C   UNL d   1      15.949  15.094   6.593 -0.02 +0.01    +0.051 C 
DOCKED: ATOM     25  N   UNL d   1      10.291  17.559   8.557 -0.08 -0.05    -0.248 N 
DOCKED: ATOM     26  N   UNL d   1      10.183  16.613  11.308 -0.11 +0.01    -0.248 N 
DOCKED: ATOM     27  N   UNL d   1      12.674  15.315  10.951 -0.12 -0.01    -0.248 N 
DOCKED: ATOM     28  N   UNL d   1      12.804  16.249   8.204 -0.08 -0.09    -0.248 N 
DOCKED: ATOM     29 FE   UNL d   1      11.505  16.428   9.746 -0.04 +0.00    +0.000 Fe
DOCKED: ATOM     30  O   UNL d   1      11.485  17.938  10.124 -0.08 +0.00    +0.000 OA
DOCKED: ATOM     31  O   UNL d   1      12.842  17.139  10.170 -0.07 +0.00    +0.000 OA
DOCKED: ENDROOT
DOCKED: BRANCH   6  32
DOCKED: ATOM     32  C   UNL d   1       9.299  19.377   5.468 -0.03 +0.01    +0.052 C 
DOCKED: BRANCH  32  33
DOCKED: ATOM     33  C   UNL d   1       8.560  18.530   4.436 -0.05 +0.02    +0.115 C 
DOCKED: BRANCH  33  34
DOCKED: ATOM     34  C   UNL d   1       9.012  17.090   4.444 -0.12 +0.10    +0.139 C 
DOCKED: ATOM     35  O   UNL d   1       8.501  16.302   5.223 -0.62 -0.69    -0.650 OA
DOCKED: BRANCH  34  36
DOCKED: ATOM     36  O   UNL d   1       9.992  16.657   3.625 -0.10 -0.78    -0.776 OA
DOCKED: ATOM     37  H   UNL d   1      10.200  17.103   2.796 +0.02 +0.08    +0.167 HD
DOCKED: ENDBRANCH  34  36
DOCKED: ENDBRANCH  33  34
DOCKED: ENDBRANCH  32  33
DOCKED: ENDBRANCH   6  32
DOCKED: BRANCH  22  38
DOCKED: ATOM     38  C   UNL d   1      14.008  16.715   4.720 -0.03 +0.02    +0.052 C 
DOCKED: BRANCH  38  39
DOCKED: ATOM     39  C   UNL d   1      13.156  15.908   3.743 -0.06 +0.08    +0.115 C 
DOCKED: BRANCH  39  40
DOCKED: ATOM     40  C   UNL d   1      13.466  14.432   3.792 -0.00 +0.13    +0.139 C 
DOCKED: ATOM     41  O   UNL d   1      14.610  14.060   3.996 -0.00 -0.28    -0.650 OA
DOCKED: BRANCH  40  42
DOCKED: ATOM     42  O   UNL d   1      12.491  13.512   3.665 -0.14 -1.38    -0.776 OA
DOCKED: ATOM     43  H   UNL d   1      12.498  12.863   2.951 +0.03 +0.15    +0.167 HD
DOCKED: ENDBRANCH  40  42
DOCKED: ENDBRANCH  39  40
DOCKED: ENDBRANCH  38  39
DOCKED: ENDBRANCH  22  38
DOCKED: BRANCH  12  44
DOCKED: ATOM     44  C   UNL d   1       8.544  15.828  14.625 -0.21 -0.00    +0.004 C 
DOCKED: ATOM     45  C   UNL d   1       7.676  14.861  14.920 -0.37 -0.00    +0.012 C 
DOCKED: ENDBRANCH  12  44
DOCKED: BRANCH  17  46
DOCKED: ATOM     46  C   UNL d   1      15.841  13.531  11.709 -0.10 +0.00    +0.004 C 
DOCKED: ATOM     47  C   UNL d   1      16.312  12.523  10.963 -0.10 +0.00    +0.012 C 
DOCKED: ENDBRANCH  17  46
DOCKED: TORSDOF 10
DOCKED: TER
DOCKED: ENDMDL
________________________________________________________________________________


	BEGINNING GENETIC ALGORITHM DOCKING 2 of 100
Run: 2 Seed: 594082448 1923937782 [ Run 2 of 100 GA/GALS ]
Beginning LAMARCKIAN GENETIC ALGORITHM (LGA), with a maximum of 25000000 energy evaluations.

Final-Value: -9.287


	FINAL GENETIC ALGORITHM DOCKED STATE
	_______________________________________________


Detailed state:  trans -11.732 6.449 10.361 quatxyzw -0.653778 -0.654189 0.064710 0.374731 center 8.287 34.468 -0.670 ntor 10 27.8119 57.4199 49.8899 -93.2497 169.2410 113.2671 46.2435 25.8735 -119.7873 165.4435
State:	-11.732   6.449  10.361  -0.705 -0.706  0.070 135.985     27.81   57.42   49.89  -93.25  169.24  113.27   46.24   25.87 -119.79  165.44

DOCKED: MODEL        2
DOCKED: USER    Run = 2
DOCKED: USER    DPF = D:/Protein_go_brrr/autodock/final/mut_N102T/heme_O2/dock.dpf
DOCKED: USER  
DOCKED: USER    Estimated Free Energy of Binding    =   -4.71 kcal/mol  [=(1)+(2)+(3)-(4)]
DOCKED: USER    Estimated Inhibition Constant, Ki   =  355.29 uM (micromolar)  [Temperature = 298.15 K]
DOCKED: USER    
DOCKED: USER    (1) Final Intermolecular Energy     =   -7.69 kcal/mol
DOCKED: USER        vdW + Hbond + desolv Energy     =   -7.31 kcal/mol
DOCKED: USER        Electrostatic Energy            =   -0.38 kcal/mol
DOCKED: USER    (2) Final Total Internal Energy     =   -1.60 kcal/mol
DOCKED: USER    (3) Torsional Free Energy           =   +2.98 kcal/mol
DOCKED: USER    (4) Unbound System's Energy  [=(2)] =   -1.60 kcal/mol
DOCKED: USER    
DOCKED: USER    
DOCKED: USER    NEWDPF move heme_O2_opt.pdbqt
DOCKED: USER    NEWDPF about 8.287000 34.468000 -0.670000
DOCKED: USER    NEWDPF tran0 -11.732108 6.448771 10.361461
DOCKED: USER    NEWDPF quaternion0 -0.653778 -0.654189 0.064710 0.374731
DOCKED: USER    NEWDPF axisangle0 -0.705161 -0.705604 0.069796 135.984641
DOCKED: USER    NEWDPF quat0 -0.705161 -0.705604 0.069796 135.984641
DOCKED: USER    NEWDPF dihe0 27.81 57.42 49.89 -93.25 169.24 113.27 46.24 25.87 -119.79 165.44 
DOCKED: USER  keepresnum = 1 
DOCKED: USER  
DOCKED: REMARK  10 active torsions:
DOCKED: REMARK  status: ('A' for Active; 'I' for Inactive)
DOCKED: REMARK    1  A    between atoms: C_6  and  C_10 
DOCKED: REMARK    2  A    between atoms: C_10  and  C_11 
DOCKED: REMARK    3  A    between atoms: C_11  and  C_12 
DOCKED: REMARK    4  A    between atoms: C_12  and  O_14 
DOCKED: REMARK    5  A    between atoms: C_17  and  C_20 
DOCKED: REMARK    6  A    between atoms: C_24  and  C_27 
DOCKED: REMARK    7  A    between atoms: C_31  and  C_34 
DOCKED: REMARK    8  A    between atoms: C_34  and  C_35 
DOCKED: REMARK    9  A    between atoms: C_35  and  C_36 
DOCKED: REMARK   10  A    between atoms: C_36  and  O_38 
DOCKED: USER                              x       y       z     vdW  Elec       q    Type
DOCKED: USER                           _______ _______ _______ _____ _____    ______ ____
DOCKED: ROOT
DOCKED: ATOM      1  C   UNL d   1     -11.766   5.482  12.249 -0.12 +0.00    +0.064 A 
DOCKED: ATOM      2  C   UNL d   1     -12.568   3.927   7.833 -0.18 -0.00    +0.064 A 
DOCKED: ATOM      3  C   UNL d   1     -11.812   8.324   6.049 -0.22 -0.01    +0.064 C 
DOCKED: ATOM      4  C   UNL d   1     -10.517   9.833  10.533 -0.18 -0.00    +0.064 A 
DOCKED: ATOM      5  C   UNL d   1     -12.044   4.700  11.194 -0.10 -0.00    +0.066 A 
DOCKED: ATOM      6  C   UNL d   1     -12.351   3.339  11.287 -0.16 +0.00    -0.021 A 
DOCKED: ATOM      7  C   UNL d   1     -12.541   2.878  10.005 -0.18 +0.00    -0.025 A 
DOCKED: ATOM      8  C   UNL d   1     -12.392   3.980   9.168 -0.17 -0.00    +0.066 A 
DOCKED: ATOM      9  C   UNL d   1     -12.820   1.438   9.636 -0.16 -0.01    +0.051 C 
DOCKED: ATOM     10  C   UNL d   1     -12.448   5.053   6.907 -0.14 -0.00    +0.066 A 
DOCKED: ATOM     11  C   UNL d   1     -12.800   4.978   5.555 -0.14 -0.00    -0.021 A 
DOCKED: ATOM     12  C   UNL d   1     -12.607   6.242   5.027 -0.14 +0.00    +0.000 A 
DOCKED: ATOM     13  C   UNL d   1     -12.124   7.030   6.108 -0.09 -0.00    +0.070 A 
DOCKED: ATOM     14  C   UNL d   1     -13.326   3.760   4.805 -0.12 +0.00    +0.052 C 
DOCKED: ATOM     15  C   UNL d   1     -11.288   9.149   7.111 -0.20 -0.01    +0.066 A 
DOCKED: ATOM     16  C   UNL d   1     -10.827  10.454   6.943 -0.10 +0.00    -0.021 A 
DOCKED: ATOM     17  C   UNL d   1     -10.451  10.905   8.209 -0.17 -0.00    +0.000 A 
DOCKED: ATOM     18  C   UNL d   1     -10.717   9.827   9.065 -0.19 -0.01    +0.070 A 
DOCKED: ATOM     19  C   UNL d   1     -10.734  11.128   5.597 -0.19 -0.01    +0.052 C 
DOCKED: ATOM     20  C   UNL d   1     -10.721   8.803  11.378 -0.19 +0.00    +0.066 A 
DOCKED: ATOM     21  C   UNL d   1     -10.532   8.874  12.755 -0.19 -0.00    -0.025 A 
DOCKED: ATOM     22  C   UNL d   1     -10.909   7.652  13.264 -0.19 -0.00    -0.021 A 
DOCKED: ATOM     23  C   UNL d   1     -11.299   6.871  12.171 -0.19 +0.00    +0.066 A 
DOCKED: ATOM     24  C   UNL d   1     -10.014  10.048  13.545 -0.15 +0.00    +0.051 C 
DOCKED: ATOM     25  N   UNL d   1     -12.022   5.088   9.895 -0.13 +0.01    -0.248 N 
DOCKED: ATOM     26  N   UNL d   1     -12.026   6.298   7.247 -0.12 +0.01    -0.248 N 
DOCKED: ATOM     27  N   UNL d   1     -11.154   8.745   8.371 -0.14 +0.04    -0.248 N 
DOCKED: ATOM     28  N   UNL d   1     -11.140   7.560  11.022 -0.14 -0.00    -0.248 N 
DOCKED: ATOM     29 FE   UNL d   1     -11.579   6.936   9.147 -0.05 -0.00    +0.000 Fe
DOCKED: ATOM     30  O   UNL d   1     -10.525   5.846   8.794 -0.55 +0.00    +0.000 OA
DOCKED: ATOM     31  O   UNL d   1     -10.049   7.298   9.178 -0.56 -0.00    +0.000 OA
DOCKED: ENDROOT
DOCKED: BRANCH   6  32
DOCKED: ATOM     32  C   UNL d   1     -12.333   2.471  12.518 -0.17 -0.00    +0.052 C 
DOCKED: BRANCH  32  33
DOCKED: ATOM     33  C   UNL d   1     -11.212   2.839  13.485 -0.17 +0.01    +0.115 C 
DOCKED: BRANCH  33  34
DOCKED: ATOM     34  C   UNL d   1     -10.495   1.625  14.023 -0.24 +0.03    +0.139 C 
DOCKED: ATOM     35  O   UNL d   1     -10.598   0.557  13.441 -0.07 -0.11    -0.650 OA
DOCKED: BRANCH  34  36
DOCKED: ATOM     36  O   UNL d   1      -9.762   1.684  15.154 -0.01 -0.32    -0.776 OA
DOCKED: ATOM     37  H   UNL d   1      -9.958   2.314  15.857 +0.05 +0.05    +0.167 HD
DOCKED: ENDBRANCH  34  36
DOCKED: ENDBRANCH  33  34
DOCKED: ENDBRANCH  32  33
DOCKED: ENDBRANCH   6  32
DOCKED: BRANCH  22  38
DOCKED: ATOM     38  C   UNL d   1     -10.835   7.242  14.712 -0.14 +0.00    +0.052 C 
DOCKED: BRANCH  38  39
DOCKED: ATOM     39  C   UNL d   1      -9.521   6.541  15.052 -0.20 +0.01    +0.115 C 
DOCKED: BRANCH  39  40
DOCKED: ATOM     40  C   UNL d   1      -9.647   5.630  16.247 -0.12 +0.01    +0.139 C 
DOCKED: ATOM     41  O   UNL d   1      -9.225   5.993  17.333 +0.03 -0.02    -0.650 OA
DOCKED: BRANCH  40  42
DOCKED: ATOM     42  O   UNL d   1     -10.264   4.437  16.150 +0.05 -0.09    -0.776 OA
DOCKED: ATOM     43  H   UNL d   1      -9.948   3.752  15.548 +0.05 +0.03    +0.167 HD
DOCKED: ENDBRANCH  40  42
DOCKED: ENDBRANCH  39  40
DOCKED: ENDBRANCH  38  39
DOCKED: ENDBRANCH  22  38
DOCKED: BRANCH  12  44
DOCKED: ATOM     44  C   UNL d   1     -12.892   6.558   3.574 -0.14 +0.00    +0.004 C 
DOCKED: ATOM     45  C   UNL d   1     -12.133   7.244   2.721 -0.16 +0.00    +0.012 C 
DOCKED: ENDBRANCH  12  44
DOCKED: BRANCH  17  46
DOCKED: ATOM     46  C   UNL d   1      -9.829  12.203   8.651 -0.22 -0.00    +0.004 C 
DOCKED: ATOM     47  C   UNL d   1      -8.543  12.452   8.930 -0.31 -0.00    +0.012 C 
DOCKED: ENDBRANCH  17  46
DOCKED: TORSDOF 10
DOCKED: TER
DOCKED: ENDMDL
________________________________________________________________________________


	BEGINNING GENETIC ALGORITHM DOCKING 3 of 100
Run: 3 Seed: 2144234490 1472712909 [ Run 3 of 100 GA/GALS ]
Beginning LAMARCKIAN GENETIC ALGORITHM (LGA), with a maximum of 25000000 energy evaluations.

Final-Value: -11.018


	FINAL GENETIC ALGORITHM DOCKED STATE
	_______________________________________________


Detailed state:  trans 7.647 -1.711 16.446 quatxyzw -0.032882 -0.808861 -0.250648 -0.530884 center 8.287 34.468 -0.670 ntor 10 31.5235 -36.4173 112.2770 -110.0502 -141.1287 168.2309 -55.7046 104.1082 -10.8590 -167.4943
State:	  7.647  -1.711  16.446  -0.039 -0.954 -0.296 -115.870     31.52  -36.42  112.28 -110.05 -141.13  168.23  -55.70  104.11  -10.86 -167.49

DOCKED: MODEL        3
DOCKED: USER    Run = 3
DOCKED: USER    DPF = D:/Protein_go_brrr/autodock/final/mut_N102T/heme_O2/dock.dpf
DOCKED: USER  
DOCKED: USER    Estimated Free Energy of Binding    =   -7.36 kcal/mol  [=(1)+(2)+(3)-(4)]
DOCKED: USER    Estimated Inhibition Constant, Ki   =    4.02 uM (micromolar)  [Temperature = 298.15 K]
DOCKED: USER    
DOCKED: USER    (1) Final Intermolecular Energy     =  -10.34 kcal/mol
DOCKED: USER        vdW + Hbond + desolv Energy     =   -7.72 kcal/mol
DOCKED: USER        Electrostatic Energy            =   -2.62 kcal/mol
DOCKED: USER    (2) Final Total Internal Energy     =   -0.67 kcal/mol
DOCKED: USER    (3) Torsional Free Energy           =   +2.98 kcal/mol
DOCKED: USER    (4) Unbound System's Energy  [=(2)] =   -0.67 kcal/mol
DOCKED: USER    
DOCKED: USER    
DOCKED: USER    NEWDPF move heme_O2_opt.pdbqt
DOCKED: USER    NEWDPF about 8.287000 34.468000 -0.670000
DOCKED: USER    NEWDPF tran0 7.646588 -1.711082 16.446193
DOCKED: USER    NEWDPF quaternion0 -0.032882 -0.808861 -0.250648 -0.530884
DOCKED: USER    NEWDPF axisangle0 -0.038801 -0.954471 -0.295770 -115.869557
DOCKED: USER    NEWDPF quat0 -0.038801 -0.954471 -0.295770 -115.869557
DOCKED: USER    NEWDPF dihe0 31.52 -36.42 112.28 -110.05 -141.13 168.23 -55.70 104.11 -10.86 -167.49 
DOCKED: USER  keepresnum = 1 
DOCKED: USER  
DOCKED: REMARK  10 active torsions:
DOCKED: REMARK  status: ('A' for Active; 'I' for Inactive)
DOCKED: REMARK    1  A    between atoms: C_6  and  C_10 
DOCKED: REMARK    2  A    between atoms: C_10  and  C_11 
DOCKED: REMARK    3  A    between atoms: C_11  and  C_12 
DOCKED: REMARK    4  A    between atoms: C_12  and  O_14 
DOCKED: REMARK    5  A    between atoms: C_17  and  C_20 
DOCKED: REMARK    6  A    between atoms: C_24  and  C_27 
DOCKED: REMARK    7  A    between atoms: C_31  and  C_34 
DOCKED: REMARK    8  A    between atoms: C_34  and  C_35 
DOCKED: REMARK    9  A    between atoms: C_35  and  C_36 
DOCKED: REMARK   10  A    between atoms: C_36  and  O_38 
DOCKED: USER                              x       y       z     vdW  Elec       q    Type
DOCKED: USER                           _______ _______ _______ _____ _____    ______ ____
DOCKED: ROOT
DOCKED: ATOM      1  C   UNL d   1       9.325  -1.140  15.281 -0.10 +0.02    +0.064 A 
DOCKED: ATOM      2  C   UNL d   1       4.821  -2.136  14.147 -0.18 -0.01    +0.064 A 
DOCKED: ATOM      3  C   UNL d   1       3.772  -3.062  18.745 -0.10 -0.01    +0.064 C 
DOCKED: ATOM      4  C   UNL d   1       8.279  -1.577  19.988 -0.04 +0.00    +0.064 A 
DOCKED: ATOM      5  C   UNL d   1       8.185  -1.334  14.598 -0.14 +0.01    +0.066 A 
DOCKED: ATOM      6  C   UNL d   1       8.069  -1.191  13.212 -0.21 -0.00    -0.021 A 
DOCKED: ATOM      7  C   UNL d   1       6.755  -1.437  12.888 -0.29 -0.00    -0.025 A 
DOCKED: ATOM      8  C   UNL d   1       6.116  -1.770  14.079 -0.24 -0.00    +0.066 A 
DOCKED: ATOM      9  C   UNL d   1       6.170  -1.319  11.498 -0.32 +0.00    +0.051 C 
DOCKED: ATOM     10  C   UNL d   1       4.101  -2.519  15.363 -0.22 -0.01    +0.066 A 
DOCKED: ATOM     11  C   UNL d   1       2.806  -3.047  15.356 -0.36 +0.00    -0.021 A 
DOCKED: ATOM     12  C   UNL d   1       2.492  -3.337  16.671 -0.34 -0.00    +0.000 A 
DOCKED: ATOM     13  C   UNL d   1       3.635  -2.950  17.424 -0.16 -0.01    +0.070 A 
DOCKED: ATOM     14  C   UNL d   1       1.915  -3.290  14.143 -0.49 -0.01    +0.052 C 
DOCKED: ATOM     15  C   UNL d   1       4.897  -2.649  19.548 -0.04 -0.01    +0.066 A 
DOCKED: ATOM     16  C   UNL d   1       4.914  -2.642  20.942 -0.02 +0.00    -0.021 A 
DOCKED: ATOM     17  C   UNL d   1       6.189  -2.222  21.319 -0.02 -0.00    +0.000 A 
DOCKED: ATOM     18  C   UNL d   1       6.865  -2.002  20.111 -0.04 -0.00    +0.070 A 
DOCKED: ATOM     19  C   UNL d   1       3.707  -2.981  21.780 -0.02 -0.02    +0.052 C 
DOCKED: ATOM     20  C   UNL d   1       8.944  -1.316  18.846 -0.06 +0.01    +0.066 A 
DOCKED: ATOM     21  C   UNL d   1      10.283  -0.936  18.792 -0.06 -0.00    -0.025 A 
DOCKED: ATOM     22  C   UNL d   1      10.605  -0.834  17.458 -0.07 -0.01    -0.021 A 
DOCKED: ATOM     23  C   UNL d   1       9.442  -1.139  16.744 -0.06 +0.02    +0.066 A 
DOCKED: ATOM     24  C   UNL d   1      11.205  -0.680  19.955 -0.03 +0.01    +0.051 C 
DOCKED: ATOM     25  N   UNL d   1       6.981  -1.643  15.140 -0.10 -0.02    -0.248 N 
DOCKED: ATOM     26  N   UNL d   1       4.608  -2.448  16.620 -0.11 +0.04    -0.248 N 
DOCKED: ATOM     27  N   UNL d   1       6.043  -2.195  19.047 -0.03 +0.02    -0.248 N 
DOCKED: ATOM     28  N   UNL d   1       8.423  -1.388  17.592 -0.06 -0.05    -0.248 N 
DOCKED: ATOM     29 FE   UNL d   1       6.529  -1.914  17.113 -0.03 +0.00    +0.000 Fe
DOCKED: ATOM     30  O   UNL d   1       5.872  -0.650  16.485 -0.37 -0.00    +0.000 OA
DOCKED: ATOM     31  O   UNL d   1       6.452  -0.584  17.949 -0.23 +0.00    +0.000 OA
DOCKED: ENDROOT
DOCKED: BRANCH   6  32
DOCKED: ATOM     32  C   UNL d   1       9.117  -0.708  12.243 -0.26 +0.01    +0.052 C 
DOCKED: BRANCH  32  33
DOCKED: ATOM     33  C   UNL d   1      10.220  -1.734  12.003 -0.13 +0.05    +0.115 C 
DOCKED: BRANCH  33  34
DOCKED: ATOM     34  C   UNL d   1      10.349  -2.109  10.547 -0.14 +0.14    +0.139 C 
DOCKED: ATOM     35  O   UNL d   1      10.752  -1.282   9.745 -0.39 -0.66    -0.650 OA
DOCKED: BRANCH  34  36
DOCKED: ATOM     36  O   UNL d   1      10.002  -3.335  10.103 -0.27 -1.40    -0.776 OA
DOCKED: ATOM     37  H   UNL d   1       9.290  -3.843  10.509 +0.04 +0.19    +0.167 HD
DOCKED: ENDBRANCH  34  36
DOCKED: ENDBRANCH  33  34
DOCKED: ENDBRANCH  32  33
DOCKED: ENDBRANCH   6  32
DOCKED: BRANCH  22  38
DOCKED: ATOM     38  C   UNL d   1      11.940  -0.403  16.907 -0.05 +0.01    +0.052 C 
DOCKED: BRANCH  38  39
DOCKED: ATOM     39  C   UNL d   1      12.266   1.051  17.241 -0.09 +0.04    +0.115 C 
DOCKED: BRANCH  39  40
DOCKED: ATOM     40  C   UNL d   1      11.514   2.025  16.368 -0.23 +0.09    +0.139 C 
DOCKED: ATOM     41  O   UNL d   1      11.479   1.854  15.160 -0.03 -0.31    -0.650 OA
DOCKED: BRANCH  40  42
DOCKED: ATOM     42  O   UNL d   1      10.833   3.057  16.903 -0.45 -0.90    -0.776 OA
DOCKED: ATOM     43  H   UNL d   1      10.395   2.983  17.760 -0.31 +0.16    +0.167 HD
DOCKED: ENDBRANCH  40  42
DOCKED: ENDBRANCH  39  40
DOCKED: ENDBRANCH  38  39
DOCKED: ENDBRANCH  22  38
DOCKED: BRANCH  12  44
DOCKED: ATOM     44  C   UNL d   1       1.159  -3.939  17.066 -0.37 -0.00    +0.004 C 
DOCKED: ATOM     45  C   UNL d   1      -0.034  -3.346  17.081 -0.44 -0.00    +0.012 C 
DOCKED: ENDBRANCH  12  44
DOCKED: BRANCH  17  46
DOCKED: ATOM     46  C   UNL d   1       6.782  -1.963  22.678 -0.01 -0.00    +0.004 C 
DOCKED: ATOM     47  C   UNL d   1       7.238  -0.806  23.177 -0.02 -0.00    +0.012 C 
DOCKED: ENDBRANCH  17  46
DOCKED: TORSDOF 10
DOCKED: TER
DOCKED: ENDMDL
________________________________________________________________________________


	BEGINNING GENETIC ALGORITHM DOCKING 4 of 100
Run: 4 Seed: 1366099603 615044615 [ Run 4 of 100 GA/GALS ]
Beginning LAMARCKIAN GENETIC ALGORITHM (LGA), with a maximum of 25000000 energy evaluations.

Final-Value: -9.503


	FINAL GENETIC ALGORITHM DOCKED STATE
	_______________________________________________


Detailed state:  trans 10.213 16.794 11.602 quatxyzw 0.151173 -0.472803 0.810062 -0.312096 center 8.287 34.468 -0.670 ntor 10 111.2525 117.4699 58.3494 90.6088 -97.7913 -70.3211 -41.0032 -57.2340 -165.2529 14.9430
State:	 10.213  16.794  11.602   0.159 -0.498  0.853 -143.629    111.25  117.47   58.35   90.61  -97.79  -70.32  -41.00  -57.23 -165.25   14.94

DOCKED: MODEL        4
DOCKED: USER    Run = 4
DOCKED: USER    DPF = D:/Protein_go_brrr/autodock/final/mut_N102T/heme_O2/dock.dpf
DOCKED: USER  
DOCKED: USER    Estimated Free Energy of Binding    =   -4.38 kcal/mol  [=(1)+(2)+(3)-(4)]
DOCKED: USER    Estimated Inhibition Constant, Ki   =  615.05 uM (micromolar)  [Temperature = 298.15 K]
DOCKED: USER    
DOCKED: USER    (1) Final Intermolecular Energy     =   -7.36 kcal/mol
DOCKED: USER        vdW + Hbond + desolv Energy     =   -5.59 kcal/mol
DOCKED: USER        Electrostatic Energy            =   -1.78 kcal/mol
DOCKED: USER    (2) Final Total Internal Energy     =   -2.14 kcal/mol
DOCKED: USER    (3) Torsional Free Energy           =   +2.98 kcal/mol
DOCKED: USER    (4) Unbound System's Energy  [=(2)] =   -2.14 kcal/mol
DOCKED: USER    
DOCKED: USER    
DOCKED: USER    NEWDPF move heme_O2_opt.pdbqt
DOCKED: USER    NEWDPF about 8.287000 34.468000 -0.670000
DOCKED: USER    NEWDPF tran0 10.213474 16.793640 11.601599
DOCKED: USER    NEWDPF quaternion0 0.151173 -0.472803 0.810062 -0.312096
DOCKED: USER    NEWDPF axisangle0 0.159121 -0.497661 0.852651 -143.628782
DOCKED: USER    NEWDPF quat0 0.159121 -0.497661 0.852651 -143.628782
DOCKED: USER    NEWDPF dihe0 111.25 117.47 58.35 90.61 -97.79 -70.32 -41.00 -57.23 -165.25 14.94 
DOCKED: USER  keepresnum = 1 
DOCKED: USER  
DOCKED: REMARK  10 active torsions:
DOCKED: REMARK  status: ('A' for Active; 'I' for Inactive)
DOCKED: REMARK    1  A    between atoms: C_6  and  C_10 
DOCKED: REMARK    2  A    between atoms: C_10  and  C_11 
DOCKED: REMARK    3  A    between atoms: C_11  and  C_12 
DOCKED: REMARK    4  A    between atoms: C_12  and  O_14 
DOCKED: REMARK    5  A    between atoms: C_17  and  C_20 
DOCKED: REMARK    6  A    between atoms: C_24  and  C_27 
DOCKED: REMARK    7  A    between atoms: C_31  and  C_34 
DOCKED: REMARK    8  A    between atoms: C_34  and  C_35 
DOCKED: REMARK    9  A    between atoms: C_35  and  C_36 
DOCKED: REMARK   10  A    between atoms: C_36  and  O_38 
DOCKED: USER                              x       y       z     vdW  Elec       q    Type
DOCKED: USER                           _______ _______ _______ _____ _____    ______ ____
DOCKED: ROOT
DOCKED: ATOM      1  C   UNL d   1      11.283  16.588   9.782 -0.05 +0.00    +0.064 A 
DOCKED: ATOM      2  C   UNL d   1      11.974  14.801  14.128 -0.08 +0.00    +0.064 A 
DOCKED: ATOM      3  C   UNL d   1       8.105  17.116  15.794 -0.11 -0.03    +0.064 C 
DOCKED: ATOM      4  C   UNL d   1       7.110  18.578  11.218 -0.19 -0.02    +0.064 A 
DOCKED: ATOM      5  C   UNL d   1      11.786  15.912  10.827 -0.14 +0.00    +0.066 A 
DOCKED: ATOM      6  C   UNL d   1      12.938  15.123  10.769 -0.18 -0.00    -0.021 A 
DOCKED: ATOM      7  C   UNL d   1      13.115  14.571  12.016 -0.11 -0.00    -0.025 A 
DOCKED: ATOM      8  C   UNL d   1      12.092  15.076  12.815 -0.13 +0.00    +0.066 A 
DOCKED: ATOM      9  C   UNL d   1      14.205  13.586  12.380 +0.03 +0.01    +0.051 C 
DOCKED: ATOM     10  C   UNL d   1      10.937  15.319  15.022 -0.05 -0.00    +0.066 A 
DOCKED: ATOM     11  C   UNL d   1      10.954  15.135  16.409 -0.03 +0.00    -0.021 A 
DOCKED: ATOM     12  C   UNL d   1       9.856  15.810  16.909 -0.05 -0.00    +0.000 A 
DOCKED: ATOM     13  C   UNL d   1       9.210  16.370  15.772 -0.06 -0.02    +0.070 A 
DOCKED: ATOM     14  C   UNL d   1      11.990  14.370  17.225 -0.02 -0.00    +0.052 C 
DOCKED: ATOM     15  C   UNL d   1       7.401  17.672  14.664 -0.12 -0.03    +0.066 A 
DOCKED: ATOM     16  C   UNL d   1       6.160  18.304  14.738 -0.16 +0.01    -0.021 A 
DOCKED: ATOM     17  C   UNL d   1       5.856  18.729  13.445 -0.19 -0.00    +0.000 A 
DOCKED: ATOM     18  C   UNL d   1       6.949  18.320  12.669 -0.19 -0.02    +0.070 A 
DOCKED: ATOM     19  C   UNL d   1       5.360  18.397  16.013 -0.11 -0.05    +0.052 C 
DOCKED: ATOM     20  C   UNL d   1       8.125  18.163  10.435 -0.19 -0.01    +0.066 A 
DOCKED: ATOM     21  C   UNL d   1       8.231  18.452   9.077 -0.18 +0.00    -0.025 A 
DOCKED: ATOM     22  C   UNL d   1       9.428  17.917   8.657 -0.03 -0.00    -0.021 A 
DOCKED: ATOM     23  C   UNL d   1      10.001  17.302   9.775 -0.03 +0.01    +0.066 A 
DOCKED: ATOM     24  C   UNL d   1       7.240  19.200   8.224 -0.21 -0.01    +0.051 C 
DOCKED: ATOM     25  N   UNL d   1      11.237  15.850  12.065 -0.10 +0.01    -0.248 N 
DOCKED: ATOM     26  N   UNL d   1       9.871  16.063  14.628 -0.02 +0.03    -0.248 N 
DOCKED: ATOM     27  N   UNL d   1       7.841  17.615  13.410 -0.09 +0.06    -0.248 N 
DOCKED: ATOM     28  N   UNL d   1       9.184  17.415  10.842 -0.12 +0.01    -0.248 N 
DOCKED: ATOM     29 FE   UNL d   1       9.523  16.745  12.722 -0.03 -0.00    +0.000 Fe
DOCKED: ATOM     30  O   UNL d   1       9.434  15.192  12.653 -0.35 -0.00    +0.000 OA
DOCKED: ATOM     31  O   UNL d   1       8.200  16.066  12.210 -0.43 -0.00    +0.000 OA
DOCKED: ENDROOT
DOCKED: BRANCH   6  32
DOCKED: ATOM     32  C   UNL d   1      13.767  14.789   9.556 -0.19 +0.01    +0.052 C 
DOCKED: BRANCH  32  33
DOCKED: ATOM     33  C   UNL d   1      13.178  13.648   8.732 -0.29 +0.04    +0.115 C 
DOCKED: BRANCH  33  34
DOCKED: ATOM     34  C   UNL d   1      13.228  13.923   7.250 -0.23 +0.11    +0.139 C 
DOCKED: ATOM     35  O   UNL d   1      13.974  13.267   6.539 -0.04 -0.40    -0.650 OA
DOCKED: BRANCH  34  36
DOCKED: ATOM     36  O   UNL d   1      12.485  14.900   6.690 -0.31 -1.30    -0.776 OA
DOCKED: ATOM     37  H   UNL d   1      12.884  15.696   6.320 +0.02 +0.18    +0.167 HD
DOCKED: ENDBRANCH  34  36
DOCKED: ENDBRANCH  33  34
DOCKED: ENDBRANCH  32  33
DOCKED: ENDBRANCH   6  32
DOCKED: BRANCH  22  38
DOCKED: ATOM     38  C   UNL d   1       9.954  17.942   7.246 -0.14 +0.02    +0.052 C 
DOCKED: BRANCH  38  39
DOCKED: ATOM     39  C   UNL d   1      11.255  18.731   7.123 -0.03 +0.02    +0.115 C 
DOCKED: BRANCH  39  40
DOCKED: ATOM     40  C   UNL d   1      12.386  17.897   6.575 -0.04 +0.05    +0.139 C 
DOCKED: ATOM     41  O   UNL d   1      12.408  17.612   5.388 +0.01 -0.31    -0.650 OA
DOCKED: BRANCH  40  42
DOCKED: ATOM     42  O   UNL d   1      13.405  17.502   7.362 +0.04 -0.19    -0.776 OA
DOCKED: ATOM     43  H   UNL d   1      13.603  16.568   7.500 +0.03 +0.06    +0.167 HD
DOCKED: ENDBRANCH  40  42
DOCKED: ENDBRANCH  39  40
DOCKED: ENDBRANCH  38  39
DOCKED: ENDBRANCH  22  38
DOCKED: BRANCH  12  44
DOCKED: ATOM     44  C   UNL d   1       9.542  15.847  18.390 -0.05 -0.00    +0.004 C 
DOCKED: ATOM     45  C   UNL d   1       8.403  15.511  18.994 -0.11 -0.00    +0.012 C 
DOCKED: ENDBRANCH  12  44
DOCKED: BRANCH  17  46
DOCKED: ATOM     46  C   UNL d   1       4.634  19.413  12.892 -0.28 -0.00    +0.004 C 
DOCKED: ATOM     47  C   UNL d   1       4.345  20.721  12.893 -0.23 -0.00    +0.012 C 
DOCKED: ENDBRANCH  17  46
DOCKED: TORSDOF 10
DOCKED: TER
DOCKED: ENDMDL
________________________________________________________________________________


	BEGINNING GENETIC ALGORITHM DOCKING 5 of 100
Run: 5 Seed: 1711146787 330338798 [ Run 5 of 100 GA/GALS ]
Beginning LAMARCKIAN GENETIC ALGORITHM (LGA), with a maximum of 25000000 energy evaluations.

Final-Value: -9.397


	FINAL GENETIC ALGORITHM DOCKED STATE
	_______________________________________________


Detailed state:  trans -7.412 10.236 -12.497 quatxyzw -0.683137 -0.025506 -0.729735 0.012646 center 8.287 34.468 -0.670 ntor 10 176.7563 -137.5300 14.0364 -106.8892 31.8219 86.6987 89.0170 -76.8138 12.3715 -26.9472
State:	 -7.412  10.236 -12.497  -0.683 -0.026 -0.730 178.551    176.76 -137.53   14.04 -106.89   31.82   86.70   89.02  -76.81   12.37  -26.95

DOCKED: MODEL        5
DOCKED: USER    Run = 5
DOCKED: USER    DPF = D:/Protein_go_brrr/autodock/final/mut_N102T/heme_O2/dock.dpf
DOCKED: USER  
DOCKED: USER    Estimated Free Energy of Binding    =   -3.90 kcal/mol  [=(1)+(2)+(3)-(4)]
DOCKED: USER    Estimated Inhibition Constant, Ki   =    1.38 mM (millimolar)  [Temperature = 298.15 K]
DOCKED: USER    
DOCKED: USER    (1) Final Intermolecular Energy     =   -6.88 kcal/mol
DOCKED: USER        vdW + Hbond + desolv Energy     =   -6.83 kcal/mol
DOCKED: USER        Electrostatic Energy            =   -0.06 kcal/mol
DOCKED: USER    (2) Final Total Internal Energy     =   -2.51 kcal/mol
DOCKED: USER    (3) Torsional Free Energy           =   +2.98 kcal/mol
DOCKED: USER    (4) Unbound System's Energy  [=(2)] =   -2.51 kcal/mol
DOCKED: USER    
DOCKED: USER    
DOCKED: USER    NEWDPF move heme_O2_opt.pdbqt
DOCKED: USER    NEWDPF about 8.287000 34.468000 -0.670000
DOCKED: USER    NEWDPF tran0 -7.412493 10.235654 -12.496515
DOCKED: USER    NEWDPF quaternion0 -0.683137 -0.025506 -0.729735 0.012646
DOCKED: USER    NEWDPF axisangle0 -0.683192 -0.025508 -0.729793 178.550789
DOCKED: USER    NEWDPF quat0 -0.683192 -0.025508 -0.729793 178.550789
DOCKED: USER    NEWDPF dihe0 176.76 -137.53 14.04 -106.89 31.82 86.70 89.02 -76.81 12.37 -26.95 
DOCKED: USER  keepresnum = 1 
DOCKED: USER  
DOCKED: REMARK  10 active torsions:
DOCKED: REMARK  status: ('A' for Active; 'I' for Inactive)
DOCKED: REMARK    1  A    between atoms: C_6  and  C_10 
DOCKED: REMARK    2  A    between atoms: C_10  and  C_11 
DOCKED: REMARK    3  A    between atoms: C_11  and  C_12 
DOCKED: REMARK    4  A    between atoms: C_12  and  O_14 
DOCKED: REMARK    5  A    between atoms: C_17  and  C_20 
DOCKED: REMARK    6  A    between atoms: C_24  and  C_27 
DOCKED: REMARK    7  A    between atoms: C_31  and  C_34 
DOCKED: REMARK    8  A    between atoms: C_34  and  C_35 
DOCKED: REMARK    9  A    between atoms: C_35  and  C_36 
DOCKED: REMARK   10  A    between atoms: C_36  and  O_38 
DOCKED: USER                              x       y       z     vdW  Elec       q    Type
DOCKED: USER                           _______ _______ _______ _____ _____    ______ ____
DOCKED: ROOT
DOCKED: ATOM      1  C   UNL d   1      -8.077   9.519 -14.379 -0.21 -0.01    +0.064 A 
DOCKED: ATOM      2  C   UNL d   1      -4.501  12.378 -13.115 -0.24 -0.01    +0.064 A 
DOCKED: ATOM      3  C   UNL d   1      -5.752  12.048  -8.486 -0.17 -0.00    +0.064 C 
DOCKED: ATOM      4  C   UNL d   1      -9.142   8.725  -9.724 -0.11 -0.00    +0.064 A 
DOCKED: ATOM      5  C   UNL d   1      -7.001  10.322 -14.413 -0.19 -0.01    +0.066 A 
DOCKED: ATOM      6  C   UNL d   1      -6.339  10.696 -15.586 -0.26 +0.00    -0.021 A 
DOCKED: ATOM      7  C   UNL d   1      -5.278  11.488 -15.218 -0.29 +0.00    -0.025 A 
DOCKED: ATOM      8  C   UNL d   1      -5.349  11.617 -13.833 -0.21 -0.01    +0.066 A 
DOCKED: ATOM      9  C   UNL d   1      -4.247  12.053 -16.171 -0.28 -0.00    +0.051 C 
DOCKED: ATOM     10  C   UNL d   1      -4.540  12.570 -11.664 -0.21 -0.01    +0.066 A 
DOCKED: ATOM     11  C   UNL d   1      -3.739  13.498 -10.989 -0.24 +0.00    -0.021 A 
DOCKED: ATOM     12  C   UNL d   1      -4.098  13.431  -9.656 -0.24 -0.00    +0.000 A 
DOCKED: ATOM     13  C   UNL d   1      -5.111  12.434  -9.590 -0.16 -0.00    +0.070 A 
DOCKED: ATOM     14  C   UNL d   1      -2.696  14.430 -11.595 -0.22 -0.00    +0.052 C 
DOCKED: ATOM     15  C   UNL d   1      -6.757  11.019  -8.372 -0.11 -0.00    +0.066 A 
DOCKED: ATOM     16  C   UNL d   1      -7.272  10.548  -7.164 -0.13 +0.00    -0.021 A 
DOCKED: ATOM     17  C   UNL d   1      -8.240   9.599  -7.492 -0.11 -0.00    +0.000 A 
DOCKED: ATOM     18  C   UNL d   1      -8.244   9.563  -8.894 -0.11 -0.00    +0.070 A 
DOCKED: ATOM     19  C   UNL d   1      -6.761  11.000  -5.820 -0.15 +0.00    +0.052 C 
DOCKED: ATOM     20  C   UNL d   1      -9.143   8.635 -11.068 -0.10 -0.01    +0.066 A 
DOCKED: ATOM     21  C   UNL d   1     -10.025   7.840 -11.796 -0.05 +0.00    -0.025 A 
DOCKED: ATOM     22  C   UNL d   1      -9.754   8.075 -13.125 -0.16 +0.00    -0.021 A 
DOCKED: ATOM     23  C   UNL d   1      -8.700   8.993 -13.159 -0.15 -0.01    +0.066 A 
DOCKED: ATOM     24  C   UNL d   1     -11.070   6.902 -11.250 -0.10 -0.00    +0.051 C 
DOCKED: ATOM     25  N   UNL d   1      -6.372  10.845 -13.332 -0.08 +0.03    -0.248 N 
DOCKED: ATOM     26  N   UNL d   1      -5.370  11.912 -10.815 -0.10 +0.02    -0.248 N 
DOCKED: ATOM     27  N   UNL d   1      -7.287  10.376  -9.408 -0.06 +0.01    -0.248 N 
DOCKED: ATOM     28  N   UNL d   1      -8.302   9.297 -11.906 -0.09 +0.04    -0.248 N 
DOCKED: ATOM     29 FE   UNL d   1      -6.847  10.594 -11.362 -0.03 -0.00    +0.000 Fe
DOCKED: ATOM     30  O   UNL d   1      -5.499   9.933 -11.772 -0.36 -0.00    +0.000 OA
DOCKED: ATOM     31  O   UNL d   1      -6.466   9.185 -10.777 -0.33 -0.00    +0.000 OA
DOCKED: ENDROOT
DOCKED: BRANCH   6  32
DOCKED: ATOM     32  C   UNL d   1      -6.608  10.217 -16.989 -0.25 +0.00    +0.052 C 
DOCKED: BRANCH  32  33
DOCKED: ATOM     33  C   UNL d   1      -7.508  11.164 -17.776 -0.13 +0.01    +0.115 C 
DOCKED: BRANCH  33  34
DOCKED: ATOM     34  C   UNL d   1      -8.964  10.783 -17.685 -0.09 +0.01    +0.139 C 
DOCKED: ATOM     35  O   UNL d   1      -9.578  10.496 -18.700 -0.01 -0.05    -0.650 OA
DOCKED: BRANCH  34  36
DOCKED: ATOM     36  O   UNL d   1      -9.617  10.778 -16.504 +0.01 -0.03    -0.776 OA
DOCKED: ATOM     37  H   UNL d   1     -10.558  10.577 -16.441 +0.02 +0.01    +0.167 HD
DOCKED: ENDBRANCH  34  36
DOCKED: ENDBRANCH  33  34
DOCKED: ENDBRANCH  32  33
DOCKED: ENDBRANCH   6  32
DOCKED: BRANCH  22  38
DOCKED: ATOM     38  C   UNL d   1     -10.430   7.401 -14.291 -0.20 -0.00    +0.052 C 
DOCKED: BRANCH  38  39
DOCKED: ATOM     39  C   UNL d   1     -11.841   7.932 -14.532 -0.08 +0.00    +0.115 C 
DOCKED: BRANCH  39  40
DOCKED: ATOM     40  C   UNL d   1     -11.903   8.901 -15.687 -0.07 +0.00    +0.139 C 
DOCKED: ATOM     41  O   UNL d   1     -12.432   9.990 -15.536 +0.01 -0.01    -0.650 OA
DOCKED: BRANCH  40  42
DOCKED: ATOM     42  O   UNL d   1     -11.338   8.605 -16.873 +0.01 -0.05    -0.776 OA
DOCKED: ATOM     43  H   UNL d   1     -10.801   9.249 -17.350 +0.02 +0.01    +0.167 HD
DOCKED: ENDBRANCH  40  42
DOCKED: ENDBRANCH  39  40
DOCKED: ENDBRANCH  38  39
DOCKED: ENDBRANCH  22  38
DOCKED: BRANCH  12  44
DOCKED: ATOM     44  C   UNL d   1      -3.448  14.304  -8.603 -0.27 +0.00    +0.004 C 
DOCKED: ATOM     45  C   UNL d   1      -3.569  14.219  -7.279 -0.27 +0.00    +0.012 C 
DOCKED: ENDBRANCH  12  44
DOCKED: BRANCH  17  46
DOCKED: ATOM     46  C   UNL d   1      -9.089   8.712  -6.621 -0.11 -0.00    +0.004 C 
DOCKED: ATOM     47  C   UNL d   1      -9.056   7.377  -6.516 -0.16 -0.00    +0.012 C 
DOCKED: ENDBRANCH  17  46
DOCKED: TORSDOF 10
DOCKED: TER
DOCKED: ENDMDL
________________________________________________________________________________


	BEGINNING GENETIC ALGORITHM DOCKING 6 of 100
Run: 6 Seed: 1763713436 415503604 [ Run 6 of 100 GA/GALS ]
Beginning LAMARCKIAN GENETIC ALGORITHM (LGA), with a maximum of 25000000 energy evaluations.

Final-Value: -9.001


	FINAL GENETIC ALGORITHM DOCKED STATE
	_______________________________________________


Detailed state:  trans -4.891 16.860 -19.773 quatxyzw -0.333457 0.633592 -0.254657 0.650013 center 8.287 34.468 -0.670 ntor 10 -74.5326 -8.1102 33.5737 -109.2471 -124.3111 -171.4925 -128.6242 127.5396 -23.1270 40.5184
State:	 -4.891  16.860 -19.773  -0.439  0.834 -0.335 98.915    -74.53   -8.11   33.57 -109.25 -124.31 -171.49 -128.62  127.54  -23.13   40.52

DOCKED: MODEL        6
DOCKED: USER    Run = 6
DOCKED: USER    DPF = D:/Protein_go_brrr/autodock/final/mut_N102T/heme_O2/dock.dpf
DOCKED: USER  
DOCKED: USER    Estimated Free Energy of Binding    =   -4.28 kcal/mol  [=(1)+(2)+(3)-(4)]
DOCKED: USER    Estimated Inhibition Constant, Ki   =  723.10 uM (micromolar)  [Temperature = 298.15 K]
DOCKED: USER    
DOCKED: USER    (1) Final Intermolecular Energy     =   -7.27 kcal/mol
DOCKED: USER        vdW + Hbond + desolv Energy     =   -4.88 kcal/mol
DOCKED: USER        Electrostatic Energy            =   -2.38 kcal/mol
DOCKED: USER    (2) Final Total Internal Energy     =   -1.73 kcal/mol
DOCKED: USER    (3) Torsional Free Energy           =   +2.98 kcal/mol
DOCKED: USER    (4) Unbound System's Energy  [=(2)] =   -1.73 kcal/mol
DOCKED: USER    
DOCKED: USER    
DOCKED: USER    NEWDPF move heme_O2_opt.pdbqt
DOCKED: USER    NEWDPF about 8.287000 34.468000 -0.670000
DOCKED: USER    NEWDPF tran0 -4.890740 16.860224 -19.772882
DOCKED: USER    NEWDPF quaternion0 -0.333457 0.633592 -0.254657 0.650013
DOCKED: USER    NEWDPF axisangle0 -0.438804 0.833758 -0.335109 98.914878
DOCKED: USER    NEWDPF quat0 -0.438804 0.833758 -0.335109 98.914878
DOCKED: USER    NEWDPF dihe0 -74.53 -8.11 33.57 -109.25 -124.31 -171.49 -128.62 127.54 -23.13 40.52 
DOCKED: USER  keepresnum = 1 
DOCKED: USER  
DOCKED: REMARK  10 active torsions:
DOCKED: REMARK  status: ('A' for Active; 'I' for Inactive)
DOCKED: REMARK    1  A    between atoms: C_6  and  C_10 
DOCKED: REMARK    2  A    between atoms: C_10  and  C_11 
DOCKED: REMARK    3  A    between atoms: C_11  and  C_12 
DOCKED: REMARK    4  A    between atoms: C_12  and  O_14 
DOCKED: REMARK    5  A    between atoms: C_17  and  C_20 
DOCKED: REMARK    6  A    between atoms: C_24  and  C_27 
DOCKED: REMARK    7  A    between atoms: C_31  and  C_34 
DOCKED: REMARK    8  A    between atoms: C_34  and  C_35 
DOCKED: REMARK    9  A    between atoms: C_35  and  C_36 
DOCKED: REMARK   10  A    between atoms: C_36  and  O_38 
DOCKED: USER                              x       y       z     vdW  Elec       q    Type
DOCKED: USER                           _______ _______ _______ _____ _____    ______ ____
DOCKED: ROOT
DOCKED: ATOM      1  C   UNL d   1      -4.947  18.026 -21.544 -0.07 +0.05    +0.064 A 
DOCKED: ATOM      2  C   UNL d   1      -5.237  13.349 -20.772 -0.10 +0.01    +0.064 A 
DOCKED: ATOM      3  C   UNL d   1      -4.722  14.004 -16.039 -0.22 +0.01    +0.064 C 
DOCKED: ATOM      4  C   UNL d   1      -4.902  18.851 -16.774 -0.05 +0.02    +0.064 A 
DOCKED: ATOM      5  C   UNL d   1      -5.070  16.701 -21.720 -0.08 +0.04    +0.066 A 
DOCKED: ATOM      6  C   UNL d   1      -5.216  16.087 -22.967 -0.05 -0.01    -0.021 A 
DOCKED: ATOM      7  C   UNL d   1      -5.343  14.736 -22.742 -0.04 -0.01    -0.025 A 
DOCKED: ATOM      8  C   UNL d   1      -5.223  14.557 -21.366 -0.09 +0.02    +0.066 A 
DOCKED: ATOM      9  C   UNL d   1      -5.597  13.700 -23.815 -0.02 +0.01    +0.051 C 
DOCKED: ATOM     10  C   UNL d   1      -5.093  13.097 -19.338 -0.16 +0.01    +0.066 A 
DOCKED: ATOM     11  C   UNL d   1      -4.950  11.816 -18.792 -0.26 -0.00    -0.021 A 
DOCKED: ATOM     12  C   UNL d   1      -4.782  11.985 -17.430 -0.29 +0.00    +0.000 A 
DOCKED: ATOM     13  C   UNL d   1      -4.846  13.390 -17.216 -0.19 +0.01    +0.070 A 
DOCKED: ATOM     14  C   UNL d   1      -4.946  10.489 -19.542 -0.28 +0.00    +0.052 C 
DOCKED: ATOM     15  C   UNL d   1      -4.816  15.420 -15.776 -0.12 +0.01    +0.066 A 
DOCKED: ATOM     16  C   UNL d   1      -4.841  15.987 -14.502 -0.07 -0.00    -0.021 A 
DOCKED: ATOM     17  C   UNL d   1      -4.894  17.368 -14.686 -0.04 +0.00    +0.000 A 
DOCKED: ATOM     18  C   UNL d   1      -4.893  17.543 -16.077 -0.06 +0.02    +0.070 A 
DOCKED: ATOM     19  C   UNL d   1      -4.870  15.166 -13.237 -0.08 +0.00    +0.052 C 
DOCKED: ATOM     20  C   UNL d   1      -4.946  19.054 -18.105 -0.06 +0.04    +0.066 A 
DOCKED: ATOM     21  C   UNL d   1      -4.934  20.311 -18.703 -0.05 -0.01    -0.025 A 
DOCKED: ATOM     22  C   UNL d   1      -4.919  20.095 -20.063 -0.05 -0.01    -0.021 A 
DOCKED: ATOM     23  C   UNL d   1      -4.941  18.708 -20.244 -0.05 +0.06    +0.066 A 
DOCKED: ATOM     24  C   UNL d   1      -4.941  21.650 -18.013 -0.01 +0.01    +0.051 C 
DOCKED: ATOM     25  N   UNL d   1      -5.121  15.774 -20.732 -0.09 -0.14    -0.248 N 
DOCKED: ATOM     26  N   UNL d   1      -5.040  14.058 -18.381 -0.12 -0.07    -0.248 N 
DOCKED: ATOM     27  N   UNL d   1      -4.922  16.349 -16.722 -0.08 -0.08    -0.248 N 
DOCKED: ATOM     28  N   UNL d   1      -5.003  18.081 -19.052 -0.04 -0.19    -0.248 N 
DOCKED: ATOM     29 FE   UNL d   1      -5.021  16.085 -18.716 -0.03 +0.00    +0.000 Fe
DOCKED: ATOM     30  O   UNL d   1      -6.408  15.574 -19.206 -0.07 +0.00    +0.000 OA
DOCKED: ATOM     31  O   UNL d   1      -6.333  16.681 -18.087 -0.06 +0.00    +0.000 OA
DOCKED: ENDROOT
DOCKED: BRANCH   6  32
DOCKED: ATOM     32  C   UNL d   1      -5.369  16.752 -24.311 -0.01 +0.01    +0.052 C 
DOCKED: BRANCH  32  33
DOCKED: ATOM     33  C   UNL d   1      -4.171  17.622 -24.681 -0.02 +0.04    +0.115 C 
DOCKED: BRANCH  33  34
DOCKED: ATOM     34  C   UNL d   1      -2.858  16.903 -24.494 -0.04 +0.07    +0.139 C 
DOCKED: ATOM     35  O   UNL d   1      -2.432  16.184 -25.383 +0.01 -0.19    -0.650 OA
DOCKED: BRANCH  34  36
DOCKED: ATOM     36  O   UNL d   1      -2.152  17.014 -23.349 -0.60 -0.93    -0.776 OA
DOCKED: ATOM     37  H   UNL d   1      -1.658  17.812 -23.129 +0.01 +0.28    +0.167 HD
DOCKED: ENDBRANCH  34  36
DOCKED: ENDBRANCH  33  34
DOCKED: ENDBRANCH  32  33
DOCKED: ENDBRANCH   6  32
DOCKED: BRANCH  22  38
DOCKED: ATOM     38  C   UNL d   1      -4.948  21.165 -21.123 -0.03 +0.02    +0.052 C 
DOCKED: BRANCH  38  39
DOCKED: ATOM     39  C   UNL d   1      -4.072  20.818 -22.325 -0.03 +0.06    +0.115 C 
DOCKED: BRANCH  39  40
DOCKED: ATOM     40  C   UNL d   1      -2.656  20.482 -21.928 +0.04 +0.16    +0.139 C 
DOCKED: ATOM     41  O   UNL d   1      -2.185  20.954 -20.906 -0.27 -0.83    -0.650 OA
DOCKED: BRANCH  40  42
DOCKED: ATOM     42  O   UNL d   1      -1.914  19.626 -22.657 +0.03 -1.07    -0.776 OA
DOCKED: ATOM     43  H   UNL d   1      -2.288  19.146 -23.406 +0.00 +0.17    +0.167 HD
DOCKED: ENDBRANCH  40  42
DOCKED: ENDBRANCH  39  40
DOCKED: ENDBRANCH  38  39
DOCKED: ENDBRANCH  22  38
DOCKED: BRANCH  12  44
DOCKED: ATOM     44  C   UNL d   1      -4.586  10.812 -16.493 -0.51 -0.00    +0.004 C 
DOCKED: ATOM     45  C   UNL d   1      -4.930  10.724 -15.208 -0.42 -0.00    +0.012 C 
DOCKED: ENDBRANCH  12  44
DOCKED: BRANCH  17  46
DOCKED: ATOM     46  C   UNL d   1      -4.999  18.495 -13.693 -0.02 +0.00    +0.004 C 
DOCKED: ATOM     47  C   UNL d   1      -5.996  19.376 -13.542 -0.00 +0.00    +0.012 C 
DOCKED: ENDBRANCH  17  46
DOCKED: TORSDOF 10
DOCKED: TER
DOCKED: ENDMDL
________________________________________________________________________________


	BEGINNING GENETIC ALGORITHM DOCKING 7 of 100
Run: 7 Seed: 387155178 1330068401 [ Run 7 of 100 GA/GALS ]
Beginning LAMARCKIAN GENETIC ALGORITHM (LGA), with a maximum of 25000000 energy evaluations.

Final-Value: -9.753


	FINAL GENETIC ALGORITHM DOCKED STATE
	_______________________________________________


Detailed state:  trans 14.376 -3.791 6.971 quatxyzw -0.497922 -0.734932 0.096330 0.450188 center 8.287 34.468 -0.670 ntor 10 149.7366 40.2910 6.7475 -126.6908 -113.5310 133.8834 122.8249 161.2247 11.4229 13.2042
State:	 14.376  -3.791   6.971  -0.558 -0.823  0.108 126.489    149.74   40.29    6.75 -126.69 -113.53  133.88  122.82  161.22   11.42   13.20

DOCKED: MODEL        7
DOCKED: USER    Run = 7
DOCKED: USER    DPF = D:/Protein_go_brrr/autodock/final/mut_N102T/heme_O2/dock.dpf
DOCKED: USER  
DOCKED: USER    Estimated Free Energy of Binding    =   -4.49 kcal/mol  [=(1)+(2)+(3)-(4)]
DOCKED: USER    Estimated Inhibition Constant, Ki   =  513.43 uM (micromolar)  [Temperature = 298.15 K]
DOCKED: USER    
DOCKED: USER    (1) Final Intermolecular Energy     =   -7.47 kcal/mol
DOCKED: USER        vdW + Hbond + desolv Energy     =   -4.56 kcal/mol
DOCKED: USER        Electrostatic Energy            =   -2.91 kcal/mol
DOCKED: USER    (2) Final Total Internal Energy     =   -2.28 kcal/mol
DOCKED: USER    (3) Torsional Free Energy           =   +2.98 kcal/mol
DOCKED: USER    (4) Unbound System's Energy  [=(2)] =   -2.28 kcal/mol
DOCKED: USER    
DOCKED: USER    
DOCKED: USER    NEWDPF move heme_O2_opt.pdbqt
DOCKED: USER    NEWDPF about 8.287000 34.468000 -0.670000
DOCKED: USER    NEWDPF tran0 14.375502 -3.791091 6.971349
DOCKED: USER    NEWDPF quaternion0 -0.497922 -0.734932 0.096330 0.450188
DOCKED: USER    NEWDPF axisangle0 -0.557624 -0.823053 0.107880 126.488531
DOCKED: USER    NEWDPF quat0 -0.557624 -0.823053 0.107880 126.488531
DOCKED: USER    NEWDPF dihe0 149.74 40.29 6.75 -126.69 -113.53 133.88 122.82 161.22 11.42 13.20 
DOCKED: USER  keepresnum = 1 
DOCKED: USER  
DOCKED: REMARK  10 active torsions:
DOCKED: REMARK  status: ('A' for Active; 'I' for Inactive)
DOCKED: REMARK    1  A    between atoms: C_6  and  C_10 
DOCKED: REMARK    2  A    between atoms: C_10  and  C_11 
DOCKED: REMARK    3  A    between atoms: C_11  and  C_12 
DOCKED: REMARK    4  A    between atoms: C_12  and  O_14 
DOCKED: REMARK    5  A    between atoms: C_17  and  C_20 
DOCKED: REMARK    6  A    between atoms: C_24  and  C_27 
DOCKED: REMARK    7  A    between atoms: C_31  and  C_34 
DOCKED: REMARK    8  A    between atoms: C_34  and  C_35 
DOCKED: REMARK    9  A    between atoms: C_35  and  C_36 
DOCKED: REMARK   10  A    between atoms: C_36  and  O_38 
DOCKED: USER                              x       y       z     vdW  Elec       q    Type
DOCKED: USER                           _______ _______ _______ _____ _____    ______ ____
DOCKED: ROOT
DOCKED: ATOM      1  C   UNL d   1      14.600  -4.233   9.034 -0.07 +0.06    +0.064 A 
DOCKED: ATOM      2  C   UNL d   1      14.349  -6.986   5.171 -0.04 +0.02    +0.064 A 
DOCKED: ATOM      3  C   UNL d   1      13.808  -3.135   2.348 -0.23 +0.01    +0.064 C 
DOCKED: ATOM      4  C   UNL d   1      14.544  -0.266   6.259 -0.19 +0.02    +0.064 A 
DOCKED: ATOM      5  C   UNL d   1      14.578  -5.296   8.213 -0.07 +0.06    +0.066 A 
DOCKED: ATOM      6  C   UNL d   1      14.682  -6.621   8.646 -0.05 -0.01    -0.021 A 
DOCKED: ATOM      7  C   UNL d   1      14.653  -7.417   7.525 -0.04 -0.01    -0.025 A 
DOCKED: ATOM      8  C   UNL d   1      14.484  -6.559   6.442 -0.06 +0.03    +0.066 A 
DOCKED: ATOM      9  C   UNL d   1      14.813  -8.922   7.527 -0.01 +0.01    +0.051 C 
DOCKED: ATOM     10  C   UNL d   1      14.147  -6.136   3.998 -0.06 +0.01    +0.066 A 
DOCKED: ATOM     11  C   UNL d   1      13.850  -6.638   2.726 -0.05 +0.00    -0.021 A 
DOCKED: ATOM     12  C   UNL d   1      13.672  -5.542   1.901 -0.11 -0.00    +0.000 A 
DOCKED: ATOM     13  C   UNL d   1      13.888  -4.408   2.733 -0.13 +0.01    +0.070 A 
DOCKED: ATOM     14  C   UNL d   1      13.714  -8.101   2.320 -0.04 -0.01    +0.052 C 
DOCKED: ATOM     15  C   UNL d   1      14.053  -1.960   3.150 -0.19 +0.01    +0.066 A 
DOCKED: ATOM     16  C   UNL d   1      14.114  -0.660   2.650 -0.29 -0.00    -0.021 A 
DOCKED: ATOM     17  C   UNL d   1      14.324   0.175   3.747 -0.31 +0.00    +0.000 A 
DOCKED: ATOM     18  C   UNL d   1      14.374  -0.689   4.849 -0.14 +0.02    +0.070 A 
DOCKED: ATOM     19  C   UNL d   1      14.023  -0.340   1.179 -0.36 +0.01    +0.052 C 
DOCKED: ATOM     20  C   UNL d   1      14.639  -1.071   7.335 -0.14 +0.03    +0.066 A 
DOCKED: ATOM     21  C   UNL d   1      14.780  -0.614   8.642 -0.08 -0.01    -0.025 A 
DOCKED: ATOM     22  C   UNL d   1      14.771  -1.729   9.449 -0.07 -0.01    -0.021 A 
DOCKED: ATOM     23  C   UNL d   1      14.642  -2.832   8.599 -0.09 +0.05    +0.066 A 
DOCKED: ATOM     24  C   UNL d   1      14.921   0.816   9.098 -0.09 +0.01    +0.051 C 
DOCKED: ATOM     25  N   UNL d   1      14.503  -5.249   6.861 -0.06 -0.19    -0.248 N 
DOCKED: ATOM     26  N   UNL d   1      14.180  -4.779   4.006 -0.07 -0.07    -0.248 N 
DOCKED: ATOM     27  N   UNL d   1      14.283  -1.987   4.460 -0.08 -0.08    -0.248 N 
DOCKED: ATOM     28  N   UNL d   1      14.607  -2.430   7.312 -0.10 -0.17    -0.248 N 
DOCKED: ATOM     29 FE   UNL d   1      14.396  -3.594   5.669 -0.03 +0.00    +0.000 Fe
DOCKED: ATOM     30  O   UNL d   1      15.727  -4.387   5.524 -0.07 +0.00    +0.000 OA
DOCKED: ATOM     31  O   UNL d   1      15.752  -2.812   5.522 -0.09 +0.00    +0.000 OA
DOCKED: ENDROOT
DOCKED: BRANCH   6  32
DOCKED: ATOM     32  C   UNL d   1      14.937  -7.118  10.046 -0.02 +0.02    +0.052 C 
DOCKED: BRANCH  32  33
DOCKED: ATOM     33  C   UNL d   1      13.654  -7.469  10.793 -0.02 +0.05    +0.115 C 
DOCKED: BRANCH  33  34
DOCKED: ATOM     34  C   UNL d   1      12.720  -6.291  10.917 -0.06 +0.11    +0.139 C 
DOCKED: ATOM     35  O   UNL d   1      11.821  -6.146  10.104 -0.10 -1.00    -0.650 OA
DOCKED: BRANCH  34  36
DOCKED: ATOM     36  O   UNL d   1      12.871  -5.374  11.894 +0.02 -0.45    -0.776 OA
DOCKED: ATOM     37  H   UNL d   1      12.610  -4.453  11.775 +0.01 +0.12    +0.167 HD
DOCKED: ENDBRANCH  34  36
DOCKED: ENDBRANCH  33  34
DOCKED: ENDBRANCH  32  33
DOCKED: ENDBRANCH   6  32
DOCKED: BRANCH  22  38
DOCKED: ATOM     38  C   UNL d   1      14.942  -1.732  10.946 -0.02 +0.02    +0.052 C 
DOCKED: BRANCH  38  39
DOCKED: ATOM     39  C   UNL d   1      13.691  -2.219  11.674 -0.03 +0.05    +0.115 C 
DOCKED: BRANCH  39  40
DOCKED: ATOM     40  C   UNL d   1      12.453  -2.126  10.817 -0.10 +0.12    +0.139 C 
DOCKED: ATOM     41  O   UNL d   1      11.869  -1.060  10.710 -0.00 -0.41    -0.650 OA
DOCKED: BRANCH  40  42
DOCKED: ATOM     42  O   UNL d   1      12.006  -3.191  10.124 +0.19 -1.63    -0.776 OA
DOCKED: ATOM     43  H   UNL d   1      11.979  -4.073  10.514 +0.02 +0.32    +0.167 HD
DOCKED: ENDBRANCH  40  42
DOCKED: ENDBRANCH  39  40
DOCKED: ENDBRANCH  38  39
DOCKED: ENDBRANCH  22  38
DOCKED: BRANCH  12  44
DOCKED: ATOM     44  C   UNL d   1      13.326  -5.688   0.434 -0.21 -0.00    +0.004 C 
DOCKED: ATOM     45  C   UNL d   1      13.173  -4.721  -0.470 -0.28 -0.01    +0.012 C 
DOCKED: ENDBRANCH  12  44
DOCKED: BRANCH  17  46
DOCKED: ATOM     46  C   UNL d   1      14.533   1.664   3.830 -0.27 +0.00    +0.004 C 
DOCKED: ATOM     47  C   UNL d   1      15.460   2.333   4.526 -0.28 +0.00    +0.012 C 
DOCKED: ENDBRANCH  17  46
DOCKED: TORSDOF 10
DOCKED: TER
DOCKED: ENDMDL
________________________________________________________________________________


	BEGINNING GENETIC ALGORITHM DOCKING 8 of 100
Run: 8 Seed: 2069528181 2020708492 [ Run 8 of 100 GA/GALS ]
Beginning LAMARCKIAN GENETIC ALGORITHM (LGA), with a maximum of 25000000 energy evaluations.

Final-Value: -10.493


	FINAL GENETIC ALGORITHM DOCKED STATE
	_______________________________________________


Detailed state:  trans -8.204 -14.832 -7.954 quatxyzw 0.547177 0.735758 -0.208390 -0.340340 center 8.287 34.468 -0.670 ntor 10 130.6787 -76.4464 50.9608 -124.6730 -128.6912 137.5964 97.9828 -99.5607 -120.5985 151.1227
State:	 -8.204 -14.832  -7.954   0.582  0.782 -0.222 -140.205    130.68  -76.45   50.96 -124.67 -128.69  137.60   97.98  -99.56 -120.60  151.12

DOCKED: MODEL        8
DOCKED: USER    Run = 8
DOCKED: USER    DPF = D:/Protein_go_brrr/autodock/final/mut_N102T/heme_O2/dock.dpf
DOCKED: USER  
DOCKED: USER    Estimated Free Energy of Binding    =   -6.86 kcal/mol  [=(1)+(2)+(3)-(4)]
DOCKED: USER    Estimated Inhibition Constant, Ki   =    9.42 uM (micromolar)  [Temperature = 298.15 K]
DOCKED: USER    
DOCKED: USER    (1) Final Intermolecular Energy     =   -9.84 kcal/mol
DOCKED: USER        vdW + Hbond + desolv Energy     =   -6.77 kcal/mol
DOCKED: USER        Electrostatic Energy            =   -3.07 kcal/mol
DOCKED: USER    (2) Final Total Internal Energy     =   -0.65 kcal/mol
DOCKED: USER    (3) Torsional Free Energy           =   +2.98 kcal/mol
DOCKED: USER    (4) Unbound System's Energy  [=(2)] =   -0.65 kcal/mol
DOCKED: USER    
DOCKED: USER    
DOCKED: USER    NEWDPF move heme_O2_opt.pdbqt
DOCKED: USER    NEWDPF about 8.287000 34.468000 -0.670000
DOCKED: USER    NEWDPF tran0 -8.204028 -14.831991 -7.954452
DOCKED: USER    NEWDPF quaternion0 0.547177 0.735758 -0.208390 -0.340340
DOCKED: USER    NEWDPF axisangle0 0.581916 0.782470 -0.221620 -140.204868
DOCKED: USER    NEWDPF quat0 0.581916 0.782470 -0.221620 -140.204868
DOCKED: USER    NEWDPF dihe0 130.68 -76.45 50.96 -124.67 -128.69 137.60 97.98 -99.56 -120.60 151.12 
DOCKED: USER  keepresnum = 1 
DOCKED: USER  
DOCKED: REMARK  10 active torsions:
DOCKED: REMARK  status: ('A' for Active; 'I' for Inactive)
DOCKED: REMARK    1  A    between atoms: C_6  and  C_10 
DOCKED: REMARK    2  A    between atoms: C_10  and  C_11 
DOCKED: REMARK    3  A    between atoms: C_11  and  C_12 
DOCKED: REMARK    4  A    between atoms: C_12  and  O_14 
DOCKED: REMARK    5  A    between atoms: C_17  and  C_20 
DOCKED: REMARK    6  A    between atoms: C_24  and  C_27 
DOCKED: REMARK    7  A    between atoms: C_31  and  C_34 
DOCKED: REMARK    8  A    between atoms: C_34  and  C_35 
DOCKED: REMARK    9  A    between atoms: C_35  and  C_36 
DOCKED: REMARK   10  A    between atoms: C_36  and  O_38 
DOCKED: USER                              x       y       z     vdW  Elec       q    Type
DOCKED: USER                           _______ _______ _______ _____ _____    ______ ____
DOCKED: ROOT
DOCKED: ATOM      1  C   UNL d   1      -7.535 -15.340  -6.007 -0.07 +0.07    +0.064 A 
DOCKED: ATOM      2  C   UNL d   1      -9.306 -17.935  -9.569 -0.03 +0.02    +0.064 A 
DOCKED: ATOM      3  C   UNL d   1      -9.827 -14.010 -12.292 -0.11 +0.01    +0.064 C 
DOCKED: ATOM      4  C   UNL d   1      -7.563 -11.395  -8.813 -0.17 +0.02    +0.064 A 
DOCKED: ATOM      5  C   UNL d   1      -7.972 -16.366  -6.754 -0.06 +0.05    +0.066 A 
DOCKED: ATOM      6  C   UNL d   1      -8.012 -17.693  -6.315 -0.03 -0.01    -0.021 A 
DOCKED: ATOM      7  C   UNL d   1      -8.484 -18.451  -7.361 -0.01 -0.01    -0.025 A 
DOCKED: ATOM      8  C   UNL d   1      -8.765 -17.561  -8.393 -0.03 +0.03    +0.066 A 
DOCKED: ATOM      9  C   UNL d   1      -8.617 -19.959  -7.346 +0.00 +0.01    +0.051 C 
DOCKED: ATOM     10  C   UNL d   1      -9.644 -17.044 -10.680 -0.06 +0.01    +0.066 A 
DOCKED: ATOM     11  C   UNL d   1     -10.353 -17.461 -11.812 -0.04 -0.00    -0.021 A 
DOCKED: ATOM     12  C   UNL d   1     -10.529 -16.339 -12.601 -0.06 +0.00    +0.000 A 
DOCKED: ATOM     13  C   UNL d   1      -9.892 -15.281 -11.895 -0.09 +0.01    +0.070 A 
DOCKED: ATOM     14  C   UNL d   1     -10.865 -18.864 -12.115 -0.01 +0.00    +0.052 C 
DOCKED: ATOM     15  C   UNL d   1      -9.162 -12.917 -11.625 -0.02 +0.01    +0.066 A 
DOCKED: ATOM     16  C   UNL d   1      -8.989 -11.645 -12.171 -0.16 -0.01    -0.021 A 
DOCKED: ATOM     17  C   UNL d   1      -8.345 -10.882 -11.197 -0.25 +0.00    +0.000 A 
DOCKED: ATOM     18  C   UNL d   1      -8.173 -11.757 -10.114 -0.21 +0.02    +0.070 A 
DOCKED: ATOM     19  C   UNL d   1      -9.399 -11.291 -13.578 -0.17 +0.01    +0.052 C 
DOCKED: ATOM     20  C   UNL d   1      -7.344 -12.219  -7.770 -0.04 +0.03    +0.066 A 
DOCKED: ATOM     21  C   UNL d   1      -6.781 -11.817  -6.562 -0.26 -0.02    -0.025 A 
DOCKED: ATOM     22  C   UNL d   1      -6.790 -12.922  -5.741 -0.21 -0.02    -0.021 A 
DOCKED: ATOM     23  C   UNL d   1      -7.344 -13.966  -6.487 -0.11 +0.07    +0.066 A 
DOCKED: ATOM     24  C   UNL d   1      -6.258 -10.449  -6.211 -0.33 +0.03    +0.051 C 
DOCKED: ATOM     25  N   UNL d   1      -8.388 -16.285  -8.042 -0.04 -0.15    -0.248 N 
DOCKED: ATOM     26  N   UNL d   1      -9.352 -15.719 -10.730 -0.07 -0.06    -0.248 N 
DOCKED: ATOM     27  N   UNL d   1      -8.607 -13.006 -10.419 -0.09 -0.07    -0.248 N 
DOCKED: ATOM     28  N   UNL d   1      -7.638 -13.546  -7.735 -0.09 -0.18    -0.248 N 
DOCKED: ATOM     29 FE   UNL d   1      -8.488 -14.623  -9.223 -0.03 +0.00    +0.000 Fe
DOCKED: ATOM     30  O   UNL d   1      -7.417 -15.655  -9.681 -0.46 +0.00    +0.000 OA
DOCKED: ATOM     31  O   UNL d   1      -7.095 -14.114  -9.746 +0.17 +0.00    +0.000 OA
DOCKED: ENDROOT
DOCKED: BRANCH   6  32
DOCKED: ATOM     32  C   UNL d   1      -7.499 -18.250  -5.013 -0.04 +0.04    +0.052 C 
DOCKED: BRANCH  32  33
DOCKED: ATOM     33  C   UNL d   1      -6.212 -17.576  -4.546 -0.09 +0.17    +0.115 C 
DOCKED: BRANCH  33  34
DOCKED: ATOM     34  C   UNL d   1      -4.984 -18.180  -5.180 -0.12 +0.21    +0.139 C 
DOCKED: ATOM     35  O   UNL d   1      -4.667 -17.853  -6.313 -0.41 -1.07    -0.650 OA
DOCKED: BRANCH  34  36
DOCKED: ATOM     36  O   UNL d   1      -4.238 -19.099  -4.533 -0.32 -1.20    -0.776 OA
DOCKED: ATOM     37  H   UNL d   1      -3.972 -19.927  -4.950 +0.03 +0.16    +0.167 HD
DOCKED: ENDBRANCH  34  36
DOCKED: ENDBRANCH  33  34
DOCKED: ENDBRANCH  32  33
DOCKED: ENDBRANCH   6  32
DOCKED: BRANCH  22  38
DOCKED: ATOM     38  C   UNL d   1      -6.237 -12.980  -4.341 -0.23 +0.05    +0.052 C 
DOCKED: BRANCH  38  39
DOCKED: ATOM     39  C   UNL d   1      -4.931 -13.768  -4.263 -0.29 +0.16    +0.115 C 
DOCKED: BRANCH  39  40
DOCKED: ATOM     40  C   UNL d   1      -3.742 -12.961  -4.721 -0.38 +0.17    +0.139 C 
DOCKED: ATOM     41  O   UNL d   1      -3.544 -12.798  -5.914 -0.44 -1.23    -0.650 OA
DOCKED: BRANCH  40  42
DOCKED: ATOM     42  O   UNL d   1      -2.919 -12.370  -3.833 +0.09 -0.44    -0.776 OA
DOCKED: ATOM     43  H   UNL d   1      -3.186 -11.582  -3.344 -0.48 +0.03    +0.167 HD
DOCKED: ENDBRANCH  40  42
DOCKED: ENDBRANCH  39  40
DOCKED: ENDBRANCH  38  39
DOCKED: ENDBRANCH  22  38
DOCKED: BRANCH  12  44
DOCKED: ATOM     44  C   UNL d   1     -11.268 -16.393 -13.922 -0.03 +0.00    +0.004 C 
DOCKED: ATOM     45  C   UNL d   1     -10.899 -15.866 -15.088 -0.04 +0.00    +0.012 C 
DOCKED: ENDBRANCH  12  44
DOCKED: BRANCH  17  46
DOCKED: ATOM     46  C   UNL d   1      -7.843  -9.463 -11.225 -0.38 +0.00    +0.004 C 
DOCKED: ATOM     47  C   UNL d   1      -6.643  -9.001 -10.852 -0.49 +0.00    +0.012 C 
DOCKED: ENDBRANCH  17  46
DOCKED: TORSDOF 10
DOCKED: TER
DOCKED: ENDMDL
________________________________________________________________________________


	BEGINNING GENETIC ALGORITHM DOCKING 9 of 100
Run: 9 Seed: 95451570 803782853 [ Run 9 of 100 GA/GALS ]
Beginning LAMARCKIAN GENETIC ALGORITHM (LGA), with a maximum of 25000000 energy evaluations.

Final-Value: -9.305


	FINAL GENETIC ALGORITHM DOCKED STATE
	_______________________________________________


Detailed state:  trans -11.420 2.111 11.281 quatxyzw -0.562390 0.232328 0.710556 -0.353342 center 8.287 34.468 -0.670 ntor 10 -0.2257 -11.1668 -27.3584 -111.5048 176.5762 -14.5118 -56.6784 143.3460 -137.6895 -169.3984
State:	-11.420   2.111  11.281  -0.601  0.248  0.760 -138.616     -0.23  -11.17  -27.36 -111.50  176.58  -14.51  -56.68  143.35 -137.69 -169.40

DOCKED: MODEL        9
DOCKED: USER    Run = 9
DOCKED: USER    DPF = D:/Protein_go_brrr/autodock/final/mut_N102T/heme_O2/dock.dpf
DOCKED: USER  
DOCKED: USER    Estimated Free Energy of Binding    =   -4.34 kcal/mol  [=(1)+(2)+(3)-(4)]
DOCKED: USER    Estimated Inhibition Constant, Ki   =  656.23 uM (micromolar)  [Temperature = 298.15 K]
DOCKED: USER    
DOCKED: USER    (1) Final Intermolecular Energy     =   -7.33 kcal/mol
DOCKED: USER        vdW + Hbond + desolv Energy     =   -6.95 kcal/mol
DOCKED: USER        Electrostatic Energy            =   -0.38 kcal/mol
DOCKED: USER    (2) Final Total Internal Energy     =   -1.98 kcal/mol
DOCKED: USER    (3) Torsional Free Energy           =   +2.98 kcal/mol
DOCKED: USER    (4) Unbound System's Energy  [=(2)] =   -1.98 kcal/mol
DOCKED: USER    
DOCKED: USER    
DOCKED: USER    NEWDPF move heme_O2_opt.pdbqt
DOCKED: USER    NEWDPF about 8.287000 34.468000 -0.670000
DOCKED: USER    NEWDPF tran0 -11.419536 2.110543 11.281470
DOCKED: USER    NEWDPF quaternion0 -0.562390 0.232328 0.710556 -0.353342
DOCKED: USER    NEWDPF axisangle0 -0.601169 0.248348 0.759552 -138.616296
DOCKED: USER    NEWDPF quat0 -0.601169 0.248348 0.759552 -138.616296
DOCKED: USER    NEWDPF dihe0 -0.23 -11.17 -27.36 -111.50 176.58 -14.51 -56.68 143.35 -137.69 -169.40 
DOCKED: USER  keepresnum = 1 
DOCKED: USER  
DOCKED: REMARK  10 active torsions:
DOCKED: REMARK  status: ('A' for Active; 'I' for Inactive)
DOCKED: REMARK    1  A    between atoms: C_6  and  C_10 
DOCKED: REMARK    2  A    between atoms: C_10  and  C_11 
DOCKED: REMARK    3  A    between atoms: C_11  and  C_12 
DOCKED: REMARK    4  A    between atoms: C_12  and  O_14 
DOCKED: REMARK    5  A    between atoms: C_17  and  C_20 
DOCKED: REMARK    6  A    between atoms: C_24  and  C_27 
DOCKED: REMARK    7  A    between atoms: C_31  and  C_34 
DOCKED: REMARK    8  A    between atoms: C_34  and  C_35 
DOCKED: REMARK    9  A    between atoms: C_35  and  C_36 
DOCKED: REMARK   10  A    between atoms: C_36  and  O_38 
DOCKED: USER                              x       y       z     vdW  Elec       q    Type
DOCKED: USER                           _______ _______ _______ _____ _____    ______ ____
DOCKED: ROOT
DOCKED: ATOM      1  C   UNL d   1     -11.151   0.691  12.835 -0.24 +0.00    +0.064 A 
DOCKED: ATOM      2  C   UNL d   1     -11.561   5.423  12.848 -0.14 +0.00    +0.064 A 
DOCKED: ATOM      3  C   UNL d   1     -11.936   5.497   8.058 -0.26 -0.00    +0.064 C 
DOCKED: ATOM      4  C   UNL d   1     -11.994   0.591   8.069 -0.23 -0.02    +0.064 A 
DOCKED: ATOM      5  C   UNL d   1     -11.234   1.972  13.230 -0.21 +0.00    +0.066 A 
DOCKED: ATOM      6  C   UNL d   1     -11.143   2.389  14.561 -0.17 -0.00    -0.021 A 
DOCKED: ATOM      7  C   UNL d   1     -11.306   3.754  14.570 -0.14 -0.00    -0.025 A 
DOCKED: ATOM      8  C   UNL d   1     -11.442   4.140  13.240 -0.07 +0.00    +0.066 A 
DOCKED: ATOM      9  C   UNL d   1     -11.352   4.612  15.816 -0.09 +0.00    +0.051 C 
DOCKED: ATOM     10  C   UNL d   1     -11.685   5.891  11.467 -0.11 +0.00    +0.066 A 
DOCKED: ATOM     11  C   UNL d   1     -11.641   7.242  11.105 -0.18 +0.00    -0.021 A 
DOCKED: ATOM     12  C   UNL d   1     -11.729   7.282   9.725 -0.21 -0.00    +0.000 A 
DOCKED: ATOM     13  C   UNL d   1     -11.837   5.924   9.316 -0.22 -0.00    +0.070 A 
DOCKED: ATOM     14  C   UNL d   1     -11.493   8.441  12.033 -0.15 -0.00    +0.052 C 
DOCKED: ATOM     15  C   UNL d   1     -12.082   4.134   7.604 -0.23 -0.00    +0.066 A 
DOCKED: ATOM     16  C   UNL d   1     -12.346   3.764   6.286 -0.20 +0.00    -0.021 A 
DOCKED: ATOM     17  C   UNL d   1     -12.368   2.370   6.265 -0.23 -0.00    +0.000 A 
DOCKED: ATOM     18  C   UNL d   1     -12.110   1.989   7.589 -0.23 -0.01    +0.070 A 
DOCKED: ATOM     19  C   UNL d   1     -12.605   4.764   5.187 -0.16 +0.00    +0.052 C 
DOCKED: ATOM     20  C   UNL d   1     -11.791   0.190   9.339 -0.22 -0.02    +0.066 A 
DOCKED: ATOM     21  C   UNL d   1     -11.673  -1.141   9.727 -0.23 +0.01    -0.025 A 
DOCKED: ATOM     22  C   UNL d   1     -11.406  -1.131  11.078 -0.23 +0.01    -0.021 A 
DOCKED: ATOM     23  C   UNL d   1     -11.388   0.212  11.468 -0.24 -0.01    +0.066 A 
DOCKED: ATOM     24  C   UNL d   1     -11.813  -2.362   8.855 -0.19 -0.03    +0.051 C 
DOCKED: ATOM     25  N   UNL d   1     -11.463   3.035  12.420 -0.08 -0.00    -0.248 N 
DOCKED: ATOM     26  N   UNL d   1     -11.814   5.085  10.382 -0.04 +0.01    -0.248 N 
DOCKED: ATOM     27  N   UNL d   1     -12.014   3.072   8.402 -0.16 +0.02    -0.248 N 
DOCKED: ATOM     28  N   UNL d   1     -11.668   1.009  10.417 -0.17 +0.04    -0.248 N 
DOCKED: ATOM     29 FE   UNL d   1     -11.741   3.032  10.397 -0.06 -0.00    +0.000 Fe
DOCKED: ATOM     30  O   UNL d   1     -13.011   3.429  11.205 -0.14 -0.00    +0.000 OA
DOCKED: ATOM     31  O   UNL d   1     -13.149   2.504   9.937 -0.13 -0.00    +0.000 OA
DOCKED: ENDROOT
DOCKED: BRANCH   6  32
DOCKED: ATOM     32  C   UNL d   1     -11.047   1.527  15.793 -0.13 +0.01    +0.052 C 
DOCKED: BRANCH  32  33
DOCKED: ATOM     33  C   UNL d   1     -12.164   0.492  15.881 -0.05 +0.01    +0.115 C 
DOCKED: BRANCH  33  34
DOCKED: ATOM     34  C   UNL d   1     -11.637  -0.921  15.937 -0.06 +0.03    +0.139 C 
DOCKED: ATOM     35  O   UNL d   1     -10.516  -1.130  16.372 -0.40 -0.45    -0.650 OA
DOCKED: BRANCH  34  36
DOCKED: ATOM     36  O   UNL d   1     -12.368  -1.962  15.489 +0.03 -0.05    -0.776 OA
DOCKED: ATOM     37  H   UNL d   1     -13.250  -1.845  15.117 +0.01 -0.00    +0.167 HD
DOCKED: ENDBRANCH  34  36
DOCKED: ENDBRANCH  33  34
DOCKED: ENDBRANCH  32  33
DOCKED: ENDBRANCH   6  32
DOCKED: BRANCH  22  38
DOCKED: ATOM     38  C   UNL d   1     -11.241  -2.348  11.950 -0.09 -0.04    +0.052 C 
DOCKED: BRANCH  38  39
DOCKED: ATOM     39  C   UNL d   1     -12.543  -3.131  12.109 -0.06 -0.05    +0.115 C 
DOCKED: BRANCH  39  40
DOCKED: ATOM     40  C   UNL d   1     -13.748  -2.230  12.214 -0.02 -0.03    +0.139 C 
DOCKED: ATOM     41  O   UNL d   1     -14.722  -2.434  11.508 +0.02 +0.11    -0.650 OA
DOCKED: BRANCH  40  42
DOCKED: ATOM     42  O   UNL d   1     -13.791  -1.228  13.114 +0.05 +0.08    -0.776 OA
DOCKED: ATOM     43  H   UNL d   1     -13.113  -1.130  13.793 +0.02 -0.01    +0.167 HD
DOCKED: ENDBRANCH  40  42
DOCKED: ENDBRANCH  39  40
DOCKED: ENDBRANCH  38  39
DOCKED: ENDBRANCH  22  38
DOCKED: BRANCH  12  44
DOCKED: ATOM     44  C   UNL d   1     -11.706   8.587   8.957 -0.21 -0.00    +0.004 C 
DOCKED: ATOM     45  C   UNL d   1     -11.219   8.810   7.737 -0.27 -0.00    +0.012 C 
DOCKED: ENDBRANCH  12  44
DOCKED: BRANCH  17  46
DOCKED: ATOM     46  C   UNL d   1     -12.660   1.403   5.149 -0.25 -0.00    +0.004 C 
DOCKED: ATOM     47  C   UNL d   1     -13.647   0.501   5.070 -0.15 -0.00    +0.012 C 
DOCKED: ENDBRANCH  17  46
DOCKED: TORSDOF 10
DOCKED: TER
DOCKED: ENDMDL
________________________________________________________________________________


	BEGINNING GENETIC ALGORITHM DOCKING 10 of 100
Run: 10 Seed: 642187725 846682920 [ Run 10 of 100 GA/GALS ]
Beginning LAMARCKIAN GENETIC ALGORITHM (LGA), with a maximum of 25000000 energy evaluations.

Final-Value: -9.366


	FINAL GENETIC ALGORITHM DOCKED STATE
	_______________________________________________


Detailed state:  trans -10.941 5.829 11.522 quatxyzw 0.496721 -0.719348 -0.137210 -0.465811 center 8.287 34.468 -0.670 ntor 10 -174.6452 108.0915 -41.3790 118.6787 -112.3502 -40.7072 -86.1182 96.5196 -172.2158 -159.8577
State:	-10.941   5.829  11.522   0.561 -0.813 -0.155 -124.475   -174.65  108.09  -41.38  118.68 -112.35  -40.71  -86.12   96.52 -172.22 -159.86

DOCKED: MODEL       10
DOCKED: USER    Run = 10
DOCKED: USER    DPF = D:/Protein_go_brrr/autodock/final/mut_N102T/heme_O2/dock.dpf
DOCKED: USER  
DOCKED: USER    Estimated Free Energy of Binding    =   -3.78 kcal/mol  [=(1)+(2)+(3)-(4)]
DOCKED: USER    Estimated Inhibition Constant, Ki   =    1.70 mM (millimolar)  [Temperature = 298.15 K]
DOCKED: USER    
DOCKED: USER    (1) Final Intermolecular Energy     =   -6.76 kcal/mol
DOCKED: USER        vdW + Hbond + desolv Energy     =   -6.82 kcal/mol
DOCKED: USER        Electrostatic Energy            =   +0.06 kcal/mol
DOCKED: USER    (2) Final Total Internal Energy     =   -2.60 kcal/mol
DOCKED: USER    (3) Torsional Free Energy           =   +2.98 kcal/mol
DOCKED: USER    (4) Unbound System's Energy  [=(2)] =   -2.60 kcal/mol
DOCKED: USER    
DOCKED: USER    
DOCKED: USER    NEWDPF move heme_O2_opt.pdbqt
DOCKED: USER    NEWDPF about 8.287000 34.468000 -0.670000
DOCKED: USER    NEWDPF tran0 -10.940930 5.828991 11.521606
DOCKED: USER    NEWDPF quaternion0 0.496721 -0.719348 -0.137210 -0.465811
DOCKED: USER    NEWDPF axisangle0 0.561340 -0.812929 -0.155060 -124.474530
DOCKED: USER    NEWDPF quat0 0.561340 -0.812929 -0.155060 -124.474530
DOCKED: USER    NEWDPF dihe0 -174.65 108.09 -41.38 118.68 -112.35 -40.71 -86.12 96.52 -172.22 -159.86 
DOCKED: USER  keepresnum = 1 
DOCKED: USER  
DOCKED: REMARK  10 active torsions:
DOCKED: REMARK  status: ('A' for Active; 'I' for Inactive)
DOCKED: REMARK    1  A    between atoms: C_6  and  C_10 
DOCKED: REMARK    2  A    between atoms: C_10  and  C_11 
DOCKED: REMARK    3  A    between atoms: C_11  and  C_12 
DOCKED: REMARK    4  A    between atoms: C_12  and  O_14 
DOCKED: REMARK    5  A    between atoms: C_17  and  C_20 
DOCKED: REMARK    6  A    between atoms: C_24  and  C_27 
DOCKED: REMARK    7  A    between atoms: C_31  and  C_34 
DOCKED: REMARK    8  A    between atoms: C_34  and  C_35 
DOCKED: REMARK    9  A    between atoms: C_35  and  C_36 
DOCKED: REMARK   10  A    between atoms: C_36  and  O_38 
DOCKED: USER                              x       y       z     vdW  Elec       q    Type
DOCKED: USER                           _______ _______ _______ _____ _____    ______ ____
DOCKED: ROOT
DOCKED: ATOM      1  C   UNL d   1     -10.513   7.899  11.343 -0.29 +0.00    +0.064 A 
DOCKED: ATOM      2  C   UNL d   1     -11.988   4.647   8.212 -0.23 -0.00    +0.064 A 
DOCKED: ATOM      3  C   UNL d   1     -11.889   1.222  11.582 -0.24 -0.01    +0.064 C 
DOCKED: ATOM      4  C   UNL d   1     -10.832   4.655  14.923 -0.04 +0.01    +0.064 A 
DOCKED: ATOM      5  C   UNL d   1     -10.924   7.294  10.217 -0.30 -0.00    +0.066 A 
DOCKED: ATOM      6  C   UNL d   1     -11.064   7.943   8.987 -0.29 +0.00    -0.021 A 
DOCKED: ATOM      7  C   UNL d   1     -11.533   7.012   8.089 -0.26 +0.00    -0.025 A 
DOCKED: ATOM      8  C   UNL d   1     -11.620   5.809   8.785 -0.26 -0.00    +0.066 A 
DOCKED: ATOM      9  C   UNL d   1     -11.897   7.304   6.650 -0.22 -0.00    +0.051 C 
DOCKED: ATOM     10  C   UNL d   1     -12.076   3.350   8.884 -0.20 -0.00    +0.066 A 
DOCKED: ATOM     11  C   UNL d   1     -12.304   2.146   8.207 -0.22 +0.00    -0.021 A 
DOCKED: ATOM     12  C   UNL d   1     -12.261   1.145   9.159 -0.22 -0.00    +0.000 A 
DOCKED: ATOM     13  C   UNL d   1     -12.016   1.810  10.392 -0.21 -0.01    +0.070 A 
DOCKED: ATOM     14  C   UNL d   1     -12.526   1.957   6.711 -0.23 -0.01    +0.052 C 
DOCKED: ATOM     15  C   UNL d   1     -11.675   1.863  12.857 -0.19 +0.00    +0.066 A 
DOCKED: ATOM     16  C   UNL d   1     -11.715   1.207  14.088 -0.14 -0.00    -0.021 A 
DOCKED: ATOM     17  C   UNL d   1     -11.417   2.166  15.055 -0.13 +0.00    +0.000 A 
DOCKED: ATOM     18  C   UNL d   1     -11.214   3.350  14.333 -0.14 +0.01    +0.070 A 
DOCKED: ATOM     19  C   UNL d   1     -12.084  -0.248  14.233 -0.09 +0.00    +0.052 C 
DOCKED: ATOM     20  C   UNL d   1     -10.671   5.819  14.265 -0.13 +0.01    +0.066 A 
DOCKED: ATOM     21  C   UNL d   1     -10.292   7.013  14.873 -0.17 -0.00    -0.025 A 
DOCKED: ATOM     22  C   UNL d   1     -10.170   7.942  13.864 -0.23 -0.00    -0.021 A 
DOCKED: ATOM     23  C   UNL d   1     -10.497   7.283  12.675 -0.28 +0.00    +0.066 A 
DOCKED: ATOM     24  C   UNL d   1     -10.063   7.256  16.342 -0.09 +0.00    +0.051 C 
DOCKED: ATOM     25  N   UNL d   1     -11.307   5.998  10.111 -0.14 +0.00    -0.248 N 
DOCKED: ATOM     26  N   UNL d   1     -11.909   3.152  10.216 -0.15 +0.03    -0.248 N 
DOCKED: ATOM     27  N   UNL d   1     -11.448   3.164  13.009 -0.13 -0.01    -0.248 N 
DOCKED: ATOM     28  N   UNL d   1     -10.845   6.004  12.929 -0.14 -0.02    -0.248 N 
DOCKED: ATOM     29 FE   UNL d   1     -11.373   4.586  11.585 -0.06 +0.00    +0.000 Fe
DOCKED: ATOM     30  O   UNL d   1     -12.774   4.999  11.047 -0.15 -0.00    +0.000 OA
DOCKED: ATOM     31  O   UNL d   1     -12.572   4.754  12.590 -0.15 +0.00    +0.000 OA
DOCKED: ENDROOT
DOCKED: BRANCH   6  32
DOCKED: ATOM     32  C   UNL d   1     -10.898   9.411   8.693 -0.20 -0.01    +0.052 C 
DOCKED: BRANCH  32  33
DOCKED: ATOM     33  C   UNL d   1     -12.187  10.204   8.887 -0.08 -0.01    +0.115 C 
DOCKED: BRANCH  33  34
DOCKED: ATOM     34  C   UNL d   1     -12.313  10.765  10.281 -0.04 -0.01    +0.139 C 
DOCKED: ATOM     35  O   UNL d   1     -11.979  11.918  10.501 +0.02 +0.04    -0.650 OA
DOCKED: BRANCH  34  36
DOCKED: ATOM     36  O   UNL d   1     -12.764  10.010  11.305 +0.04 +0.03    -0.776 OA
DOCKED: ATOM     37  H   UNL d   1     -12.924  10.379  12.181 +0.01 -0.01    +0.167 HD
DOCKED: ENDBRANCH  34  36
DOCKED: ENDBRANCH  33  34
DOCKED: ENDBRANCH  32  33
DOCKED: ENDBRANCH   6  32
DOCKED: BRANCH  22  38
DOCKED: ATOM     38  C   UNL d   1      -9.821   9.397  14.047 -0.18 +0.00    +0.052 C 
DOCKED: BRANCH  38  39
DOCKED: ATOM     39  C   UNL d   1     -10.803  10.120  14.966 -0.05 -0.00    +0.115 C 
DOCKED: BRANCH  39  40
DOCKED: ATOM     40  C   UNL d   1     -12.027  10.608  14.233 -0.02 -0.00    +0.139 C 
DOCKED: ATOM     41  O   UNL d   1     -13.084  10.009  14.350 +0.01 +0.02    -0.650 OA
DOCKED: BRANCH  40  42
DOCKED: ATOM     42  O   UNL d   1     -11.989  11.729  13.486 +0.02 +0.03    -0.776 OA
DOCKED: ATOM     43  H   UNL d   1     -12.055  11.697  12.524 +0.01 -0.01    +0.167 HD
DOCKED: ENDBRANCH  40  42
DOCKED: ENDBRANCH  39  40
DOCKED: ENDBRANCH  38  39
DOCKED: ENDBRANCH  22  38
DOCKED: BRANCH  12  44
DOCKED: ATOM     44  C   UNL d   1     -12.459  -0.314   8.802 -0.20 -0.00    +0.004 C 
DOCKED: ATOM     45  C   UNL d   1     -11.737  -1.360   9.203 -0.26 -0.01    +0.012 C 
DOCKED: ENDBRANCH  12  44
DOCKED: BRANCH  17  46
DOCKED: ATOM     46  C   UNL d   1     -11.369   2.073  16.557 -0.08 +0.00    +0.004 C 
DOCKED: ATOM     47  C   UNL d   1     -10.299   2.156  17.358 -0.11 +0.00    +0.012 C 
DOCKED: ENDBRANCH  17  46
DOCKED: TORSDOF 10
DOCKED: TER
DOCKED: ENDMDL
________________________________________________________________________________


	BEGINNING GENETIC ALGORITHM DOCKING 11 of 100
Run: 11 Seed: 1546142011 99786628 [ Run 11 of 100 GA/GALS ]
Beginning LAMARCKIAN GENETIC ALGORITHM (LGA), with a maximum of 25000000 energy evaluations.

Final-Value: -10.371


	FINAL GENETIC ALGORITHM DOCKED STATE
	_______________________________________________


Detailed state:  trans 8.019 -5.474 14.096 quatxyzw -0.304978 -0.330530 -0.742062 -0.497073 center 8.287 34.468 -0.670 ntor 10 0.6203 -166.5613 -94.3010 -115.8852 -167.4319 -62.8612 17.1729 104.8317 -155.3287 165.7598
State:	  8.019  -5.474  14.096  -0.351 -0.381 -0.855 -120.387      0.62 -166.56  -94.30 -115.89 -167.43  -62.86   17.17  104.83 -155.33  165.76

DOCKED: MODEL       11
DOCKED: USER    Run = 11
DOCKED: USER    DPF = D:/Protein_go_brrr/autodock/final/mut_N102T/heme_O2/dock.dpf
DOCKED: USER  
DOCKED: USER    Estimated Free Energy of Binding    =   -5.66 kcal/mol  [=(1)+(2)+(3)-(4)]
DOCKED: USER    Estimated Inhibition Constant, Ki   =   71.52 uM (micromolar)  [Temperature = 298.15 K]
DOCKED: USER    
DOCKED: USER    (1) Final Intermolecular Energy     =   -8.64 kcal/mol
DOCKED: USER        vdW + Hbond + desolv Energy     =   -6.36 kcal/mol
DOCKED: USER        Electrostatic Energy            =   -2.28 kcal/mol
DOCKED: USER    (2) Final Total Internal Energy     =   -1.73 kcal/mol
DOCKED: USER    (3) Torsional Free Energy           =   +2.98 kcal/mol
DOCKED: USER    (4) Unbound System's Energy  [=(2)] =   -1.73 kcal/mol
DOCKED: USER    
DOCKED: USER    
DOCKED: USER    NEWDPF move heme_O2_opt.pdbqt
DOCKED: USER    NEWDPF about 8.287000 34.468000 -0.670000
DOCKED: USER    NEWDPF tran0 8.018892 -5.474368 14.095744
DOCKED: USER    NEWDPF quaternion0 -0.304978 -0.330530 -0.742062 -0.497073
DOCKED: USER    NEWDPF axisangle0 -0.351476 -0.380923 -0.855198 -120.386930
DOCKED: USER    NEWDPF quat0 -0.351476 -0.380923 -0.855198 -120.386930
DOCKED: USER    NEWDPF dihe0 0.62 -166.56 -94.30 -115.89 -167.43 -62.86 17.17 104.83 -155.33 165.76 
DOCKED: USER  keepresnum = 1 
DOCKED: USER  
DOCKED: REMARK  10 active torsions:
DOCKED: REMARK  status: ('A' for Active; 'I' for Inactive)
DOCKED: REMARK    1  A    between atoms: C_6  and  C_10 
DOCKED: REMARK    2  A    between atoms: C_10  and  C_11 
DOCKED: REMARK    3  A    between atoms: C_11  and  C_12 
DOCKED: REMARK    4  A    between atoms: C_12  and  O_14 
DOCKED: REMARK    5  A    between atoms: C_17  and  C_20 
DOCKED: REMARK    6  A    between atoms: C_24  and  C_27 
DOCKED: REMARK    7  A    between atoms: C_31  and  C_34 
DOCKED: REMARK    8  A    between atoms: C_34  and  C_35 
DOCKED: REMARK    9  A    between atoms: C_35  and  C_36 
DOCKED: REMARK   10  A    between atoms: C_36  and  O_38 
DOCKED: USER                              x       y       z     vdW  Elec       q    Type
DOCKED: USER                           _______ _______ _______ _____ _____    ______ ____
DOCKED: ROOT
DOCKED: ATOM      1  C   UNL d   1       9.083  -5.280  12.271 -0.15 +0.03    +0.064 A 
DOCKED: ATOM      2  C   UNL d   1       6.606  -2.184  14.886 -0.17 +0.00    +0.064 A 
DOCKED: ATOM      3  C   UNL d   1       5.519  -5.608  18.078 -0.15 -0.01    +0.064 C 
DOCKED: ATOM      4  C   UNL d   1       8.461  -8.692  15.649 -0.22 +0.02    +0.064 A 
DOCKED: ATOM      5  C   UNL d   1       8.500  -4.158  12.723 -0.12 +0.02    +0.066 A 
DOCKED: ATOM      6  C   UNL d   1       8.554  -2.927  12.063 -0.16 -0.01    -0.021 A 
DOCKED: ATOM      7  C   UNL d   1       7.874  -2.020  12.841 -0.18 -0.00    -0.025 A 
DOCKED: ATOM      8  C   UNL d   1       7.381  -2.732  13.931 -0.13 +0.01    +0.066 A 
DOCKED: ATOM      9  C   UNL d   1       7.748  -0.542  12.539 -0.33 +0.01    +0.051 C 
DOCKED: ATOM     10  C   UNL d   1       6.041  -2.885  16.039 -0.13 -0.00    +0.066 A 
DOCKED: ATOM     11  C   UNL d   1       5.110  -2.309  16.910 -0.17 +0.00    -0.021 A 
DOCKED: ATOM     12  C   UNL d   1       4.770  -3.286  17.827 -0.11 -0.00    +0.000 A 
DOCKED: ATOM     13  C   UNL d   1       5.540  -4.426  17.463 -0.10 -0.00    +0.070 A 
DOCKED: ATOM     14  C   UNL d   1       4.547  -0.893  16.854 -0.24 -0.01    +0.052 C 
DOCKED: ATOM     15  C   UNL d   1       6.308  -6.774  17.762 -0.16 -0.00    +0.066 A 
DOCKED: ATOM     16  C   UNL d   1       6.361  -7.928  18.543 -0.16 +0.00    -0.021 A 
DOCKED: ATOM     17  C   UNL d   1       7.195  -8.821  17.871 -0.20 +0.00    +0.000 A 
DOCKED: ATOM     18  C   UNL d   1       7.591  -8.137  16.713 -0.21 +0.01    +0.070 A 
DOCKED: ATOM     19  C   UNL d   1       5.663  -8.053  19.874 -0.10 -0.00    +0.052 C 
DOCKED: ATOM     20  C   UNL d   1       8.896  -8.048  14.548 -0.19 +0.02    +0.066 A 
DOCKED: ATOM     21  C   UNL d   1       9.700  -8.629  13.571 -0.11 -0.01    -0.025 A 
DOCKED: ATOM     22  C   UNL d   1       9.865  -7.680  12.588 -0.12 -0.01    -0.021 A 
DOCKED: ATOM     23  C   UNL d   1       9.167  -6.545  13.011 -0.17 +0.02    +0.066 A 
DOCKED: ATOM     24  C   UNL d   1      10.284 -10.018  13.578 -0.16 +0.04    +0.051 C 
DOCKED: ATOM     25  N   UNL d   1       7.822  -4.035  13.891 -0.06 -0.04    -0.248 N 
DOCKED: ATOM     26  N   UNL d   1       6.313  -4.171  16.377 -0.04 +0.00    -0.248 N 
DOCKED: ATOM     27  N   UNL d   1       7.104  -6.870  16.701 -0.10 -0.02    -0.248 N 
DOCKED: ATOM     28  N   UNL d   1       8.617  -6.758  14.224 -0.12 -0.06    -0.248 N 
DOCKED: ATOM     29 FE   UNL d   1       7.474  -5.476  15.295 -0.04 +0.00    +0.000 Fe
DOCKED: ATOM     30  O   UNL d   1       8.426  -4.344  15.779 -0.08 +0.00    +0.000 OA
DOCKED: ATOM     31  O   UNL d   1       8.725  -5.839  16.175 -0.09 +0.00    +0.000 OA
DOCKED: ENDROOT
DOCKED: BRANCH   6  32
DOCKED: ATOM     32  C   UNL d   1       9.331  -2.580  10.819 -0.19 +0.04    +0.052 C 
DOCKED: BRANCH  32  33
DOCKED: ATOM     33  C   UNL d   1      10.836  -2.511  11.061 -0.14 +0.11    +0.115 C 
DOCKED: BRANCH  33  34
DOCKED: ATOM     34  C   UNL d   1      11.568  -1.824   9.935 -0.11 +0.16    +0.139 C 
DOCKED: ATOM     35  O   UNL d   1      11.093  -0.820   9.430 -0.53 -0.58    -0.650 OA
DOCKED: BRANCH  34  36
DOCKED: ATOM     36  O   UNL d   1      12.729  -2.312   9.450 -0.27 -1.27    -0.776 OA
DOCKED: ATOM     37  H   UNL d   1      13.127  -3.120   9.793 +0.02 +0.30    +0.167 HD
DOCKED: ENDBRANCH  34  36
DOCKED: ENDBRANCH  33  34
DOCKED: ENDBRANCH  32  33
DOCKED: ENDBRANCH   6  32
DOCKED: BRANCH  22  38
DOCKED: ATOM     38  C   UNL d   1      10.700  -7.840  11.344 -0.12 +0.03    +0.052 C 
DOCKED: BRANCH  38  39
DOCKED: ATOM     39  C   UNL d   1      12.130  -7.337  11.534 -0.06 +0.06    +0.115 C 
DOCKED: BRANCH  39  40
DOCKED: ATOM     40  C   UNL d   1      12.220  -5.832  11.504 -0.06 +0.10    +0.139 C 
DOCKED: ATOM     41  O   UNL d   1      11.957  -5.189  12.508 +0.02 -0.32    -0.650 OA
DOCKED: BRANCH  40  42
DOCKED: ATOM     42  O   UNL d   1      12.637  -5.182  10.401 +0.12 -1.16    -0.776 OA
DOCKED: ATOM     43  H   UNL d   1      12.917  -4.260  10.434 +0.01 +0.25    +0.167 HD
DOCKED: ENDBRANCH  40  42
DOCKED: ENDBRANCH  39  40
DOCKED: ENDBRANCH  38  39
DOCKED: ENDBRANCH  22  38
DOCKED: BRANCH  12  44
DOCKED: ATOM     44  C   UNL d   1       3.770  -3.036  18.936 -0.10 -0.00    +0.004 C 
DOCKED: ATOM     45  C   UNL d   1       2.440  -3.069  18.862 -0.15 -0.00    +0.012 C 
DOCKED: ENDBRANCH  12  44
DOCKED: BRANCH  17  46
DOCKED: ATOM     46  C   UNL d   1       7.677 -10.197  18.247 -0.18 +0.00    +0.004 C 
DOCKED: ATOM     47  C   UNL d   1       8.940 -10.627  18.371 -0.13 +0.00    +0.012 C 
DOCKED: ENDBRANCH  17  46
DOCKED: TORSDOF 10
DOCKED: TER
DOCKED: ENDMDL
________________________________________________________________________________


	BEGINNING GENETIC ALGORITHM DOCKING 12 of 100
Run: 12 Seed: 1369999248 1830942872 [ Run 12 of 100 GA/GALS ]
Beginning LAMARCKIAN GENETIC ALGORITHM (LGA), with a maximum of 25000000 energy evaluations.

Final-Value: -8.751


	FINAL GENETIC ALGORITHM DOCKED STATE
	_______________________________________________


Detailed state:  trans -2.462 5.428 -21.964 quatxyzw 0.910452 0.088294 0.215900 0.341567 center 8.287 34.468 -0.670 ntor 10 -18.1767 -141.0395 67.5172 42.1820 54.5426 179.2135 -140.1154 99.1017 165.7122 170.3322
State:	 -2.462   5.428 -21.964   0.969  0.094  0.230 140.055    -18.18 -141.04   67.52   42.18   54.54  179.21 -140.12   99.10  165.71  170.33

DOCKED: MODEL       12
DOCKED: USER    Run = 12
DOCKED: USER    DPF = D:/Protein_go_brrr/autodock/final/mut_N102T/heme_O2/dock.dpf
DOCKED: USER  
DOCKED: USER    Estimated Free Energy of Binding    =   -3.46 kcal/mol  [=(1)+(2)+(3)-(4)]
DOCKED: USER    Estimated Inhibition Constant, Ki   =    2.88 mM (millimolar)  [Temperature = 298.15 K]
DOCKED: USER    
DOCKED: USER    (1) Final Intermolecular Energy     =   -6.45 kcal/mol
DOCKED: USER        vdW + Hbond + desolv Energy     =   -6.41 kcal/mol
DOCKED: USER        Electrostatic Energy            =   -0.04 kcal/mol
DOCKED: USER    (2) Final Total Internal Energy     =   -2.30 kcal/mol
DOCKED: USER    (3) Torsional Free Energy           =   +2.98 kcal/mol
DOCKED: USER    (4) Unbound System's Energy  [=(2)] =   -2.30 kcal/mol
DOCKED: USER    
DOCKED: USER    
DOCKED: USER    NEWDPF move heme_O2_opt.pdbqt
DOCKED: USER    NEWDPF about 8.287000 34.468000 -0.670000
DOCKED: USER    NEWDPF tran0 -2.461614 5.427936 -21.964209
DOCKED: USER    NEWDPF quaternion0 0.910452 0.088294 0.215900 0.341567
DOCKED: USER    NEWDPF axisangle0 0.968713 0.093944 0.229715 140.055200
DOCKED: USER    NEWDPF quat0 0.968713 0.093944 0.229715 140.055200
DOCKED: USER    NEWDPF dihe0 -18.18 -141.04 67.52 42.18 54.54 179.21 -140.12 99.10 165.71 170.33 
DOCKED: USER  keepresnum = 1 
DOCKED: USER  
DOCKED: REMARK  10 active torsions:
DOCKED: REMARK  status: ('A' for Active; 'I' for Inactive)
DOCKED: REMARK    1  A    between atoms: C_6  and  C_10 
DOCKED: REMARK    2  A    between atoms: C_10  and  C_11 
DOCKED: REMARK    3  A    between atoms: C_11  and  C_12 
DOCKED: REMARK    4  A    between atoms: C_12  and  O_14 
DOCKED: REMARK    5  A    between atoms: C_17  and  C_20 
DOCKED: REMARK    6  A    between atoms: C_24  and  C_27 
DOCKED: REMARK    7  A    between atoms: C_31  and  C_34 
DOCKED: REMARK    8  A    between atoms: C_34  and  C_35 
DOCKED: REMARK    9  A    between atoms: C_35  and  C_36 
DOCKED: REMARK   10  A    between atoms: C_36  and  O_38 
DOCKED: USER                              x       y       z     vdW  Elec       q    Type
DOCKED: USER                           _______ _______ _______ _____ _____    ______ ____
DOCKED: ROOT
DOCKED: ATOM      1  C   UNL d   1      -4.209   4.423 -22.625 -0.19 +0.01    +0.064 A 
DOCKED: ATOM      2  C   UNL d   1      -2.769   8.934 -22.996 -0.07 +0.00    +0.064 A 
DOCKED: ATOM      3  C   UNL d   1       1.256   7.946 -20.562 -0.27 -0.01    +0.064 C 
DOCKED: ATOM      4  C   UNL d   1       0.010   3.201 -20.588 -0.17 -0.00    +0.064 A 
DOCKED: ATOM      5  C   UNL d   1      -4.145   5.730 -22.926 -0.15 +0.01    +0.066 A 
DOCKED: ATOM      6  C   UNL d   1      -5.142   6.424 -23.616 -0.09 -0.00    -0.021 A 
DOCKED: ATOM      7  C   UNL d   1      -4.707   7.720 -23.763 -0.06 -0.00    -0.025 A 
DOCKED: ATOM      8  C   UNL d   1      -3.477   7.794 -23.115 -0.06 +0.00    +0.066 A 
DOCKED: ATOM      9  C   UNL d   1      -5.447   8.802 -24.519 -0.02 +0.00    +0.051 C 
DOCKED: ATOM     10  C   UNL d   1      -1.484   9.077 -22.310 -0.11 -0.00    +0.066 A 
DOCKED: ATOM     11  C   UNL d   1      -0.872  10.313 -22.074 -0.18 +0.00    -0.021 A 
DOCKED: ATOM     12  C   UNL d   1       0.281  10.051 -21.357 -0.25 -0.00    +0.000 A 
DOCKED: ATOM     13  C   UNL d   1       0.314   8.637 -21.204 -0.23 -0.00    +0.070 A 
DOCKED: ATOM     14  C   UNL d   1      -1.379  11.689 -22.491 -0.15 +0.01    +0.052 C 
DOCKED: ATOM     15  C   UNL d   1       1.343   6.513 -20.414 -0.23 -0.01    +0.066 A 
DOCKED: ATOM     16  C   UNL d   1       2.438   5.840 -19.874 -0.25 +0.00    -0.021 A 
DOCKED: ATOM     17  C   UNL d   1       2.106   4.485 -19.872 -0.22 -0.00    +0.000 A 
DOCKED: ATOM     18  C   UNL d   1       0.816   4.433 -20.417 -0.18 -0.00    +0.070 A 
DOCKED: ATOM     19  C   UNL d   1       3.712   6.536 -19.464 -0.26 -0.01    +0.052 C 
DOCKED: ATOM     20  C   UNL d   1      -1.213   3.110 -21.146 -0.19 +0.00    +0.066 A 
DOCKED: ATOM     21  C   UNL d   1      -1.931   1.924 -21.264 -0.24 -0.00    -0.025 A 
DOCKED: ATOM     22  C   UNL d   1      -3.147   2.257 -21.818 -0.20 -0.00    -0.021 A 
DOCKED: ATOM     23  C   UNL d   1      -3.118   3.638 -22.034 -0.21 +0.01    +0.066 A 
DOCKED: ATOM     24  C   UNL d   1      -1.478   0.541 -20.872 -0.26 -0.00    +0.051 C 
DOCKED: ATOM     25  N   UNL d   1      -3.101   6.552 -22.657 -0.08 -0.03    -0.248 N 
DOCKED: ATOM     26  N   UNL d   1      -0.762   8.053 -21.790 -0.10 +0.00    -0.248 N 
DOCKED: ATOM     27  N   UNL d   1       0.399   5.664 -20.809 -0.13 +0.01    -0.248 N 
DOCKED: ATOM     28  N   UNL d   1      -1.924   4.146 -21.667 -0.13 -0.03    -0.248 N 
DOCKED: ATOM     29 FE   UNL d   1      -1.344   6.084 -21.727 -0.04 +0.00    +0.000 Fe
DOCKED: ATOM     30  O   UNL d   1      -1.182   6.443 -23.233 -0.09 +0.00    +0.000 OA
DOCKED: ATOM     31  O   UNL d   1      -0.339   5.263 -22.615 -0.10 +0.00    +0.000 OA
DOCKED: ENDROOT
DOCKED: BRANCH   6  32
DOCKED: ATOM     32  C   UNL d   1      -6.396   5.864 -24.237 -0.06 +0.00    +0.052 C 
DOCKED: BRANCH  32  33
DOCKED: ATOM     33  C   UNL d   1      -6.366   5.894 -25.762 -0.01 +0.00    +0.115 C 
DOCKED: BRANCH  33  34
DOCKED: ATOM     34  C   UNL d   1      -4.998   5.583 -26.317 -0.01 +0.00    +0.139 C 
DOCKED: ATOM     35  O   UNL d   1      -4.250   6.498 -26.624 +0.00 -0.01    -0.650 OA
DOCKED: BRANCH  34  36
DOCKED: ATOM     36  O   UNL d   1      -4.589   4.312 -26.510 +0.01 -0.00    -0.776 OA
DOCKED: ATOM     37  H   UNL d   1      -5.023   3.565 -26.082 +0.01 +0.00    +0.167 HD
DOCKED: ENDBRANCH  34  36
DOCKED: ENDBRANCH  33  34
DOCKED: ENDBRANCH  32  33
DOCKED: ENDBRANCH   6  32
DOCKED: BRANCH  22  38
DOCKED: ATOM     38  C   UNL d   1      -4.244   1.288 -22.175 -0.03 +0.00    +0.052 C 
DOCKED: BRANCH  38  39
DOCKED: ATOM     39  C   UNL d   1      -4.086   0.724 -23.585 -0.08 -0.00    +0.115 C 
DOCKED: BRANCH  39  40
DOCKED: ATOM     40  C   UNL d   1      -4.621   1.656 -24.643 -0.04 -0.00    +0.139 C 
DOCKED: ATOM     41  O   UNL d   1      -5.620   2.320 -24.416 +0.00 -0.01    -0.650 OA
DOCKED: BRANCH  40  42
DOCKED: ATOM     42  O   UNL d   1      -3.986   1.810 -25.821 +0.01 +0.02    -0.776 OA
DOCKED: ATOM     43  H   UNL d   1      -3.883   2.678 -26.229 +0.01 -0.00    +0.167 HD
DOCKED: ENDBRANCH  40  42
DOCKED: ENDBRANCH  39  40
DOCKED: ENDBRANCH  38  39
DOCKED: ENDBRANCH  22  38
DOCKED: BRANCH  12  44
DOCKED: ATOM     44  C   UNL d   1       1.216  11.154 -20.906 -0.28 -0.00    +0.004 C 
DOCKED: ATOM     45  C   UNL d   1       2.485  11.349 -21.262 -0.20 -0.00    +0.012 C 
DOCKED: ENDBRANCH  12  44
DOCKED: BRANCH  17  46
DOCKED: ATOM     46  C   UNL d   1       2.902   3.273 -19.467 -0.36 -0.00    +0.004 C 
DOCKED: ATOM     47  C   UNL d   1       3.793   3.161 -18.473 -0.46 -0.00    +0.012 C 
DOCKED: ENDBRANCH  17  46
DOCKED: TORSDOF 10
DOCKED: TER
DOCKED: ENDMDL
________________________________________________________________________________


	BEGINNING GENETIC ALGORITHM DOCKING 13 of 100
Run: 13 Seed: 652045887 1931175069 [ Run 13 of 100 GA/GALS ]
Beginning LAMARCKIAN GENETIC ALGORITHM (LGA), with a maximum of 25000000 energy evaluations.

Final-Value: -9.298


	FINAL GENETIC ALGORITHM DOCKED STATE
	_______________________________________________


Detailed state:  trans -5.839 16.703 -17.290 quatxyzw -0.431175 0.215250 -0.653840 -0.583308 center 8.287 34.468 -0.670 ntor 10 -79.3422 65.7712 79.8722 -120.2006 64.2479 -70.4159 -142.3597 136.3337 -177.9165 -166.2472
State:	 -5.839  16.703 -17.290  -0.531  0.265 -0.805 -108.633    -79.34   65.77   79.87 -120.20   64.25  -70.42 -142.36  136.33 -177.92 -166.25

DOCKED: MODEL       13
DOCKED: USER    Run = 13
DOCKED: USER    DPF = D:/Protein_go_brrr/autodock/final/mut_N102T/heme_O2/dock.dpf
DOCKED: USER  
DOCKED: USER    Estimated Free Energy of Binding    =   -4.71 kcal/mol  [=(1)+(2)+(3)-(4)]
DOCKED: USER    Estimated Inhibition Constant, Ki   =  353.24 uM (micromolar)  [Temperature = 298.15 K]
DOCKED: USER    
DOCKED: USER    (1) Final Intermolecular Energy     =   -7.69 kcal/mol
DOCKED: USER        vdW + Hbond + desolv Energy     =   -4.57 kcal/mol
DOCKED: USER        Electrostatic Energy            =   -3.13 kcal/mol
DOCKED: USER    (2) Final Total Internal Energy     =   -1.61 kcal/mol
DOCKED: USER    (3) Torsional Free Energy           =   +2.98 kcal/mol
DOCKED: USER    (4) Unbound System's Energy  [=(2)] =   -1.61 kcal/mol
DOCKED: USER    
DOCKED: USER    
DOCKED: USER    NEWDPF move heme_O2_opt.pdbqt
DOCKED: USER    NEWDPF about 8.287000 34.468000 -0.670000
DOCKED: USER    NEWDPF tran0 -5.838802 16.703444 -17.290313
DOCKED: USER    NEWDPF quaternion0 -0.431175 0.215250 -0.653840 -0.583308
DOCKED: USER    NEWDPF axisangle0 -0.530840 0.265004 -0.804973 -108.632899
DOCKED: USER    NEWDPF quat0 -0.530840 0.265004 -0.804973 -108.632899
DOCKED: USER    NEWDPF dihe0 -79.34 65.77 79.87 -120.20 64.25 -70.42 -142.36 136.33 -177.92 -166.25 
DOCKED: USER  keepresnum = 1 
DOCKED: USER  
DOCKED: REMARK  10 active torsions:
DOCKED: REMARK  status: ('A' for Active; 'I' for Inactive)
DOCKED: REMARK    1  A    between atoms: C_6  and  C_10 
DOCKED: REMARK    2  A    between atoms: C_10  and  C_11 
DOCKED: REMARK    3  A    between atoms: C_11  and  C_12 
DOCKED: REMARK    4  A    between atoms: C_12  and  O_14 
DOCKED: REMARK    5  A    between atoms: C_17  and  C_20 
DOCKED: REMARK    6  A    between atoms: C_24  and  C_27 
DOCKED: REMARK    7  A    between atoms: C_31  and  C_34 
DOCKED: REMARK    8  A    between atoms: C_34  and  C_35 
DOCKED: REMARK    9  A    between atoms: C_35  and  C_36 
DOCKED: REMARK   10  A    between atoms: C_36  and  O_38 
DOCKED: USER                              x       y       z     vdW  Elec       q    Type
DOCKED: USER                           _______ _______ _______ _____ _____    ______ ____
DOCKED: ROOT
DOCKED: ATOM      1  C   UNL d   1      -6.241  18.163 -18.776 -0.05 +0.02    +0.064 A 
DOCKED: ATOM      2  C   UNL d   1      -4.733  18.489 -14.284 -0.01 +0.01    +0.064 A 
DOCKED: ATOM      3  C   UNL d   1      -4.940  13.715 -13.771 -0.16 -0.00    +0.064 C 
DOCKED: ATOM      4  C   UNL d   1      -6.034  13.332 -18.538 -0.10 +0.01    +0.064 A 
DOCKED: ATOM      5  C   UNL d   1      -5.812  18.641 -17.596 -0.04 +0.02    +0.066 A 
DOCKED: ATOM      6  C   UNL d   1      -5.639  20.000 -17.319 -0.02 -0.01    -0.021 A 
DOCKED: ATOM      7  C   UNL d   1      -5.161  20.093 -16.033 -0.01 -0.00    -0.025 A 
DOCKED: ATOM      8  C   UNL d   1      -5.101  18.791 -15.544 -0.02 +0.01    +0.066 A 
DOCKED: ATOM      9  C   UNL d   1      -4.762  21.382 -15.349 -0.00 +0.01    +0.051 C 
DOCKED: ATOM     10  C   UNL d   1      -4.673  17.145 -13.707 -0.03 +0.01    +0.066 A 
DOCKED: ATOM     11  C   UNL d   1      -4.442  16.900 -12.349 -0.03 -0.00    -0.021 A 
DOCKED: ATOM     12  C   UNL d   1      -4.516  15.530 -12.178 -0.06 +0.00    +0.000 A 
DOCKED: ATOM     13  C   UNL d   1      -4.781  15.004 -13.473 -0.08 +0.00    +0.070 A 
DOCKED: ATOM     14  C   UNL d   1      -4.189  17.931 -11.255 -0.01 +0.00    +0.052 C 
DOCKED: ATOM     15  C   UNL d   1      -5.174  13.140 -15.074 -0.17 -0.00    +0.066 A 
DOCKED: ATOM     16  C   UNL d   1      -5.168  11.772 -15.347 -0.28 +0.00    -0.021 A 
DOCKED: ATOM     17  C   UNL d   1      -5.477  11.639 -16.700 -0.29 -0.00    +0.000 A 
DOCKED: ATOM     18  C   UNL d   1      -5.653  12.952 -17.157 -0.15 +0.01    +0.070 A 
DOCKED: ATOM     19  C   UNL d   1      -4.817  10.729 -14.315 -0.34 -0.02    +0.052 C 
DOCKED: ATOM     20  C   UNL d   1      -6.169  14.583 -19.020 -0.08 +0.02    +0.066 A 
DOCKED: ATOM     21  C   UNL d   1      -6.548  14.879 -20.327 -0.05 -0.01    -0.025 A 
DOCKED: ATOM     22  C   UNL d   1      -6.638  16.250 -20.405 -0.05 -0.01    -0.021 A 
DOCKED: ATOM     23  C   UNL d   1      -6.292  16.743 -19.143 -0.06 +0.02    +0.066 A 
DOCKED: ATOM     24  C   UNL d   1      -6.807  13.902 -21.445 -0.03 +0.01    +0.051 C 
DOCKED: ATOM     25  N   UNL d   1      -5.440  17.893 -16.529 -0.03 -0.07    -0.248 N 
DOCKED: ATOM     26  N   UNL d   1      -4.870  15.993 -14.398 -0.03 -0.03    -0.248 N 
DOCKED: ATOM     27  N   UNL d   1      -5.392  13.852 -16.175 -0.09 -0.02    -0.248 N 
DOCKED: ATOM     28  N   UNL d   1      -5.964  15.728 -18.318 -0.06 -0.07    -0.248 N 
DOCKED: ATOM     29 FE   UNL d   1      -5.421  15.857 -16.372 -0.02 +0.00    +0.000 Fe
DOCKED: ATOM     30  O   UNL d   1      -4.004  16.502 -16.358 -0.18 +0.00    +0.000 OA
DOCKED: ATOM     31  O   UNL d   1      -4.243  15.159 -17.145 -0.18 +0.00    +0.000 OA
DOCKED: ENDROOT
DOCKED: BRANCH   6  32
DOCKED: ATOM     32  C   UNL d   1      -5.784  21.162 -18.268 -0.01 +0.01    +0.052 C 
DOCKED: BRANCH  32  33
DOCKED: ATOM     33  C   UNL d   1      -4.461  21.573 -18.907 -0.02 +0.04    +0.115 C 
DOCKED: BRANCH  33  34
DOCKED: ATOM     34  C   UNL d   1      -3.563  20.393 -19.181 +0.03 +0.14    +0.139 C 
DOCKED: ATOM     35  O   UNL d   1      -2.814  19.988 -18.306 -0.15 -0.71    -0.650 OA
DOCKED: BRANCH  34  36
DOCKED: ATOM     36  O   UNL d   1      -3.547  19.786 -20.386 -0.26 -1.48    -0.776 OA
DOCKED: ATOM     37  H   UNL d   1      -4.228  19.158 -20.651 -0.00 +0.23    +0.167 HD
DOCKED: ENDBRANCH  34  36
DOCKED: ENDBRANCH  33  34
DOCKED: ENDBRANCH  32  33
DOCKED: ENDBRANCH   6  32
DOCKED: BRANCH  22  38
DOCKED: ATOM     38  C   UNL d   1      -6.976  17.039 -21.644 -0.02 +0.01    +0.052 C 
DOCKED: BRANCH  38  39
DOCKED: ATOM     39  C   UNL d   1      -5.922  16.884 -22.738 -0.03 +0.04    +0.115 C 
DOCKED: BRANCH  39  40
DOCKED: ATOM     40  C   UNL d   1      -4.516  16.999 -22.204 -0.07 +0.12    +0.139 C 
DOCKED: ATOM     41  O   UNL d   1      -4.035  16.079 -21.561 -0.03 -0.64    -0.650 OA
DOCKED: BRANCH  40  42
DOCKED: ATOM     42  O   UNL d   1      -3.758  18.081 -22.467 -0.09 -1.02    -0.776 OA
DOCKED: ATOM     43  H   UNL d   1      -3.966  18.946 -22.095 -0.00 +0.21    +0.167 HD
DOCKED: ENDBRANCH  40  42
DOCKED: ENDBRANCH  39  40
DOCKED: ENDBRANCH  38  39
DOCKED: ENDBRANCH  22  38
DOCKED: BRANCH  12  44
DOCKED: ATOM     44  C   UNL d   1      -4.326  14.877 -10.824 -0.12 -0.00    +0.004 C 
DOCKED: ATOM     45  C   UNL d   1      -3.261  14.212 -10.379 -0.30 -0.00    +0.012 C 
DOCKED: ENDBRANCH  12  44
DOCKED: BRANCH  17  46
DOCKED: ATOM     46  C   UNL d   1      -5.559  10.419 -17.580 -0.40 +0.00    +0.004 C 
DOCKED: ATOM     47  C   UNL d   1      -4.944  10.198 -18.749 -0.37 +0.00    +0.012 C 
DOCKED: ENDBRANCH  17  46
DOCKED: TORSDOF 10
DOCKED: TER
DOCKED: ENDMDL
________________________________________________________________________________


	BEGINNING GENETIC ALGORITHM DOCKING 14 of 100
Run: 14 Seed: 285766550 1356253374 [ Run 14 of 100 GA/GALS ]
Beginning LAMARCKIAN GENETIC ALGORITHM (LGA), with a maximum of 25000000 energy evaluations.

Final-Value: -8.535


	FINAL GENETIC ALGORITHM DOCKED STATE
	_______________________________________________


Detailed state:  trans -4.714 16.727 -17.190 quatxyzw -0.592790 0.643544 0.240204 0.420420 center 8.287 34.468 -0.670 ntor 10 17.8069 -56.7698 -12.6447 -23.5264 -151.1729 -141.9575 -148.5979 124.2404 -18.5565 35.3901
State:	 -4.714  16.727 -17.190  -0.653  0.709  0.265 130.278     17.81  -56.77  -12.64  -23.53 -151.17 -141.96 -148.60  124.24  -18.56   35.39

DOCKED: MODEL       14
DOCKED: USER    Run = 14
DOCKED: USER    DPF = D:/Protein_go_brrr/autodock/final/mut_N102T/heme_O2/dock.dpf
DOCKED: USER  
DOCKED: USER    Estimated Free Energy of Binding    =   -3.86 kcal/mol  [=(1)+(2)+(3)-(4)]
DOCKED: USER    Estimated Inhibition Constant, Ki   =    1.47 mM (millimolar)  [Temperature = 298.15 K]
DOCKED: USER    
DOCKED: USER    (1) Final Intermolecular Energy     =   -6.85 kcal/mol
DOCKED: USER        vdW + Hbond + desolv Energy     =   -4.85 kcal/mol
DOCKED: USER        Electrostatic Energy            =   -2.00 kcal/mol
DOCKED: USER    (2) Final Total Internal Energy     =   -1.69 kcal/mol
DOCKED: USER    (3) Torsional Free Energy           =   +2.98 kcal/mol
DOCKED: USER    (4) Unbound System's Energy  [=(2)] =   -1.69 kcal/mol
DOCKED: USER    
DOCKED: USER    
DOCKED: USER    NEWDPF move heme_O2_opt.pdbqt
DOCKED: USER    NEWDPF about 8.287000 34.468000 -0.670000
DOCKED: USER    NEWDPF tran0 -4.713961 16.726746 -17.189881
DOCKED: USER    NEWDPF quaternion0 -0.592790 0.643544 0.240204 0.420420
DOCKED: USER    NEWDPF axisangle0 -0.653335 0.709273 0.264738 130.277759
DOCKED: USER    NEWDPF quat0 -0.653335 0.709273 0.264738 130.277759
DOCKED: USER    NEWDPF dihe0 17.81 -56.77 -12.64 -23.53 -151.17 -141.96 -148.60 124.24 -18.56 35.39 
DOCKED: USER  keepresnum = 1 
DOCKED: USER  
DOCKED: REMARK  10 active torsions:
DOCKED: REMARK  status: ('A' for Active; 'I' for Inactive)
DOCKED: REMARK    1  A    between atoms: C_6  and  C_10 
DOCKED: REMARK    2  A    between atoms: C_10  and  C_11 
DOCKED: REMARK    3  A    between atoms: C_11  and  C_12 
DOCKED: REMARK    4  A    between atoms: C_12  and  O_14 
DOCKED: REMARK    5  A    between atoms: C_17  and  C_20 
DOCKED: REMARK    6  A    between atoms: C_24  and  C_27 
DOCKED: REMARK    7  A    between atoms: C_31  and  C_34 
DOCKED: REMARK    8  A    between atoms: C_34  and  C_35 
DOCKED: REMARK    9  A    between atoms: C_35  and  C_36 
DOCKED: REMARK   10  A    between atoms: C_36  and  O_38 
DOCKED: USER                              x       y       z     vdW  Elec       q    Type
DOCKED: USER                           _______ _______ _______ _____ _____    ______ ____
DOCKED: ROOT
DOCKED: ATOM      1  C   UNL d   1      -4.496  18.792 -16.758 -0.06 +0.03    +0.064 A 
DOCKED: ATOM      2  C   UNL d   1      -5.962  16.461 -20.628 -0.07 +0.03    +0.064 A 
DOCKED: ATOM      3  C   UNL d   1      -5.227  12.230 -18.471 -0.24 +0.01    +0.064 C 
DOCKED: ATOM      4  C   UNL d   1      -4.171  14.622 -14.320 -0.16 +0.00    +0.064 A 
DOCKED: ATOM      5  C   UNL d   1      -4.957  18.503 -17.986 -0.07 +0.04    +0.066 A 
DOCKED: ATOM      6  C   UNL d   1      -5.273  19.465 -18.950 -0.06 -0.01    -0.021 A 
DOCKED: ATOM      7  C   UNL d   1      -5.738  18.793 -20.056 -0.06 -0.01    -0.025 A 
DOCKED: ATOM      8  C   UNL d   1      -5.648  17.437 -19.754 -0.08 +0.04    +0.066 A 
DOCKED: ATOM      9  C   UNL d   1      -6.265  19.452 -21.311 -0.02 +0.02    +0.051 C 
DOCKED: ATOM     10  C   UNL d   1      -5.866  15.022 -20.377 -0.08 +0.02    +0.066 A 
DOCKED: ATOM     11  C   UNL d   1      -6.047  14.054 -21.372 -0.05 -0.00    -0.021 A 
DOCKED: ATOM     12  C   UNL d   1      -5.822  12.828 -20.773 -0.08 +0.00    +0.000 A 
DOCKED: ATOM     13  C   UNL d   1      -5.521  13.124 -19.415 -0.13 +0.01    +0.070 A 
DOCKED: ATOM     14  C   UNL d   1      -6.394  14.290 -22.837 -0.02 +0.01    +0.052 C 
DOCKED: ATOM     15  C   UNL d   1      -4.951  12.486 -17.077 -0.26 +0.00    +0.066 A 
DOCKED: ATOM     16  C   UNL d   1      -4.813  11.496 -16.104 -0.34 +0.00    -0.021 A 
DOCKED: ATOM     17  C   UNL d   1      -4.512  12.155 -14.912 -0.14 -0.00    +0.000 A 
DOCKED: ATOM     18  C   UNL d   1      -4.488  13.515 -15.252 -0.21 +0.00    +0.070 A 
DOCKED: ATOM     19  C   UNL d   1      -5.031  10.031 -16.385 -0.37 -0.01    +0.052 C 
DOCKED: ATOM     20  C   UNL d   1      -4.182  15.939 -14.602 -0.11 +0.01    +0.066 A 
DOCKED: ATOM     21  C   UNL d   1      -3.857  16.936 -13.686 -0.05 -0.00    -0.025 A 
DOCKED: ATOM     22  C   UNL d   1      -3.918  18.129 -14.371 -0.03 -0.00    -0.021 A 
DOCKED: ATOM     23  C   UNL d   1      -4.296  17.816 -15.680 -0.07 +0.02    +0.066 A 
DOCKED: ATOM     24  C   UNL d   1      -3.511  16.760 -12.231 -0.06 +0.00    +0.051 C 
DOCKED: ATOM     25  N   UNL d   1      -5.228  17.261 -18.456 -0.05 -0.14    -0.248 N 
DOCKED: ATOM     26  N   UNL d   1      -5.555  14.460 -19.182 -0.09 -0.07    -0.248 N 
DOCKED: ATOM     27  N   UNL d   1      -4.830  13.702 -16.552 -0.15 -0.03    -0.248 N 
DOCKED: ATOM     28  N   UNL d   1      -4.499  16.489 -15.805 -0.07 -0.06    -0.248 N 
DOCKED: ATOM     29 FE   UNL d   1      -5.023  15.479 -17.479 -0.03 +0.00    +0.000 Fe
DOCKED: ATOM     30  O   UNL d   1      -6.501  15.867 -17.776 -0.06 +0.00    +0.000 OA
DOCKED: ATOM     31  O   UNL d   1      -6.129  15.203 -16.396 -0.07 +0.00    +0.000 OA
DOCKED: ENDROOT
DOCKED: BRANCH   6  32
DOCKED: ATOM     32  C   UNL d   1      -5.270  20.964 -18.794 -0.03 +0.02    +0.052 C 
DOCKED: BRANCH  32  33
DOCKED: ATOM     33  C   UNL d   1      -3.876  21.531 -18.544 -0.03 +0.05    +0.115 C 
DOCKED: BRANCH  33  34
DOCKED: ATOM     34  C   UNL d   1      -2.792  20.691 -19.173 +0.12 +0.16    +0.139 C 
DOCKED: ATOM     35  O   UNL d   1      -2.811  20.483 -20.375 -0.52 -1.11    -0.650 OA
DOCKED: BRANCH  34  36
DOCKED: ATOM     36  O   UNL d   1      -1.812  20.136 -18.430 -0.05 -0.92    -0.776 OA
DOCKED: ATOM     37  H   UNL d   1      -1.892  20.031 -17.475 +0.01 +0.12    +0.167 HD
DOCKED: ENDBRANCH  34  36
DOCKED: ENDBRANCH  33  34
DOCKED: ENDBRANCH  32  33
DOCKED: ENDBRANCH   6  32
DOCKED: BRANCH  22  38
DOCKED: ATOM     38  C   UNL d   1      -3.687  19.495 -13.778 -0.01 +0.01    +0.052 C 
DOCKED: BRANCH  38  39
DOCKED: ATOM     39  C   UNL d   1      -2.840  20.387 -14.682 -0.01 +0.02    +0.115 C 
DOCKED: BRANCH  39  40
DOCKED: ATOM     40  C   UNL d   1      -1.503  19.770 -15.011 -0.02 +0.03    +0.139 C 
DOCKED: ATOM     41  O   UNL d   1      -1.233  18.653 -14.599 +0.02 -0.12    -0.650 OA
DOCKED: BRANCH  40  42
DOCKED: ATOM     42  O   UNL d   1      -0.616  20.410 -15.797 +0.02 -0.19    -0.776 OA
DOCKED: ATOM     43  H   UNL d   1      -0.857  20.729 -16.675 +0.01 +0.06    +0.167 HD
DOCKED: ENDBRANCH  40  42
DOCKED: ENDBRANCH  39  40
DOCKED: ENDBRANCH  38  39
DOCKED: ENDBRANCH  22  38
DOCKED: BRANCH  12  44
DOCKED: ATOM     44  C   UNL d   1      -5.919  11.528 -21.543 -0.08 +0.00    +0.004 C 
DOCKED: ATOM     45  C   UNL d   1      -5.439  10.334 -21.197 -0.16 +0.00    +0.012 C 
DOCKED: ENDBRANCH  12  44
DOCKED: BRANCH  17  46
DOCKED: ATOM     46  C   UNL d   1      -4.311  11.628 -13.516 -0.36 -0.00    +0.004 C 
DOCKED: ATOM     47  C   UNL d   1      -4.870  10.553 -12.948 -0.42 -0.00    +0.012 C 
DOCKED: ENDBRANCH  17  46
DOCKED: TORSDOF 10
DOCKED: TER
DOCKED: ENDMDL
________________________________________________________________________________


	BEGINNING GENETIC ALGORITHM DOCKING 15 of 100
Run: 15 Seed: 641986556 372804288 [ Run 15 of 100 GA/GALS ]
Beginning LAMARCKIAN GENETIC ALGORITHM (LGA), with a maximum of 25000000 energy evaluations.

Final-Value: -10.504


	FINAL GENETIC ALGORITHM DOCKED STATE
	_______________________________________________


Detailed state:  trans -0.139 -14.151 -19.080 quatxyzw 0.097129 0.923133 0.354400 -0.113105 center 8.287 34.468 -0.670 ntor 10 -55.8158 105.9956 63.8364 -64.2154 -56.0893 -69.9651 -47.2965 96.5941 166.2626 180.0000
State:	 -0.139 -14.151 -19.080   0.098  0.929  0.357 -167.011    -55.82  106.00   63.84  -64.22  -56.09  -69.97  -47.30   96.59  166.26  180.00

DOCKED: MODEL       15
DOCKED: USER    Run = 15
DOCKED: USER    DPF = D:/Protein_go_brrr/autodock/final/mut_N102T/heme_O2/dock.dpf
DOCKED: USER  
DOCKED: USER    Estimated Free Energy of Binding    =   -5.47 kcal/mol  [=(1)+(2)+(3)-(4)]
DOCKED: USER    Estimated Inhibition Constant, Ki   =   97.97 uM (micromolar)  [Temperature = 298.15 K]
DOCKED: USER    
DOCKED: USER    (1) Final Intermolecular Energy     =   -8.45 kcal/mol
DOCKED: USER        vdW + Hbond + desolv Energy     =   -6.26 kcal/mol
DOCKED: USER        Electrostatic Energy            =   -2.19 kcal/mol
DOCKED: USER    (2) Final Total Internal Energy     =   -2.05 kcal/mol
DOCKED: USER    (3) Torsional Free Energy           =   +2.98 kcal/mol
DOCKED: USER    (4) Unbound System's Energy  [=(2)] =   -2.05 kcal/mol
DOCKED: USER    
DOCKED: USER    
DOCKED: USER    NEWDPF move heme_O2_opt.pdbqt
DOCKED: USER    NEWDPF about 8.287000 34.468000 -0.670000
DOCKED: USER    NEWDPF tran0 -0.139399 -14.151066 -19.079922
DOCKED: USER    NEWDPF quaternion0 0.097129 0.923133 0.354400 -0.113105
DOCKED: USER    NEWDPF axisangle0 0.097757 0.929095 0.356689 -167.011340
DOCKED: USER    NEWDPF quat0 0.097757 0.929095 0.356689 -167.011340
DOCKED: USER    NEWDPF dihe0 -55.82 106.00 63.84 -64.22 -56.09 -69.97 -47.30 96.59 166.26 180.00 
DOCKED: USER  keepresnum = 1 
DOCKED: USER  
DOCKED: REMARK  10 active torsions:
DOCKED: REMARK  status: ('A' for Active; 'I' for Inactive)
DOCKED: REMARK    1  A    between atoms: C_6  and  C_10 
DOCKED: REMARK    2  A    between atoms: C_10  and  C_11 
DOCKED: REMARK    3  A    between atoms: C_11  and  C_12 
DOCKED: REMARK    4  A    between atoms: C_12  and  O_14 
DOCKED: REMARK    5  A    between atoms: C_17  and  C_20 
DOCKED: REMARK    6  A    between atoms: C_24  and  C_27 
DOCKED: REMARK    7  A    between atoms: C_31  and  C_34 
DOCKED: REMARK    8  A    between atoms: C_34  and  C_35 
DOCKED: REMARK    9  A    between atoms: C_35  and  C_36 
DOCKED: REMARK   10  A    between atoms: C_36  and  O_38 
DOCKED: USER                              x       y       z     vdW  Elec       q    Type
DOCKED: USER                           _______ _______ _______ _____ _____    ______ ____
DOCKED: ROOT
DOCKED: ATOM      1  C   UNL d   1       1.485 -14.703 -17.832 -0.03 +0.01    +0.064 A 
DOCKED: ATOM      2  C   UNL d   1       1.121 -14.044 -22.522 -0.07 +0.00    +0.064 A 
DOCKED: ATOM      3  C   UNL d   1      -3.557 -13.023 -22.109 -0.13 -0.00    +0.064 C 
DOCKED: ATOM      4  C   UNL d   1      -3.087 -13.230 -17.230 -0.25 -0.00    +0.064 A 
DOCKED: ATOM      5  C   UNL d   1       1.768 -14.605 -19.141 -0.03 +0.01    +0.066 A 
DOCKED: ATOM      6  C   UNL d   1       3.030 -14.852 -19.690 -0.02 -0.00    -0.021 A 
DOCKED: ATOM      7  C   UNL d   1       2.936 -14.620 -21.042 -0.03 -0.00    -0.025 A 
DOCKED: ATOM      8  C   UNL d   1       1.608 -14.284 -21.289 -0.06 +0.00    +0.066 A 
DOCKED: ATOM      9  C   UNL d   1       4.092 -14.695 -22.016 -0.02 +0.00    +0.051 C 
DOCKED: ATOM     10  C   UNL d   1      -0.267 -13.710 -22.846 -0.08 -0.00    +0.066 A 
DOCKED: ATOM     11  C   UNL d   1      -0.754 -13.633 -24.155 -0.08 +0.00    -0.021 A 
DOCKED: ATOM     12  C   UNL d   1      -2.105 -13.357 -24.057 -0.09 -0.00    +0.000 A 
DOCKED: ATOM     13  C   UNL d   1      -2.369 -13.268 -22.662 -0.10 -0.00    +0.070 A 
DOCKED: ATOM     14  C   UNL d   1       0.031 -13.840 -25.446 -0.05 -0.00    +0.052 C 
DOCKED: ATOM     15  C   UNL d   1      -3.858 -12.891 -20.704 -0.16 -0.00    +0.066 A 
DOCKED: ATOM     16  C   UNL d   1      -5.087 -12.471 -20.195 -0.16 +0.00    -0.021 A 
DOCKED: ATOM     17  C   UNL d   1      -4.977 -12.522 -18.806 -0.25 -0.00    +0.000 A 
DOCKED: ATOM     18  C   UNL d   1      -3.672 -12.976 -18.568 -0.23 -0.00    +0.070 A 
DOCKED: ATOM     19  C   UNL d   1      -6.226 -12.013 -21.071 -0.10 -0.00    +0.052 C 
DOCKED: ATOM     20  C   UNL d   1      -1.827 -13.624 -16.965 -0.22 -0.00    +0.066 A 
DOCKED: ATOM     21  C   UNL d   1      -1.338 -13.865 -15.684 -0.31 -0.00    -0.025 A 
DOCKED: ATOM     22  C   UNL d   1      -0.045 -14.311 -15.838 -0.15 -0.00    -0.021 A 
DOCKED: ATOM     23  C   UNL d   1       0.215 -14.309 -17.212 -0.07 +0.00    +0.066 A 
DOCKED: ATOM     24  C   UNL d   1      -2.067 -13.675 -14.379 -0.32 +0.00    +0.051 C 
DOCKED: ATOM     25  N   UNL d   1       0.904 -14.212 -20.109 -0.03 -0.01    -0.248 N 
DOCKED: ATOM     26  N   UNL d   1      -1.244 -13.480 -21.933 -0.07 +0.01    -0.248 N 
DOCKED: ATOM     27  N   UNL d   1      -2.984 -13.122 -19.729 -0.13 +0.02    -0.248 N 
DOCKED: ATOM     28  N   UNL d   1      -0.856 -13.848 -17.890 -0.07 +0.00    -0.248 N 
DOCKED: ATOM     29 FE   UNL d   1      -1.051 -13.664 -19.896 -0.03 -0.00    +0.000 Fe
DOCKED: ATOM     30  O   UNL d   1      -0.114 -12.495 -20.319 -0.29 -0.00    +0.000 OA
DOCKED: ATOM     31  O   UNL d   1      -1.260 -12.237 -19.269 -0.31 -0.00    +0.000 OA
DOCKED: ENDROOT
DOCKED: BRANCH   6  32
DOCKED: ATOM     32  C   UNL d   1       4.310 -15.160 -18.958 -0.02 +0.01    +0.052 C 
DOCKED: BRANCH  32  33
DOCKED: ATOM     33  C   UNL d   1       5.321 -14.019 -19.025 -0.04 +0.05    +0.115 C 
DOCKED: BRANCH  33  34
DOCKED: ATOM     34  C   UNL d   1       5.876 -13.662 -17.668 -0.02 +0.12    +0.139 C 
DOCKED: ATOM     35  O   UNL d   1       6.988 -13.166 -17.583 -0.13 -0.60    -0.650 OA
DOCKED: BRANCH  34  36
DOCKED: ATOM     36  O   UNL d   1       5.181 -13.905 -16.538 +0.03 -0.79    -0.776 OA
DOCKED: ATOM     37  H   UNL d   1       4.288 -13.566 -16.404 +0.02 +0.21    +0.167 HD
DOCKED: ENDBRANCH  34  36
DOCKED: ENDBRANCH  33  34
DOCKED: ENDBRANCH  32  33
DOCKED: ENDBRANCH   6  32
DOCKED: BRANCH  22  38
DOCKED: ATOM     38  C   UNL d   1       0.904 -14.657 -14.719 -0.21 +0.00    +0.052 C 
DOCKED: BRANCH  38  39
DOCKED: ATOM     39  C   UNL d   1       1.515 -13.417 -14.070 -0.29 +0.02    +0.115 C 
DOCKED: BRANCH  39  40
DOCKED: ATOM     40  C   UNL d   1       2.728 -12.916 -14.813 -0.24 +0.10    +0.139 C 
DOCKED: ATOM     41  O   UNL d   1       2.589 -12.327 -15.872 -0.35 -0.69    -0.650 OA
DOCKED: BRANCH  40  42
DOCKED: ATOM     42  O   UNL d   1       3.966 -13.061 -14.302 -0.33 -0.76    -0.776 OA
DOCKED: ATOM     43  H   UNL d   1       4.598 -13.684 -14.679 +0.04 +0.12    +0.167 HD
DOCKED: ENDBRANCH  40  42
DOCKED: ENDBRANCH  39  40
DOCKED: ENDBRANCH  38  39
DOCKED: ENDBRANCH  22  38
DOCKED: BRANCH  12  44
DOCKED: ATOM     44  C   UNL d   1      -2.986 -13.206 -25.280 -0.06 -0.00    +0.004 C 
DOCKED: ATOM     45  C   UNL d   1      -3.704 -12.145 -25.645 -0.06 -0.00    +0.012 C 
DOCKED: ENDBRANCH  12  44
DOCKED: BRANCH  17  46
DOCKED: ATOM     46  C   UNL d   1      -5.948 -12.134 -17.723 -0.31 +0.00    +0.004 C 
DOCKED: ATOM     47  C   UNL d   1      -6.341 -10.905 -17.363 -0.36 +0.00    +0.012 C 
DOCKED: ENDBRANCH  17  46
DOCKED: TORSDOF 10
DOCKED: TER
DOCKED: ENDMDL
________________________________________________________________________________


	BEGINNING GENETIC ALGORITHM DOCKING 16 of 100
Run: 16 Seed: 1378574706 1432860518 [ Run 16 of 100 GA/GALS ]
Beginning LAMARCKIAN GENETIC ALGORITHM (LGA), with a maximum of 25000000 energy evaluations.

Final-Value: -9.431


	FINAL GENETIC ALGORITHM DOCKED STATE
	_______________________________________________


Detailed state:  trans 9.901 10.844 -16.225 quatxyzw -0.036432 -0.397062 0.852799 -0.337267 center 8.287 34.468 -0.670 ntor 10 152.0608 38.5307 -29.4101 -62.7450 -177.4789 -50.5423 -84.7816 135.0534 -172.9566 -163.7072
State:	  9.901  10.844 -16.225  -0.039 -0.422  0.906 -140.579    152.06   38.53  -29.41  -62.74 -177.48  -50.54  -84.78  135.05 -172.96 -163.71

DOCKED: MODEL       16
DOCKED: USER    Run = 16
DOCKED: USER    DPF = D:/Protein_go_brrr/autodock/final/mut_N102T/heme_O2/dock.dpf
DOCKED: USER  
DOCKED: USER    Estimated Free Energy of Binding    =   -4.14 kcal/mol  [=(1)+(2)+(3)-(4)]
DOCKED: USER    Estimated Inhibition Constant, Ki   =  920.17 uM (micromolar)  [Temperature = 298.15 K]
DOCKED: USER    
DOCKED: USER    (1) Final Intermolecular Energy     =   -7.13 kcal/mol
DOCKED: USER        vdW + Hbond + desolv Energy     =   -5.92 kcal/mol
DOCKED: USER        Electrostatic Energy            =   -1.20 kcal/mol
DOCKED: USER    (2) Final Total Internal Energy     =   -2.31 kcal/mol
DOCKED: USER    (3) Torsional Free Energy           =   +2.98 kcal/mol
DOCKED: USER    (4) Unbound System's Energy  [=(2)] =   -2.31 kcal/mol
DOCKED: USER    
DOCKED: USER    
DOCKED: USER    NEWDPF move heme_O2_opt.pdbqt
DOCKED: USER    NEWDPF about 8.287000 34.468000 -0.670000
DOCKED: USER    NEWDPF tran0 9.901385 10.844368 -16.225249
DOCKED: USER    NEWDPF quaternion0 -0.036432 -0.397062 0.852799 -0.337267
DOCKED: USER    NEWDPF axisangle0 -0.038699 -0.421774 0.905875 -140.579107
DOCKED: USER    NEWDPF quat0 -0.038699 -0.421774 0.905875 -140.579107
DOCKED: USER    NEWDPF dihe0 152.06 38.53 -29.41 -62.74 -177.48 -50.54 -84.78 135.05 -172.96 -163.71 
DOCKED: USER  keepresnum = 1 
DOCKED: USER  
DOCKED: REMARK  10 active torsions:
DOCKED: REMARK  status: ('A' for Active; 'I' for Inactive)
DOCKED: REMARK    1  A    between atoms: C_6  and  C_10 
DOCKED: REMARK    2  A    between atoms: C_10  and  C_11 
DOCKED: REMARK    3  A    between atoms: C_11  and  C_12 
DOCKED: REMARK    4  A    between atoms: C_12  and  O_14 
DOCKED: REMARK    5  A    between atoms: C_17  and  C_20 
DOCKED: REMARK    6  A    between atoms: C_24  and  C_27 
DOCKED: REMARK    7  A    between atoms: C_31  and  C_34 
DOCKED: REMARK    8  A    between atoms: C_34  and  C_35 
DOCKED: REMARK    9  A    between atoms: C_35  and  C_36 
DOCKED: REMARK   10  A    between atoms: C_36  and  O_38 
DOCKED: USER                              x       y       z     vdW  Elec       q    Type
DOCKED: USER                           _______ _______ _______ _____ _____    ______ ____
DOCKED: ROOT
DOCKED: ATOM      1  C   UNL d   1      11.276   9.961 -17.578 -0.09 +0.01    +0.064 A 
DOCKED: ATOM      2  C   UNL d   1      10.638   9.499 -12.894 -0.10 -0.01    +0.064 A 
DOCKED: ATOM      3  C   UNL d   1       7.045  12.689 -12.975 -0.24 -0.02    +0.064 C 
DOCKED: ATOM      4  C   UNL d   1       7.376  12.816 -17.868 +0.02 -0.04    +0.064 A 
DOCKED: ATOM      5  C   UNL d   1      11.395   9.574 -16.298 -0.12 +0.01    +0.066 A 
DOCKED: ATOM      6  C   UNL d   1      12.351   8.662 -15.841 -0.14 -0.00    -0.021 A 
DOCKED: ATOM      7  C   UNL d   1      12.139   8.494 -14.493 -0.17 +0.00    -0.025 A 
DOCKED: ATOM      8  C   UNL d   1      11.090   9.345 -14.154 -0.19 -0.00    +0.066 A 
DOCKED: ATOM      9  C   UNL d   1      12.904   7.534 -13.609 -0.17 -0.01    +0.051 C 
DOCKED: ATOM     10  C   UNL d   1       9.558  10.392 -12.474 -0.22 -0.02    +0.066 A 
DOCKED: ATOM     11  C   UNL d   1       9.238  10.635 -11.134 -0.26 +0.01    -0.021 A 
DOCKED: ATOM     12  C   UNL d   1       8.216  11.567 -11.136 -0.27 -0.00    +0.000 A 
DOCKED: ATOM     13  C   UNL d   1       7.956  11.836 -12.508 -0.20 -0.02    +0.070 A 
DOCKED: ATOM     14  C   UNL d   1       9.897  10.026  -9.902 -0.34 -0.02    +0.052 C 
DOCKED: ATOM     15  C   UNL d   1       6.728  12.964 -14.356 -0.18 -0.03    +0.066 A 
DOCKED: ATOM     16  C   UNL d   1       5.653  13.744 -14.780 -0.19 +0.01    -0.021 A 
DOCKED: ATOM     17  C   UNL d   1       5.726  13.794 -16.172 -0.13 -0.00    +0.000 A 
DOCKED: ATOM     18  C   UNL d   1       6.857  13.031 -16.497 +0.07 -0.05    +0.070 A 
DOCKED: ATOM     19  C   UNL d   1       4.631  14.321 -13.833 -0.22 -0.02    +0.052 C 
DOCKED: ATOM     20  C   UNL d   1       8.432  12.055 -18.219 -0.09 -0.02    +0.066 A 
DOCKED: ATOM     21  C   UNL d   1       8.885  11.905 -19.526 -0.06 +0.00    -0.025 A 
DOCKED: ATOM     22  C   UNL d   1      10.012  11.117 -19.460 -0.05 -0.00    -0.021 A 
DOCKED: ATOM     23  C   UNL d   1      10.195  10.799 -18.110 -0.09 +0.01    +0.066 A 
DOCKED: ATOM     24  C   UNL d   1       8.272  12.481 -20.776 -0.03 -0.00    +0.051 C 
DOCKED: ATOM     25  N   UNL d   1      10.590   9.961 -15.278 -0.12 -0.00    -0.248 N 
DOCKED: ATOM     26  N   UNL d   1       8.774  11.113 -13.316 -0.13 +0.06    -0.248 N 
DOCKED: ATOM     27  N   UNL d   1       7.408  12.474 -15.389 -0.08 +0.14    -0.248 N 
DOCKED: ATOM     28  N   UNL d   1       9.206  11.335 -17.365 -0.09 +0.03    -0.248 N 
DOCKED: ATOM     29 FE   UNL d   1       8.989  11.226 -15.355 -0.03 -0.00    +0.000 Fe
DOCKED: ATOM     30  O   UNL d   1       8.608   9.751 -15.038 -0.29 -0.00    +0.000 OA
DOCKED: ATOM     31  O   UNL d   1       7.700  10.602 -16.003 -0.31 -0.00    +0.000 OA
DOCKED: ENDROOT
DOCKED: BRANCH   6  32
DOCKED: ATOM     32  C   UNL d   1      13.338   7.872 -16.661 -0.10 +0.00    +0.052 C 
DOCKED: BRANCH  32  33
DOCKED: ATOM     33  C   UNL d   1      12.781   6.531 -17.128 -0.14 +0.01    +0.115 C 
DOCKED: BRANCH  33  34
DOCKED: ATOM     34  C   UNL d   1      12.154   6.614 -18.498 -0.10 +0.03    +0.139 C 
DOCKED: ATOM     35  O   UNL d   1      12.595   7.405 -19.316 +0.01 -0.09    -0.650 OA
DOCKED: BRANCH  34  36
DOCKED: ATOM     36  O   UNL d   1      11.093   5.851 -18.833 +0.04 -0.30    -0.776 OA
DOCKED: ATOM     37  H   UNL d   1      10.452   6.131 -19.497 +0.03 +0.10    +0.167 HD
DOCKED: ENDBRANCH  34  36
DOCKED: ENDBRANCH  33  34
DOCKED: ENDBRANCH  32  33
DOCKED: ENDBRANCH   6  32
DOCKED: BRANCH  22  38
DOCKED: ATOM     38  C   UNL d   1      10.825  10.645 -20.637 -0.02 +0.00    +0.052 C 
DOCKED: BRANCH  38  39
DOCKED: ATOM     39  C   UNL d   1      10.015   9.768 -21.590 -0.02 +0.02    +0.115 C 
DOCKED: BRANCH  39  40
DOCKED: ATOM     40  C   UNL d   1       9.210   8.719 -20.864 -0.04 +0.08    +0.139 C 
DOCKED: ATOM     41  O   UNL d   1       8.049   8.945 -20.566 -0.03 -0.57    -0.650 OA
DOCKED: BRANCH  40  42
DOCKED: ATOM     42  O   UNL d   1       9.736   7.511 -20.580 -0.05 -0.55    -0.776 OA
DOCKED: ATOM     43  H   UNL d   1      10.644   7.417 -20.268 +0.02 +0.08    +0.167 HD
DOCKED: ENDBRANCH  40  42
DOCKED: ENDBRANCH  39  40
DOCKED: ENDBRANCH  38  39
DOCKED: ENDBRANCH  22  38
DOCKED: BRANCH  12  44
DOCKED: ATOM     44  C   UNL d   1       7.602  12.090  -9.854 -0.33 -0.00    +0.004 C 
DOCKED: ATOM     45  C   UNL d   1       7.124  13.310  -9.614 -0.26 -0.00    +0.012 C 
DOCKED: ENDBRANCH  12  44
DOCKED: BRANCH  17  46
DOCKED: ATOM     46  C   UNL d   1       4.816  14.431 -17.188 -0.15 -0.00    +0.004 C 
DOCKED: ATOM     47  C   UNL d   1       3.574  14.066 -17.531 -0.28 -0.00    +0.012 C 
DOCKED: ENDBRANCH  17  46
DOCKED: TORSDOF 10
DOCKED: TER
DOCKED: ENDMDL
________________________________________________________________________________


	BEGINNING GENETIC ALGORITHM DOCKING 17 of 100
Run: 17 Seed: 1732578769 703485345 [ Run 17 of 100 GA/GALS ]
Beginning LAMARCKIAN GENETIC ALGORITHM (LGA), with a maximum of 25000000 energy evaluations.

Final-Value: -8.939


	FINAL GENETIC ALGORITHM DOCKED STATE
	_______________________________________________


Detailed state:  trans 12.596 -6.612 4.448 quatxyzw 0.026686 0.483494 -0.776495 -0.403209 center 8.287 34.468 -0.670 ntor 10 -178.3850 96.3038 155.5360 88.6726 172.3700 11.4327 -79.8210 48.5667 -151.5300 -162.8535
State:	 12.596  -6.612   4.448   0.029  0.528 -0.849 -132.442   -178.38   96.30  155.54   88.67  172.37   11.43  -79.82   48.57 -151.53 -162.85

DOCKED: MODEL       17
DOCKED: USER    Run = 17
DOCKED: USER    DPF = D:/Protein_go_brrr/autodock/final/mut_N102T/heme_O2/dock.dpf
DOCKED: USER  
DOCKED: USER    Estimated Free Energy of Binding    =   -3.66 kcal/mol  [=(1)+(2)+(3)-(4)]
DOCKED: USER    Estimated Inhibition Constant, Ki   =    2.07 mM (millimolar)  [Temperature = 298.15 K]
DOCKED: USER    
DOCKED: USER    (1) Final Intermolecular Energy     =   -6.64 kcal/mol
DOCKED: USER        vdW + Hbond + desolv Energy     =   -6.39 kcal/mol
DOCKED: USER        Electrostatic Energy            =   -0.26 kcal/mol
DOCKED: USER    (2) Final Total Internal Energy     =   -2.29 kcal/mol
DOCKED: USER    (3) Torsional Free Energy           =   +2.98 kcal/mol
DOCKED: USER    (4) Unbound System's Energy  [=(2)] =   -2.29 kcal/mol
DOCKED: USER    
DOCKED: USER    
DOCKED: USER    NEWDPF move heme_O2_opt.pdbqt
DOCKED: USER    NEWDPF about 8.287000 34.468000 -0.670000
DOCKED: USER    NEWDPF tran0 12.596433 -6.611904 4.448480
DOCKED: USER    NEWDPF quaternion0 0.026686 0.483494 -0.776495 -0.403209
DOCKED: USER    NEWDPF axisangle0 0.029161 0.528346 -0.848528 -132.442086
DOCKED: USER    NEWDPF quat0 0.029161 0.528346 -0.848528 -132.442086
DOCKED: USER    NEWDPF dihe0 -178.38 96.30 155.54 88.67 172.37 11.43 -79.82 48.57 -151.53 -162.85 
DOCKED: USER  keepresnum = 1 
DOCKED: USER  
DOCKED: REMARK  10 active torsions:
DOCKED: REMARK  status: ('A' for Active; 'I' for Inactive)
DOCKED: REMARK    1  A    between atoms: C_6  and  C_10 
DOCKED: REMARK    2  A    between atoms: C_10  and  C_11 
DOCKED: REMARK    3  A    between atoms: C_11  and  C_12 
DOCKED: REMARK    4  A    between atoms: C_12  and  O_14 
DOCKED: REMARK    5  A    between atoms: C_17  and  C_20 
DOCKED: REMARK    6  A    between atoms: C_24  and  C_27 
DOCKED: REMARK    7  A    between atoms: C_31  and  C_34 
DOCKED: REMARK    8  A    between atoms: C_34  and  C_35 
DOCKED: REMARK    9  A    between atoms: C_35  and  C_36 
DOCKED: REMARK   10  A    between atoms: C_36  and  O_38 
DOCKED: USER                              x       y       z     vdW  Elec       q    Type
DOCKED: USER                           _______ _______ _______ _____ _____    ______ ____
DOCKED: ROOT
DOCKED: ATOM      1  C   UNL d   1      13.969  -4.996   4.391 -0.11 +0.02    +0.064 A 
DOCKED: ATOM      2  C   UNL d   1      12.692  -7.999   7.842 -0.08 +0.04    +0.064 A 
DOCKED: ATOM      3  C   UNL d   1       9.576 -10.188   4.910 -0.29 +0.01    +0.064 C 
DOCKED: ATOM      4  C   UNL d   1      11.228  -7.414   1.217 -0.18 -0.04    +0.064 A 
DOCKED: ATOM      5  C   UNL d   1      13.878  -5.636   5.568 -0.03 +0.04    +0.066 A 
DOCKED: ATOM      6  C   UNL d   1      14.609  -5.287   6.708 -0.09 -0.01    -0.021 A 
DOCKED: ATOM      7  C   UNL d   1      14.272  -6.183   7.695 -0.06 -0.02    -0.025 A 
DOCKED: ATOM      8  C   UNL d   1      13.308  -7.024   7.146 -0.05 +0.05    +0.066 A 
DOCKED: ATOM      9  C   UNL d   1      14.887  -6.221   9.077 -0.05 +0.03    +0.051 C 
DOCKED: ATOM     10  C   UNL d   1      11.657  -8.898   7.327 -0.10 +0.03    +0.066 A 
DOCKED: ATOM     11  C   UNL d   1      10.935  -9.783   8.136 -0.15 -0.01    -0.021 A 
DOCKED: ATOM     12  C   UNL d   1      10.019 -10.410   7.311 -0.28 +0.00    +0.000 A 
DOCKED: ATOM     13  C   UNL d   1      10.248  -9.869   6.016 -0.21 +0.01    +0.070 A 
DOCKED: ATOM     14  C   UNL d   1      11.093 -10.000   9.636 -0.14 +0.02    +0.052 C 
DOCKED: ATOM     15  C   UNL d   1       9.801  -9.690   3.574 -0.22 +0.00    +0.066 A 
DOCKED: ATOM     16  C   UNL d   1       9.174 -10.184   2.430 -0.32 +0.00    -0.021 A 
DOCKED: ATOM     17  C   UNL d   1       9.630  -9.409   1.365 -0.30 -0.00    +0.000 A 
DOCKED: ATOM     18  C   UNL d   1      10.511  -8.486   1.946 -0.18 -0.02    +0.070 A 
DOCKED: ATOM     19  C   UNL d   1       8.249 -11.375   2.449 -0.49 -0.00    +0.052 C 
DOCKED: ATOM     20  C   UNL d   1      12.112  -6.540   1.736 -0.17 -0.02    +0.066 A 
DOCKED: ATOM     21  C   UNL d   1      12.743  -5.539   1.002 -0.22 +0.01    -0.025 A 
DOCKED: ATOM     22  C   UNL d   1      13.507  -4.823   1.895 -0.15 +0.00    -0.021 A 
DOCKED: ATOM     23  C   UNL d   1      13.328  -5.427   3.144 -0.12 +0.01    +0.066 A 
DOCKED: ATOM     24  C   UNL d   1      12.625  -5.281  -0.478 -0.19 -0.05    +0.051 C 
DOCKED: ATOM     25  N   UNL d   1      13.113  -6.727   5.817 -0.07 -0.15    -0.248 N 
DOCKED: ATOM     26  N   UNL d   1      11.249  -8.953   6.034 -0.07 -0.07    -0.248 N 
DOCKED: ATOM     27  N   UNL d   1      10.660  -8.720   3.275 -0.07 +0.01    -0.248 N 
DOCKED: ATOM     28  N   UNL d   1      12.515  -6.498   3.034 -0.06 -0.00    -0.248 N 
DOCKED: ATOM     29 FE   UNL d   1      11.885  -7.718   4.521 -0.02 +0.00    +0.000 Fe
DOCKED: ATOM     30  O   UNL d   1      13.129  -8.543   4.962 -0.05 +0.00    +0.000 OA
DOCKED: ATOM     31  O   UNL d   1      12.639  -8.609   3.467 -0.06 -0.00    +0.000 OA
DOCKED: ENDROOT
DOCKED: BRANCH   6  32
DOCKED: ATOM     32  C   UNL d   1      15.686  -4.241   6.829 -0.07 +0.02    +0.052 C 
DOCKED: BRANCH  32  33
DOCKED: ATOM     33  C   UNL d   1      16.948  -4.597   6.049 -0.02 +0.02    +0.115 C 
DOCKED: BRANCH  33  34
DOCKED: ATOM     34  C   UNL d   1      17.003  -3.919   4.702 -0.02 +0.02    +0.139 C 
DOCKED: ATOM     35  O   UNL d   1      16.339  -2.914   4.505 +0.02 -0.12    -0.650 OA
DOCKED: BRANCH  34  36
DOCKED: ATOM     36  O   UNL d   1      17.750  -4.416   3.695 +0.01 -0.05    -0.776 OA
DOCKED: ATOM     37  H   UNL d   1      17.812  -3.975   2.839 +0.01 +0.01    +0.167 HD
DOCKED: ENDBRANCH  34  36
DOCKED: ENDBRANCH  33  34
DOCKED: ENDBRANCH  32  33
DOCKED: ENDBRANCH   6  32
DOCKED: BRANCH  22  38
DOCKED: ATOM     38  C   UNL d   1      14.407  -3.665   1.551 -0.14 -0.00    +0.052 C 
DOCKED: BRANCH  38  39
DOCKED: ATOM     39  C   UNL d   1      15.516  -4.059   0.577 -0.04 -0.01    +0.115 C 
DOCKED: BRANCH  39  40
DOCKED: ATOM     40  C   UNL d   1      16.871  -3.561   1.015 -0.01 -0.00    +0.139 C 
DOCKED: ATOM     41  O   UNL d   1      17.879  -4.129   0.626 +0.01 +0.02    -0.650 OA
DOCKED: BRANCH  40  42
DOCKED: ATOM     42  O   UNL d   1      16.993  -2.466   1.789 +0.04 -0.05    -0.776 OA
DOCKED: ATOM     43  H   UNL d   1      17.124  -2.534   2.743 +0.02 +0.02    +0.167 HD
DOCKED: ENDBRANCH  40  42
DOCKED: ENDBRANCH  39  40
DOCKED: ENDBRANCH  38  39
DOCKED: ENDBRANCH  22  38
DOCKED: BRANCH  12  44
DOCKED: ATOM     44  C   UNL d   1       9.043 -11.443   7.834 -0.32 +0.00    +0.004 C 
DOCKED: ATOM     45  C   UNL d   1       9.199 -12.268   8.869 -0.25 +0.00    +0.012 C 
DOCKED: ENDBRANCH  12  44
DOCKED: BRANCH  17  46
DOCKED: ATOM     46  C   UNL d   1       9.357  -9.502  -0.113 -0.45 -0.00    +0.004 C 
DOCKED: ATOM     47  C   UNL d   1       8.302  -9.033  -0.792 -0.58 -0.01    +0.012 C 
DOCKED: ENDBRANCH  17  46
DOCKED: TORSDOF 10
DOCKED: TER
DOCKED: ENDMDL
________________________________________________________________________________


	BEGINNING GENETIC ALGORITHM DOCKING 18 of 100
Run: 18 Seed: 92127313 298847067 [ Run 18 of 100 GA/GALS ]
Beginning LAMARCKIAN GENETIC ALGORITHM (LGA), with a maximum of 25000000 energy evaluations.

Final-Value: -9.034


	FINAL GENETIC ALGORITHM DOCKED STATE
	_______________________________________________


Detailed state:  trans -12.056 6.352 4.812 quatxyzw 0.160033 -0.538123 0.291493 -0.774496 center 8.287 34.468 -0.670 ntor 10 -12.0957 2.6442 29.1537 134.9490 55.3071 113.2745 -121.0963 -147.9573 15.0269 148.1012
State:	-12.056   6.352   4.812   0.253 -0.851  0.461 -78.481    -12.10    2.64   29.15  134.95   55.31  113.27 -121.10 -147.96   15.03  148.10

DOCKED: MODEL       18
DOCKED: USER    Run = 18
DOCKED: USER    DPF = D:/Protein_go_brrr/autodock/final/mut_N102T/heme_O2/dock.dpf
DOCKED: USER  
DOCKED: USER    Estimated Free Energy of Binding    =   -5.19 kcal/mol  [=(1)+(2)+(3)-(4)]
DOCKED: USER    Estimated Inhibition Constant, Ki   =  157.08 uM (micromolar)  [Temperature = 298.15 K]
DOCKED: USER    
DOCKED: USER    (1) Final Intermolecular Energy     =   -8.17 kcal/mol
DOCKED: USER        vdW + Hbond + desolv Energy     =   -7.12 kcal/mol
DOCKED: USER        Electrostatic Energy            =   -1.05 kcal/mol
DOCKED: USER    (2) Final Total Internal Energy     =   -0.86 kcal/mol
DOCKED: USER    (3) Torsional Free Energy           =   +2.98 kcal/mol
DOCKED: USER    (4) Unbound System's Energy  [=(2)] =   -0.86 kcal/mol
DOCKED: USER    
DOCKED: USER    
DOCKED: USER    NEWDPF move heme_O2_opt.pdbqt
DOCKED: USER    NEWDPF about 8.287000 34.468000 -0.670000
DOCKED: USER    NEWDPF tran0 -12.055635 6.351514 4.812217
DOCKED: USER    NEWDPF quaternion0 0.160033 -0.538123 0.291493 -0.774496
DOCKED: USER    NEWDPF axisangle0 0.252985 -0.850682 0.460801 -78.481227
DOCKED: USER    NEWDPF quat0 0.252985 -0.850682 0.460801 -78.481227
DOCKED: USER    NEWDPF dihe0 -12.10 2.64 29.15 134.95 55.31 113.27 -121.10 -147.96 15.03 148.10 
DOCKED: USER  keepresnum = 1 
DOCKED: USER  
DOCKED: REMARK  10 active torsions:
DOCKED: REMARK  status: ('A' for Active; 'I' for Inactive)
DOCKED: REMARK    1  A    between atoms: C_6  and  C_10 
DOCKED: REMARK    2  A    between atoms: C_10  and  C_11 
DOCKED: REMARK    3  A    between atoms: C_11  and  C_12 
DOCKED: REMARK    4  A    between atoms: C_12  and  O_14 
DOCKED: REMARK    5  A    between atoms: C_17  and  C_20 
DOCKED: REMARK    6  A    between atoms: C_24  and  C_27 
DOCKED: REMARK    7  A    between atoms: C_31  and  C_34 
DOCKED: REMARK    8  A    between atoms: C_34  and  C_35 
DOCKED: REMARK    9  A    between atoms: C_35  and  C_36 
DOCKED: REMARK   10  A    between atoms: C_36  and  O_38 
DOCKED: USER                              x       y       z     vdW  Elec       q    Type
DOCKED: USER                           _______ _______ _______ _____ _____    ______ ____
DOCKED: ROOT
DOCKED: ATOM      1  C   UNL d   1     -12.308   6.747   2.744 -0.08 +0.01    +0.064 A 
DOCKED: ATOM      2  C   UNL d   1     -13.056   2.870   5.382 -0.13 -0.00    +0.064 A 
DOCKED: ATOM      3  C   UNL d   1     -11.528   5.148   9.328 -0.14 -0.00    +0.064 C 
DOCKED: ATOM      4  C   UNL d   1     -11.206   9.287   6.715 -0.20 -0.01    +0.064 A 
DOCKED: ATOM      5  C   UNL d   1     -12.638   5.507   3.140 -0.13 +0.01    +0.066 A 
DOCKED: ATOM      6  C   UNL d   1     -13.109   4.511   2.281 -0.10 -0.00    -0.021 A 
DOCKED: ATOM      7  C   UNL d   1     -13.367   3.401   3.051 -0.11 -0.00    -0.025 A 
DOCKED: ATOM      8  C   UNL d   1     -13.001   3.735   4.351 -0.13 +0.00    +0.066 A 
DOCKED: ATOM      9  C   UNL d   1     -13.965   2.110   2.535 -0.07 +0.01    +0.051 C 
DOCKED: ATOM     10  C   UNL d   1     -12.665   3.155   6.763 -0.16 -0.00    +0.066 A 
DOCKED: ATOM     11  C   UNL d   1     -12.587   2.176   7.759 -0.18 +0.00    -0.021 A 
DOCKED: ATOM     12  C   UNL d   1     -12.131   2.809   8.900 -0.23 -0.00    +0.000 A 
DOCKED: ATOM     13  C   UNL d   1     -11.964   4.173   8.531 -0.23 -0.00    +0.070 A 
DOCKED: ATOM     14  C   UNL d   1     -12.908   0.692   7.621 -0.17 -0.01    +0.052 C 
DOCKED: ATOM     15  C   UNL d   1     -11.379   6.545   9.003 -0.28 -0.00    +0.066 A 
DOCKED: ATOM     16  C   UNL d   1     -11.075   7.545   9.927 -0.29 +0.00    -0.021 A 
DOCKED: ATOM     17  C   UNL d   1     -10.979   8.734   9.205 -0.25 -0.00    +0.000 A 
DOCKED: ATOM     18  C   UNL d   1     -11.233   8.366   7.876 -0.24 -0.01    +0.070 A 
DOCKED: ATOM     19  C   UNL d   1     -10.960   7.287  11.409 -0.29 +0.00    +0.052 C 
DOCKED: ATOM     20  C   UNL d   1     -11.486   8.976   5.435 -0.21 -0.01    +0.066 A 
DOCKED: ATOM     21  C   UNL d   1     -11.427   9.883   4.381 -0.16 +0.00    -0.025 A 
DOCKED: ATOM     22  C   UNL d   1     -11.712   9.171   3.237 -0.14 +0.00    -0.021 A 
DOCKED: ATOM     23  C   UNL d   1     -11.953   7.854   3.640 -0.16 +0.00    +0.066 A 
DOCKED: ATOM     24  C   UNL d   1     -11.118  11.356   4.461 -0.12 -0.00    +0.051 C 
DOCKED: ATOM     25  N   UNL d   1     -12.614   5.053   4.417 -0.11 -0.02    -0.248 N 
DOCKED: ATOM     26  N   UNL d   1     -12.295   4.375   7.230 -0.13 +0.00    -0.248 N 
DOCKED: ATOM     27  N   UNL d   1     -11.547   7.049   7.783 -0.16 +0.02    -0.248 N 
DOCKED: ATOM     28  N   UNL d   1     -11.859   7.750   4.982 -0.11 +0.00    -0.248 N 
DOCKED: ATOM     29 FE   UNL d   1     -12.075   6.076   6.100 -0.05 +0.00    +0.000 Fe
DOCKED: ATOM     30  O   UNL d   1     -13.587   5.709   6.045 -0.10 -0.00    +0.000 OA
DOCKED: ATOM     31  O   UNL d   1     -13.145   7.117   6.596 -0.12 -0.00    +0.000 OA
DOCKED: ENDROOT
DOCKED: BRANCH   6  32
DOCKED: ATOM     32  C   UNL d   1     -13.436   4.634   0.815 -0.05 +0.01    +0.052 C 
DOCKED: BRANCH  32  33
DOCKED: ATOM     33  C   UNL d   1     -12.316   4.127  -0.087 -0.10 +0.03    +0.115 C 
DOCKED: BRANCH  33  34
DOCKED: ATOM     34  C   UNL d   1     -11.946   2.694   0.205 -0.13 +0.09    +0.139 C 
DOCKED: ATOM     35  O   UNL d   1     -11.011   2.452   0.951 -0.34 -0.49    -0.650 OA
DOCKED: BRANCH  34  36
DOCKED: ATOM     36  O   UNL d   1     -12.610   1.666  -0.363 -0.45 -0.77    -0.776 OA
DOCKED: ATOM     37  H   UNL d   1     -13.440   1.794  -0.837 +0.02 +0.09    +0.167 HD
DOCKED: ENDBRANCH  34  36
DOCKED: ENDBRANCH  33  34
DOCKED: ENDBRANCH  32  33
DOCKED: ENDBRANCH   6  32
DOCKED: BRANCH  22  38
DOCKED: ATOM     38  C   UNL d   1     -11.809   9.744   1.847 -0.07 -0.00    +0.052 C 
DOCKED: BRANCH  38  39
DOCKED: ATOM     39  C   UNL d   1     -13.242   9.755   1.321 -0.01 -0.00    +0.115 C 
DOCKED: BRANCH  39  40
DOCKED: ATOM     40  C   UNL d   1     -14.259   9.924   2.422 -0.01 -0.00    +0.139 C 
DOCKED: ATOM     41  O   UNL d   1     -14.881   8.955   2.826 +0.01 +0.00    -0.650 OA
DOCKED: BRANCH  40  42
DOCKED: ATOM     42  O   UNL d   1     -14.459  11.121   3.006 +0.01 +0.02    -0.776 OA
DOCKED: ATOM     43  H   UNL d   1     -14.017  11.918   2.689 +0.00 -0.00    +0.167 HD
DOCKED: ENDBRANCH  40  42
DOCKED: ENDBRANCH  39  40
DOCKED: ENDBRANCH  38  39
DOCKED: ENDBRANCH  22  38
DOCKED: BRANCH  12  44
DOCKED: ATOM     44  C   UNL d   1     -11.909   2.064  10.200 -0.27 -0.00    +0.004 C 
DOCKED: ATOM     45  C   UNL d   1     -11.921   2.556  11.438 -0.24 -0.00    +0.012 C 
DOCKED: ENDBRANCH  12  44
DOCKED: BRANCH  17  46
DOCKED: ATOM     46  C   UNL d   1     -10.734  10.148   9.659 -0.23 -0.00    +0.004 C 
DOCKED: ATOM     47  C   UNL d   1      -9.819  11.016   9.209 -0.26 -0.00    +0.012 C 
DOCKED: ENDBRANCH  17  46
DOCKED: TORSDOF 10
DOCKED: TER
DOCKED: ENDMDL
________________________________________________________________________________


	BEGINNING GENETIC ALGORITHM DOCKING 19 of 100
Run: 19 Seed: 2010060818 1264412845 [ Run 19 of 100 GA/GALS ]
Beginning LAMARCKIAN GENETIC ALGORITHM (LGA), with a maximum of 25000000 energy evaluations.

Final-Value: -9.910


	FINAL GENETIC ALGORITHM DOCKED STATE
	_______________________________________________


Detailed state:  trans 12.137 -8.011 7.039 quatxyzw 0.660274 0.531490 -0.335711 -0.410920 center 8.287 34.468 -0.670 ntor 10 -25.6110 53.7806 -71.9294 113.0759 -179.8013 96.6438 49.0135 -118.3974 157.1788 -46.3351
State:	 12.137  -8.011   7.039   0.724  0.583 -0.368 -131.475    -25.61   53.78  -71.93  113.08 -179.80   96.64   49.01 -118.40  157.18  -46.34

DOCKED: MODEL       19
DOCKED: USER    Run = 19
DOCKED: USER    DPF = D:/Protein_go_brrr/autodock/final/mut_N102T/heme_O2/dock.dpf
DOCKED: USER  
DOCKED: USER    Estimated Free Energy of Binding    =   -6.32 kcal/mol  [=(1)+(2)+(3)-(4)]
DOCKED: USER    Estimated Inhibition Constant, Ki   =   23.29 uM (micromolar)  [Temperature = 298.15 K]
DOCKED: USER    
DOCKED: USER    (1) Final Intermolecular Energy     =   -9.30 kcal/mol
DOCKED: USER        vdW + Hbond + desolv Energy     =   -6.05 kcal/mol
DOCKED: USER        Electrostatic Energy            =   -3.25 kcal/mol
DOCKED: USER    (2) Final Total Internal Energy     =   -0.61 kcal/mol
DOCKED: USER    (3) Torsional Free Energy           =   +2.98 kcal/mol
DOCKED: USER    (4) Unbound System's Energy  [=(2)] =   -0.61 kcal/mol
DOCKED: USER    
DOCKED: USER    
DOCKED: USER    NEWDPF move heme_O2_opt.pdbqt
DOCKED: USER    NEWDPF about 8.287000 34.468000 -0.670000
DOCKED: USER    NEWDPF tran0 12.136715 -8.011355 7.038718
DOCKED: USER    NEWDPF quaternion0 0.660274 0.531490 -0.335711 -0.410920
DOCKED: USER    NEWDPF axisangle0 0.724245 0.582984 -0.368237 -131.474751
DOCKED: USER    NEWDPF quat0 0.724245 0.582984 -0.368237 -131.474751
DOCKED: USER    NEWDPF dihe0 -25.61 53.78 -71.93 113.08 -179.80 96.64 49.01 -118.40 157.18 -46.34 
DOCKED: USER  keepresnum = 1 
DOCKED: USER  
DOCKED: REMARK  10 active torsions:
DOCKED: REMARK  status: ('A' for Active; 'I' for Inactive)
DOCKED: REMARK    1  A    between atoms: C_6  and  C_10 
DOCKED: REMARK    2  A    between atoms: C_10  and  C_11 
DOCKED: REMARK    3  A    between atoms: C_11  and  C_12 
DOCKED: REMARK    4  A    between atoms: C_12  and  O_14 
DOCKED: REMARK    5  A    between atoms: C_17  and  C_20 
DOCKED: REMARK    6  A    between atoms: C_24  and  C_27 
DOCKED: REMARK    7  A    between atoms: C_31  and  C_34 
DOCKED: REMARK    8  A    between atoms: C_34  and  C_35 
DOCKED: REMARK    9  A    between atoms: C_35  and  C_36 
DOCKED: REMARK   10  A    between atoms: C_36  and  O_38 
DOCKED: USER                              x       y       z     vdW  Elec       q    Type
DOCKED: USER                           _______ _______ _______ _____ _____    ______ ____
DOCKED: ROOT
DOCKED: ATOM      1  C   UNL d   1      12.339  -8.147   9.146 -0.08 +0.04    +0.064 A 
DOCKED: ATOM      2  C   UNL d   1       9.894 -10.715   5.986 -0.28 +0.01    +0.064 A 
DOCKED: ATOM      3  C   UNL d   1      11.430  -7.921   2.389 -0.15 -0.01    +0.064 C 
DOCKED: ATOM      4  C   UNL d   1      14.328  -5.563   5.568 -0.06 +0.03    +0.064 A 
DOCKED: ATOM      5  C   UNL d   1      11.550  -9.075   8.580 -0.10 +0.03    +0.066 A 
DOCKED: ATOM      6  C   UNL d   1      10.879 -10.073   9.292 -0.11 -0.01    -0.021 A 
DOCKED: ATOM      7  C   UNL d   1      10.206 -10.844   8.374 -0.22 -0.01    -0.025 A 
DOCKED: ATOM      8  C   UNL d   1      10.445 -10.266   7.130 -0.20 +0.01    +0.066 A 
DOCKED: ATOM      9  C   UNL d   1       9.407 -12.085   8.705 -0.21 +0.01    +0.051 C 
DOCKED: ATOM     10  C   UNL d   1      10.089 -10.137   4.655 -0.22 +0.01    +0.066 A 
DOCKED: ATOM     11  C   UNL d   1       9.366 -10.541   3.527 -0.30 -0.00    -0.021 A 
DOCKED: ATOM     12  C   UNL d   1       9.782  -9.735   2.484 -0.25 -0.00    +0.000 A 
DOCKED: ATOM     13  C   UNL d   1      10.765  -8.874   3.044 -0.13 -0.00    +0.070 A 
DOCKED: ATOM     14  C   UNL d   1       8.304 -11.632   3.454 -0.06 +0.01    +0.052 C 
DOCKED: ATOM     15  C   UNL d   1      12.457  -7.053   2.911 -0.09 -0.00    +0.066 A 
DOCKED: ATOM     16  C   UNL d   1      13.230  -6.189   2.137 -0.10 +0.00    -0.021 A 
DOCKED: ATOM     17  C   UNL d   1      14.065  -5.506   3.021 -0.09 +0.00    +0.000 A 
DOCKED: ATOM     18  C   UNL d   1      13.732  -6.010   4.287 -0.08 +0.02    +0.070 A 
DOCKED: ATOM     19  C   UNL d   1      13.143  -6.132   0.632 -0.18 -0.03    +0.052 C 
DOCKED: ATOM     20  C   UNL d   1      14.064  -6.055   6.793 -0.05 +0.05    +0.066 A 
DOCKED: ATOM     21  C   UNL d   1      14.644  -5.581   7.967 -0.08 -0.02    -0.025 A 
DOCKED: ATOM     22  C   UNL d   1      14.068  -6.287   8.999 -0.05 -0.02    -0.021 A 
DOCKED: ATOM     23  C   UNL d   1      13.168  -7.183   8.414 -0.03 +0.06    +0.066 A 
DOCKED: ATOM     24  C   UNL d   1      15.696  -4.511   8.096 -0.06 +0.03    +0.051 C 
DOCKED: ATOM     25  N   UNL d   1      11.325  -9.215   7.250 -0.07 -0.09    -0.248 N 
DOCKED: ATOM     26  N   UNL d   1      10.949  -9.129   4.364 -0.06 -0.02    -0.248 N 
DOCKED: ATOM     27  N   UNL d   1      12.809  -7.001   4.193 -0.05 -0.05    -0.248 N 
DOCKED: ATOM     28  N   UNL d   1      13.201  -7.069   7.070 -0.06 -0.20    -0.248 N 
DOCKED: ATOM     29 FE   UNL d   1      12.085  -8.090   5.725 -0.02 +0.00    +0.000 Fe
DOCKED: ATOM     30  O   UNL d   1      12.610  -9.555   5.746 -0.06 +0.00    +0.000 OA
DOCKED: ATOM     31  O   UNL d   1      13.596  -8.377   5.398 -0.04 +0.00    +0.000 OA
DOCKED: ENDROOT
DOCKED: BRANCH   6  32
DOCKED: ATOM     32  C   UNL d   1      10.975 -10.378  10.765 -0.14 +0.02    +0.052 C 
DOCKED: BRANCH  32  33
DOCKED: ATOM     33  C   UNL d   1      11.496 -11.785  11.045 -0.10 +0.05    +0.115 C 
DOCKED: BRANCH  33  34
DOCKED: ATOM     34  C   UNL d   1      10.669 -12.509  12.077 -0.09 +0.14    +0.139 C 
DOCKED: ATOM     35  O   UNL d   1       9.482 -12.247  12.192 -0.58 -0.82    -0.650 OA
DOCKED: BRANCH  34  36
DOCKED: ATOM     36  O   UNL d   1      11.218 -13.426  12.901 -0.13 -1.01    -0.776 OA
DOCKED: ATOM     37  H   UNL d   1      12.014 -13.915  12.664 +0.01 +0.12    +0.167 HD
DOCKED: ENDBRANCH  34  36
DOCKED: ENDBRANCH  33  34
DOCKED: ENDBRANCH  32  33
DOCKED: ENDBRANCH   6  32
DOCKED: BRANCH  22  38
DOCKED: ATOM     38  C   UNL d   1      14.416  -6.149  10.459 -0.04 +0.03    +0.052 C 
DOCKED: BRANCH  38  39
DOCKED: ATOM     39  C   UNL d   1      14.278  -4.712  10.957 -0.04 +0.07    +0.115 C 
DOCKED: BRANCH  39  40
DOCKED: ATOM     40  C   UNL d   1      12.872  -4.185  10.813 -0.01 +0.16    +0.139 C 
DOCKED: ATOM     41  O   UNL d   1      12.659  -3.214  10.105 -0.28 -1.19    -0.650 OA
DOCKED: BRANCH  40  42
DOCKED: ATOM     42  O   UNL d   1      11.834  -4.799  11.412 +0.02 -0.74    -0.776 OA
DOCKED: ATOM     43  H   UNL d   1      11.817  -4.948  12.365 +0.02 +0.09    +0.167 HD
DOCKED: ENDBRANCH  40  42
DOCKED: ENDBRANCH  39  40
DOCKED: ENDBRANCH  38  39
DOCKED: ENDBRANCH  22  38
DOCKED: BRANCH  12  44
DOCKED: ATOM     44  C   UNL d   1       9.211  -9.870   1.087 -0.40 -0.00    +0.004 C 
DOCKED: ATOM     45  C   UNL d   1       8.321  -9.081   0.487 -0.56 -0.00    +0.012 C 
DOCKED: ENDBRANCH  12  44
DOCKED: BRANCH  17  46
DOCKED: ATOM     46  C   UNL d   1      15.152  -4.495   2.773 -0.07 +0.00    +0.004 C 
DOCKED: ATOM     47  C   UNL d   1      15.122  -3.175   2.995 -0.12 +0.00    +0.012 C 
DOCKED: ENDBRANCH  17  46
DOCKED: TORSDOF 10
DOCKED: TER
DOCKED: ENDMDL
________________________________________________________________________________


	BEGINNING GENETIC ALGORITHM DOCKING 20 of 100
Run: 20 Seed: 1683833728 336808894 [ Run 20 of 100 GA/GALS ]
Beginning LAMARCKIAN GENETIC ALGORITHM (LGA), with a maximum of 25000000 energy evaluations.

Final-Value: -9.271


	FINAL GENETIC ALGORITHM DOCKED STATE
	_______________________________________________


Detailed state:  trans -4.588 13.380 -14.060 quatxyzw -0.314065 0.218038 -0.857715 -0.343727 center 8.287 34.468 -0.670 ntor 10 102.8288 37.8545 83.9571 98.2573 52.2568 112.3027 12.7411 -43.9994 174.8924 -11.0046
State:	 -4.588  13.380 -14.060  -0.334  0.232 -0.913 -139.792    102.83   37.85   83.96   98.26   52.26  112.30   12.74  -44.00  174.89  -11.00

DOCKED: MODEL       20
DOCKED: USER    Run = 20
DOCKED: USER    DPF = D:/Protein_go_brrr/autodock/final/mut_N102T/heme_O2/dock.dpf
DOCKED: USER  
DOCKED: USER    Estimated Free Energy of Binding    =   -5.81 kcal/mol  [=(1)+(2)+(3)-(4)]
DOCKED: USER    Estimated Inhibition Constant, Ki   =   54.95 uM (micromolar)  [Temperature = 298.15 K]
DOCKED: USER    
DOCKED: USER    (1) Final Intermolecular Energy     =   -8.79 kcal/mol
DOCKED: USER        vdW + Hbond + desolv Energy     =   -7.51 kcal/mol
DOCKED: USER        Electrostatic Energy            =   -1.28 kcal/mol
DOCKED: USER    (2) Final Total Internal Energy     =   -0.48 kcal/mol
DOCKED: USER    (3) Torsional Free Energy           =   +2.98 kcal/mol
DOCKED: USER    (4) Unbound System's Energy  [=(2)] =   -0.48 kcal/mol
DOCKED: USER    
DOCKED: USER    
DOCKED: USER    NEWDPF move heme_O2_opt.pdbqt
DOCKED: USER    NEWDPF about 8.287000 34.468000 -0.670000
DOCKED: USER    NEWDPF tran0 -4.587734 13.380035 -14.060187
DOCKED: USER    NEWDPF quaternion0 -0.314065 0.218038 -0.857715 -0.343727
DOCKED: USER    NEWDPF axisangle0 -0.334442 0.232185 -0.913366 -139.791730
DOCKED: USER    NEWDPF quat0 -0.334442 0.232185 -0.913366 -139.791730
DOCKED: USER    NEWDPF dihe0 102.83 37.85 83.96 98.26 52.26 112.30 12.74 -44.00 174.89 -11.00 
DOCKED: USER  keepresnum = 1 
DOCKED: USER  
DOCKED: REMARK  10 active torsions:
DOCKED: REMARK  status: ('A' for Active; 'I' for Inactive)
DOCKED: REMARK    1  A    between atoms: C_6  and  C_10 
DOCKED: REMARK    2  A    between atoms: C_10  and  C_11 
DOCKED: REMARK    3  A    between atoms: C_11  and  C_12 
DOCKED: REMARK    4  A    between atoms: C_12  and  O_14 
DOCKED: REMARK    5  A    between atoms: C_17  and  C_20 
DOCKED: REMARK    6  A    between atoms: C_24  and  C_27 
DOCKED: REMARK    7  A    between atoms: C_31  and  C_34 
DOCKED: REMARK    8  A    between atoms: C_34  and  C_35 
DOCKED: REMARK    9  A    between atoms: C_35  and  C_36 
DOCKED: REMARK   10  A    between atoms: C_36  and  O_38 
DOCKED: USER                              x       y       z     vdW  Elec       q    Type
DOCKED: USER                           _______ _______ _______ _____ _____    ______ ____
DOCKED: ROOT
DOCKED: ATOM      1  C   UNL d   1      -3.807  14.463 -15.709 -0.16 +0.01    +0.064 A 
DOCKED: ATOM      2  C   UNL d   1      -3.154  14.846 -11.020 -0.19 -0.00    +0.064 A 
DOCKED: ATOM      3  C   UNL d   1      -6.205  11.223 -10.206 -0.13 -0.00    +0.064 C 
DOCKED: ATOM      4  C   UNL d   1      -6.518  10.506 -15.049 -0.23 -0.01    +0.064 A 
DOCKED: ATOM      5  C   UNL d   1      -3.379  14.861 -14.500 -0.14 +0.01    +0.066 A 
DOCKED: ATOM      6  C   UNL d   1      -2.489  15.920 -14.294 -0.17 -0.00    -0.021 A 
DOCKED: ATOM      7  C   UNL d   1      -2.266  16.004 -12.940 -0.13 -0.00    -0.025 A 
DOCKED: ATOM      8  C   UNL d   1      -3.063  15.026 -12.352 -0.15 +0.00    +0.066 A 
DOCKED: ATOM      9  C   UNL d   1      -1.304  16.968 -12.279 -0.11 +0.00    +0.051 C 
DOCKED: ATOM     10  C   UNL d   1      -3.990  13.853 -10.344 -0.20 -0.01    +0.066 A 
DOCKED: ATOM     11  C   UNL d   1      -4.173  13.817  -8.957 -0.23 +0.00    -0.021 A 
DOCKED: ATOM     12  C   UNL d   1      -5.064  12.790  -8.704 -0.20 -0.00    +0.000 A 
DOCKED: ATOM     13  C   UNL d   1      -5.371  12.238  -9.978 -0.15 -0.00    +0.070 A 
DOCKED: ATOM     14  C   UNL d   1      -3.546  14.741  -7.919 -0.23 +0.00    +0.052 C 
DOCKED: ATOM     15  C   UNL d   1      -6.516  10.612 -11.476 -0.15 -0.01    +0.066 A 
DOCKED: ATOM     16  C   UNL d   1      -7.269   9.449 -11.630 -0.20 +0.00    -0.021 A 
DOCKED: ATOM     17  C   UNL d   1      -7.371   9.224 -13.003 -0.23 -0.00    +0.000 A 
DOCKED: ATOM     18  C   UNL d   1      -6.664  10.283 -13.591 -0.19 -0.01    +0.070 A 
DOCKED: ATOM     19  C   UNL d   1      -7.772   8.634 -10.465 -0.07 -0.01    +0.052 C 
DOCKED: ATOM     20  C   UNL d   1      -5.811  11.486 -15.646 -0.22 -0.00    +0.066 A 
DOCKED: ATOM     21  C   UNL d   1      -5.725  11.656 -17.025 -0.24 -0.00    -0.025 A 
DOCKED: ATOM     22  C   UNL d   1      -4.978  12.794 -17.231 -0.25 -0.00    -0.021 A 
DOCKED: ATOM     23  C   UNL d   1      -4.621  13.269 -15.965 -0.22 +0.00    +0.066 A 
DOCKED: ATOM     24  C   UNL d   1      -6.320  10.774 -18.092 -0.25 +0.00    +0.051 C 
DOCKED: ATOM     25  N   UNL d   1      -3.698  14.280 -13.318 -0.12 -0.01    -0.248 N 
DOCKED: ATOM     26  N   UNL d   1      -4.710  12.887 -10.970 -0.12 +0.02    -0.248 N 
DOCKED: ATOM     27  N   UNL d   1      -6.089  11.073 -12.648 -0.08 +0.03    -0.248 N 
DOCKED: ATOM     28  N   UNL d   1      -5.091  12.445 -15.006 -0.14 +0.02    -0.248 N 
DOCKED: ATOM     29 FE   UNL d   1      -4.903  12.662 -13.002 -0.04 -0.00    +0.000 Fe
DOCKED: ATOM     30  O   UNL d   1      -3.404  12.402 -12.675 -0.35 -0.00    +0.000 OA
DOCKED: ATOM     31  O   UNL d   1      -4.253  11.284 -13.390 -0.46 -0.00    +0.000 OA
DOCKED: ENDROOT
DOCKED: BRANCH   6  32
DOCKED: ATOM     32  C   UNL d   1      -1.767  16.734 -15.336 -0.19 +0.02    +0.052 C 
DOCKED: BRANCH  32  33
DOCKED: ATOM     33  C   UNL d   1      -0.314  16.308 -15.519 -0.21 +0.04    +0.115 C 
DOCKED: BRANCH  33  34
DOCKED: ATOM     34  C   UNL d   1       0.468  17.279 -16.369 -0.16 +0.06    +0.139 C 
DOCKED: ATOM     35  O   UNL d   1       0.646  17.038 -17.552 -0.03 -0.43    -0.650 OA
DOCKED: BRANCH  34  36
DOCKED: ATOM     36  O   UNL d   1       1.003  18.400 -15.843 +0.04 -0.19    -0.776 OA
DOCKED: ATOM     37  H   UNL d   1       1.944  18.474 -15.646 +0.02 +0.02    +0.167 HD
DOCKED: ENDBRANCH  34  36
DOCKED: ENDBRANCH  33  34
DOCKED: ENDBRANCH  32  33
DOCKED: ENDBRANCH   6  32
DOCKED: BRANCH  22  38
DOCKED: ATOM     38  C   UNL d   1      -4.581  13.353 -18.572 -0.09 +0.01    +0.052 C 
DOCKED: BRANCH  38  39
DOCKED: ATOM     39  C   UNL d   1      -5.597  14.359 -19.108 -0.12 +0.03    +0.115 C 
DOCKED: BRANCH  39  40
DOCKED: ATOM     40  C   UNL d   1      -4.943  15.599 -19.665 -0.09 +0.08    +0.139 C 
DOCKED: ATOM     41  O   UNL d   1      -4.946  16.631 -19.014 -0.01 -0.44    -0.650 OA
DOCKED: BRANCH  40  42
DOCKED: ATOM     42  O   UNL d   1      -4.306  15.575 -20.852 -0.01 -0.60    -0.776 OA
DOCKED: ATOM     43  H   UNL d   1      -4.662  15.091 -21.607 +0.02 +0.08    +0.167 HD
DOCKED: ENDBRANCH  40  42
DOCKED: ENDBRANCH  39  40
DOCKED: ENDBRANCH  38  39
DOCKED: ENDBRANCH  22  38
DOCKED: BRANCH  12  44
DOCKED: ATOM     44  C   UNL d   1      -5.517  12.447  -7.300 -0.20 -0.00    +0.004 C 
DOCKED: ATOM     45  C   UNL d   1      -5.082  11.461  -6.517 -0.33 -0.00    +0.012 C 
DOCKED: ENDBRANCH  12  44
DOCKED: BRANCH  17  46
DOCKED: ATOM     46  C   UNL d   1      -8.008   8.100 -13.776 -0.15 -0.00    +0.004 C 
DOCKED: ATOM     47  C   UNL d   1      -9.259   8.023 -14.246 -0.25 -0.00    +0.012 C 
DOCKED: ENDBRANCH  17  46
DOCKED: TORSDOF 10
DOCKED: TER
DOCKED: ENDMDL
________________________________________________________________________________


	BEGINNING GENETIC ALGORITHM DOCKING 21 of 100
Run: 21 Seed: 10305251 672741652 [ Run 21 of 100 GA/GALS ]
Beginning LAMARCKIAN GENETIC ALGORITHM (LGA), with a maximum of 25000000 energy evaluations.

Final-Value: -8.825


	FINAL GENETIC ALGORITHM DOCKED STATE
	_______________________________________________


Detailed state:  trans -11.895 6.097 10.115 quatxyzw -0.536562 -0.689670 0.173369 0.454312 center 8.287 34.468 -0.670 ntor 10 159.7813 -5.3922 85.4999 -119.9736 -123.3255 143.0849 126.3337 159.1305 10.6907 12.2667
State:	-11.895   6.097  10.115  -0.602 -0.774  0.195 125.959    159.78   -5.39   85.50 -119.97 -123.33  143.08  126.33  159.13   10.69   12.27

DOCKED: MODEL       21
DOCKED: USER    Run = 21
DOCKED: USER    DPF = D:/Protein_go_brrr/autodock/final/mut_N102T/heme_O2/dock.dpf
DOCKED: USER  
DOCKED: USER    Estimated Free Energy of Binding    =   -3.50 kcal/mol  [=(1)+(2)+(3)-(4)]
DOCKED: USER    Estimated Inhibition Constant, Ki   =    2.74 mM (millimolar)  [Temperature = 298.15 K]
DOCKED: USER    
DOCKED: USER    (1) Final Intermolecular Energy     =   -6.48 kcal/mol
DOCKED: USER        vdW + Hbond + desolv Energy     =   -6.52 kcal/mol
DOCKED: USER        Electrostatic Energy            =   +0.04 kcal/mol
DOCKED: USER    (2) Final Total Internal Energy     =   -2.35 kcal/mol
DOCKED: USER    (3) Torsional Free Energy           =   +2.98 kcal/mol
DOCKED: USER    (4) Unbound System's Energy  [=(2)] =   -2.35 kcal/mol
DOCKED: USER    
DOCKED: USER    
DOCKED: USER    NEWDPF move heme_O2_opt.pdbqt
DOCKED: USER    NEWDPF about 8.287000 34.468000 -0.670000
DOCKED: USER    NEWDPF tran0 -11.895118 6.096562 10.114544
DOCKED: USER    NEWDPF quaternion0 -0.536562 -0.689670 0.173369 0.454312
DOCKED: USER    NEWDPF axisangle0 -0.602309 -0.774177 0.194612 125.958688
DOCKED: USER    NEWDPF quat0 -0.602309 -0.774177 0.194612 125.958688
DOCKED: USER    NEWDPF dihe0 159.78 -5.39 85.50 -119.97 -123.33 143.08 126.33 159.13 10.69 12.27 
DOCKED: USER  keepresnum = 1 
DOCKED: USER  
DOCKED: REMARK  10 active torsions:
DOCKED: REMARK  status: ('A' for Active; 'I' for Inactive)
DOCKED: REMARK    1  A    between atoms: C_6  and  C_10 
DOCKED: REMARK    2  A    between atoms: C_10  and  C_11 
DOCKED: REMARK    3  A    between atoms: C_11  and  C_12 
DOCKED: REMARK    4  A    between atoms: C_12  and  O_14 
DOCKED: REMARK    5  A    between atoms: C_17  and  C_20 
DOCKED: REMARK    6  A    between atoms: C_24  and  C_27 
DOCKED: REMARK    7  A    between atoms: C_31  and  C_34 
DOCKED: REMARK    8  A    between atoms: C_34  and  C_35 
DOCKED: REMARK    9  A    between atoms: C_35  and  C_36 
DOCKED: REMARK   10  A    between atoms: C_36  and  O_38 
DOCKED: USER                              x       y       z     vdW  Elec       q    Type
DOCKED: USER                           _______ _______ _______ _____ _____    ______ ____
DOCKED: ROOT
DOCKED: ATOM      1  C   UNL d   1     -11.686   5.808  12.205 -0.15 +0.00    +0.064 A 
DOCKED: ATOM      2  C   UNL d   1     -12.514   2.806   8.619 -0.18 -0.01    +0.064 A 
DOCKED: ATOM      3  C   UNL d   1     -12.483   6.426   5.459 -0.03 +0.00    +0.064 C 
DOCKED: ATOM      4  C   UNL d   1     -11.156   9.464   9.076 -0.18 -0.01    +0.064 A 
DOCKED: ATOM      5  C   UNL d   1     -11.912   4.695  11.488 -0.10 -0.00    +0.066 A 
DOCKED: ATOM      6  C   UNL d   1     -12.020   3.416  12.040 -0.17 +0.00    -0.021 A 
DOCKED: ATOM      7  C   UNL d   1     -12.217   2.540  10.998 -0.19 +0.00    -0.025 A 
DOCKED: ATOM      8  C   UNL d   1     -12.271   3.315   9.842 -0.16 -0.01    +0.066 A 
DOCKED: ATOM      9  C   UNL d   1     -12.313   1.037  11.137 -0.20 -0.01    +0.051 C 
DOCKED: ATOM     10  C   UNL d   1     -12.605   3.570   7.375 -0.17 -0.00    +0.066 A 
DOCKED: ATOM     11  C   UNL d   1     -13.021   3.015   6.159 -0.14 +0.00    -0.021 A 
DOCKED: ATOM     12  C   UNL d   1     -13.036   4.047   5.240 -0.14 +0.00    +0.000 A 
DOCKED: ATOM     13  C   UNL d   1     -12.607   5.197   5.959 -0.14 +0.00    +0.070 A 
DOCKED: ATOM     14  C   UNL d   1     -13.414   1.566   5.893 -0.14 -0.01    +0.052 C 
DOCKED: ATOM     15  C   UNL d   1     -12.019   7.608   6.145 -0.16 -0.00    +0.066 A 
DOCKED: ATOM     16  C   UNL d   1     -11.755   8.829   5.525 -0.20 +0.00    -0.021 A 
DOCKED: ATOM     17  C   UNL d   1     -11.374   9.711   6.537 -0.20 -0.00    +0.000 A 
DOCKED: ATOM     18  C   UNL d   1     -11.438   8.952   7.714 -0.19 -0.01    +0.070 A 
DOCKED: ATOM     19  C   UNL d   1     -11.835   9.028   4.033 -0.17 -0.00    +0.052 C 
DOCKED: ATOM     20  C   UNL d   1     -11.166   8.753  10.221 -0.19 -0.00    +0.066 A 
DOCKED: ATOM     21  C   UNL d   1     -10.910   9.294  11.477 -0.16 +0.00    -0.025 A 
DOCKED: ATOM     22  C   UNL d   1     -11.083   8.273  12.384 -0.17 -0.00    -0.021 A 
DOCKED: ATOM     23  C   UNL d   1     -11.422   7.137  11.642 -0.18 +0.00    +0.066 A 
DOCKED: ATOM     24  C   UNL d   1     -10.517  10.713  11.796 -0.14 -0.00    +0.051 C 
DOCKED: ATOM     25  N   UNL d   1     -12.018   4.635  10.138 -0.12 +0.01    -0.248 N 
DOCKED: ATOM     26  N   UNL d   1     -12.343   4.897   7.256 -0.12 +0.00    -0.248 N 
DOCKED: ATOM     27  N   UNL d   1     -11.758   7.660   7.448 -0.14 +0.02    -0.248 N 
DOCKED: ATOM     28  N   UNL d   1     -11.427   7.423  10.324 -0.13 +0.01    -0.248 N 
DOCKED: ATOM     29 FE   UNL d   1     -11.881   6.171   8.800 -0.05 -0.00    +0.000 Fe
DOCKED: ATOM     30  O   UNL d   1     -10.708   5.153   8.709 -0.56 +0.00    +0.000 OA
DOCKED: ATOM     31  O   UNL d   1     -10.417   6.694   8.561 -0.45 -0.00    +0.000 OA
DOCKED: ENDROOT
DOCKED: BRANCH   6  32
DOCKED: ATOM     32  C   UNL d   1     -11.810   3.009  13.476 -0.17 +0.00    +0.052 C 
DOCKED: BRANCH  32  33
DOCKED: ATOM     33  C   UNL d   1     -13.109   2.967  14.275 -0.05 +0.00    +0.115 C 
DOCKED: BRANCH  33  34
DOCKED: ATOM     34  C   UNL d   1     -13.853   4.279  14.233 -0.02 -0.00    +0.139 C 
DOCKED: ATOM     35  O   UNL d   1     -14.615   4.511  13.308 +0.01 +0.02    -0.650 OA
DOCKED: BRANCH  34  36
DOCKED: ATOM     36  O   UNL d   1     -13.676   5.219  15.184 +0.02 +0.00    -0.776 OA
DOCKED: ATOM     37  H   UNL d   1     -13.908   6.143  15.038 +0.01 -0.00    +0.167 HD
DOCKED: ENDBRANCH  34  36
DOCKED: ENDBRANCH  33  34
DOCKED: ENDBRANCH  32  33
DOCKED: ENDBRANCH   6  32
DOCKED: BRANCH  22  38
DOCKED: ATOM     38  C   UNL d   1     -10.870   8.374  13.873 -0.15 +0.00    +0.052 C 
DOCKED: BRANCH  38  39
DOCKED: ATOM     39  C   UNL d   1     -12.166   8.197  14.660 -0.04 -0.00    +0.115 C 
DOCKED: BRANCH  39  40
DOCKED: ATOM     40  C   UNL d   1     -13.390   8.490  13.828 -0.01 -0.00    +0.139 C 
DOCKED: ATOM     41  O   UNL d   1     -13.655   9.642  13.524 +0.01 +0.02    -0.650 OA
DOCKED: BRANCH  40  42
DOCKED: ATOM     42  O   UNL d   1     -14.173   7.495  13.368 +0.02 +0.02    -0.776 OA
DOCKED: ATOM     43  H   UNL d   1     -13.956   6.568  13.524 +0.01 -0.00    +0.167 HD
DOCKED: ENDBRANCH  40  42
DOCKED: ENDBRANCH  39  40
DOCKED: ENDBRANCH  38  39
DOCKED: ENDBRANCH  22  38
DOCKED: BRANCH  12  44
DOCKED: ATOM     44  C   UNL d   1     -13.446   3.833   3.798 -0.12 +0.00    +0.004 C 
DOCKED: ATOM     45  C   UNL d   1     -12.655   3.667   2.738 -0.20 +0.00    +0.012 C 
DOCKED: ENDBRANCH  12  44
DOCKED: BRANCH  17  46
DOCKED: ATOM     46  C   UNL d   1     -10.915  11.143   6.478 -0.19 -0.00    +0.004 C 
DOCKED: ATOM     47  C   UNL d   1      -9.802  11.678   6.995 -0.24 -0.00    +0.012 C 
DOCKED: ENDBRANCH  17  46
DOCKED: TORSDOF 10
DOCKED: TER
DOCKED: ENDMDL
________________________________________________________________________________


	BEGINNING GENETIC ALGORITHM DOCKING 22 of 100
Run: 22 Seed: 568683661 1733865252 [ Run 22 of 100 GA/GALS ]
Beginning LAMARCKIAN GENETIC ALGORITHM (LGA), with a maximum of 25000000 energy evaluations.

Final-Value: -8.734


	FINAL GENETIC ALGORITHM DOCKED STATE
	_______________________________________________


Detailed state:  trans -11.392 6.184 11.509 quatxyzw 0.796272 0.516714 0.303088 -0.084236 center 8.287 34.468 -0.670 ntor 10 148.4603 -123.0539 88.2955 -102.5595 84.4953 -180.0000 54.2472 88.6888 166.4681 -135.3302
State:	-11.392   6.184  11.509   0.799  0.519  0.304 -170.336    148.46 -123.05   88.30 -102.56   84.50 -180.00   54.25   88.69  166.47 -135.33

DOCKED: MODEL       22
DOCKED: USER    Run = 22
DOCKED: USER    DPF = D:/Protein_go_brrr/autodock/final/mut_N102T/heme_O2/dock.dpf
DOCKED: USER  
DOCKED: USER    Estimated Free Energy of Binding    =   -5.36 kcal/mol  [=(1)+(2)+(3)-(4)]
DOCKED: USER    Estimated Inhibition Constant, Ki   =  117.92 uM (micromolar)  [Temperature = 298.15 K]
DOCKED: USER    
DOCKED: USER    (1) Final Intermolecular Energy     =   -8.34 kcal/mol
DOCKED: USER        vdW + Hbond + desolv Energy     =   -7.99 kcal/mol
DOCKED: USER        Electrostatic Energy            =   -0.35 kcal/mol
DOCKED: USER    (2) Final Total Internal Energy     =   -0.39 kcal/mol
DOCKED: USER    (3) Torsional Free Energy           =   +2.98 kcal/mol
DOCKED: USER    (4) Unbound System's Energy  [=(2)] =   -0.39 kcal/mol
DOCKED: USER    
DOCKED: USER    
DOCKED: USER    NEWDPF move heme_O2_opt.pdbqt
DOCKED: USER    NEWDPF about 8.287000 34.468000 -0.670000
DOCKED: USER    NEWDPF tran0 -11.391903 6.183803 11.509361
DOCKED: USER    NEWDPF quaternion0 0.796272 0.516714 0.303088 -0.084236
DOCKED: USER    NEWDPF axisangle0 0.799112 0.518557 0.304170 -170.335868
DOCKED: USER    NEWDPF quat0 0.799112 0.518557 0.304170 -170.335868
DOCKED: USER    NEWDPF dihe0 148.46 -123.05 88.30 -102.56 84.50 -180.00 54.25 88.69 166.47 -135.33 
DOCKED: USER  keepresnum = 1 
DOCKED: USER  
DOCKED: REMARK  10 active torsions:
DOCKED: REMARK  status: ('A' for Active; 'I' for Inactive)
DOCKED: REMARK    1  A    between atoms: C_6  and  C_10 
DOCKED: REMARK    2  A    between atoms: C_10  and  C_11 
DOCKED: REMARK    3  A    between atoms: C_11  and  C_12 
DOCKED: REMARK    4  A    between atoms: C_12  and  O_14 
DOCKED: REMARK    5  A    between atoms: C_17  and  C_20 
DOCKED: REMARK    6  A    between atoms: C_24  and  C_27 
DOCKED: REMARK    7  A    between atoms: C_31  and  C_34 
DOCKED: REMARK    8  A    between atoms: C_34  and  C_35 
DOCKED: REMARK    9  A    between atoms: C_35  and  C_36 
DOCKED: REMARK   10  A    between atoms: C_36  and  O_38 
DOCKED: USER                              x       y       z     vdW  Elec       q    Type
DOCKED: USER                           _______ _______ _______ _____ _____    ______ ____
DOCKED: ROOT
DOCKED: ATOM      1  C   UNL d   1     -11.911   4.134  11.681 -0.10 -0.00    +0.064 A 
DOCKED: ATOM      2  C   UNL d   1     -11.572   7.057   7.952 -0.23 -0.00    +0.064 A 
DOCKED: ATOM      3  C   UNL d   1     -10.361  10.721  10.817 -0.14 -0.00    +0.064 C 
DOCKED: ATOM      4  C   UNL d   1     -10.240   7.609  14.608 -0.17 +0.00    +0.064 A 
DOCKED: ATOM      5  C   UNL d   1     -11.916   4.630  10.432 -0.10 -0.00    +0.066 A 
DOCKED: ATOM      6  C   UNL d   1     -12.245   3.886   9.296 -0.19 +0.00    -0.021 A 
DOCKED: ATOM      7  C   UNL d   1     -12.105   4.719   8.211 -0.23 +0.00    -0.025 A 
DOCKED: ATOM      8  C   UNL d   1     -11.741   5.963   8.720 -0.24 -0.00    +0.066 A 
DOCKED: ATOM      9  C   UNL d   1     -12.289   4.301   6.769 -0.21 -0.00    +0.051 C 
DOCKED: ATOM     10  C   UNL d   1     -11.213   8.393   8.430 -0.24 -0.01    +0.066 A 
DOCKED: ATOM     11  C   UNL d   1     -11.211   9.528   7.612 -0.19 +0.00    -0.021 A 
DOCKED: ATOM     12  C   UNL d   1     -10.882  10.598   8.424 -0.17 -0.00    +0.000 A 
DOCKED: ATOM     13  C   UNL d   1     -10.686  10.040   9.718 -0.19 -0.01    +0.070 A 
DOCKED: ATOM     14  C   UNL d   1     -11.536   9.594   6.124 -0.20 -0.01    +0.052 C 
DOCKED: ATOM     15  C   UNL d   1     -10.119  10.189  12.137 -0.06 +0.00    +0.066 A 
DOCKED: ATOM     16  C   UNL d   1      -9.623  10.930  13.209 -0.05 +0.00    -0.021 A 
DOCKED: ATOM     17  C   UNL d   1      -9.579  10.064  14.301 -0.13 +0.00    +0.000 A 
DOCKED: ATOM     18  C   UNL d   1     -10.060   8.843  13.807 -0.18 +0.00    +0.070 A 
DOCKED: ATOM     19  C   UNL d   1      -9.187  12.369  13.082 -0.10 -0.00    +0.052 C 
DOCKED: ATOM     20  C   UNL d   1     -10.658   6.411  14.157 -0.18 +0.00    +0.066 A 
DOCKED: ATOM     21  C   UNL d   1     -10.825   5.289  14.963 -0.12 -0.00    -0.025 A 
DOCKED: ATOM     22  C   UNL d   1     -11.327   4.296  14.151 -0.14 -0.00    -0.021 A 
DOCKED: ATOM     23  C   UNL d   1     -11.431   4.847  12.870 -0.08 +0.00    +0.066 A 
DOCKED: ATOM     24  C   UNL d   1     -10.519   5.168  16.434 -0.10 +0.00    +0.051 C 
DOCKED: ATOM     25  N   UNL d   1     -11.561   5.891  10.082 -0.13 +0.00    -0.248 N 
DOCKED: ATOM     26  N   UNL d   1     -10.885   8.698   9.712 -0.16 +0.02    -0.248 N 
DOCKED: ATOM     27  N   UNL d   1     -10.312   8.918  12.475 -0.13 -0.01    -0.248 N 
DOCKED: ATOM     28  N   UNL d   1     -10.981   6.119  12.869 -0.14 -0.02    -0.248 N 
DOCKED: ATOM     29 FE   UNL d   1     -10.932   7.401  11.304 -0.05 +0.00    +0.000 Fe
DOCKED: ATOM     30  O   UNL d   1      -9.830   6.870  10.341 -0.50 +0.00    +0.000 OA
DOCKED: ATOM     31  O   UNL d   1      -9.458   7.239  11.827 -0.80 +0.00    +0.000 OA
DOCKED: ENDROOT
DOCKED: BRANCH   6  32
DOCKED: ATOM     32  C   UNL d   1     -12.545   2.411   9.213 -0.21 -0.01    +0.052 C 
DOCKED: BRANCH  32  33
DOCKED: ATOM     33  C   UNL d   1     -11.445   1.621   8.511 -0.24 -0.02    +0.115 C 
DOCKED: BRANCH  33  34
DOCKED: ATOM     34  C   UNL d   1     -11.980   0.756   7.397 -0.25 -0.04    +0.139 C 
DOCKED: ATOM     35  O   UNL d   1     -12.712  -0.185   7.661 +0.01 +0.23    -0.650 OA
DOCKED: BRANCH  34  36
DOCKED: ATOM     36  O   UNL d   1     -11.646   0.981   6.109 +0.02 +0.33    -0.776 OA
DOCKED: ATOM     37  H   UNL d   1     -11.582   0.266   5.466 -0.41 -0.18    +0.167 HD
DOCKED: ENDBRANCH  34  36
DOCKED: ENDBRANCH  33  34
DOCKED: ENDBRANCH  32  33
DOCKED: ENDBRANCH   6  32
DOCKED: BRANCH  22  38
DOCKED: ATOM     38  C   UNL d   1     -11.626   2.882  14.575 -0.14 +0.00    +0.052 C 
DOCKED: BRANCH  38  39
DOCKED: ATOM     39  C   UNL d   1     -10.660   2.378  15.646 -0.15 +0.02    +0.115 C 
DOCKED: BRANCH  39  40
DOCKED: ATOM     40  C   UNL d   1      -9.473   1.658  15.058 -0.23 +0.06    +0.139 C 
DOCKED: ATOM     41  O   UNL d   1      -9.613   0.975  14.056 -0.06 -0.29    -0.650 OA
DOCKED: BRANCH  40  42
DOCKED: ATOM     42  O   UNL d   1      -8.243   1.795  15.590 +0.06 -0.55    -0.776 OA
DOCKED: ATOM     43  H   UNL d   1      -7.505   2.142  15.074 -0.12 +0.10    +0.167 HD
DOCKED: ENDBRANCH  40  42
DOCKED: ENDBRANCH  39  40
DOCKED: ENDBRANCH  38  39
DOCKED: ENDBRANCH  22  38
DOCKED: BRANCH  12  44
DOCKED: ATOM     44  C   UNL d   1     -10.787  12.012   7.891 -0.15 -0.00    +0.004 C 
DOCKED: ATOM     45  C   UNL d   1      -9.696  12.664   7.490 -0.20 -0.00    +0.012 C 
DOCKED: ENDBRANCH  12  44
DOCKED: BRANCH  17  46
DOCKED: ATOM     46  C   UNL d   1      -9.082  10.270  15.707 -0.10 -0.00    +0.004 C 
DOCKED: ATOM     47  C   UNL d   1      -7.988   9.757  16.283 -0.13 -0.00    +0.012 C 
DOCKED: ENDBRANCH  17  46
DOCKED: TORSDOF 10
DOCKED: TER
DOCKED: ENDMDL
________________________________________________________________________________


	BEGINNING GENETIC ALGORITHM DOCKING 23 of 100
Run: 23 Seed: 1666557357 185590567 [ Run 23 of 100 GA/GALS ]
Beginning LAMARCKIAN GENETIC ALGORITHM (LGA), with a maximum of 25000000 energy evaluations.

Final-Value: -11.207


	FINAL GENETIC ALGORITHM DOCKED STATE
	_______________________________________________


Detailed state:  trans 7.608 -1.703 16.477 quatxyzw 0.038791 0.816366 0.240174 0.523792 center 8.287 34.468 -0.670 ntor 10 28.9150 -128.4854 109.7601 -104.8368 -140.6787 177.3864 -64.5963 115.1899 -3.1141 179.9822
State:	  7.608  -1.703  16.477   0.046  0.958  0.282 116.826     28.92 -128.49  109.76 -104.84 -140.68  177.39  -64.60  115.19   -3.11  179.98

DOCKED: MODEL       23
DOCKED: USER    Run = 23
DOCKED: USER    DPF = D:/Protein_go_brrr/autodock/final/mut_N102T/heme_O2/dock.dpf
DOCKED: USER  
DOCKED: USER    Estimated Free Energy of Binding    =   -7.46 kcal/mol  [=(1)+(2)+(3)-(4)]
DOCKED: USER    Estimated Inhibition Constant, Ki   =    3.39 uM (micromolar)  [Temperature = 298.15 K]
DOCKED: USER    
DOCKED: USER    (1) Final Intermolecular Energy     =  -10.44 kcal/mol
DOCKED: USER        vdW + Hbond + desolv Energy     =   -8.02 kcal/mol
DOCKED: USER        Electrostatic Energy            =   -2.43 kcal/mol
DOCKED: USER    (2) Final Total Internal Energy     =   -0.76 kcal/mol
DOCKED: USER    (3) Torsional Free Energy           =   +2.98 kcal/mol
DOCKED: USER    (4) Unbound System's Energy  [=(2)] =   -0.76 kcal/mol
DOCKED: USER    
DOCKED: USER    
DOCKED: USER    NEWDPF move heme_O2_opt.pdbqt
DOCKED: USER    NEWDPF about 8.287000 34.468000 -0.670000
DOCKED: USER    NEWDPF tran0 7.607700 -1.703007 16.477251
DOCKED: USER    NEWDPF quaternion0 0.038791 0.816366 0.240174 0.523792
DOCKED: USER    NEWDPF axisangle0 0.045538 0.958349 0.281946 116.826148
DOCKED: USER    NEWDPF quat0 0.045538 0.958349 0.281946 116.826148
DOCKED: USER    NEWDPF dihe0 28.92 -128.49 109.76 -104.84 -140.68 177.39 -64.60 115.19 -3.11 179.98 
DOCKED: USER  keepresnum = 1 
DOCKED: USER  
DOCKED: REMARK  10 active torsions:
DOCKED: REMARK  status: ('A' for Active; 'I' for Inactive)
DOCKED: REMARK    1  A    between atoms: C_6  and  C_10 
DOCKED: REMARK    2  A    between atoms: C_10  and  C_11 
DOCKED: REMARK    3  A    between atoms: C_11  and  C_12 
DOCKED: REMARK    4  A    between atoms: C_12  and  O_14 
DOCKED: REMARK    5  A    between atoms: C_17  and  C_20 
DOCKED: REMARK    6  A    between atoms: C_24  and  C_27 
DOCKED: REMARK    7  A    between atoms: C_31  and  C_34 
DOCKED: REMARK    8  A    between atoms: C_34  and  C_35 
DOCKED: REMARK    9  A    between atoms: C_35  and  C_36 
DOCKED: REMARK   10  A    between atoms: C_36  and  O_38 
DOCKED: USER                              x       y       z     vdW  Elec       q    Type
DOCKED: USER                           _______ _______ _______ _____ _____    ______ ____
DOCKED: ROOT
DOCKED: ATOM      1  C   UNL d   1       9.305  -1.166  15.324 -0.10 +0.02    +0.064 A 
DOCKED: ATOM      2  C   UNL d   1       4.818  -2.188  14.146 -0.19 -0.01    +0.064 A 
DOCKED: ATOM      3  C   UNL d   1       3.695  -2.985  18.750 -0.10 -0.01    +0.064 C 
DOCKED: ATOM      4  C   UNL d   1       8.184  -1.473  20.023 -0.05 +0.00    +0.064 A 
DOCKED: ATOM      5  C   UNL d   1       8.176  -1.377  14.628 -0.14 +0.01    +0.066 A 
DOCKED: ATOM      6  C   UNL d   1       8.082  -1.272  13.237 -0.21 -0.00    -0.021 A 
DOCKED: ATOM      7  C   UNL d   1       6.773  -1.525  12.899 -0.28 -0.00    -0.025 A 
DOCKED: ATOM      8  C   UNL d   1       6.114  -1.825  14.088 -0.23 -0.00    +0.066 A 
DOCKED: ATOM      9  C   UNL d   1       6.210  -1.445  11.497 -0.31 +0.00    +0.051 C 
DOCKED: ATOM     10  C   UNL d   1       4.079  -2.536  15.361 -0.22 -0.01    +0.066 A 
DOCKED: ATOM     11  C   UNL d   1       2.782  -3.062  15.348 -0.37 +0.00    -0.021 A 
DOCKED: ATOM     12  C   UNL d   1       2.447  -3.316  16.665 -0.35 -0.00    +0.000 A 
DOCKED: ATOM     13  C   UNL d   1       3.579  -2.909  17.425 -0.17 -0.01    +0.070 A 
DOCKED: ATOM     14  C   UNL d   1       1.910  -3.337  14.128 -0.47 -0.01    +0.052 C 
DOCKED: ATOM     15  C   UNL d   1       4.808  -2.552  19.559 -0.04 -0.01    +0.066 A 
DOCKED: ATOM     16  C   UNL d   1       4.803  -2.507  20.953 -0.03 +0.00    -0.021 A 
DOCKED: ATOM     17  C   UNL d   1       6.073  -2.078  21.339 -0.02 -0.00    +0.000 A 
DOCKED: ATOM     18  C   UNL d   1       6.767  -1.893  20.135 -0.04 -0.00    +0.070 A 
DOCKED: ATOM     19  C   UNL d   1       3.582  -2.821  21.781 -0.03 -0.02    +0.052 C 
DOCKED: ATOM     20  C   UNL d   1       8.868  -1.244  18.886 -0.07 +0.01    +0.066 A 
DOCKED: ATOM     21  C   UNL d   1      10.208  -0.867  18.843 -0.06 -0.00    -0.025 A 
DOCKED: ATOM     22  C   UNL d   1      10.552  -0.802  17.511 -0.07 -0.01    -0.021 A 
DOCKED: ATOM     23  C   UNL d   1       9.400  -1.125  16.787 -0.06 +0.02    +0.066 A 
DOCKED: ATOM     24  C   UNL d   1      11.113  -0.581  20.013 -0.03 +0.01    +0.051 C 
DOCKED: ATOM     25  N   UNL d   1       6.963  -1.670  15.159 -0.10 -0.01    -0.248 N 
DOCKED: ATOM     26  N   UNL d   1       4.565  -2.431  16.624 -0.11 +0.04    -0.248 N 
DOCKED: ATOM     27  N   UNL d   1       5.962  -2.113  19.065 -0.03 +0.02    -0.248 N 
DOCKED: ATOM     28  N   UNL d   1       8.367  -1.349  17.626 -0.06 -0.05    -0.248 N 
DOCKED: ATOM     29 FE   UNL d   1       6.479  -1.886  17.131 -0.03 +0.00    +0.000 Fe
DOCKED: ATOM     30  O   UNL d   1       5.834  -0.639  16.459 -0.37 -0.00    +0.000 OA
DOCKED: ATOM     31  O   UNL d   1       6.391  -0.534  17.929 -0.25 +0.00    +0.000 OA
DOCKED: ENDROOT
DOCKED: BRANCH   6  32
DOCKED: ATOM     32  C   UNL d   1       9.146  -0.817  12.272 -0.25 +0.01    +0.052 C 
DOCKED: BRANCH  32  33
DOCKED: ATOM     33  C   UNL d   1      10.147  -1.917  11.932 -0.13 +0.05    +0.115 C 
DOCKED: BRANCH  33  34
DOCKED: ATOM     34  C   UNL d   1      10.058  -2.351  10.490 -0.10 +0.14    +0.139 C 
DOCKED: ATOM     35  O   UNL d   1      10.402  -1.583   9.606 -0.44 -0.77    -0.650 OA
DOCKED: BRANCH  34  36
DOCKED: ATOM     36  O   UNL d   1       9.578  -3.565  10.150 -0.41 -1.18    -0.776 OA
DOCKED: ATOM     37  H   UNL d   1       8.922  -4.025  10.687 +0.05 +0.14    +0.167 HD
DOCKED: ENDBRANCH  34  36
DOCKED: ENDBRANCH  33  34
DOCKED: ENDBRANCH  32  33
DOCKED: ENDBRANCH   6  32
DOCKED: BRANCH  22  38
DOCKED: ATOM     38  C   UNL d   1      11.896  -0.388  16.970 -0.05 +0.01    +0.052 C 
DOCKED: BRANCH  38  39
DOCKED: ATOM     39  C   UNL d   1      12.091   1.126  16.993 -0.11 +0.05    +0.115 C 
DOCKED: BRANCH  39  40
DOCKED: ATOM     40  C   UNL d   1      11.152   1.843  16.056 -0.25 +0.08    +0.139 C 
DOCKED: ATOM     41  O   UNL d   1      10.884   1.350  14.972 -0.02 -0.25    -0.650 OA
DOCKED: BRANCH  40  42
DOCKED: ATOM     42  O   UNL d   1      10.559   2.998  16.414 -0.48 -0.76    -0.776 OA
DOCKED: ATOM     43  H   UNL d   1       9.601   3.107  16.376 -0.38 +0.09    +0.167 HD
DOCKED: ENDBRANCH  40  42
DOCKED: ENDBRANCH  39  40
DOCKED: ENDBRANCH  38  39
DOCKED: ENDBRANCH  22  38
DOCKED: BRANCH  12  44
DOCKED: ATOM     44  C   UNL d   1       1.108  -3.905  17.055 -0.38 -0.00    +0.004 C 
DOCKED: ATOM     45  C   UNL d   1      -0.078  -3.297  17.078 -0.44 -0.00    +0.012 C 
DOCKED: ENDBRANCH  12  44
DOCKED: BRANCH  17  46
DOCKED: ATOM     46  C   UNL d   1       6.645  -1.782  22.700 -0.02 -0.00    +0.004 C 
DOCKED: ATOM     47  C   UNL d   1       7.006  -0.597  23.207 -0.03 -0.00    +0.012 C 
DOCKED: ENDBRANCH  17  46
DOCKED: TORSDOF 10
DOCKED: TER
DOCKED: ENDMDL
________________________________________________________________________________


	BEGINNING GENETIC ALGORITHM DOCKING 24 of 100
Run: 24 Seed: 820495330 172123447 [ Run 24 of 100 GA/GALS ]
Beginning LAMARCKIAN GENETIC ALGORITHM (LGA), with a maximum of 25000000 energy evaluations.

Final-Value: -8.507


	FINAL GENETIC ALGORITHM DOCKED STATE
	_______________________________________________


Detailed state:  trans 1.230 12.641 -22.709 quatxyzw 0.255465 -0.111781 -0.122341 -0.952510 center 8.287 34.468 -0.670 ntor 10 46.4674 -93.2100 97.3289 -104.4655 -60.1197 160.0303 -62.5960 -122.0267 -178.1855 143.7316
State:	  1.230  12.641 -22.709   0.839 -0.367 -0.402 -35.457     46.47  -93.21   97.33 -104.47  -60.12  160.03  -62.60 -122.03 -178.19  143.73

DOCKED: MODEL       24
DOCKED: USER    Run = 24
DOCKED: USER    DPF = D:/Protein_go_brrr/autodock/final/mut_N102T/heme_O2/dock.dpf
DOCKED: USER  
DOCKED: USER    Estimated Free Energy of Binding    =   -5.06 kcal/mol  [=(1)+(2)+(3)-(4)]
DOCKED: USER    Estimated Inhibition Constant, Ki   =  193.80 uM (micromolar)  [Temperature = 298.15 K]
DOCKED: USER    
DOCKED: USER    (1) Final Intermolecular Energy     =   -8.05 kcal/mol
DOCKED: USER        vdW + Hbond + desolv Energy     =   -5.38 kcal/mol
DOCKED: USER        Electrostatic Energy            =   -2.67 kcal/mol
DOCKED: USER    (2) Final Total Internal Energy     =   -0.46 kcal/mol
DOCKED: USER    (3) Torsional Free Energy           =   +2.98 kcal/mol
DOCKED: USER    (4) Unbound System's Energy  [=(2)] =   -0.46 kcal/mol
DOCKED: USER    
DOCKED: USER    
DOCKED: USER    NEWDPF move heme_O2_opt.pdbqt
DOCKED: USER    NEWDPF about 8.287000 34.468000 -0.670000
DOCKED: USER    NEWDPF tran0 1.229856 12.641073 -22.709428
DOCKED: USER    NEWDPF quaternion0 0.255465 -0.111781 -0.122341 -0.952510
DOCKED: USER    NEWDPF axisangle0 0.838946 -0.367089 -0.401766 -35.457070
DOCKED: USER    NEWDPF quat0 0.838946 -0.367089 -0.401766 -35.457070
DOCKED: USER    NEWDPF dihe0 46.47 -93.21 97.33 -104.47 -60.12 160.03 -62.60 -122.03 -178.19 143.73 
DOCKED: USER  keepresnum = 1 
DOCKED: USER  
DOCKED: REMARK  10 active torsions:
DOCKED: REMARK  status: ('A' for Active; 'I' for Inactive)
DOCKED: REMARK    1  A    between atoms: C_6  and  C_10 
DOCKED: REMARK    2  A    between atoms: C_10  and  C_11 
DOCKED: REMARK    3  A    between atoms: C_11  and  C_12 
DOCKED: REMARK    4  A    between atoms: C_12  and  O_14 
DOCKED: REMARK    5  A    between atoms: C_17  and  C_20 
DOCKED: REMARK    6  A    between atoms: C_24  and  C_27 
DOCKED: REMARK    7  A    between atoms: C_31  and  C_34 
DOCKED: REMARK    8  A    between atoms: C_34  and  C_35 
DOCKED: REMARK    9  A    between atoms: C_35  and  C_36 
DOCKED: REMARK   10  A    between atoms: C_36  and  O_38 
DOCKED: USER                              x       y       z     vdW  Elec       q    Type
DOCKED: USER                           _______ _______ _______ _____ _____    ______ ____
DOCKED: ROOT
DOCKED: ATOM      1  C   UNL d   1      -0.211  14.057 -23.357 -0.07 +0.02    +0.064 A 
DOCKED: ATOM      2  C   UNL d   1      -0.602   9.723 -21.451 -0.18 -0.01    +0.064 A 
DOCKED: ATOM      3  C   UNL d   1       4.179   9.275 -21.263 -0.15 -0.01    +0.064 C 
DOCKED: ATOM      4  C   UNL d   1       4.594  13.922 -22.780 -0.01 +0.00    +0.064 A 
DOCKED: ATOM      5  C   UNL d   1      -0.707  12.915 -22.852 -0.10 +0.01    +0.066 A 
DOCKED: ATOM      6  C   UNL d   1      -2.073  12.632 -22.752 -0.12 -0.00    -0.021 A 
DOCKED: ATOM      7  C   UNL d   1      -2.188  11.396 -22.160 -0.16 -0.00    -0.025 A 
DOCKED: ATOM      8  C   UNL d   1      -0.889  10.937 -21.960 -0.18 +0.00    +0.066 A 
DOCKED: ATOM      9  C   UNL d   1      -3.496  10.731 -21.792 -0.17 +0.00    +0.051 C 
DOCKED: ATOM     10  C   UNL d   1       0.740   9.178 -21.239 -0.23 -0.00    +0.066 A 
DOCKED: ATOM     11  C   UNL d   1       0.981   7.852 -20.862 -0.24 +0.00    -0.021 A 
DOCKED: ATOM     12  C   UNL d   1       2.354   7.698 -20.820 -0.21 -0.00    +0.000 A 
DOCKED: ATOM     13  C   UNL d   1       2.885   8.971 -21.170 -0.09 -0.01    +0.070 A 
DOCKED: ATOM     14  C   UNL d   1      -0.056   6.770 -20.581 -0.30 -0.00    +0.052 C 
DOCKED: ATOM     15  C   UNL d   1       4.757  10.559 -21.580 -0.10 -0.01    +0.066 A 
DOCKED: ATOM     16  C   UNL d   1       6.118  10.854 -21.501 -0.09 +0.00    -0.021 A 
DOCKED: ATOM     17  C   UNL d   1       6.260  12.174 -21.928 -0.03 -0.00    +0.000 A 
DOCKED: ATOM     18  C   UNL d   1       4.958  12.590 -22.241 -0.03 -0.00    +0.070 A 
DOCKED: ATOM     19  C   UNL d   1       7.143   9.879 -20.978 -0.12 +0.01    +0.052 C 
DOCKED: ATOM     20  C   UNL d   1       3.352  14.368 -23.050 -0.01 +0.01    +0.066 A 
DOCKED: ATOM     21  C   UNL d   1       3.071  15.627 -23.573 -0.01 -0.00    -0.025 A 
DOCKED: ATOM     22  C   UNL d   1       1.709  15.673 -23.770 -0.03 -0.01    -0.021 A 
DOCKED: ATOM     23  C   UNL d   1       1.205  14.442 -23.340 -0.04 +0.02    +0.066 A 
DOCKED: ATOM     24  C   UNL d   1       4.053  16.732 -23.867 -0.00 +0.01    +0.051 C 
DOCKED: ATOM     25  N   UNL d   1       0.022  11.901 -22.326 -0.09 -0.02    -0.248 N 
DOCKED: ATOM     26  N   UNL d   1       1.896   9.866 -21.419 -0.13 +0.02    -0.248 N 
DOCKED: ATOM     27  N   UNL d   1       4.051  11.622 -21.953 -0.04 +0.02    -0.248 N 
DOCKED: ATOM     28  N   UNL d   1       2.201  13.668 -22.862 -0.02 -0.03    -0.248 N 
DOCKED: ATOM     29 FE   UNL d   1       2.053  11.781 -22.145 -0.02 +0.00    +0.000 Fe
DOCKED: ATOM     30  O   UNL d   1       1.306  11.891 -20.784 -0.33 +0.00    +0.000 OA
DOCKED: ATOM     31  O   UNL d   1       2.655  12.675 -21.000 -0.18 -0.00    +0.000 OA
DOCKED: ENDROOT
DOCKED: BRANCH   6  32
DOCKED: ATOM     32  C   UNL d   1      -3.230  13.543 -23.071 -0.08 +0.01    +0.052 C 
DOCKED: BRANCH  32  33
DOCKED: ATOM     33  C   UNL d   1      -3.748  14.293 -21.847 -0.12 +0.05    +0.115 C 
DOCKED: BRANCH  33  34
DOCKED: ATOM     34  C   UNL d   1      -3.547  15.784 -21.959 -0.01 +0.14    +0.139 C 
DOCKED: ATOM     35  O   UNL d   1      -4.342  16.542 -21.425 -0.05 -0.65    -0.650 OA
DOCKED: BRANCH  34  36
DOCKED: ATOM     36  O   UNL d   1      -2.520  16.305 -22.662 -0.52 -1.06    -0.776 OA
DOCKED: ATOM     37  H   UNL d   1      -2.297  15.994 -23.547 +0.01 +0.12    +0.167 HD
DOCKED: ENDBRANCH  34  36
DOCKED: ENDBRANCH  33  34
DOCKED: ENDBRANCH  32  33
DOCKED: ENDBRANCH   6  32
DOCKED: BRANCH  22  38
DOCKED: ATOM     38  C   UNL d   1       0.935  16.861 -24.281 -0.03 +0.02    +0.052 C 
DOCKED: BRANCH  38  39
DOCKED: ATOM     39  C   UNL d   1      -0.014  17.432 -23.230 -0.06 +0.11    +0.115 C 
DOCKED: BRANCH  39  40
DOCKED: ATOM     40  C   UNL d   1       0.700  17.827 -21.962 +0.17 +0.19    +0.139 C 
DOCKED: ATOM     41  O   UNL d   1       1.382  17.007 -21.370 -0.19 -0.58    -0.650 OA
DOCKED: BRANCH  40  42
DOCKED: ATOM     42  O   UNL d   1       0.640  19.089 -21.494 -0.40 -1.14    -0.776 OA
DOCKED: ATOM     43  H   UNL d   1       1.290  19.754 -21.751 +0.01 +0.12    +0.167 HD
DOCKED: ENDBRANCH  40  42
DOCKED: ENDBRANCH  39  40
DOCKED: ENDBRANCH  38  39
DOCKED: ENDBRANCH  22  38
DOCKED: BRANCH  12  44
DOCKED: ATOM     44  C   UNL d   1       3.004   6.380 -20.455 -0.24 -0.00    +0.004 C 
DOCKED: ATOM     45  C   UNL d   1       3.308   5.926 -19.239 -0.37 -0.00    +0.012 C 
DOCKED: ENDBRANCH  12  44
DOCKED: BRANCH  17  46
DOCKED: ATOM     46  C   UNL d   1       7.473  13.062 -22.006 -0.01 -0.00    +0.004 C 
DOCKED: ATOM     47  C   UNL d   1       7.755  14.146 -21.271 -0.00 -0.00    +0.012 C 
DOCKED: ENDBRANCH  17  46
DOCKED: TORSDOF 10
DOCKED: TER
DOCKED: ENDMDL
________________________________________________________________________________


	BEGINNING GENETIC ALGORITHM DOCKING 25 of 100
Run: 25 Seed: 130559396 48139553 [ Run 25 of 100 GA/GALS ]
Beginning LAMARCKIAN GENETIC ALGORITHM (LGA), with a maximum of 25000000 energy evaluations.

Final-Value: -9.250


	FINAL GENETIC ALGORITHM DOCKED STATE
	_______________________________________________


Detailed state:  trans -5.443 11.549 -9.151 quatxyzw -0.308241 0.880047 0.291676 0.213144 center 8.287 34.468 -0.670 ntor 10 137.5966 -10.4423 2.5690 88.5343 179.6880 -48.0872 -96.1472 -176.4597 -171.5038 170.4562
State:	 -5.443  11.549  -9.151  -0.315  0.901  0.299 155.387    137.60  -10.44    2.57   88.53  179.69  -48.09  -96.15 -176.46 -171.50  170.46

DOCKED: MODEL       25
DOCKED: USER    Run = 25
DOCKED: USER    DPF = D:/Protein_go_brrr/autodock/final/mut_N102T/heme_O2/dock.dpf
DOCKED: USER  
DOCKED: USER    Estimated Free Energy of Binding    =   -3.88 kcal/mol  [=(1)+(2)+(3)-(4)]
DOCKED: USER    Estimated Inhibition Constant, Ki   =    1.44 mM (millimolar)  [Temperature = 298.15 K]
DOCKED: USER    
DOCKED: USER    (1) Final Intermolecular Energy     =   -6.86 kcal/mol
DOCKED: USER        vdW + Hbond + desolv Energy     =   -6.68 kcal/mol
DOCKED: USER        Electrostatic Energy            =   -0.17 kcal/mol
DOCKED: USER    (2) Final Total Internal Energy     =   -2.39 kcal/mol
DOCKED: USER    (3) Torsional Free Energy           =   +2.98 kcal/mol
DOCKED: USER    (4) Unbound System's Energy  [=(2)] =   -2.39 kcal/mol
DOCKED: USER    
DOCKED: USER    
DOCKED: USER    NEWDPF move heme_O2_opt.pdbqt
DOCKED: USER    NEWDPF about 8.287000 34.468000 -0.670000
DOCKED: USER    NEWDPF tran0 -5.442575 11.548561 -9.150607
DOCKED: USER    NEWDPF quaternion0 -0.308241 0.880047 0.291676 0.213144
DOCKED: USER    NEWDPF axisangle0 -0.315490 0.900745 0.298536 155.386660
DOCKED: USER    NEWDPF quat0 -0.315490 0.900745 0.298536 155.386660
DOCKED: USER    NEWDPF dihe0 137.60 -10.44 2.57 88.53 179.69 -48.09 -96.15 -176.46 -171.50 170.46 
DOCKED: USER  keepresnum = 1 
DOCKED: USER  
DOCKED: REMARK  10 active torsions:
DOCKED: REMARK  status: ('A' for Active; 'I' for Inactive)
DOCKED: REMARK    1  A    between atoms: C_6  and  C_10 
DOCKED: REMARK    2  A    between atoms: C_10  and  C_11 
DOCKED: REMARK    3  A    between atoms: C_11  and  C_12 
DOCKED: REMARK    4  A    between atoms: C_12  and  O_14 
DOCKED: REMARK    5  A    between atoms: C_17  and  C_20 
DOCKED: REMARK    6  A    between atoms: C_24  and  C_27 
DOCKED: REMARK    7  A    between atoms: C_31  and  C_34 
DOCKED: REMARK    8  A    between atoms: C_34  and  C_35 
DOCKED: REMARK    9  A    between atoms: C_35  and  C_36 
DOCKED: REMARK   10  A    between atoms: C_36  and  O_38 
DOCKED: USER                              x       y       z     vdW  Elec       q    Type
DOCKED: USER                           _______ _______ _______ _____ _____    ______ ____
DOCKED: ROOT
DOCKED: ATOM      1  C   UNL d   1      -3.906  12.875  -8.537 -0.20 -0.00    +0.064 A 
DOCKED: ATOM      2  C   UNL d   1      -5.667  11.763 -12.805 -0.15 -0.01    +0.064 A 
DOCKED: ATOM      3  C   UNL d   1      -8.737   8.639 -10.826 -0.09 -0.01    +0.064 C 
DOCKED: ATOM      4  C   UNL d   1      -7.262  10.126  -6.389 -0.10 -0.00    +0.064 A 
DOCKED: ATOM      5  C   UNL d   1      -4.136  12.829  -9.859 -0.18 -0.01    +0.066 A 
DOCKED: ATOM      6  C   UNL d   1      -3.428  13.578 -10.803 -0.18 +0.00    -0.021 A 
DOCKED: ATOM      7  C   UNL d   1      -3.966  13.289 -12.035 -0.23 +0.00    -0.025 A 
DOCKED: ATOM      8  C   UNL d   1      -4.956  12.335 -11.815 -0.19 -0.01    +0.066 A 
DOCKED: ATOM      9  C   UNL d   1      -3.547  13.938 -13.336 -0.17 +0.00    +0.051 C 
DOCKED: ATOM     10  C   UNL d   1      -6.702  10.741 -12.637 -0.13 -0.01    +0.066 A 
DOCKED: ATOM     11  C   UNL d   1      -7.294  10.063 -13.708 -0.19 +0.00    -0.021 A 
DOCKED: ATOM     12  C   UNL d   1      -8.169   9.145 -13.157 -0.19 -0.00    +0.000 A 
DOCKED: ATOM     13  C   UNL d   1      -8.068   9.328 -11.750 -0.14 -0.01    +0.070 A 
DOCKED: ATOM     14  C   UNL d   1      -7.017  10.263 -15.194 -0.26 -0.00    +0.052 C 
DOCKED: ATOM     15  C   UNL d   1      -8.689   8.818  -9.395 -0.12 -0.00    +0.066 A 
DOCKED: ATOM     16  C   UNL d   1      -9.535   8.178  -8.489 -0.08 -0.00    -0.021 A 
DOCKED: ATOM     17  C   UNL d   1      -9.134   8.587  -7.218 -0.11 -0.00    +0.000 A 
DOCKED: ATOM     18  C   UNL d   1      -8.058   9.456  -7.446 -0.12 -0.00    +0.070 A 
DOCKED: ATOM     19  C   UNL d   1     -10.674   7.286  -8.917 -0.05 +0.00    +0.052 C 
DOCKED: ATOM     20  C   UNL d   1      -6.253  10.998  -6.574 -0.18 +0.00    +0.066 A 
DOCKED: ATOM     21  C   UNL d   1      -5.528  11.583  -5.539 -0.20 -0.00    -0.025 A 
DOCKED: ATOM     22  C   UNL d   1      -4.550  12.349  -6.132 -0.27 -0.00    -0.021 A 
DOCKED: ATOM     23  C   UNL d   1      -4.725  12.216  -7.513 -0.26 -0.00    +0.066 A 
DOCKED: ATOM     24  C   UNL d   1      -5.761  11.423  -4.059 -0.16 +0.01    +0.051 C 
DOCKED: ATOM     25  N   UNL d   1      -5.104  12.101 -10.467 -0.12 +0.02    -0.248 N 
DOCKED: ATOM     26  N   UNL d   1      -7.177  10.304 -11.443 -0.07 +0.03    -0.248 N 
DOCKED: ATOM     27  N   UNL d   1      -7.850   9.643  -8.774 -0.07 +0.01    -0.248 N 
DOCKED: ATOM     28  N   UNL d   1      -5.790  11.430  -7.777 -0.12 +0.00    -0.248 N 
DOCKED: ATOM     29 FE   UNL d   1      -6.480  10.870  -9.595 -0.04 -0.00    +0.000 Fe
DOCKED: ATOM     30  O   UNL d   1      -7.097  12.146 -10.238 -0.07 -0.00    +0.000 OA
DOCKED: ATOM     31  O   UNL d   1      -7.648  11.622  -8.858 -0.07 -0.00    +0.000 OA
DOCKED: ENDROOT
DOCKED: BRANCH   6  32
DOCKED: ATOM     32  C   UNL d   1      -2.378  14.628 -10.549 -0.29 -0.01    +0.052 C 
DOCKED: BRANCH  32  33
DOCKED: ATOM     33  C   UNL d   1      -2.969  16.021 -10.352 -0.14 -0.00    +0.115 C 
DOCKED: BRANCH  33  34
DOCKED: ATOM     34  C   UNL d   1      -3.473  16.237  -8.946 -0.12 +0.00    +0.139 C 
DOCKED: ATOM     35  O   UNL d   1      -2.955  15.636  -8.020 -0.59 -0.14    -0.650 OA
DOCKED: BRANCH  34  36
DOCKED: ATOM     36  O   UNL d   1      -4.509  17.064  -8.691 +0.04 -0.01    -0.776 OA
DOCKED: ATOM     37  H   UNL d   1      -5.203  16.833  -8.063 +0.02 +0.00    +0.167 HD
DOCKED: ENDBRANCH  34  36
DOCKED: ENDBRANCH  33  34
DOCKED: ENDBRANCH  32  33
DOCKED: ENDBRANCH   6  32
DOCKED: BRANCH  22  38
DOCKED: ATOM     38  C   UNL d   1      -3.547  13.209  -5.407 -0.32 +0.01    +0.052 C 
DOCKED: BRANCH  38  39
DOCKED: ATOM     39  C   UNL d   1      -4.076  14.615  -5.133 -0.16 +0.01    +0.115 C 
DOCKED: BRANCH  39  40
DOCKED: ATOM     40  C   UNL d   1      -5.499  14.797  -5.601 -0.04 +0.01    +0.139 C 
DOCKED: ATOM     41  O   UNL d   1      -6.418  14.668  -4.808 +0.04 -0.04    -0.650 OA
DOCKED: BRANCH  40  42
DOCKED: ATOM     42  O   UNL d   1      -5.774  15.150  -6.871 +0.06 -0.02    -0.776 OA
DOCKED: ATOM     43  H   UNL d   1      -5.075  15.403  -7.487 +0.03 +0.00    +0.167 HD
DOCKED: ENDBRANCH  40  42
DOCKED: ENDBRANCH  39  40
DOCKED: ENDBRANCH  38  39
DOCKED: ENDBRANCH  22  38
DOCKED: BRANCH  12  44
DOCKED: ATOM     44  C   UNL d   1      -8.997   8.210 -14.013 -0.25 -0.00    +0.004 C 
DOCKED: ATOM     45  C   UNL d   1      -9.846   7.265 -13.609 -0.26 -0.00    +0.012 C 
DOCKED: ENDBRANCH  12  44
DOCKED: BRANCH  17  46
DOCKED: ATOM     46  C   UNL d   1      -9.700   8.282  -5.857 -0.09 -0.00    +0.004 C 
DOCKED: ATOM     47  C   UNL d   1      -9.496   7.197  -5.098 -0.09 -0.00    +0.012 C 
DOCKED: ENDBRANCH  17  46
DOCKED: TORSDOF 10
DOCKED: TER
DOCKED: ENDMDL
________________________________________________________________________________


	BEGINNING GENETIC ALGORITHM DOCKING 26 of 100
Run: 26 Seed: 1446599397 78230149 [ Run 26 of 100 GA/GALS ]
Beginning LAMARCKIAN GENETIC ALGORITHM (LGA), with a maximum of 25000000 energy evaluations.

Final-Value: -9.234


	FINAL GENETIC ALGORITHM DOCKED STATE
	_______________________________________________


Detailed state:  trans -11.082 5.473 11.330 quatxyzw -0.544563 0.738134 0.201125 0.343742 center 8.287 34.468 -0.670 ntor 10 125.2413 -6.9919 42.3279 119.8840 171.4164 -18.8401 -87.6441 144.4287 -167.0281 -162.7494
State:	-11.082   5.473  11.330  -0.580  0.786  0.214 139.790    125.24   -6.99   42.33  119.88  171.42  -18.84  -87.64  144.43 -167.03 -162.75

DOCKED: MODEL       26
DOCKED: USER    Run = 26
DOCKED: USER    DPF = D:/Protein_go_brrr/autodock/final/mut_N102T/heme_O2/dock.dpf
DOCKED: USER  
DOCKED: USER    Estimated Free Energy of Binding    =   -3.88 kcal/mol  [=(1)+(2)+(3)-(4)]
DOCKED: USER    Estimated Inhibition Constant, Ki   =    1.44 mM (millimolar)  [Temperature = 298.15 K]
DOCKED: USER    
DOCKED: USER    (1) Final Intermolecular Energy     =   -6.86 kcal/mol
DOCKED: USER        vdW + Hbond + desolv Energy     =   -6.89 kcal/mol
DOCKED: USER        Electrostatic Energy            =   +0.04 kcal/mol
DOCKED: USER    (2) Final Total Internal Energy     =   -2.38 kcal/mol
DOCKED: USER    (3) Torsional Free Energy           =   +2.98 kcal/mol
DOCKED: USER    (4) Unbound System's Energy  [=(2)] =   -2.38 kcal/mol
DOCKED: USER    
DOCKED: USER    
DOCKED: USER    NEWDPF move heme_O2_opt.pdbqt
DOCKED: USER    NEWDPF about 8.287000 34.468000 -0.670000
DOCKED: USER    NEWDPF tran0 -11.081965 5.473108 11.329817
DOCKED: USER    NEWDPF quaternion0 -0.544563 0.738134 0.201125 0.343742
DOCKED: USER    NEWDPF axisangle0 -0.579899 0.786031 0.214176 139.789935
DOCKED: USER    NEWDPF quat0 -0.579899 0.786031 0.214176 139.789935
DOCKED: USER    NEWDPF dihe0 125.24 -6.99 42.33 119.88 171.42 -18.84 -87.64 144.43 -167.03 -162.75 
DOCKED: USER  keepresnum = 1 
DOCKED: USER  
DOCKED: REMARK  10 active torsions:
DOCKED: REMARK  status: ('A' for Active; 'I' for Inactive)
DOCKED: REMARK    1  A    between atoms: C_6  and  C_10 
DOCKED: REMARK    2  A    between atoms: C_10  and  C_11 
DOCKED: REMARK    3  A    between atoms: C_11  and  C_12 
DOCKED: REMARK    4  A    between atoms: C_12  and  O_14 
DOCKED: REMARK    5  A    between atoms: C_17  and  C_20 
DOCKED: REMARK    6  A    between atoms: C_24  and  C_27 
DOCKED: REMARK    7  A    between atoms: C_31  and  C_34 
DOCKED: REMARK    8  A    between atoms: C_34  and  C_35 
DOCKED: REMARK    9  A    between atoms: C_35  and  C_36 
DOCKED: REMARK   10  A    between atoms: C_36  and  O_38 
DOCKED: USER                              x       y       z     vdW  Elec       q    Type
DOCKED: USER                           _______ _______ _______ _____ _____    ______ ____
DOCKED: ROOT
DOCKED: ATOM      1  C   UNL d   1     -10.582   7.493  11.741 -0.29 +0.00    +0.064 A 
DOCKED: ATOM      2  C   UNL d   1     -11.661   5.210   7.718 -0.09 +0.00    +0.064 A 
DOCKED: ATOM      3  C   UNL d   1     -12.140   1.060  10.094 -0.23 -0.01    +0.064 C 
DOCKED: ATOM      4  C   UNL d   1     -11.501   3.491  14.306 -0.13 +0.01    +0.064 A 
DOCKED: ATOM      5  C   UNL d   1     -10.838   7.211  10.453 -0.30 +0.00    +0.066 A 
DOCKED: ATOM      6  C   UNL d   1     -10.781   8.151   9.420 -0.32 +0.00    -0.021 A 
DOCKED: ATOM      7  C   UNL d   1     -11.135   7.500   8.261 -0.29 +0.00    -0.025 A 
DOCKED: ATOM      8  C   UNL d   1     -11.352   6.170   8.611 -0.28 -0.00    +0.066 A 
DOCKED: ATOM      9  C   UNL d   1     -11.278   8.160   6.907 -0.28 -0.01    +0.051 C 
DOCKED: ATOM     10  C   UNL d   1     -11.878   3.795   8.022 -0.25 -0.00    +0.066 A 
DOCKED: ATOM     11  C   UNL d   1     -12.034   2.812   7.038 -0.27 +0.00    -0.021 A 
DOCKED: ATOM     12  C   UNL d   1     -12.156   1.606   7.703 -0.25 -0.00    +0.000 A 
DOCKED: ATOM     13  C   UNL d   1     -12.077   1.930   9.086 -0.21 -0.01    +0.070 A 
DOCKED: ATOM     14  C   UNL d   1     -12.039   3.011   5.527 -0.28 -0.00    +0.052 C 
DOCKED: ATOM     15  C   UNL d   1     -12.101   1.352  11.506 -0.19 -0.01    +0.066 A 
DOCKED: ATOM     16  C   UNL d   1     -12.336   0.416  12.513 -0.12 +0.00    -0.021 A 
DOCKED: ATOM     17  C   UNL d   1     -12.161   1.087  13.724 -0.11 +0.00    +0.000 A 
DOCKED: ATOM     18  C   UNL d   1     -11.824   2.398  13.359 -0.16 +0.00    +0.070 A 
DOCKED: ATOM     19  C   UNL d   1     -12.758  -1.005  12.234 -0.07 -0.01    +0.052 C 
DOCKED: ATOM     20  C   UNL d   1     -11.217   4.770  13.992 -0.14 +0.01    +0.066 A 
DOCKED: ATOM     21  C   UNL d   1     -10.903   5.752  14.927 -0.13 -0.00    -0.025 A 
DOCKED: ATOM     22  C   UNL d   1     -10.612   6.892  14.213 -0.19 -0.00    -0.021 A 
DOCKED: ATOM     23  C   UNL d   1     -10.777   6.568  12.863 -0.24 +0.01    +0.066 A 
DOCKED: ATOM     24  C   UNL d   1     -10.885   5.611  16.427 -0.08 +0.00    +0.051 C 
DOCKED: ATOM     25  N   UNL d   1     -11.233   6.007   9.972 -0.15 +0.00    -0.248 N 
DOCKED: ATOM     26  N   UNL d   1     -11.913   3.264   9.271 -0.16 +0.02    -0.248 N 
DOCKED: ATOM     27  N   UNL d   1     -11.866   2.559  12.012 -0.15 +0.01    -0.248 N 
DOCKED: ATOM     28  N   UNL d   1     -11.189   5.289  12.736 -0.08 -0.02    -0.248 N 
DOCKED: ATOM     29 FE   UNL d   1     -11.549   4.282  11.017 -0.06 -0.00    +0.000 Fe
DOCKED: ATOM     30  O   UNL d   1     -12.846   4.898  10.416 -0.15 -0.00    +0.000 OA
DOCKED: ATOM     31  O   UNL d   1     -12.877   4.269  11.860 -0.14 -0.00    +0.000 OA
DOCKED: ENDROOT
DOCKED: BRANCH   6  32
DOCKED: ATOM     32  C   UNL d   1     -10.537   9.633   9.533 -0.26 -0.01    +0.052 C 
DOCKED: BRANCH  32  33
DOCKED: ATOM     33  C   UNL d   1     -11.802  10.418   9.868 -0.09 -0.01    +0.115 C 
DOCKED: BRANCH  33  34
DOCKED: ATOM     34  C   UNL d   1     -12.007  10.568  11.355 -0.05 -0.01    +0.139 C 
DOCKED: ATOM     35  O   UNL d   1     -11.059  10.432  12.112 +0.01 +0.02    -0.650 OA
DOCKED: BRANCH  34  36
DOCKED: ATOM     36  O   UNL d   1     -13.226  10.823  11.875 +0.01 +0.03    -0.776 OA
DOCKED: ATOM     37  H   UNL d   1     -13.617  10.267  12.558 +0.01 -0.01    +0.167 HD
DOCKED: ENDBRANCH  34  36
DOCKED: ENDBRANCH  33  34
DOCKED: ENDBRANCH  32  33
DOCKED: ENDBRANCH   6  32
DOCKED: BRANCH  22  38
DOCKED: ATOM     38  C   UNL d   1     -10.258   8.233  14.803 -0.15 +0.00    +0.052 C 
DOCKED: BRANCH  38  39
DOCKED: ATOM     39  C   UNL d   1     -11.376   8.797  15.678 -0.03 -0.00    +0.115 C 
DOCKED: BRANCH  39  40
DOCKED: ATOM     40  C   UNL d   1     -12.747   8.485  15.132 -0.02 -0.00    +0.139 C 
DOCKED: ATOM     41  O   UNL d   1     -13.570   7.929  15.843 +0.01 +0.01    -0.650 OA
DOCKED: BRANCH  40  42
DOCKED: ATOM     42  O   UNL d   1     -13.101   8.855  13.886 +0.03 +0.02    -0.776 OA
DOCKED: ATOM     43  H   UNL d   1     -12.514   9.380  13.330 +0.02 -0.00    +0.167 HD
DOCKED: ENDBRANCH  40  42
DOCKED: ENDBRANCH  39  40
DOCKED: ENDBRANCH  38  39
DOCKED: ENDBRANCH  22  38
DOCKED: BRANCH  12  44
DOCKED: ATOM     44  C   UNL d   1     -12.334   0.295   6.965 -0.25 -0.00    +0.004 C 
DOCKED: ATOM     45  C   UNL d   1     -13.097  -0.741   7.309 -0.16 -0.00    +0.012 C 
DOCKED: ENDBRANCH  12  44
DOCKED: BRANCH  17  46
DOCKED: ATOM     46  C   UNL d   1     -12.335   0.623  15.145 -0.07 +0.00    +0.004 C 
DOCKED: ATOM     47  C   UNL d   1     -11.395   0.462  16.085 -0.10 +0.00    +0.012 C 
DOCKED: ENDBRANCH  17  46
DOCKED: TORSDOF 10
DOCKED: TER
DOCKED: ENDMDL
________________________________________________________________________________


	BEGINNING GENETIC ALGORITHM DOCKING 27 of 100
Run: 27 Seed: 1037583093 1833835751 [ Run 27 of 100 GA/GALS ]
Beginning LAMARCKIAN GENETIC ALGORITHM (LGA), with a maximum of 25000000 energy evaluations.

Final-Value: -9.942


	FINAL GENETIC ALGORITHM DOCKED STATE
	_______________________________________________


Detailed state:  trans 1.730 12.365 -22.367 quatxyzw 0.291223 -0.087018 -0.187224 -0.934112 center 8.287 34.468 -0.670 ntor 10 -173.5829 38.4293 80.0484 -102.3396 -84.3366 25.4566 71.4541 54.0130 -23.6166 -170.0357
State:	  1.730  12.365 -22.367   0.816 -0.244 -0.524 -41.830   -173.58   38.43   80.05 -102.34  -84.34   25.46   71.45   54.01  -23.62 -170.04

DOCKED: MODEL       27
DOCKED: USER    Run = 27
DOCKED: USER    DPF = D:/Protein_go_brrr/autodock/final/mut_N102T/heme_O2/dock.dpf
DOCKED: USER  
DOCKED: USER    Estimated Free Energy of Binding    =   -4.92 kcal/mol  [=(1)+(2)+(3)-(4)]
DOCKED: USER    Estimated Inhibition Constant, Ki   =  247.62 uM (micromolar)  [Temperature = 298.15 K]
DOCKED: USER    
DOCKED: USER    (1) Final Intermolecular Energy     =   -7.90 kcal/mol
DOCKED: USER        vdW + Hbond + desolv Energy     =   -5.14 kcal/mol
DOCKED: USER        Electrostatic Energy            =   -2.76 kcal/mol
DOCKED: USER    (2) Final Total Internal Energy     =   -2.04 kcal/mol
DOCKED: USER    (3) Torsional Free Energy           =   +2.98 kcal/mol
DOCKED: USER    (4) Unbound System's Energy  [=(2)] =   -2.04 kcal/mol
DOCKED: USER    
DOCKED: USER    
DOCKED: USER    NEWDPF move heme_O2_opt.pdbqt
DOCKED: USER    NEWDPF about 8.287000 34.468000 -0.670000
DOCKED: USER    NEWDPF tran0 1.729746 12.364827 -22.367209
DOCKED: USER    NEWDPF quaternion0 0.291223 -0.087018 -0.187224 -0.934112
DOCKED: USER    NEWDPF axisangle0 0.815793 -0.243760 -0.524464 -41.829832
DOCKED: USER    NEWDPF quat0 0.815793 -0.243760 -0.524464 -41.829832
DOCKED: USER    NEWDPF dihe0 -173.58 38.43 80.05 -102.34 -84.34 25.46 71.45 54.01 -23.62 -170.04 
DOCKED: USER  keepresnum = 1 
DOCKED: USER  
DOCKED: REMARK  10 active torsions:
DOCKED: REMARK  status: ('A' for Active; 'I' for Inactive)
DOCKED: REMARK    1  A    between atoms: C_6  and  C_10 
DOCKED: REMARK    2  A    between atoms: C_10  and  C_11 
DOCKED: REMARK    3  A    between atoms: C_11  and  C_12 
DOCKED: REMARK    4  A    between atoms: C_12  and  O_14 
DOCKED: REMARK    5  A    between atoms: C_17  and  C_20 
DOCKED: REMARK    6  A    between atoms: C_24  and  C_27 
DOCKED: REMARK    7  A    between atoms: C_31  and  C_34 
DOCKED: REMARK    8  A    between atoms: C_34  and  C_35 
DOCKED: REMARK    9  A    between atoms: C_35  and  C_36 
DOCKED: REMARK   10  A    between atoms: C_36  and  O_38 
DOCKED: USER                              x       y       z     vdW  Elec       q    Type
DOCKED: USER                           _______ _______ _______ _____ _____    ______ ____
DOCKED: ROOT
DOCKED: ATOM      1  C   UNL d   1       0.417  13.981 -22.772 -0.09 +0.02    +0.064 A 
DOCKED: ATOM      2  C   UNL d   1      -0.331   9.541 -21.260 -0.21 -0.01    +0.064 A 
DOCKED: ATOM      3  C   UNL d   1       4.373   8.581 -21.462 -0.14 -0.01    +0.064 C 
DOCKED: ATOM      4  C   UNL d   1       5.204  13.290 -22.560 -0.01 -0.00    +0.064 A 
DOCKED: ATOM      5  C   UNL d   1      -0.171  12.852 -22.343 -0.13 +0.01    +0.066 A 
DOCKED: ATOM      6  C   UNL d   1      -1.550  12.703 -22.170 -0.17 -0.00    -0.021 A 
DOCKED: ATOM      7  C   UNL d   1      -1.764  11.432 -21.691 -0.18 -0.00    -0.025 A 
DOCKED: ATOM      8  C   UNL d   1      -0.513  10.823 -21.630 -0.17 -0.00    +0.066 A 
DOCKED: ATOM      9  C   UNL d   1      -3.112  10.873 -21.293 -0.21 +0.00    +0.051 C 
DOCKED: ATOM     10  C   UNL d   1       0.952   8.840 -21.198 -0.22 -0.00    +0.066 A 
DOCKED: ATOM     11  C   UNL d   1       1.068   7.465 -20.966 -0.23 +0.00    -0.021 A 
DOCKED: ATOM     12  C   UNL d   1       2.416   7.166 -21.038 -0.18 -0.00    +0.000 A 
DOCKED: ATOM     13  C   UNL d   1       3.062   8.405 -21.304 -0.14 -0.01    +0.070 A 
DOCKED: ATOM     14  C   UNL d   1      -0.062   6.474 -20.713 -0.29 -0.00    +0.052 C 
DOCKED: ATOM     15  C   UNL d   1       5.069   9.824 -21.697 -0.10 -0.01    +0.066 A 
DOCKED: ATOM     16  C   UNL d   1       6.456   9.967 -21.690 -0.10 -0.00    -0.021 A 
DOCKED: ATOM     17  C   UNL d   1       6.716  11.302 -22.000 -0.04 -0.00    +0.000 A 
DOCKED: ATOM     18  C   UNL d   1       5.452  11.880 -22.177 -0.03 -0.01    +0.070 A 
DOCKED: ATOM     19  C   UNL d   1       7.397   8.842 -21.337 -0.09 +0.02    +0.052 C 
DOCKED: ATOM     20  C   UNL d   1       4.004  13.888 -22.696 -0.01 +0.00    +0.066 A 
DOCKED: ATOM     21  C   UNL d   1       3.833  15.216 -23.077 -0.01 -0.00    -0.025 A 
DOCKED: ATOM     22  C   UNL d   1       2.475  15.422 -23.169 -0.03 -0.00    -0.021 A 
DOCKED: ATOM     23  C   UNL d   1       1.865  14.213 -22.822 -0.05 +0.01    +0.066 A 
DOCKED: ATOM     24  C   UNL d   1       4.910  16.236 -23.336 +0.00 +0.00    +0.051 C 
DOCKED: ATOM     25  N   UNL d   1       0.474  11.719 -21.969 -0.11 -0.02    -0.248 N 
DOCKED: ATOM     26  N   UNL d   1       2.164   9.419 -21.395 -0.12 +0.02    -0.248 N 
DOCKED: ATOM     27  N   UNL d   1       4.463  10.987 -21.916 -0.05 +0.03    -0.248 N 
DOCKED: ATOM     28  N   UNL d   1       2.797  13.296 -22.492 -0.02 -0.02    -0.248 N 
DOCKED: ATOM     29 FE   UNL d   1       2.486  11.371 -21.947 -0.02 -0.00    +0.000 Fe
DOCKED: ATOM     30  O   UNL d   1       1.841  11.419 -20.531 -0.33 -0.00    +0.000 OA
DOCKED: ATOM     31  O   UNL d   1       3.253  12.077 -20.770 -0.20 -0.00    +0.000 OA
DOCKED: ENDROOT
DOCKED: BRANCH   6  32
DOCKED: ATOM     32  C   UNL d   1      -2.617  13.757 -22.318 -0.14 +0.02    +0.052 C 
DOCKED: BRANCH  32  33
DOCKED: ATOM     33  C   UNL d   1      -2.669  14.356 -23.720 -0.06 +0.04    +0.115 C 
DOCKED: BRANCH  33  34
DOCKED: ATOM     34  C   UNL d   1      -2.206  15.791 -23.750 -0.08 +0.09    +0.139 C 
DOCKED: ATOM     35  O   UNL d   1      -1.302  16.118 -24.502 -0.01 -0.30    -0.650 OA
DOCKED: BRANCH  34  36
DOCKED: ATOM     36  O   UNL d   1      -2.751  16.723 -22.941 -0.42 -1.04    -0.776 OA
DOCKED: ATOM     37  H   UNL d   1      -2.531  17.659 -23.018 +0.01 +0.29    +0.167 HD
DOCKED: ENDBRANCH  34  36
DOCKED: ENDBRANCH  33  34
DOCKED: ENDBRANCH  32  33
DOCKED: ENDBRANCH   6  32
DOCKED: BRANCH  22  38
DOCKED: ATOM     38  C   UNL d   1       1.806  16.730 -23.509 -0.04 +0.02    +0.052 C 
DOCKED: BRANCH  38  39
DOCKED: ATOM     39  C   UNL d   1       1.985  17.777 -22.412 -0.05 +0.06    +0.115 C 
DOCKED: BRANCH  39  40
DOCKED: ATOM     40  C   UNL d   1       0.673  18.373 -21.965 +0.22 +0.19    +0.139 C 
DOCKED: ATOM     41  O   UNL d   1       0.637  19.085 -20.975 -0.43 -1.09    -0.650 OA
DOCKED: BRANCH  40  42
DOCKED: ATOM     42  O   UNL d   1      -0.457  18.174 -22.670 +0.00 -1.30    -0.776 OA
DOCKED: ATOM     43  H   UNL d   1      -0.669  17.315 -23.053 -0.00 +0.23    +0.167 HD
DOCKED: ENDBRANCH  40  42
DOCKED: ENDBRANCH  39  40
DOCKED: ENDBRANCH  38  39
DOCKED: ENDBRANCH  22  38
DOCKED: BRANCH  12  44
DOCKED: ATOM     44  C   UNL d   1       2.938   5.757 -20.847 -0.16 -0.00    +0.004 C 
DOCKED: ATOM     45  C   UNL d   1       3.555   5.251 -19.779 -0.27 -0.00    +0.012 C 
DOCKED: ENDBRANCH  12  44
DOCKED: BRANCH  17  46
DOCKED: ATOM     46  C   UNL d   1       8.013  12.062 -22.082 -0.01 -0.00    +0.004 C 
DOCKED: ATOM     47  C   UNL d   1       8.475  13.003 -21.248 -0.01 -0.00    +0.012 C 
DOCKED: ENDBRANCH  17  46
DOCKED: TORSDOF 10
DOCKED: TER
DOCKED: ENDMDL
________________________________________________________________________________


	BEGINNING GENETIC ALGORITHM DOCKING 28 of 100
Run: 28 Seed: 1628803363 317277842 [ Run 28 of 100 GA/GALS ]
Beginning LAMARCKIAN GENETIC ALGORITHM (LGA), with a maximum of 25000000 energy evaluations.

Final-Value: -11.173


	FINAL GENETIC ALGORITHM DOCKED STATE
	_______________________________________________


Detailed state:  trans 7.428 -5.315 14.452 quatxyzw -0.257372 -0.307434 -0.713451 -0.574658 center 8.287 34.468 -0.670 ntor 10 -174.2050 -42.1164 -60.9312 -115.1402 157.1157 -149.0556 -75.2151 -2.9365 -144.4507 158.4493
State:	  7.428  -5.315  14.452  -0.314 -0.376 -0.872 -109.849   -174.20  -42.12  -60.93 -115.14  157.12 -149.06  -75.22   -2.94 -144.45  158.45

DOCKED: MODEL       28
DOCKED: USER    Run = 28
DOCKED: USER    DPF = D:/Protein_go_brrr/autodock/final/mut_N102T/heme_O2/dock.dpf
DOCKED: USER  
DOCKED: USER    Estimated Free Energy of Binding    =   -6.57 kcal/mol  [=(1)+(2)+(3)-(4)]
DOCKED: USER    Estimated Inhibition Constant, Ki   =   15.25 uM (micromolar)  [Temperature = 298.15 K]
DOCKED: USER    
DOCKED: USER    (1) Final Intermolecular Energy     =   -9.55 kcal/mol
DOCKED: USER        vdW + Hbond + desolv Energy     =   -6.72 kcal/mol
DOCKED: USER        Electrostatic Energy            =   -2.83 kcal/mol
DOCKED: USER    (2) Final Total Internal Energy     =   -1.62 kcal/mol
DOCKED: USER    (3) Torsional Free Energy           =   +2.98 kcal/mol
DOCKED: USER    (4) Unbound System's Energy  [=(2)] =   -1.62 kcal/mol
DOCKED: USER    
DOCKED: USER    
DOCKED: USER    NEWDPF move heme_O2_opt.pdbqt
DOCKED: USER    NEWDPF about 8.287000 34.468000 -0.670000
DOCKED: USER    NEWDPF tran0 7.428496 -5.315035 14.451990
DOCKED: USER    NEWDPF quaternion0 -0.257372 -0.307434 -0.713451 -0.574658
DOCKED: USER    NEWDPF axisangle0 -0.314485 -0.375655 -0.871770 -109.848655
DOCKED: USER    NEWDPF quat0 -0.314485 -0.375655 -0.871770 -109.848655
DOCKED: USER    NEWDPF dihe0 -174.20 -42.12 -60.93 -115.14 157.12 -149.06 -75.22 -2.94 -144.45 158.45 
DOCKED: USER  keepresnum = 1 
DOCKED: USER  
DOCKED: REMARK  10 active torsions:
DOCKED: REMARK  status: ('A' for Active; 'I' for Inactive)
DOCKED: REMARK    1  A    between atoms: C_6  and  C_10 
DOCKED: REMARK    2  A    between atoms: C_10  and  C_11 
DOCKED: REMARK    3  A    between atoms: C_11  and  C_12 
DOCKED: REMARK    4  A    between atoms: C_12  and  O_14 
DOCKED: REMARK    5  A    between atoms: C_17  and  C_20 
DOCKED: REMARK    6  A    between atoms: C_24  and  C_27 
DOCKED: REMARK    7  A    between atoms: C_31  and  C_34 
DOCKED: REMARK    8  A    between atoms: C_34  and  C_35 
DOCKED: REMARK    9  A    between atoms: C_35  and  C_36 
DOCKED: REMARK   10  A    between atoms: C_36  and  O_38 
DOCKED: USER                              x       y       z     vdW  Elec       q    Type
DOCKED: USER                           _______ _______ _______ _____ _____    ______ ____
DOCKED: ROOT
DOCKED: ATOM      1  C   UNL d   1       8.393  -4.756  12.648 -0.15 +0.02    +0.064 A 
DOCKED: ATOM      2  C   UNL d   1       5.534  -2.400  15.620 -0.19 -0.01    +0.064 A 
DOCKED: ATOM      3  C   UNL d   1       5.101  -6.279  18.424 -0.17 -0.01    +0.064 C 
DOCKED: ATOM      4  C   UNL d   1       8.423  -8.567  15.633 -0.22 +0.02    +0.064 A 
DOCKED: ATOM      5  C   UNL d   1       7.653  -3.798  13.228 -0.12 +0.01    +0.066 A 
DOCKED: ATOM      6  C   UNL d   1       7.491  -2.510  12.709 -0.19 -0.00    -0.021 A 
DOCKED: ATOM      7  C   UNL d   1       6.699  -1.814  13.591 -0.23 -0.00    -0.025 A 
DOCKED: ATOM      8  C   UNL d   1       6.358  -2.710  14.600 -0.14 +0.00    +0.066 A 
DOCKED: ATOM      9  C   UNL d   1       6.331  -0.353  13.456 -0.43 -0.00    +0.051 C 
DOCKED: ATOM     10  C   UNL d   1       5.122  -3.304  16.695 -0.13 -0.01    +0.066 A 
DOCKED: ATOM     11  C   UNL d   1       4.138  -2.982  17.636 -0.14 +0.00    -0.021 A 
DOCKED: ATOM     12  C   UNL d   1       3.986  -4.095  18.443 -0.11 -0.00    +0.000 A 
DOCKED: ATOM     13  C   UNL d   1       4.916  -5.049  17.945 -0.13 -0.01    +0.070 A 
DOCKED: ATOM     14  C   UNL d   1       3.356  -1.678  17.744 -0.29 -0.01    +0.052 C 
DOCKED: ATOM     15  C   UNL d   1       6.056  -7.261  17.971 -0.18 -0.00    +0.066 A 
DOCKED: ATOM     16  C   UNL d   1       6.315  -8.469  18.619 -0.17 -0.00    -0.021 A 
DOCKED: ATOM     17  C   UNL d   1       7.260  -9.138  17.841 -0.20 +0.00    +0.000 A 
DOCKED: ATOM     18  C   UNL d   1       7.508  -8.278  16.762 -0.21 +0.01    +0.070 A 
DOCKED: ATOM     19  C   UNL d   1       5.686  -8.848  19.936 -0.11 -0.00    +0.052 C 
DOCKED: ATOM     20  C   UNL d   1       8.717  -7.747  14.605 -0.19 +0.02    +0.066 A 
DOCKED: ATOM     21  C   UNL d   1       9.573  -8.082  13.560 -0.13 -0.01    -0.025 A 
DOCKED: ATOM     22  C   UNL d   1       9.556  -7.019  12.686 -0.16 -0.01    -0.021 A 
DOCKED: ATOM     23  C   UNL d   1       8.700  -6.063  13.241 -0.16 +0.02    +0.066 A 
DOCKED: ATOM     24  C   UNL d   1      10.371  -9.351  13.405 -0.15 +0.03    +0.051 C 
DOCKED: ATOM     25  N   UNL d   1       6.999  -3.913  14.411 +0.04 -0.02    -0.248 N 
DOCKED: ATOM     26  N   UNL d   1       5.606  -4.558  16.884 -0.03 +0.01    -0.248 N 
DOCKED: ATOM     27  N   UNL d   1       6.826  -7.113  16.897 -0.13 -0.01    -0.248 N 
DOCKED: ATOM     28  N   UNL d   1       8.227  -6.491  14.430 -0.06 -0.05    -0.248 N 
DOCKED: ATOM     29 FE   UNL d   1       6.926  -5.534  15.650 -0.04 +0.00    +0.000 Fe
DOCKED: ATOM     30  O   UNL d   1       7.701  -4.322  16.246 -0.10 +0.00    +0.000 OA
DOCKED: ATOM     31  O   UNL d   1       8.246  -5.783  16.469 -0.11 +0.00    +0.000 OA
DOCKED: ENDROOT
DOCKED: BRANCH   6  32
DOCKED: ATOM     32  C   UNL d   1       8.165  -1.911  11.502 -0.18 +0.02    +0.052 C 
DOCKED: BRANCH  32  33
DOCKED: ATOM     33  C   UNL d   1       9.685  -1.871  11.631 -0.16 +0.06    +0.115 C 
DOCKED: BRANCH  33  34
DOCKED: ATOM     34  C   UNL d   1      10.359  -2.962  10.838 -0.13 +0.15    +0.139 C 
DOCKED: ATOM     35  O   UNL d   1       9.692  -3.674  10.104 -0.44 -1.09    -0.650 OA
DOCKED: BRANCH  34  36
DOCKED: ATOM     36  O   UNL d   1      11.685  -3.190  10.940 -0.04 -0.95    -0.776 OA
DOCKED: ATOM     37  H   UNL d   1      12.139  -3.826  10.376 +0.02 +0.34    +0.167 HD
DOCKED: ENDBRANCH  34  36
DOCKED: ENDBRANCH  33  34
DOCKED: ENDBRANCH  32  33
DOCKED: ENDBRANCH   6  32
DOCKED: BRANCH  22  38
DOCKED: ATOM     38  C   UNL d   1      10.369  -6.907  11.422 -0.15 +0.03    +0.052 C 
DOCKED: BRANCH  38  39
DOCKED: ATOM     39  C   UNL d   1      11.620  -6.050  11.608 -0.08 +0.08    +0.115 C 
DOCKED: BRANCH  39  40
DOCKED: ATOM     40  C   UNL d   1      12.485  -6.018  10.374 +0.06 +0.17    +0.139 C 
DOCKED: ATOM     41  O   UNL d   1      12.189  -6.702   9.408 -0.37 -0.97    -0.650 OA
DOCKED: BRANCH  40  42
DOCKED: ATOM     42  O   UNL d   1      13.557  -5.205  10.297 -0.04 -0.83    -0.776 OA
DOCKED: ATOM     43  H   UNL d   1      13.537  -4.309  10.653 +0.01 +0.17    +0.167 HD
DOCKED: ENDBRANCH  40  42
DOCKED: ENDBRANCH  39  40
DOCKED: ENDBRANCH  38  39
DOCKED: ENDBRANCH  22  38
DOCKED: BRANCH  12  44
DOCKED: ATOM     44  C   UNL d   1       2.992  -4.130  19.585 -0.08 -0.00    +0.004 C 
DOCKED: ATOM     45  C   UNL d   1       1.910  -4.898  19.704 -0.11 -0.00    +0.012 C 
DOCKED: ENDBRANCH  12  44
DOCKED: BRANCH  17  46
DOCKED: ATOM     46  C   UNL d   1       7.966 -10.450  18.056 -0.16 +0.00    +0.004 C 
DOCKED: ATOM     47  C   UNL d   1       9.284 -10.680  18.130 -0.13 +0.01    +0.012 C 
DOCKED: ENDBRANCH  17  46
DOCKED: TORSDOF 10
DOCKED: TER
DOCKED: ENDMDL
________________________________________________________________________________


	BEGINNING GENETIC ALGORITHM DOCKING 29 of 100
Run: 29 Seed: 667068084 1114780551 [ Run 29 of 100 GA/GALS ]
Beginning LAMARCKIAN GENETIC ALGORITHM (LGA), with a maximum of 25000000 energy evaluations.

Final-Value: -11.337


	FINAL GENETIC ALGORITHM DOCKED STATE
	_______________________________________________


Detailed state:  trans 6.555 -1.753 14.857 quatxyzw -0.327770 0.241722 -0.913033 0.022561 center 8.287 34.468 -0.670 ntor 10 -60.7396 129.4242 -48.1023 52.7446 -83.9656 -72.9472 -35.5339 90.7327 -179.8007 -176.6143
State:	  6.555  -1.753  14.857  -0.328  0.242 -0.913 177.414    -60.74  129.42  -48.10   52.74  -83.97  -72.95  -35.53   90.73 -179.80 -176.61

DOCKED: MODEL       29
DOCKED: USER    Run = 29
DOCKED: USER    DPF = D:/Protein_go_brrr/autodock/final/mut_N102T/heme_O2/dock.dpf
DOCKED: USER  
DOCKED: USER    Estimated Free Energy of Binding    =   -6.22 kcal/mol  [=(1)+(2)+(3)-(4)]
DOCKED: USER    Estimated Inhibition Constant, Ki   =   27.48 uM (micromolar)  [Temperature = 298.15 K]
DOCKED: USER    
DOCKED: USER    (1) Final Intermolecular Energy     =   -9.21 kcal/mol
DOCKED: USER        vdW + Hbond + desolv Energy     =   -6.66 kcal/mol
DOCKED: USER        Electrostatic Energy            =   -2.54 kcal/mol
DOCKED: USER    (2) Final Total Internal Energy     =   -2.13 kcal/mol
DOCKED: USER    (3) Torsional Free Energy           =   +2.98 kcal/mol
DOCKED: USER    (4) Unbound System's Energy  [=(2)] =   -2.13 kcal/mol
DOCKED: USER    
DOCKED: USER    
DOCKED: USER    NEWDPF move heme_O2_opt.pdbqt
DOCKED: USER    NEWDPF about 8.287000 34.468000 -0.670000
DOCKED: USER    NEWDPF tran0 6.555266 -1.752661 14.857346
DOCKED: USER    NEWDPF quaternion0 -0.327770 0.241722 -0.913033 0.022561
DOCKED: USER    NEWDPF axisangle0 -0.327853 0.241783 -0.913265 177.414455
DOCKED: USER    NEWDPF quat0 -0.327853 0.241783 -0.913265 177.414455
DOCKED: USER    NEWDPF dihe0 -60.74 129.42 -48.10 52.74 -83.97 -72.95 -35.53 90.73 -179.80 -176.61 
DOCKED: USER  keepresnum = 1 
DOCKED: USER  
DOCKED: REMARK  10 active torsions:
DOCKED: REMARK  status: ('A' for Active; 'I' for Inactive)
DOCKED: REMARK    1  A    between atoms: C_6  and  C_10 
DOCKED: REMARK    2  A    between atoms: C_10  and  C_11 
DOCKED: REMARK    3  A    between atoms: C_11  and  C_12 
DOCKED: REMARK    4  A    between atoms: C_12  and  O_14 
DOCKED: REMARK    5  A    between atoms: C_17  and  C_20 
DOCKED: REMARK    6  A    between atoms: C_24  and  C_27 
DOCKED: REMARK    7  A    between atoms: C_31  and  C_34 
DOCKED: REMARK    8  A    between atoms: C_34  and  C_35 
DOCKED: REMARK    9  A    between atoms: C_35  and  C_36 
DOCKED: REMARK   10  A    between atoms: C_36  and  O_38 
DOCKED: USER                              x       y       z     vdW  Elec       q    Type
DOCKED: USER                           _______ _______ _______ _____ _____    ______ ____
DOCKED: ROOT
DOCKED: ATOM      1  C   UNL d   1       7.431  -1.699  12.926 -0.21 +0.01    +0.064 A 
DOCKED: ATOM      2  C   UNL d   1       9.233  -1.123  17.283 -0.06 +0.02    +0.064 A 
DOCKED: ATOM      3  C   UNL d   1       4.894  -1.732  19.258 -0.11 -0.01    +0.064 C 
DOCKED: ATOM      4  C   UNL d   1       3.112  -2.801  14.814 -0.16 -0.02    +0.064 A 
DOCKED: ATOM      5  C   UNL d   1       8.276  -1.495  13.950 -0.14 +0.01    +0.066 A 
DOCKED: ATOM      6  C   UNL d   1       9.643  -1.249  13.800 -0.11 -0.01    -0.021 A 
DOCKED: ATOM      7  C   UNL d   1      10.174  -1.125  15.063 -0.08 -0.01    -0.025 A 
DOCKED: ATOM      8  C   UNL d   1       9.107  -1.250  15.948 -0.08 +0.02    +0.066 A 
DOCKED: ATOM      9  C   UNL d   1      11.642  -0.926  15.369 -0.04 +0.01    +0.051 C 
DOCKED: ATOM     10  C   UNL d   1       8.147  -1.221  18.260 -0.07 +0.01    +0.066 A 
DOCKED: ATOM     11  C   UNL d   1       8.304  -0.919  19.617 -0.03 -0.00    -0.021 A 
DOCKED: ATOM     12  C   UNL d   1       7.059  -1.071  20.200 -0.09 -0.00    +0.000 A 
DOCKED: ATOM     13  C   UNL d   1       6.198  -1.479  19.144 -0.10 -0.00    +0.070 A 
DOCKED: ATOM     14  C   UNL d   1       9.581  -0.477  20.323 -0.06 +0.01    +0.052 C 
DOCKED: ATOM     15  C   UNL d   1       3.995  -2.180  18.222 -0.13 -0.01    +0.066 A 
DOCKED: ATOM     16  C   UNL d   1       2.678  -2.586  18.438 -0.16 +0.01    -0.021 A 
DOCKED: ATOM     17  C   UNL d   1       2.150  -2.896  17.185 -0.32 -0.00    +0.000 A 
DOCKED: ATOM     18  C   UNL d   1       3.198  -2.652  16.286 -0.27 -0.02    +0.070 A 
DOCKED: ATOM     19  C   UNL d   1       2.066  -2.692  19.812 -0.12 -0.02    +0.052 C 
DOCKED: ATOM     20  C   UNL d   1       4.109  -2.617  13.927 -0.27 -0.01    +0.066 A 
DOCKED: ATOM     21  C   UNL d   1       3.963  -2.756  12.550 -0.39 +0.00    -0.025 A 
DOCKED: ATOM     22  C   UNL d   1       5.176  -2.419  11.994 -0.37 -0.00    -0.021 A 
DOCKED: ATOM     23  C   UNL d   1       6.027  -2.104  13.058 -0.26 +0.00    +0.066 A 
DOCKED: ATOM     24  C   UNL d   1       2.729  -3.191  11.802 -0.43 -0.00    +0.051 C 
DOCKED: ATOM     25  N   UNL d   1       7.949  -1.543  15.265 -0.08 -0.04    -0.248 N 
DOCKED: ATOM     26  N   UNL d   1       6.869  -1.572  17.968 -0.07 -0.01    -0.248 N 
DOCKED: ATOM     27  N   UNL d   1       4.331  -2.290  16.940 -0.11 +0.04    -0.248 N 
DOCKED: ATOM     28  N   UNL d   1       5.386  -2.269  14.234 -0.15 +0.02    -0.248 N 
DOCKED: ATOM     29 FE   UNL d   1       6.120  -1.924  16.089 -0.04 -0.00    +0.000 Fe
DOCKED: ATOM     30  O   UNL d   1       7.173  -3.039  16.354 -0.11 +0.00    +0.000 OA
DOCKED: ATOM     31  O   UNL d   1       5.683  -3.434  16.027 -0.16 -0.00    +0.000 OA
DOCKED: ENDROOT
DOCKED: BRANCH   6  32
DOCKED: ATOM     32  C   UNL d   1      10.450  -1.266  12.527 -0.12 +0.02    +0.052 C 
DOCKED: BRANCH  32  33
DOCKED: ATOM     33  C   UNL d   1      11.147  -2.601  12.286 -0.06 +0.06    +0.115 C 
DOCKED: BRANCH  33  34
DOCKED: ATOM     34  C   UNL d   1      11.155  -2.990  10.828 -0.06 +0.17    +0.139 C 
DOCKED: ATOM     35  O   UNL d   1      12.214  -3.244  10.277 +0.01 -1.22    -0.650 OA
DOCKED: BRANCH  34  36
DOCKED: ATOM     36  O   UNL d   1      10.016  -3.038  10.107 -0.35 -1.27    -0.776 OA
DOCKED: ATOM     37  H   UNL d   1       9.288  -3.626  10.341 +0.04 +0.20    +0.167 HD
DOCKED: ENDBRANCH  34  36
DOCKED: ENDBRANCH  33  34
DOCKED: ENDBRANCH  32  33
DOCKED: ENDBRANCH   6  32
DOCKED: BRANCH  22  38
DOCKED: ATOM     38  C   UNL d   1       5.512  -2.463  10.525 -0.03 +0.01    +0.052 C 
DOCKED: BRANCH  38  39
DOCKED: ATOM     39  C   UNL d   1       5.711  -3.889  10.016 -0.09 +0.02    +0.115 C 
DOCKED: BRANCH  39  40
DOCKED: ATOM     40  C   UNL d   1       7.146  -4.344  10.122 -0.24 +0.05    +0.139 C 
DOCKED: ATOM     41  O   UNL d   1       7.625  -4.586  11.218 -0.01 -0.24    -0.650 OA
DOCKED: BRANCH  40  42
DOCKED: ATOM     42  O   UNL d   1       7.897  -4.538   9.021 -0.03 -0.59    -0.776 OA
DOCKED: ATOM     43  H   UNL d   1       8.788  -4.177   8.948 +0.05 +0.26    +0.167 HD
DOCKED: ENDBRANCH  40  42
DOCKED: ENDBRANCH  39  40
DOCKED: ENDBRANCH  38  39
DOCKED: ENDBRANCH  22  38
DOCKED: BRANCH  12  44
DOCKED: ATOM     44  C   UNL d   1       6.827  -0.821  21.676 -0.06 -0.00    +0.004 C 
DOCKED: ATOM     45  C   UNL d   1       5.909  -0.036  22.238 -0.10 -0.00    +0.012 C 
DOCKED: ENDBRANCH  12  44
DOCKED: BRANCH  17  46
DOCKED: ATOM     46  C   UNL d   1       0.804  -3.441  16.788 -0.40 -0.00    +0.004 C 
DOCKED: ATOM     47  C   UNL d   1      -0.405  -3.049  17.208 -0.42 -0.00    +0.012 C 
DOCKED: ENDBRANCH  17  46
DOCKED: TORSDOF 10
DOCKED: TER
DOCKED: ENDMDL
________________________________________________________________________________


	BEGINNING GENETIC ALGORITHM DOCKING 30 of 100
Run: 30 Seed: 631250610 1595364849 [ Run 30 of 100 GA/GALS ]
Beginning LAMARCKIAN GENETIC ALGORITHM (LGA), with a maximum of 25000000 energy evaluations.

Final-Value: -9.195


	FINAL GENETIC ALGORITHM DOCKED STATE
	_______________________________________________


Detailed state:  trans 1.693 11.298 -22.425 quatxyzw -0.313070 0.144752 0.276937 0.896850 center 8.287 34.468 -0.670 ntor 10 -106.9279 138.0261 99.1899 -87.8480 150.2597 30.2685 40.5886 47.8775 -27.1082 160.6260
State:	  1.693  11.298 -22.425  -0.708  0.327  0.626 52.506   -106.93  138.03   99.19  -87.85  150.26   30.27   40.59   47.88  -27.11  160.63

DOCKED: MODEL       30
DOCKED: USER    Run = 30
DOCKED: USER    DPF = D:/Protein_go_brrr/autodock/final/mut_N102T/heme_O2/dock.dpf
DOCKED: USER  
DOCKED: USER    Estimated Free Energy of Binding    =   -4.35 kcal/mol  [=(1)+(2)+(3)-(4)]
DOCKED: USER    Estimated Inhibition Constant, Ki   =  646.38 uM (micromolar)  [Temperature = 298.15 K]
DOCKED: USER    
DOCKED: USER    (1) Final Intermolecular Energy     =   -7.33 kcal/mol
DOCKED: USER        vdW + Hbond + desolv Energy     =   -4.86 kcal/mol
DOCKED: USER        Electrostatic Energy            =   -2.47 kcal/mol
DOCKED: USER    (2) Final Total Internal Energy     =   -1.86 kcal/mol
DOCKED: USER    (3) Torsional Free Energy           =   +2.98 kcal/mol
DOCKED: USER    (4) Unbound System's Energy  [=(2)] =   -1.86 kcal/mol
DOCKED: USER    
DOCKED: USER    
DOCKED: USER    NEWDPF move heme_O2_opt.pdbqt
DOCKED: USER    NEWDPF about 8.287000 34.468000 -0.670000
DOCKED: USER    NEWDPF tran0 1.692680 11.298437 -22.424864
DOCKED: USER    NEWDPF quaternion0 -0.313070 0.144752 0.276937 0.896850
DOCKED: USER    NEWDPF axisangle0 -0.707767 0.327245 0.626080 52.505849
DOCKED: USER    NEWDPF quat0 -0.707767 0.327245 0.626080 52.505849
DOCKED: USER    NEWDPF dihe0 -106.93 138.03 99.19 -87.85 150.26 30.27 40.59 47.88 -27.11 160.63 
DOCKED: USER  keepresnum = 1 
DOCKED: USER  
DOCKED: REMARK  10 active torsions:
DOCKED: REMARK  status: ('A' for Active; 'I' for Inactive)
DOCKED: REMARK    1  A    between atoms: C_6  and  C_10 
DOCKED: REMARK    2  A    between atoms: C_10  and  C_11 
DOCKED: REMARK    3  A    between atoms: C_11  and  C_12 
DOCKED: REMARK    4  A    between atoms: C_12  and  O_14 
DOCKED: REMARK    5  A    between atoms: C_17  and  C_20 
DOCKED: REMARK    6  A    between atoms: C_24  and  C_27 
DOCKED: REMARK    7  A    between atoms: C_31  and  C_34 
DOCKED: REMARK    8  A    between atoms: C_34  and  C_35 
DOCKED: REMARK    9  A    between atoms: C_35  and  C_36 
DOCKED: REMARK   10  A    between atoms: C_36  and  O_38 
DOCKED: USER                              x       y       z     vdW  Elec       q    Type
DOCKED: USER                           _______ _______ _______ _____ _____    ______ ____
DOCKED: ROOT
DOCKED: ATOM      1  C   UNL d   1       0.779  13.174 -22.809 -0.08 +0.01    +0.064 A 
DOCKED: ATOM      2  C   UNL d   1      -0.988   8.925 -21.633 -0.05 -0.00    +0.064 A 
DOCKED: ATOM      3  C   UNL d   1       3.415   7.001 -21.595 -0.11 -0.00    +0.064 C 
DOCKED: ATOM      4  C   UNL d   1       5.287  11.474 -22.336 -0.04 -0.01    +0.064 A 
DOCKED: ATOM      5  C   UNL d   1      -0.061  12.175 -22.491 -0.12 +0.01    +0.066 A 
DOCKED: ATOM      6  C   UNL d   1      -1.450  12.314 -22.417 -0.15 -0.00    -0.021 A 
DOCKED: ATOM      7  C   UNL d   1      -1.959  11.096 -22.034 -0.17 -0.00    -0.025 A 
DOCKED: ATOM      8  C   UNL d   1      -0.871  10.233 -21.932 -0.17 -0.00    +0.066 A 
DOCKED: ATOM      9  C   UNL d   1      -3.421  10.816 -21.759 -0.18 +0.00    +0.051 C 
DOCKED: ATOM     10  C   UNL d   1       0.113   7.966 -21.534 -0.19 -0.00    +0.066 A 
DOCKED: ATOM     11  C   UNL d   1      -0.078   6.588 -21.383 -0.20 +0.00    -0.021 A 
DOCKED: ATOM     12  C   UNL d   1       1.180   6.014 -21.388 -0.14 -0.00    +0.000 A 
DOCKED: ATOM     13  C   UNL d   1       2.088   7.100 -21.533 -0.11 -0.00    +0.070 A 
DOCKED: ATOM     14  C   UNL d   1      -1.405   5.847 -21.267 +0.04 +0.00    +0.052 C 
DOCKED: ATOM     15  C   UNL d   1       4.370   8.078 -21.706 -0.11 -0.00    +0.066 A 
DOCKED: ATOM     16  C   UNL d   1       5.752   7.923 -21.601 -0.11 -0.00    -0.021 A 
DOCKED: ATOM     17  C   UNL d   1       6.307   9.186 -21.808 -0.10 +0.00    +0.000 A 
DOCKED: ATOM     18  C   UNL d   1       5.207  10.027 -22.029 -0.08 -0.01    +0.070 A 
DOCKED: ATOM     19  C   UNL d   1       6.409   6.609 -21.261 -0.04 +0.03    +0.052 C 
DOCKED: ATOM     20  C   UNL d   1       4.252  12.319 -22.511 -0.03 -0.00    +0.066 A 
DOCKED: ATOM     21  C   UNL d   1       4.390  13.670 -22.816 -0.01 -0.00    -0.025 A 
DOCKED: ATOM     22  C   UNL d   1       3.116  14.164 -22.982 -0.02 -0.00    -0.021 A 
DOCKED: ATOM     23  C   UNL d   1       2.243  13.096 -22.752 -0.04 +0.01    +0.066 A 
DOCKED: ATOM     24  C   UNL d   1       5.673  14.450 -22.941 -0.00 +0.00    +0.051 C 
DOCKED: ATOM     25  N   UNL d   1       0.303  10.915 -22.150 -0.10 -0.00    -0.248 N 
DOCKED: ATOM     26  N   UNL d   1       1.430   8.284 -21.616 -0.10 +0.01    -0.248 N 
DOCKED: ATOM     27  N   UNL d   1       4.037   9.352 -21.889 -0.07 +0.03    -0.248 N 
DOCKED: ATOM     28  N   UNL d   1       2.937  11.987 -22.422 -0.03 +0.00    -0.248 N 
DOCKED: ATOM     29 FE   UNL d   1       2.192  10.148 -22.022 -0.02 -0.00    +0.000 Fe
DOCKED: ATOM     30  O   UNL d   1       1.466  10.262 -20.650 -0.34 -0.00    +0.000 OA
DOCKED: ATOM     31  O   UNL d   1       2.997  10.617 -20.755 -0.10 -0.00    +0.000 OA
DOCKED: ENDROOT
DOCKED: BRANCH   6  32
DOCKED: ATOM     32  C   UNL d   1      -2.260  13.576 -22.564 -0.14 +0.02    +0.052 C 
DOCKED: BRANCH  32  33
DOCKED: ATOM     33  C   UNL d   1      -2.016  14.285 -23.893 -0.06 +0.04    +0.115 C 
DOCKED: BRANCH  33  34
DOCKED: ATOM     34  C   UNL d   1      -1.993  15.787 -23.748 -0.08 +0.09    +0.139 C 
DOCKED: ATOM     35  O   UNL d   1      -2.174  16.290 -22.651 -0.53 -0.96    -0.650 OA
DOCKED: BRANCH  34  36
DOCKED: ATOM     36  O   UNL d   1      -1.805  16.593 -24.813 +0.01 -0.33    -0.776 OA
DOCKED: ATOM     37  H   UNL d   1      -0.975  17.063 -24.957 +0.01 +0.07    +0.167 HD
DOCKED: ENDBRANCH  34  36
DOCKED: ENDBRANCH  33  34
DOCKED: ENDBRANCH  32  33
DOCKED: ENDBRANCH   6  32
DOCKED: BRANCH  22  38
DOCKED: ATOM     38  C   UNL d   1       2.762  15.598 -23.280 -0.02 +0.01    +0.052 C 
DOCKED: BRANCH  38  39
DOCKED: ATOM     39  C   UNL d   1       2.377  16.376 -22.023 -0.06 +0.04    +0.115 C 
DOCKED: BRANCH  39  40
DOCKED: ATOM     40  C   UNL d   1       1.118  17.185 -22.208 -0.06 +0.12    +0.139 C 
DOCKED: ATOM     41  O   UNL d   1       0.637  17.784 -21.260 -0.35 -1.26    -0.650 OA
DOCKED: BRANCH  40  42
DOCKED: ATOM     42  O   UNL d   1       0.539  17.303 -23.419 -0.01 -0.52    -0.776 OA
DOCKED: ATOM     43  H   UNL d   1      -0.420  17.290 -23.523 +0.01 +0.15    +0.167 HD
DOCKED: ENDBRANCH  40  42
DOCKED: ENDBRANCH  39  40
DOCKED: ENDBRANCH  38  39
DOCKED: ENDBRANCH  22  38
DOCKED: BRANCH  12  44
DOCKED: ATOM     44  C   UNL d   1       1.382   4.519 -21.253 -0.14 -0.00    +0.004 C 
DOCKED: ATOM     45  C   UNL d   1       1.454   3.800 -20.133 -0.25 -0.00    +0.012 C 
DOCKED: ENDBRANCH  12  44
DOCKED: BRANCH  17  46
DOCKED: ATOM     46  C   UNL d   1       7.735   9.657 -21.759 -0.08 +0.00    +0.004 C 
DOCKED: ATOM     47  C   UNL d   1       8.391  10.207 -20.728 -0.11 +0.00    +0.012 C 
DOCKED: ENDBRANCH  17  46
DOCKED: TORSDOF 10
DOCKED: TER
DOCKED: ENDMDL
________________________________________________________________________________


	BEGINNING GENETIC ALGORITHM DOCKING 31 of 100
Run: 31 Seed: 2033799099 2119712096 [ Run 31 of 100 GA/GALS ]
Beginning LAMARCKIAN GENETIC ALGORITHM (LGA), with a maximum of 25000000 energy evaluations.

Final-Value: -10.627


	FINAL GENETIC ALGORITHM DOCKED STATE
	_______________________________________________


Detailed state:  trans 15.657 4.303 -5.562 quatxyzw 0.535939 -0.534098 -0.653436 0.023032 center 8.287 34.468 -0.670 ntor 10 -167.9747 -38.1730 -60.8528 -73.6313 -145.0179 -39.3733 75.2689 -1.6707 -14.8176 0.2038
State:	 15.657   4.303  -5.562   0.536 -0.534 -0.654 177.360   -167.97  -38.17  -60.85  -73.63 -145.02  -39.37   75.27   -1.67  -14.82    0.20

DOCKED: MODEL       31
DOCKED: USER    Run = 31
DOCKED: USER    DPF = D:/Protein_go_brrr/autodock/final/mut_N102T/heme_O2/dock.dpf
DOCKED: USER  
DOCKED: USER    Estimated Free Energy of Binding    =   -5.96 kcal/mol  [=(1)+(2)+(3)-(4)]
DOCKED: USER    Estimated Inhibition Constant, Ki   =   42.65 uM (micromolar)  [Temperature = 298.15 K]
DOCKED: USER    
DOCKED: USER    (1) Final Intermolecular Energy     =   -8.94 kcal/mol
DOCKED: USER        vdW + Hbond + desolv Energy     =   -7.75 kcal/mol
DOCKED: USER        Electrostatic Energy            =   -1.19 kcal/mol
DOCKED: USER    (2) Final Total Internal Energy     =   -1.68 kcal/mol
DOCKED: USER    (3) Torsional Free Energy           =   +2.98 kcal/mol
DOCKED: USER    (4) Unbound System's Energy  [=(2)] =   -1.68 kcal/mol
DOCKED: USER    
DOCKED: USER    
DOCKED: USER    NEWDPF move heme_O2_opt.pdbqt
DOCKED: USER    NEWDPF about 8.287000 34.468000 -0.670000
DOCKED: USER    NEWDPF tran0 15.656777 4.302972 -5.561556
DOCKED: USER    NEWDPF quaternion0 0.535939 -0.534098 -0.653436 0.023032
DOCKED: USER    NEWDPF axisangle0 0.536081 -0.534239 -0.653609 177.360474
DOCKED: USER    NEWDPF quat0 0.536081 -0.534239 -0.653609 177.360474
DOCKED: USER    NEWDPF dihe0 -167.97 -38.17 -60.85 -73.63 -145.02 -39.37 75.27 -1.67 -14.82 0.20 
DOCKED: USER  keepresnum = 1 
DOCKED: USER  
DOCKED: REMARK  10 active torsions:
DOCKED: REMARK  status: ('A' for Active; 'I' for Inactive)
DOCKED: REMARK    1  A    between atoms: C_6  and  C_10 
DOCKED: REMARK    2  A    between atoms: C_10  and  C_11 
DOCKED: REMARK    3  A    between atoms: C_11  and  C_12 
DOCKED: REMARK    4  A    between atoms: C_12  and  O_14 
DOCKED: REMARK    5  A    between atoms: C_17  and  C_20 
DOCKED: REMARK    6  A    between atoms: C_24  and  C_27 
DOCKED: REMARK    7  A    between atoms: C_31  and  C_34 
DOCKED: REMARK    8  A    between atoms: C_34  and  C_35 
DOCKED: REMARK    9  A    between atoms: C_35  and  C_36 
DOCKED: REMARK   10  A    between atoms: C_36  and  O_38 
DOCKED: USER                              x       y       z     vdW  Elec       q    Type
DOCKED: USER                           _______ _______ _______ _____ _____    ______ ____
DOCKED: ROOT
DOCKED: ATOM      1  C   UNL d   1      16.628   4.481  -3.684 -0.16 -0.02    +0.064 A 
DOCKED: ATOM      2  C   UNL d   1      15.268   7.691  -6.910 -0.14 -0.01    +0.064 A 
DOCKED: ATOM      3  C   UNL d   1      13.588   4.226  -9.785 -0.22 -0.02    +0.064 C 
DOCKED: ATOM      4  C   UNL d   1      14.550   0.950  -6.263 -0.10 -0.01    +0.064 A 
DOCKED: ATOM      5  C   UNL d   1      16.394   5.637  -4.326 -0.17 -0.02    +0.066 A 
DOCKED: ATOM      6  C   UNL d   1      16.757   6.894  -3.834 -0.17 +0.01    -0.021 A 
DOCKED: ATOM      7  C   UNL d   1      16.325   7.827  -4.747 -0.17 +0.01    -0.025 A 
DOCKED: ATOM      8  C   UNL d   1      15.752   7.112  -5.795 -0.16 -0.02    +0.066 A 
DOCKED: ATOM      9  C   UNL d   1      16.445   9.326  -4.575 -0.12 -0.01    +0.051 C 
DOCKED: ATOM     10  C   UNL d   1      14.676   6.992  -8.052 -0.21 -0.01    +0.066 A 
DOCKED: ATOM     11  C   UNL d   1      14.339   7.627  -9.252 -0.20 +0.00    -0.021 A 
DOCKED: ATOM     12  C   UNL d   1      13.869   6.642 -10.100 -0.28 -0.00    +0.000 A 
DOCKED: ATOM     13  C   UNL d   1      13.937   5.436  -9.349 -0.24 -0.02    +0.070 A 
DOCKED: ATOM     14  C   UNL d   1      14.484   9.108  -9.585 -0.13 -0.01    +0.052 C 
DOCKED: ATOM     15  C   UNL d   1      13.608   2.988  -9.044 -0.21 -0.02    +0.066 A 
DOCKED: ATOM     16  C   UNL d   1      13.075   1.783  -9.503 -0.27 +0.01    -0.021 A 
DOCKED: ATOM     17  C   UNL d   1      13.337   0.835  -8.515 -0.18 -0.00    +0.000 A 
DOCKED: ATOM     18  C   UNL d   1      14.021   1.540  -7.515 -0.13 -0.01    +0.070 A 
DOCKED: ATOM     19  C   UNL d   1      12.324   1.659 -10.805 -0.15 -0.01    +0.052 C 
DOCKED: ATOM     20  C   UNL d   1      15.172   1.606  -5.264 -0.10 -0.01    +0.066 A 
DOCKED: ATOM     21  C   UNL d   1      15.665   0.992  -4.116 -0.10 +0.00    -0.025 A 
DOCKED: ATOM     22  C   UNL d   1      16.285   1.979  -3.382 -0.14 +0.00    -0.021 A 
DOCKED: ATOM     23  C   UNL d   1      16.130   3.166  -4.104 -0.15 -0.01    +0.066 A 
DOCKED: ATOM     24  C   UNL d   1      15.548  -0.461  -3.736 -0.07 -0.00    +0.051 C 
DOCKED: ATOM     25  N   UNL d   1      15.736   5.767  -5.505 -0.12 +0.06    -0.248 N 
DOCKED: ATOM     26  N   UNL d   1      14.425   5.659  -8.102 -0.16 +0.05    -0.248 N 
DOCKED: ATOM     27  N   UNL d   1      14.110   2.860  -7.819 -0.11 +0.05    -0.248 N 
DOCKED: ATOM     28  N   UNL d   1      15.414   2.943  -5.226 -0.08 +0.04    -0.248 N 
DOCKED: ATOM     29 FE   UNL d   1      14.922   4.289  -6.655 -0.04 -0.00    +0.000 Fe
DOCKED: ATOM     30  O   UNL d   1      13.868   5.238  -6.013 -0.81 -0.00    +0.000 OA
DOCKED: ATOM     31  O   UNL d   1      13.582   3.691  -6.088 -0.72 -0.00    +0.000 OA
DOCKED: ENDROOT
DOCKED: BRANCH   6  32
DOCKED: ATOM     32  C   UNL d   1      17.364   7.220  -2.494 -0.00 -0.03    +0.052 C 
DOCKED: BRANCH  32  33
DOCKED: ATOM     33  C   UNL d   1      18.798   6.716  -2.354 -0.07 -0.01    +0.115 C 
DOCKED: BRANCH  33  34
DOCKED: ATOM     34  C   UNL d   1      18.901   5.522  -1.439 -0.05 +0.04    +0.139 C 
DOCKED: ATOM     35  O   UNL d   1      18.352   4.476  -1.746 -0.30 -0.49    -0.650 OA
DOCKED: BRANCH  34  36
DOCKED: ATOM     36  O   UNL d   1      19.567   5.589  -0.267 -0.01 -0.30    -0.776 OA
DOCKED: ATOM     37  H   UNL d   1      19.789   4.800   0.240 +0.01 +0.09    +0.167 HD
DOCKED: ENDBRANCH  34  36
DOCKED: ENDBRANCH  33  34
DOCKED: ENDBRANCH  32  33
DOCKED: ENDBRANCH   6  32
DOCKED: BRANCH  22  38
DOCKED: ATOM     38  C   UNL d   1      16.930   1.796  -2.033 -0.01 +0.02    +0.052 C 
DOCKED: BRANCH  38  39
DOCKED: ATOM     39  C   UNL d   1      18.453   1.720  -2.121 -0.06 +0.04    +0.115 C 
DOCKED: BRANCH  39  40
DOCKED: ATOM     40  C   UNL d   1      19.104   1.606  -0.766 -0.05 +0.06    +0.139 C 
DOCKED: ATOM     41  O   UNL d   1      19.562   0.534  -0.402 +0.01 -0.13    -0.650 OA
DOCKED: BRANCH  40  42
DOCKED: ATOM     42  O   UNL d   1      19.237   2.680   0.036 -0.15 -0.62    -0.776 OA
DOCKED: ATOM     43  H   UNL d   1      19.412   3.559  -0.323 +0.01 +0.14    +0.167 HD
DOCKED: ENDBRANCH  40  42
DOCKED: ENDBRANCH  39  40
DOCKED: ENDBRANCH  38  39
DOCKED: ENDBRANCH  22  38
DOCKED: BRANCH  12  44
DOCKED: ATOM     44  C   UNL d   1      13.411   6.947 -11.511 -0.30 -0.00    +0.004 C 
DOCKED: ATOM     45  C   UNL d   1      13.957   6.539 -12.656 -0.23 -0.00    +0.012 C 
DOCKED: ENDBRANCH  12  44
DOCKED: BRANCH  17  46
DOCKED: ATOM     46  C   UNL d   1      12.957  -0.619  -8.415 -0.21 -0.00    +0.004 C 
DOCKED: ATOM     47  C   UNL d   1      11.787  -1.145  -8.031 -0.34 -0.00    +0.012 C 
DOCKED: ENDBRANCH  17  46
DOCKED: TORSDOF 10
DOCKED: TER
DOCKED: ENDMDL
________________________________________________________________________________


	BEGINNING GENETIC ALGORITHM DOCKING 32 of 100
Run: 32 Seed: 946148030 588830061 [ Run 32 of 100 GA/GALS ]
Beginning LAMARCKIAN GENETIC ALGORITHM (LGA), with a maximum of 25000000 energy evaluations.

Final-Value: -10.075


	FINAL GENETIC ALGORITHM DOCKED STATE
	_______________________________________________


Detailed state:  trans -4.656 16.586 -15.650 quatxyzw -0.437123 0.282473 -0.671610 -0.527326 center 8.287 34.468 -0.670 ntor 10 -41.4813 -27.7484 -42.2397 -120.7711 58.2851 121.7561 -110.8297 40.7202 166.9215 170.0143
State:	 -4.656  16.586 -15.650  -0.514  0.332 -0.790 -116.350    -41.48  -27.75  -42.24 -120.77   58.29  121.76 -110.83   40.72  166.92  170.01

DOCKED: MODEL       32
DOCKED: USER    Run = 32
DOCKED: USER    DPF = D:/Protein_go_brrr/autodock/final/mut_N102T/heme_O2/dock.dpf
DOCKED: USER  
DOCKED: USER    Estimated Free Energy of Binding    =   -5.50 kcal/mol  [=(1)+(2)+(3)-(4)]
DOCKED: USER    Estimated Inhibition Constant, Ki   =   92.29 uM (micromolar)  [Temperature = 298.15 K]
DOCKED: USER    
DOCKED: USER    (1) Final Intermolecular Energy     =   -8.49 kcal/mol
DOCKED: USER        vdW + Hbond + desolv Energy     =   -6.34 kcal/mol
DOCKED: USER        Electrostatic Energy            =   -2.14 kcal/mol
DOCKED: USER    (2) Final Total Internal Energy     =   -1.59 kcal/mol
DOCKED: USER    (3) Torsional Free Energy           =   +2.98 kcal/mol
DOCKED: USER    (4) Unbound System's Energy  [=(2)] =   -1.59 kcal/mol
DOCKED: USER    
DOCKED: USER    
DOCKED: USER    NEWDPF move heme_O2_opt.pdbqt
DOCKED: USER    NEWDPF about 8.287000 34.468000 -0.670000
DOCKED: USER    NEWDPF tran0 -4.656143 16.585843 -15.649549
DOCKED: USER    NEWDPF quaternion0 -0.437123 0.282473 -0.671610 -0.527326
DOCKED: USER    NEWDPF axisangle0 -0.514466 0.332454 -0.790442 -116.350039
DOCKED: USER    NEWDPF quat0 -0.514466 0.332454 -0.790442 -116.350039
DOCKED: USER    NEWDPF dihe0 -41.48 -27.75 -42.24 -120.77 58.29 121.76 -110.83 40.72 166.92 170.01 
DOCKED: USER  keepresnum = 1 
DOCKED: USER  
DOCKED: REMARK  10 active torsions:
DOCKED: REMARK  status: ('A' for Active; 'I' for Inactive)
DOCKED: REMARK    1  A    between atoms: C_6  and  C_10 
DOCKED: REMARK    2  A    between atoms: C_10  and  C_11 
DOCKED: REMARK    3  A    between atoms: C_11  and  C_12 
DOCKED: REMARK    4  A    between atoms: C_12  and  O_14 
DOCKED: REMARK    5  A    between atoms: C_17  and  C_20 
DOCKED: REMARK    6  A    between atoms: C_24  and  C_27 
DOCKED: REMARK    7  A    between atoms: C_31  and  C_34 
DOCKED: REMARK    8  A    between atoms: C_34  and  C_35 
DOCKED: REMARK    9  A    between atoms: C_35  and  C_36 
DOCKED: REMARK   10  A    between atoms: C_36  and  O_38 
DOCKED: USER                              x       y       z     vdW  Elec       q    Type
DOCKED: USER                           _______ _______ _______ _____ _____    ______ ____
DOCKED: ROOT
DOCKED: ATOM      1  C   UNL d   1      -4.971  18.136 -17.063 -0.07 +0.03    +0.064 A 
DOCKED: ATOM      2  C   UNL d   1      -3.021  18.091 -12.732 -0.02 +0.00    +0.064 A 
DOCKED: ATOM      3  C   UNL d   1      -3.893  13.386 -12.287 -0.25 -0.01    +0.064 C 
DOCKED: ATOM      4  C   UNL d   1      -5.469  13.322 -16.933 -0.16 +0.01    +0.064 A 
DOCKED: ATOM      5  C   UNL d   1      -4.368  18.507 -15.922 -0.05 +0.02    +0.066 A 
DOCKED: ATOM      6  C   UNL d   1      -3.968  19.816 -15.638 -0.02 -0.00    -0.021 A 
DOCKED: ATOM      7  C   UNL d   1      -3.364  19.796 -14.403 -0.01 -0.00    -0.025 A 
DOCKED: ATOM      8  C   UNL d   1      -3.455  18.485 -13.945 -0.02 +0.01    +0.066 A 
DOCKED: ATOM      9  C   UNL d   1      -2.714  20.990 -13.738 -0.00 +0.00    +0.051 C 
DOCKED: ATOM     10  C   UNL d   1      -3.110  16.735 -12.188 -0.05 +0.00    +0.066 A 
DOCKED: ATOM     11  C   UNL d   1      -2.794  16.416 -10.863 -0.10 +0.00    -0.021 A 
DOCKED: ATOM     12  C   UNL d   1      -3.056  15.067 -10.710 -0.21 -0.00    +0.000 A 
DOCKED: ATOM     13  C   UNL d   1      -3.516  14.628 -11.983 -0.16 -0.00    +0.070 A 
DOCKED: ATOM     14  C   UNL d   1      -2.289  17.363  -9.781 -0.11 -0.00    +0.052 C 
DOCKED: ATOM     15  C   UNL d   1      -4.331  12.894 -13.571 -0.21 -0.01    +0.066 A 
DOCKED: ATOM     16  C   UNL d   1      -4.555  11.550 -13.868 -0.24 +0.00    -0.021 A 
DOCKED: ATOM     17  C   UNL d   1      -5.004  11.507 -15.188 -0.33 -0.00    +0.000 A 
DOCKED: ATOM     18  C   UNL d   1      -5.023  12.846 -15.602 -0.21 -0.00    +0.070 A 
DOCKED: ATOM     19  C   UNL d   1      -4.271  10.434 -12.894 -0.47 -0.01    +0.052 C 
DOCKED: ATOM     20  C   UNL d   1      -5.459  14.594 -17.377 -0.12 +0.01    +0.066 A 
DOCKED: ATOM     21  C   UNL d   1      -5.909  14.984 -18.636 -0.10 -0.01    -0.025 A 
DOCKED: ATOM     22  C   UNL d   1      -5.800  16.355 -18.680 -0.09 -0.01    -0.021 A 
DOCKED: ATOM     23  C   UNL d   1      -5.268  16.751 -17.449 -0.09 +0.03    +0.066 A 
DOCKED: ATOM     24  C   UNL d   1      -6.414  14.092 -19.741 -0.07 +0.01    +0.051 C 
DOCKED: ATOM     25  N   UNL d   1      -4.015  17.678 -14.909 -0.03 -0.05    -0.248 N 
DOCKED: ATOM     26  N   UNL d   1      -3.541  15.648 -12.877 -0.06 -0.01    -0.248 N 
DOCKED: ATOM     27  N   UNL d   1      -4.540  13.666 -14.634 -0.13 -0.00    -0.248 N 
DOCKED: ATOM     28  N   UNL d   1      -5.021  15.673 -16.677 -0.09 -0.07    -0.248 N 
DOCKED: ATOM     29 FE   UNL d   1      -4.286  15.658 -14.791 -0.02 +0.00    +0.000 Fe
DOCKED: ATOM     30  O   UNL d   1      -2.794  16.086 -14.902 -0.23 +0.00    +0.000 OA
DOCKED: ATOM     31  O   UNL d   1      -3.303  14.818 -15.687 -0.29 +0.00    +0.000 OA
DOCKED: ENDROOT
DOCKED: BRANCH   6  32
DOCKED: ATOM     32  C   UNL d   1      -4.024  21.016 -16.548 -0.02 +0.01    +0.052 C 
DOCKED: BRANCH  32  33
DOCKED: ATOM     33  C   UNL d   1      -2.645  21.470 -17.016 -0.02 +0.04    +0.115 C 
DOCKED: BRANCH  33  34
DOCKED: ATOM     34  C   UNL d   1      -1.986  20.462 -17.924 -0.05 +0.11    +0.139 C 
DOCKED: ATOM     35  O   UNL d   1      -1.242  19.618 -17.450 +0.00 -0.52    -0.650 OA
DOCKED: BRANCH  34  36
DOCKED: ATOM     36  O   UNL d   1      -2.177  20.487 -19.260 -0.33 -1.14    -0.776 OA
DOCKED: ATOM     37  H   UNL d   1      -3.042  20.658 -19.649 -0.00 +0.21    +0.167 HD
DOCKED: ENDBRANCH  34  36
DOCKED: ENDBRANCH  33  34
DOCKED: ENDBRANCH  32  33
DOCKED: ENDBRANCH   6  32
DOCKED: BRANCH  22  38
DOCKED: ATOM     38  C   UNL d   1      -6.129  17.225 -19.867 -0.07 +0.02    +0.052 C 
DOCKED: BRANCH  38  39
DOCKED: ATOM     39  C   UNL d   1      -4.940  17.397 -20.809 -0.05 +0.10    +0.115 C 
DOCKED: BRANCH  39  40
DOCKED: ATOM     40  C   UNL d   1      -4.833  18.800 -21.352 -0.03 +0.12    +0.139 C 
DOCKED: ATOM     41  O   UNL d   1      -5.346  19.076 -22.424 -0.00 -0.33    -0.650 OA
DOCKED: BRANCH  40  42
DOCKED: ATOM     42  O   UNL d   1      -4.224  19.774 -20.648 -0.31 -0.90    -0.776 OA
DOCKED: ATOM     43  H   UNL d   1      -4.156  19.735 -19.687 -0.00 +0.19    +0.167 HD
DOCKED: ENDBRANCH  40  42
DOCKED: ENDBRANCH  39  40
DOCKED: ENDBRANCH  38  39
DOCKED: ENDBRANCH  22  38
DOCKED: BRANCH  12  44
DOCKED: ATOM     44  C   UNL d   1      -2.841  14.350  -9.393 -0.29 -0.00    +0.004 C 
DOCKED: ATOM     45  C   UNL d   1      -3.668  13.508  -8.775 -0.32 -0.00    +0.012 C 
DOCKED: ENDBRANCH  12  44
DOCKED: BRANCH  17  46
DOCKED: ATOM     46  C   UNL d   1      -5.350  10.342 -16.077 -0.36 -0.00    +0.004 C 
DOCKED: ATOM     47  C   UNL d   1      -4.894  10.075 -17.307 -0.45 -0.00    +0.012 C 
DOCKED: ENDBRANCH  17  46
DOCKED: TORSDOF 10
DOCKED: TER
DOCKED: ENDMDL
________________________________________________________________________________


	BEGINNING GENETIC ALGORITHM DOCKING 33 of 100
Run: 33 Seed: 1184218499 1724182522 [ Run 33 of 100 GA/GALS ]
Beginning LAMARCKIAN GENETIC ALGORITHM (LGA), with a maximum of 25000000 energy evaluations.

Final-Value: -11.549


	FINAL GENETIC ALGORITHM DOCKED STATE
	_______________________________________________


Detailed state:  trans 7.434 -4.867 14.221 quatxyzw 0.186917 0.335080 0.704866 0.596613 center 8.287 34.468 -0.670 ntor 10 108.2337 -46.0997 -64.2277 -119.9395 118.9650 125.0548 -47.9270 15.3225 -136.8873 177.3007
State:	  7.434  -4.867  14.221   0.233  0.418  0.878 106.745    108.23  -46.10  -64.23 -119.94  118.96  125.05  -47.93   15.32 -136.89  177.30

DOCKED: MODEL       33
DOCKED: USER    Run = 33
DOCKED: USER    DPF = D:/Protein_go_brrr/autodock/final/mut_N102T/heme_O2/dock.dpf
DOCKED: USER  
DOCKED: USER    Estimated Free Energy of Binding    =   -6.49 kcal/mol  [=(1)+(2)+(3)-(4)]
DOCKED: USER    Estimated Inhibition Constant, Ki   =   17.47 uM (micromolar)  [Temperature = 298.15 K]
DOCKED: USER    
DOCKED: USER    (1) Final Intermolecular Energy     =   -9.47 kcal/mol
DOCKED: USER        vdW + Hbond + desolv Energy     =   -6.96 kcal/mol
DOCKED: USER        Electrostatic Energy            =   -2.52 kcal/mol
DOCKED: USER    (2) Final Total Internal Energy     =   -2.08 kcal/mol
DOCKED: USER    (3) Torsional Free Energy           =   +2.98 kcal/mol
DOCKED: USER    (4) Unbound System's Energy  [=(2)] =   -2.08 kcal/mol
DOCKED: USER    
DOCKED: USER    
DOCKED: USER    NEWDPF move heme_O2_opt.pdbqt
DOCKED: USER    NEWDPF about 8.287000 34.468000 -0.670000
DOCKED: USER    NEWDPF tran0 7.434082 -4.866611 14.220620
DOCKED: USER    NEWDPF quaternion0 0.186917 0.335080 0.704866 0.596613
DOCKED: USER    NEWDPF axisangle0 0.232909 0.417530 0.878306 106.744533
DOCKED: USER    NEWDPF quat0 0.232909 0.417530 0.878306 106.744533
DOCKED: USER    NEWDPF dihe0 108.23 -46.10 -64.23 -119.94 118.96 125.05 -47.93 15.32 -136.89 177.30 
DOCKED: USER  keepresnum = 1 
DOCKED: USER  
DOCKED: REMARK  10 active torsions:
DOCKED: REMARK  status: ('A' for Active; 'I' for Inactive)
DOCKED: REMARK    1  A    between atoms: C_6  and  C_10 
DOCKED: REMARK    2  A    between atoms: C_10  and  C_11 
DOCKED: REMARK    3  A    between atoms: C_11  and  C_12 
DOCKED: REMARK    4  A    between atoms: C_12  and  O_14 
DOCKED: REMARK    5  A    between atoms: C_17  and  C_20 
DOCKED: REMARK    6  A    between atoms: C_24  and  C_27 
DOCKED: REMARK    7  A    between atoms: C_31  and  C_34 
DOCKED: REMARK    8  A    between atoms: C_34  and  C_35 
DOCKED: REMARK    9  A    between atoms: C_35  and  C_36 
DOCKED: REMARK   10  A    between atoms: C_36  and  O_38 
DOCKED: USER                              x       y       z     vdW  Elec       q    Type
DOCKED: USER                           _______ _______ _______ _____ _____    ______ ____
DOCKED: ROOT
DOCKED: ATOM      1  C   UNL d   1       8.533  -4.123  12.566 -0.13 +0.02    +0.064 A 
DOCKED: ATOM      2  C   UNL d   1       5.136  -2.213  15.281 -0.20 -0.01    +0.064 A 
DOCKED: ATOM      3  C   UNL d   1       4.787  -6.258  17.851 -0.20 -0.01    +0.064 C 
DOCKED: ATOM      4  C   UNL d   1       8.614  -8.067  15.372 -0.20 +0.02    +0.064 A 
DOCKED: ATOM      5  C   UNL d   1       7.639  -3.272  13.096 -0.14 +0.01    +0.066 A 
DOCKED: ATOM      6  C   UNL d   1       7.407  -1.980  12.615 -0.22 -0.00    -0.021 A 
DOCKED: ATOM      7  C   UNL d   1       6.454  -1.411  13.427 -0.29 -0.00    -0.025 A 
DOCKED: ATOM      8  C   UNL d   1       6.096  -2.388  14.352 -0.20 -0.00    +0.066 A 
DOCKED: ATOM      9  C   UNL d   1       5.958   0.014  13.312 -0.35 -0.00    +0.051 C 
DOCKED: ATOM     10  C   UNL d   1       4.700  -3.207  16.262 -0.18 -0.01    +0.066 A 
DOCKED: ATOM     11  C   UNL d   1       3.590  -3.032  17.095 -0.21 +0.00    -0.021 A 
DOCKED: ATOM     12  C   UNL d   1       3.462  -4.195  17.831 -0.18 -0.00    +0.000 A 
DOCKED: ATOM     13  C   UNL d   1       4.533  -5.028  17.405 -0.16 -0.01    +0.070 A 
DOCKED: ATOM     14  C   UNL d   1       2.672  -1.816  17.165 -0.35 -0.02    +0.052 C 
DOCKED: ATOM     15  C   UNL d   1       5.881  -7.119  17.472 -0.18 -0.00    +0.066 A 
DOCKED: ATOM     16  C   UNL d   1       6.187  -8.329  18.094 -0.21 +0.00    -0.021 A 
DOCKED: ATOM     17  C   UNL d   1       7.276  -8.863  17.405 -0.21 +0.00    +0.000 A 
DOCKED: ATOM     18  C   UNL d   1       7.555  -7.927  16.399 -0.22 +0.01    +0.070 A 
DOCKED: ATOM     19  C   UNL d   1       5.457  -8.836  19.312 -0.17 -0.00    +0.052 C 
DOCKED: ATOM     20  C   UNL d   1       8.936  -7.169  14.421 -0.17 +0.02    +0.066 A 
DOCKED: ATOM     21  C   UNL d   1       9.934  -7.364  13.469 -0.14 -0.01    -0.025 A 
DOCKED: ATOM     22  C   UNL d   1       9.907  -6.263  12.644 -0.13 -0.01    -0.021 A 
DOCKED: ATOM     23  C   UNL d   1       8.902  -5.424  13.136 -0.13 +0.02    +0.066 A 
DOCKED: ATOM     24  C   UNL d   1      10.868  -8.541  13.355 -0.11 +0.02    +0.051 C 
DOCKED: ATOM     25  N   UNL d   1       6.872  -3.511  14.188 +0.00 -0.02    -0.248 N 
DOCKED: ATOM     26  N   UNL d   1       5.284  -4.418  16.454 +0.05 +0.01    -0.248 N 
DOCKED: ATOM     27  N   UNL d   1       6.747  -6.841  16.501 -0.05 -0.01    -0.248 N 
DOCKED: ATOM     28  N   UNL d   1       8.345  -5.958  14.242 -0.09 -0.05    -0.248 N 
DOCKED: ATOM     29 FE   UNL d   1       6.826  -5.196  15.342 -0.02 +0.00    +0.000 Fe
DOCKED: ATOM     30  O   UNL d   1       7.402  -3.949  16.074 -0.11 +0.00    +0.000 OA
DOCKED: ATOM     31  O   UNL d   1       8.064  -5.361  16.298 -0.11 +0.00    +0.000 OA
DOCKED: ENDROOT
DOCKED: BRANCH   6  32
DOCKED: ATOM     32  C   UNL d   1       8.148  -1.256  11.521 -0.11 +0.01    +0.052 C 
DOCKED: BRANCH  32  33
DOCKED: ATOM     33  C   UNL d   1       9.657  -1.238  11.739 -0.19 +0.05    +0.115 C 
DOCKED: BRANCH  33  34
DOCKED: ATOM     34  C   UNL d   1      10.421  -1.686  10.518 -0.15 +0.12    +0.139 C 
DOCKED: ATOM     35  O   UNL d   1       9.930  -2.518   9.771 -0.43 -0.97    -0.650 OA
DOCKED: BRANCH  34  36
DOCKED: ATOM     36  O   UNL d   1      11.652  -1.207  10.243 -0.05 -0.62    -0.776 OA
DOCKED: ATOM     37  H   UNL d   1      12.443  -1.750  10.334 +0.03 +0.15    +0.167 HD
DOCKED: ENDBRANCH  34  36
DOCKED: ENDBRANCH  33  34
DOCKED: ENDBRANCH  32  33
DOCKED: ENDBRANCH   6  32
DOCKED: BRANCH  22  38
DOCKED: ATOM     38  C   UNL d   1      10.840  -6.007  11.490 -0.12 +0.04    +0.052 C 
DOCKED: BRANCH  38  39
DOCKED: ATOM     39  C   UNL d   1      12.186  -5.445  11.943 -0.05 +0.07    +0.115 C 
DOCKED: BRANCH  39  40
DOCKED: ATOM     40  C   UNL d   1      12.986  -4.872  10.799 -0.04 +0.15    +0.139 C 
DOCKED: ATOM     41  O   UNL d   1      13.761  -5.587  10.185 -0.03 -0.60    -0.650 OA
DOCKED: BRANCH  40  42
DOCKED: ATOM     42  O   UNL d   1      12.824  -3.593  10.408 -0.14 -1.20    -0.776 OA
DOCKED: ATOM     43  H   UNL d   1      11.947  -3.199  10.324 +0.01 +0.31    +0.167 HD
DOCKED: ENDBRANCH  40  42
DOCKED: ENDBRANCH  39  40
DOCKED: ENDBRANCH  38  39
DOCKED: ENDBRANCH  22  38
DOCKED: BRANCH  12  44
DOCKED: ATOM     44  C   UNL d   1       2.355  -4.386  18.847 -0.15 -0.00    +0.004 C 
DOCKED: ATOM     45  C   UNL d   1       1.316  -5.217  18.779 -0.23 -0.00    +0.012 C 
DOCKED: ENDBRANCH  12  44
DOCKED: BRANCH  17  46
DOCKED: ATOM     46  C   UNL d   1       8.083 -10.111  17.645 -0.15 +0.00    +0.004 C 
DOCKED: ATOM     47  C   UNL d   1       9.411 -10.227  17.775 -0.13 +0.01    +0.012 C 
DOCKED: ENDBRANCH  17  46
DOCKED: TORSDOF 10
DOCKED: TER
DOCKED: ENDMDL
________________________________________________________________________________


	BEGINNING GENETIC ALGORITHM DOCKING 34 of 100
Run: 34 Seed: 2020656795 1670941835 [ Run 34 of 100 GA/GALS ]
Beginning LAMARCKIAN GENETIC ALGORITHM (LGA), with a maximum of 25000000 energy evaluations.

Final-Value: -9.210


	FINAL GENETIC ALGORITHM DOCKED STATE
	_______________________________________________


Detailed state:  trans -5.755 16.026 -19.912 quatxyzw -0.362090 -0.251157 -0.664485 -0.603548 center 8.287 34.468 -0.670 ntor 10 -44.0513 169.8395 48.3831 136.5602 60.6445 151.3600 -136.2915 94.3428 172.5830 -178.2233
State:	 -5.755  16.026 -19.912  -0.454 -0.315 -0.833 -105.751    -44.05  169.84   48.38  136.56   60.64  151.36 -136.29   94.34  172.58 -178.22

DOCKED: MODEL       34
DOCKED: USER    Run = 34
DOCKED: USER    DPF = D:/Protein_go_brrr/autodock/final/mut_N102T/heme_O2/dock.dpf
DOCKED: USER  
DOCKED: USER    Estimated Free Energy of Binding    =   -4.10 kcal/mol  [=(1)+(2)+(3)-(4)]
DOCKED: USER    Estimated Inhibition Constant, Ki   =  981.38 uM (micromolar)  [Temperature = 298.15 K]
DOCKED: USER    
DOCKED: USER    (1) Final Intermolecular Energy     =   -7.09 kcal/mol
DOCKED: USER        vdW + Hbond + desolv Energy     =   -4.02 kcal/mol
DOCKED: USER        Electrostatic Energy            =   -3.07 kcal/mol
DOCKED: USER    (2) Final Total Internal Energy     =   -2.12 kcal/mol
DOCKED: USER    (3) Torsional Free Energy           =   +2.98 kcal/mol
DOCKED: USER    (4) Unbound System's Energy  [=(2)] =   -2.12 kcal/mol
DOCKED: USER    
DOCKED: USER    
DOCKED: USER    NEWDPF move heme_O2_opt.pdbqt
DOCKED: USER    NEWDPF about 8.287000 34.468000 -0.670000
DOCKED: USER    NEWDPF tran0 -5.754799 16.025658 -19.912210
DOCKED: USER    NEWDPF quaternion0 -0.362090 -0.251157 -0.664485 -0.603548
DOCKED: USER    NEWDPF axisangle0 -0.454130 -0.314999 -0.833392 -105.751144
DOCKED: USER    NEWDPF quat0 -0.454130 -0.314999 -0.833392 -105.751144
DOCKED: USER    NEWDPF dihe0 -44.05 169.84 48.38 136.56 60.64 151.36 -136.29 94.34 172.58 -178.22 
DOCKED: USER  keepresnum = 1 
DOCKED: USER  
DOCKED: REMARK  10 active torsions:
DOCKED: REMARK  status: ('A' for Active; 'I' for Inactive)
DOCKED: REMARK    1  A    between atoms: C_6  and  C_10 
DOCKED: REMARK    2  A    between atoms: C_10  and  C_11 
DOCKED: REMARK    3  A    between atoms: C_11  and  C_12 
DOCKED: REMARK    4  A    between atoms: C_12  and  O_14 
DOCKED: REMARK    5  A    between atoms: C_17  and  C_20 
DOCKED: REMARK    6  A    between atoms: C_24  and  C_27 
DOCKED: REMARK    7  A    between atoms: C_31  and  C_34 
DOCKED: REMARK    8  A    between atoms: C_34  and  C_35 
DOCKED: REMARK    9  A    between atoms: C_35  and  C_36 
DOCKED: REMARK   10  A    between atoms: C_36  and  O_38 
DOCKED: USER                              x       y       z     vdW  Elec       q    Type
DOCKED: USER                           _______ _______ _______ _____ _____    ______ ____
DOCKED: ROOT
DOCKED: ATOM      1  C   UNL d   1      -5.288  16.481 -21.930 -0.07 +0.03    +0.064 A 
DOCKED: ATOM      2  C   UNL d   1      -7.322  19.006 -18.460 -0.01 +0.01    +0.064 A 
DOCKED: ATOM      3  C   UNL d   1      -6.982  15.290 -15.432 -0.03 +0.00    +0.064 C 
DOCKED: ATOM      4  C   UNL d   1      -4.456  12.841 -18.849 -0.16 +0.01    +0.064 A 
DOCKED: ATOM      5  C   UNL d   1      -5.867  17.472 -21.233 -0.06 +0.03    +0.066 A 
DOCKED: ATOM      6  C   UNL d   1      -6.170  18.729 -21.763 -0.03 -0.01    -0.021 A 
DOCKED: ATOM      7  C   UNL d   1      -6.719  19.476 -20.747 -0.01 -0.01    -0.025 A 
DOCKED: ATOM      8  C   UNL d   1      -6.781  18.638 -19.637 -0.02 +0.02    +0.066 A 
DOCKED: ATOM      9  C   UNL d   1      -7.126  20.929 -20.863 +0.00 +0.01    +0.051 C 
DOCKED: ATOM     10  C   UNL d   1      -7.436  18.165 -17.268 -0.01 +0.01    +0.066 A 
DOCKED: ATOM     11  C   UNL d   1      -8.152  18.541 -16.126 -0.00 -0.00    -0.021 A 
DOCKED: ATOM     12  C   UNL d   1      -8.081  17.475 -15.248 -0.00 +0.00    +0.000 A 
DOCKED: ATOM     13  C   UNL d   1      -7.298  16.492 -15.914 -0.01 +0.01    +0.070 A 
DOCKED: ATOM     14  C   UNL d   1      -8.895  19.851 -15.893 +0.00 +0.00    +0.052 C 
DOCKED: ATOM     15  C   UNL d   1      -6.164  14.281 -16.059 -0.07 +0.01    +0.066 A 
DOCKED: ATOM     16  C   UNL d   1      -5.735  13.110 -15.435 -0.14 -0.00    -0.021 A 
DOCKED: ATOM     17  C   UNL d   1      -5.011  12.396 -16.390 -0.29 +0.00    +0.000 A 
DOCKED: ATOM     18  C   UNL d   1      -5.056  13.195 -17.541 -0.20 +0.01    +0.070 A 
DOCKED: ATOM     19  C   UNL d   1      -6.003  12.807 -13.982 -0.11 -0.00    +0.052 C 
DOCKED: ATOM     20  C   UNL d   1      -4.443  13.602 -19.961 -0.13 +0.02    +0.066 A 
DOCKED: ATOM     21  C   UNL d   1      -3.877  13.207 -21.170 -0.16 -0.01    -0.025 A 
DOCKED: ATOM     22  C   UNL d   1      -4.129  14.221 -22.067 -0.11 -0.01    -0.021 A 
DOCKED: ATOM     23  C   UNL d   1      -4.826  15.208 -21.365 -0.10 +0.03    +0.066 A 
DOCKED: ATOM     24  C   UNL d   1      -3.131  11.929 -21.454 -0.21 +0.01    +0.051 C 
DOCKED: ATOM     25  N   UNL d   1      -6.196  17.425 -19.919 -0.04 -0.10    -0.248 N 
DOCKED: ATOM     26  N   UNL d   1      -6.906  16.922 -17.141 -0.01 -0.04    -0.248 N 
DOCKED: ATOM     27  N   UNL d   1      -5.695  14.368 -17.301 -0.07 -0.04    -0.248 N 
DOCKED: ATOM     28  N   UNL d   1      -4.975  14.848 -20.073 -0.10 -0.11    -0.248 N 
DOCKED: ATOM     29 FE   UNL d   1      -5.933  15.875 -18.616 -0.02 +0.00    +0.000 Fe
DOCKED: ATOM     30  O   UNL d   1      -5.046  17.116 -18.304 -0.13 +0.00    +0.000 OA
DOCKED: ATOM     31  O   UNL d   1      -4.446  15.667 -18.148 -0.03 +0.00    +0.000 OA
DOCKED: ENDROOT
DOCKED: BRANCH   6  32
DOCKED: ATOM     32  C   UNL d   1      -5.832  19.259 -23.133 -0.01 +0.02    +0.052 C 
DOCKED: BRANCH  32  33
DOCKED: ATOM     33  C   UNL d   1      -4.660  20.236 -23.118 -0.02 +0.05    +0.115 C 
DOCKED: BRANCH  33  34
DOCKED: ATOM     34  C   UNL d   1      -3.548  19.786 -22.204 +0.01 +0.15    +0.139 C 
DOCKED: ATOM     35  O   UNL d   1      -3.548  20.136 -21.034 -0.34 -0.93    -0.650 OA
DOCKED: BRANCH  34  36
DOCKED: ATOM     36  O   UNL d   1      -2.530  19.024 -22.657 +0.04 -1.28    -0.776 OA
DOCKED: ATOM     37  H   UNL d   1      -2.677  18.272 -23.241 -0.00 +0.21    +0.167 HD
DOCKED: ENDBRANCH  34  36
DOCKED: ENDBRANCH  33  34
DOCKED: ENDBRANCH  32  33
DOCKED: ENDBRANCH   6  32
DOCKED: BRANCH  22  38
DOCKED: ATOM     38  C   UNL d   1      -3.666  14.260 -23.501 -0.06 +0.02    +0.052 C 
DOCKED: BRANCH  38  39
DOCKED: ATOM     39  C   UNL d   1      -2.183  14.605 -23.624 -0.08 +0.05    +0.115 C 
DOCKED: BRANCH  39  40
DOCKED: ATOM     40  C   UNL d   1      -1.939  16.093 -23.660 -0.08 +0.10    +0.139 C 
DOCKED: ATOM     41  O   UNL d   1      -2.373  16.756 -24.588 -0.02 -0.32    -0.650 OA
DOCKED: BRANCH  40  42
DOCKED: ATOM     42  O   UNL d   1      -1.291  16.716 -22.657 -0.22 -1.38    -0.776 OA
DOCKED: ATOM     43  H   UNL d   1      -1.038  17.645 -22.719 +0.00 +0.35    +0.167 HD
DOCKED: ENDBRANCH  40  42
DOCKED: ENDBRANCH  39  40
DOCKED: ENDBRANCH  38  39
DOCKED: ENDBRANCH  22  38
DOCKED: BRANCH  12  44
DOCKED: ATOM     44  C   UNL d   1      -8.751  17.506 -13.890 +0.00 +0.00    +0.004 C 
DOCKED: ATOM     45  C   UNL d   1      -8.251  17.107 -12.721 +0.00 +0.00    +0.012 C 
DOCKED: ENDBRANCH  12  44
DOCKED: BRANCH  17  46
DOCKED: ATOM     46  C   UNL d   1      -4.259  11.096 -16.291 -0.46 -0.00    +0.004 C 
DOCKED: ATOM     47  C   UNL d   1      -4.343  10.027 -17.094 -0.43 -0.00    +0.012 C 
DOCKED: ENDBRANCH  17  46
DOCKED: TORSDOF 10
DOCKED: TER
DOCKED: ENDMDL
________________________________________________________________________________


	BEGINNING GENETIC ALGORITHM DOCKING 35 of 100
Run: 35 Seed: 618457783 1177997694 [ Run 35 of 100 GA/GALS ]
Beginning LAMARCKIAN GENETIC ALGORITHM (LGA), with a maximum of 25000000 energy evaluations.

Final-Value: -9.597


	FINAL GENETIC ALGORITHM DOCKED STATE
	_______________________________________________


Detailed state:  trans 14.107 4.365 15.714 quatxyzw -0.640267 -0.572682 0.301653 0.413641 center 8.287 34.468 -0.670 ntor 10 95.6915 45.5829 104.9437 122.8035 -150.4785 91.5642 179.8944 -147.2027 -1.0286 -21.5499
State:	 14.107   4.365  15.714  -0.703 -0.629  0.331 131.132     95.69   45.58  104.94  122.80 -150.48   91.56  179.89 -147.20   -1.03  -21.55

DOCKED: MODEL       35
DOCKED: USER    Run = 35
DOCKED: USER    DPF = D:/Protein_go_brrr/autodock/final/mut_N102T/heme_O2/dock.dpf
DOCKED: USER  
DOCKED: USER    Estimated Free Energy of Binding    =   -5.19 kcal/mol  [=(1)+(2)+(3)-(4)]
DOCKED: USER    Estimated Inhibition Constant, Ki   =  157.91 uM (micromolar)  [Temperature = 298.15 K]
DOCKED: USER    
DOCKED: USER    (1) Final Intermolecular Energy     =   -8.17 kcal/mol
DOCKED: USER        vdW + Hbond + desolv Energy     =   -5.96 kcal/mol
DOCKED: USER        Electrostatic Energy            =   -2.21 kcal/mol
DOCKED: USER    (2) Final Total Internal Energy     =   -1.43 kcal/mol
DOCKED: USER    (3) Torsional Free Energy           =   +2.98 kcal/mol
DOCKED: USER    (4) Unbound System's Energy  [=(2)] =   -1.43 kcal/mol
DOCKED: USER    
DOCKED: USER    
DOCKED: USER    NEWDPF move heme_O2_opt.pdbqt
DOCKED: USER    NEWDPF about 8.287000 34.468000 -0.670000
DOCKED: USER    NEWDPF tran0 14.107051 4.365168 15.714335
DOCKED: USER    NEWDPF quaternion0 -0.640267 -0.572682 0.301653 0.413641
DOCKED: USER    NEWDPF axisangle0 -0.703250 -0.629017 0.331326 131.132414
DOCKED: USER    NEWDPF quat0 -0.703250 -0.629017 0.331326 131.132414
DOCKED: USER    NEWDPF dihe0 95.69 45.58 104.94 122.80 -150.48 91.56 179.89 -147.20 -1.03 -21.55 
DOCKED: USER  keepresnum = 1 
DOCKED: USER  
DOCKED: REMARK  10 active torsions:
DOCKED: REMARK  status: ('A' for Active; 'I' for Inactive)
DOCKED: REMARK    1  A    between atoms: C_6  and  C_10 
DOCKED: REMARK    2  A    between atoms: C_10  and  C_11 
DOCKED: REMARK    3  A    between atoms: C_11  and  C_12 
DOCKED: REMARK    4  A    between atoms: C_12  and  O_14 
DOCKED: REMARK    5  A    between atoms: C_17  and  C_20 
DOCKED: REMARK    6  A    between atoms: C_24  and  C_27 
DOCKED: REMARK    7  A    between atoms: C_31  and  C_34 
DOCKED: REMARK    8  A    between atoms: C_34  and  C_35 
DOCKED: REMARK    9  A    between atoms: C_35  and  C_36 
DOCKED: REMARK   10  A    between atoms: C_36  and  O_38 
DOCKED: USER                              x       y       z     vdW  Elec       q    Type
DOCKED: USER                           _______ _______ _______ _____ _____    ______ ____
DOCKED: ROOT
DOCKED: ATOM      1  C   UNL d   1      14.326   4.160  17.814 -0.05 +0.05    +0.064 A 
DOCKED: ATOM      2  C   UNL d   1      12.160   1.489  14.537 -0.13 +0.02    +0.064 A 
DOCKED: ATOM      3  C   UNL d   1      13.386   4.584  11.071 -0.29 +0.02    +0.064 C 
DOCKED: ATOM      4  C   UNL d   1      16.026   7.093  14.358 -0.08 +0.02    +0.064 A 
DOCKED: ATOM      5  C   UNL d   1      13.638   3.180  17.205 -0.08 +0.05    +0.066 A 
DOCKED: ATOM      6  C   UNL d   1      13.078   2.086  17.872 -0.09 -0.01    -0.021 A 
DOCKED: ATOM      7  C   UNL d   1      12.488   1.290  16.919 -0.09 -0.01    -0.025 A 
DOCKED: ATOM      8  C   UNL d   1      12.662   1.943  15.702 -0.13 +0.03    +0.066 A 
DOCKED: ATOM      9  C   UNL d   1      11.824  -0.042  17.193 -0.07 +0.01    +0.051 C 
DOCKED: ATOM     10  C   UNL d   1      12.291   2.142  13.234 -0.18 +0.02    +0.066 A 
DOCKED: ATOM     11  C   UNL d   1      11.612   1.714  12.088 -0.24 -0.01    -0.021 A 
DOCKED: ATOM     12  C   UNL d   1      11.939   2.604  11.082 -0.38 +0.00    +0.000 A 
DOCKED: ATOM     13  C   UNL d   1      12.827   3.539  11.682 -0.25 +0.02    +0.070 A 
DOCKED: ATOM     14  C   UNL d   1      10.671   0.521  11.964 -0.26 +0.02    +0.052 C 
DOCKED: ATOM     15  C   UNL d   1      14.317   5.532  11.634 -0.22 +0.02    +0.066 A 
DOCKED: ATOM     16  C   UNL d   1      14.994   6.506  10.900 -0.26 -0.00    -0.021 A 
DOCKED: ATOM     17  C   UNL d   1      15.754   7.233  11.816 -0.18 +0.00    +0.000 A 
DOCKED: ATOM     18  C   UNL d   1      15.478   6.642  13.057 -0.14 +0.02    +0.070 A 
DOCKED: ATOM     19  C   UNL d   1      14.899   6.619   9.399 -0.16 +0.01    +0.052 C 
DOCKED: ATOM     20  C   UNL d   1      15.817   6.522  15.560 -0.07 +0.03    +0.066 A 
DOCKED: ATOM     21  C   UNL d   1      16.346   7.003  16.755 -0.04 -0.01    -0.025 A 
DOCKED: ATOM     22  C   UNL d   1      15.850   6.196  17.754 -0.05 -0.01    -0.021 A 
DOCKED: ATOM     23  C   UNL d   1      15.048   5.237  17.127 -0.05 +0.05    +0.066 A 
DOCKED: ATOM     24  C   UNL d   1      17.280   8.172  16.934 -0.01 +0.01    +0.051 C 
DOCKED: ATOM     25  N   UNL d   1      13.427   3.074  15.870 -0.09 -0.17    -0.248 N 
DOCKED: ATOM     26  N   UNL d   1      13.039   3.247  12.990 -0.13 -0.10    -0.248 N 
DOCKED: ATOM     27  N   UNL d   1      14.664   5.564  12.917 -0.12 -0.09    -0.248 N 
DOCKED: ATOM     28  N   UNL d   1      15.067   5.412  15.790 -0.01 -0.16    -0.248 N 
DOCKED: ATOM     29 FE   UNL d   1      14.062   4.339  14.398 -0.04 +0.00    +0.000 Fe
DOCKED: ATOM     30  O   UNL d   1      14.738   2.938  14.357 -0.09 +0.00    +0.000 OA
DOCKED: ATOM     31  O   UNL d   1      15.594   4.227  14.064 -0.08 +0.00    +0.000 OA
DOCKED: ENDROOT
DOCKED: BRANCH   6  32
DOCKED: ATOM     32  C   UNL d   1      13.208   1.728  19.330 -0.03 +0.02    +0.052 C 
DOCKED: BRANCH  32  33
DOCKED: ATOM     33  C   UNL d   1      12.220   2.482  20.215 -0.06 +0.04    +0.115 C 
DOCKED: BRANCH  33  34
DOCKED: ATOM     34  C   UNL d   1      11.375   3.457  19.434 -0.14 +0.11    +0.139 C 
DOCKED: ATOM     35  O   UNL d   1      10.679   3.052  18.517 -0.08 -0.56    -0.650 OA
DOCKED: BRANCH  34  36
DOCKED: ATOM     36  O   UNL d   1      11.391   4.778  19.706 +0.04 -0.84    -0.776 OA
DOCKED: ATOM     37  H   UNL d   1      11.949   5.394  19.218 +0.02 +0.32    +0.167 HD
DOCKED: ENDBRANCH  34  36
DOCKED: ENDBRANCH  33  34
DOCKED: ENDBRANCH  32  33
DOCKED: ENDBRANCH   6  32
DOCKED: BRANCH  22  38
DOCKED: ATOM     38  C   UNL d   1      16.184   6.305  19.219 -0.01 +0.01    +0.052 C 
DOCKED: BRANCH  38  39
DOCKED: ATOM     39  C   UNL d   1      15.384   7.403  19.918 -0.01 +0.03    +0.115 C 
DOCKED: BRANCH  39  40
DOCKED: ATOM     40  C   UNL d   1      14.015   7.593  19.313 -0.05 +0.09    +0.139 C 
DOCKED: ATOM     41  O   UNL d   1      13.681   8.692  18.902 -0.00 -0.33    -0.650 OA
DOCKED: BRANCH  40  42
DOCKED: ATOM     42  O   UNL d   1      13.168   6.555  19.171 -0.51 -1.09    -0.776 OA
DOCKED: ATOM     43  H   UNL d   1      12.991   5.944  19.897 +0.02 +0.16    +0.167 HD
DOCKED: ENDBRANCH  40  42
DOCKED: ENDBRANCH  39  40
DOCKED: ENDBRANCH  38  39
DOCKED: ENDBRANCH  22  38
DOCKED: BRANCH  12  44
DOCKED: ATOM     44  C   UNL d   1      11.384   2.471   9.679 -0.44 +0.00    +0.004 C 
DOCKED: ATOM     45  C   UNL d   1      11.790   1.650   8.712 -0.41 +0.00    +0.012 C 
DOCKED: ENDBRANCH  12  44
DOCKED: BRANCH  17  46
DOCKED: ATOM     46  C   UNL d   1      16.728   8.363  11.616 -0.12 +0.00    +0.004 C 
DOCKED: ATOM     47  C   UNL d   1      16.634   9.625  12.052 -0.12 +0.00    +0.012 C 
DOCKED: ENDBRANCH  17  46
DOCKED: TORSDOF 10
DOCKED: TER
DOCKED: ENDMDL
________________________________________________________________________________


	BEGINNING GENETIC ALGORITHM DOCKING 36 of 100
Run: 36 Seed: 1856196818 1003004914 [ Run 36 of 100 GA/GALS ]
Beginning LAMARCKIAN GENETIC ALGORITHM (LGA), with a maximum of 25000000 energy evaluations.

Final-Value: -10.260


	FINAL GENETIC ALGORITHM DOCKED STATE
	_______________________________________________


Detailed state:  trans -12.740 5.294 7.100 quatxyzw -0.571399 0.035388 -0.700944 -0.425357 center 8.287 34.468 -0.670 ntor 10 -180.0000 5.1461 103.3245 -94.1399 64.7676 107.8674 -75.1754 6.1000 -153.7681 -179.9661
State:	-12.740   5.294   7.100  -0.631  0.039 -0.775 -129.653   -180.00    5.15  103.32  -94.14   64.77  107.87  -75.18    6.10 -153.77 -179.97

DOCKED: MODEL       36
DOCKED: USER    Run = 36
DOCKED: USER    DPF = D:/Protein_go_brrr/autodock/final/mut_N102T/heme_O2/dock.dpf
DOCKED: USER  
DOCKED: USER    Estimated Free Energy of Binding    =   -5.16 kcal/mol  [=(1)+(2)+(3)-(4)]
DOCKED: USER    Estimated Inhibition Constant, Ki   =  163.76 uM (micromolar)  [Temperature = 298.15 K]
DOCKED: USER    
DOCKED: USER    (1) Final Intermolecular Energy     =   -8.15 kcal/mol
DOCKED: USER        vdW + Hbond + desolv Energy     =   -7.43 kcal/mol
DOCKED: USER        Electrostatic Energy            =   -0.72 kcal/mol
DOCKED: USER    (2) Final Total Internal Energy     =   -2.11 kcal/mol
DOCKED: USER    (3) Torsional Free Energy           =   +2.98 kcal/mol
DOCKED: USER    (4) Unbound System's Energy  [=(2)] =   -2.11 kcal/mol
DOCKED: USER    
DOCKED: USER    
DOCKED: USER    NEWDPF move heme_O2_opt.pdbqt
DOCKED: USER    NEWDPF about 8.287000 34.468000 -0.670000
DOCKED: USER    NEWDPF tran0 -12.739695 5.294181 7.100433
DOCKED: USER    NEWDPF quaternion0 -0.571399 0.035388 -0.700944 -0.425357
DOCKED: USER    NEWDPF axisangle0 -0.631362 0.039102 -0.774502 -129.653466
DOCKED: USER    NEWDPF quat0 -0.631362 0.039102 -0.774502 -129.653466
DOCKED: USER    NEWDPF dihe0 -180.00 5.15 103.32 -94.14 64.77 107.87 -75.18 6.10 -153.77 -179.97 
DOCKED: USER  keepresnum = 1 
DOCKED: USER  
DOCKED: REMARK  10 active torsions:
DOCKED: REMARK  status: ('A' for Active; 'I' for Inactive)
DOCKED: REMARK    1  A    between atoms: C_6  and  C_10 
DOCKED: REMARK    2  A    between atoms: C_10  and  C_11 
DOCKED: REMARK    3  A    between atoms: C_11  and  C_12 
DOCKED: REMARK    4  A    between atoms: C_12  and  O_14 
DOCKED: REMARK    5  A    between atoms: C_17  and  C_20 
DOCKED: REMARK    6  A    between atoms: C_24  and  C_27 
DOCKED: REMARK    7  A    between atoms: C_31  and  C_34 
DOCKED: REMARK    8  A    between atoms: C_34  and  C_35 
DOCKED: REMARK    9  A    between atoms: C_35  and  C_36 
DOCKED: REMARK   10  A    between atoms: C_36  and  O_38 
DOCKED: USER                              x       y       z     vdW  Elec       q    Type
DOCKED: USER                           _______ _______ _______ _____ _____    ______ ____
DOCKED: ROOT
DOCKED: ATOM      1  C   UNL d   1     -13.098   5.753   5.061 -0.10 +0.00    +0.064 A 
DOCKED: ATOM      2  C   UNL d   1     -11.515   8.356   8.704 -0.20 -0.01    +0.064 A 
DOCKED: ATOM      3  C   UNL d   1     -11.925   4.606  11.682 -0.14 -0.00    +0.064 C 
DOCKED: ATOM      4  C   UNL d   1     -13.100   1.789   7.841 -0.11 -0.01    +0.064 A 
DOCKED: ATOM      5  C   UNL d   1     -12.632   6.767   5.808 -0.13 -0.00    +0.066 A 
DOCKED: ATOM      6  C   UNL d   1     -12.395   8.055   5.321 -0.15 +0.00    -0.021 A 
DOCKED: ATOM      7  C   UNL d   1     -11.896   8.798   6.364 -0.18 +0.00    -0.025 A 
DOCKED: ATOM      8  C   UNL d   1     -11.887   7.956   7.473 -0.19 -0.01    +0.066 A 
DOCKED: ATOM      9  C   UNL d   1     -11.432  10.234   6.260 -0.18 -0.01    +0.051 C 
DOCKED: ATOM     10  C   UNL d   1     -11.506   7.526   9.910 -0.21 -0.00    +0.066 A 
DOCKED: ATOM     11  C   UNL d   1     -11.268   8.033  11.192 -0.19 +0.00    -0.021 A 
DOCKED: ATOM     12  C   UNL d   1     -11.400   6.970  12.066 -0.20 +0.00    +0.000 A 
DOCKED: ATOM     13  C   UNL d   1     -11.706   5.847  11.249 -0.11 +0.00    +0.070 A 
DOCKED: ATOM     14  C   UNL d   1     -10.956   9.476  11.570 -0.17 -0.00    +0.052 C 
DOCKED: ATOM     15  C   UNL d   1     -12.202   3.436  10.884 -0.12 -0.00    +0.066 A 
DOCKED: ATOM     16  C   UNL d   1     -12.260   2.135  11.382 -0.19 +0.00    -0.021 A 
DOCKED: ATOM     17  C   UNL d   1     -12.593   1.314  10.305 -0.17 -0.00    +0.000 A 
DOCKED: ATOM     18  C   UNL d   1     -12.717   2.188   9.216 -0.16 -0.01    +0.070 A 
DOCKED: ATOM     19  C   UNL d   1     -11.941   1.788  12.815 -0.20 +0.00    +0.052 C 
DOCKED: ATOM     20  C   UNL d   1     -13.186   2.595   6.764 -0.10 -0.01    +0.066 A 
DOCKED: ATOM     21  C   UNL d   1     -13.569   2.165   5.497 -0.11 +0.00    -0.025 A 
DOCKED: ATOM     22  C   UNL d   1     -13.601   3.286   4.698 -0.09 -0.00    -0.021 A 
DOCKED: ATOM     23  C   UNL d   1     -13.216   4.360   5.506 -0.11 -0.00    +0.066 A 
DOCKED: ATOM     24  C   UNL d   1     -13.886   0.755   5.069 -0.14 -0.01    +0.051 C 
DOCKED: ATOM     25  N   UNL d   1     -12.279   6.687   7.115 -0.11 +0.01    -0.248 N 
DOCKED: ATOM     26  N   UNL d   1     -11.764   6.194   9.937 -0.13 +0.00    -0.248 N 
DOCKED: ATOM     27  N   UNL d   1     -12.403   3.461   9.569 -0.12 +0.02    -0.248 N 
DOCKED: ATOM     28  N   UNL d   1     -12.921   3.928   6.750 -0.08 +0.01    -0.248 N 
DOCKED: ATOM     29 FE   UNL d   1     -12.347   5.050   8.334 -0.04 -0.00    +0.000 Fe
DOCKED: ATOM     30  O   UNL d   1     -10.903   5.540   8.019 -0.36 +0.00    +0.000 OA
DOCKED: ATOM     31  O   UNL d   1     -11.211   3.995   8.066 -0.75 +0.00    +0.000 OA
DOCKED: ENDROOT
DOCKED: BRANCH   6  32
DOCKED: ATOM     32  C   UNL d   1     -12.502   8.537   3.897 -0.13 -0.00    +0.052 C 
DOCKED: BRANCH  32  33
DOCKED: ATOM     33  C   UNL d   1     -11.409   7.970   2.996 -0.18 +0.00    +0.115 C 
DOCKED: BRANCH  33  34
DOCKED: ATOM     34  C   UNL d   1     -11.910   6.848   2.121 -0.05 +0.03    +0.139 C 
DOCKED: ATOM     35  O   UNL d   1     -11.918   5.705   2.550 -0.55 -0.22    -0.650 OA
DOCKED: BRANCH  34  36
DOCKED: ATOM     36  O   UNL d   1     -12.325   7.074   0.857 +0.00 -0.06    -0.776 OA
DOCKED: ATOM     37  H   UNL d   1     -12.650   6.363   0.291 +0.02 +0.01    +0.167 HD
DOCKED: ENDBRANCH  34  36
DOCKED: ENDBRANCH  33  34
DOCKED: ENDBRANCH  32  33
DOCKED: ENDBRANCH   6  32
DOCKED: BRANCH  22  38
DOCKED: ATOM     38  C   UNL d   1     -13.920   3.306   3.226 -0.08 +0.01    +0.052 C 
DOCKED: BRANCH  38  39
DOCKED: ATOM     39  C   UNL d   1     -12.743   2.848   2.368 -0.09 +0.04    +0.115 C 
DOCKED: BRANCH  39  40
DOCKED: ATOM     40  C   UNL d   1     -13.019   2.981   0.891 -0.11 +0.06    +0.139 C 
DOCKED: ATOM     41  O   UNL d   1     -13.215   1.981   0.219 -0.29 -0.43    -0.650 OA
DOCKED: BRANCH  40  42
DOCKED: ATOM     42  O   UNL d   1     -13.106   4.191   0.306 +0.05 -0.16    -0.776 OA
DOCKED: ATOM     43  H   UNL d   1     -12.885   5.000   0.783 +0.03 +0.03    +0.167 HD
DOCKED: ENDBRANCH  40  42
DOCKED: ENDBRANCH  39  40
DOCKED: ENDBRANCH  38  39
DOCKED: ENDBRANCH  22  38
DOCKED: BRANCH  12  44
DOCKED: ATOM     44  C   UNL d   1     -11.220   7.132  13.561 -0.18 +0.00    +0.004 C 
DOCKED: ATOM     45  C   UNL d   1     -10.080   7.172  14.249 -0.27 +0.00    +0.012 C 
DOCKED: ENDBRANCH  12  44
DOCKED: BRANCH  17  46
DOCKED: ATOM     46  C   UNL d   1     -12.740  -0.181  10.210 -0.14 -0.00    +0.004 C 
DOCKED: ATOM     47  C   UNL d   1     -11.866  -1.071   9.722 -0.25 -0.00    +0.012 C 
DOCKED: ENDBRANCH  17  46
DOCKED: TORSDOF 10
DOCKED: TER
DOCKED: ENDMDL
________________________________________________________________________________


	BEGINNING GENETIC ALGORITHM DOCKING 37 of 100
Run: 37 Seed: 442480059 870451567 [ Run 37 of 100 GA/GALS ]
Beginning LAMARCKIAN GENETIC ALGORITHM (LGA), with a maximum of 25000000 energy evaluations.

Final-Value: -8.910


	FINAL GENETIC ALGORITHM DOCKED STATE
	_______________________________________________


Detailed state:  trans -7.423 -16.965 -10.617 quatxyzw 0.748042 -0.217388 -0.608077 -0.153028 center 8.287 34.468 -0.670 ntor 10 133.3472 -51.6430 -45.3326 124.9288 -47.8273 -179.9915 65.2172 -3.1292 -39.1920 140.2024
State:	 -7.423 -16.965 -10.617   0.757 -0.220 -0.615 -162.395    133.35  -51.64  -45.33  124.93  -47.83 -179.99   65.22   -3.13  -39.19  140.20

DOCKED: MODEL       37
DOCKED: USER    Run = 37
DOCKED: USER    DPF = D:/Protein_go_brrr/autodock/final/mut_N102T/heme_O2/dock.dpf
DOCKED: USER  
DOCKED: USER    Estimated Free Energy of Binding    =   -3.94 kcal/mol  [=(1)+(2)+(3)-(4)]
DOCKED: USER    Estimated Inhibition Constant, Ki   =    1.30 mM (millimolar)  [Temperature = 298.15 K]
DOCKED: USER    
DOCKED: USER    (1) Final Intermolecular Energy     =   -6.92 kcal/mol
DOCKED: USER        vdW + Hbond + desolv Energy     =   -3.70 kcal/mol
DOCKED: USER        Electrostatic Energy            =   -3.22 kcal/mol
DOCKED: USER    (2) Final Total Internal Energy     =   -1.99 kcal/mol
DOCKED: USER    (3) Torsional Free Energy           =   +2.98 kcal/mol
DOCKED: USER    (4) Unbound System's Energy  [=(2)] =   -1.99 kcal/mol
DOCKED: USER    
DOCKED: USER    
DOCKED: USER    NEWDPF move heme_O2_opt.pdbqt
DOCKED: USER    NEWDPF about 8.287000 34.468000 -0.670000
DOCKED: USER    NEWDPF tran0 -7.422666 -16.965140 -10.616677
DOCKED: USER    NEWDPF quaternion0 0.748042 -0.217388 -0.608077 -0.153028
DOCKED: USER    NEWDPF axisangle0 0.756957 -0.219979 -0.615325 -162.395061
DOCKED: USER    NEWDPF quat0 0.756957 -0.219979 -0.615325 -162.395061
DOCKED: USER    NEWDPF dihe0 133.35 -51.64 -45.33 124.93 -47.83 -179.99 65.22 -3.13 -39.19 140.20 
DOCKED: USER  keepresnum = 1 
DOCKED: USER  
DOCKED: REMARK  10 active torsions:
DOCKED: REMARK  status: ('A' for Active; 'I' for Inactive)
DOCKED: REMARK    1  A    between atoms: C_6  and  C_10 
DOCKED: REMARK    2  A    between atoms: C_10  and  C_11 
DOCKED: REMARK    3  A    between atoms: C_11  and  C_12 
DOCKED: REMARK    4  A    between atoms: C_12  and  O_14 
DOCKED: REMARK    5  A    between atoms: C_17  and  C_20 
DOCKED: REMARK    6  A    between atoms: C_24  and  C_27 
DOCKED: REMARK    7  A    between atoms: C_31  and  C_34 
DOCKED: REMARK    8  A    between atoms: C_34  and  C_35 
DOCKED: REMARK    9  A    between atoms: C_35  and  C_36 
DOCKED: REMARK   10  A    between atoms: C_36  and  O_38 
DOCKED: USER                              x       y       z     vdW  Elec       q    Type
DOCKED: USER                           _______ _______ _______ _____ _____    ______ ____
DOCKED: ROOT
DOCKED: ATOM      1  C   UNL d   1      -7.036 -16.554  -8.572 -0.18 +0.07    +0.064 A 
DOCKED: ATOM      2  C   UNL d   1     -10.080 -14.682 -11.700 -0.08 +0.01    +0.064 A 
DOCKED: ATOM      3  C   UNL d   1      -8.453 -17.589 -15.164 -0.11 +0.00    +0.064 C 
DOCKED: ATOM      4  C   UNL d   1      -5.649 -19.852 -11.834 -0.12 +0.01    +0.064 A 
DOCKED: ATOM      5  C   UNL d   1      -7.998 -15.809  -9.140 -0.17 +0.04    +0.066 A 
DOCKED: ATOM      6  C   UNL d   1      -8.714 -14.812  -8.470 -0.11 -0.01    -0.021 A 
DOCKED: ATOM      7  C   UNL d   1      -9.625 -14.299  -9.363 -0.07 -0.01    -0.025 A 
DOCKED: ATOM      8  C   UNL d   1      -9.408 -14.963 -10.567 -0.09 +0.02    +0.066 A 
DOCKED: ATOM      9  C   UNL d   1     -10.660 -13.245  -9.034 -0.02 +0.01    +0.051 C 
DOCKED: ATOM     10  C   UNL d   1      -9.881 -15.328 -12.998 -0.11 +0.01    +0.066 A 
DOCKED: ATOM     11  C   UNL d   1     -10.489 -14.887 -14.179 -0.08 -0.00    -0.021 A 
DOCKED: ATOM     12  C   UNL d   1     -10.018 -15.702 -15.192 -0.08 +0.00    +0.000 A 
DOCKED: ATOM     13  C   UNL d   1      -9.140 -16.622 -14.556 -0.11 +0.00    +0.070 A 
DOCKED: ATOM     14  C   UNL d   1     -11.456 -13.720 -14.338 -0.03 +0.00    +0.052 C 
DOCKED: ATOM     15  C   UNL d   1      -7.581 -18.563 -14.551 -0.09 +0.00    +0.066 A 
DOCKED: ATOM     16  C   UNL d   1      -7.020 -19.652 -15.218 -0.05 -0.00    -0.021 A 
DOCKED: ATOM     17  C   UNL d   1      -6.217 -20.312 -14.288 -0.06 +0.00    +0.000 A 
DOCKED: ATOM     18  C   UNL d   1      -6.349 -19.565 -13.109 -0.10 +0.01    +0.070 A 
DOCKED: ATOM     19  C   UNL d   1      -7.341 -19.992 -16.651 -0.01 +0.00    +0.052 C 
DOCKED: ATOM     20  C   UNL d   1      -5.785 -19.182 -10.673 -0.16 +0.02    +0.066 A 
DOCKED: ATOM     21  C   UNL d   1      -5.085 -19.488  -9.509 -0.14 -0.01    -0.025 A 
DOCKED: ATOM     22  C   UNL d   1      -5.447 -18.542  -8.577 -0.16 -0.02    -0.021 A 
DOCKED: ATOM     23  C   UNL d   1      -6.373 -17.701  -9.204 -0.19 +0.05    +0.066 A 
DOCKED: ATOM     24  C   UNL d   1      -4.122 -20.627  -9.297 -0.09 +0.02    +0.051 C 
DOCKED: ATOM     25  N   UNL d   1      -8.451 -15.939 -10.411 -0.05 -0.10    -0.248 N 
DOCKED: ATOM     26  N   UNL d   1      -9.066 -16.391 -13.220 -0.06 -0.02    -0.248 N 
DOCKED: ATOM     27  N   UNL d   1      -7.238 -18.552 -13.266 -0.08 -0.03    -0.248 N 
DOCKED: ATOM     28  N   UNL d   1      -6.609 -18.121 -10.463 -0.12 -0.12    -0.248 N 
DOCKED: ATOM     29 FE   UNL d   1      -7.828 -17.264 -11.834 -0.04 +0.00    +0.000 Fe
DOCKED: ATOM     30  O   UNL d   1      -9.282 -17.512 -11.337 -0.13 +0.00    +0.000 OA
DOCKED: ATOM     31  O   UNL d   1      -8.331 -18.738 -11.611 -0.12 +0.00    +0.000 OA
DOCKED: ENDROOT
DOCKED: BRANCH   6  32
DOCKED: ATOM     32  C   UNL d   1      -8.642 -14.447  -7.010 -0.08 +0.03    +0.052 C 
DOCKED: BRANCH  32  33
DOCKED: ATOM     33  C   UNL d   1      -7.210 -14.364  -6.490 -0.07 +0.14    +0.115 C 
DOCKED: BRANCH  33  34
DOCKED: ATOM     34  C   UNL d   1      -6.928 -15.385  -5.416 -0.07 +0.18    +0.139 C 
DOCKED: ATOM     35  O   UNL d   1      -5.773 -15.677  -5.149 +0.05 -1.25    -0.650 OA
DOCKED: BRANCH  34  36
DOCKED: ATOM     36  O   UNL d   1      -7.928 -16.008  -4.758 +0.06 -0.60    -0.776 OA
DOCKED: ATOM     37  H   UNL d   1      -7.928 -16.962  -4.614 +0.02 +0.13    +0.167 HD
DOCKED: ENDBRANCH  34  36
DOCKED: ENDBRANCH  33  34
DOCKED: ENDBRANCH  32  33
DOCKED: ENDBRANCH   6  32
DOCKED: BRANCH  22  38
DOCKED: ATOM     38  C   UNL d   1      -4.976 -18.493  -7.147 -0.15 +0.06    +0.052 C 
DOCKED: BRANCH  38  39
DOCKED: ATOM     39  C   UNL d   1      -6.124 -18.644  -6.150 -0.08 +0.11    +0.115 C 
DOCKED: BRANCH  39  40
DOCKED: ATOM     40  C   UNL d   1      -5.643 -18.699  -4.722 -0.06 +0.19    +0.139 C 
DOCKED: ATOM     41  O   UNL d   1      -4.587 -19.252  -4.458 -0.34 -1.01    -0.650 OA
DOCKED: BRANCH  40  42
DOCKED: ATOM     42  O   UNL d   1      -6.334 -18.102  -3.732 +0.14 -1.41    -0.776 OA
DOCKED: ATOM     43  H   UNL d   1      -6.639 -17.190  -3.808 +0.02 +0.26    +0.167 HD
DOCKED: ENDBRANCH  40  42
DOCKED: ENDBRANCH  39  40
DOCKED: ENDBRANCH  38  39
DOCKED: ENDBRANCH  22  38
DOCKED: BRANCH  12  44
DOCKED: ATOM     44  C   UNL d   1     -10.449 -15.523 -16.633 -0.03 +0.00    +0.004 C 
DOCKED: ATOM     45  C   UNL d   1      -9.676 -15.445 -17.715 -0.03 +0.00    +0.012 C 
DOCKED: ENDBRANCH  12  44
DOCKED: BRANCH  17  46
DOCKED: ATOM     46  C   UNL d   1      -5.411 -21.578 -14.401 -0.03 +0.00    +0.004 C 
DOCKED: ATOM     47  C   UNL d   1      -4.086 -21.731 -14.273 -0.04 +0.00    +0.012 C 
DOCKED: ENDBRANCH  17  46
DOCKED: TORSDOF 10
DOCKED: TER
DOCKED: ENDMDL
________________________________________________________________________________


	BEGINNING GENETIC ALGORITHM DOCKING 38 of 100
Run: 38 Seed: 607921356 1299726332 [ Run 38 of 100 GA/GALS ]
Beginning LAMARCKIAN GENETIC ALGORITHM (LGA), with a maximum of 25000000 energy evaluations.

Final-Value: -10.607


	FINAL GENETIC ALGORITHM DOCKED STATE
	_______________________________________________


Detailed state:  trans 14.342 2.846 8.262 quatxyzw -0.704127 -0.447210 -0.484553 0.263471 center 8.287 34.468 -0.670 ntor 10 11.3752 -160.4112 -42.6060 22.8095 -153.4865 -180.0000 3.6116 75.2873 -152.3852 161.6918
State:	 14.342   2.846   8.262  -0.730 -0.464 -0.502 149.448     11.38 -160.41  -42.61   22.81 -153.49 -180.00    3.61   75.29 -152.39  161.69

DOCKED: MODEL       38
DOCKED: USER    Run = 38
DOCKED: USER    DPF = D:/Protein_go_brrr/autodock/final/mut_N102T/heme_O2/dock.dpf
DOCKED: USER  
DOCKED: USER    Estimated Free Energy of Binding    =   -5.45 kcal/mol  [=(1)+(2)+(3)-(4)]
DOCKED: USER    Estimated Inhibition Constant, Ki   =  100.98 uM (micromolar)  [Temperature = 298.15 K]
DOCKED: USER    
DOCKED: USER    (1) Final Intermolecular Energy     =   -8.43 kcal/mol
DOCKED: USER        vdW + Hbond + desolv Energy     =   -6.12 kcal/mol
DOCKED: USER        Electrostatic Energy            =   -2.32 kcal/mol
DOCKED: USER    (2) Final Total Internal Energy     =   -2.17 kcal/mol
DOCKED: USER    (3) Torsional Free Energy           =   +2.98 kcal/mol
DOCKED: USER    (4) Unbound System's Energy  [=(2)] =   -2.17 kcal/mol
DOCKED: USER    
DOCKED: USER    
DOCKED: USER    NEWDPF move heme_O2_opt.pdbqt
DOCKED: USER    NEWDPF about 8.287000 34.468000 -0.670000
DOCKED: USER    NEWDPF tran0 14.342129 2.845542 8.261846
DOCKED: USER    NEWDPF quaternion0 -0.704127 -0.447210 -0.484553 0.263471
DOCKED: USER    NEWDPF axisangle0 -0.729917 -0.463589 -0.502301 149.447742
DOCKED: USER    NEWDPF quat0 -0.729917 -0.463589 -0.502301 149.447742
DOCKED: USER    NEWDPF dihe0 11.38 -160.41 -42.61 22.81 -153.49 -180.00 3.61 75.29 -152.39 161.69 
DOCKED: USER  keepresnum = 1 
DOCKED: USER  
DOCKED: REMARK  10 active torsions:
DOCKED: REMARK  status: ('A' for Active; 'I' for Inactive)
DOCKED: REMARK    1  A    between atoms: C_6  and  C_10 
DOCKED: REMARK    2  A    between atoms: C_10  and  C_11 
DOCKED: REMARK    3  A    between atoms: C_11  and  C_12 
DOCKED: REMARK    4  A    between atoms: C_12  and  O_14 
DOCKED: REMARK    5  A    between atoms: C_17  and  C_20 
DOCKED: REMARK    6  A    between atoms: C_24  and  C_27 
DOCKED: REMARK    7  A    between atoms: C_31  and  C_34 
DOCKED: REMARK    8  A    between atoms: C_34  and  C_35 
DOCKED: REMARK    9  A    between atoms: C_35  and  C_36 
DOCKED: REMARK   10  A    between atoms: C_36  and  O_38 
DOCKED: USER                              x       y       z     vdW  Elec       q    Type
DOCKED: USER                           _______ _______ _______ _____ _____    ______ ____
DOCKED: ROOT
DOCKED: ATOM      1  C   UNL d   1      13.589   0.863   8.224 -0.23 +0.02    +0.064 A 
DOCKED: ATOM      2  C   UNL d   1      16.124   3.392   5.104 -0.17 +0.02    +0.064 A 
DOCKED: ATOM      3  C   UNL d   1      16.071   7.213   8.017 -0.17 +0.01    +0.064 C 
DOCKED: ATOM      4  C   UNL d   1      13.873   4.471  11.440 -0.24 +0.02    +0.064 A 
DOCKED: ATOM      5  C   UNL d   1      14.285   1.238   7.138 -0.21 +0.01    +0.066 A 
DOCKED: ATOM      6  C   UNL d   1      14.512   0.416   6.031 -0.24 -0.01    -0.021 A 
DOCKED: ATOM      7  C   UNL d   1      15.283   1.132   5.146 -0.21 -0.01    -0.025 A 
DOCKED: ATOM      8  C   UNL d   1      15.464   2.389   5.715 -0.19 +0.01    +0.066 A 
DOCKED: ATOM      9  C   UNL d   1      15.827   0.595   3.840 -0.19 +0.01    +0.051 C 
DOCKED: ATOM     10  C   UNL d   1      16.327   4.738   5.641 -0.12 +0.01    +0.066 A 
DOCKED: ATOM     11  C   UNL d   1      16.877   5.788   4.897 -0.11 -0.00    -0.021 A 
DOCKED: ATOM     12  C   UNL d   1      16.853   6.904   5.714 -0.08 +0.00    +0.000 A 
DOCKED: ATOM     13  C   UNL d   1      16.289   6.458   6.941 -0.10 +0.01    +0.070 A 
DOCKED: ATOM     14  C   UNL d   1      17.378   5.737   3.458 -0.12 +0.03    +0.052 C 
DOCKED: ATOM     15  C   UNL d   1      15.535   6.792   9.289 -0.18 +0.01    +0.066 A 
DOCKED: ATOM     16  C   UNL d   1      15.483   7.594  10.429 -0.22 -0.00    -0.021 A 
DOCKED: ATOM     17  C   UNL d   1      14.861   6.833  11.419 -0.29 +0.00    +0.000 A 
DOCKED: ATOM     18  C   UNL d   1      14.574   5.608  10.799 -0.25 +0.01    +0.070 A 
DOCKED: ATOM     19  C   UNL d   1      16.075   8.980  10.488 -0.09 +0.01    +0.052 C 
DOCKED: ATOM     20  C   UNL d   1      13.620   3.268  10.889 -0.20 +0.02    +0.066 A 
DOCKED: ATOM     21  C   UNL d   1      12.939   2.241  11.536 -0.18 -0.01    -0.025 A 
DOCKED: ATOM     22  C   UNL d   1      12.825   1.214  10.625 -0.16 -0.01    -0.021 A 
DOCKED: ATOM     23  C   UNL d   1      13.459   1.648   9.457 -0.18 +0.02    +0.066 A 
DOCKED: ATOM     24  C   UNL d   1      12.426   2.237  12.952 -0.21 +0.02    +0.051 C 
DOCKED: ATOM     25  N   UNL d   1      14.905   2.432   6.971 -0.06 -0.05    -0.248 N 
DOCKED: ATOM     26  N   UNL d   1      15.977   5.138   6.889 -0.04 -0.04    -0.248 N 
DOCKED: ATOM     27  N   UNL d   1      15.057   5.575   9.531 +0.07 -0.04    -0.248 N 
DOCKED: ATOM     28  N   UNL d   1      13.981   2.879   9.637 -0.03 -0.06    -0.248 N 
DOCKED: ATOM     29 FE   UNL d   1      14.972   4.002   8.275 -0.02 +0.00    +0.000 Fe
DOCKED: ATOM     30  O   UNL d   1      16.347   3.308   8.057 -0.10 +0.00    +0.000 OA
DOCKED: ATOM     31  O   UNL d   1      15.935   3.787   9.500 -0.10 +0.00    +0.000 OA
DOCKED: ENDROOT
DOCKED: BRANCH   6  32
DOCKED: ATOM     32  C   UNL d   1      14.139  -1.035   5.867 -0.09 +0.02    +0.052 C 
DOCKED: BRANCH  32  33
DOCKED: ATOM     33  C   UNL d   1      14.939  -1.960   6.779 -0.12 +0.06    +0.115 C 
DOCKED: BRANCH  33  34
DOCKED: ATOM     34  C   UNL d   1      14.581  -3.412   6.583 -0.09 +0.10    +0.139 C 
DOCKED: ATOM     35  O   UNL d   1      14.658  -3.907   5.470 -0.04 -0.33    -0.650 OA
DOCKED: BRANCH  34  36
DOCKED: ATOM     36  O   UNL d   1      14.149  -4.175   7.608 +0.05 -1.02    -0.776 OA
DOCKED: ATOM     37  H   UNL d   1      13.895  -3.793   8.457 +0.00 +0.29    +0.167 HD
DOCKED: ENDBRANCH  34  36
DOCKED: ENDBRANCH  33  34
DOCKED: ENDBRANCH  32  33
DOCKED: ENDBRANCH   6  32
DOCKED: BRANCH  22  38
DOCKED: ATOM     38  C   UNL d   1      12.197  -0.130  10.890 -0.15 +0.02    +0.052 C 
DOCKED: BRANCH  38  39
DOCKED: ATOM     39  C   UNL d   1      13.230  -1.192  11.258 -0.05 +0.05    +0.115 C 
DOCKED: BRANCH  39  40
DOCKED: ATOM     40  C   UNL d   1      13.476  -2.170  10.136 -0.08 +0.12    +0.139 C 
DOCKED: ATOM     41  O   UNL d   1      12.554  -2.504   9.411 -0.23 -1.29    -0.650 OA
DOCKED: BRANCH  40  42
DOCKED: ATOM     42  O   UNL d   1      14.712  -2.645   9.886 -0.03 -0.48    -0.776 OA
DOCKED: ATOM     43  H   UNL d   1      14.951  -2.998   9.021 +0.01 +0.11    +0.167 HD
DOCKED: ENDBRANCH  40  42
DOCKED: ENDBRANCH  39  40
DOCKED: ENDBRANCH  38  39
DOCKED: ENDBRANCH  22  38
DOCKED: BRANCH  12  44
DOCKED: ATOM     44  C   UNL d   1      17.364   8.251   5.249 -0.05 +0.00    +0.004 C 
DOCKED: ATOM     45  C   UNL d   1      16.773   9.439   5.375 -0.06 +0.00    +0.012 C 
DOCKED: ENDBRANCH  12  44
DOCKED: BRANCH  17  46
DOCKED: ATOM     46  C   UNL d   1      14.578   7.135  12.866 -0.27 +0.00    +0.004 C 
DOCKED: ATOM     47  C   UNL d   1      14.595   8.323  13.483 -0.26 +0.00    +0.012 C 
DOCKED: ENDBRANCH  17  46
DOCKED: TORSDOF 10
DOCKED: TER
DOCKED: ENDMDL
________________________________________________________________________________


	BEGINNING GENETIC ALGORITHM DOCKING 39 of 100
Run: 39 Seed: 1169924303 934376618 [ Run 39 of 100 GA/GALS ]
Beginning LAMARCKIAN GENETIC ALGORITHM (LGA), with a maximum of 25000000 energy evaluations.

Final-Value: -10.157


	FINAL GENETIC ALGORITHM DOCKED STATE
	_______________________________________________


Detailed state:  trans 10.555 0.685 13.886 quatxyzw -0.685467 0.023257 -0.726260 -0.046261 center 8.287 34.468 -0.670 ntor 10 -119.7795 -44.5022 -41.4301 120.7025 1.9404 -42.9989 -100.8381 174.8876 -176.5131 174.0593
State:	 10.555   0.685  13.886  -0.686  0.023 -0.727 -174.697   -119.78  -44.50  -41.43  120.70    1.94  -43.00 -100.84  174.89 -176.51  174.06

DOCKED: MODEL       39
DOCKED: USER    Run = 39
DOCKED: USER    DPF = D:/Protein_go_brrr/autodock/final/mut_N102T/heme_O2/dock.dpf
DOCKED: USER  
DOCKED: USER    Estimated Free Energy of Binding    =   -4.85 kcal/mol  [=(1)+(2)+(3)-(4)]
DOCKED: USER    Estimated Inhibition Constant, Ki   =  276.84 uM (micromolar)  [Temperature = 298.15 K]
DOCKED: USER    
DOCKED: USER    (1) Final Intermolecular Energy     =   -7.84 kcal/mol
DOCKED: USER        vdW + Hbond + desolv Energy     =   -5.83 kcal/mol
DOCKED: USER        Electrostatic Energy            =   -2.01 kcal/mol
DOCKED: USER    (2) Final Total Internal Energy     =   -2.32 kcal/mol
DOCKED: USER    (3) Torsional Free Energy           =   +2.98 kcal/mol
DOCKED: USER    (4) Unbound System's Energy  [=(2)] =   -2.32 kcal/mol
DOCKED: USER    
DOCKED: USER    
DOCKED: USER    NEWDPF move heme_O2_opt.pdbqt
DOCKED: USER    NEWDPF about 8.287000 34.468000 -0.670000
DOCKED: USER    NEWDPF tran0 10.555124 0.685088 13.885952
DOCKED: USER    NEWDPF quaternion0 -0.685467 0.023257 -0.726260 -0.046261
DOCKED: USER    NEWDPF axisangle0 -0.686202 0.023282 -0.727038 -174.696960
DOCKED: USER    NEWDPF quat0 -0.686202 0.023282 -0.727038 -174.696960
DOCKED: USER    NEWDPF dihe0 -119.78 -44.50 -41.43 120.70 1.94 -43.00 -100.84 174.89 -176.51 174.06 
DOCKED: USER  keepresnum = 1 
DOCKED: USER  
DOCKED: REMARK  10 active torsions:
DOCKED: REMARK  status: ('A' for Active; 'I' for Inactive)
DOCKED: REMARK    1  A    between atoms: C_6  and  C_10 
DOCKED: REMARK    2  A    between atoms: C_10  and  C_11 
DOCKED: REMARK    3  A    between atoms: C_11  and  C_12 
DOCKED: REMARK    4  A    between atoms: C_12  and  O_14 
DOCKED: REMARK    5  A    between atoms: C_17  and  C_20 
DOCKED: REMARK    6  A    between atoms: C_24  and  C_27 
DOCKED: REMARK    7  A    between atoms: C_31  and  C_34 
DOCKED: REMARK    8  A    between atoms: C_34  and  C_35 
DOCKED: REMARK    9  A    between atoms: C_35  and  C_36 
DOCKED: REMARK   10  A    between atoms: C_36  and  O_38 
DOCKED: USER                              x       y       z     vdW  Elec       q    Type
DOCKED: USER                           _______ _______ _______ _____ _____    ______ ____
DOCKED: ROOT
DOCKED: ATOM      1  C   UNL d   1       9.883   0.248  11.922 -0.23 +0.02    +0.064 A 
DOCKED: ATOM      2  C   UNL d   1      13.420   2.954  13.574 -0.14 +0.03    +0.064 A 
DOCKED: ATOM      3  C   UNL d   1      12.228   1.904  18.110 -0.13 +0.03    +0.064 C 
DOCKED: ATOM      4  C   UNL d   1       8.886  -1.261  16.413 -0.04 +0.02    +0.064 A 
DOCKED: ATOM      5  C   UNL d   1      10.943   1.068  12.001 -0.22 +0.02    +0.066 A 
DOCKED: ATOM      6  C   UNL d   1      11.585   1.627  10.893 -0.32 -0.01    -0.021 A 
DOCKED: ATOM      7  C   UNL d   1      12.636   2.376  11.368 -0.23 -0.01    -0.025 A 
DOCKED: ATOM      8  C   UNL d   1      12.578   2.293  12.756 -0.17 +0.02    +0.066 A 
DOCKED: ATOM      9  C   UNL d   1      13.645   3.099  10.502 -0.21 +0.01    +0.051 C 
DOCKED: ATOM     10  C   UNL d   1      13.394   2.923  15.037 -0.13 +0.04    +0.066 A 
DOCKED: ATOM     11  C   UNL d   1      14.185   3.755  15.838 -0.07 -0.01    -0.021 A 
DOCKED: ATOM     12  C   UNL d   1      13.842   3.480  17.149 -0.09 +0.00    +0.000 A 
DOCKED: ATOM     13  C   UNL d   1      12.849   2.465  17.072 -0.12 +0.05    +0.070 A 
DOCKED: ATOM     14  C   UNL d   1      15.204   4.788  15.371 -0.08 +0.03    +0.052 C 
DOCKED: ATOM     15  C   UNL d   1      11.243   0.850  18.076 -0.10 +0.02    +0.066 A 
DOCKED: ATOM     16  C   UNL d   1      10.751   0.192  19.203 -0.06 -0.01    -0.021 A 
DOCKED: ATOM     17  C   UNL d   1       9.797  -0.716  18.743 -0.05 +0.00    +0.000 A 
DOCKED: ATOM     18  C   UNL d   1       9.777  -0.540  17.353 +0.03 +0.02    +0.070 A 
DOCKED: ATOM     19  C   UNL d   1      11.269   0.446  20.596 -0.04 +0.01    +0.052 C 
DOCKED: ATOM     20  C   UNL d   1       8.871  -1.147  15.071 -0.12 +0.02    +0.066 A 
DOCKED: ATOM     21  C   UNL d   1       7.995  -1.840  14.239 -0.14 -0.00    -0.025 A 
DOCKED: ATOM     22  C   UNL d   1       8.247  -1.402  12.958 -0.20 -0.00    -0.021 A 
DOCKED: ATOM     23  C   UNL d   1       9.283  -0.468  13.054 -0.19 +0.02    +0.066 A 
DOCKED: ATOM     24  C   UNL d   1       6.974  -2.870  14.645 -0.15 +0.00    +0.051 C 
DOCKED: ATOM     25  N   UNL d   1      11.575   1.434  13.143 -0.10 -0.08    -0.248 N 
DOCKED: ATOM     26  N   UNL d   1      12.585   2.129  15.784 -0.10 -0.14    -0.248 N 
DOCKED: ATOM     27  N   UNL d   1      10.713   0.360  16.959 -0.07 -0.09    -0.248 N 
DOCKED: ATOM     28  N   UNL d   1       9.689  -0.350  14.335 -0.10 -0.06    -0.248 N 
DOCKED: ATOM     29 FE   UNL d   1      11.126   0.879  15.057 -0.03 +0.00    +0.000 Fe
DOCKED: ATOM     30  O   UNL d   1      12.482   0.315  14.540 -0.07 +0.00    +0.000 OA
DOCKED: ATOM     31  O   UNL d   1      11.540  -0.594  15.418 -0.06 +0.00    +0.000 OA
DOCKED: ENDROOT
DOCKED: BRANCH   6  32
DOCKED: ATOM     32  C   UNL d   1      11.309   1.361   9.435 -0.41 +0.02    +0.052 C 
DOCKED: BRANCH  32  33
DOCKED: ATOM     33  C   UNL d   1      12.181   0.248   8.861 -0.33 +0.06    +0.115 C 
DOCKED: BRANCH  33  34
DOCKED: ATOM     34  C   UNL d   1      11.706  -1.124   9.271 -0.11 +0.13    +0.139 C 
DOCKED: ATOM     35  O   UNL d   1      12.516  -2.027   9.406 -0.26 -0.96    -0.650 OA
DOCKED: BRANCH  34  36
DOCKED: ATOM     36  O   UNL d   1      10.398  -1.386   9.467 -0.36 -0.90    -0.776 OA
DOCKED: ATOM     37  H   UNL d   1      10.058  -1.685  10.318 +0.04 +0.15    +0.167 HD
DOCKED: ENDBRANCH  34  36
DOCKED: ENDBRANCH  33  34
DOCKED: ENDBRANCH  32  33
DOCKED: ENDBRANCH   6  32
DOCKED: BRANCH  22  38
DOCKED: ATOM     38  C   UNL d   1       7.570  -1.906  11.709 -0.18 +0.01    +0.052 C 
DOCKED: BRANCH  38  39
DOCKED: ATOM     39  C   UNL d   1       8.218  -3.179  11.169 -0.18 +0.05    +0.115 C 
DOCKED: BRANCH  39  40
DOCKED: ATOM     40  C   UNL d   1       9.472  -3.551  11.920 -0.12 +0.07    +0.139 C 
DOCKED: ATOM     41  O   UNL d   1       9.436  -4.438  12.758 +0.02 -0.24    -0.650 OA
DOCKED: BRANCH  40  42
DOCKED: ATOM     42  O   UNL d   1      10.649  -2.955  11.648 +0.03 -0.56    -0.776 OA
DOCKED: ATOM     43  H   UNL d   1      10.926  -2.777  10.741 +0.03 +0.20    +0.167 HD
DOCKED: ENDBRANCH  40  42
DOCKED: ENDBRANCH  39  40
DOCKED: ENDBRANCH  38  39
DOCKED: ENDBRANCH  22  38
DOCKED: BRANCH  12  44
DOCKED: ATOM     44  C   UNL d   1      14.488   4.197  18.316 -0.08 +0.00    +0.004 C 
DOCKED: ATOM     45  C   UNL d   1      13.892   4.725  19.384 -0.07 +0.01    +0.012 C 
DOCKED: ENDBRANCH  12  44
DOCKED: BRANCH  17  46
DOCKED: ATOM     46  C   UNL d   1       8.974  -1.741  19.477 -0.06 +0.00    +0.004 C 
DOCKED: ATOM     47  C   UNL d   1       7.646  -1.767  19.652 -0.07 +0.00    +0.012 C 
DOCKED: ENDBRANCH  17  46
DOCKED: TORSDOF 10
DOCKED: TER
DOCKED: ENDMDL
________________________________________________________________________________


	BEGINNING GENETIC ALGORITHM DOCKING 40 of 100
Run: 40 Seed: 2053737164 1024334179 [ Run 40 of 100 GA/GALS ]
Beginning LAMARCKIAN GENETIC ALGORITHM (LGA), with a maximum of 25000000 energy evaluations.

Final-Value: -8.706


	FINAL GENETIC ALGORITHM DOCKED STATE
	_______________________________________________


Detailed state:  trans -11.802 5.727 10.295 quatxyzw -0.608871 -0.690395 0.078854 0.382639 center 8.287 34.468 -0.670 ntor 10 126.7456 120.7623 45.9539 -108.7499 57.9040 55.1069 53.2986 -76.2429 -175.6155 -180.0000
State:	-11.802   5.727  10.295  -0.659 -0.747  0.085 135.006    126.75  120.76   45.95 -108.75   57.90   55.11   53.30  -76.24 -175.62 -180.00

DOCKED: MODEL       40
DOCKED: USER    Run = 40
DOCKED: USER    DPF = D:/Protein_go_brrr/autodock/final/mut_N102T/heme_O2/dock.dpf
DOCKED: USER  
DOCKED: USER    Estimated Free Energy of Binding    =   -4.97 kcal/mol  [=(1)+(2)+(3)-(4)]
DOCKED: USER    Estimated Inhibition Constant, Ki   =  227.32 uM (micromolar)  [Temperature = 298.15 K]
DOCKED: USER    
DOCKED: USER    (1) Final Intermolecular Energy     =   -7.95 kcal/mol
DOCKED: USER        vdW + Hbond + desolv Energy     =   -7.84 kcal/mol
DOCKED: USER        Electrostatic Energy            =   -0.11 kcal/mol
DOCKED: USER    (2) Final Total Internal Energy     =   -0.75 kcal/mol
DOCKED: USER    (3) Torsional Free Energy           =   +2.98 kcal/mol
DOCKED: USER    (4) Unbound System's Energy  [=(2)] =   -0.75 kcal/mol
DOCKED: USER    
DOCKED: USER    
DOCKED: USER    NEWDPF move heme_O2_opt.pdbqt
DOCKED: USER    NEWDPF about 8.287000 34.468000 -0.670000
DOCKED: USER    NEWDPF tran0 -11.802297 5.727171 10.294511
DOCKED: USER    NEWDPF quaternion0 -0.608871 -0.690395 0.078854 0.382639
DOCKED: USER    NEWDPF axisangle0 -0.659024 -0.747264 0.085349 135.005538
DOCKED: USER    NEWDPF quat0 -0.659024 -0.747264 0.085349 135.005538
DOCKED: USER    NEWDPF dihe0 126.75 120.76 45.95 -108.75 57.90 55.11 53.30 -76.24 -175.62 -180.00 
DOCKED: USER  keepresnum = 1 
DOCKED: USER  
DOCKED: REMARK  10 active torsions:
DOCKED: REMARK  status: ('A' for Active; 'I' for Inactive)
DOCKED: REMARK    1  A    between atoms: C_6  and  C_10 
DOCKED: REMARK    2  A    between atoms: C_10  and  C_11 
DOCKED: REMARK    3  A    between atoms: C_11  and  C_12 
DOCKED: REMARK    4  A    between atoms: C_12  and  O_14 
DOCKED: REMARK    5  A    between atoms: C_17  and  C_20 
DOCKED: REMARK    6  A    between atoms: C_24  and  C_27 
DOCKED: REMARK    7  A    between atoms: C_31  and  C_34 
DOCKED: REMARK    8  A    between atoms: C_34  and  C_35 
DOCKED: REMARK    9  A    between atoms: C_35  and  C_36 
DOCKED: REMARK   10  A    between atoms: C_36  and  O_38 
DOCKED: USER                              x       y       z     vdW  Elec       q    Type
DOCKED: USER                           _______ _______ _______ _____ _____    ______ ____
DOCKED: ROOT
DOCKED: ATOM      1  C   UNL d   1     -11.670   4.876  12.233 +0.05 +0.00    +0.064 A 
DOCKED: ATOM      2  C   UNL d   1     -12.484   2.991   7.950 -0.19 -0.00    +0.064 A 
DOCKED: ATOM      3  C   UNL d   1     -12.230   7.326   5.892 -0.16 -0.00    +0.064 C 
DOCKED: ATOM      4  C   UNL d   1     -10.917   9.216  10.224 -0.18 -0.00    +0.064 A 
DOCKED: ATOM      5  C   UNL d   1     -11.910   4.009  11.236 -0.07 -0.00    +0.066 A 
DOCKED: ATOM      6  C   UNL d   1     -12.079   2.634  11.418 -0.19 +0.00    -0.021 A 
DOCKED: ATOM      7  C   UNL d   1     -12.272   2.081  10.173 -0.20 +0.00    -0.025 A 
DOCKED: ATOM      8  C   UNL d   1     -12.264   3.140   9.270 -0.18 -0.01    +0.066 A 
DOCKED: ATOM      9  C   UNL d   1     -12.423   0.601   9.898 -0.19 -0.01    +0.051 C 
DOCKED: ATOM     10  C   UNL d   1     -12.510   4.066   6.958 -0.17 -0.00    +0.066 A 
DOCKED: ATOM     11  C   UNL d   1     -12.905   3.878   5.629 -0.15 +0.00    -0.021 A 
DOCKED: ATOM     12  C   UNL d   1     -12.856   5.120   5.023 -0.13 +0.00    +0.000 A 
DOCKED: ATOM     13  C   UNL d   1     -12.412   6.014   6.037 +0.01 -0.00    +0.070 A 
DOCKED: ATOM     14  C   UNL d   1     -13.338   2.572   4.971 -0.14 -0.00    +0.052 C 
DOCKED: ATOM     15  C   UNL d   1     -11.748   8.259   6.882 -0.19 -0.01    +0.066 A 
DOCKED: ATOM     16  C   UNL d   1     -11.423   9.590   6.622 -0.19 +0.00    -0.021 A 
DOCKED: ATOM     17  C   UNL d   1     -11.045  10.149   7.843 -0.13 -0.00    +0.000 A 
DOCKED: ATOM     18  C   UNL d   1     -11.172   9.103   8.769 -0.20 -0.01    +0.070 A 
DOCKED: ATOM     19  C   UNL d   1     -11.448  10.187   5.238 -0.17 -0.00    +0.052 C 
DOCKED: ATOM     20  C   UNL d   1     -10.987   8.224  11.133 -0.21 -0.00    +0.066 A 
DOCKED: ATOM     21  C   UNL d   1     -10.753   8.394  12.494 -0.20 -0.00    -0.025 A 
DOCKED: ATOM     22  C   UNL d   1     -10.990   7.174  13.086 -0.21 -0.00    -0.021 A 
DOCKED: ATOM     23  C   UNL d   1     -11.343   6.296  12.057 -0.17 +0.00    +0.066 A 
DOCKED: ATOM     24  C   UNL d   1     -10.323   9.657  13.194 -0.16 +0.00    +0.051 C 
DOCKED: ATOM     25  N   UNL d   1     -11.975   4.320   9.918 -0.13 +0.01    -0.248 N 
DOCKED: ATOM     26  N   UNL d   1     -12.199   5.363   7.209 -0.12 +0.00    -0.248 N 
DOCKED: ATOM     27  N   UNL d   1     -11.527   7.945   8.155 -0.15 +0.03    -0.248 N 
DOCKED: ATOM     28  N   UNL d   1     -11.297   6.927  10.866 -0.14 -0.00    -0.248 N 
DOCKED: ATOM     29 FE   UNL d   1     -11.744   6.154   9.050 -0.05 -0.00    +0.000 Fe
DOCKED: ATOM     30  O   UNL d   1     -10.603   5.150   8.711 -0.57 +0.00    +0.000 OA
DOCKED: ATOM     31  O   UNL d   1     -10.256   6.661   8.993 -0.54 -0.00    +0.000 OA
DOCKED: ENDROOT
DOCKED: BRANCH   6  32
DOCKED: ATOM     32  C   UNL d   1     -11.929   1.846  12.694 -0.21 -0.00    +0.052 C 
DOCKED: BRANCH  32  33
DOCKED: ATOM     33  C   UNL d   1     -10.519   1.300  12.890 -0.19 +0.01    +0.115 C 
DOCKED: BRANCH  33  34
DOCKED: ATOM     34  C   UNL d   1     -10.512  -0.178  13.195 -0.30 +0.02    +0.139 C 
DOCKED: ATOM     35  O   UNL d   1     -10.514  -0.555  14.356 -0.13 -0.27    -0.650 OA
DOCKED: BRANCH  34  36
DOCKED: ATOM     36  O   UNL d   1     -10.474  -1.099  12.210 -0.02 +0.24    -0.776 OA
DOCKED: ATOM     37  H   UNL d   1      -9.813  -1.800  12.191 -0.27 -0.13    +0.167 HD
DOCKED: ENDBRANCH  34  36
DOCKED: ENDBRANCH  33  34
DOCKED: ENDBRANCH  32  33
DOCKED: ENDBRANCH   6  32
DOCKED: BRANCH  22  38
DOCKED: ATOM     38  C   UNL d   1     -10.821   6.861  14.550 -0.17 +0.00    +0.052 C 
DOCKED: BRANCH  38  39
DOCKED: ATOM     39  C   UNL d   1      -9.358   6.653  14.936 -0.19 +0.01    +0.115 C 
DOCKED: BRANCH  39  40
DOCKED: ATOM     40  C   UNL d   1      -8.772   7.851  15.640 -0.20 +0.00    +0.139 C 
DOCKED: ATOM     41  O   UNL d   1      -7.561   7.993  15.689 -0.06 +0.00    -0.650 OA
DOCKED: BRANCH  40  42
DOCKED: ATOM     42  O   UNL d   1      -9.564   8.800  16.176 +0.04 +0.01    -0.776 OA
DOCKED: ATOM     43  H   UNL d   1      -9.505   9.040  17.108 +0.02 -0.01    +0.167 HD
DOCKED: ENDBRANCH  40  42
DOCKED: ENDBRANCH  39  40
DOCKED: ENDBRANCH  38  39
DOCKED: ENDBRANCH  22  38
DOCKED: BRANCH  12  44
DOCKED: ATOM     44  C   UNL d   1     -13.226   5.320   3.569 -0.13 +0.00    +0.004 C 
DOCKED: ATOM     45  C   UNL d   1     -12.611   6.081   2.664 -0.14 +0.00    +0.012 C 
DOCKED: ENDBRANCH  12  44
DOCKED: BRANCH  17  46
DOCKED: ATOM     46  C   UNL d   1     -10.536  11.524   8.185 -0.20 -0.00    +0.004 C 
DOCKED: ATOM     47  C   UNL d   1      -9.334  11.866   8.666 -0.28 -0.00    +0.012 C 
DOCKED: ENDBRANCH  17  46
DOCKED: TORSDOF 10
DOCKED: TER
DOCKED: ENDMDL
________________________________________________________________________________


	BEGINNING GENETIC ALGORITHM DOCKING 41 of 100
Run: 41 Seed: 1761935490 690382108 [ Run 41 of 100 GA/GALS ]
Beginning LAMARCKIAN GENETIC ALGORITHM (LGA), with a maximum of 25000000 energy evaluations.

Final-Value: -9.807


	FINAL GENETIC ALGORITHM DOCKED STATE
	_______________________________________________


Detailed state:  trans 4.450 14.957 -10.809 quatxyzw 0.085145 -0.798305 0.044310 0.594555 center 8.287 34.468 -0.670 ntor 10 52.8524 116.4695 70.8632 -102.4152 11.7408 -60.2615 39.0380 84.6610 -42.8604 -179.2147
State:	  4.450  14.957 -10.809   0.106 -0.993  0.055 107.038     52.85  116.47   70.86 -102.42   11.74  -60.26   39.04   84.66  -42.86 -179.21

DOCKED: MODEL       41
DOCKED: USER    Run = 41
DOCKED: USER    DPF = D:/Protein_go_brrr/autodock/final/mut_N102T/heme_O2/dock.dpf
DOCKED: USER  
DOCKED: USER    Estimated Free Energy of Binding    =   -4.73 kcal/mol  [=(1)+(2)+(3)-(4)]
DOCKED: USER    Estimated Inhibition Constant, Ki   =  340.70 uM (micromolar)  [Temperature = 298.15 K]
DOCKED: USER    
DOCKED: USER    (1) Final Intermolecular Energy     =   -7.71 kcal/mol
DOCKED: USER        vdW + Hbond + desolv Energy     =   -8.11 kcal/mol
DOCKED: USER        Electrostatic Energy            =   +0.40 kcal/mol
DOCKED: USER    (2) Final Total Internal Energy     =   -2.09 kcal/mol
DOCKED: USER    (3) Torsional Free Energy           =   +2.98 kcal/mol
DOCKED: USER    (4) Unbound System's Energy  [=(2)] =   -2.09 kcal/mol
DOCKED: USER    
DOCKED: USER    
DOCKED: USER    NEWDPF move heme_O2_opt.pdbqt
DOCKED: USER    NEWDPF about 8.287000 34.468000 -0.670000
DOCKED: USER    NEWDPF tran0 4.450421 14.957201 -10.809152
DOCKED: USER    NEWDPF quaternion0 0.085145 -0.798305 0.044310 0.594555
DOCKED: USER    NEWDPF axisangle0 0.105895 -0.992849 0.055109 107.038133
DOCKED: USER    NEWDPF quat0 0.105895 -0.992849 0.055109 107.038133
DOCKED: USER    NEWDPF dihe0 52.85 116.47 70.86 -102.42 11.74 -60.26 39.04 84.66 -42.86 -179.21 
DOCKED: USER  keepresnum = 1 
DOCKED: USER  
DOCKED: REMARK  10 active torsions:
DOCKED: REMARK  status: ('A' for Active; 'I' for Inactive)
DOCKED: REMARK    1  A    between atoms: C_6  and  C_10 
DOCKED: REMARK    2  A    between atoms: C_10  and  C_11 
DOCKED: REMARK    3  A    between atoms: C_11  and  C_12 
DOCKED: REMARK    4  A    between atoms: C_12  and  O_14 
DOCKED: REMARK    5  A    between atoms: C_17  and  C_20 
DOCKED: REMARK    6  A    between atoms: C_24  and  C_27 
DOCKED: REMARK    7  A    between atoms: C_31  and  C_34 
DOCKED: REMARK    8  A    between atoms: C_34  and  C_35 
DOCKED: REMARK    9  A    between atoms: C_35  and  C_36 
DOCKED: REMARK   10  A    between atoms: C_36  and  O_38 
DOCKED: USER                              x       y       z     vdW  Elec       q    Type
DOCKED: USER                           _______ _______ _______ _____ _____    ______ ____
DOCKED: ROOT
DOCKED: ATOM      1  C   UNL d   1       4.156  15.876  -8.920 -0.26 -0.02    +0.064 A 
DOCKED: ATOM      2  C   UNL d   1       7.602  13.091 -10.630 -0.19 -0.02    +0.064 A 
DOCKED: ATOM      3  C   UNL d   1       5.342  12.731 -14.855 -0.33 -0.04    +0.064 C 
DOCKED: ATOM      4  C   UNL d   1       2.030  15.983 -13.269 -0.19 -0.01    +0.064 A 
DOCKED: ATOM      5  C   UNL d   1       5.278  15.150  -9.041 -0.24 -0.03    +0.066 A 
DOCKED: ATOM      6  C   UNL d   1       6.212  14.975  -8.015 -0.23 +0.01    -0.021 A 
DOCKED: ATOM      7  C   UNL d   1       7.232  14.204  -8.522 -0.19 +0.01    -0.025 A 
DOCKED: ATOM      8  C   UNL d   1       6.870  13.889  -9.829 -0.20 -0.03    +0.066 A 
DOCKED: ATOM      9  C   UNL d   1       8.491  13.832  -7.771 -0.17 -0.05    +0.051 C 
DOCKED: ATOM     10  C   UNL d   1       7.263  12.707 -12.000 -0.19 -0.02    +0.066 A 
DOCKED: ATOM     11  C   UNL d   1       7.974  11.746 -12.729 -0.22 +0.01    -0.021 A 
DOCKED: ATOM     12  C   UNL d   1       7.327  11.615 -13.943 -0.27 -0.00    +0.000 A 
DOCKED: ATOM     13  C   UNL d   1       6.241  12.533 -13.891 -0.27 -0.04    +0.070 A 
DOCKED: ATOM     14  C   UNL d   1       9.202  10.966 -12.274 -0.24 -0.01    +0.052 C 
DOCKED: ATOM     15  C   UNL d   1       4.250  13.674 -14.855 -0.29 -0.03    +0.066 A 
DOCKED: ATOM     16  C   UNL d   1       3.444  13.950 -15.959 -0.30 +0.01    -0.021 A 
DOCKED: ATOM     17  C   UNL d   1       2.492  14.876 -15.531 -0.30 -0.00    +0.000 A 
DOCKED: ATOM     18  C   UNL d   1       2.792  15.096 -14.179 -0.25 -0.01    +0.070 A 
DOCKED: ATOM     19  C   UNL d   1       3.685  13.355 -17.323 -0.18 -0.03    +0.052 C 
DOCKED: ATOM     20  C   UNL d   1       2.315  16.250 -11.980 -0.18 -0.02    +0.066 A 
DOCKED: ATOM     21  C   UNL d   1       1.549  17.080 -11.166 -0.13 +0.00    -0.025 A 
DOCKED: ATOM     22  C   UNL d   1       2.125  17.041  -9.916 -0.19 +0.01    -0.021 A 
DOCKED: ATOM     23  C   UNL d   1       3.236  16.198 -10.018 -0.19 -0.02    +0.066 A 
DOCKED: ATOM     24  C   UNL d   1       0.332  17.874 -11.563 -0.08 -0.00    +0.051 C 
DOCKED: ATOM     25  N   UNL d   1       5.698  14.526 -10.169 -0.04 +0.11    -0.248 N 
DOCKED: ATOM     26  N   UNL d   1       6.213  13.196 -12.707 -0.04 +0.13    -0.248 N 
DOCKED: ATOM     27  N   UNL d   1       3.907  14.416 -13.806 -0.18 +0.09    -0.248 N 
DOCKED: ATOM     28  N   UNL d   1       3.374  15.756 -11.285 -0.15 +0.09    -0.248 N 
DOCKED: ATOM     29 FE   UNL d   1       4.782  14.485 -11.993 -0.06 -0.00    +0.000 Fe
DOCKED: ATOM     30  O   UNL d   1       6.124  15.274 -11.982 -0.13 -0.00    +0.000 OA
DOCKED: ATOM     31  O   UNL d   1       4.901  15.825 -12.809 -0.13 -0.00    +0.000 OA
DOCKED: ENDROOT
DOCKED: BRANCH   6  32
DOCKED: ATOM     32  C   UNL d   1       6.217  15.618  -6.653 -0.21 -0.04    +0.052 C 
DOCKED: BRANCH  32  33
DOCKED: ATOM     33  C   UNL d   1       4.829  15.685  -6.023 -0.26 -0.07    +0.115 C 
DOCKED: BRANCH  33  34
DOCKED: ATOM     34  C   UNL d   1       4.614  16.954  -5.237 -0.09 -0.05    +0.139 C 
DOCKED: ATOM     35  O   UNL d   1       4.028  16.910  -4.168 -0.36 +0.18    -0.650 OA
DOCKED: BRANCH  34  36
DOCKED: ATOM     36  O   UNL d   1       5.031  18.149  -5.704 +0.05 +0.20    -0.776 OA
DOCKED: ATOM     37  H   UNL d   1       4.787  18.469  -6.580 +0.03 -0.04    +0.167 HD
DOCKED: ENDBRANCH  34  36
DOCKED: ENDBRANCH  33  34
DOCKED: ENDBRANCH  32  33
DOCKED: ENDBRANCH   6  32
DOCKED: BRANCH  22  38
DOCKED: ATOM     38  C   UNL d   1       1.665  17.822  -8.713 -0.14 -0.01    +0.052 C 
DOCKED: BRANCH  38  39
DOCKED: ATOM     39  C   UNL d   1       2.093  19.286  -8.771 -0.06 -0.01    +0.115 C 
DOCKED: BRANCH  39  40
DOCKED: ATOM     40  C   UNL d   1       3.362  19.548  -7.999 -0.04 -0.02    +0.139 C 
DOCKED: ATOM     41  O   UNL d   1       4.444  19.351  -8.527 +0.02 +0.10    -0.650 OA
DOCKED: BRANCH  40  42
DOCKED: ATOM     42  O   UNL d   1       3.324  20.045  -6.748 +0.02 +0.09    -0.776 OA
DOCKED: ATOM     43  H   UNL d   1       3.688  19.557  -5.999 +0.02 -0.02    +0.167 HD
DOCKED: ENDBRANCH  40  42
DOCKED: ENDBRANCH  39  40
DOCKED: ENDBRANCH  38  39
DOCKED: ENDBRANCH  22  38
DOCKED: BRANCH  12  44
DOCKED: ATOM     44  C   UNL d   1       7.804  10.650 -15.008 -0.35 -0.00    +0.004 C 
DOCKED: ATOM     45  C   UNL d   1       8.308  10.938 -16.207 -0.25 -0.00    +0.012 C 
DOCKED: ENDBRANCH  12  44
DOCKED: BRANCH  17  46
DOCKED: ATOM     46  C   UNL d   1       1.399  15.588 -16.281 -0.30 +0.00    +0.004 C 
DOCKED: ATOM     47  C   UNL d   1       1.331  16.883 -16.616 -0.19 +0.00    +0.012 C 
DOCKED: ENDBRANCH  17  46
DOCKED: TORSDOF 10
DOCKED: TER
DOCKED: ENDMDL
________________________________________________________________________________


	BEGINNING GENETIC ALGORITHM DOCKING 42 of 100
Run: 42 Seed: 1723667105 1960663942 [ Run 42 of 100 GA/GALS ]
Beginning LAMARCKIAN GENETIC ALGORITHM (LGA), with a maximum of 25000000 energy evaluations.

Final-Value: -8.847


	FINAL GENETIC ALGORITHM DOCKED STATE
	_______________________________________________


Detailed state:  trans 2.019 18.199 -18.824 quatxyzw 0.717029 -0.535332 0.302124 -0.328648 center 8.287 34.468 -0.670 ntor 10 -180.0000 -134.7403 -27.5882 63.8386 12.2050 147.0967 -86.2609 63.2995 -178.5212 -169.2878
State:	  2.019  18.199 -18.824   0.759 -0.567  0.320 -141.626   -180.00 -134.74  -27.59   63.84   12.21  147.10  -86.26   63.30 -178.52 -169.29

DOCKED: MODEL       42
DOCKED: USER    Run = 42
DOCKED: USER    DPF = D:/Protein_go_brrr/autodock/final/mut_N102T/heme_O2/dock.dpf
DOCKED: USER  
DOCKED: USER    Estimated Free Energy of Binding    =   -3.35 kcal/mol  [=(1)+(2)+(3)-(4)]
DOCKED: USER    Estimated Inhibition Constant, Ki   =    3.52 mM (millimolar)  [Temperature = 298.15 K]
DOCKED: USER    
DOCKED: USER    (1) Final Intermolecular Energy     =   -6.33 kcal/mol
DOCKED: USER        vdW + Hbond + desolv Energy     =   -3.57 kcal/mol
DOCKED: USER        Electrostatic Energy            =   -2.76 kcal/mol
DOCKED: USER    (2) Final Total Internal Energy     =   -2.52 kcal/mol
DOCKED: USER    (3) Torsional Free Energy           =   +2.98 kcal/mol
DOCKED: USER    (4) Unbound System's Energy  [=(2)] =   -2.52 kcal/mol
DOCKED: USER    
DOCKED: USER    
DOCKED: USER    NEWDPF move heme_O2_opt.pdbqt
DOCKED: USER    NEWDPF about 8.287000 34.468000 -0.670000
DOCKED: USER    NEWDPF tran0 2.018809 18.199156 -18.823723
DOCKED: USER    NEWDPF quaternion0 0.717029 -0.535332 0.302124 -0.328648
DOCKED: USER    NEWDPF axisangle0 0.759201 -0.566817 0.319893 -141.626490
DOCKED: USER    NEWDPF quat0 0.759201 -0.566817 0.319893 -141.626490
DOCKED: USER    NEWDPF dihe0 -180.00 -134.74 -27.59 63.84 12.21 147.10 -86.26 63.30 -178.52 -169.29 
DOCKED: USER  keepresnum = 1 
DOCKED: USER  
DOCKED: REMARK  10 active torsions:
DOCKED: REMARK  status: ('A' for Active; 'I' for Inactive)
DOCKED: REMARK    1  A    between atoms: C_6  and  C_10 
DOCKED: REMARK    2  A    between atoms: C_10  and  C_11 
DOCKED: REMARK    3  A    between atoms: C_11  and  C_12 
DOCKED: REMARK    4  A    between atoms: C_12  and  O_14 
DOCKED: REMARK    5  A    between atoms: C_17  and  C_20 
DOCKED: REMARK    6  A    between atoms: C_24  and  C_27 
DOCKED: REMARK    7  A    between atoms: C_31  and  C_34 
DOCKED: REMARK    8  A    between atoms: C_34  and  C_35 
DOCKED: REMARK    9  A    between atoms: C_35  and  C_36 
DOCKED: REMARK   10  A    between atoms: C_36  and  O_38 
DOCKED: USER                              x       y       z     vdW  Elec       q    Type
DOCKED: USER                           _______ _______ _______ _____ _____    ______ ____
DOCKED: ROOT
DOCKED: ATOM      1  C   UNL d   1       0.915  19.772 -19.722 -0.02 +0.06    +0.064 A 
DOCKED: ATOM      2  C   UNL d   1       4.139  16.732 -21.432 -0.01 +0.01    +0.064 A 
DOCKED: ATOM      3  C   UNL d   1       4.662  14.709 -17.104 -0.12 -0.02    +0.064 C 
DOCKED: ATOM      4  C   UNL d   1       0.998  17.514 -15.440 -0.10 +0.01    +0.064 A 
DOCKED: ATOM      5  C   UNL d   1       1.748  19.109 -20.540 -0.05 +0.05    +0.066 A 
DOCKED: ATOM      6  C   UNL d   1       1.916  19.408 -21.895 -0.04 -0.01    -0.021 A 
DOCKED: ATOM      7  C   UNL d   1       2.817  18.501 -22.402 -0.02 -0.01    -0.025 A 
DOCKED: ATOM      8  C   UNL d   1       3.211  17.703 -21.331 -0.03 +0.02    +0.066 A 
DOCKED: ATOM      9  C   UNL d   1       3.234  18.413 -23.854 -0.00 +0.01    +0.051 C 
DOCKED: ATOM     10  C   UNL d   1       4.609  15.879 -20.340 -0.02 +0.00    +0.066 A 
DOCKED: ATOM     11  C   UNL d   1       5.690  14.998 -20.462 -0.02 +0.00    -0.021 A 
DOCKED: ATOM     12  C   UNL d   1       5.868  14.419 -19.220 -0.05 -0.00    +0.000 A 
DOCKED: ATOM     13  C   UNL d   1       4.855  14.982 -18.395 -0.06 -0.01    +0.070 A 
DOCKED: ATOM     14  C   UNL d   1       6.535  14.742 -21.705 -0.00 -0.00    +0.052 C 
DOCKED: ATOM     15  C   UNL d   1       3.627  15.230 -16.244 -0.13 -0.01    +0.066 A 
DOCKED: ATOM     16  C   UNL d   1       3.377  14.782 -14.947 -0.25 +0.00    -0.021 A 
DOCKED: ATOM     17  C   UNL d   1       2.336  15.567 -14.453 -0.24 -0.00    +0.000 A 
DOCKED: ATOM     18  C   UNL d   1       2.026  16.448 -15.498 -0.13 +0.01    +0.070 A 
DOCKED: ATOM     19  C   UNL d   1       4.109  13.621 -14.323 -0.33 -0.02    +0.052 C 
DOCKED: ATOM     20  C   UNL d   1       0.646  18.348 -16.438 -0.09 +0.02    +0.066 A 
DOCKED: ATOM     21  C   UNL d   1      -0.318  19.345 -16.318 -0.07 -0.01    -0.025 A 
DOCKED: ATOM     22  C   UNL d   1      -0.336  20.016 -17.520 -0.07 -0.01    -0.021 A 
DOCKED: ATOM     23  C   UNL d   1       0.609  19.390 -18.338 -0.07 +0.05    +0.066 A 
DOCKED: ATOM     24  C   UNL d   1      -1.181  19.640 -15.119 -0.04 +0.01    +0.051 C 
DOCKED: ATOM     25  N   UNL d   1       2.503  18.036 -20.199 -0.05 -0.12    -0.248 N 
DOCKED: ATOM     26  N   UNL d   1       4.091  15.865 -19.085 -0.01 -0.01    -0.248 N 
DOCKED: ATOM     27  N   UNL d   1       2.768  16.180 -16.603 -0.06 -0.02    -0.248 N 
DOCKED: ATOM     28  N   UNL d   1       1.171  18.348 -17.692 -0.08 -0.14    -0.248 N 
DOCKED: ATOM     29 FE   UNL d   1       2.620  17.114 -18.381 -0.02 +0.00    +0.000 Fe
DOCKED: ATOM     30  O   UNL d   1       1.959  16.241 -19.487 -0.18 +0.00    +0.000 OA
DOCKED: ATOM     31  O   UNL d   1       1.374  16.224 -18.024 -0.24 +0.00    +0.000 OA
DOCKED: ENDROOT
DOCKED: BRANCH   6  32
DOCKED: ATOM     32  C   UNL d   1       1.159  20.418 -22.719 -0.03 +0.02    +0.052 C 
DOCKED: BRANCH  32  33
DOCKED: ATOM     33  C   UNL d   1      -0.024  19.808 -23.464 -0.04 +0.07    +0.115 C 
DOCKED: BRANCH  33  34
DOCKED: ATOM     34  C   UNL d   1      -1.304  19.881 -22.668 +0.04 +0.17    +0.139 C 
DOCKED: ATOM     35  O   UNL d   1      -2.064  18.926 -22.660 +0.18 -1.22    -0.650 OA
DOCKED: BRANCH  34  36
DOCKED: ATOM     36  O   UNL d   1      -1.645  20.993 -21.985 -0.03 -0.71    -0.776 OA
DOCKED: ATOM     37  H   UNL d   1      -2.459  21.047 -21.471 +0.00 +0.17    +0.167 HD
DOCKED: ENDBRANCH  34  36
DOCKED: ENDBRANCH  33  34
DOCKED: ENDBRANCH  32  33
DOCKED: ENDBRANCH   6  32
DOCKED: BRANCH  22  38
DOCKED: ATOM     38  C   UNL d   1      -1.258  21.154 -17.878 -0.06 +0.03    +0.052 C 
DOCKED: BRANCH  38  39
DOCKED: ATOM     39  C   UNL d   1      -2.715  20.711 -17.982 -0.06 +0.08    +0.115 C 
DOCKED: BRANCH  39  40
DOCKED: ATOM     40  C   UNL d   1      -3.279  20.907 -19.367 +0.04 +0.13    +0.139 C 
DOCKED: ATOM     41  O   UNL d   1      -3.456  22.036 -19.795 -0.02 -0.31    -0.650 OA
DOCKED: BRANCH  40  42
DOCKED: ATOM     42  O   UNL d   1      -3.546  19.855 -20.165 -0.32 -1.40    -0.776 OA
DOCKED: ATOM     43  H   UNL d   1      -3.254  19.832 -21.084 +0.04 +0.35    +0.167 HD
DOCKED: ENDBRANCH  40  42
DOCKED: ENDBRANCH  39  40
DOCKED: ENDBRANCH  38  39
DOCKED: ENDBRANCH  22  38
DOCKED: BRANCH  12  44
DOCKED: ATOM     44  C   UNL d   1       6.962  13.405 -18.955 -0.07 -0.00    +0.004 C 
DOCKED: ATOM     45  C   UNL d   1       7.632  13.201 -17.821 -0.07 -0.01    +0.012 C 
DOCKED: ENDBRANCH  12  44
DOCKED: BRANCH  17  46
DOCKED: ATOM     46  C   UNL d   1       1.596  15.516 -13.143 -0.25 -0.00    +0.004 C 
DOCKED: ATOM     47  C   UNL d   1       2.098  15.605 -11.904 -0.31 -0.00    +0.012 C 
DOCKED: ENDBRANCH  17  46
DOCKED: TORSDOF 10
DOCKED: TER
DOCKED: ENDMDL
________________________________________________________________________________


	BEGINNING GENETIC ALGORITHM DOCKING 43 of 100
Run: 43 Seed: 350718948 1047253865 [ Run 43 of 100 GA/GALS ]
Beginning LAMARCKIAN GENETIC ALGORITHM (LGA), with a maximum of 25000000 energy evaluations.

Final-Value: -11.660


	FINAL GENETIC ALGORITHM DOCKED STATE
	_______________________________________________


Detailed state:  trans 14.301 3.023 8.318 quatxyzw 0.712347 0.443440 0.471961 -0.270510 center 8.287 34.468 -0.670 ntor 10 141.4507 -59.0073 -41.3187 33.8581 -110.7811 4.4975 -79.2577 -27.8044 -164.4129 34.9340
State:	 14.301   3.023   8.318   0.740  0.461  0.490 -148.611    141.45  -59.01  -41.32   33.86 -110.78    4.50  -79.26  -27.80 -164.41   34.93

DOCKED: MODEL       43
DOCKED: USER    Run = 43
DOCKED: USER    DPF = D:/Protein_go_brrr/autodock/final/mut_N102T/heme_O2/dock.dpf
DOCKED: USER  
DOCKED: USER    Estimated Free Energy of Binding    =   -6.72 kcal/mol  [=(1)+(2)+(3)-(4)]
DOCKED: USER    Estimated Inhibition Constant, Ki   =   11.82 uM (micromolar)  [Temperature = 298.15 K]
DOCKED: USER    
DOCKED: USER    (1) Final Intermolecular Energy     =   -9.71 kcal/mol
DOCKED: USER        vdW + Hbond + desolv Energy     =   -6.79 kcal/mol
DOCKED: USER        Electrostatic Energy            =   -2.92 kcal/mol
DOCKED: USER    (2) Final Total Internal Energy     =   -1.95 kcal/mol
DOCKED: USER    (3) Torsional Free Energy           =   +2.98 kcal/mol
DOCKED: USER    (4) Unbound System's Energy  [=(2)] =   -1.95 kcal/mol
DOCKED: USER    
DOCKED: USER    
DOCKED: USER    NEWDPF move heme_O2_opt.pdbqt
DOCKED: USER    NEWDPF about 8.287000 34.468000 -0.670000
DOCKED: USER    NEWDPF tran0 14.300634 3.023034 8.318246
DOCKED: USER    NEWDPF quaternion0 0.712347 0.443440 0.471961 -0.270510
DOCKED: USER    NEWDPF axisangle0 0.739934 0.460613 0.490239 -148.610791
DOCKED: USER    NEWDPF quat0 0.739934 0.460613 0.490239 -148.610791
DOCKED: USER    NEWDPF dihe0 141.45 -59.01 -41.32 33.86 -110.78 4.50 -79.26 -27.80 -164.41 34.93 
DOCKED: USER  keepresnum = 1 
DOCKED: USER  
DOCKED: REMARK  10 active torsions:
DOCKED: REMARK  status: ('A' for Active; 'I' for Inactive)
DOCKED: REMARK    1  A    between atoms: C_6  and  C_10 
DOCKED: REMARK    2  A    between atoms: C_10  and  C_11 
DOCKED: REMARK    3  A    between atoms: C_11  and  C_12 
DOCKED: REMARK    4  A    between atoms: C_12  and  O_14 
DOCKED: REMARK    5  A    between atoms: C_17  and  C_20 
DOCKED: REMARK    6  A    between atoms: C_24  and  C_27 
DOCKED: REMARK    7  A    between atoms: C_31  and  C_34 
DOCKED: REMARK    8  A    between atoms: C_34  and  C_35 
DOCKED: REMARK    9  A    between atoms: C_35  and  C_36 
DOCKED: REMARK   10  A    between atoms: C_36  and  O_38 
DOCKED: USER                              x       y       z     vdW  Elec       q    Type
DOCKED: USER                           _______ _______ _______ _____ _____    ______ ____
DOCKED: ROOT
DOCKED: ATOM      1  C   UNL d   1      13.496   1.060   8.320 -0.23 +0.02    +0.064 A 
DOCKED: ATOM      2  C   UNL d   1      16.041   3.481   5.123 -0.18 +0.02    +0.064 A 
DOCKED: ATOM      3  C   UNL d   1      16.137   7.340   7.985 -0.17 +0.01    +0.064 C 
DOCKED: ATOM      4  C   UNL d   1      13.930   4.701  11.482 -0.24 +0.02    +0.064 A 
DOCKED: ATOM      5  C   UNL d   1      14.182   1.403   7.218 -0.21 +0.01    +0.066 A 
DOCKED: ATOM      6  C   UNL d   1      14.368   0.561   6.118 -0.26 -0.00    -0.021 A 
DOCKED: ATOM      7  C   UNL d   1      15.142   1.245   5.210 -0.24 -0.01    -0.025 A 
DOCKED: ATOM      8  C   UNL d   1      15.366   2.505   5.759 -0.19 +0.01    +0.066 A 
DOCKED: ATOM      9  C   UNL d   1      15.648   0.677   3.902 -0.22 +0.01    +0.051 C 
DOCKED: ATOM     10  C   UNL d   1      16.288   4.829   5.638 -0.12 +0.01    +0.066 A 
DOCKED: ATOM     11  C   UNL d   1      16.851   5.854   4.871 -0.11 -0.00    -0.021 A 
DOCKED: ATOM     12  C   UNL d   1      16.871   6.980   5.673 -0.08 +0.00    +0.000 A 
DOCKED: ATOM     13  C   UNL d   1      16.318   6.565   6.916 -0.10 +0.01    +0.070 A 
DOCKED: ATOM     14  C   UNL d   1      17.325   5.771   3.424 -0.13 +0.03    +0.052 C 
DOCKED: ATOM     15  C   UNL d   1      15.614   6.950   9.272 -0.19 +0.01    +0.066 A 
DOCKED: ATOM     16  C   UNL d   1      15.603   7.768  10.402 -0.21 -0.00    -0.021 A 
DOCKED: ATOM     17  C   UNL d   1      14.979   7.036  11.412 -0.28 +0.00    +0.000 A 
DOCKED: ATOM     18  C   UNL d   1      14.649   5.811  10.814 -0.26 +0.01    +0.070 A 
DOCKED: ATOM     19  C   UNL d   1      16.232   9.138  10.432 -0.08 +0.01    +0.052 C 
DOCKED: ATOM     20  C   UNL d   1      13.636   3.498  10.951 -0.21 +0.02    +0.066 A 
DOCKED: ATOM     21  C   UNL d   1      12.940   2.498  11.624 -0.20 -0.01    -0.025 A 
DOCKED: ATOM     22  C   UNL d   1      12.783   1.463  10.729 -0.17 -0.01    -0.021 A 
DOCKED: ATOM     23  C   UNL d   1      13.408   1.865   9.544 -0.18 +0.02    +0.066 A 
DOCKED: ATOM     24  C   UNL d   1      12.452   2.526  13.049 -0.23 +0.02    +0.051 C 
DOCKED: ATOM     25  N   UNL d   1      14.829   2.578   7.024 +0.06 -0.05    -0.248 N 
DOCKED: ATOM     26  N   UNL d   1      15.970   5.254   6.887 -0.04 -0.04    -0.248 N 
DOCKED: ATOM     27  N   UNL d   1      15.109   5.749   9.538 -0.01 -0.04    -0.248 N 
DOCKED: ATOM     28  N   UNL d   1      13.964   3.084   9.699 +0.01 -0.06    -0.248 N 
DOCKED: ATOM     29 FE   UNL d   1      14.960   4.163   8.305 -0.01 +0.00    +0.000 Fe
DOCKED: ATOM     30  O   UNL d   1      16.313   3.430   8.073 -0.11 +0.00    +0.000 OA
DOCKED: ATOM     31  O   UNL d   1      15.939   3.938   9.516 -0.11 +0.00    +0.000 OA
DOCKED: ENDROOT
DOCKED: BRANCH   6  32
DOCKED: ATOM     32  C   UNL d   1      13.954  -0.881   5.980 -0.10 +0.02    +0.052 C 
DOCKED: BRANCH  32  33
DOCKED: ATOM     33  C   UNL d   1      14.925  -1.844   6.658 -0.13 +0.05    +0.115 C 
DOCKED: BRANCH  33  34
DOCKED: ATOM     34  C   UNL d   1      14.450  -2.271   8.024 -0.09 +0.11    +0.139 C 
DOCKED: ATOM     35  O   UNL d   1      13.879  -3.342   8.157 -0.29 -1.02    -0.650 OA
DOCKED: BRANCH  34  36
DOCKED: ATOM     36  O   UNL d   1      14.618  -1.482   9.106 +0.02 -0.40    -0.776 OA
DOCKED: ATOM     37  H   UNL d   1      13.947  -1.409   9.794 +0.03 +0.10    +0.167 HD
DOCKED: ENDBRANCH  34  36
DOCKED: ENDBRANCH  33  34
DOCKED: ENDBRANCH  32  33
DOCKED: ENDBRANCH   6  32
DOCKED: BRANCH  22  38
DOCKED: ATOM     38  C   UNL d   1      12.125   0.140  11.023 -0.16 +0.02    +0.052 C 
DOCKED: BRANCH  38  39
DOCKED: ATOM     39  C   UNL d   1      11.201  -0.314   9.895 -0.20 +0.08    +0.115 C 
DOCKED: BRANCH  39  40
DOCKED: ATOM     40  C   UNL d   1      11.096  -1.816   9.804 -0.10 +0.17    +0.139 C 
DOCKED: ATOM     41  O   UNL d   1      10.062  -2.329   9.407 -0.30 -1.10    -0.650 OA
DOCKED: BRANCH  40  42
DOCKED: ATOM     42  O   UNL d   1      12.145  -2.606  10.106 -0.18 -1.22    -0.776 OA
DOCKED: ATOM     43  H   UNL d   1      12.995  -2.507   9.662 +0.02 +0.25    +0.167 HD
DOCKED: ENDBRANCH  40  42
DOCKED: ENDBRANCH  39  40
DOCKED: ENDBRANCH  38  39
DOCKED: ENDBRANCH  22  38
DOCKED: BRANCH  12  44
DOCKED: ATOM     44  C   UNL d   1      17.409   8.308   5.182 -0.05 +0.00    +0.004 C 
DOCKED: ATOM     45  C   UNL d   1      16.862   9.515   5.322 -0.05 +0.00    +0.012 C 
DOCKED: ENDBRANCH  12  44
DOCKED: BRANCH  17  46
DOCKED: ATOM     46  C   UNL d   1      14.729   7.364  12.860 -0.27 +0.00    +0.004 C 
DOCKED: ATOM     47  C   UNL d   1      14.588   8.571  13.424 -0.26 +0.00    +0.012 C 
DOCKED: ENDBRANCH  17  46
DOCKED: TORSDOF 10
DOCKED: TER
DOCKED: ENDMDL
________________________________________________________________________________


	BEGINNING GENETIC ALGORITHM DOCKING 44 of 100
Run: 44 Seed: 2074229359 2081469792 [ Run 44 of 100 GA/GALS ]
Beginning LAMARCKIAN GENETIC ALGORITHM (LGA), with a maximum of 25000000 energy evaluations.

Final-Value: -10.155


	FINAL GENETIC ALGORITHM DOCKED STATE
	_______________________________________________


Detailed state:  trans 7.061 -6.675 15.843 quatxyzw -0.441570 -0.633283 -0.601928 0.204084 center 8.287 34.468 -0.670 ntor 10 104.4155 -12.5858 -72.6346 44.7356 -179.9845 -111.0618 -66.6594 -128.6919 172.6627 125.0909
State:	  7.061  -6.675  15.843  -0.451 -0.647 -0.615 156.448    104.42  -12.59  -72.63   44.74 -179.98 -111.06  -66.66 -128.69  172.66  125.09

DOCKED: MODEL       44
DOCKED: USER    Run = 44
DOCKED: USER    DPF = D:/Protein_go_brrr/autodock/final/mut_N102T/heme_O2/dock.dpf
DOCKED: USER  
DOCKED: USER    Estimated Free Energy of Binding    =   -5.01 kcal/mol  [=(1)+(2)+(3)-(4)]
DOCKED: USER    Estimated Inhibition Constant, Ki   =  213.94 uM (micromolar)  [Temperature = 298.15 K]
DOCKED: USER    
DOCKED: USER    (1) Final Intermolecular Energy     =   -7.99 kcal/mol
DOCKED: USER        vdW + Hbond + desolv Energy     =   -6.85 kcal/mol
DOCKED: USER        Electrostatic Energy            =   -1.14 kcal/mol
DOCKED: USER    (2) Final Total Internal Energy     =   -2.17 kcal/mol
DOCKED: USER    (3) Torsional Free Energy           =   +2.98 kcal/mol
DOCKED: USER    (4) Unbound System's Energy  [=(2)] =   -2.17 kcal/mol
DOCKED: USER    
DOCKED: USER    
DOCKED: USER    NEWDPF move heme_O2_opt.pdbqt
DOCKED: USER    NEWDPF about 8.287000 34.468000 -0.670000
DOCKED: USER    NEWDPF tran0 7.061228 -6.675212 15.842557
DOCKED: USER    NEWDPF quaternion0 -0.441570 -0.633283 -0.601928 0.204084
DOCKED: USER    NEWDPF axisangle0 -0.451064 -0.646898 -0.614869 156.448283
DOCKED: USER    NEWDPF quat0 -0.451064 -0.646898 -0.614869 156.448283
DOCKED: USER    NEWDPF dihe0 104.42 -12.59 -72.63 44.74 -179.98 -111.06 -66.66 -128.69 172.66 125.09 
DOCKED: USER  keepresnum = 1 
DOCKED: USER  
DOCKED: REMARK  10 active torsions:
DOCKED: REMARK  status: ('A' for Active; 'I' for Inactive)
DOCKED: REMARK    1  A    between atoms: C_6  and  C_10 
DOCKED: REMARK    2  A    between atoms: C_10  and  C_11 
DOCKED: REMARK    3  A    between atoms: C_11  and  C_12 
DOCKED: REMARK    4  A    between atoms: C_12  and  O_14 
DOCKED: REMARK    5  A    between atoms: C_17  and  C_20 
DOCKED: REMARK    6  A    between atoms: C_24  and  C_27 
DOCKED: REMARK    7  A    between atoms: C_31  and  C_34 
DOCKED: REMARK    8  A    between atoms: C_34  and  C_35 
DOCKED: REMARK    9  A    between atoms: C_35  and  C_36 
DOCKED: REMARK   10  A    between atoms: C_36  and  O_38 
DOCKED: USER                              x       y       z     vdW  Elec       q    Type
DOCKED: USER                           _______ _______ _______ _____ _____    ______ ____
DOCKED: ROOT
DOCKED: ATOM      1  C   UNL d   1       7.603  -8.715  16.053 -0.24 +0.02    +0.064 A 
DOCKED: ATOM      2  C   UNL d   1       9.058  -5.299  13.091 -0.12 +0.02    +0.064 A 
DOCKED: ATOM      3  C   UNL d   1       6.018  -2.152  15.080 -0.23 -0.00    +0.064 C 
DOCKED: ATOM      4  C   UNL d   1       4.856  -5.527  18.446 -0.12 -0.01    +0.064 A 
DOCKED: ATOM      5  C   UNL d   1       8.248  -8.042  15.086 -0.24 +0.02    +0.066 A 
DOCKED: ATOM      6  C   UNL d   1       9.210  -8.610  14.245 -0.14 -0.01    -0.021 A 
DOCKED: ATOM      7  C   UNL d   1       9.663  -7.611  13.416 -0.15 -0.01    -0.025 A 
DOCKED: ATOM      8  C   UNL d   1       8.931  -6.472  13.741 -0.16 +0.02    +0.066 A 
DOCKED: ATOM      9  C   UNL d   1      10.767  -7.769  12.394 -0.12 +0.02    +0.051 C 
DOCKED: ATOM     10  C   UNL d   1       8.302  -4.077  13.372 -0.11 +0.01    +0.066 A 
DOCKED: ATOM     11  C   UNL d   1       8.355  -2.937  12.562 -0.14 -0.01    -0.021 A 
DOCKED: ATOM     12  C   UNL d   1       7.471  -2.025  13.109 -0.20 +0.00    +0.000 A 
DOCKED: ATOM     13  C   UNL d   1       6.926  -2.670  14.254 -0.14 +0.00    +0.070 A 
DOCKED: ATOM     14  C   UNL d   1       9.192  -2.736  11.304 -0.19 +0.03    +0.052 C 
DOCKED: ATOM     15  C   UNL d   1       5.468  -2.759  16.269 -0.15 -0.00    +0.066 A 
DOCKED: ATOM     16  C   UNL d   1       4.644  -2.102  17.182 -0.19 +0.00    -0.021 A 
DOCKED: ATOM     17  C   UNL d   1       4.301  -3.045  18.152 -0.11 -0.00    +0.000 A 
DOCKED: ATOM     18  C   UNL d   1       4.948  -4.222  17.750 -0.10 -0.01    +0.070 A 
DOCKED: ATOM     19  C   UNL d   1       4.307  -0.636  17.080 -0.40 -0.01    +0.052 C 
DOCKED: ATOM     20  C   UNL d   1       5.497  -6.664  18.113 -0.17 -0.01    +0.066 A 
DOCKED: ATOM     21  C   UNL d   1       5.357  -7.868  18.797 -0.12 +0.00    -0.025 A 
DOCKED: ATOM     22  C   UNL d   1       6.112  -8.795  18.113 -0.20 -0.00    -0.021 A 
DOCKED: ATOM     23  C   UNL d   1       6.701  -8.114  17.042 -0.25 +0.01    +0.066 A 
DOCKED: ATOM     24  C   UNL d   1       4.548  -8.121  20.042 -0.12 -0.01    +0.051 C 
DOCKED: ATOM     25  N   UNL d   1       8.106  -6.722  14.813 -0.03 -0.04    -0.248 N 
DOCKED: ATOM     26  N   UNL d   1       7.441  -3.917  14.408 -0.03 -0.03    -0.248 N 
DOCKED: ATOM     27  N   UNL d   1       5.711  -4.010  16.648 -0.05 +0.01    -0.248 N 
DOCKED: ATOM     28  N   UNL d   1       6.360  -6.809  17.073 -0.15 +0.00    -0.248 N 
DOCKED: ATOM     29 FE   UNL d   1       6.895  -5.372  15.752 -0.04 +0.00    +0.000 Fe
DOCKED: ATOM     30  O   UNL d   1       8.414  -5.117  15.978 -0.10 +0.00    +0.000 OA
DOCKED: ATOM     31  O   UNL d   1       7.403  -4.922  17.170 -0.09 +0.00    +0.000 OA
DOCKED: ENDROOT
DOCKED: BRANCH   6  32
DOCKED: ATOM     32  C   UNL d   1       9.783 -10.002  14.307 -0.18 +0.04    +0.052 C 
DOCKED: BRANCH  32  33
DOCKED: ATOM     33  C   UNL d   1      11.185 -10.039  14.908 -0.11 +0.08    +0.115 C 
DOCKED: BRANCH  33  34
DOCKED: ATOM     34  C   UNL d   1      11.214 -10.711  16.258 -0.08 +0.11    +0.139 C 
DOCKED: ATOM     35  O   UNL d   1      10.396 -11.580  16.518 -0.58 -1.05    -0.650 OA
DOCKED: BRANCH  34  36
DOCKED: ATOM     36  O   UNL d   1      12.108 -10.354  17.203 +0.01 -0.29    -0.776 OA
DOCKED: ATOM     37  H   UNL d   1      11.859  -9.822  17.968 +0.01 +0.04    +0.167 HD
DOCKED: ENDBRANCH  34  36
DOCKED: ENDBRANCH  33  34
DOCKED: ENDBRANCH  32  33
DOCKED: ENDBRANCH   6  32
DOCKED: BRANCH  22  38
DOCKED: ATOM     38  C   UNL d   1       6.303 -10.236  18.508 -0.22 +0.01    +0.052 C 
DOCKED: BRANCH  38  39
DOCKED: ATOM     39  C   UNL d   1       7.768 -10.665  18.453 -0.15 +0.04    +0.115 C 
DOCKED: BRANCH  39  40
DOCKED: ATOM     40  C   UNL d   1       8.676  -9.710  19.186 -0.05 +0.03    +0.139 C 
DOCKED: ATOM     41  O   UNL d   1       8.273  -9.135  20.184 +0.02 -0.05    -0.650 OA
DOCKED: BRANCH  40  42
DOCKED: ATOM     42  O   UNL d   1       9.948  -9.516  18.788 +0.03 -0.17    -0.776 OA
DOCKED: ATOM     43  H   UNL d   1      10.359 -10.077  18.119 +0.02 +0.06    +0.167 HD
DOCKED: ENDBRANCH  40  42
DOCKED: ENDBRANCH  39  40
DOCKED: ENDBRANCH  38  39
DOCKED: ENDBRANCH  22  38
DOCKED: BRANCH  12  44
DOCKED: ATOM     44  C   UNL d   1       7.246  -0.658  12.497 -0.39 +0.00    +0.004 C 
DOCKED: ATOM     45  C   UNL d   1       6.214  -0.252  11.758 -0.28 +0.00    +0.012 C 
DOCKED: ENDBRANCH  12  44
DOCKED: BRANCH  17  46
DOCKED: ATOM     46  C   UNL d   1       3.489  -2.915  19.413 -0.09 -0.00    +0.004 C 
DOCKED: ATOM     47  C   UNL d   1       2.384  -2.184  19.615 -0.17 -0.01    +0.012 C 
DOCKED: ENDBRANCH  17  46
DOCKED: TORSDOF 10
DOCKED: TER
DOCKED: ENDMDL
________________________________________________________________________________


	BEGINNING GENETIC ALGORITHM DOCKING 45 of 100
Run: 45 Seed: 966777187 479792261 [ Run 45 of 100 GA/GALS ]
Beginning LAMARCKIAN GENETIC ALGORITHM (LGA), with a maximum of 25000000 energy evaluations.

Final-Value: -10.658


	FINAL GENETIC ALGORITHM DOCKED STATE
	_______________________________________________


Detailed state:  trans 6.890 -1.497 14.952 quatxyzw 0.418004 -0.272997 0.866196 0.021220 center 8.287 34.468 -0.670 ntor 10 62.3287 -172.0967 -48.7881 124.5932 -147.7263 137.5227 -54.5522 -46.1841 -177.5265 -136.5842
State:	  6.890  -1.497  14.952   0.418 -0.273  0.866 177.568     62.33 -172.10  -48.79  124.59 -147.73  137.52  -54.55  -46.18 -177.53 -136.58

DOCKED: MODEL       45
DOCKED: USER    Run = 45
DOCKED: USER    DPF = D:/Protein_go_brrr/autodock/final/mut_N102T/heme_O2/dock.dpf
DOCKED: USER  
DOCKED: USER    Estimated Free Energy of Binding    =   -7.33 kcal/mol  [=(1)+(2)+(3)-(4)]
DOCKED: USER    Estimated Inhibition Constant, Ki   =    4.24 uM (micromolar)  [Temperature = 298.15 K]
DOCKED: USER    
DOCKED: USER    (1) Final Intermolecular Energy     =  -10.31 kcal/mol
DOCKED: USER        vdW + Hbond + desolv Energy     =   -8.39 kcal/mol
DOCKED: USER        Electrostatic Energy            =   -1.92 kcal/mol
DOCKED: USER    (2) Final Total Internal Energy     =   -0.35 kcal/mol
DOCKED: USER    (3) Torsional Free Energy           =   +2.98 kcal/mol
DOCKED: USER    (4) Unbound System's Energy  [=(2)] =   -0.35 kcal/mol
DOCKED: USER    
DOCKED: USER    
DOCKED: USER    NEWDPF move heme_O2_opt.pdbqt
DOCKED: USER    NEWDPF about 8.287000 34.468000 -0.670000
DOCKED: USER    NEWDPF tran0 6.890423 -1.496975 14.952024
DOCKED: USER    NEWDPF quaternion0 0.418004 -0.272997 0.866196 0.021220
DOCKED: USER    NEWDPF axisangle0 0.418098 -0.273058 0.866391 177.568128
DOCKED: USER    NEWDPF quat0 0.418098 -0.273058 0.866391 177.568128
DOCKED: USER    NEWDPF dihe0 62.33 -172.10 -48.79 124.59 -147.73 137.52 -54.55 -46.18 -177.53 -136.58 
DOCKED: USER  keepresnum = 1 
DOCKED: USER  
DOCKED: REMARK  10 active torsions:
DOCKED: REMARK  status: ('A' for Active; 'I' for Inactive)
DOCKED: REMARK    1  A    between atoms: C_6  and  C_10 
DOCKED: REMARK    2  A    between atoms: C_10  and  C_11 
DOCKED: REMARK    3  A    between atoms: C_11  and  C_12 
DOCKED: REMARK    4  A    between atoms: C_12  and  O_14 
DOCKED: REMARK    5  A    between atoms: C_17  and  C_20 
DOCKED: REMARK    6  A    between atoms: C_24  and  C_27 
DOCKED: REMARK    7  A    between atoms: C_31  and  C_34 
DOCKED: REMARK    8  A    between atoms: C_34  and  C_35 
DOCKED: REMARK    9  A    between atoms: C_35  and  C_36 
DOCKED: REMARK   10  A    between atoms: C_36  and  O_38 
DOCKED: USER                              x       y       z     vdW  Elec       q    Type
DOCKED: USER                           _______ _______ _______ _____ _____    ______ ____
DOCKED: ROOT
DOCKED: ATOM      1  C   UNL d   1       7.401  -1.149  12.923 -0.25 +0.01    +0.064 A 
DOCKED: ATOM      2  C   UNL d   1       9.888  -0.830  16.957 -0.02 +0.02    +0.064 A 
DOCKED: ATOM      3  C   UNL d   1       6.041  -2.113  19.537 -0.06 -0.01    +0.064 C 
DOCKED: ATOM      4  C   UNL d   1       3.603  -2.908  15.355 -0.25 -0.01    +0.064 A 
DOCKED: ATOM      5  C   UNL d   1       8.392  -0.959  13.810 -0.18 +0.01    +0.066 A 
DOCKED: ATOM      6  C   UNL d   1       9.683  -0.550  13.465 -0.17 -0.01    -0.021 A 
DOCKED: ATOM      7  C   UNL d   1      10.416  -0.499  14.628 -0.11 -0.01    -0.025 A 
DOCKED: ATOM      8  C   UNL d   1       9.539  -0.832  15.656 -0.01 +0.02    +0.066 A 
DOCKED: ATOM      9  C   UNL d   1      11.891  -0.173  14.707 -0.06 +0.01    +0.051 C 
DOCKED: ATOM     10  C   UNL d   1       9.006  -1.147  18.082 -0.07 +0.01    +0.066 A 
DOCKED: ATOM     11  C   UNL d   1       9.373  -0.971  19.421 -0.05 -0.00    -0.021 A 
DOCKED: ATOM     12  C   UNL d   1       8.271  -1.319  20.180 -0.06 +0.00    +0.000 A 
DOCKED: ATOM     13  C   UNL d   1       7.276  -1.708  19.240 -0.07 +0.00    +0.070 A 
DOCKED: ATOM     14  C   UNL d   1      10.709  -0.466  19.952 -0.04 +0.01    +0.052 C 
DOCKED: ATOM     15  C   UNL d   1       5.017  -2.548  18.619 -0.06 -0.01    +0.066 A 
DOCKED: ATOM     16  C   UNL d   1       3.802  -3.116  19.000 -0.07 +0.00    -0.021 A 
DOCKED: ATOM     17  C   UNL d   1       3.090  -3.352  17.824 -0.17 -0.00    +0.000 A 
DOCKED: ATOM     18  C   UNL d   1       3.935  -2.903  16.800 -0.20 -0.01    +0.070 A 
DOCKED: ATOM     19  C   UNL d   1       3.456  -3.430  20.434 -0.04 -0.01    +0.052 C 
DOCKED: ATOM     20  C   UNL d   1       4.406  -2.525  14.344 -0.25 -0.01    +0.066 A 
DOCKED: ATOM     21  C   UNL d   1       4.031  -2.536  13.003 -0.40 +0.00    -0.025 A 
DOCKED: ATOM     22  C   UNL d   1       5.091  -2.012  12.298 -0.39 +0.00    -0.021 A 
DOCKED: ATOM     23  C   UNL d   1       6.085  -1.717  13.236 -0.28 -0.00    +0.066 A 
DOCKED: ATOM     24  C   UNL d   1       2.729  -3.025  12.424 -0.53 -0.00    +0.051 C 
DOCKED: ATOM     25  N   UNL d   1       8.310  -1.179  15.145 -0.09 -0.05    -0.248 N 
DOCKED: ATOM     26  N   UNL d   1       7.733  -1.605  17.967 -0.06 -0.03    -0.248 N 
DOCKED: ATOM     27  N   UNL d   1       5.129  -2.488  17.295 -0.06 +0.03    -0.248 N 
DOCKED: ATOM     28  N   UNL d   1       5.681  -2.072  14.474 -0.14 +0.02    -0.248 N 
DOCKED: ATOM     29 FE   UNL d   1       6.698  -1.841  16.209 -0.04 +0.00    +0.000 Fe
DOCKED: ATOM     30  O   UNL d   1       7.878  -2.855  16.159 -0.09 +0.00    +0.000 OA
DOCKED: ATOM     31  O   UNL d   1       6.395  -3.375  16.039 -0.14 +0.00    +0.000 OA
DOCKED: ENDROOT
DOCKED: BRANCH   6  32
DOCKED: ATOM     32  C   UNL d   1      10.249  -0.347  12.083 -0.22 +0.02    +0.052 C 
DOCKED: BRANCH  32  33
DOCKED: ATOM     33  C   UNL d   1      10.964  -1.584  11.548 -0.13 +0.06    +0.115 C 
DOCKED: BRANCH  33  34
DOCKED: ATOM     34  C   UNL d   1      10.392  -2.054  10.233 -0.12 +0.16    +0.139 C 
DOCKED: ATOM     35  O   UNL d   1      10.428  -1.317   9.261 -0.33 -0.75    -0.650 OA
DOCKED: BRANCH  34  36
DOCKED: ATOM     36  O   UNL d   1       9.814  -3.267  10.111 -0.42 -1.26    -0.776 OA
DOCKED: ATOM     37  H   UNL d   1       9.021  -3.507  10.604 +0.05 +0.15    +0.167 HD
DOCKED: ENDBRANCH  34  36
DOCKED: ENDBRANCH  33  34
DOCKED: ENDBRANCH  32  33
DOCKED: ENDBRANCH   6  32
DOCKED: BRANCH  22  38
DOCKED: ATOM     38  C   UNL d   1       5.164  -1.867  10.800 -0.30 +0.00    +0.052 C 
DOCKED: BRANCH  38  39
DOCKED: ATOM     39  C   UNL d   1       4.452  -3.005  10.070 -0.40 +0.01    +0.115 C 
DOCKED: BRANCH  39  40
DOCKED: ATOM     40  C   UNL d   1       3.543  -2.507   8.975 -0.37 +0.03    +0.139 C 
DOCKED: ATOM     41  O   UNL d   1       2.451  -2.041   9.259 -0.05 -0.06    -0.650 OA
DOCKED: BRANCH  40  42
DOCKED: ATOM     42  O   UNL d   1       3.934  -2.519   7.686 -0.98 -0.30    -0.776 OA
DOCKED: ATOM     43  H   UNL d   1       3.427  -2.067   7.000 +0.10 +0.04    +0.167 HD
DOCKED: ENDBRANCH  40  42
DOCKED: ENDBRANCH  39  40
DOCKED: ENDBRANCH  38  39
DOCKED: ENDBRANCH  22  38
DOCKED: BRANCH  12  44
DOCKED: ATOM     44  C   UNL d   1       8.282  -1.249  21.692 -0.03 -0.00    +0.004 C 
DOCKED: ATOM     45  C   UNL d   1       7.418  -0.621  22.489 -0.04 -0.00    +0.012 C 
DOCKED: ENDBRANCH  12  44
DOCKED: BRANCH  17  46
DOCKED: ATOM     46  C   UNL d   1       1.750  -3.998  17.593 -0.30 -0.00    +0.004 C 
DOCKED: ATOM     47  C   UNL d   1       0.648  -3.452  17.064 -0.42 -0.00    +0.012 C 
DOCKED: ENDBRANCH  17  46
DOCKED: TORSDOF 10
DOCKED: TER
DOCKED: ENDMDL
________________________________________________________________________________


	BEGINNING GENETIC ALGORITHM DOCKING 46 of 100
Run: 46 Seed: 371331410 964680372 [ Run 46 of 100 GA/GALS ]
Beginning LAMARCKIAN GENETIC ALGORITHM (LGA), with a maximum of 25000000 energy evaluations.

Final-Value: -9.901


	FINAL GENETIC ALGORITHM DOCKED STATE
	_______________________________________________


Detailed state:  trans -11.582 3.347 10.771 quatxyzw 0.339991 0.021666 -0.651935 0.677435 center 8.287 34.468 -0.670 ntor 10 16.9417 -111.2788 24.0936 31.7762 125.1135 142.6747 -80.4108 146.6826 0.8747 -180.0000
State:	-11.582   3.347  10.771   0.462  0.029 -0.886 94.713     16.94 -111.28   24.09   31.78  125.11  142.67  -80.41  146.68    0.87 -180.00

DOCKED: MODEL       46
DOCKED: USER    Run = 46
DOCKED: USER    DPF = D:/Protein_go_brrr/autodock/final/mut_N102T/heme_O2/dock.dpf
DOCKED: USER  
DOCKED: USER    Estimated Free Energy of Binding    =   -6.12 kcal/mol  [=(1)+(2)+(3)-(4)]
DOCKED: USER    Estimated Inhibition Constant, Ki   =   32.76 uM (micromolar)  [Temperature = 298.15 K]
DOCKED: USER    
DOCKED: USER    (1) Final Intermolecular Energy     =   -9.10 kcal/mol
DOCKED: USER        vdW + Hbond + desolv Energy     =   -8.48 kcal/mol
DOCKED: USER        Electrostatic Energy            =   -0.62 kcal/mol
DOCKED: USER    (2) Final Total Internal Energy     =   -0.80 kcal/mol
DOCKED: USER    (3) Torsional Free Energy           =   +2.98 kcal/mol
DOCKED: USER    (4) Unbound System's Energy  [=(2)] =   -0.80 kcal/mol
DOCKED: USER    
DOCKED: USER    
DOCKED: USER    NEWDPF move heme_O2_opt.pdbqt
DOCKED: USER    NEWDPF about 8.287000 34.468000 -0.670000
DOCKED: USER    NEWDPF tran0 -11.582342 3.346737 10.770985
DOCKED: USER    NEWDPF quaternion0 0.339991 0.021666 -0.651935 0.677435
DOCKED: USER    NEWDPF axisangle0 0.462206 0.029454 -0.886283 94.712984
DOCKED: USER    NEWDPF quat0 0.462206 0.029454 -0.886283 94.712984
DOCKED: USER    NEWDPF dihe0 16.94 -111.28 24.09 31.78 125.11 142.67 -80.41 146.68 0.87 -180.00 
DOCKED: USER  keepresnum = 1 
DOCKED: USER  
DOCKED: REMARK  10 active torsions:
DOCKED: REMARK  status: ('A' for Active; 'I' for Inactive)
DOCKED: REMARK    1  A    between atoms: C_6  and  C_10 
DOCKED: REMARK    2  A    between atoms: C_10  and  C_11 
DOCKED: REMARK    3  A    between atoms: C_11  and  C_12 
DOCKED: REMARK    4  A    between atoms: C_12  and  O_14 
DOCKED: REMARK    5  A    between atoms: C_17  and  C_20 
DOCKED: REMARK    6  A    between atoms: C_24  and  C_27 
DOCKED: REMARK    7  A    between atoms: C_31  and  C_34 
DOCKED: REMARK    8  A    between atoms: C_34  and  C_35 
DOCKED: REMARK    9  A    between atoms: C_35  and  C_36 
DOCKED: REMARK   10  A    between atoms: C_36  and  O_38 
DOCKED: USER                              x       y       z     vdW  Elec       q    Type
DOCKED: USER                           _______ _______ _______ _____ _____    ______ ____
DOCKED: ROOT
DOCKED: ATOM      1  C   UNL d   1     -12.006   1.273  10.636 -0.21 -0.01    +0.064 A 
DOCKED: ATOM      2  C   UNL d   1     -11.214   4.152  14.330 -0.13 +0.01    +0.064 A 
DOCKED: ATOM      3  C   UNL d   1     -10.555   7.895  11.388 -0.32 +0.00    +0.064 C 
DOCKED: ATOM      4  C   UNL d   1     -11.838   5.045   7.607 -0.17 -0.00    +0.064 A 
DOCKED: ATOM      5  C   UNL d   1     -11.846   1.751  11.881 -0.20 -0.00    +0.066 A 
DOCKED: ATOM      6  C   UNL d   1     -11.933   0.970  13.037 -0.16 -0.00    -0.021 A 
DOCKED: ATOM      7  C   UNL d   1     -11.747   1.810  14.109 -0.14 -0.00    -0.025 A 
DOCKED: ATOM      8  C   UNL d   1     -11.503   3.074  13.577 -0.15 +0.00    +0.066 A 
DOCKED: ATOM      9  C   UNL d   1     -11.836   1.394  15.561 -0.08 +0.01    +0.051 C 
DOCKED: ATOM     10  C   UNL d   1     -10.927   5.497  13.828 -0.03 +0.01    +0.066 A 
DOCKED: ATOM     11  C   UNL d   1     -10.473   6.541  14.641 -0.18 -0.00    -0.021 A 
DOCKED: ATOM     12  C   UNL d   1     -10.260   7.624  13.808 -0.25 +0.00    +0.000 A 
DOCKED: ATOM     13  C   UNL d   1     -10.616   7.172  12.507 -0.27 +0.00    +0.070 A 
DOCKED: ATOM     14  C   UNL d   1     -10.226   6.499  16.144 -0.12 +0.00    +0.052 C 
DOCKED: ATOM     15  C   UNL d   1     -10.939   7.486  10.059 -0.29 -0.00    +0.066 A 
DOCKED: ATOM     16  C   UNL d   1     -11.007   8.340   8.958 -0.26 +0.00    -0.021 A 
DOCKED: ATOM     17  C   UNL d   1     -11.372   7.549   7.868 -0.28 -0.00    +0.000 A 
DOCKED: ATOM     18  C   UNL d   1     -11.499   6.255   8.393 -0.24 -0.00    +0.070 A 
DOCKED: ATOM     19  C   UNL d   1     -10.774   9.827   9.055 -0.22 -0.01    +0.052 C 
DOCKED: ATOM     20  C   UNL d   1     -12.010   3.798   8.085 -0.24 -0.00    +0.066 A 
DOCKED: ATOM     21  C   UNL d   1     -12.312   2.693   7.293 -0.22 +0.00    -0.025 A 
DOCKED: ATOM     22  C   UNL d   1     -12.337   1.605   8.136 -0.21 +0.00    -0.021 A 
DOCKED: ATOM     23  C   UNL d   1     -12.066   2.090   9.419 -0.21 -0.01    +0.066 A 
DOCKED: ATOM     24  C   UNL d   1     -12.567   2.678   5.809 -0.22 -0.00    +0.051 C 
DOCKED: ATOM     25  N   UNL d   1     -11.629   3.049  12.207 -0.09 +0.00    -0.248 N 
DOCKED: ATOM     26  N   UNL d   1     -11.025   5.878  12.529 -0.10 -0.02    -0.248 N 
DOCKED: ATOM     27  N   UNL d   1     -11.306   6.249   9.736 -0.17 +0.00    -0.248 N 
DOCKED: ATOM     28  N   UNL d   1     -11.913   3.430   9.390 -0.16 +0.02    -0.248 N 
DOCKED: ATOM     29 FE   UNL d   1     -11.472   4.648  10.946 -0.06 -0.00    +0.000 Fe
DOCKED: ATOM     30  O   UNL d   1     -12.742   4.680  11.846 -0.15 -0.00    +0.000 OA
DOCKED: ATOM     31  O   UNL d   1     -12.840   5.132  10.341 -0.15 -0.00    +0.000 OA
DOCKED: ENDROOT
DOCKED: BRANCH   6  32
DOCKED: ATOM     32  C   UNL d   1     -12.313  -0.485  13.142 -0.09 -0.00    +0.052 C 
DOCKED: BRANCH  32  33
DOCKED: ATOM     33  C   UNL d   1     -11.132  -1.423  12.917 -0.20 -0.02    +0.115 C 
DOCKED: BRANCH  33  34
DOCKED: ATOM     34  C   UNL d   1     -10.516  -1.893  14.211 -0.16 +0.04    +0.139 C 
DOCKED: ATOM     35  O   UNL d   1     -10.622  -1.206  15.215 -0.38 -0.39    -0.650 OA
DOCKED: BRANCH  34  36
DOCKED: ATOM     36  O   UNL d   1      -9.823  -3.048  14.282 -0.54 -0.23    -0.776 OA
DOCKED: ATOM     37  H   UNL d   1      -9.485  -3.490  13.494 -0.31 -0.09    +0.167 HD
DOCKED: ENDBRANCH  34  36
DOCKED: ENDBRANCH  33  34
DOCKED: ENDBRANCH  32  33
DOCKED: ENDBRANCH   6  32
DOCKED: BRANCH  22  38
DOCKED: ATOM     38  C   UNL d   1     -12.667   0.190   7.734 -0.19 -0.02    +0.052 C 
DOCKED: BRANCH  38  39
DOCKED: ATOM     39  C   UNL d   1     -14.168  -0.031   7.565 -0.06 -0.03    +0.115 C 
DOCKED: BRANCH  39  40
DOCKED: ATOM     40  C   UNL d   1     -14.984   0.780   8.540 -0.01 -0.02    +0.139 C 
DOCKED: ATOM     41  O   UNL d   1     -15.011   0.464   9.719 +0.02 +0.08    -0.650 OA
DOCKED: BRANCH  40  42
DOCKED: ATOM     42  O   UNL d   1     -15.647   1.884   8.143 +0.02 +0.07    -0.776 OA
DOCKED: ATOM     43  H   UNL d   1     -15.357   2.767   8.400 +0.01 -0.01    +0.167 HD
DOCKED: ENDBRANCH  40  42
DOCKED: ENDBRANCH  39  40
DOCKED: ENDBRANCH  38  39
DOCKED: ENDBRANCH  22  38
DOCKED: BRANCH  12  44
DOCKED: ATOM     44  C   UNL d   1      -9.752   8.952  14.330 -0.21 +0.00    +0.004 C 
DOCKED: ATOM     45  C   UNL d   1      -9.839  10.147  13.748 -0.16 +0.00    +0.012 C 
DOCKED: ENDBRANCH  12  44
DOCKED: BRANCH  17  46
DOCKED: ATOM     46  C   UNL d   1     -11.658   7.913   6.436 -0.25 -0.00    +0.004 C 
DOCKED: ATOM     47  C   UNL d   1     -11.210   8.969   5.744 -0.28 -0.00    +0.012 C 
DOCKED: ENDBRANCH  17  46
DOCKED: TORSDOF 10
DOCKED: TER
DOCKED: ENDMDL
________________________________________________________________________________


	BEGINNING GENETIC ALGORITHM DOCKING 47 of 100
Run: 47 Seed: 1880331220 472734852 [ Run 47 of 100 GA/GALS ]
Beginning LAMARCKIAN GENETIC ALGORITHM (LGA), with a maximum of 25000000 energy evaluations.

Final-Value: -9.477


	FINAL GENETIC ALGORITHM DOCKED STATE
	_______________________________________________


Detailed state:  trans -11.755 5.773 10.336 quatxyzw -0.619044 -0.681552 0.088642 0.380020 center 8.287 34.468 -0.670 ntor 10 63.5415 92.4797 45.8878 -111.0581 -110.5485 93.9915 -20.3299 26.3089 176.8271 176.1006
State:	-11.755   5.773  10.336  -0.669 -0.737  0.096 135.330     63.54   92.48   45.89 -111.06 -110.55   93.99  -20.33   26.31  176.83  176.10

DOCKED: MODEL       47
DOCKED: USER    Run = 47
DOCKED: USER    DPF = D:/Protein_go_brrr/autodock/final/mut_N102T/heme_O2/dock.dpf
DOCKED: USER  
DOCKED: USER    Estimated Free Energy of Binding    =   -4.94 kcal/mol  [=(1)+(2)+(3)-(4)]
DOCKED: USER    Estimated Inhibition Constant, Ki   =  239.85 uM (micromolar)  [Temperature = 298.15 K]
DOCKED: USER    
DOCKED: USER    (1) Final Intermolecular Energy     =   -7.92 kcal/mol
DOCKED: USER        vdW + Hbond + desolv Energy     =   -7.34 kcal/mol
DOCKED: USER        Electrostatic Energy            =   -0.58 kcal/mol
DOCKED: USER    (2) Final Total Internal Energy     =   -1.56 kcal/mol
DOCKED: USER    (3) Torsional Free Energy           =   +2.98 kcal/mol
DOCKED: USER    (4) Unbound System's Energy  [=(2)] =   -1.56 kcal/mol
DOCKED: USER    
DOCKED: USER    
DOCKED: USER    NEWDPF move heme_O2_opt.pdbqt
DOCKED: USER    NEWDPF about 8.287000 34.468000 -0.670000
DOCKED: USER    NEWDPF tran0 -11.755171 5.772550 10.335708
DOCKED: USER    NEWDPF quaternion0 -0.619044 -0.681552 0.088642 0.380020
DOCKED: USER    NEWDPF axisangle0 -0.669252 -0.736830 0.095832 135.330197
DOCKED: USER    NEWDPF quat0 -0.669252 -0.736830 0.095832 135.330197
DOCKED: USER    NEWDPF dihe0 63.54 92.48 45.89 -111.06 -110.55 93.99 -20.33 26.31 176.83 176.10 
DOCKED: USER  keepresnum = 1 
DOCKED: USER  
DOCKED: REMARK  10 active torsions:
DOCKED: REMARK  status: ('A' for Active; 'I' for Inactive)
DOCKED: REMARK    1  A    between atoms: C_6  and  C_10 
DOCKED: REMARK    2  A    between atoms: C_10  and  C_11 
DOCKED: REMARK    3  A    between atoms: C_11  and  C_12 
DOCKED: REMARK    4  A    between atoms: C_12  and  O_14 
DOCKED: REMARK    5  A    between atoms: C_17  and  C_20 
DOCKED: REMARK    6  A    between atoms: C_24  and  C_27 
DOCKED: REMARK    7  A    between atoms: C_31  and  C_34 
DOCKED: REMARK    8  A    between atoms: C_34  and  C_35 
DOCKED: REMARK    9  A    between atoms: C_35  and  C_36 
DOCKED: REMARK   10  A    between atoms: C_36  and  O_38 
DOCKED: USER                              x       y       z     vdW  Elec       q    Type
DOCKED: USER                           _______ _______ _______ _____ _____    ______ ____
DOCKED: ROOT
DOCKED: ATOM      1  C   UNL d   1     -11.637   4.925  12.276 +0.05 +0.00    +0.064 A 
DOCKED: ATOM      2  C   UNL d   1     -12.543   3.051   8.007 -0.18 -0.00    +0.064 A 
DOCKED: ATOM      3  C   UNL d   1     -12.162   7.368   5.929 -0.16 -0.00    +0.064 C 
DOCKED: ATOM      4  C   UNL d   1     -10.757   9.230  10.245 -0.19 -0.00    +0.064 A 
DOCKED: ATOM      5  C   UNL d   1     -11.912   4.063  11.285 -0.07 -0.00    +0.066 A 
DOCKED: ATOM      6  C   UNL d   1     -12.125   2.694  11.474 -0.19 +0.00    -0.021 A 
DOCKED: ATOM      7  C   UNL d   1     -12.345   2.143  10.233 -0.20 +0.00    -0.025 A 
DOCKED: ATOM      8  C   UNL d   1     -12.308   3.198   9.325 -0.18 -0.01    +0.066 A 
DOCKED: ATOM      9  C   UNL d   1     -12.546   0.668   9.964 -0.17 -0.01    +0.051 C 
DOCKED: ATOM     10  C   UNL d   1     -12.541   4.123   7.011 -0.17 -0.00    +0.066 A 
DOCKED: ATOM     11  C   UNL d   1     -12.952   3.942   5.685 -0.14 +0.00    -0.021 A 
DOCKED: ATOM     12  C   UNL d   1     -12.866   5.180   5.075 -0.13 +0.00    +0.000 A 
DOCKED: ATOM     13  C   UNL d   1     -12.386   6.062   6.081 +0.01 -0.00    +0.070 A 
DOCKED: ATOM     14  C   UNL d   1     -13.432   2.649   5.036 -0.13 -0.00    +0.052 C 
DOCKED: ATOM     15  C   UNL d   1     -11.643   8.288   6.913 -0.20 -0.01    +0.066 A 
DOCKED: ATOM     16  C   UNL d   1     -11.276   9.606   6.645 -0.20 +0.00    -0.021 A 
DOCKED: ATOM     17  C   UNL d   1     -10.872  10.157   7.861 -0.09 -0.00    +0.000 A 
DOCKED: ATOM     18  C   UNL d   1     -11.026   9.120   8.792 -0.19 -0.01    +0.070 A 
DOCKED: ATOM     19  C   UNL d   1     -11.292  10.200   5.259 -0.19 -0.00    +0.052 C 
DOCKED: ATOM     20  C   UNL d   1     -10.853   8.244  11.158 -0.22 +0.00    +0.066 A 
DOCKED: ATOM     21  C   UNL d   1     -10.604   8.412  12.517 -0.22 -0.00    -0.025 A 
DOCKED: ATOM     22  C   UNL d   1     -10.876   7.203  13.116 -0.22 -0.00    -0.021 A 
DOCKED: ATOM     23  C   UNL d   1     -11.265   6.333  12.093 -0.18 +0.00    +0.066 A 
DOCKED: ATOM     24  C   UNL d   1     -10.127   9.663  13.209 -0.17 +0.00    +0.051 C 
DOCKED: ATOM     25  N   UNL d   1     -11.977   4.370   9.966 -0.13 +0.01    -0.248 N 
DOCKED: ATOM     26  N   UNL d   1     -12.186   5.410   7.255 -0.12 +0.00    -0.248 N 
DOCKED: ATOM     27  N   UNL d   1     -11.423   7.972   8.186 -0.16 +0.03    -0.248 N 
DOCKED: ATOM     28  N   UNL d   1     -11.206   6.957  10.899 -0.15 -0.00    -0.248 N 
DOCKED: ATOM     29 FE   UNL d   1     -11.692   6.192   9.089 -0.05 -0.00    +0.000 Fe
DOCKED: ATOM     30  O   UNL d   1     -10.587   5.150   8.747 -0.52 +0.00    +0.000 OA
DOCKED: ATOM     31  O   UNL d   1     -10.189   6.650   9.019 -0.55 -0.00    +0.000 OA
DOCKED: ENDROOT
DOCKED: BRANCH   6  32
DOCKED: ATOM     32  C   UNL d   1     -11.992   1.907  12.752 -0.20 -0.00    +0.052 C 
DOCKED: BRANCH  32  33
DOCKED: ATOM     33  C   UNL d   1     -10.663   1.165  12.854 -0.22 +0.01    +0.115 C 
DOCKED: BRANCH  33  34
DOCKED: ATOM     34  C   UNL d   1     -10.292   0.844  14.281 -0.27 +0.05    +0.139 C 
DOCKED: ATOM     35  O   UNL d   1     -10.518  -0.269  14.727 -0.16 -0.31    -0.650 OA
DOCKED: BRANCH  34  36
DOCKED: ATOM     36  O   UNL d   1      -9.738   1.772  15.089 -0.00 -0.31    -0.776 OA
DOCKED: ATOM     37  H   UNL d   1     -10.211   2.571  15.348 +0.05 +0.04    +0.167 HD
DOCKED: ENDBRANCH  34  36
DOCKED: ENDBRANCH  33  34
DOCKED: ENDBRANCH  32  33
DOCKED: ENDBRANCH   6  32
DOCKED: BRANCH  22  38
DOCKED: ATOM     38  C   UNL d   1     -10.706   6.890  14.580 -0.17 +0.00    +0.052 C 
DOCKED: BRANCH  38  39
DOCKED: ATOM     39  C   UNL d   1      -9.263   6.543  14.938 -0.18 +0.01    +0.115 C 
DOCKED: BRANCH  39  40
DOCKED: ATOM     40  C   UNL d   1      -9.167   5.674  16.167 -0.12 +0.01    +0.139 C 
DOCKED: ATOM     41  O   UNL d   1      -8.528   6.060  17.133 +0.02 -0.02    -0.650 OA
DOCKED: BRANCH  40  42
DOCKED: ATOM     42  O   UNL d   1      -9.817   4.497  16.240 +0.06 -0.10    -0.776 OA
DOCKED: ATOM     43  H   UNL d   1      -9.382   3.665  16.018 +0.05 +0.04    +0.167 HD
DOCKED: ENDBRANCH  40  42
DOCKED: ENDBRANCH  39  40
DOCKED: ENDBRANCH  38  39
DOCKED: ENDBRANCH  22  38
DOCKED: BRANCH  12  44
DOCKED: ATOM     44  C   UNL d   1     -13.240   5.387   3.622 -0.13 +0.00    +0.004 C 
DOCKED: ATOM     45  C   UNL d   1     -12.607   6.124   2.710 -0.15 +0.00    +0.012 C 
DOCKED: ENDBRANCH  12  44
DOCKED: BRANCH  17  46
DOCKED: ATOM     46  C   UNL d   1     -10.316  11.516   8.194 -0.22 -0.00    +0.004 C 
DOCKED: ATOM     47  C   UNL d   1      -9.115  11.818   8.704 -0.31 -0.00    +0.012 C 
DOCKED: ENDBRANCH  17  46
DOCKED: TORSDOF 10
DOCKED: TER
DOCKED: ENDMDL
________________________________________________________________________________


	BEGINNING GENETIC ALGORITHM DOCKING 48 of 100
Run: 48 Seed: 1301167065 342402856 [ Run 48 of 100 GA/GALS ]
Beginning LAMARCKIAN GENETIC ALGORITHM (LGA), with a maximum of 25000000 energy evaluations.

Final-Value: -10.009


	FINAL GENETIC ALGORITHM DOCKED STATE
	_______________________________________________


Detailed state:  trans -8.494 -6.916 13.974 quatxyzw -0.211826 0.767903 -0.303950 -0.522560 center 8.287 34.468 -0.670 ntor 10 137.9959 135.3069 -10.8969 -94.2526 -78.2909 -89.5935 79.5491 -66.7984 25.5671 -6.6662
State:	 -8.494  -6.916  13.974  -0.248  0.901 -0.356 -116.992    138.00  135.31  -10.90  -94.25  -78.29  -89.59   79.55  -66.80   25.57   -6.67

DOCKED: MODEL       48
DOCKED: USER    Run = 48
DOCKED: USER    DPF = D:/Protein_go_brrr/autodock/final/mut_N102T/heme_O2/dock.dpf
DOCKED: USER  
DOCKED: USER    Estimated Free Energy of Binding    =   -4.48 kcal/mol  [=(1)+(2)+(3)-(4)]
DOCKED: USER    Estimated Inhibition Constant, Ki   =  517.71 uM (micromolar)  [Temperature = 298.15 K]
DOCKED: USER    
DOCKED: USER    (1) Final Intermolecular Energy     =   -7.47 kcal/mol
DOCKED: USER        vdW + Hbond + desolv Energy     =   -6.93 kcal/mol
DOCKED: USER        Electrostatic Energy            =   -0.54 kcal/mol
DOCKED: USER    (2) Final Total Internal Energy     =   -2.54 kcal/mol
DOCKED: USER    (3) Torsional Free Energy           =   +2.98 kcal/mol
DOCKED: USER    (4) Unbound System's Energy  [=(2)] =   -2.54 kcal/mol
DOCKED: USER    
DOCKED: USER    
DOCKED: USER    NEWDPF move heme_O2_opt.pdbqt
DOCKED: USER    NEWDPF about 8.287000 34.468000 -0.670000
DOCKED: USER    NEWDPF tran0 -8.494160 -6.915568 13.973847
DOCKED: USER    NEWDPF quaternion0 -0.211826 0.767903 -0.303950 -0.522560
DOCKED: USER    NEWDPF axisangle0 -0.248446 0.900658 -0.356497 -116.991749
DOCKED: USER    NEWDPF quat0 -0.248446 0.900658 -0.356497 -116.991749
DOCKED: USER    NEWDPF dihe0 138.00 135.31 -10.90 -94.25 -78.29 -89.59 79.55 -66.80 25.57 -6.67 
DOCKED: USER  keepresnum = 1 
DOCKED: USER  
DOCKED: REMARK  10 active torsions:
DOCKED: REMARK  status: ('A' for Active; 'I' for Inactive)
DOCKED: REMARK    1  A    between atoms: C_6  and  C_10 
DOCKED: REMARK    2  A    between atoms: C_10  and  C_11 
DOCKED: REMARK    3  A    between atoms: C_11  and  C_12 
DOCKED: REMARK    4  A    between atoms: C_12  and  O_14 
DOCKED: REMARK    5  A    between atoms: C_17  and  C_20 
DOCKED: REMARK    6  A    between atoms: C_24  and  C_27 
DOCKED: REMARK    7  A    between atoms: C_31  and  C_34 
DOCKED: REMARK    8  A    between atoms: C_34  and  C_35 
DOCKED: REMARK    9  A    between atoms: C_35  and  C_36 
DOCKED: REMARK   10  A    between atoms: C_36  and  O_38 
DOCKED: USER                              x       y       z     vdW  Elec       q    Type
DOCKED: USER                           _______ _______ _______ _____ _____    ______ ____
DOCKED: ROOT
DOCKED: ATOM      1  C   UNL d   1      -8.563  -5.080  15.035 -0.15 +0.00    +0.064 A 
DOCKED: ATOM      2  C   UNL d   1      -5.517  -8.724  15.122 -0.22 -0.01    +0.064 A 
DOCKED: ATOM      3  C   UNL d   1      -8.111 -11.090  11.841 -0.24 -0.02    +0.064 C 
DOCKED: ATOM      4  C   UNL d   1     -10.991  -7.144  11.390 -0.11 -0.04    +0.064 A 
DOCKED: ATOM      5  C   UNL d   1      -7.522  -5.877  15.325 -0.16 -0.00    +0.066 A 
DOCKED: ATOM      6  C   UNL d   1      -6.534  -5.564  16.263 -0.18 -0.00    -0.021 A 
DOCKED: ATOM      7  C   UNL d   1      -5.628  -6.599  16.258 -0.19 +0.00    -0.025 A 
DOCKED: ATOM      8  C   UNL d   1      -6.114  -7.538  15.352 -0.18 -0.01    +0.066 A 
DOCKED: ATOM      9  C   UNL d   1      -4.354  -6.638  17.073 -0.08 -0.01    +0.051 C 
DOCKED: ATOM     10  C   UNL d   1      -5.992  -9.758  14.202 -0.23 -0.01    +0.066 A 
DOCKED: ATOM     11  C   UNL d   1      -5.427 -11.036  14.123 -0.27 +0.00    -0.021 A 
DOCKED: ATOM     12  C   UNL d   1      -6.172 -11.739  13.195 -0.22 -0.00    +0.000 A 
DOCKED: ATOM     13  C   UNL d   1      -7.164 -10.826  12.741 -0.17 -0.02    +0.070 A 
DOCKED: ATOM     14  C   UNL d   1      -4.243 -11.572  14.919 -0.33 -0.01    +0.052 C 
DOCKED: ATOM     15  C   UNL d   1      -9.111 -10.184  11.330 -0.17 -0.02    +0.066 A 
DOCKED: ATOM     16  C   UNL d   1      -9.970 -10.472  10.269 -0.18 +0.01    -0.021 A 
DOCKED: ATOM     17  C   UNL d   1     -10.800  -9.360  10.122 -0.12 -0.00    +0.000 A 
DOCKED: ATOM     18  C   UNL d   1     -10.381  -8.467  11.118 -0.12 -0.03    +0.070 A 
DOCKED: ATOM     19  C   UNL d   1      -9.886 -11.744   9.464 -0.29 -0.02    +0.052 C 
DOCKED: ATOM     20  C   UNL d   1     -10.586  -6.246  12.309 -0.07 -0.05    +0.066 A 
DOCKED: ATOM     21  C   UNL d   1     -11.212  -5.022  12.532 +0.01 +0.02    -0.025 A 
DOCKED: ATOM     22  C   UNL d   1     -10.551  -4.432  13.585 -0.06 +0.01    -0.021 A 
DOCKED: ATOM     23  C   UNL d   1      -9.530  -5.313  13.956 -0.09 -0.03    +0.066 A 
DOCKED: ATOM     24  C   UNL d   1     -12.380  -4.444  11.775 -0.08 -0.03    +0.051 C 
DOCKED: ATOM     25  N   UNL d   1      -7.245  -7.063  14.730 -0.09 +0.05    -0.248 N 
DOCKED: ATOM     26  N   UNL d   1      -7.044  -9.622  13.355 -0.11 +0.06    -0.248 N 
DOCKED: ATOM     27  N   UNL d   1      -9.307  -8.953  11.792 -0.09 +0.08    -0.248 N 
DOCKED: ATOM     28  N   UNL d   1      -9.527  -6.394  13.148 -0.09 +0.16    -0.248 N 
DOCKED: ATOM     29 FE   UNL d   1      -8.296  -7.997  13.249 -0.04 -0.00    +0.000 Fe
DOCKED: ATOM     30  O   UNL d   1      -6.892  -7.496  12.802 -0.47 -0.00    +0.000 OA
DOCKED: ATOM     31  O   UNL d   1      -8.119  -7.355  11.824 -0.37 -0.00    +0.000 OA
DOCKED: ENDROOT
DOCKED: BRANCH   6  32
DOCKED: ATOM     32  C   UNL d   1      -6.369  -4.282  17.036 -0.20 +0.02    +0.052 C 
DOCKED: BRANCH  32  33
DOCKED: ATOM     33  C   UNL d   1      -6.685  -4.440  18.520 -0.07 +0.01    +0.115 C 
DOCKED: BRANCH  33  34
DOCKED: ATOM     34  C   UNL d   1      -8.043  -3.889  18.881 -0.05 +0.02    +0.139 C 
DOCKED: ATOM     35  O   UNL d   1      -8.815  -4.568  19.538 +0.02 -0.03    -0.650 OA
DOCKED: BRANCH  34  36
DOCKED: ATOM     36  O   UNL d   1      -8.438  -2.667  18.468 +0.01 -0.30    -0.776 OA
DOCKED: ATOM     37  H   UNL d   1      -9.331  -2.501  18.144 +0.01 +0.07    +0.167 HD
DOCKED: ENDBRANCH  34  36
DOCKED: ENDBRANCH  33  34
DOCKED: ENDBRANCH  32  33
DOCKED: ENDBRANCH   6  32
DOCKED: BRANCH  22  38
DOCKED: ATOM     38  C   UNL d   1     -10.847  -3.069  14.156 -0.14 -0.00    +0.052 C 
DOCKED: BRANCH  38  39
DOCKED: ATOM     39  C   UNL d   1     -11.779  -3.135  15.364 -0.04 +0.00    +0.115 C 
DOCKED: BRANCH  39  40
DOCKED: ATOM     40  C   UNL d   1     -11.089  -2.744  16.647 -0.04 +0.03    +0.139 C 
DOCKED: ATOM     41  O   UNL d   1     -10.521  -1.667  16.726 -0.44 -0.37    -0.650 OA
DOCKED: BRANCH  40  42
DOCKED: ATOM     42  O   UNL d   1     -11.130  -3.544  17.730 +0.02 -0.08    -0.776 OA
DOCKED: ATOM     43  H   UNL d   1     -10.349  -3.692  18.277 +0.01 +0.02    +0.167 HD
DOCKED: ENDBRANCH  40  42
DOCKED: ENDBRANCH  39  40
DOCKED: ENDBRANCH  38  39
DOCKED: ENDBRANCH  22  38
DOCKED: BRANCH  12  44
DOCKED: ATOM     44  C   UNL d   1      -5.865 -13.179  12.841 -0.33 -0.00    +0.004 C 
DOCKED: ATOM     45  C   UNL d   1      -6.642 -14.048  12.197 -0.32 -0.00    +0.012 C 
DOCKED: ENDBRANCH  12  44
DOCKED: BRANCH  17  46
DOCKED: ATOM     46  C   UNL d   1     -11.879  -9.059   9.116 -0.09 -0.00    +0.004 C 
DOCKED: ATOM     47  C   UNL d   1     -11.805  -8.277   8.031 -0.12 -0.00    +0.012 C 
DOCKED: ENDBRANCH  17  46
DOCKED: TORSDOF 10
DOCKED: TER
DOCKED: ENDMDL
________________________________________________________________________________


	BEGINNING GENETIC ALGORITHM DOCKING 49 of 100
Run: 49 Seed: 1984416997 1079440732 [ Run 49 of 100 GA/GALS ]
Beginning LAMARCKIAN GENETIC ALGORITHM (LGA), with a maximum of 25000000 energy evaluations.

Final-Value: -11.520


	FINAL GENETIC ALGORITHM DOCKED STATE
	_______________________________________________


Detailed state:  trans 7.149 -1.684 16.795 quatxyzw -0.081336 -0.881688 -0.185762 -0.426032 center 8.287 34.468 -0.670 ntor 10 36.8273 104.4134 50.0308 -101.1568 -167.2074 -91.6410 -64.0409 -82.2785 29.0024 139.5406
State:	  7.149  -1.684  16.795  -0.090 -0.975 -0.205 -129.568     36.83  104.41   50.03 -101.16 -167.21  -91.64  -64.04  -82.28   29.00  139.54

DOCKED: MODEL       49
DOCKED: USER    Run = 49
DOCKED: USER    DPF = D:/Protein_go_brrr/autodock/final/mut_N102T/heme_O2/dock.dpf
DOCKED: USER  
DOCKED: USER    Estimated Free Energy of Binding    =   -7.81 kcal/mol  [=(1)+(2)+(3)-(4)]
DOCKED: USER    Estimated Inhibition Constant, Ki   =    1.89 uM (micromolar)  [Temperature = 298.15 K]
DOCKED: USER    
DOCKED: USER    (1) Final Intermolecular Energy     =  -10.79 kcal/mol
DOCKED: USER        vdW + Hbond + desolv Energy     =   -8.14 kcal/mol
DOCKED: USER        Electrostatic Energy            =   -2.65 kcal/mol
DOCKED: USER    (2) Final Total Internal Energy     =   -0.73 kcal/mol
DOCKED: USER    (3) Torsional Free Energy           =   +2.98 kcal/mol
DOCKED: USER    (4) Unbound System's Energy  [=(2)] =   -0.73 kcal/mol
DOCKED: USER    
DOCKED: USER    
DOCKED: USER    NEWDPF move heme_O2_opt.pdbqt
DOCKED: USER    NEWDPF about 8.287000 34.468000 -0.670000
DOCKED: USER    NEWDPF tran0 7.149220 -1.683501 16.794947
DOCKED: USER    NEWDPF quaternion0 -0.081336 -0.881688 -0.185762 -0.426032
DOCKED: USER    NEWDPF axisangle0 -0.089903 -0.974555 -0.205328 -129.568036
DOCKED: USER    NEWDPF quat0 -0.089903 -0.974555 -0.205328 -129.568036
DOCKED: USER    NEWDPF dihe0 36.83 104.41 50.03 -101.16 -167.21 -91.64 -64.04 -82.28 29.00 139.54 
DOCKED: USER  keepresnum = 1 
DOCKED: USER  
DOCKED: REMARK  10 active torsions:
DOCKED: REMARK  status: ('A' for Active; 'I' for Inactive)
DOCKED: REMARK    1  A    between atoms: C_6  and  C_10 
DOCKED: REMARK    2  A    between atoms: C_10  and  C_11 
DOCKED: REMARK    3  A    between atoms: C_11  and  C_12 
DOCKED: REMARK    4  A    between atoms: C_12  and  O_14 
DOCKED: REMARK    5  A    between atoms: C_17  and  C_20 
DOCKED: REMARK    6  A    between atoms: C_24  and  C_27 
DOCKED: REMARK    7  A    between atoms: C_31  and  C_34 
DOCKED: REMARK    8  A    between atoms: C_34  and  C_35 
DOCKED: REMARK    9  A    between atoms: C_35  and  C_36 
DOCKED: REMARK   10  A    between atoms: C_36  and  O_38 
DOCKED: USER                              x       y       z     vdW  Elec       q    Type
DOCKED: USER                           _______ _______ _______ _____ _____    ______ ____
DOCKED: ROOT
DOCKED: ATOM      1  C   UNL d   1       9.074  -1.421  15.943 -0.08 +0.02    +0.064 A 
DOCKED: ATOM      2  C   UNL d   1       4.846  -2.470  14.052 -0.27 -0.01    +0.064 A 
DOCKED: ATOM      3  C   UNL d   1       2.784  -2.402  18.392 -0.19 -0.02    +0.064 C 
DOCKED: ATOM      4  C   UNL d   1       7.032  -0.853  20.296 -0.08 -0.00    +0.064 A 
DOCKED: ATOM      5  C   UNL d   1       8.092  -1.710  15.075 -0.12 +0.01    +0.066 A 
DOCKED: ATOM      6  C   UNL d   1       8.281  -1.848  13.697 -0.13 -0.00    -0.021 A 
DOCKED: ATOM      7  C   UNL d   1       7.050  -2.109  13.143 -0.21 -0.00    -0.025 A 
DOCKED: ATOM      8  C   UNL d   1       6.150  -2.171  14.203 -0.21 -0.00    +0.066 A 
DOCKED: ATOM      9  C   UNL d   1       6.781  -2.257  11.661 -0.26 +0.01    +0.051 C 
DOCKED: ATOM     10  C   UNL d   1       3.859  -2.571  15.128 -0.17 -0.02    +0.066 A 
DOCKED: ATOM     11  C   UNL d   1       2.556  -3.044  14.935 -0.36 +0.00    -0.021 A 
DOCKED: ATOM     12  C   UNL d   1       1.951  -3.049  16.179 -0.42 -0.00    +0.000 A 
DOCKED: ATOM     13  C   UNL d   1       2.937  -2.557  17.077 -0.24 -0.02    +0.070 A 
DOCKED: ATOM     14  C   UNL d   1       1.924  -3.498  13.625 -0.38 -0.01    +0.052 C 
DOCKED: ATOM     15  C   UNL d   1       3.745  -1.874  19.331 -0.11 -0.02    +0.066 A 
DOCKED: ATOM     16  C   UNL d   1       3.468  -1.584  20.666 -0.11 +0.01    -0.021 A 
DOCKED: ATOM     17  C   UNL d   1       4.665  -1.139  21.229 -0.10 -0.00    +0.000 A 
DOCKED: ATOM     18  C   UNL d   1       5.594  -1.195  20.181 -0.09 -0.01    +0.070 A 
DOCKED: ATOM     19  C   UNL d   1       2.089  -1.702  21.265 -0.07 -0.04    +0.052 C 
DOCKED: ATOM     20  C   UNL d   1       7.941  -0.853  19.302 +0.03 +0.01    +0.066 A 
DOCKED: ATOM     21  C   UNL d   1       9.286  -0.539  19.474 -0.03 -0.00    -0.025 A 
DOCKED: ATOM     22  C   UNL d   1       9.889  -0.722  18.250 -0.05 -0.01    -0.021 A 
DOCKED: ATOM     23  C   UNL d   1       8.882  -1.125  17.368 -0.05 +0.02    +0.066 A 
DOCKED: ATOM     24  C   UNL d   1       9.961  -0.084  20.742 -0.05 +0.01    +0.051 C 
DOCKED: ATOM     25  N   UNL d   1       6.781  -1.860  15.386 -0.09 -0.01    -0.248 N 
DOCKED: ATOM     26  N   UNL d   1       4.093  -2.264  16.429 -0.14 +0.05    -0.248 N 
DOCKED: ATOM     27  N   UNL d   1       5.002  -1.571  19.019 -0.06 +0.04    -0.248 N 
DOCKED: ATOM     28  N   UNL d   1       7.691  -1.160  18.001 -0.07 -0.04    -0.248 N 
DOCKED: ATOM     29 FE   UNL d   1       5.904  -1.707  17.223 -0.04 -0.00    +0.000 Fe
DOCKED: ATOM     30  O   UNL d   1       5.495  -0.576  16.236 -0.42 -0.00    +0.000 OA
DOCKED: ATOM     31  O   UNL d   1       5.757  -0.233  17.751 -0.44 +0.00    +0.000 OA
DOCKED: ENDROOT
DOCKED: BRANCH   6  32
DOCKED: ATOM     32  C   UNL d   1       9.544  -1.610  12.910 -0.13 +0.01    +0.052 C 
DOCKED: BRANCH  32  33
DOCKED: ATOM     33  C   UNL d   1      10.118  -2.889  12.308 -0.09 +0.05    +0.115 C 
DOCKED: BRANCH  33  34
DOCKED: ATOM     34  C   UNL d   1      10.063  -2.889  10.800 -0.16 +0.14    +0.139 C 
DOCKED: ATOM     35  O   UNL d   1      10.349  -1.874  10.185 -0.32 -0.68    -0.650 OA
DOCKED: BRANCH  34  36
DOCKED: ATOM     36  O   UNL d   1       9.676  -3.983  10.111 -0.32 -1.34    -0.776 OA
DOCKED: ATOM     37  H   UNL d   1       8.975  -4.564  10.427 +0.05 +0.16    +0.167 HD
DOCKED: ENDBRANCH  34  36
DOCKED: ENDBRANCH  33  34
DOCKED: ENDBRANCH  32  33
DOCKED: ENDBRANCH   6  32
DOCKED: BRANCH  22  38
DOCKED: ATOM     38  C   UNL d   1      11.339  -0.459  17.937 -0.06 +0.01    +0.052 C 
DOCKED: BRANCH  38  39
DOCKED: ATOM     39  C   UNL d   1      11.519   0.619  16.871 -0.11 +0.04    +0.115 C 
DOCKED: BRANCH  39  40
DOCKED: ATOM     40  C   UNL d   1      11.781   1.980  17.465 -0.18 +0.08    +0.139 C 
DOCKED: ATOM     41  O   UNL d   1      12.683   2.124  18.275 +0.00 -0.33    -0.650 OA
DOCKED: BRANCH  40  42
DOCKED: ATOM     42  O   UNL d   1      11.070   3.057  17.079 -0.51 -0.98    -0.776 OA
DOCKED: ATOM     43  H   UNL d   1      10.404   3.454  17.654 -0.40 +0.22    +0.167 HD
DOCKED: ENDBRANCH  40  42
DOCKED: ENDBRANCH  39  40
DOCKED: ENDBRANCH  38  39
DOCKED: ENDBRANCH  22  38
DOCKED: BRANCH  12  44
DOCKED: ATOM     44  C   UNL d   1       0.522  -3.511  16.376 -0.30 -0.00    +0.004 C 
DOCKED: ATOM     45  C   UNL d   1      -0.438  -2.922  17.087 -0.43 -0.00    +0.012 C 
DOCKED: ENDBRANCH  12  44
DOCKED: BRANCH  17  46
DOCKED: ATOM     46  C   UNL d   1       4.977  -0.630  22.611 -0.08 -0.00    +0.004 C 
DOCKED: ATOM     47  C   UNL d   1       5.250   0.626  22.989 -0.10 -0.00    +0.012 C 
DOCKED: ENDBRANCH  17  46
DOCKED: TORSDOF 10
DOCKED: TER
DOCKED: ENDMDL
________________________________________________________________________________


	BEGINNING GENETIC ALGORITHM DOCKING 50 of 100
Run: 50 Seed: 291044570 1420252006 [ Run 50 of 100 GA/GALS ]
Beginning LAMARCKIAN GENETIC ALGORITHM (LGA), with a maximum of 25000000 energy evaluations.

Final-Value: -9.210


	FINAL GENETIC ALGORITHM DOCKED STATE
	_______________________________________________


Detailed state:  trans 12.656 2.989 14.222 quatxyzw 0.869429 0.313204 0.360353 -0.127050 center 8.287 34.468 -0.670 ntor 10 -3.8566 -100.8796 -41.0102 125.7759 109.6635 139.8861 64.6674 145.2641 -155.5382 -180.0000
State:	 12.656   2.989  14.222   0.877  0.316  0.363 -165.402     -3.86 -100.88  -41.01  125.78  109.66  139.89   64.67  145.26 -155.54 -180.00

DOCKED: MODEL       50
DOCKED: USER    Run = 50
DOCKED: USER    DPF = D:/Protein_go_brrr/autodock/final/mut_N102T/heme_O2/dock.dpf
DOCKED: USER  
DOCKED: USER    Estimated Free Energy of Binding    =   -5.43 kcal/mol  [=(1)+(2)+(3)-(4)]
DOCKED: USER    Estimated Inhibition Constant, Ki   =  105.52 uM (micromolar)  [Temperature = 298.15 K]
DOCKED: USER    
DOCKED: USER    (1) Final Intermolecular Energy     =   -8.41 kcal/mol
DOCKED: USER        vdW + Hbond + desolv Energy     =   -6.31 kcal/mol
DOCKED: USER        Electrostatic Energy            =   -2.10 kcal/mol
DOCKED: USER    (2) Final Total Internal Energy     =   -0.80 kcal/mol
DOCKED: USER    (3) Torsional Free Energy           =   +2.98 kcal/mol
DOCKED: USER    (4) Unbound System's Energy  [=(2)] =   -0.80 kcal/mol
DOCKED: USER    
DOCKED: USER    
DOCKED: USER    NEWDPF move heme_O2_opt.pdbqt
DOCKED: USER    NEWDPF about 8.287000 34.468000 -0.670000
DOCKED: USER    NEWDPF tran0 12.655518 2.989288 14.221639
DOCKED: USER    NEWDPF quaternion0 0.869429 0.313204 0.360353 -0.127050
DOCKED: USER    NEWDPF axisangle0 0.876532 0.315762 0.363297 -165.401711
DOCKED: USER    NEWDPF quat0 0.876532 0.315762 0.363297 -165.401711
DOCKED: USER    NEWDPF dihe0 -3.86 -100.88 -41.01 125.78 109.66 139.89 64.67 145.26 -155.54 -180.00 
DOCKED: USER  keepresnum = 1 
DOCKED: USER  
DOCKED: REMARK  10 active torsions:
DOCKED: REMARK  status: ('A' for Active; 'I' for Inactive)
DOCKED: REMARK    1  A    between atoms: C_6  and  C_10 
DOCKED: REMARK    2  A    between atoms: C_10  and  C_11 
DOCKED: REMARK    3  A    between atoms: C_11  and  C_12 
DOCKED: REMARK    4  A    between atoms: C_12  and  O_14 
DOCKED: REMARK    5  A    between atoms: C_17  and  C_20 
DOCKED: REMARK    6  A    between atoms: C_24  and  C_27 
DOCKED: REMARK    7  A    between atoms: C_31  and  C_34 
DOCKED: REMARK    8  A    between atoms: C_34  and  C_35 
DOCKED: REMARK    9  A    between atoms: C_35  and  C_36 
DOCKED: REMARK   10  A    between atoms: C_36  and  O_38 
DOCKED: USER                              x       y       z     vdW  Elec       q    Type
DOCKED: USER                           _______ _______ _______ _____ _____    ______ ____
DOCKED: ROOT
DOCKED: ATOM      1  C   UNL d   1      11.346   1.331  14.034 -0.18 +0.02    +0.064 A 
DOCKED: ATOM      2  C   UNL d   1      13.368   4.201  10.834 -0.28 +0.02    +0.064 A 
DOCKED: ATOM      3  C   UNL d   1      15.494   6.739  14.317 -0.13 +0.02    +0.064 C 
DOCKED: ATOM      4  C   UNL d   1      13.805   3.503  17.595 -0.08 +0.05    +0.064 A 
DOCKED: ATOM      5  C   UNL d   1      11.724   1.904  12.879 -0.21 +0.02    +0.066 A 
DOCKED: ATOM      6  C   UNL d   1      11.299   1.476  11.618 -0.28 -0.01    -0.021 A 
DOCKED: ATOM      7  C   UNL d   1      11.918   2.279  10.689 -0.36 -0.01    -0.025 A 
DOCKED: ATOM      8  C   UNL d   1      12.666   3.205  11.410 -0.27 +0.02    +0.066 A 
DOCKED: ATOM      9  C   UNL d   1      11.799   2.117   9.189 -0.32 +0.01    +0.051 C 
DOCKED: ATOM     10  C   UNL d   1      14.152   5.216  11.539 -0.24 +0.02    +0.066 A 
DOCKED: ATOM     11  C   UNL d   1      14.727   6.322  10.903 -0.29 -0.00    -0.021 A 
DOCKED: ATOM     12  C   UNL d   1      15.329   7.076  11.894 -0.22 +0.00    +0.000 A 
DOCKED: ATOM     13  C   UNL d   1      15.093   6.364  13.103 -0.15 +0.02    +0.070 A 
DOCKED: ATOM     14  C   UNL d   1      14.679   6.660   9.418 -0.13 +0.01    +0.052 C 
DOCKED: ATOM     15  C   UNL d   1      15.306   6.029  15.560 -0.08 +0.04    +0.066 A 
DOCKED: ATOM     16  C   UNL d   1      15.891   6.391  16.773 -0.06 -0.01    -0.021 A 
DOCKED: ATOM     17  C   UNL d   1      15.424   5.482  17.722 -0.06 +0.00    +0.000 A 
DOCKED: ATOM     18  C   UNL d   1      14.577   4.623  17.008 -0.05 +0.06    +0.070 A 
DOCKED: ATOM     19  C   UNL d   1      16.876   7.525  16.905 -0.02 +0.01    +0.052 C 
DOCKED: ATOM     20  C   UNL d   1      13.017   2.634  16.931 -0.12 +0.05    +0.066 A 
DOCKED: ATOM     21  C   UNL d   1      12.300   1.608  17.541 -0.12 -0.01    -0.025 A 
DOCKED: ATOM     22  C   UNL d   1      11.572   0.996  16.546 -0.14 -0.01    -0.021 A 
DOCKED: ATOM     23  C   UNL d   1      11.887   1.662  15.357 -0.17 +0.03    +0.066 A 
DOCKED: ATOM     24  C   UNL d   1      12.312   1.230  19.000 -0.06 +0.02    +0.051 C 
DOCKED: ATOM     25  N   UNL d   1      12.597   2.933  12.757 -0.14 -0.09    -0.248 N 
DOCKED: ATOM     26  N   UNL d   1      14.380   5.231  12.877 -0.09 -0.10    -0.248 N 
DOCKED: ATOM     27  N   UNL d   1      14.576   4.925  15.684 +0.02 -0.19    -0.248 N 
DOCKED: ATOM     28  N   UNL d   1      12.800   2.628  15.589 -0.11 -0.16    -0.248 N 
DOCKED: ATOM     29 FE   UNL d   1      13.586   3.921  14.245 -0.05 +0.00    +0.000 Fe
DOCKED: ATOM     30  O   UNL d   1      14.517   3.079  13.324 -0.11 +0.00    +0.000 OA
DOCKED: ATOM     31  O   UNL d   1      14.779   3.115  14.877 -0.09 +0.00    +0.000 OA
DOCKED: ENDROOT
DOCKED: BRANCH   6  32
DOCKED: ATOM     32  C   UNL d   1      10.453   0.274  11.288 -0.26 +0.02    +0.052 C 
DOCKED: BRANCH  32  33
DOCKED: ATOM     33  C   UNL d   1      11.199  -1.044  11.472 -0.14 +0.06    +0.115 C 
DOCKED: BRANCH  33  34
DOCKED: ATOM     34  C   UNL d   1      11.339  -1.812  10.181 -0.18 +0.15    +0.139 C 
DOCKED: ATOM     35  O   UNL d   1      10.397  -1.867   9.407 -0.47 -0.91    -0.650 OA
DOCKED: BRANCH  34  36
DOCKED: ATOM     36  O   UNL d   1      12.477  -2.467   9.872 -0.25 -1.23    -0.776 OA
DOCKED: ATOM     37  H   UNL d   1      13.258  -2.429  10.436 +0.02 +0.15    +0.167 HD
DOCKED: ENDBRANCH  34  36
DOCKED: ENDBRANCH  33  34
DOCKED: ENDBRANCH  32  33
DOCKED: ENDBRANCH   6  32
DOCKED: BRANCH  22  38
DOCKED: ATOM     38  C   UNL d   1      10.676  -0.202  16.723 -0.10 +0.02    +0.052 C 
DOCKED: BRANCH  38  39
DOCKED: ATOM     39  C   UNL d   1      11.463  -1.508  16.815 -0.02 +0.02    +0.115 C 
DOCKED: BRANCH  39  40
DOCKED: ATOM     40  C   UNL d   1      12.679  -1.513  15.923 -0.00 +0.03    +0.139 C 
DOCKED: ATOM     41  O   UNL d   1      12.547  -1.662  14.719 +0.02 -0.14    -0.650 OA
DOCKED: BRANCH  40  42
DOCKED: ATOM     42  O   UNL d   1      13.911  -1.303  16.425 +0.01 -0.13    -0.776 OA
DOCKED: ATOM     43  H   UNL d   1      14.332  -0.436  16.385 +0.01 +0.03    +0.167 HD
DOCKED: ENDBRANCH  40  42
DOCKED: ENDBRANCH  39  40
DOCKED: ENDBRANCH  38  39
DOCKED: ENDBRANCH  22  38
DOCKED: BRANCH  12  44
DOCKED: ATOM     44  C   UNL d   1      16.056   8.369  11.590 -0.18 +0.00    +0.004 C 
DOCKED: ATOM     45  C   UNL d   1      15.971   9.529  12.240 -0.15 +0.00    +0.012 C 
DOCKED: ENDBRANCH  12  44
DOCKED: BRANCH  17  46
DOCKED: ATOM     46  C   UNL d   1      15.747   5.327  19.184 -0.03 +0.00    +0.004 C 
DOCKED: ATOM     47  C   UNL d   1      14.916   5.418  20.231 -0.03 +0.00    +0.012 C 
DOCKED: ENDBRANCH  17  46
DOCKED: TORSDOF 10
DOCKED: TER
DOCKED: ENDMDL
________________________________________________________________________________


	BEGINNING GENETIC ALGORITHM DOCKING 51 of 100
Run: 51 Seed: 2109453154 1282030162 [ Run 51 of 100 GA/GALS ]
Beginning LAMARCKIAN GENETIC ALGORITHM (LGA), with a maximum of 25000000 energy evaluations.

Final-Value: -10.492


	FINAL GENETIC ALGORITHM DOCKED STATE
	_______________________________________________


Detailed state:  trans 7.377 -4.585 14.234 quatxyzw -0.161221 -0.314847 -0.700988 -0.619269 center 8.287 34.468 -0.670 ntor 10 -160.2335 -77.3228 -61.7448 -114.7092 -133.7135 -59.6350 -58.8265 -9.6988 -151.3350 -179.8733
State:	  7.377  -4.585  14.234  -0.205 -0.401 -0.893 -103.474   -160.23  -77.32  -61.74 -114.71 -133.71  -59.63  -58.83   -9.70 -151.33 -179.87

DOCKED: MODEL       51
DOCKED: USER    Run = 51
DOCKED: USER    DPF = D:/Protein_go_brrr/autodock/final/mut_N102T/heme_O2/dock.dpf
DOCKED: USER  
DOCKED: USER    Estimated Free Energy of Binding    =   -6.46 kcal/mol  [=(1)+(2)+(3)-(4)]
DOCKED: USER    Estimated Inhibition Constant, Ki   =   18.37 uM (micromolar)  [Temperature = 298.15 K]
DOCKED: USER    
DOCKED: USER    (1) Final Intermolecular Energy     =   -9.44 kcal/mol
DOCKED: USER        vdW + Hbond + desolv Energy     =   -7.42 kcal/mol
DOCKED: USER        Electrostatic Energy            =   -2.02 kcal/mol
DOCKED: USER    (2) Final Total Internal Energy     =   -1.05 kcal/mol
DOCKED: USER    (3) Torsional Free Energy           =   +2.98 kcal/mol
DOCKED: USER    (4) Unbound System's Energy  [=(2)] =   -1.05 kcal/mol
DOCKED: USER    
DOCKED: USER    
DOCKED: USER    NEWDPF move heme_O2_opt.pdbqt
DOCKED: USER    NEWDPF about 8.287000 34.468000 -0.670000
DOCKED: USER    NEWDPF tran0 7.376762 -4.585126 14.233765
DOCKED: USER    NEWDPF quaternion0 -0.161221 -0.314847 -0.700988 -0.619269
DOCKED: USER    NEWDPF axisangle0 -0.205330 -0.400988 -0.892776 -103.474388
DOCKED: USER    NEWDPF quat0 -0.205330 -0.400988 -0.892776 -103.474388
DOCKED: USER    NEWDPF dihe0 -160.23 -77.32 -61.74 -114.71 -133.71 -59.63 -58.83 -9.70 -151.33 -179.87 
DOCKED: USER  keepresnum = 1 
DOCKED: USER  
DOCKED: REMARK  10 active torsions:
DOCKED: REMARK  status: ('A' for Active; 'I' for Inactive)
DOCKED: REMARK    1  A    between atoms: C_6  and  C_10 
DOCKED: REMARK    2  A    between atoms: C_10  and  C_11 
DOCKED: REMARK    3  A    between atoms: C_11  and  C_12 
DOCKED: REMARK    4  A    between atoms: C_12  and  O_14 
DOCKED: REMARK    5  A    between atoms: C_17  and  C_20 
DOCKED: REMARK    6  A    between atoms: C_24  and  C_27 
DOCKED: REMARK    7  A    between atoms: C_31  and  C_34 
DOCKED: REMARK    8  A    between atoms: C_34  and  C_35 
DOCKED: REMARK    9  A    between atoms: C_35  and  C_36 
DOCKED: REMARK   10  A    between atoms: C_36  and  O_38 
DOCKED: USER                              x       y       z     vdW  Elec       q    Type
DOCKED: USER                           _______ _______ _______ _____ _____    ______ ____
DOCKED: ROOT
DOCKED: ATOM      1  C   UNL d   1       8.430  -3.685  12.628 -0.12 +0.02    +0.064 A 
DOCKED: ATOM      2  C   UNL d   1       4.965  -2.115  15.472 -0.19 -0.01    +0.064 A 
DOCKED: ATOM      3  C   UNL d   1       4.819  -6.330  17.774 -0.20 -0.01    +0.064 C 
DOCKED: ATOM      4  C   UNL d   1       8.710  -7.795  15.171 -0.19 +0.02    +0.064 A 
DOCKED: ATOM      5  C   UNL d   1       7.501  -2.914  13.214 -0.15 +0.01    +0.066 A 
DOCKED: ATOM      6  C   UNL d   1       7.207  -1.605  12.820 -0.25 -0.00    -0.021 A 
DOCKED: ATOM      7  C   UNL d   1       6.234  -1.134  13.670 -0.33 +0.00    -0.025 A 
DOCKED: ATOM      8  C   UNL d   1       5.927  -2.185  14.530 -0.21 -0.00    +0.066 A 
DOCKED: ATOM      9  C   UNL d   1       5.672   0.270  13.649 -0.40 -0.01    +0.051 C 
DOCKED: ATOM     10  C   UNL d   1       4.582  -3.190  16.387 -0.18 -0.01    +0.066 A 
DOCKED: ATOM     11  C   UNL d   1       3.469  -3.121  17.233 -0.21 +0.00    -0.021 A 
DOCKED: ATOM     12  C   UNL d   1       3.400  -4.334  17.892 -0.19 -0.00    +0.000 A 
DOCKED: ATOM     13  C   UNL d   1       4.506  -5.087  17.410 -0.16 -0.01    +0.070 A 
DOCKED: ATOM     14  C   UNL d   1       2.498  -1.956  17.385 -0.34 -0.02    +0.052 C 
DOCKED: ATOM     15  C   UNL d   1       5.949  -7.114  17.336 -0.19 -0.00    +0.066 A 
DOCKED: ATOM     16  C   UNL d   1       6.314  -8.346  17.877 -0.23 -0.00    -0.021 A 
DOCKED: ATOM     17  C   UNL d   1       7.422  -8.783  17.151 -0.23 +0.00    +0.000 A 
DOCKED: ATOM     18  C   UNL d   1       7.651  -7.772  16.207 -0.22 +0.01    +0.070 A 
DOCKED: ATOM     19  C   UNL d   1       5.615  -8.964  19.062 -0.19 -0.00    +0.052 C 
DOCKED: ATOM     20  C   UNL d   1       8.985  -6.824  14.279 -0.15 +0.02    +0.066 A 
DOCKED: ATOM     21  C   UNL d   1       9.984  -6.910  13.314 -0.13 -0.01    -0.025 A 
DOCKED: ATOM     22  C   UNL d   1       9.901  -5.760  12.562 -0.12 -0.01    -0.021 A 
DOCKED: ATOM     23  C   UNL d   1       8.862  -5.002  13.110 -0.12 +0.02    +0.066 A 
DOCKED: ATOM     24  C   UNL d   1      10.971  -8.033  13.121 -0.10 +0.02    +0.051 C 
DOCKED: ATOM     25  N   UNL d   1       6.753  -3.258  14.291 -0.05 -0.02    -0.248 N 
DOCKED: ATOM     26  N   UNL d   1       5.222  -4.382  16.498 +0.03 +0.02    -0.248 N 
DOCKED: ATOM     27  N   UNL d   1       6.795  -6.733  16.383 -0.04 -0.01    -0.248 N 
DOCKED: ATOM     28  N   UNL d   1       8.337  -5.632  14.182 -0.09 -0.05    -0.248 N 
DOCKED: ATOM     29 FE   UNL d   1       6.791  -5.014  15.333 -0.02 +0.00    +0.000 Fe
DOCKED: ATOM     30  O   UNL d   1       7.314  -3.792  16.143 -0.11 +0.00    +0.000 OA
DOCKED: ATOM     31  O   UNL d   1       8.041  -5.183  16.272 -0.10 +0.00    +0.000 OA
DOCKED: ENDROOT
DOCKED: BRANCH   6  32
DOCKED: ATOM     32  C   UNL d   1       7.907  -0.778  11.773 -0.16 +0.01    +0.052 C 
DOCKED: BRANCH  32  33
DOCKED: ATOM     33  C   UNL d   1       9.335  -0.410  12.166 -0.24 +0.03    +0.115 C 
DOCKED: BRANCH  33  34
DOCKED: ATOM     34  C   UNL d   1      10.356  -0.956  11.199 -0.16 +0.08    +0.139 C 
DOCKED: ATOM     35  O   UNL d   1      10.500  -0.426  10.109 -0.53 -0.51    -0.650 OA
DOCKED: BRANCH  34  36
DOCKED: ATOM     36  O   UNL d   1      11.100  -2.041  11.501 +0.04 -0.50    -0.776 OA
DOCKED: ATOM     37  H   UNL d   1      11.928  -2.235  11.047 +0.03 +0.14    +0.167 HD
DOCKED: ENDBRANCH  34  36
DOCKED: ENDBRANCH  33  34
DOCKED: ENDBRANCH  32  33
DOCKED: ENDBRANCH   6  32
DOCKED: BRANCH  22  38
DOCKED: ATOM     38  C   UNL d   1      10.815  -5.386  11.424 -0.11 +0.04    +0.052 C 
DOCKED: BRANCH  38  39
DOCKED: ATOM     39  C   UNL d   1      12.163  -4.858  11.909 -0.05 +0.08    +0.115 C 
DOCKED: BRANCH  39  40
DOCKED: ATOM     40  C   UNL d   1      13.169  -4.730  10.792 -0.05 +0.14    +0.139 C 
DOCKED: ATOM     41  O   UNL d   1      13.186  -3.723  10.104 -0.39 -1.04    -0.650 OA
DOCKED: BRANCH  40  42
DOCKED: ATOM     42  O   UNL d   1      14.087  -5.691  10.570 -0.00 -0.52    -0.776 OA
DOCKED: ATOM     43  H   UNL d   1      14.852  -5.801  11.147 +0.01 +0.07    +0.167 HD
DOCKED: ENDBRANCH  40  42
DOCKED: ENDBRANCH  39  40
DOCKED: ENDBRANCH  38  39
DOCKED: ENDBRANCH  22  38
DOCKED: BRANCH  12  44
DOCKED: ATOM     44  C   UNL d   1       2.309  -4.641  18.897 -0.16 -0.00    +0.004 C 
DOCKED: ATOM     45  C   UNL d   1       1.336  -5.546  18.798 -0.25 -0.00    +0.012 C 
DOCKED: ENDBRANCH  12  44
DOCKED: BRANCH  17  46
DOCKED: ATOM     46  C   UNL d   1       8.287 -10.005  17.308 -0.12 +0.00    +0.004 C 
DOCKED: ATOM     47  C   UNL d   1       9.608 -10.063  17.521 -0.13 +0.01    +0.012 C 
DOCKED: ENDBRANCH  17  46
DOCKED: TORSDOF 10
DOCKED: TER
DOCKED: ENDMDL
________________________________________________________________________________


	BEGINNING GENETIC ALGORITHM DOCKING 52 of 100
Run: 52 Seed: 938035073 2075691981 [ Run 52 of 100 GA/GALS ]
Beginning LAMARCKIAN GENETIC ALGORITHM (LGA), with a maximum of 25000000 energy evaluations.

Final-Value: -11.028


	FINAL GENETIC ALGORITHM DOCKED STATE
	_______________________________________________


Detailed state:  trans 7.473 -1.721 16.538 quatxyzw -0.071414 -0.842248 -0.192412 -0.498493 center 8.287 34.468 -0.670 ntor 10 -10.4262 -23.9929 104.4036 -97.7283 97.7843 161.8480 -47.8928 104.3211 -7.3813 -160.0433
State:	  7.473  -1.721  16.538  -0.082 -0.972 -0.222 -120.199    -10.43  -23.99  104.40  -97.73   97.78  161.85  -47.89  104.32   -7.38 -160.04

DOCKED: MODEL       52
DOCKED: USER    Run = 52
DOCKED: USER    DPF = D:/Protein_go_brrr/autodock/final/mut_N102T/heme_O2/dock.dpf
DOCKED: USER  
DOCKED: USER    Estimated Free Energy of Binding    =   -7.37 kcal/mol  [=(1)+(2)+(3)-(4)]
DOCKED: USER    Estimated Inhibition Constant, Ki   =    3.94 uM (micromolar)  [Temperature = 298.15 K]
DOCKED: USER    
DOCKED: USER    (1) Final Intermolecular Energy     =  -10.36 kcal/mol
DOCKED: USER        vdW + Hbond + desolv Energy     =   -7.52 kcal/mol
DOCKED: USER        Electrostatic Energy            =   -2.83 kcal/mol
DOCKED: USER    (2) Final Total Internal Energy     =   -0.67 kcal/mol
DOCKED: USER    (3) Torsional Free Energy           =   +2.98 kcal/mol
DOCKED: USER    (4) Unbound System's Energy  [=(2)] =   -0.67 kcal/mol
DOCKED: USER    
DOCKED: USER    
DOCKED: USER    NEWDPF move heme_O2_opt.pdbqt
DOCKED: USER    NEWDPF about 8.287000 34.468000 -0.670000
DOCKED: USER    NEWDPF tran0 7.473272 -1.720631 16.537750
DOCKED: USER    NEWDPF quaternion0 -0.071414 -0.842248 -0.192412 -0.498493
DOCKED: USER    NEWDPF axisangle0 -0.082380 -0.971570 -0.221956 -120.199328
DOCKED: USER    NEWDPF quat0 -0.082380 -0.971570 -0.221956 -120.199328
DOCKED: USER    NEWDPF dihe0 -10.43 -23.99 104.40 -97.73 97.78 161.85 -47.89 104.32 -7.38 -160.04 
DOCKED: USER  keepresnum = 1 
DOCKED: USER  
DOCKED: REMARK  10 active torsions:
DOCKED: REMARK  status: ('A' for Active; 'I' for Inactive)
DOCKED: REMARK    1  A    between atoms: C_6  and  C_10 
DOCKED: REMARK    2  A    between atoms: C_10  and  C_11 
DOCKED: REMARK    3  A    between atoms: C_11  and  C_12 
DOCKED: REMARK    4  A    between atoms: C_12  and  O_14 
DOCKED: REMARK    5  A    between atoms: C_17  and  C_20 
DOCKED: REMARK    6  A    between atoms: C_24  and  C_27 
DOCKED: REMARK    7  A    between atoms: C_31  and  C_34 
DOCKED: REMARK    8  A    between atoms: C_34  and  C_35 
DOCKED: REMARK    9  A    between atoms: C_35  and  C_36 
DOCKED: REMARK   10  A    between atoms: C_36  and  O_38 
DOCKED: USER                              x       y       z     vdW  Elec       q    Type
DOCKED: USER                           _______ _______ _______ _____ _____    ______ ____
DOCKED: ROOT
DOCKED: ATOM      1  C   UNL d   1       9.233  -1.352  15.412 -0.09 +0.02    +0.064 A 
DOCKED: ATOM      2  C   UNL d   1       4.791  -2.468  14.151 -0.26 -0.01    +0.064 A 
DOCKED: ATOM      3  C   UNL d   1       3.435  -2.665  18.757 -0.12 -0.02    +0.064 C 
DOCKED: ATOM      4  C   UNL d   1       7.882  -1.049  20.051 -0.06 +0.00    +0.064 A 
DOCKED: ATOM      5  C   UNL d   1       8.135  -1.637  14.693 -0.12 +0.01    +0.066 A 
DOCKED: ATOM      6  C   UNL d   1       8.110  -1.709  13.297 -0.17 -0.00    -0.021 A 
DOCKED: ATOM      7  C   UNL d   1       6.815  -1.989  12.929 -0.24 -0.00    -0.025 A 
DOCKED: ATOM      8  C   UNL d   1       6.094  -2.129  14.112 -0.22 -0.00    +0.066 A 
DOCKED: ATOM      9  C   UNL d   1       6.321  -2.081  11.501 -0.30 +0.01    +0.051 C 
DOCKED: ATOM     10  C   UNL d   1       3.989  -2.652  15.361 -0.22 -0.01    +0.066 A 
DOCKED: ATOM     11  C   UNL d   1       2.686  -3.162  15.350 -0.42 +0.00    -0.021 A 
DOCKED: ATOM     12  C   UNL d   1       2.284  -3.244  16.670 -0.36 -0.00    +0.000 A 
DOCKED: ATOM     13  C   UNL d   1       3.384  -2.756  17.428 -0.18 -0.02    +0.070 A 
DOCKED: ATOM     14  C   UNL d   1       1.869  -3.581  14.133 -0.31 -0.01    +0.052 C 
DOCKED: ATOM     15  C   UNL d   1       4.515  -2.144  19.559 -0.07 -0.02    +0.066 A 
DOCKED: ATOM     16  C   UNL d   1       4.444  -1.923  20.934 -0.06 +0.01    -0.021 A 
DOCKED: ATOM     17  C   UNL d   1       5.700  -1.461  21.325 -0.05 -0.00    +0.000 A 
DOCKED: ATOM     18  C   UNL d   1       6.455  -1.437  20.144 -0.06 -0.00    +0.070 A 
DOCKED: ATOM     19  C   UNL d   1       3.180  -2.117  21.733 -0.07 -0.03    +0.052 C 
DOCKED: ATOM     20  C   UNL d   1       8.624  -0.974  18.929 +0.02 +0.01    +0.066 A 
DOCKED: ATOM     21  C   UNL d   1       9.970  -0.619  18.905 -0.06 -0.01    -0.025 A 
DOCKED: ATOM     22  C   UNL d   1      10.378  -0.726  17.595 -0.08 -0.01    -0.021 A 
DOCKED: ATOM     23  C   UNL d   1       9.257  -1.126  16.861 -0.06 +0.02    +0.066 A 
DOCKED: ATOM     24  C   UNL d   1      10.822  -0.196  20.074 -0.05 +0.01    +0.051 C 
DOCKED: ATOM     25  N   UNL d   1       6.894  -1.848  15.196 -0.09 -0.01    -0.248 N 
DOCKED: ATOM     26  N   UNL d   1       4.416  -2.393  16.623 -0.12 +0.04    -0.248 N 
DOCKED: ATOM     27  N   UNL d   1       5.699  -1.783  19.071 -0.04 +0.03    -0.248 N 
DOCKED: ATOM     28  N   UNL d   1       8.182  -1.232  17.669 -0.07 -0.05    -0.248 N 
DOCKED: ATOM     29 FE   UNL d   1       6.312  -1.808  17.153 -0.04 -0.00    +0.000 Fe
DOCKED: ATOM     30  O   UNL d   1       5.721  -0.650  16.298 -0.39 -0.00    +0.000 OA
DOCKED: ATOM     31  O   UNL d   1       6.208  -0.365  17.769 -0.29 +0.00    +0.000 OA
DOCKED: ENDROOT
DOCKED: BRANCH   6  32
DOCKED: ATOM     32  C   UNL d   1       9.226  -1.390  12.336 -0.20 +0.02    +0.052 C 
DOCKED: BRANCH  32  33
DOCKED: ATOM     33  C   UNL d   1      10.279  -2.492  12.266 -0.09 +0.05    +0.115 C 
DOCKED: BRANCH  33  34
DOCKED: ATOM     34  C   UNL d   1      10.590  -2.902  10.848 -0.12 +0.16    +0.139 C 
DOCKED: ATOM     35  O   UNL d   1       9.681  -3.228  10.101 -0.53 -0.99    -0.650 OA
DOCKED: BRANCH  34  36
DOCKED: ATOM     36  O   UNL d   1      11.858  -2.944  10.390 +0.07 -1.28    -0.776 OA
DOCKED: ATOM     37  H   UNL d   1      12.596  -2.582  10.894 +0.02 +0.15    +0.167 HD
DOCKED: ENDBRANCH  34  36
DOCKED: ENDBRANCH  33  34
DOCKED: ENDBRANCH  32  33
DOCKED: ENDBRANCH   6  32
DOCKED: BRANCH  22  38
DOCKED: ATOM     38  C   UNL d   1      11.754  -0.398  17.074 -0.06 +0.01    +0.052 C 
DOCKED: BRANCH  38  39
DOCKED: ATOM     39  C   UNL d   1      12.157   1.046  17.365 -0.09 +0.04    +0.115 C 
DOCKED: BRANCH  39  40
DOCKED: ATOM     40  C   UNL d   1      11.490   2.029  16.437 -0.23 +0.09    +0.139 C 
DOCKED: ATOM     41  O   UNL d   1      11.579   1.878  15.229 -0.03 -0.32    -0.650 OA
DOCKED: BRANCH  40  42
DOCKED: ATOM     42  O   UNL d   1      10.751   3.048  16.917 -0.43 -0.87    -0.776 OA
DOCKED: ATOM     43  H   UNL d   1      10.374   3.024  17.805 -0.32 +0.16    +0.167 HD
DOCKED: ENDBRANCH  40  42
DOCKED: ENDBRANCH  39  40
DOCKED: ENDBRANCH  38  39
DOCKED: ENDBRANCH  22  38
DOCKED: BRANCH  12  44
DOCKED: ATOM     44  C   UNL d   1       0.918  -3.765  17.064 -0.39 -0.00    +0.004 C 
DOCKED: ATOM     45  C   UNL d   1      -0.244  -3.113  17.043 -0.42 -0.00    +0.012 C 
DOCKED: ENDBRANCH  12  44
DOCKED: BRANCH  17  46
DOCKED: ATOM     46  C   UNL d   1       6.211  -1.002  22.665 -0.03 -0.00    +0.004 C 
DOCKED: ATOM     47  C   UNL d   1       6.445   0.251  23.077 -0.05 -0.00    +0.012 C 
DOCKED: ENDBRANCH  17  46
DOCKED: TORSDOF 10
DOCKED: TER
DOCKED: ENDMDL
________________________________________________________________________________


	BEGINNING GENETIC ALGORITHM DOCKING 53 of 100
Run: 53 Seed: 976787034 1243496104 [ Run 53 of 100 GA/GALS ]
Beginning LAMARCKIAN GENETIC ALGORITHM (LGA), with a maximum of 25000000 energy evaluations.

Final-Value: -9.697


	FINAL GENETIC ALGORITHM DOCKED STATE
	_______________________________________________


Detailed state:  trans 2.314 -20.570 -4.016 quatxyzw 0.908088 -0.218000 0.177515 -0.310389 center 8.287 34.468 -0.670 ntor 10 68.9436 59.1631 -49.2354 120.9758 -113.6543 112.5994 67.6697 27.4431 28.4049 179.7263
State:	  2.314 -20.570  -4.016   0.955 -0.229  0.187 -143.835     68.94   59.16  -49.24  120.98 -113.65  112.60   67.67   27.44   28.40  179.73

DOCKED: MODEL       53
DOCKED: USER    Run = 53
DOCKED: USER    DPF = D:/Protein_go_brrr/autodock/final/mut_N102T/heme_O2/dock.dpf
DOCKED: USER  
DOCKED: USER    Estimated Free Energy of Binding    =   -6.29 kcal/mol  [=(1)+(2)+(3)-(4)]
DOCKED: USER    Estimated Inhibition Constant, Ki   =   24.72 uM (micromolar)  [Temperature = 298.15 K]
DOCKED: USER    
DOCKED: USER    (1) Final Intermolecular Energy     =   -9.27 kcal/mol
DOCKED: USER        vdW + Hbond + desolv Energy     =   -5.76 kcal/mol
DOCKED: USER        Electrostatic Energy            =   -3.50 kcal/mol
DOCKED: USER    (2) Final Total Internal Energy     =   -0.43 kcal/mol
DOCKED: USER    (3) Torsional Free Energy           =   +2.98 kcal/mol
DOCKED: USER    (4) Unbound System's Energy  [=(2)] =   -0.43 kcal/mol
DOCKED: USER    
DOCKED: USER    
DOCKED: USER    NEWDPF move heme_O2_opt.pdbqt
DOCKED: USER    NEWDPF about 8.287000 34.468000 -0.670000
DOCKED: USER    NEWDPF tran0 2.313569 -20.569622 -4.016216
DOCKED: USER    NEWDPF quaternion0 0.908088 -0.218000 0.177515 -0.310389
DOCKED: USER    NEWDPF axisangle0 0.955269 -0.229326 0.186738 -143.834650
DOCKED: USER    NEWDPF quat0 0.955269 -0.229326 0.186738 -143.834650
DOCKED: USER    NEWDPF dihe0 68.94 59.16 -49.24 120.98 -113.65 112.60 67.67 27.44 28.40 179.73 
DOCKED: USER  keepresnum = 1 
DOCKED: USER  
DOCKED: REMARK  10 active torsions:
DOCKED: REMARK  status: ('A' for Active; 'I' for Inactive)
DOCKED: REMARK    1  A    between atoms: C_6  and  C_10 
DOCKED: REMARK    2  A    between atoms: C_10  and  C_11 
DOCKED: REMARK    3  A    between atoms: C_11  and  C_12 
DOCKED: REMARK    4  A    between atoms: C_12  and  O_14 
DOCKED: REMARK    5  A    between atoms: C_17  and  C_20 
DOCKED: REMARK    6  A    between atoms: C_24  and  C_27 
DOCKED: REMARK    7  A    between atoms: C_31  and  C_34 
DOCKED: REMARK    8  A    between atoms: C_34  and  C_35 
DOCKED: REMARK    9  A    between atoms: C_35  and  C_36 
DOCKED: REMARK   10  A    between atoms: C_36  and  O_38 
DOCKED: USER                              x       y       z     vdW  Elec       q    Type
DOCKED: USER                           _______ _______ _______ _____ _____    ______ ____
DOCKED: ROOT
DOCKED: ATOM      1  C   UNL d   1       0.285 -19.951  -3.984 -0.18 +0.02    +0.064 A 
DOCKED: ATOM      2  C   UNL d   1       3.348 -20.721  -7.531 -0.14 -0.01    +0.064 A 
DOCKED: ATOM      3  C   UNL d   1       6.823 -21.847  -4.409 -0.07 +0.00    +0.064 C 
DOCKED: ATOM      4  C   UNL d   1       3.549 -21.521  -0.771 -0.07 +0.00    +0.064 A 
DOCKED: ATOM      5  C   UNL d   1       0.834 -20.071  -5.204 -0.16 +0.01    +0.066 A 
DOCKED: ATOM      6  C   UNL d   1       0.156 -19.805  -6.397 -0.17 -0.00    -0.021 A 
DOCKED: ATOM      7  C   UNL d   1       1.028 -20.070  -7.426 -0.19 -0.00    -0.025 A 
DOCKED: ATOM      8  C   UNL d   1       2.231 -20.443  -6.832 -0.12 -0.00    +0.066 A 
DOCKED: ATOM      9  C   UNL d   1       0.682 -19.987  -8.897 -0.13 +0.00    +0.051 C 
DOCKED: ATOM     10  C   UNL d   1       4.644 -21.096  -6.964 -0.05 -0.01    +0.066 A 
DOCKED: ATOM     11  C   UNL d   1       5.812 -21.214  -7.725 -0.09 +0.00    -0.021 A 
DOCKED: ATOM     12  C   UNL d   1       6.829 -21.521  -6.840 -0.07 -0.00    +0.000 A 
DOCKED: ATOM     13  C   UNL d   1       6.207 -21.585  -5.562 -0.07 -0.00    +0.070 A 
DOCKED: ATOM     14  C   UNL d   1       5.957 -21.016  -9.229 -0.08 -0.01    +0.052 C 
DOCKED: ATOM     15  C   UNL d   1       6.225 -21.956  -3.101 -0.05 +0.00    +0.066 A 
DOCKED: ATOM     16  C   UNL d   1       6.895 -22.394  -1.959 -0.02 -0.00    -0.021 A 
DOCKED: ATOM     17  C   UNL d   1       5.981 -22.310  -0.909 -0.03 +0.00    +0.000 A 
DOCKED: ATOM     18  C   UNL d   1       4.806 -21.819  -1.496 -0.05 +0.00    +0.070 A 
DOCKED: ATOM     19  C   UNL d   1       8.315 -22.899  -1.982 -0.01 -0.00    +0.052 C 
DOCKED: ATOM     20  C   UNL d   1       2.391 -21.091  -1.310 -0.11 +0.01    +0.066 A 
DOCKED: ATOM     21  C   UNL d   1       1.244 -20.810  -0.574 -0.14 -0.00    -0.025 A 
DOCKED: ATOM     22  C   UNL d   1       0.312 -20.336  -1.469 -0.19 -0.01    -0.021 A 
DOCKED: ATOM     23  C   UNL d   1       0.922 -20.362  -2.727 -0.17 +0.02    +0.066 A 
DOCKED: ATOM     24  C   UNL d   1       1.046 -20.989   0.909 -0.13 +0.01    +0.051 C 
DOCKED: ATOM     25  N   UNL d   1       2.091 -20.506  -5.465 -0.07 +0.01    -0.248 N 
DOCKED: ATOM     26  N   UNL d   1       4.877 -21.330  -5.647 -0.09 +0.01    -0.248 N 
DOCKED: ATOM     27  N   UNL d   1       4.950 -21.681  -2.839 -0.05 -0.01    -0.248 N 
DOCKED: ATOM     28  N   UNL d   1       2.170 -20.864  -2.632 -0.09 -0.03    -0.248 N 
DOCKED: ATOM     29 FE   UNL d   1       3.516 -21.096  -4.127 -0.03 -0.00    +0.000 Fe
DOCKED: ATOM     30  O   UNL d   1       2.977 -22.251  -5.021 -0.07 +0.00    +0.000 OA
DOCKED: ATOM     31  O   UNL d   1       3.263 -22.514  -3.495 -0.05 +0.00    +0.000 OA
DOCKED: ENDROOT
DOCKED: BRANCH   6  32
DOCKED: ATOM     32  C   UNL d   1      -1.298 -19.450  -6.573 -0.17 +0.02    +0.052 C 
DOCKED: BRANCH  32  33
DOCKED: ATOM     33  C   UNL d   1      -1.503 -18.019  -7.061 -0.27 +0.08    +0.115 C 
DOCKED: BRANCH  33  34
DOCKED: ATOM     34  C   UNL d   1      -2.201 -17.157  -6.038 -0.25 +0.19    +0.139 C 
DOCKED: ATOM     35  O   UNL d   1      -1.540 -16.461  -5.284 -0.09 -0.77    -0.650 OA
DOCKED: BRANCH  34  36
DOCKED: ATOM     36  O   UNL d   1      -3.545 -17.157  -5.918 -0.52 -1.75    -0.776 OA
DOCKED: ATOM     37  H   UNL d   1      -4.027 -17.919  -5.577 +0.03 +0.27    +0.167 HD
DOCKED: ENDBRANCH  34  36
DOCKED: ENDBRANCH  33  34
DOCKED: ENDBRANCH  32  33
DOCKED: ENDBRANCH   6  32
DOCKED: BRANCH  22  38
DOCKED: ATOM     38  C   UNL d   1      -1.104 -19.942  -1.138 -0.12 +0.03    +0.052 C 
DOCKED: BRANCH  38  39
DOCKED: ATOM     39  C   UNL d   1      -2.023 -21.152  -0.982 -0.17 +0.07    +0.115 C 
DOCKED: BRANCH  39  40
DOCKED: ATOM     40  C   UNL d   1      -3.464 -20.823  -1.281 -0.09 +0.16    +0.139 C 
DOCKED: ATOM     41  O   UNL d   1      -4.254 -20.672  -0.363 -0.71 -0.88    -0.650 OA
DOCKED: BRANCH  40  42
DOCKED: ATOM     42  O   UNL d   1      -3.889 -20.642  -2.546 -0.37 -1.09    -0.776 OA
DOCKED: ATOM     43  H   UNL d   1      -3.841 -21.348  -3.201 +0.02 +0.13    +0.167 HD
DOCKED: ENDBRANCH  40  42
DOCKED: ENDBRANCH  39  40
DOCKED: ENDBRANCH  38  39
DOCKED: ENDBRANCH  22  38
DOCKED: BRANCH  12  44
DOCKED: ATOM     44  C   UNL d   1       8.259 -21.720  -7.296 -0.03 -0.00    +0.004 C 
DOCKED: ATOM     45  C   UNL d   1       9.356 -21.114  -6.842 -0.03 -0.00    +0.012 C 
DOCKED: ENDBRANCH  12  44
DOCKED: BRANCH  17  46
DOCKED: ATOM     46  C   UNL d   1       6.103 -22.697   0.541 -0.02 +0.00    +0.004 C 
DOCKED: ATOM     47  C   UNL d   1       6.081 -21.899   1.616 -0.04 +0.00    +0.012 C 
DOCKED: ENDBRANCH  17  46
DOCKED: TORSDOF 10
DOCKED: TER
DOCKED: ENDMDL
________________________________________________________________________________


	BEGINNING GENETIC ALGORITHM DOCKING 54 of 100
Run: 54 Seed: 751982217 710042634 [ Run 54 of 100 GA/GALS ]
Beginning LAMARCKIAN GENETIC ALGORITHM (LGA), with a maximum of 25000000 energy evaluations.

Final-Value: -11.173


	FINAL GENETIC ALGORITHM DOCKED STATE
	_______________________________________________


Detailed state:  trans 7.088 -1.669 16.922 quatxyzw 0.111210 0.892662 0.167940 0.403215 center 8.287 34.468 -0.670 ntor 10 -1.1202 125.0312 41.6657 -100.8019 2.8066 -122.8958 42.2468 -106.7016 160.4868 148.9492
State:	  7.088  -1.669  16.922   0.122  0.975  0.184 132.441     -1.12  125.03   41.67 -100.80    2.81 -122.90   42.25 -106.70  160.49  148.95

DOCKED: MODEL       54
DOCKED: USER    Run = 54
DOCKED: USER    DPF = D:/Protein_go_brrr/autodock/final/mut_N102T/heme_O2/dock.dpf
DOCKED: USER  
DOCKED: USER    Estimated Free Energy of Binding    =   -7.50 kcal/mol  [=(1)+(2)+(3)-(4)]
DOCKED: USER    Estimated Inhibition Constant, Ki   =    3.19 uM (micromolar)  [Temperature = 298.15 K]
DOCKED: USER    
DOCKED: USER    (1) Final Intermolecular Energy     =  -10.48 kcal/mol
DOCKED: USER        vdW + Hbond + desolv Energy     =   -8.42 kcal/mol
DOCKED: USER        Electrostatic Energy            =   -2.06 kcal/mol
DOCKED: USER    (2) Final Total Internal Energy     =   -0.69 kcal/mol
DOCKED: USER    (3) Torsional Free Energy           =   +2.98 kcal/mol
DOCKED: USER    (4) Unbound System's Energy  [=(2)] =   -0.69 kcal/mol
DOCKED: USER    
DOCKED: USER    
DOCKED: USER    NEWDPF move heme_O2_opt.pdbqt
DOCKED: USER    NEWDPF about 8.287000 34.468000 -0.670000
DOCKED: USER    NEWDPF tran0 7.088445 -1.669070 16.922322
DOCKED: USER    NEWDPF quaternion0 0.111210 0.892662 0.167940 0.403215
DOCKED: USER    NEWDPF axisangle0 0.121527 0.975475 0.183520 132.441380
DOCKED: USER    NEWDPF quat0 0.121527 0.975475 0.183520 132.441380
DOCKED: USER    NEWDPF dihe0 -1.12 125.03 41.67 -100.80 2.81 -122.90 42.25 -106.70 160.49 148.95 
DOCKED: USER  keepresnum = 1 
DOCKED: USER  
DOCKED: REMARK  10 active torsions:
DOCKED: REMARK  status: ('A' for Active; 'I' for Inactive)
DOCKED: REMARK    1  A    between atoms: C_6  and  C_10 
DOCKED: REMARK    2  A    between atoms: C_10  and  C_11 
DOCKED: REMARK    3  A    between atoms: C_11  and  C_12 
DOCKED: REMARK    4  A    between atoms: C_12  and  O_14 
DOCKED: REMARK    5  A    between atoms: C_17  and  C_20 
DOCKED: REMARK    6  A    between atoms: C_24  and  C_27 
DOCKED: REMARK    7  A    between atoms: C_31  and  C_34 
DOCKED: REMARK    8  A    between atoms: C_34  and  C_35 
DOCKED: REMARK    9  A    between atoms: C_35  and  C_36 
DOCKED: REMARK   10  A    between atoms: C_36  and  O_38 
DOCKED: USER                              x       y       z     vdW  Elec       q    Type
DOCKED: USER                           _______ _______ _______ _____ _____    ______ ____
DOCKED: ROOT
DOCKED: ATOM      1  C   UNL d   1       9.051  -1.546  16.128 -0.07 +0.02    +0.064 A 
DOCKED: ATOM      2  C   UNL d   1       4.846  -2.533  14.152 -0.27 -0.01    +0.064 A 
DOCKED: ATOM      3  C   UNL d   1       2.643  -2.093  18.400 -0.23 -0.02    +0.064 C 
DOCKED: ATOM      4  C   UNL d   1       6.889  -0.607  20.356 -0.10 -0.00    +0.064 A 
DOCKED: ATOM      5  C   UNL d   1       8.087  -1.848  15.243 -0.11 +0.01    +0.066 A 
DOCKED: ATOM      6  C   UNL d   1       8.317  -2.085  13.885 -0.12 -0.00    -0.021 A 
DOCKED: ATOM      7  C   UNL d   1       7.095  -2.328  13.303 -0.19 -0.00    -0.025 A 
DOCKED: ATOM      8  C   UNL d   1       6.157  -2.281  14.332 -0.20 -0.00    +0.066 A 
DOCKED: ATOM      9  C   UNL d   1       6.870  -2.560  11.825 -0.27 +0.01    +0.051 C 
DOCKED: ATOM     10  C   UNL d   1       3.820  -2.522  15.195 -0.17 -0.02    +0.066 A 
DOCKED: ATOM     11  C   UNL d   1       2.504  -2.950  14.985 -0.30 +0.00    -0.021 A 
DOCKED: ATOM     12  C   UNL d   1       1.858  -2.848  16.203 -0.40 -0.00    +0.000 A 
DOCKED: ATOM     13  C   UNL d   1       2.834  -2.340  17.104 -0.26 -0.02    +0.070 A 
DOCKED: ATOM     14  C   UNL d   1       1.897  -3.461  13.683 -0.39 -0.01    +0.052 C 
DOCKED: ATOM     15  C   UNL d   1       3.594  -1.547  19.337 -0.15 -0.03    +0.066 A 
DOCKED: ATOM     16  C   UNL d   1       3.286  -1.158  20.641 -0.14 +0.01    -0.021 A 
DOCKED: ATOM     17  C   UNL d   1       4.481  -0.730  21.218 -0.13 -0.00    +0.000 A 
DOCKED: ATOM     18  C   UNL d   1       5.442  -0.893  20.211 -0.12 -0.01    +0.070 A 
DOCKED: ATOM     19  C   UNL d   1       1.883  -1.178  21.195 +0.08 -0.06    +0.052 C 
DOCKED: ATOM     20  C   UNL d   1       7.831  -0.712  19.399 +0.06 +0.01    +0.066 A 
DOCKED: ATOM     21  C   UNL d   1       9.182  -0.445  19.600 -0.03 -0.00    -0.025 A 
DOCKED: ATOM     22  C   UNL d   1       9.817  -0.733  18.413 -0.05 -0.01    -0.021 A 
DOCKED: ATOM     23  C   UNL d   1       8.824  -1.150  17.522 -0.06 +0.02    +0.066 A 
DOCKED: ATOM     24  C   UNL d   1       9.833   0.063  20.860 -0.06 +0.01    +0.051 C 
DOCKED: ATOM     25  N   UNL d   1       6.761  -1.921  15.514 -0.09 -0.01    -0.248 N 
DOCKED: ATOM     26  N   UNL d   1       4.024  -2.140  16.482 -0.14 +0.06    -0.248 N 
DOCKED: ATOM     27  N   UNL d   1       4.874  -1.319  19.054 -0.08 +0.05    -0.248 N 
DOCKED: ATOM     28  N   UNL d   1       7.612  -1.092  18.112 -0.05 -0.04    -0.248 N 
DOCKED: ATOM     29 FE   UNL d   1       5.829  -1.611  17.305 -0.04 -0.00    +0.000 Fe
DOCKED: ATOM     30  O   UNL d   1       5.506  -0.530  16.233 -0.43 -0.00    +0.000 OA
DOCKED: ATOM     31  O   UNL d   1       5.732  -0.101  17.732 -0.50 +0.00    +0.000 OA
DOCKED: ENDROOT
DOCKED: BRANCH   6  32
DOCKED: ATOM     32  C   UNL d   1       9.616  -1.952  13.132 -0.10 +0.01    +0.052 C 
DOCKED: BRANCH  32  33
DOCKED: ATOM     33  C   UNL d   1       9.576  -0.858  12.070 -0.20 +0.04    +0.115 C 
DOCKED: BRANCH  33  34
DOCKED: ATOM     34  C   UNL d   1      10.281  -1.263  10.800 -0.13 +0.09    +0.139 C 
DOCKED: ATOM     35  O   UNL d   1      10.843  -0.415  10.125 -0.56 -0.46    -0.650 OA
DOCKED: BRANCH  34  36
DOCKED: ATOM     36  O   UNL d   1      10.283  -2.543  10.373 -0.25 -0.97    -0.776 OA
DOCKED: ATOM     37  H   UNL d   1       9.846  -3.246  10.867 +0.04 +0.17    +0.167 HD
DOCKED: ENDBRANCH  34  36
DOCKED: ENDBRANCH  33  34
DOCKED: ENDBRANCH  32  33
DOCKED: ENDBRANCH   6  32
DOCKED: BRANCH  22  38
DOCKED: ATOM     38  C   UNL d   1      11.288  -0.554  18.138 -0.06 +0.01    +0.052 C 
DOCKED: BRANCH  38  39
DOCKED: ATOM     39  C   UNL d   1      11.564   0.603  17.180 -0.10 +0.04    +0.115 C 
DOCKED: BRANCH  39  40
DOCKED: ATOM     40  C   UNL d   1      11.341   1.949  17.822 -0.15 +0.08    +0.139 C 
DOCKED: ATOM     41  O   UNL d   1      11.371   2.054  19.037 -0.03 -0.32    -0.650 OA
DOCKED: BRANCH  40  42
DOCKED: ATOM     42  O   UNL d   1      11.157   3.054  17.074 -0.49 -0.98    -0.776 OA
DOCKED: ATOM     43  H   UNL d   1      10.401   3.638  17.213 -0.34 +0.28    +0.167 HD
DOCKED: ENDBRANCH  40  42
DOCKED: ENDBRANCH  39  40
DOCKED: ENDBRANCH  38  39
DOCKED: ENDBRANCH  22  38
DOCKED: BRANCH  12  44
DOCKED: ATOM     44  C   UNL d   1       0.404  -3.234  16.376 -0.41 -0.00    +0.004 C 
DOCKED: ATOM     45  C   UNL d   1      -0.516  -2.640  17.136 -0.42 -0.00    +0.012 C 
DOCKED: ENDBRANCH  12  44
DOCKED: BRANCH  17  46
DOCKED: ATOM     46  C   UNL d   1       4.769  -0.145  22.575 -0.11 -0.00    +0.004 C 
DOCKED: ATOM     47  C   UNL d   1       5.079   1.121  22.882 -0.13 -0.01    +0.012 C 
DOCKED: ENDBRANCH  17  46
DOCKED: TORSDOF 10
DOCKED: TER
DOCKED: ENDMDL
________________________________________________________________________________


	BEGINNING GENETIC ALGORITHM DOCKING 55 of 100
Run: 55 Seed: 665768287 266428802 [ Run 55 of 100 GA/GALS ]
Beginning LAMARCKIAN GENETIC ALGORITHM (LGA), with a maximum of 25000000 energy evaluations.

Final-Value: -10.803


	FINAL GENETIC ALGORITHM DOCKED STATE
	_______________________________________________


Detailed state:  trans 12.973 -7.733 5.852 quatxyzw 0.409936 -0.712729 -0.510440 0.251837 center 8.287 34.468 -0.670 ntor 10 -54.1237 172.7957 95.7828 93.7378 8.2287 -68.2057 -106.6639 116.8871 146.8113 166.4322
State:	 12.973  -7.733   5.852   0.424 -0.736 -0.527 150.827    -54.12  172.80   95.78   93.74    8.23  -68.21 -106.66  116.89  146.81  166.43

DOCKED: MODEL       55
DOCKED: USER    Run = 55
DOCKED: USER    DPF = D:/Protein_go_brrr/autodock/final/mut_N102T/heme_O2/dock.dpf
DOCKED: USER  
DOCKED: USER    Estimated Free Energy of Binding    =   -5.88 kcal/mol  [=(1)+(2)+(3)-(4)]
DOCKED: USER    Estimated Inhibition Constant, Ki   =   48.84 uM (micromolar)  [Temperature = 298.15 K]
DOCKED: USER    
DOCKED: USER    (1) Final Intermolecular Energy     =   -8.86 kcal/mol
DOCKED: USER        vdW + Hbond + desolv Energy     =   -6.07 kcal/mol
DOCKED: USER        Electrostatic Energy            =   -2.80 kcal/mol
DOCKED: USER    (2) Final Total Internal Energy     =   -1.94 kcal/mol
DOCKED: USER    (3) Torsional Free Energy           =   +2.98 kcal/mol
DOCKED: USER    (4) Unbound System's Energy  [=(2)] =   -1.94 kcal/mol
DOCKED: USER    
DOCKED: USER    
DOCKED: USER    NEWDPF move heme_O2_opt.pdbqt
DOCKED: USER    NEWDPF about 8.287000 34.468000 -0.670000
DOCKED: USER    NEWDPF tran0 12.972788 -7.732798 5.851855
DOCKED: USER    NEWDPF quaternion0 0.409936 -0.712729 -0.510440 0.251837
DOCKED: USER    NEWDPF axisangle0 0.423588 -0.736465 -0.527439 150.827463
DOCKED: USER    NEWDPF quat0 0.423588 -0.736465 -0.527439 150.827463
DOCKED: USER    NEWDPF dihe0 -54.12 172.80 95.78 93.74 8.23 -68.21 -106.66 116.89 146.81 166.43 
DOCKED: USER  keepresnum = 1 
DOCKED: USER  
DOCKED: REMARK  10 active torsions:
DOCKED: REMARK  status: ('A' for Active; 'I' for Inactive)
DOCKED: REMARK    1  A    between atoms: C_6  and  C_10 
DOCKED: REMARK    2  A    between atoms: C_10  and  C_11 
DOCKED: REMARK    3  A    between atoms: C_11  and  C_12 
DOCKED: REMARK    4  A    between atoms: C_12  and  O_14 
DOCKED: REMARK    5  A    between atoms: C_17  and  C_20 
DOCKED: REMARK    6  A    between atoms: C_24  and  C_27 
DOCKED: REMARK    7  A    between atoms: C_31  and  C_34 
DOCKED: REMARK    8  A    between atoms: C_34  and  C_35 
DOCKED: REMARK    9  A    between atoms: C_35  and  C_36 
DOCKED: REMARK   10  A    between atoms: C_36  and  O_38 
DOCKED: USER                              x       y       z     vdW  Elec       q    Type
DOCKED: USER                           _______ _______ _______ _____ _____    ______ ____
DOCKED: ROOT
DOCKED: ATOM      1  C   UNL d   1      13.518  -7.782   7.901 -0.06 +0.04    +0.064 A 
DOCKED: ATOM      2  C   UNL d   1      14.961  -5.093   4.261 -0.06 +0.01    +0.064 A 
DOCKED: ATOM      3  C   UNL d   1      12.034  -7.433   1.253 -0.17 -0.04    +0.064 C 
DOCKED: ATOM      4  C   UNL d   1      10.192  -9.885   5.081 -0.20 +0.01    +0.064 A 
DOCKED: ATOM      5  C   UNL d   1      14.148  -6.859   7.157 -0.06 +0.04    +0.066 A 
DOCKED: ATOM      6  C   UNL d   1      15.112  -5.977   7.654 -0.06 -0.01    -0.021 A 
DOCKED: ATOM      7  C   UNL d   1      15.499  -5.169   6.611 -0.06 -0.01    -0.025 A 
DOCKED: ATOM      8  C   UNL d   1      14.796  -5.612   5.494 -0.07 +0.03    +0.066 A 
DOCKED: ATOM      9  C   UNL d   1      16.476  -4.019   6.723 -0.04 +0.01    +0.051 C 
DOCKED: ATOM     10  C   UNL d   1      14.270  -5.531   3.048 -0.06 +0.00    +0.066 A 
DOCKED: ATOM     11  C   UNL d   1      14.597  -5.071   1.767 -0.06 +0.00    -0.021 A 
DOCKED: ATOM     12  C   UNL d   1      13.776  -5.747   0.884 -0.12 -0.00    +0.000 A 
DOCKED: ATOM     13  C   UNL d   1      12.968  -6.591   1.695 -0.11 -0.02    +0.070 A 
DOCKED: ATOM     14  C   UNL d   1      15.667  -4.049   1.400 -0.05 -0.00    +0.052 C 
DOCKED: ATOM     15  C   UNL d   1      11.171  -8.278   2.042 -0.14 -0.02    +0.066 A 
DOCKED: ATOM     16  C   UNL d   1      10.102  -9.014   1.532 -0.24 +0.01    -0.021 A 
DOCKED: ATOM     17  C   UNL d   1       9.561  -9.721   2.605 -0.27 -0.00    +0.000 A 
DOCKED: ATOM     18  C   UNL d   1      10.352  -9.360   3.705 -0.16 +0.00    +0.070 A 
DOCKED: ATOM     19  C   UNL d   1       9.663  -8.935   0.091 -0.31 -0.04    +0.052 C 
DOCKED: ATOM     20  C   UNL d   1      10.905  -9.528   6.167 -0.14 +0.02    +0.066 A 
DOCKED: ATOM     21  C   UNL d   1      10.720 -10.071   7.436 -0.18 -0.01    -0.025 A 
DOCKED: ATOM     22  C   UNL d   1      11.677  -9.504   8.246 -0.10 -0.01    -0.021 A 
DOCKED: ATOM     23  C   UNL d   1      12.402  -8.618   7.443 -0.08 +0.03    +0.066 A 
DOCKED: ATOM     24  C   UNL d   1       9.680 -11.079   7.854 -0.31 +0.01    +0.051 C 
DOCKED: ATOM     25  N   UNL d   1      13.916  -6.609   5.845 -0.06 -0.12    -0.248 N 
DOCKED: ATOM     26  N   UNL d   1      13.272  -6.450   3.010 -0.04 -0.00    -0.248 N 
DOCKED: ATOM     27  N   UNL d   1      11.276  -8.427   3.360 -0.05 +0.00    -0.248 N 
DOCKED: ATOM     28  N   UNL d   1      11.900  -8.603   6.191 -0.05 -0.09    -0.248 N 
DOCKED: ATOM     29 FE   UNL d   1      12.579  -7.535   4.611 -0.02 +0.00    +0.000 Fe
DOCKED: ATOM     30  O   UNL d   1      12.232  -6.048   4.910 -0.04 +0.00    +0.000 OA
DOCKED: ATOM     31  O   UNL d   1      11.081  -7.121   4.851 -0.19 +0.00    +0.000 OA
DOCKED: ENDROOT
DOCKED: BRANCH   6  32
DOCKED: ATOM     32  C   UNL d   1      15.555  -5.805   9.084 -0.03 +0.02    +0.052 C 
DOCKED: BRANCH  32  33
DOCKED: ATOM     33  C   UNL d   1      15.531  -4.349   9.541 -0.04 +0.06    +0.115 C 
DOCKED: BRANCH  33  34
DOCKED: ATOM     34  C   UNL d   1      14.128  -3.823   9.709 +0.11 +0.16    +0.139 C 
DOCKED: ATOM     35  O   UNL d   1      13.875  -2.670   9.398 -0.49 -0.72    -0.650 OA
DOCKED: BRANCH  34  36
DOCKED: ATOM     36  O   UNL d   1      13.145  -4.590  10.225 -0.10 -1.18    -0.776 OA
DOCKED: ATOM     37  H   UNL d   1      12.932  -5.458   9.864 +0.01 +0.28    +0.167 HD
DOCKED: ENDBRANCH  34  36
DOCKED: ENDBRANCH  33  34
DOCKED: ENDBRANCH  32  33
DOCKED: ENDBRANCH   6  32
DOCKED: BRANCH  22  38
DOCKED: ATOM     38  C   UNL d   1      11.839  -9.755   9.723 -0.09 +0.02    +0.052 C 
DOCKED: BRANCH  38  39
DOCKED: ATOM     39  C   UNL d   1      11.057  -8.755  10.572 -0.10 +0.05    +0.115 C 
DOCKED: BRANCH  39  40
DOCKED: ATOM     40  C   UNL d   1      11.561  -7.343  10.410 -0.10 +0.11    +0.139 C 
DOCKED: ATOM     41  O   UNL d   1      11.278  -6.709   9.406 -0.39 -1.08    -0.650 OA
DOCKED: BRANCH  40  42
DOCKED: ATOM     42  O   UNL d   1      12.279  -6.745  11.381 +0.02 -0.47    -0.776 OA
DOCKED: ATOM     43  H   UNL d   1      12.658  -5.866  11.259 +0.01 +0.13    +0.167 HD
DOCKED: ENDBRANCH  40  42
DOCKED: ENDBRANCH  39  40
DOCKED: ENDBRANCH  38  39
DOCKED: ENDBRANCH  22  38
DOCKED: BRANCH  12  44
DOCKED: ATOM     44  C   UNL d   1      13.844  -5.520  -0.611 -0.19 -0.00    +0.004 C 
DOCKED: ATOM     45  C   UNL d   1      13.181  -4.616  -1.333 -0.26 -0.01    +0.012 C 
DOCKED: ENDBRANCH  12  44
DOCKED: BRANCH  17  46
DOCKED: ATOM     46  C   UNL d   1       8.365 -10.631   2.687 -0.32 -0.00    +0.004 C 
DOCKED: ATOM     47  C   UNL d   1       8.307 -11.948   2.446 -0.54 -0.00    +0.012 C 
DOCKED: ENDBRANCH  17  46
DOCKED: TORSDOF 10
DOCKED: TER
DOCKED: ENDMDL
________________________________________________________________________________


	BEGINNING GENETIC ALGORITHM DOCKING 56 of 100
Run: 56 Seed: 54807414 264092173 [ Run 56 of 100 GA/GALS ]
Beginning LAMARCKIAN GENETIC ALGORITHM (LGA), with a maximum of 25000000 energy evaluations.

Final-Value: -9.280


	FINAL GENETIC ALGORITHM DOCKED STATE
	_______________________________________________


Detailed state:  trans -10.972 5.868 11.452 quatxyzw -0.520643 0.736862 0.177950 0.392808 center 8.287 34.468 -0.670 ntor 10 -173.7404 -4.2862 4.8284 118.1285 49.8620 -66.3176 -115.6926 -153.2613 -177.4262 155.6962
State:	-10.972   5.868  11.452  -0.566  0.801  0.194 133.741   -173.74   -4.29    4.83  118.13   49.86  -66.32 -115.69 -153.26 -177.43  155.70

DOCKED: MODEL       56
DOCKED: USER    Run = 56
DOCKED: USER    DPF = D:/Protein_go_brrr/autodock/final/mut_N102T/heme_O2/dock.dpf
DOCKED: USER  
DOCKED: USER    Estimated Free Energy of Binding    =   -3.84 kcal/mol  [=(1)+(2)+(3)-(4)]
DOCKED: USER    Estimated Inhibition Constant, Ki   =    1.53 mM (millimolar)  [Temperature = 298.15 K]
DOCKED: USER    
DOCKED: USER    (1) Final Intermolecular Energy     =   -6.82 kcal/mol
DOCKED: USER        vdW + Hbond + desolv Energy     =   -6.87 kcal/mol
DOCKED: USER        Electrostatic Energy            =   +0.04 kcal/mol
DOCKED: USER    (2) Final Total Internal Energy     =   -2.46 kcal/mol
DOCKED: USER    (3) Torsional Free Energy           =   +2.98 kcal/mol
DOCKED: USER    (4) Unbound System's Energy  [=(2)] =   -2.46 kcal/mol
DOCKED: USER    
DOCKED: USER    
DOCKED: USER    NEWDPF move heme_O2_opt.pdbqt
DOCKED: USER    NEWDPF about 8.287000 34.468000 -0.670000
DOCKED: USER    NEWDPF tran0 -10.972040 5.867976 11.452077
DOCKED: USER    NEWDPF quaternion0 -0.520643 0.736862 0.177950 0.392808
DOCKED: USER    NEWDPF axisangle0 -0.566150 0.801268 0.193504 133.741310
DOCKED: USER    NEWDPF quat0 -0.566150 0.801268 0.193504 133.741310
DOCKED: USER    NEWDPF dihe0 -173.74 -4.29 4.83 118.13 49.86 -66.32 -115.69 -153.26 -177.43 155.70 
DOCKED: USER  keepresnum = 1 
DOCKED: USER  
DOCKED: REMARK  10 active torsions:
DOCKED: REMARK  status: ('A' for Active; 'I' for Inactive)
DOCKED: REMARK    1  A    between atoms: C_6  and  C_10 
DOCKED: REMARK    2  A    between atoms: C_10  and  C_11 
DOCKED: REMARK    3  A    between atoms: C_11  and  C_12 
DOCKED: REMARK    4  A    between atoms: C_12  and  O_14 
DOCKED: REMARK    5  A    between atoms: C_17  and  C_20 
DOCKED: REMARK    6  A    between atoms: C_24  and  C_27 
DOCKED: REMARK    7  A    between atoms: C_31  and  C_34 
DOCKED: REMARK    8  A    between atoms: C_34  and  C_35 
DOCKED: REMARK    9  A    between atoms: C_35  and  C_36 
DOCKED: REMARK   10  A    between atoms: C_36  and  O_38 
DOCKED: USER                              x       y       z     vdW  Elec       q    Type
DOCKED: USER                           _______ _______ _______ _____ _____    ______ ____
DOCKED: ROOT
DOCKED: ATOM      1  C   UNL d   1     -10.459   7.919  11.623 -0.27 +0.00    +0.064 A 
DOCKED: ATOM      2  C   UNL d   1     -11.756   5.233   7.926 -0.20 -0.00    +0.064 A 
DOCKED: ATOM      3  C   UNL d   1     -12.079   1.352  10.742 -0.23 -0.01    +0.064 C 
DOCKED: ATOM      4  C   UNL d   1     -11.210   4.205  14.636 -0.13 +0.01    +0.064 A 
DOCKED: ATOM      5  C   UNL d   1     -10.788   7.506  10.388 -0.30 -0.00    +0.066 A 
DOCKED: ATOM      6  C   UNL d   1     -10.794   8.333   9.261 -0.29 +0.00    -0.021 A 
DOCKED: ATOM      7  C   UNL d   1     -11.211   7.567   8.198 -0.30 +0.00    -0.025 A 
DOCKED: ATOM      8  C   UNL d   1     -11.402   6.281   8.696 -0.29 -0.00    +0.066 A 
DOCKED: ATOM      9  C   UNL d   1     -11.434   8.083   6.794 -0.27 -0.01    +0.051 C 
DOCKED: ATOM     10  C   UNL d   1     -11.949   3.857   8.387 -0.23 -0.00    +0.066 A 
DOCKED: ATOM     11  C   UNL d   1     -12.156   2.778   7.520 -0.25 +0.00    -0.021 A 
DOCKED: ATOM     12  C   UNL d   1     -12.234   1.647   8.312 -0.23 -0.00    +0.000 A 
DOCKED: ATOM     13  C   UNL d   1     -12.078   2.113   9.647 -0.20 -0.01    +0.070 A 
DOCKED: ATOM     14  C   UNL d   1     -12.249   2.820   6.000 -0.26 -0.00    +0.052 C 
DOCKED: ATOM     15  C   UNL d   1     -11.960   1.788  12.112 -0.20 -0.00    +0.066 A 
DOCKED: ATOM     16  C   UNL d   1     -12.132   0.962  13.222 -0.13 -0.00    -0.021 A 
DOCKED: ATOM     17  C   UNL d   1     -11.891   1.754  14.345 -0.12 +0.00    +0.000 A 
DOCKED: ATOM     18  C   UNL d   1     -11.582   3.020  13.828 -0.14 +0.01    +0.070 A 
DOCKED: ATOM     19  C   UNL d   1     -12.563  -0.479  13.116 -0.07 -0.00    +0.052 C 
DOCKED: ATOM     20  C   UNL d   1     -10.951   5.445  14.176 -0.07 +0.01    +0.066 A 
DOCKED: ATOM     21  C   UNL d   1     -10.588   6.518  14.985 -0.15 -0.00    -0.025 A 
DOCKED: ATOM     22  C   UNL d   1     -10.344   7.577  14.141 -0.21 -0.00    -0.021 A 
DOCKED: ATOM     23  C   UNL d   1     -10.585   7.115  12.844 -0.26 +0.00    +0.066 A 
DOCKED: ATOM     24  C   UNL d   1     -10.483   6.532  16.488 -0.08 +0.00    +0.051 C 
DOCKED: ATOM     25  N   UNL d   1     -11.204   6.259  10.057 -0.16 +0.00    -0.248 N 
DOCKED: ATOM     26  N   UNL d   1     -11.910   3.459   9.684 -0.15 +0.02    -0.248 N 
DOCKED: ATOM     27  N   UNL d   1     -11.702   3.041  12.476 -0.12 -0.00    -0.248 N 
DOCKED: ATOM     28  N   UNL d   1     -10.997   5.831  12.873 -0.13 -0.02    -0.248 N 
DOCKED: ATOM     29 FE   UNL d   1     -11.451   4.651  11.292 -0.06 -0.00    +0.000 Fe
DOCKED: ATOM     30  O   UNL d   1     -12.783   5.204  10.706 -0.15 -0.00    +0.000 OA
DOCKED: ATOM     31  O   UNL d   1     -12.728   4.727  12.206 -0.14 -0.00    +0.000 OA
DOCKED: ENDROOT
DOCKED: BRANCH   6  32
DOCKED: ATOM     32  C   UNL d   1     -10.551   9.819   9.206 -0.24 -0.01    +0.052 C 
DOCKED: BRANCH  32  33
DOCKED: ATOM     33  C   UNL d   1     -11.839  10.633   9.280 -0.08 -0.01    +0.115 C 
DOCKED: BRANCH  33  34
DOCKED: ATOM     34  C   UNL d   1     -12.581  10.419  10.576 -0.03 -0.01    +0.139 C 
DOCKED: ATOM     35  O   UNL d   1     -13.547   9.673  10.602 +0.02 +0.03    -0.650 OA
DOCKED: BRANCH  34  36
DOCKED: ATOM     36  O   UNL d   1     -12.219  11.057  11.708 +0.03 +0.03    -0.776 OA
DOCKED: ATOM     37  H   UNL d   1     -12.626  10.859  12.559 +0.01 -0.01    +0.167 HD
DOCKED: ENDBRANCH  34  36
DOCKED: ENDBRANCH  33  34
DOCKED: ENDBRANCH  32  33
DOCKED: ENDBRANCH   6  32
DOCKED: BRANCH  22  38
DOCKED: ATOM     38  C   UNL d   1      -9.963   8.971  14.568 -0.16 +0.00    +0.052 C 
DOCKED: BRANCH  38  39
DOCKED: ATOM     39  C   UNL d   1     -11.139   9.943  14.499 -0.05 -0.00    +0.115 C 
DOCKED: BRANCH  39  40
DOCKED: ATOM     40  C   UNL d   1     -12.470   9.247  14.632 -0.02 -0.00    +0.139 C 
DOCKED: ATOM     41  O   UNL d   1     -12.865   8.899  15.734 +0.01 +0.02    -0.650 OA
DOCKED: BRANCH  40  42
DOCKED: ATOM     42  O   UNL d   1     -13.261   9.045  13.560 +0.02 +0.02    -0.776 OA
DOCKED: ATOM     43  H   UNL d   1     -13.010   9.358  12.683 +0.02 -0.00    +0.167 HD
DOCKED: ENDBRANCH  40  42
DOCKED: ENDBRANCH  39  40
DOCKED: ENDBRANCH  38  39
DOCKED: ENDBRANCH  22  38
DOCKED: BRANCH  12  44
DOCKED: ATOM     44  C   UNL d   1     -12.448   0.268   7.725 -0.24 -0.00    +0.004 C 
DOCKED: ATOM     45  C   UNL d   1     -12.549  -0.892   8.374 -0.19 -0.00    +0.012 C 
DOCKED: ENDBRANCH  12  44
DOCKED: BRANCH  17  46
DOCKED: ATOM     46  C   UNL d   1     -11.981   1.440  15.814 -0.07 +0.00    +0.004 C 
DOCKED: ATOM     47  C   UNL d   1     -10.984   1.345  16.704 -0.10 +0.00    +0.012 C 
DOCKED: ENDBRANCH  17  46
DOCKED: TORSDOF 10
DOCKED: TER
DOCKED: ENDMDL
________________________________________________________________________________


	BEGINNING GENETIC ALGORITHM DOCKING 57 of 100
Run: 57 Seed: 996584369 1910901760 [ Run 57 of 100 GA/GALS ]
Beginning LAMARCKIAN GENETIC ALGORITHM (LGA), with a maximum of 25000000 energy evaluations.

Final-Value: -9.699


	FINAL GENETIC ALGORITHM DOCKED STATE
	_______________________________________________


Detailed state:  trans -12.642 5.047 7.035 quatxyzw 0.505372 -0.070428 0.701929 0.496926 center 8.287 34.468 -0.670 ntor 10 123.4110 -52.4652 32.4502 -40.8872 -91.1400 -171.6475 -61.7529 -56.2938 -161.1021 -179.0495
State:	-12.642   5.047   7.035   0.582 -0.081  0.809 120.406    123.41  -52.47   32.45  -40.89  -91.14 -171.65  -61.75  -56.29 -161.10 -179.05

DOCKED: MODEL       57
DOCKED: USER    Run = 57
DOCKED: USER    DPF = D:/Protein_go_brrr/autodock/final/mut_N102T/heme_O2/dock.dpf
DOCKED: USER  
DOCKED: USER    Estimated Free Energy of Binding    =   -6.02 kcal/mol  [=(1)+(2)+(3)-(4)]
DOCKED: USER    Estimated Inhibition Constant, Ki   =   38.51 uM (micromolar)  [Temperature = 298.15 K]
DOCKED: USER    
DOCKED: USER    (1) Final Intermolecular Energy     =   -9.01 kcal/mol
DOCKED: USER        vdW + Hbond + desolv Energy     =   -7.97 kcal/mol
DOCKED: USER        Electrostatic Energy            =   -1.03 kcal/mol
DOCKED: USER    (2) Final Total Internal Energy     =   -0.69 kcal/mol
DOCKED: USER    (3) Torsional Free Energy           =   +2.98 kcal/mol
DOCKED: USER    (4) Unbound System's Energy  [=(2)] =   -0.69 kcal/mol
DOCKED: USER    
DOCKED: USER    
DOCKED: USER    NEWDPF move heme_O2_opt.pdbqt
DOCKED: USER    NEWDPF about 8.287000 34.468000 -0.670000
DOCKED: USER    NEWDPF tran0 -12.642392 5.047390 7.035304
DOCKED: USER    NEWDPF quaternion0 0.505372 -0.070428 0.701929 0.496926
DOCKED: USER    NEWDPF axisangle0 0.582364 -0.081158 0.808867 120.406310
DOCKED: USER    NEWDPF quat0 0.582364 -0.081158 0.808867 120.406310
DOCKED: USER    NEWDPF dihe0 123.41 -52.47 32.45 -40.89 -91.14 -171.65 -61.75 -56.29 -161.10 -179.05 
DOCKED: USER  keepresnum = 1 
DOCKED: USER  
DOCKED: REMARK  10 active torsions:
DOCKED: REMARK  status: ('A' for Active; 'I' for Inactive)
DOCKED: REMARK    1  A    between atoms: C_6  and  C_10 
DOCKED: REMARK    2  A    between atoms: C_10  and  C_11 
DOCKED: REMARK    3  A    between atoms: C_11  and  C_12 
DOCKED: REMARK    4  A    between atoms: C_12  and  O_14 
DOCKED: REMARK    5  A    between atoms: C_17  and  C_20 
DOCKED: REMARK    6  A    between atoms: C_24  and  C_27 
DOCKED: REMARK    7  A    between atoms: C_31  and  C_34 
DOCKED: REMARK    8  A    between atoms: C_34  and  C_35 
DOCKED: REMARK    9  A    between atoms: C_35  and  C_36 
DOCKED: REMARK   10  A    between atoms: C_36  and  O_38 
DOCKED: USER                              x       y       z     vdW  Elec       q    Type
DOCKED: USER                           _______ _______ _______ _____ _____    ______ ____
DOCKED: ROOT
DOCKED: ATOM      1  C   UNL d   1     -12.898   5.864   5.094 -0.10 +0.00    +0.064 A 
DOCKED: ATOM      2  C   UNL d   1     -11.711   7.809   9.262 -0.18 -0.00    +0.064 A 
DOCKED: ATOM      3  C   UNL d   1     -12.080   3.551  11.459 -0.15 -0.00    +0.064 C 
DOCKED: ATOM      4  C   UNL d   1     -12.834   1.453   7.089 -0.15 -0.01    +0.064 A 
DOCKED: ATOM      5  C   UNL d   1     -12.543   6.740   6.048 -0.12 -0.00    +0.066 A 
DOCKED: ATOM      6  C   UNL d   1     -12.355   8.107   5.824 -0.16 +0.00    -0.021 A 
DOCKED: ATOM      7  C   UNL d   1     -11.969   8.664   7.021 -0.17 +0.00    -0.025 A 
DOCKED: ATOM      8  C   UNL d   1     -11.979   7.630   7.954 -0.18 -0.00    +0.066 A 
DOCKED: ATOM      9  C   UNL d   1     -11.587  10.115   7.218 -0.16 -0.01    +0.051 C 
DOCKED: ATOM     10  C   UNL d   1     -11.728   6.768  10.291 -0.19 -0.00    +0.066 A 
DOCKED: ATOM     11  C   UNL d   1     -11.603   7.036  11.658 -0.18 -0.00    -0.021 A 
DOCKED: ATOM     12  C   UNL d   1     -11.725   5.823  12.310 -0.17 +0.00    +0.000 A 
DOCKED: ATOM     13  C   UNL d   1     -11.909   4.860  11.279 -0.10 -0.00    +0.070 A 
DOCKED: ATOM     14  C   UNL d   1     -11.404   8.396  12.317 -0.15 +0.00    +0.052 C 
DOCKED: ATOM     15  C   UNL d   1     -12.234   2.539  10.441 -0.18 -0.01    +0.066 A 
DOCKED: ATOM     16  C   UNL d   1     -12.244   1.166  10.686 -0.20 +0.00    -0.021 A 
DOCKED: ATOM     17  C   UNL d   1     -12.457   0.548   9.454 -0.18 -0.00    +0.000 A 
DOCKED: ATOM     18  C   UNL d   1     -12.564   1.604   8.538 -0.17 -0.01    +0.070 A 
DOCKED: ATOM     19  C   UNL d   1     -11.996   0.572  12.050 -0.20 -0.00    +0.052 C 
DOCKED: ATOM     20  C   UNL d   1     -12.901   2.441   6.176 -0.14 -0.01    +0.066 A 
DOCKED: ATOM     21  C   UNL d   1     -13.176   2.239   4.826 -0.15 +0.00    -0.025 A 
DOCKED: ATOM     22  C   UNL d   1     -13.225   3.487   4.247 -0.13 -0.00    -0.021 A 
DOCKED: ATOM     23  C   UNL d   1     -12.959   4.407   5.266 -0.13 +0.00    +0.066 A 
DOCKED: ATOM     24  C   UNL d   1     -13.379   0.921   4.124 -0.06 -0.01    +0.051 C 
DOCKED: ATOM     25  N   UNL d   1     -12.269   6.433   7.340 -0.11 +0.01    -0.248 N 
DOCKED: ATOM     26  N   UNL d   1     -11.905   5.443  10.053 -0.13 +0.01    -0.248 N 
DOCKED: ATOM     27  N   UNL d   1     -12.352   2.801   9.142 -0.13 +0.02    -0.248 N 
DOCKED: ATOM     28  N   UNL d   1     -12.718   3.764   6.427 -0.09 +0.01    -0.248 N 
DOCKED: ATOM     29 FE   UNL d   1     -12.314   4.595   8.228 -0.04 -0.00    +0.000 Fe
DOCKED: ATOM     30  O   UNL d   1     -10.886   5.204   8.116 -0.48 +0.00    +0.000 OA
DOCKED: ATOM     31  O   UNL d   1     -11.102   3.665   7.855 -0.66 +0.00    +0.000 OA
DOCKED: ENDROOT
DOCKED: BRANCH   6  32
DOCKED: ATOM     32  C   UNL d   1     -12.400   8.842   4.510 -0.13 -0.00    +0.052 C 
DOCKED: BRANCH  32  33
DOCKED: ATOM     33  C   UNL d   1     -11.136   8.648   3.679 -0.21 -0.00    +0.115 C 
DOCKED: BRANCH  33  34
DOCKED: ATOM     34  C   UNL d   1     -11.405   7.926   2.382 -0.15 +0.01    +0.139 C 
DOCKED: ATOM     35  O   UNL d   1     -11.185   8.488   1.321 -0.01 -0.01    -0.650 OA
DOCKED: BRANCH  34  36
DOCKED: ATOM     36  O   UNL d   1     -11.914   6.676   2.365 -0.32 -0.17    -0.776 OA
DOCKED: ATOM     37  H   UNL d   1     -12.727   6.462   1.893 +0.03 +0.02    +0.167 HD
DOCKED: ENDBRANCH  34  36
DOCKED: ENDBRANCH  33  34
DOCKED: ENDBRANCH  32  33
DOCKED: ENDBRANCH   6  32
DOCKED: BRANCH  22  38
DOCKED: ATOM     38  C   UNL d   1     -13.452   3.769   2.784 -0.11 +0.01    +0.052 C 
DOCKED: BRANCH  38  39
DOCKED: ATOM     39  C   UNL d   1     -12.203   3.515   1.943 -0.20 +0.04    +0.115 C 
DOCKED: BRANCH  39  40
DOCKED: ATOM     40  C   UNL d   1     -12.441   2.508   0.846 +0.01 +0.09    +0.139 C 
DOCKED: ATOM     41  O   UNL d   1     -13.305   1.657   0.982 -0.44 -0.52    -0.650 OA
DOCKED: BRANCH  40  42
DOCKED: ATOM     42  O   UNL d   1     -11.751   2.562  -0.310 -0.35 -0.53    -0.776 OA
DOCKED: ATOM     43  H   UNL d   1     -11.670   3.382  -0.812 +0.04 +0.06    +0.167 HD
DOCKED: ENDBRANCH  40  42
DOCKED: ENDBRANCH  39  40
DOCKED: ENDBRANCH  38  39
DOCKED: ENDBRANCH  22  38
DOCKED: BRANCH  12  44
DOCKED: ATOM     44  C   UNL d   1     -11.651   5.710  13.818 -0.17 +0.00    +0.004 C 
DOCKED: ATOM     45  C   UNL d   1     -11.246   4.667  14.542 -0.17 +0.00    +0.012 C 
DOCKED: ENDBRANCH  12  44
DOCKED: BRANCH  17  46
DOCKED: ATOM     46  C   UNL d   1     -12.507  -0.908   9.075 -0.18 -0.00    +0.004 C 
DOCKED: ATOM     47  C   UNL d   1     -11.647  -1.881   9.406 -0.28 -0.01    +0.012 C 
DOCKED: ENDBRANCH  17  46
DOCKED: TORSDOF 10
DOCKED: TER
DOCKED: ENDMDL
________________________________________________________________________________


	BEGINNING GENETIC ALGORITHM DOCKING 58 of 100
Run: 58 Seed: 563552708 413359994 [ Run 58 of 100 GA/GALS ]
Beginning LAMARCKIAN GENETIC ALGORITHM (LGA), with a maximum of 25000000 energy evaluations.

Final-Value: -11.002


	FINAL GENETIC ALGORITHM DOCKED STATE
	_______________________________________________


Detailed state:  trans 11.369 1.006 13.997 quatxyzw -0.192505 -0.291326 0.272871 -0.896444 center 8.287 34.468 -0.670 ntor 10 102.2294 -121.6914 51.9827 -120.0279 -132.0485 60.4808 105.1161 -88.9152 22.0594 -22.5356
State:	 11.369   1.006  13.997  -0.434 -0.657  0.616 -52.611    102.23 -121.69   51.98 -120.03 -132.05   60.48  105.12  -88.92   22.06  -22.54

DOCKED: MODEL       58
DOCKED: USER    Run = 58
DOCKED: USER    DPF = D:/Protein_go_brrr/autodock/final/mut_N102T/heme_O2/dock.dpf
DOCKED: USER  
DOCKED: USER    Estimated Free Energy of Binding    =   -6.02 kcal/mol  [=(1)+(2)+(3)-(4)]
DOCKED: USER    Estimated Inhibition Constant, Ki   =   38.99 uM (micromolar)  [Temperature = 298.15 K]
DOCKED: USER    
DOCKED: USER    (1) Final Intermolecular Energy     =   -9.00 kcal/mol
DOCKED: USER        vdW + Hbond + desolv Energy     =   -6.47 kcal/mol
DOCKED: USER        Electrostatic Energy            =   -2.53 kcal/mol
DOCKED: USER    (2) Final Total Internal Energy     =   -2.00 kcal/mol
DOCKED: USER    (3) Torsional Free Energy           =   +2.98 kcal/mol
DOCKED: USER    (4) Unbound System's Energy  [=(2)] =   -2.00 kcal/mol
DOCKED: USER    
DOCKED: USER    
DOCKED: USER    NEWDPF move heme_O2_opt.pdbqt
DOCKED: USER    NEWDPF about 8.287000 34.468000 -0.670000
DOCKED: USER    NEWDPF tran0 11.369434 1.005630 13.997010
DOCKED: USER    NEWDPF quaternion0 -0.192505 -0.291326 0.272871 -0.896444
DOCKED: USER    NEWDPF axisangle0 -0.434394 -0.657389 0.615745 -52.610851
DOCKED: USER    NEWDPF quat0 -0.434394 -0.657389 0.615745 -52.610851
DOCKED: USER    NEWDPF dihe0 102.23 -121.69 51.98 -120.03 -132.05 60.48 105.12 -88.92 22.06 -22.54 
DOCKED: USER  keepresnum = 1 
DOCKED: USER  
DOCKED: REMARK  10 active torsions:
DOCKED: REMARK  status: ('A' for Active; 'I' for Inactive)
DOCKED: REMARK    1  A    between atoms: C_6  and  C_10 
DOCKED: REMARK    2  A    between atoms: C_10  and  C_11 
DOCKED: REMARK    3  A    between atoms: C_11  and  C_12 
DOCKED: REMARK    4  A    between atoms: C_12  and  O_14 
DOCKED: REMARK    5  A    between atoms: C_17  and  C_20 
DOCKED: REMARK    6  A    between atoms: C_24  and  C_27 
DOCKED: REMARK    7  A    between atoms: C_31  and  C_34 
DOCKED: REMARK    8  A    between atoms: C_34  and  C_35 
DOCKED: REMARK    9  A    between atoms: C_35  and  C_36 
DOCKED: REMARK   10  A    between atoms: C_36  and  O_38 
DOCKED: USER                              x       y       z     vdW  Elec       q    Type
DOCKED: USER                           _______ _______ _______ _____ _____    ______ ____
DOCKED: ROOT
DOCKED: ATOM      1  C   UNL d   1      10.370   0.200  12.308 -0.20 +0.02    +0.064 A 
DOCKED: ATOM      2  C   UNL d   1       9.873  -0.522  16.976 +0.04 +0.02    +0.064 A 
DOCKED: ATOM      3  C   UNL d   1      13.446   2.549  17.925 -0.09 +0.04    +0.064 C 
DOCKED: ATOM      4  C   UNL d   1      13.648   3.662  13.152 -0.16 +0.03    +0.064 A 
DOCKED: ATOM      5  C   UNL d   1       9.942  -0.246  13.501 -0.15 +0.02    +0.066 A 
DOCKED: ATOM      6  C   UNL d   1       8.919  -1.184  13.664 -0.15 -0.00    -0.021 A 
DOCKED: ATOM      7  C   UNL d   1       8.745  -1.362  15.017 -0.13 -0.01    -0.025 A 
DOCKED: ATOM      8  C   UNL d   1       9.700  -0.563  15.641 -0.07 +0.02    +0.066 A 
DOCKED: ATOM      9  C   UNL d   1       7.685  -2.239  15.646 -0.13 +0.01    +0.051 C 
DOCKED: ATOM     10  C   UNL d   1      10.872   0.278  17.687 -0.07 +0.02    +0.066 A 
DOCKED: ATOM     11  C   UNL d   1      11.118   0.159  19.059 -0.07 -0.01    -0.021 A 
DOCKED: ATOM     12  C   UNL d   1      12.157   1.024  19.349 -0.05 +0.00    +0.000 A 
DOCKED: ATOM     13  C   UNL d   1      12.485   1.644  18.112 -0.08 +0.03    +0.070 A 
DOCKED: ATOM     14  C   UNL d   1      10.410  -0.761  20.048 -0.04 +0.01    +0.052 C 
DOCKED: ATOM     15  C   UNL d   1      13.786   3.226  16.697 -0.08 +0.05    +0.066 A 
DOCKED: ATOM     16  C   UNL d   1      14.691   4.282  16.601 -0.07 -0.01    -0.021 A 
DOCKED: ATOM     17  C   UNL d   1      14.764   4.617  15.249 -0.03 +0.00    +0.000 A 
DOCKED: ATOM     18  C   UNL d   1      13.888   3.726  14.613 -0.10 +0.04    +0.070 A 
DOCKED: ATOM     19  C   UNL d   1      15.356   4.908  17.801 -0.06 +0.03    +0.052 C 
DOCKED: ATOM     20  C   UNL d   1      12.783   2.850  12.514 -0.20 +0.02    +0.066 A 
DOCKED: ATOM     21  C   UNL d   1      12.612   2.822  11.132 -0.29 -0.01    -0.025 A 
DOCKED: ATOM     22  C   UNL d   1      11.702   1.823  10.872 -0.33 -0.01    -0.021 A 
DOCKED: ATOM     23  C   UNL d   1      11.335   1.287  12.110 -0.21 +0.02    +0.066 A 
DOCKED: ATOM     24  C   UNL d   1      13.282   3.707  10.113 -0.04 +0.01    +0.051 C 
DOCKED: ATOM     25  N   UNL d   1      10.393   0.174  14.709 -0.10 -0.07    -0.248 N 
DOCKED: ATOM     26  N   UNL d   1      11.695   1.188  17.107 -0.09 -0.11    -0.248 N 
DOCKED: ATOM     27  N   UNL d   1      13.247   2.940  15.515 -0.10 -0.16    -0.248 N 
DOCKED: ATOM     28  N   UNL d   1      11.961   1.945  13.108 -0.12 -0.08    -0.248 N 
DOCKED: ATOM     29 FE   UNL d   1      11.831   1.571  15.093 -0.03 +0.00    +0.000 Fe
DOCKED: ATOM     30  O   UNL d   1      10.400   2.007  15.525 -0.41 +0.00    +0.000 OA
DOCKED: ATOM     31  O   UNL d   1      11.369   3.057  14.862 -0.42 +0.00    +0.000 OA
DOCKED: ENDROOT
DOCKED: BRANCH   6  32
DOCKED: ATOM     32  C   UNL d   1       8.043  -1.790  12.599 -0.22 +0.01    +0.052 C 
DOCKED: BRANCH  32  33
DOCKED: ATOM     33  C   UNL d   1       8.405  -3.239  12.288 -0.15 +0.04    +0.115 C 
DOCKED: BRANCH  33  34
DOCKED: ATOM     34  C   UNL d   1       9.639  -3.352  11.427 -0.14 +0.10    +0.139 C 
DOCKED: ATOM     35  O   UNL d   1      10.741  -3.195  11.929 +0.02 -0.42    -0.650 OA
DOCKED: BRANCH  34  36
DOCKED: ATOM     36  O   UNL d   1       9.553  -3.596  10.103 -0.42 -1.20    -0.776 OA
DOCKED: ATOM     37  H   UNL d   1       9.669  -2.900   9.446 +0.04 +0.32    +0.167 HD
DOCKED: ENDBRANCH  34  36
DOCKED: ENDBRANCH  33  34
DOCKED: ENDBRANCH  32  33
DOCKED: ENDBRANCH   6  32
DOCKED: BRANCH  22  38
DOCKED: ATOM     38  C   UNL d   1      11.170   1.452   9.511 -0.41 +0.02    +0.052 C 
DOCKED: BRANCH  38  39
DOCKED: ATOM     39  C   UNL d   1      12.149   0.586   8.720 -0.36 +0.05    +0.115 C 
DOCKED: BRANCH  39  40
DOCKED: ATOM     40  C   UNL d   1      11.939  -0.888   8.963 -0.04 +0.12    +0.139 C 
DOCKED: ATOM     41  O   UNL d   1      12.865  -1.666   8.801 -0.17 -0.76    -0.650 OA
DOCKED: BRANCH  40  42
DOCKED: ATOM     42  O   UNL d   1      10.758  -1.360   9.406 -0.35 -0.90    -0.776 OA
DOCKED: ATOM     43  H   UNL d   1      10.684  -1.826  10.247 +0.04 +0.17    +0.167 HD
DOCKED: ENDBRANCH  40  42
DOCKED: ENDBRANCH  39  40
DOCKED: ENDBRANCH  38  39
DOCKED: ENDBRANCH  22  38
DOCKED: BRANCH  12  44
DOCKED: ATOM     44  C   UNL d   1      12.716   1.169  20.749 -0.02 +0.00    +0.004 C 
DOCKED: ATOM     45  C   UNL d   1      12.972   2.293  21.416 -0.01 +0.00    +0.012 C 
DOCKED: ENDBRANCH  12  44
DOCKED: BRANCH  17  46
DOCKED: ATOM     46  C   UNL d   1      15.522   5.708  14.540 -0.12 +0.00    +0.004 C 
DOCKED: ATOM     47  C   UNL d   1      15.048   6.631  13.693 -0.16 +0.00    +0.012 C 
DOCKED: ENDBRANCH  17  46
DOCKED: TORSDOF 10
DOCKED: TER
DOCKED: ENDMDL
________________________________________________________________________________


	BEGINNING GENETIC ALGORITHM DOCKING 59 of 100
Run: 59 Seed: 1003791623 2016787868 [ Run 59 of 100 GA/GALS ]
Beginning LAMARCKIAN GENETIC ALGORITHM (LGA), with a maximum of 25000000 energy evaluations.

Final-Value: -9.016


	FINAL GENETIC ALGORITHM DOCKED STATE
	_______________________________________________


Detailed state:  trans -10.502 -1.109 -6.696 quatxyzw -0.764004 0.406569 0.489852 -0.105096 center 8.287 34.468 -0.670 ntor 10 46.1652 108.3249 -131.0800 141.7153 61.6177 5.4538 177.7878 99.3045 -161.4860 179.6310
State:	-10.502  -1.109  -6.696  -0.768  0.409  0.493 -167.935     46.17  108.32 -131.08  141.72   61.62    5.45  177.79   99.30 -161.49  179.63

DOCKED: MODEL       59
DOCKED: USER    Run = 59
DOCKED: USER    DPF = D:/Protein_go_brrr/autodock/final/mut_N102T/heme_O2/dock.dpf
DOCKED: USER  
DOCKED: USER    Estimated Free Energy of Binding    =   -3.75 kcal/mol  [=(1)+(2)+(3)-(4)]
DOCKED: USER    Estimated Inhibition Constant, Ki   =    1.78 mM (millimolar)  [Temperature = 298.15 K]
DOCKED: USER    
DOCKED: USER    (1) Final Intermolecular Energy     =   -6.73 kcal/mol
DOCKED: USER        vdW + Hbond + desolv Energy     =   -6.22 kcal/mol
DOCKED: USER        Electrostatic Energy            =   -0.51 kcal/mol
DOCKED: USER    (2) Final Total Internal Energy     =   -2.28 kcal/mol
DOCKED: USER    (3) Torsional Free Energy           =   +2.98 kcal/mol
DOCKED: USER    (4) Unbound System's Energy  [=(2)] =   -2.28 kcal/mol
DOCKED: USER    
DOCKED: USER    
DOCKED: USER    NEWDPF move heme_O2_opt.pdbqt
DOCKED: USER    NEWDPF about 8.287000 34.468000 -0.670000
DOCKED: USER    NEWDPF tran0 -10.501540 -1.109106 -6.695977
DOCKED: USER    NEWDPF quaternion0 -0.764004 0.406569 0.489852 -0.105096
DOCKED: USER    NEWDPF axisangle0 -0.768259 0.408833 0.492580 -167.934587
DOCKED: USER    NEWDPF quat0 -0.768259 0.408833 0.492580 -167.934587
DOCKED: USER    NEWDPF dihe0 46.17 108.32 -131.08 141.72 61.62 5.45 177.79 99.30 -161.49 179.63 
DOCKED: USER  keepresnum = 1 
DOCKED: USER  
DOCKED: REMARK  10 active torsions:
DOCKED: REMARK  status: ('A' for Active; 'I' for Inactive)
DOCKED: REMARK    1  A    between atoms: C_6  and  C_10 
DOCKED: REMARK    2  A    between atoms: C_10  and  C_11 
DOCKED: REMARK    3  A    between atoms: C_11  and  C_12 
DOCKED: REMARK    4  A    between atoms: C_12  and  O_14 
DOCKED: REMARK    5  A    between atoms: C_17  and  C_20 
DOCKED: REMARK    6  A    between atoms: C_24  and  C_27 
DOCKED: REMARK    7  A    between atoms: C_31  and  C_34 
DOCKED: REMARK    8  A    between atoms: C_34  and  C_35 
DOCKED: REMARK    9  A    between atoms: C_35  and  C_36 
DOCKED: REMARK   10  A    between atoms: C_36  and  O_38 
DOCKED: USER                              x       y       z     vdW  Elec       q    Type
DOCKED: USER                           _______ _______ _______ _____ _____    ______ ____
DOCKED: ROOT
DOCKED: ATOM      1  C   UNL d   1     -10.761  -0.977  -4.595 -0.14 +0.01    +0.064 A 
DOCKED: ATOM      2  C   UNL d   1     -11.022   2.251  -8.069 -0.13 +0.00    +0.064 A 
DOCKED: ATOM      3  C   UNL d   1      -9.911  -1.068 -11.362 -0.28 +0.01    +0.064 C 
DOCKED: ATOM      4  C   UNL d   1     -10.109  -4.494  -7.857 -0.19 +0.01    +0.064 A 
DOCKED: ATOM      5  C   UNL d   1     -10.925   0.172  -5.271 -0.07 +0.01    +0.066 A 
DOCKED: ATOM      6  C   UNL d   1     -11.234   1.396  -4.672 -0.17 -0.00    -0.021 A 
DOCKED: ATOM      7  C   UNL d   1     -11.352   2.323  -5.681 -0.11 -0.00    -0.025 A 
DOCKED: ATOM      8  C   UNL d   1     -11.064   1.649  -6.865 -0.12 +0.00    +0.066 A 
DOCKED: ATOM      9  C   UNL d   1     -11.754   3.769  -5.486 -0.05 +0.00    +0.051 C 
DOCKED: ATOM     10  C   UNL d   1     -10.703   1.602  -9.342 -0.17 +0.00    +0.066 A 
DOCKED: ATOM     11  C   UNL d   1     -10.512   2.305 -10.537 -0.21 -0.00    -0.021 A 
DOCKED: ATOM     12  C   UNL d   1     -10.173   1.367 -11.495 -0.28 +0.00    +0.000 A 
DOCKED: ATOM     13  C   UNL d   1     -10.189   0.116 -10.817 -0.22 +0.01    +0.070 A 
DOCKED: ATOM     14  C   UNL d   1     -10.622   3.810 -10.750 -0.10 -0.00    +0.052 C 
DOCKED: ATOM     15  C   UNL d   1      -9.950  -2.359 -10.720 -0.24 +0.01    +0.066 A 
DOCKED: ATOM     16  C   UNL d   1      -9.808  -3.577 -11.384 -0.28 -0.00    -0.021 A 
DOCKED: ATOM     17  C   UNL d   1      -9.862  -4.569 -10.404 -0.25 +0.00    +0.000 A 
DOCKED: ATOM     18  C   UNL d   1     -10.033  -3.872  -9.200 -0.22 +0.01    +0.070 A 
DOCKED: ATOM     19  C   UNL d   1      -9.690  -3.688 -12.883 -0.24 +0.01    +0.052 C 
DOCKED: ATOM     20  C   UNL d   1     -10.316  -3.860  -6.687 -0.17 +0.01    +0.066 A 
DOCKED: ATOM     21  C   UNL d   1     -10.360  -4.497  -5.450 -0.12 -0.00    -0.025 A 
DOCKED: ATOM     22  C   UNL d   1     -10.518  -3.508  -4.506 -0.16 -0.00    -0.021 A 
DOCKED: ATOM     23  C   UNL d   1     -10.583  -2.299  -5.206 -0.14 +0.02    +0.066 A 
DOCKED: ATOM     24  C   UNL d   1     -10.260  -5.977  -5.183 -0.07 +0.01    +0.051 C 
DOCKED: ATOM     25  N   UNL d   1     -10.865   0.310  -6.619 -0.02 -0.02    -0.248 N 
DOCKED: ATOM     26  N   UNL d   1     -10.517   0.268  -9.509 -0.09 -0.03    -0.248 N 
DOCKED: ATOM     27  N   UNL d   1     -10.159  -2.538  -9.418 -0.04 -0.05    -0.248 N 
DOCKED: ATOM     28  N   UNL d   1     -10.505  -2.522  -6.535 -0.11 -0.05    -0.248 N 
DOCKED: ATOM     29 FE   UNL d   1     -10.511  -1.139  -8.013 -0.05 +0.00    +0.000 Fe
DOCKED: ATOM     30  O   UNL d   1     -11.955  -0.561  -8.061 -0.11 +0.00    +0.000 OA
DOCKED: ATOM     31  O   UNL d   1     -11.725  -2.106  -8.266 -0.12 +0.00    +0.000 OA
DOCKED: ENDROOT
DOCKED: BRANCH   6  32
DOCKED: ATOM     32  C   UNL d   1     -11.543   1.662  -3.221 -0.14 +0.01    +0.052 C 
DOCKED: BRANCH  32  33
DOCKED: ATOM     33  C   UNL d   1     -12.960   1.251  -2.833 -0.08 +0.04    +0.115 C 
DOCKED: BRANCH  33  34
DOCKED: ATOM     34  C   UNL d   1     -13.765   0.771  -4.016 -0.01 +0.02    +0.139 C 
DOCKED: ATOM     35  O   UNL d   1     -14.412   1.573  -4.671 +0.03 -0.06    -0.650 OA
DOCKED: BRANCH  34  36
DOCKED: ATOM     36  O   UNL d   1     -13.809  -0.534  -4.353 +0.05 -0.12    -0.776 OA
DOCKED: ATOM     37  H   UNL d   1     -13.957  -1.226  -3.698 +0.02 +0.03    +0.167 HD
DOCKED: ENDBRANCH  34  36
DOCKED: ENDBRANCH  33  34
DOCKED: ENDBRANCH  32  33
DOCKED: ENDBRANCH   6  32
DOCKED: BRANCH  22  38
DOCKED: ATOM     38  C   UNL d   1     -10.663  -3.724  -3.022 -0.17 +0.02    +0.052 C 
DOCKED: BRANCH  38  39
DOCKED: ATOM     39  C   UNL d   1     -12.071  -4.172  -2.634 -0.09 +0.03    +0.115 C 
DOCKED: BRANCH  39  40
DOCKED: ATOM     40  C   UNL d   1     -13.033  -3.015  -2.522 -0.08 +0.04    +0.139 C 
DOCKED: ATOM     41  O   UNL d   1     -14.216  -3.186  -2.764 +0.03 -0.10    -0.650 OA
DOCKED: BRANCH  40  42
DOCKED: ATOM     42  O   UNL d   1     -12.617  -1.803  -2.108 +0.07 -0.46    -0.776 OA
DOCKED: ATOM     43  H   UNL d   1     -12.586  -1.048  -2.708 +0.03 +0.08    +0.167 HD
DOCKED: ENDBRANCH  40  42
DOCKED: ENDBRANCH  39  40
DOCKED: ENDBRANCH  38  39
DOCKED: ENDBRANCH  22  38
DOCKED: BRANCH  12  44
DOCKED: ATOM     44  C   UNL d   1      -9.879   1.753 -12.929 -0.35 +0.00    +0.004 C 
DOCKED: ATOM     45  C   UNL d   1      -9.133   2.766 -13.368 -0.43 -0.00    +0.012 C 
DOCKED: ENDBRANCH  12  44
DOCKED: BRANCH  17  46
DOCKED: ATOM     46  C   UNL d   1      -9.826  -6.070 -10.515 -0.20 +0.00    +0.004 C 
DOCKED: ATOM     47  C   UNL d   1      -9.119  -6.938  -9.780 -0.23 +0.00    +0.012 C 
DOCKED: ENDBRANCH  17  46
DOCKED: TORSDOF 10
DOCKED: TER
DOCKED: ENDMDL
________________________________________________________________________________


	BEGINNING GENETIC ALGORITHM DOCKING 60 of 100
Run: 60 Seed: 571360132 201593715 [ Run 60 of 100 GA/GALS ]
Beginning LAMARCKIAN GENETIC ALGORITHM (LGA), with a maximum of 25000000 energy evaluations.

Final-Value: -10.636


	FINAL GENETIC ALGORITHM DOCKED STATE
	_______________________________________________


Detailed state:  trans 12.685 1.586 16.488 quatxyzw -0.368382 0.778588 0.498085 -0.100030 center 8.287 34.468 -0.670 ntor 10 8.5922 -137.4433 -62.8858 -67.0305 75.8393 124.7854 171.6317 120.0420 -162.3067 -179.9554
State:	 12.685   1.586  16.488  -0.370  0.783  0.501 -168.518      8.59 -137.44  -62.89  -67.03   75.84  124.79  171.63  120.04 -162.31 -179.96

DOCKED: MODEL       60
DOCKED: USER    Run = 60
DOCKED: USER    DPF = D:/Protein_go_brrr/autodock/final/mut_N102T/heme_O2/dock.dpf
DOCKED: USER  
DOCKED: USER    Estimated Free Energy of Binding    =   -5.26 kcal/mol  [=(1)+(2)+(3)-(4)]
DOCKED: USER    Estimated Inhibition Constant, Ki   =  138.53 uM (micromolar)  [Temperature = 298.15 K]
DOCKED: USER    
DOCKED: USER    (1) Final Intermolecular Energy     =   -8.25 kcal/mol
DOCKED: USER        vdW + Hbond + desolv Energy     =   -5.96 kcal/mol
DOCKED: USER        Electrostatic Energy            =   -2.28 kcal/mol
DOCKED: USER    (2) Final Total Internal Energy     =   -2.39 kcal/mol
DOCKED: USER    (3) Torsional Free Energy           =   +2.98 kcal/mol
DOCKED: USER    (4) Unbound System's Energy  [=(2)] =   -2.39 kcal/mol
DOCKED: USER    
DOCKED: USER    
DOCKED: USER    NEWDPF move heme_O2_opt.pdbqt
DOCKED: USER    NEWDPF about 8.287000 34.468000 -0.670000
DOCKED: USER    NEWDPF tran0 12.684846 1.586268 16.487894
DOCKED: USER    NEWDPF quaternion0 -0.368382 0.778588 0.498085 -0.100030
DOCKED: USER    NEWDPF axisangle0 -0.370239 0.782513 0.500595 -168.518183
DOCKED: USER    NEWDPF quat0 -0.370239 0.782513 0.500595 -168.518183
DOCKED: USER    NEWDPF dihe0 8.59 -137.44 -62.89 -67.03 75.84 124.79 171.63 120.04 -162.31 -179.96 
DOCKED: USER  keepresnum = 1 
DOCKED: USER  
DOCKED: REMARK  10 active torsions:
DOCKED: REMARK  status: ('A' for Active; 'I' for Inactive)
DOCKED: REMARK    1  A    between atoms: C_6  and  C_10 
DOCKED: REMARK    2  A    between atoms: C_10  and  C_11 
DOCKED: REMARK    3  A    between atoms: C_11  and  C_12 
DOCKED: REMARK    4  A    between atoms: C_12  and  O_14 
DOCKED: REMARK    5  A    between atoms: C_17  and  C_20 
DOCKED: REMARK    6  A    between atoms: C_24  and  C_27 
DOCKED: REMARK    7  A    between atoms: C_31  and  C_34 
DOCKED: REMARK    8  A    between atoms: C_34  and  C_35 
DOCKED: REMARK    9  A    between atoms: C_35  and  C_36 
DOCKED: REMARK   10  A    between atoms: C_36  and  O_38 
DOCKED: USER                              x       y       z     vdW  Elec       q    Type
DOCKED: USER                           _______ _______ _______ _____ _____    ______ ____
DOCKED: ROOT
DOCKED: ATOM      1  C   UNL d   1      13.774   1.933  18.275 -0.03 +0.02    +0.064 A 
DOCKED: ATOM      2  C   UNL d   1      13.994   3.891  13.953 -0.11 +0.03    +0.064 A 
DOCKED: ATOM      3  C   UNL d   1      10.503   0.996  12.363 -0.25 +0.02    +0.064 C 
DOCKED: ATOM      4  C   UNL d   1       9.937  -0.697  16.932 -0.00 +0.02    +0.064 A 
DOCKED: ATOM      5  C   UNL d   1      14.117   2.703  17.230 -0.07 +0.03    +0.066 A 
DOCKED: ATOM      6  C   UNL d   1      15.124   3.671  17.268 -0.06 -0.01    -0.021 A 
DOCKED: ATOM      7  C   UNL d   1      15.160   4.269  16.030 -0.07 -0.01    -0.025 A 
DOCKED: ATOM      8  C   UNL d   1      14.206   3.616  15.255 -0.08 +0.04    +0.066 A 
DOCKED: ATOM      9  C   UNL d   1      16.057   5.428  15.654 -0.06 +0.02    +0.051 C 
DOCKED: ATOM     10  C   UNL d   1      13.024   3.224  13.083 -0.17 +0.03    +0.066 A 
DOCKED: ATOM     11  C   UNL d   1      12.959   3.435  11.701 -0.26 -0.01    -0.021 A 
DOCKED: ATOM     12  C   UNL d   1      11.970   2.595  11.221 -0.36 +0.00    +0.000 A 
DOCKED: ATOM     13  C   UNL d   1      11.469   1.914  12.365 -0.24 +0.02    +0.070 A 
DOCKED: ATOM     14  C   UNL d   1      13.822   4.376  10.869 -0.29 +0.01    +0.052 C 
DOCKED: ATOM     15  C   UNL d   1       9.944   0.309  13.502 -0.15 +0.02    +0.066 A 
DOCKED: ATOM     16  C   UNL d   1       8.823  -0.519  13.454 -0.21 -0.00    -0.021 A 
DOCKED: ATOM     17  C   UNL d   1       8.642  -1.013  14.746 -0.16 +0.00    +0.000 A 
DOCKED: ATOM     18  C   UNL d   1       9.681  -0.442  15.495 -0.06 +0.02    +0.070 A 
DOCKED: ATOM     19  C   UNL d   1       8.002  -0.720  12.205 -0.32 +0.01    +0.052 C 
DOCKED: ATOM     20  C   UNL d   1      10.897  -0.134  17.691 -0.07 +0.02    +0.066 A 
DOCKED: ATOM     21  C   UNL d   1      11.101  -0.427  19.036 -0.05 -0.00    -0.025 A 
DOCKED: ATOM     22  C   UNL d   1      12.207   0.293  19.429 -0.03 -0.00    -0.021 A 
DOCKED: ATOM     23  C   UNL d   1      12.628   1.016  18.308 -0.04 +0.02    +0.066 A 
DOCKED: ATOM     24  C   UNL d   1      10.280  -1.344  19.904 -0.03 +0.01    +0.051 C 
DOCKED: ATOM     25  N   UNL d   1      13.519   2.696  16.013 -0.08 -0.15    -0.248 N 
DOCKED: ATOM     26  N   UNL d   1      12.113   2.306  13.494 -0.13 -0.10    -0.248 N 
DOCKED: ATOM     27  N   UNL d   1      10.415   0.416  14.741 -0.11 -0.08    -0.248 N 
DOCKED: ATOM     28  N   UNL d   1      11.802   0.788  17.266 -0.06 -0.09    -0.248 N 
DOCKED: ATOM     29 FE   UNL d   1      11.954   1.540  15.393 -0.03 +0.00    +0.000 Fe
DOCKED: ATOM     30  O   UNL d   1      11.612   3.055  15.504 -0.45 +0.00    +0.000 OA
DOCKED: ATOM     31  O   UNL d   1      10.557   1.980  15.966 -0.37 +0.00    +0.000 OA
DOCKED: ENDROOT
DOCKED: BRANCH   6  32
DOCKED: ATOM     32  C   UNL d   1      15.931   4.117  18.461 -0.02 +0.02    +0.052 C 
DOCKED: BRANCH  32  33
DOCKED: ATOM     33  C   UNL d   1      15.166   5.073  19.370 -0.03 +0.05    +0.115 C 
DOCKED: BRANCH  33  34
DOCKED: ATOM     34  C   UNL d   1      13.880   5.555  18.746 +0.23 +0.16    +0.139 C 
DOCKED: ATOM     35  O   UNL d   1      13.917   6.393  17.859 -0.23 -1.00    -0.650 OA
DOCKED: BRANCH  34  36
DOCKED: ATOM     36  O   UNL d   1      12.681   5.101  19.166 -0.17 -1.25    -0.776 OA
DOCKED: ATOM     37  H   UNL d   1      12.589   4.553  19.954 +0.02 +0.13    +0.167 HD
DOCKED: ENDBRANCH  34  36
DOCKED: ENDBRANCH  33  34
DOCKED: ENDBRANCH  32  33
DOCKED: ENDBRANCH   6  32
DOCKED: BRANCH  22  38
DOCKED: ATOM     38  C   UNL d   1      12.783   0.330  20.821 -0.01 +0.01    +0.052 C 
DOCKED: BRANCH  38  39
DOCKED: ATOM     39  C   UNL d   1      11.984   1.234  21.757 -0.01 +0.02    +0.115 C 
DOCKED: BRANCH  39  40
DOCKED: ATOM     40  C   UNL d   1      11.961   2.669  21.293 -0.03 +0.03    +0.139 C 
DOCKED: ATOM     41  O   UNL d   1      12.823   3.443  21.676 +0.02 -0.15    -0.650 OA
DOCKED: BRANCH  40  42
DOCKED: ATOM     42  O   UNL d   1      11.033   3.102  20.419 +0.01 -0.33    -0.776 OA
DOCKED: ATOM     43  H   UNL d   1      11.268   3.656  19.665 +0.00 +0.12    +0.167 HD
DOCKED: ENDBRANCH  40  42
DOCKED: ENDBRANCH  39  40
DOCKED: ENDBRANCH  38  39
DOCKED: ENDBRANCH  22  38
DOCKED: BRANCH  12  44
DOCKED: ATOM     44  C   UNL d   1      11.611   2.534   9.751 -0.46 +0.00    +0.004 C 
DOCKED: ATOM     45  C   UNL d   1      11.792   1.520   8.906 -0.43 +0.00    +0.012 C 
DOCKED: ENDBRANCH  12  44
DOCKED: BRANCH  17  46
DOCKED: ATOM     46  C   UNL d   1       7.573  -1.901  15.324 -0.17 +0.00    +0.004 C 
DOCKED: ATOM     47  C   UNL d   1       6.302  -1.589  15.611 -0.27 -0.00    +0.012 C 
DOCKED: ENDBRANCH  17  46
DOCKED: TORSDOF 10
DOCKED: TER
DOCKED: ENDMDL
________________________________________________________________________________


	BEGINNING GENETIC ALGORITHM DOCKING 61 of 100
Run: 61 Seed: 660892515 817004581 [ Run 61 of 100 GA/GALS ]
Beginning LAMARCKIAN GENETIC ALGORITHM (LGA), with a maximum of 25000000 energy evaluations.

Final-Value: -8.741


	FINAL GENETIC ALGORITHM DOCKED STATE
	_______________________________________________


Detailed state:  trans -11.751 5.743 10.292 quatxyzw 0.620987 0.681208 -0.078502 -0.379695 center 8.287 34.468 -0.670 ntor 10 124.1488 56.2612 37.0513 -106.9054 50.7670 100.1165 50.7315 -80.6258 -170.1203 179.8862
State:	-11.751   5.743  10.292   0.671  0.736 -0.085 -135.370    124.15   56.26   37.05 -106.91   50.77  100.12   50.73  -80.63 -170.12  179.89

DOCKED: MODEL       61
DOCKED: USER    Run = 61
DOCKED: USER    DPF = D:/Protein_go_brrr/autodock/final/mut_N102T/heme_O2/dock.dpf
DOCKED: USER  
DOCKED: USER    Estimated Free Energy of Binding    =   -4.99 kcal/mol  [=(1)+(2)+(3)-(4)]
DOCKED: USER    Estimated Inhibition Constant, Ki   =  218.19 uM (micromolar)  [Temperature = 298.15 K]
DOCKED: USER    
DOCKED: USER    (1) Final Intermolecular Energy     =   -7.98 kcal/mol
DOCKED: USER        vdW + Hbond + desolv Energy     =   -7.79 kcal/mol
DOCKED: USER        Electrostatic Energy            =   -0.19 kcal/mol
DOCKED: USER    (2) Final Total Internal Energy     =   -0.76 kcal/mol
DOCKED: USER    (3) Torsional Free Energy           =   +2.98 kcal/mol
DOCKED: USER    (4) Unbound System's Energy  [=(2)] =   -0.76 kcal/mol
DOCKED: USER    
DOCKED: USER    
DOCKED: USER    NEWDPF move heme_O2_opt.pdbqt
DOCKED: USER    NEWDPF about 8.287000 34.468000 -0.670000
DOCKED: USER    NEWDPF tran0 -11.751333 5.743388 10.291606
DOCKED: USER    NEWDPF quaternion0 0.620987 0.681208 -0.078502 -0.379695
DOCKED: USER    NEWDPF axisangle0 0.671256 0.736352 -0.084857 -135.370476
DOCKED: USER    NEWDPF quat0 0.671256 0.736352 -0.084857 -135.370476
DOCKED: USER    NEWDPF dihe0 124.15 56.26 37.05 -106.91 50.77 100.12 50.73 -80.63 -170.12 179.89 
DOCKED: USER  keepresnum = 1 
DOCKED: USER  
DOCKED: REMARK  10 active torsions:
DOCKED: REMARK  status: ('A' for Active; 'I' for Inactive)
DOCKED: REMARK    1  A    between atoms: C_6  and  C_10 
DOCKED: REMARK    2  A    between atoms: C_10  and  C_11 
DOCKED: REMARK    3  A    between atoms: C_11  and  C_12 
DOCKED: REMARK    4  A    between atoms: C_12  and  O_14 
DOCKED: REMARK    5  A    between atoms: C_17  and  C_20 
DOCKED: REMARK    6  A    between atoms: C_24  and  C_27 
DOCKED: REMARK    7  A    between atoms: C_31  and  C_34 
DOCKED: REMARK    8  A    between atoms: C_34  and  C_35 
DOCKED: REMARK    9  A    between atoms: C_35  and  C_36 
DOCKED: REMARK   10  A    between atoms: C_36  and  O_38 
DOCKED: USER                              x       y       z     vdW  Elec       q    Type
DOCKED: USER                           _______ _______ _______ _____ _____    ______ ____
DOCKED: ROOT
DOCKED: ATOM      1  C   UNL d   1     -11.653   4.866  12.220 +0.08 +0.00    +0.064 A 
DOCKED: ATOM      2  C   UNL d   1     -12.497   3.055   7.911 -0.18 -0.00    +0.064 A 
DOCKED: ATOM      3  C   UNL d   1     -12.110   7.405   5.906 -0.16 -0.00    +0.064 C 
DOCKED: ATOM      4  C   UNL d   1     -10.768   9.207  10.267 -0.19 -0.00    +0.064 A 
DOCKED: ATOM      5  C   UNL d   1     -11.913   4.018  11.212 -0.07 -0.00    +0.066 A 
DOCKED: ATOM      6  C   UNL d   1     -12.121   2.646  11.376 -0.19 +0.00    -0.021 A 
DOCKED: ATOM      7  C   UNL d   1     -12.323   2.113  10.125 -0.20 +0.00    -0.025 A 
DOCKED: ATOM      8  C   UNL d   1     -12.279   3.183   9.234 -0.18 -0.01    +0.066 A 
DOCKED: ATOM      9  C   UNL d   1     -12.514   0.642   9.830 -0.18 -0.01    +0.051 C 
DOCKED: ATOM     10  C   UNL d   1     -12.487   4.143   6.932 -0.17 -0.00    +0.066 A 
DOCKED: ATOM     11  C   UNL d   1     -12.880   3.981   5.598 -0.15 +0.00    -0.021 A 
DOCKED: ATOM     12  C   UNL d   1     -12.793   5.228   5.008 -0.13 +0.00    +0.000 A 
DOCKED: ATOM     13  C   UNL d   1     -12.329   6.097   6.034 +0.06 -0.00    +0.070 A 
DOCKED: ATOM     14  C   UNL d   1     -13.346   2.696   4.923 -0.14 -0.00    +0.052 C 
DOCKED: ATOM     15  C   UNL d   1     -11.608   8.312   6.910 -0.21 -0.01    +0.066 A 
DOCKED: ATOM     16  C   UNL d   1     -11.244   9.637   6.668 -0.21 +0.00    -0.021 A 
DOCKED: ATOM     17  C   UNL d   1     -10.857  10.170   7.897 -0.09 -0.00    +0.000 A 
DOCKED: ATOM     18  C   UNL d   1     -11.018   9.118   8.809 -0.19 -0.01    +0.070 A 
DOCKED: ATOM     19  C   UNL d   1     -11.245  10.251   5.291 -0.19 -0.00    +0.052 C 
DOCKED: ATOM     20  C   UNL d   1     -10.871   8.206  11.164 -0.22 +0.00    +0.066 A 
DOCKED: ATOM     21  C   UNL d   1     -10.640   8.354  12.528 -0.22 -0.00    -0.025 A 
DOCKED: ATOM     22  C   UNL d   1     -10.914   7.134  13.105 -0.22 -0.00    -0.021 A 
DOCKED: ATOM     23  C   UNL d   1     -11.286   6.278  12.063 -0.17 +0.00    +0.066 A 
DOCKED: ATOM     24  C   UNL d   1     -10.178   9.596  13.246 -0.17 +0.00    +0.051 C 
DOCKED: ATOM     25  N   UNL d   1     -11.962   4.346   9.897 -0.14 +0.01    -0.248 N 
DOCKED: ATOM     26  N   UNL d   1     -12.142   5.427   7.200 -0.12 +0.00    -0.248 N 
DOCKED: ATOM     27  N   UNL d   1     -11.402   7.978   8.181 -0.16 +0.03    -0.248 N 
DOCKED: ATOM     28  N   UNL d   1     -11.215   6.922  10.880 -0.15 -0.00    -0.248 N 
DOCKED: ATOM     29 FE   UNL d   1     -11.674   6.183   9.052 -0.05 -0.00    +0.000 Fe
DOCKED: ATOM     30  O   UNL d   1     -10.560   5.151   8.708 -0.58 +0.00    +0.000 OA
DOCKED: ATOM     31  O   UNL d   1     -10.173   6.648   9.009 -0.55 -0.00    +0.000 OA
DOCKED: ENDROOT
DOCKED: BRANCH   6  32
DOCKED: ATOM     32  C   UNL d   1     -12.001   1.840  12.644 -0.20 -0.00    +0.052 C 
DOCKED: BRANCH  32  33
DOCKED: ATOM     33  C   UNL d   1     -10.576   1.363  12.909 -0.18 +0.01    +0.115 C 
DOCKED: BRANCH  33  34
DOCKED: ATOM     34  C   UNL d   1     -10.514  -0.106  13.246 -0.29 +0.02    +0.139 C 
DOCKED: ATOM     35  O   UNL d   1     -10.415  -0.454  14.412 -0.10 -0.31    -0.650 OA
DOCKED: BRANCH  34  36
DOCKED: ATOM     36  O   UNL d   1     -10.537  -1.050  12.283 -0.02 +0.21    -0.776 OA
DOCKED: ATOM     37  H   UNL d   1      -9.845  -1.718  12.205 -0.22 -0.12    +0.167 HD
DOCKED: ENDBRANCH  34  36
DOCKED: ENDBRANCH  33  34
DOCKED: ENDBRANCH  32  33
DOCKED: ENDBRANCH   6  32
DOCKED: BRANCH  22  38
DOCKED: ATOM     38  C   UNL d   1     -10.762   6.798  14.566 -0.17 +0.00    +0.052 C 
DOCKED: BRANCH  38  39
DOCKED: ATOM     39  C   UNL d   1      -9.308   6.543  14.956 -0.19 +0.01    +0.115 C 
DOCKED: BRANCH  39  40
DOCKED: ATOM     40  C   UNL d   1      -8.658   7.751  15.582 -0.21 +0.00    +0.139 C 
DOCKED: ATOM     41  O   UNL d   1      -7.726   8.300  15.015 -0.03 -0.02    -0.650 OA
DOCKED: BRANCH  40  42
DOCKED: ATOM     42  O   UNL d   1      -9.120   8.270  16.736 +0.04 +0.01    -0.776 OA
DOCKED: ATOM     43  H   UNL d   1      -9.161   7.746  17.545 +0.02 -0.00    +0.167 HD
DOCKED: ENDBRANCH  40  42
DOCKED: ENDBRANCH  39  40
DOCKED: ENDBRANCH  38  39
DOCKED: ENDBRANCH  22  38
DOCKED: BRANCH  12  44
DOCKED: ATOM     44  C   UNL d   1     -13.149   5.456   3.554 -0.13 +0.00    +0.004 C 
DOCKED: ATOM     45  C   UNL d   1     -12.609   6.330   2.706 -0.14 +0.00    +0.012 C 
DOCKED: ENDBRANCH  12  44
DOCKED: BRANCH  17  46
DOCKED: ATOM     46  C   UNL d   1     -10.312  11.526   8.258 -0.22 -0.00    +0.004 C 
DOCKED: ATOM     47  C   UNL d   1      -9.092  11.833   8.718 -0.31 -0.00    +0.012 C 
DOCKED: ENDBRANCH  17  46
DOCKED: TORSDOF 10
DOCKED: TER
DOCKED: ENDMDL
________________________________________________________________________________


	BEGINNING GENETIC ALGORITHM DOCKING 62 of 100
Run: 62 Seed: 1547330054 1346325881 [ Run 62 of 100 GA/GALS ]
Beginning LAMARCKIAN GENETIC ALGORITHM (LGA), with a maximum of 25000000 energy evaluations.

Final-Value: -9.667


	FINAL GENETIC ALGORITHM DOCKED STATE
	_______________________________________________


Detailed state:  trans 7.786 -1.796 16.125 quatxyzw -0.238307 -0.507925 0.802182 0.204271 center 8.287 34.468 -0.670 ntor 10 -36.1352 -102.6307 82.2529 -27.5743 47.4021 -179.5836 -124.7687 105.4469 -174.4999 33.3466
State:	  7.786  -1.796  16.125  -0.243 -0.519  0.819 156.426    -36.14 -102.63   82.25  -27.57   47.40 -179.58 -124.77  105.45 -174.50   33.35

DOCKED: MODEL       62
DOCKED: USER    Run = 62
DOCKED: USER    DPF = D:/Protein_go_brrr/autodock/final/mut_N102T/heme_O2/dock.dpf
DOCKED: USER  
DOCKED: USER    Estimated Free Energy of Binding    =   -5.87 kcal/mol  [=(1)+(2)+(3)-(4)]
DOCKED: USER    Estimated Inhibition Constant, Ki   =   49.39 uM (micromolar)  [Temperature = 298.15 K]
DOCKED: USER    
DOCKED: USER    (1) Final Intermolecular Energy     =   -8.86 kcal/mol
DOCKED: USER        vdW + Hbond + desolv Energy     =   -7.86 kcal/mol
DOCKED: USER        Electrostatic Energy            =   -1.00 kcal/mol
DOCKED: USER    (2) Final Total Internal Energy     =   -0.81 kcal/mol
DOCKED: USER    (3) Torsional Free Energy           =   +2.98 kcal/mol
DOCKED: USER    (4) Unbound System's Energy  [=(2)] =   -0.81 kcal/mol
DOCKED: USER    
DOCKED: USER    
DOCKED: USER    NEWDPF move heme_O2_opt.pdbqt
DOCKED: USER    NEWDPF about 8.287000 34.468000 -0.670000
DOCKED: USER    NEWDPF tran0 7.785625 -1.795953 16.124619
DOCKED: USER    NEWDPF quaternion0 -0.238307 -0.507925 0.802182 0.204271
DOCKED: USER    NEWDPF axisangle0 -0.243440 -0.518866 0.819460 156.426378
DOCKED: USER    NEWDPF quat0 -0.243440 -0.518866 0.819460 156.426378
DOCKED: USER    NEWDPF dihe0 -36.14 -102.63 82.25 -27.57 47.40 -179.58 -124.77 105.45 -174.50 33.35 
DOCKED: USER  keepresnum = 1 
DOCKED: USER  
DOCKED: REMARK  10 active torsions:
DOCKED: REMARK  status: ('A' for Active; 'I' for Inactive)
DOCKED: REMARK    1  A    between atoms: C_6  and  C_10 
DOCKED: REMARK    2  A    between atoms: C_10  and  C_11 
DOCKED: REMARK    3  A    between atoms: C_11  and  C_12 
DOCKED: REMARK    4  A    between atoms: C_12  and  O_14 
DOCKED: REMARK    5  A    between atoms: C_17  and  C_20 
DOCKED: REMARK    6  A    between atoms: C_24  and  C_27 
DOCKED: REMARK    7  A    between atoms: C_31  and  C_34 
DOCKED: REMARK    8  A    between atoms: C_34  and  C_35 
DOCKED: REMARK    9  A    between atoms: C_35  and  C_36 
DOCKED: REMARK   10  A    between atoms: C_36  and  O_38 
DOCKED: USER                              x       y       z     vdW  Elec       q    Type
DOCKED: USER                           _______ _______ _______ _____ _____    ______ ____
DOCKED: ROOT
DOCKED: ATOM      1  C   UNL d   1       9.770  -1.147  16.499 -0.07 +0.02    +0.064 A 
DOCKED: ATOM      2  C   UNL d   1       6.625  -3.537  19.136 -0.02 -0.00    +0.064 A 
DOCKED: ATOM      3  C   UNL d   1       3.355  -3.294  15.622 -0.38 -0.01    +0.064 C 
DOCKED: ATOM      4  C   UNL d   1       6.744  -1.253  12.721 -0.30 +0.00    +0.064 A 
DOCKED: ATOM      5  C   UNL d   1       9.182  -1.819  17.503 -0.06 +0.01    +0.066 A 
DOCKED: ATOM      6  C   UNL d   1       9.794  -2.085  18.731 -0.03 -0.00    -0.021 A 
DOCKED: ATOM      7  C   UNL d   1       8.900  -2.815  19.479 -0.02 -0.00    -0.025 A 
DOCKED: ATOM      8  C   UNL d   1       7.748  -2.932  18.705 -0.03 +0.00    +0.066 A 
DOCKED: ATOM      9  C   UNL d   1       9.181  -3.381  20.853 -0.00 +0.00    +0.051 C 
DOCKED: ATOM     10  C   UNL d   1       5.379  -3.671  18.380 -0.06 -0.01    +0.066 A 
DOCKED: ATOM     11  C   UNL d   1       4.192  -4.163  18.933 -0.07 +0.00    -0.021 A 
DOCKED: ATOM     12  C   UNL d   1       3.232  -4.084  17.941 -0.17 -0.00    +0.000 A 
DOCKED: ATOM     13  C   UNL d   1       3.907  -3.548  16.809 -0.20 -0.01    +0.070 A 
DOCKED: ATOM     14  C   UNL d   1       3.974  -4.661  20.357 -0.03 -0.01    +0.052 C 
DOCKED: ATOM     15  C   UNL d   1       4.011  -2.785  14.442 -0.21 -0.01    +0.066 A 
DOCKED: ATOM     16  C   UNL d   1       3.416  -2.696  13.184 -0.40 +0.00    -0.021 A 
DOCKED: ATOM     17  C   UNL d   1       4.364  -2.117  12.340 -0.44 -0.00    +0.000 A 
DOCKED: ATOM     18  C   UNL d   1       5.481  -1.892  13.158 -0.31 -0.00    +0.070 A 
DOCKED: ATOM     19  C   UNL d   1       2.032  -3.215  12.890 -0.39 -0.00    +0.052 C 
DOCKED: ATOM     20  C   UNL d   1       7.849  -1.062  13.468 -0.21 +0.01    +0.066 A 
DOCKED: ATOM     21  C   UNL d   1       9.004  -0.437  13.007 -0.22 -0.01    -0.025 A 
DOCKED: ATOM     22  C   UNL d   1       9.867  -0.373  14.078 -0.15 -0.01    -0.021 A 
DOCKED: ATOM     23  C   UNL d   1       9.211  -0.981  15.153 -0.08 +0.02    +0.066 A 
DOCKED: ATOM     24  C   UNL d   1       9.272   0.071  11.614 -0.20 +0.02    +0.051 C 
DOCKED: ATOM     25  N   UNL d   1       7.946  -2.375  17.463 -0.04 -0.02    -0.248 N 
DOCKED: ATOM     26  N   UNL d   1       5.214  -3.305  17.083 -0.06 +0.02    -0.248 N 
DOCKED: ATOM     27  N   UNL d   1       5.275  -2.372  14.411 -0.15 +0.02    -0.248 N 
DOCKED: ATOM     28  N   UNL d   1       8.002  -1.438  14.766 -0.08 -0.04    -0.248 N 
DOCKED: ATOM     29 FE   UNL d   1       6.616  -2.365  15.914 -0.03 +0.00    +0.000 Fe
DOCKED: ATOM     30  O   UNL d   1       7.192  -3.774  16.238 -0.11 +0.00    +0.000 OA
DOCKED: ATOM     31  O   UNL d   1       6.984  -3.341  14.737 -0.16 +0.00    +0.000 OA
DOCKED: ENDROOT
DOCKED: BRANCH   6  32
DOCKED: ATOM     32  C   UNL d   1      11.214  -1.787  19.139 -0.01 +0.01    +0.052 C 
DOCKED: BRANCH  32  33
DOCKED: ATOM     33  C   UNL d   1      12.171  -2.936  18.835 -0.00 +0.01    +0.115 C 
DOCKED: BRANCH  33  34
DOCKED: ATOM     34  C   UNL d   1      12.094  -3.383  17.396 -0.00 +0.02    +0.139 C 
DOCKED: ATOM     35  O   UNL d   1      11.502  -4.413  17.115 +0.01 -0.08    -0.650 OA
DOCKED: BRANCH  34  36
DOCKED: ATOM     36  O   UNL d   1      12.692  -2.684  16.410 +0.01 -0.12    -0.776 OA
DOCKED: ATOM     37  H   UNL d   1      12.737  -1.720  16.421 +0.01 +0.03    +0.167 HD
DOCKED: ENDBRANCH  34  36
DOCKED: ENDBRANCH  33  34
DOCKED: ENDBRANCH  32  33
DOCKED: ENDBRANCH   6  32
DOCKED: BRANCH  22  38
DOCKED: ATOM     38  C   UNL d   1      11.267   0.183  14.046 -0.12 +0.01    +0.052 C 
DOCKED: BRANCH  38  39
DOCKED: ATOM     39  C   UNL d   1      11.563   1.085  15.242 -0.15 +0.04    +0.115 C 
DOCKED: BRANCH  39  40
DOCKED: ATOM     40  C   UNL d   1      10.915   2.441  15.114 -0.32 +0.08    +0.139 C 
DOCKED: ATOM     41  O   UNL d   1      10.815   2.965  14.016 -0.07 -0.34    -0.650 OA
DOCKED: BRANCH  40  42
DOCKED: ATOM     42  O   UNL d   1      10.396   3.068  16.188 -0.46 -0.72    -0.776 OA
DOCKED: ATOM     43  H   UNL d   1       9.448   3.057  16.370 -0.41 +0.07    +0.167 HD
DOCKED: ENDBRANCH  40  42
DOCKED: ENDBRANCH  39  40
DOCKED: ENDBRANCH  38  39
DOCKED: ENDBRANCH  22  38
DOCKED: BRANCH  12  44
DOCKED: ATOM     44  C   UNL d   1       1.801  -4.523  18.169 -0.25 -0.00    +0.004 C 
DOCKED: ATOM     45  C   UNL d   1       1.219  -5.655  17.776 -0.36 -0.00    +0.012 C 
DOCKED: ENDBRANCH  12  44
DOCKED: BRANCH  17  46
DOCKED: ATOM     46  C   UNL d   1       4.325  -1.823  10.864 -0.50 +0.00    +0.004 C 
DOCKED: ATOM     47  C   UNL d   1       3.726  -2.527   9.895 -0.53 +0.00    +0.012 C 
DOCKED: ENDBRANCH  17  46
DOCKED: TORSDOF 10
DOCKED: TER
DOCKED: ENDMDL
________________________________________________________________________________


	BEGINNING GENETIC ALGORITHM DOCKING 63 of 100
Run: 63 Seed: 1161743538 1748438006 [ Run 63 of 100 GA/GALS ]
Beginning LAMARCKIAN GENETIC ALGORITHM (LGA), with a maximum of 25000000 energy evaluations.

Final-Value: -10.230


	FINAL GENETIC ALGORITHM DOCKED STATE
	_______________________________________________


Detailed state:  trans 12.737 1.580 16.497 quatxyzw 0.359223 -0.780902 -0.503285 0.088633 center 8.287 34.468 -0.670 ntor 10 -10.2043 150.6223 -75.5550 -59.9810 46.1668 -58.1159 -161.8368 121.1829 178.8630 -180.0000
State:	 12.737   1.580  16.497   0.361 -0.784 -0.505 169.830    -10.20  150.62  -75.56  -59.98   46.17  -58.12 -161.84  121.18  178.86 -180.00

DOCKED: MODEL       63
DOCKED: USER    Run = 63
DOCKED: USER    DPF = D:/Protein_go_brrr/autodock/final/mut_N102T/heme_O2/dock.dpf
DOCKED: USER  
DOCKED: USER    Estimated Free Energy of Binding    =   -5.21 kcal/mol  [=(1)+(2)+(3)-(4)]
DOCKED: USER    Estimated Inhibition Constant, Ki   =  151.62 uM (micromolar)  [Temperature = 298.15 K]
DOCKED: USER    
DOCKED: USER    (1) Final Intermolecular Energy     =   -8.19 kcal/mol
DOCKED: USER        vdW + Hbond + desolv Energy     =   -6.08 kcal/mol
DOCKED: USER        Electrostatic Energy            =   -2.11 kcal/mol
DOCKED: USER    (2) Final Total Internal Energy     =   -2.04 kcal/mol
DOCKED: USER    (3) Torsional Free Energy           =   +2.98 kcal/mol
DOCKED: USER    (4) Unbound System's Energy  [=(2)] =   -2.04 kcal/mol
DOCKED: USER    
DOCKED: USER    
DOCKED: USER    NEWDPF move heme_O2_opt.pdbqt
DOCKED: USER    NEWDPF about 8.287000 34.468000 -0.670000
DOCKED: USER    NEWDPF tran0 12.736807 1.580383 16.497384
DOCKED: USER    NEWDPF quaternion0 0.359223 -0.780902 -0.503285 0.088633
DOCKED: USER    NEWDPF axisangle0 0.360642 -0.783987 -0.505273 169.830050
DOCKED: USER    NEWDPF quat0 0.360642 -0.783987 -0.505273 169.830050
DOCKED: USER    NEWDPF dihe0 -10.20 150.62 -75.56 -59.98 46.17 -58.12 -161.84 121.18 178.86 -180.00 
DOCKED: USER  keepresnum = 1 
DOCKED: USER  
DOCKED: REMARK  10 active torsions:
DOCKED: REMARK  status: ('A' for Active; 'I' for Inactive)
DOCKED: REMARK    1  A    between atoms: C_6  and  C_10 
DOCKED: REMARK    2  A    between atoms: C_10  and  C_11 
DOCKED: REMARK    3  A    between atoms: C_11  and  C_12 
DOCKED: REMARK    4  A    between atoms: C_12  and  O_14 
DOCKED: REMARK    5  A    between atoms: C_17  and  C_20 
DOCKED: REMARK    6  A    between atoms: C_24  and  C_27 
DOCKED: REMARK    7  A    between atoms: C_31  and  C_34 
DOCKED: REMARK    8  A    between atoms: C_34  and  C_35 
DOCKED: REMARK    9  A    between atoms: C_35  and  C_36 
DOCKED: REMARK   10  A    between atoms: C_36  and  O_38 
DOCKED: USER                              x       y       z     vdW  Elec       q    Type
DOCKED: USER                           _______ _______ _______ _____ _____    ______ ____
DOCKED: ROOT
DOCKED: ATOM      1  C   UNL d   1      13.882   1.925  18.249 -0.03 +0.02    +0.064 A 
DOCKED: ATOM      2  C   UNL d   1      13.975   3.878  13.921 -0.12 +0.03    +0.064 A 
DOCKED: ATOM      3  C   UNL d   1      10.426   0.995  12.443 -0.25 +0.02    +0.064 C 
DOCKED: ATOM      4  C   UNL d   1       9.996  -0.693  17.029 -0.01 +0.02    +0.064 A 
DOCKED: ATOM      5  C   UNL d   1      14.195   2.693  17.193 -0.06 +0.03    +0.066 A 
DOCKED: ATOM      6  C   UNL d   1      15.207   3.657  17.200 -0.05 -0.01    -0.021 A 
DOCKED: ATOM      7  C   UNL d   1      15.206   4.254  15.961 -0.07 -0.01    -0.025 A 
DOCKED: ATOM      8  C   UNL d   1      14.226   3.603  15.216 -0.08 +0.04    +0.066 A 
DOCKED: ATOM      9  C   UNL d   1      16.095   5.409  15.555 -0.06 +0.02    +0.051 C 
DOCKED: ATOM     10  C   UNL d   1      12.976   3.215  13.082 -0.17 +0.03    +0.066 A 
DOCKED: ATOM     11  C   UNL d   1      12.868   3.424  11.703 -0.27 -0.01    -0.021 A 
DOCKED: ATOM     12  C   UNL d   1      11.862   2.588  11.255 -0.37 +0.00    +0.000 A 
DOCKED: ATOM     13  C   UNL d   1      11.394   1.910  12.414 -0.25 +0.02    +0.070 A 
DOCKED: ATOM     14  C   UNL d   1      13.708   4.362  10.844 -0.30 +0.01    +0.052 C 
DOCKED: ATOM     15  C   UNL d   1       9.900   0.311  13.600 -0.15 +0.02    +0.066 A 
DOCKED: ATOM     16  C   UNL d   1       8.775  -0.514  13.587 -0.21 -0.00    -0.021 A 
DOCKED: ATOM     17  C   UNL d   1       8.633  -1.006  14.884 -0.15 +0.00    +0.000 A 
DOCKED: ATOM     18  C   UNL d   1       9.696  -0.438  15.600 -0.06 +0.02    +0.070 A 
DOCKED: ATOM     19  C   UNL d   1       7.915  -0.712  12.365 -0.31 +0.01    +0.052 C 
DOCKED: ATOM     20  C   UNL d   1      10.982  -0.132  17.757 -0.07 +0.02    +0.066 A 
DOCKED: ATOM     21  C   UNL d   1      11.226  -0.425  19.095 -0.04 -0.00    -0.025 A 
DOCKED: ATOM     22  C   UNL d   1      12.347   0.291  19.453 -0.02 -0.00    -0.021 A 
DOCKED: ATOM     23  C   UNL d   1      12.735   1.012  18.319 -0.04 +0.02    +0.066 A 
DOCKED: ATOM     24  C   UNL d   1      10.429  -1.339  19.990 -0.03 +0.01    +0.051 C 
DOCKED: ATOM     25  N   UNL d   1      13.560   2.687  15.996 -0.08 -0.14    -0.248 N 
DOCKED: ATOM     26  N   UNL d   1      12.074   2.300  13.522 -0.14 -0.10    -0.248 N 
DOCKED: ATOM     27  N   UNL d   1      10.410   0.417  14.823 -0.11 -0.08    -0.248 N 
DOCKED: ATOM     28  N   UNL d   1      11.876   0.786  17.303 -0.06 -0.09    -0.248 N 
DOCKED: ATOM     29 FE   UNL d   1      11.972   1.536  15.426 -0.03 +0.00    +0.000 Fe
DOCKED: ATOM     30  O   UNL d   1      11.639   3.052  15.546 -0.45 +0.00    +0.000 OA
DOCKED: ATOM     31  O   UNL d   1      10.595   1.981  16.042 -0.37 +0.00    +0.000 OA
DOCKED: ENDROOT
DOCKED: BRANCH   6  32
DOCKED: ATOM     32  C   UNL d   1      16.052   4.101  18.366 -0.02 +0.02    +0.052 C 
DOCKED: BRANCH  32  33
DOCKED: ATOM     33  C   UNL d   1      15.527   5.370  19.029 -0.03 +0.05    +0.115 C 
DOCKED: BRANCH  33  34
DOCKED: ATOM     34  C   UNL d   1      14.104   5.679  18.635 +0.22 +0.15    +0.139 C 
DOCKED: ATOM     35  O   UNL d   1      13.879   6.578  17.841 -0.23 -1.00    -0.650 OA
DOCKED: BRANCH  34  36
DOCKED: ATOM     36  O   UNL d   1      13.065   4.999  19.164 -0.30 -1.03    -0.776 OA
DOCKED: ATOM     37  H   UNL d   1      13.191   4.207  19.698 +0.02 +0.12    +0.167 HD
DOCKED: ENDBRANCH  34  36
DOCKED: ENDBRANCH  33  34
DOCKED: ENDBRANCH  32  33
DOCKED: ENDBRANCH   6  32
DOCKED: BRANCH  22  38
DOCKED: ATOM     38  C   UNL d   1      12.966   0.327  20.826 -0.01 +0.01    +0.052 C 
DOCKED: BRANCH  38  39
DOCKED: ATOM     39  C   UNL d   1      12.200   1.235  21.786 -0.01 +0.02    +0.115 C 
DOCKED: BRANCH  39  40
DOCKED: ATOM     40  C   UNL d   1      12.145   2.664  21.307 -0.02 +0.03    +0.139 C 
DOCKED: ATOM     41  O   UNL d   1      11.260   3.014  20.543 -0.00 -0.25    -0.650 OA
DOCKED: BRANCH  40  42
DOCKED: ATOM     42  O   UNL d   1      13.029   3.580  21.749 +0.03 -0.18    -0.776 OA
DOCKED: ATOM     43  H   UNL d   1      13.265   4.351  21.218 +0.01 +0.05    +0.167 HD
DOCKED: ENDBRANCH  40  42
DOCKED: ENDBRANCH  39  40
DOCKED: ENDBRANCH  38  39
DOCKED: ENDBRANCH  22  38
DOCKED: BRANCH  12  44
DOCKED: ATOM     44  C   UNL d   1      11.457   2.527   9.797 -0.46 +0.00    +0.004 C 
DOCKED: ATOM     45  C   UNL d   1      11.806   1.618   8.888 -0.42 +0.00    +0.012 C 
DOCKED: ENDBRANCH  12  44
DOCKED: BRANCH  17  46
DOCKED: ATOM     46  C   UNL d   1       7.579  -1.890  15.496 -0.17 +0.00    +0.004 C 
DOCKED: ATOM     47  C   UNL d   1       6.285  -1.614  15.704 -0.26 -0.00    +0.012 C 
DOCKED: ENDBRANCH  17  46
DOCKED: TORSDOF 10
DOCKED: TER
DOCKED: ENDMDL
________________________________________________________________________________


	BEGINNING GENETIC ALGORITHM DOCKING 64 of 100
Run: 64 Seed: 831772634 1716327478 [ Run 64 of 100 GA/GALS ]
Beginning LAMARCKIAN GENETIC ALGORITHM (LGA), with a maximum of 25000000 energy evaluations.

Final-Value: -8.989


	FINAL GENETIC ALGORITHM DOCKED STATE
	_______________________________________________


Detailed state:  trans -5.705 12.170 -11.958 quatxyzw 0.820546 0.449099 -0.008836 -0.353463 center 8.287 34.468 -0.670 ntor 10 -37.4093 -117.0122 122.1618 -89.7724 99.8899 120.1583 29.1945 -96.3796 -18.2244 -33.0717
State:	 -5.705  12.170 -11.958   0.877  0.480 -0.009 -138.601    -37.41 -117.01  122.16  -89.77   99.89  120.16   29.19  -96.38  -18.22  -33.07

DOCKED: MODEL       64
DOCKED: USER    Run = 64
DOCKED: USER    DPF = D:/Protein_go_brrr/autodock/final/mut_N102T/heme_O2/dock.dpf
DOCKED: USER  
DOCKED: USER    Estimated Free Energy of Binding    =   -4.38 kcal/mol  [=(1)+(2)+(3)-(4)]
DOCKED: USER    Estimated Inhibition Constant, Ki   =  616.08 uM (micromolar)  [Temperature = 298.15 K]
DOCKED: USER    
DOCKED: USER    (1) Final Intermolecular Energy     =   -7.36 kcal/mol
DOCKED: USER        vdW + Hbond + desolv Energy     =   -7.32 kcal/mol
DOCKED: USER        Electrostatic Energy            =   -0.04 kcal/mol
DOCKED: USER    (2) Final Total Internal Energy     =   -1.63 kcal/mol
DOCKED: USER    (3) Torsional Free Energy           =   +2.98 kcal/mol
DOCKED: USER    (4) Unbound System's Energy  [=(2)] =   -1.63 kcal/mol
DOCKED: USER    
DOCKED: USER    
DOCKED: USER    NEWDPF move heme_O2_opt.pdbqt
DOCKED: USER    NEWDPF about 8.287000 34.468000 -0.670000
DOCKED: USER    NEWDPF tran0 -5.705212 12.169503 -11.957760
DOCKED: USER    NEWDPF quaternion0 0.820546 0.449099 -0.008836 -0.353463
DOCKED: USER    NEWDPF axisangle0 0.877169 0.480089 -0.009445 -138.601407
DOCKED: USER    NEWDPF quat0 0.877169 0.480089 -0.009445 -138.601407
DOCKED: USER    NEWDPF dihe0 -37.41 -117.01 122.16 -89.77 99.89 120.16 29.19 -96.38 -18.22 -33.07 
DOCKED: USER  keepresnum = 1 
DOCKED: USER  
DOCKED: REMARK  10 active torsions:
DOCKED: REMARK  status: ('A' for Active; 'I' for Inactive)
DOCKED: REMARK    1  A    between atoms: C_6  and  C_10 
DOCKED: REMARK    2  A    between atoms: C_10  and  C_11 
DOCKED: REMARK    3  A    between atoms: C_11  and  C_12 
DOCKED: REMARK    4  A    between atoms: C_12  and  O_14 
DOCKED: REMARK    5  A    between atoms: C_17  and  C_20 
DOCKED: REMARK    6  A    between atoms: C_24  and  C_27 
DOCKED: REMARK    7  A    between atoms: C_31  and  C_34 
DOCKED: REMARK    8  A    between atoms: C_34  and  C_35 
DOCKED: REMARK    9  A    between atoms: C_35  and  C_36 
DOCKED: REMARK   10  A    between atoms: C_36  and  O_38 
DOCKED: USER                              x       y       z     vdW  Elec       q    Type
DOCKED: USER                           _______ _______ _______ _____ _____    ______ ____
DOCKED: ROOT
DOCKED: ATOM      1  C   UNL d   1      -6.616  11.065 -10.393 -0.11 -0.00    +0.064 A 
DOCKED: ATOM      2  C   UNL d   1      -6.818  10.689 -15.123 -0.19 -0.01    +0.064 A 
DOCKED: ATOM      3  C   UNL d   1      -3.900  14.472 -15.641 -0.21 +0.01    +0.064 C 
DOCKED: ATOM      4  C   UNL d   1      -3.302  14.573 -10.773 -0.20 -0.01    +0.064 A 
DOCKED: ATOM      5  C   UNL d   1      -6.907  10.653 -11.637 -0.12 -0.01    +0.066 A 
DOCKED: ATOM      6  C   UNL d   1      -7.757   9.581 -11.928 -0.16 +0.00    -0.021 A 
DOCKED: ATOM      7  C   UNL d   1      -7.782   9.444 -13.296 -0.21 +0.00    -0.025 A 
DOCKED: ATOM      8  C   UNL d   1      -6.986  10.466 -13.805 -0.16 -0.01    +0.066 A 
DOCKED: ATOM      9  C   UNL d   1      -8.520   8.355 -14.043 -0.26 -0.01    +0.051 C 
DOCKED: ATOM     10  C   UNL d   1      -6.015  11.758 -15.717 -0.18 -0.00    +0.066 A 
DOCKED: ATOM     11  C   UNL d   1      -6.007  12.045 -17.086 -0.18 -0.00    -0.021 A 
DOCKED: ATOM     12  C   UNL d   1      -5.185  13.144 -17.253 -0.22 +0.00    +0.000 A 
DOCKED: ATOM     13  C   UNL d   1      -4.718  13.466 -15.949 -0.21 +0.00    +0.070 A 
DOCKED: ATOM     14  C   UNL d   1      -6.772  11.318 -18.186 -0.17 +0.00    +0.052 C 
DOCKED: ATOM     15  C   UNL d   1      -3.377  14.809 -14.339 -0.11 +0.01    +0.066 A 
DOCKED: ATOM     16  C   UNL d   1      -2.396  15.773 -14.106 -0.16 -0.00    -0.021 A 
DOCKED: ATOM     17  C   UNL d   1      -2.208  15.819 -12.725 -0.15 +0.00    +0.000 A 
DOCKED: ATOM     18  C   UNL d   1      -3.102  14.868 -12.211 -0.16 -0.00    +0.070 A 
DOCKED: ATOM     19  C   UNL d   1      -1.694  16.516 -15.214 -0.20 +0.02    +0.052 C 
DOCKED: ATOM     20  C   UNL d   1      -4.118  13.639 -10.249 -0.20 -0.01    +0.066 A 
DOCKED: ATOM     21  C   UNL d   1      -4.277  13.419  -8.883 -0.24 +0.00    -0.025 A 
DOCKED: ATOM     22  C   UNL d   1      -5.238  12.441  -8.755 -0.19 +0.00    -0.021 A 
DOCKED: ATOM     23  C   UNL d   1      -5.618  12.086 -10.053 -0.13 -0.00    +0.066 A 
DOCKED: ATOM     24  C   UNL d   1      -3.547  14.105  -7.758 -0.28 +0.00    +0.051 C 
DOCKED: ATOM     25  N   UNL d   1      -6.395  11.170 -12.781 -0.06 +0.03    -0.248 N 
DOCKED: ATOM     26  N   UNL d   1      -5.224  12.615 -15.020 -0.12 +0.01    -0.248 N 
DOCKED: ATOM     27  N   UNL d   1      -3.748  14.213 -13.209 -0.12 -0.01    -0.248 N 
DOCKED: ATOM     28  N   UNL d   1      -4.902  12.785 -10.959 -0.11 +0.02    -0.248 N 
DOCKED: ATOM     29 FE   UNL d   1      -5.060  12.702 -12.975 -0.04 -0.00    +0.000 Fe
DOCKED: ATOM     30  O   UNL d   1      -4.492  11.317 -13.399 -0.42 -0.00    +0.000 OA
DOCKED: ATOM     31  O   UNL d   1      -3.580  12.324 -12.601 -0.44 -0.00    +0.000 OA
DOCKED: ENDROOT
DOCKED: BRANCH   6  32
DOCKED: ATOM     32  C   UNL d   1      -8.412   8.633 -10.957 -0.02 -0.01    +0.052 C 
DOCKED: BRANCH  32  33
DOCKED: ATOM     33  C   UNL d   1      -9.435   9.320 -10.058 -0.09 -0.01    +0.115 C 
DOCKED: BRANCH  33  34
DOCKED: ATOM     34  C   UNL d   1      -9.603   8.615  -8.735 -0.09 +0.00    +0.139 C 
DOCKED: ATOM     35  O   UNL d   1      -9.815   7.413  -8.714 -0.46 -0.09    -0.650 OA
DOCKED: BRANCH  34  36
DOCKED: ATOM     36  O   UNL d   1      -9.552   9.289  -7.567 +0.03 +0.01    -0.776 OA
DOCKED: ATOM     37  H   UNL d   1      -8.945  10.026  -7.429 +0.03 -0.00    +0.167 HD
DOCKED: ENDBRANCH  34  36
DOCKED: ENDBRANCH  33  34
DOCKED: ENDBRANCH  32  33
DOCKED: ENDBRANCH   6  32
DOCKED: BRANCH  22  38
DOCKED: ATOM     38  C   UNL d   1      -5.713  11.841  -7.458 -0.21 -0.00    +0.052 C 
DOCKED: BRANCH  38  39
DOCKED: ATOM     39  C   UNL d   1      -6.509  12.833  -6.614 -0.06 +0.00    +0.115 C 
DOCKED: BRANCH  39  40
DOCKED: ATOM     40  C   UNL d   1      -7.953  12.925  -7.040 -0.02 +0.00    +0.139 C 
DOCKED: ATOM     41  O   UNL d   1      -8.301  13.800  -7.817 +0.01 +0.00    -0.650 OA
DOCKED: BRANCH  40  42
DOCKED: ATOM     42  O   UNL d   1      -8.861  12.024  -6.619 +0.02 +0.00    -0.776 OA
DOCKED: ATOM     43  H   UNL d   1      -9.293  11.418  -7.233 +0.01 -0.00    +0.167 HD
DOCKED: ENDBRANCH  40  42
DOCKED: ENDBRANCH  39  40
DOCKED: ENDBRANCH  38  39
DOCKED: ENDBRANCH  22  38
DOCKED: BRANCH  12  44
DOCKED: ATOM     44  C   UNL d   1      -4.932  13.760 -18.614 -0.20 +0.00    +0.004 C 
DOCKED: ATOM     45  C   UNL d   1      -4.358  13.194 -19.675 -0.19 +0.00    +0.012 C 
DOCKED: ENDBRANCH  12  44
DOCKED: BRANCH  17  46
DOCKED: ATOM     46  C   UNL d   1      -1.247  16.616 -11.884 -0.16 -0.00    +0.004 C 
DOCKED: ATOM     47  C   UNL d   1      -0.061  16.234 -11.394 -0.24 -0.00    +0.012 C 
DOCKED: ENDBRANCH  17  46
DOCKED: TORSDOF 10
DOCKED: TER
DOCKED: ENDMDL
________________________________________________________________________________


	BEGINNING GENETIC ALGORITHM DOCKING 65 of 100
Run: 65 Seed: 765811322 99440484 [ Run 65 of 100 GA/GALS ]
Beginning LAMARCKIAN GENETIC ALGORITHM (LGA), with a maximum of 25000000 energy evaluations.

Final-Value: -10.524


	FINAL GENETIC ALGORITHM DOCKED STATE
	_______________________________________________


Detailed state:  trans -2.763 -21.485 -2.608 quatxyzw -0.120495 -0.384359 0.006731 -0.915262 center 8.287 34.468 -0.670 ntor 10 -98.2045 121.9423 52.5082 72.4118 75.1204 -46.3983 -143.4107 105.9452 -179.9816 -171.2318
State:	 -2.763 -21.485  -2.608  -0.299 -0.954  0.017 -47.514    -98.20  121.94   52.51   72.41   75.12  -46.40 -143.41  105.95 -179.98 -171.23

DOCKED: MODEL       65
DOCKED: USER    Run = 65
DOCKED: USER    DPF = D:/Protein_go_brrr/autodock/final/mut_N102T/heme_O2/dock.dpf
DOCKED: USER  
DOCKED: USER    Estimated Free Energy of Binding    =   -5.40 kcal/mol  [=(1)+(2)+(3)-(4)]
DOCKED: USER    Estimated Inhibition Constant, Ki   =  110.72 uM (micromolar)  [Temperature = 298.15 K]
DOCKED: USER    
DOCKED: USER    (1) Final Intermolecular Energy     =   -8.38 kcal/mol
DOCKED: USER        vdW + Hbond + desolv Energy     =   -5.15 kcal/mol
DOCKED: USER        Electrostatic Energy            =   -3.23 kcal/mol
DOCKED: USER    (2) Final Total Internal Energy     =   -2.14 kcal/mol
DOCKED: USER    (3) Torsional Free Energy           =   +2.98 kcal/mol
DOCKED: USER    (4) Unbound System's Energy  [=(2)] =   -2.14 kcal/mol
DOCKED: USER    
DOCKED: USER    
DOCKED: USER    NEWDPF move heme_O2_opt.pdbqt
DOCKED: USER    NEWDPF about 8.287000 34.468000 -0.670000
DOCKED: USER    NEWDPF tran0 -2.762789 -21.484959 -2.608323
DOCKED: USER    NEWDPF quaternion0 -0.120495 -0.384359 0.006731 -0.915262
DOCKED: USER    NEWDPF axisangle0 -0.299099 -0.954076 0.016708 -47.514178
DOCKED: USER    NEWDPF quat0 -0.299099 -0.954076 0.016708 -47.514178
DOCKED: USER    NEWDPF dihe0 -98.20 121.94 52.51 72.41 75.12 -46.40 -143.41 105.95 -179.98 -171.23 
DOCKED: USER  keepresnum = 1 
DOCKED: USER  
DOCKED: REMARK  10 active torsions:
DOCKED: REMARK  status: ('A' for Active; 'I' for Inactive)
DOCKED: REMARK    1  A    between atoms: C_6  and  C_10 
DOCKED: REMARK    2  A    between atoms: C_10  and  C_11 
DOCKED: REMARK    3  A    between atoms: C_11  and  C_12 
DOCKED: REMARK    4  A    between atoms: C_12  and  O_14 
DOCKED: REMARK    5  A    between atoms: C_17  and  C_20 
DOCKED: REMARK    6  A    between atoms: C_24  and  C_27 
DOCKED: REMARK    7  A    between atoms: C_31  and  C_34 
DOCKED: REMARK    8  A    between atoms: C_34  and  C_35 
DOCKED: REMARK    9  A    between atoms: C_35  and  C_36 
DOCKED: REMARK   10  A    between atoms: C_36  and  O_38 
DOCKED: USER                              x       y       z     vdW  Elec       q    Type
DOCKED: USER                           _______ _______ _______ _____ _____    ______ ____
DOCKED: ROOT
DOCKED: ATOM      1  C   UNL d   1      -3.468 -21.269  -4.597 -0.05 +0.04    +0.064 A 
DOCKED: ATOM      2  C   UNL d   1      -5.473 -22.995  -0.653 -0.02 +0.02    +0.064 A 
DOCKED: ATOM      3  C   UNL d   1      -1.462 -22.164   1.861 -0.07 +0.01    +0.064 C 
DOCKED: ATOM      4  C   UNL d   1       0.449 -19.947  -2.076 -0.18 +0.02    +0.064 A 
DOCKED: ATOM      5  C   UNL d   1      -4.341 -21.805  -3.729 -0.04 +0.04    +0.066 A 
DOCKED: ATOM      6  C   UNL d   1      -5.632 -22.216  -4.071 -0.01 -0.01    -0.021 A 
DOCKED: ATOM      7  C   UNL d   1      -6.229 -22.676  -2.921 -0.00 -0.01    -0.025 A 
DOCKED: ATOM      8  C   UNL d   1      -5.269 -22.577  -1.917 -0.02 +0.03    +0.066 A 
DOCKED: ATOM      9  C   UNL d   1      -7.662 -23.151  -2.819 +0.00 +0.01    +0.051 C 
DOCKED: ATOM     10  C   UNL d   1      -4.497 -22.939   0.437 -0.04 +0.02    +0.066 A 
DOCKED: ATOM     11  C   UNL d   1      -4.704 -23.534   1.686 -0.02 -0.00    -0.021 A 
DOCKED: ATOM     12  C   UNL d   1      -3.551 -23.321   2.419 -0.04 +0.00    +0.000 A 
DOCKED: ATOM     13  C   UNL d   1      -2.692 -22.581   1.560 -0.05 +0.01    +0.070 A 
DOCKED: ATOM     14  C   UNL d   1      -5.938 -24.299   2.151 -0.00 +0.00    +0.052 C 
DOCKED: ATOM     15  C   UNL d   1      -0.575 -21.383   1.033 -0.08 +0.02    +0.066 A 
DOCKED: ATOM     16  C   UNL d   1       0.634 -20.838   1.465 -0.14 -0.01    -0.021 A 
DOCKED: ATOM     17  C   UNL d   1       1.197 -20.201   0.359 -0.21 +0.00    +0.000 A 
DOCKED: ATOM     18  C   UNL d   1       0.277 -20.408  -0.678 -0.18 +0.02    +0.070 A 
DOCKED: ATOM     19  C   UNL d   1       1.113 -20.927   2.892 -0.16 +0.02    +0.052 C 
DOCKED: ATOM     20  C   UNL d   1      -0.433 -20.091  -3.085 -0.13 +0.03    +0.066 A 
DOCKED: ATOM     21  C   UNL d   1      -0.208 -19.651  -4.387 -0.18 -0.01    -0.025 A 
DOCKED: ATOM     22  C   UNL d   1      -1.302 -20.043  -5.125 -0.12 -0.01    -0.021 A 
DOCKED: ATOM     23  C   UNL d   1      -2.165 -20.695  -4.239 -0.09 +0.04    +0.066 A 
DOCKED: ATOM     24  C   UNL d   1       0.989 -18.892  -4.899 -0.23 +0.01    +0.051 C 
DOCKED: ATOM     25  N   UNL d   1      -4.128 -21.980  -2.402 -0.04 -0.15    -0.248 N 
DOCKED: ATOM     26  N   UNL d   1      -3.278 -22.348   0.358 -0.06 -0.09    -0.248 N 
DOCKED: ATOM     27  N   UNL d   1      -0.826 -21.062  -0.233 -0.11 -0.09    -0.248 N 
DOCKED: ATOM     28  N   UNL d   1      -1.653 -20.682  -2.991 -0.09 -0.16    -0.248 N 
DOCKED: ATOM     29 FE   UNL d   1      -2.457 -21.508  -1.327 -0.02 +0.00    +0.000 Fe
DOCKED: ATOM     30  O   UNL d   1      -3.700 -20.642  -0.969 -0.66 +0.00    +0.000 OA
DOCKED: ATOM     31  O   UNL d   1      -2.277 -19.970  -1.051 -0.31 +0.00    +0.000 OA
DOCKED: ENDROOT
DOCKED: BRANCH   6  32
DOCKED: ATOM     32  C   UNL d   1      -6.331 -22.058  -5.397 +0.00 +0.02    +0.052 C 
DOCKED: BRANCH  32  33
DOCKED: ATOM     33  C   UNL d   1      -7.226 -20.824  -5.451 +0.00 +0.05    +0.115 C 
DOCKED: BRANCH  33  34
DOCKED: ATOM     34  C   UNL d   1      -6.664 -19.670  -4.657 -0.04 +0.11    +0.139 C 
DOCKED: ATOM     35  O   UNL d   1      -6.739 -19.683  -3.439 -0.03 -0.72    -0.650 OA
DOCKED: BRANCH  34  36
DOCKED: ATOM     36  O   UNL d   1      -6.103 -18.605  -5.266 +0.02 -0.83    -0.776 OA
DOCKED: ATOM     37  H   UNL d   1      -5.149 -18.522  -5.373 +0.03 +0.21    +0.167 HD
DOCKED: ENDBRANCH  34  36
DOCKED: ENDBRANCH  33  34
DOCKED: ENDBRANCH  32  33
DOCKED: ENDBRANCH   6  32
DOCKED: BRANCH  22  38
DOCKED: ATOM     38  C   UNL d   1      -1.527 -19.748  -6.585 -0.14 +0.02    +0.052 C 
DOCKED: BRANCH  38  39
DOCKED: ATOM     39  C   UNL d   1      -1.795 -18.268  -6.845 -0.24 +0.09    +0.115 C 
DOCKED: BRANCH  39  40
DOCKED: ATOM     40  C   UNL d   1      -3.185 -17.853  -6.434 -0.14 +0.21    +0.139 C 
DOCKED: ATOM     41  O   UNL d   1      -3.362 -17.312  -5.354 -0.42 -1.18    -0.650 OA
DOCKED: BRANCH  40  42
DOCKED: ATOM     42  O   UNL d   1      -4.235 -18.021  -7.262 -0.25 -1.21    -0.776 OA
DOCKED: ATOM     43  H   UNL d   1      -5.019 -18.513  -6.989 +0.03 +0.18    +0.167 HD
DOCKED: ENDBRANCH  40  42
DOCKED: ENDBRANCH  39  40
DOCKED: ENDBRANCH  38  39
DOCKED: ENDBRANCH  22  38
DOCKED: BRANCH  12  44
DOCKED: ATOM     44  C   UNL d   1      -3.393 -23.833   3.835 -0.02 +0.00    +0.004 C 
DOCKED: ATOM     45  C   UNL d   1      -2.961 -23.165   4.904 -0.04 +0.00    +0.012 C 
DOCKED: ENDBRANCH  12  44
DOCKED: BRANCH  17  46
DOCKED: ATOM     46  C   UNL d   1       2.458 -19.390   0.222 -0.31 +0.00    +0.004 C 
DOCKED: ATOM     47  C   UNL d   1       3.726 -19.802   0.353 -0.24 +0.00    +0.012 C 
DOCKED: ENDBRANCH  17  46
DOCKED: TORSDOF 10
DOCKED: TER
DOCKED: ENDMDL
________________________________________________________________________________


	BEGINNING GENETIC ALGORITHM DOCKING 66 of 100
Run: 66 Seed: 1105245837 762000021 [ Run 66 of 100 GA/GALS ]
Beginning LAMARCKIAN GENETIC ALGORITHM (LGA), with a maximum of 25000000 energy evaluations.

Final-Value: -8.467


	FINAL GENETIC ALGORITHM DOCKED STATE
	_______________________________________________


Detailed state:  trans -11.433 4.081 12.148 quatxyzw -0.711884 0.557939 0.354979 0.236462 center 8.287 34.468 -0.670 ntor 10 -7.0976 23.3784 91.1179 -120.4016 47.7476 -11.2624 -125.4784 -53.2387 179.8710 19.3344
State:	-11.433   4.081  12.148  -0.733  0.574  0.365 152.644     -7.10   23.38   91.12 -120.40   47.75  -11.26 -125.48  -53.24  179.87   19.33

DOCKED: MODEL       66
DOCKED: USER    Run = 66
DOCKED: USER    DPF = D:/Protein_go_brrr/autodock/final/mut_N102T/heme_O2/dock.dpf
DOCKED: USER  
DOCKED: USER    Estimated Free Energy of Binding    =   -3.52 kcal/mol  [=(1)+(2)+(3)-(4)]
DOCKED: USER    Estimated Inhibition Constant, Ki   =    2.64 mM (millimolar)  [Temperature = 298.15 K]
DOCKED: USER    
DOCKED: USER    (1) Final Intermolecular Energy     =   -6.50 kcal/mol
DOCKED: USER        vdW + Hbond + desolv Energy     =   -6.54 kcal/mol
DOCKED: USER        Electrostatic Energy            =   +0.04 kcal/mol
DOCKED: USER    (2) Final Total Internal Energy     =   -1.97 kcal/mol
DOCKED: USER    (3) Torsional Free Energy           =   +2.98 kcal/mol
DOCKED: USER    (4) Unbound System's Energy  [=(2)] =   -1.97 kcal/mol
DOCKED: USER    
DOCKED: USER    
DOCKED: USER    NEWDPF move heme_O2_opt.pdbqt
DOCKED: USER    NEWDPF about 8.287000 34.468000 -0.670000
DOCKED: USER    NEWDPF tran0 -11.432764 4.080862 12.148380
DOCKED: USER    NEWDPF quaternion0 -0.711884 0.557939 0.354979 0.236462
DOCKED: USER    NEWDPF axisangle0 -0.732662 0.574224 0.365340 152.644397
DOCKED: USER    NEWDPF quat0 -0.732662 0.574224 0.365340 152.644397
DOCKED: USER    NEWDPF dihe0 -7.10 23.38 91.12 -120.40 47.75 -11.26 -125.48 -53.24 179.87 19.33 
DOCKED: USER  keepresnum = 1 
DOCKED: USER  
DOCKED: REMARK  10 active torsions:
DOCKED: REMARK  status: ('A' for Active; 'I' for Inactive)
DOCKED: REMARK    1  A    between atoms: C_6  and  C_10 
DOCKED: REMARK    2  A    between atoms: C_10  and  C_11 
DOCKED: REMARK    3  A    between atoms: C_11  and  C_12 
DOCKED: REMARK    4  A    between atoms: C_12  and  O_14 
DOCKED: REMARK    5  A    between atoms: C_17  and  C_20 
DOCKED: REMARK    6  A    between atoms: C_24  and  C_27 
DOCKED: REMARK    7  A    between atoms: C_31  and  C_34 
DOCKED: REMARK    8  A    between atoms: C_34  and  C_35 
DOCKED: REMARK    9  A    between atoms: C_35  and  C_36 
DOCKED: REMARK   10  A    between atoms: C_36  and  O_38 
DOCKED: USER                              x       y       z     vdW  Elec       q    Type
DOCKED: USER                           _______ _______ _______ _____ _____    ______ ____
DOCKED: ROOT
DOCKED: ATOM      1  C   UNL d   1     -11.429   5.673  13.550 -0.15 +0.00    +0.064 A 
DOCKED: ATOM      2  C   UNL d   1     -12.425   5.487   8.910 -0.17 -0.00    +0.064 A 
DOCKED: ATOM      3  C   UNL d   1     -11.458   0.781   8.797 -0.27 -0.01    +0.064 C 
DOCKED: ATOM      4  C   UNL d   1     -10.893   0.863  13.669 -0.24 +0.01    +0.064 A 
DOCKED: ATOM      5  C   UNL d   1     -11.781   6.006  12.298 -0.15 +0.00    +0.066 A 
DOCKED: ATOM      6  C   UNL d   1     -12.118   7.302  11.898 -0.11 +0.00    -0.021 A 
DOCKED: ATOM      7  C   UNL d   1     -12.448   7.241  10.564 -0.10 +0.00    -0.025 A 
DOCKED: ATOM      8  C   UNL d   1     -12.257   5.919  10.175 -0.15 -0.00    +0.066 A 
DOCKED: ATOM      9  C   UNL d   1     -12.949   8.409   9.742 -0.07 -0.00    +0.051 C 
DOCKED: ATOM     10  C   UNL d   1     -12.217   4.117   8.437 -0.21 -0.00    +0.066 A 
DOCKED: ATOM     11  C   UNL d   1     -12.246   3.758   7.085 -0.23 +0.00    -0.021 A 
DOCKED: ATOM     12  C   UNL d   1     -11.952   2.408   7.030 -0.29 -0.00    +0.000 A 
DOCKED: ATOM     13  C   UNL d   1     -11.768   2.009   8.383 -0.23 -0.01    +0.070 A 
DOCKED: ATOM     14  C   UNL d   1     -12.517   4.669   5.893 -0.14 +0.00    +0.052 C 
DOCKED: ATOM     15  C   UNL d   1     -11.297   0.329  10.158 -0.23 -0.02    +0.066 A 
DOCKED: ATOM     16  C   UNL d   1     -11.135  -1.004  10.535 -0.28 +0.01    -0.021 A 
DOCKED: ATOM     17  C   UNL d   1     -10.973  -1.005  11.920 -0.28 -0.00    +0.000 A 
DOCKED: ATOM     18  C   UNL d   1     -11.048   0.345  12.289 -0.25 -0.00    +0.070 A 
DOCKED: ATOM     19  C   UNL d   1     -11.203  -2.149   9.556 -0.29 -0.04    +0.052 C 
DOCKED: ATOM     20  C   UNL d   1     -11.002   2.146  14.064 -0.16 +0.01    +0.066 A 
DOCKED: ATOM     21  C   UNL d   1     -10.829   2.576  15.377 -0.15 -0.00    -0.025 A 
DOCKED: ATOM     22  C   UNL d   1     -10.951   3.947  15.357 -0.10 -0.00    -0.021 A 
DOCKED: ATOM     23  C   UNL d   1     -11.213   4.303  14.031 -0.13 +0.01    +0.066 A 
DOCKED: ATOM     24  C   UNL d   1     -10.563   1.721  16.589 -0.13 +0.01    +0.051 C 
DOCKED: ATOM     25  N   UNL d   1     -11.909   5.145  11.258 -0.12 +0.00    -0.248 N 
DOCKED: ATOM     26  N   UNL d   1     -11.936   3.054   9.232 -0.16 +0.02    -0.248 N 
DOCKED: ATOM     27  N   UNL d   1     -11.320   1.133  11.217 -0.20 +0.03    -0.248 N 
DOCKED: ATOM     28  N   UNL d   1     -11.288   3.201  13.256 -0.13 -0.02    -0.248 N 
DOCKED: ATOM     29 FE   UNL d   1     -11.610   3.125  11.259 -0.06 -0.00    +0.000 Fe
DOCKED: ATOM     30  O   UNL d   1     -13.094   3.541  11.041 -0.13 -0.00    +0.000 OA
DOCKED: ATOM     31  O   UNL d   1     -12.755   2.301  11.953 -0.15 -0.00    +0.000 OA
DOCKED: ENDROOT
DOCKED: BRANCH   6  32
DOCKED: ATOM     32  C   UNL d   1     -12.259   8.528  12.763 -0.07 -0.00    +0.052 C 
DOCKED: BRANCH  32  33
DOCKED: ATOM     33  C   UNL d   1     -13.702   8.797  13.177 -0.01 -0.00    +0.115 C 
DOCKED: BRANCH  33  34
DOCKED: ATOM     34  C   UNL d   1     -14.357   7.590  13.801 -0.01 -0.00    +0.139 C 
DOCKED: ATOM     35  O   UNL d   1     -15.148   6.928  13.148 +0.01 +0.02    -0.650 OA
DOCKED: BRANCH  34  36
DOCKED: ATOM     36  O   UNL d   1     -14.110   7.238  15.079 +0.01 +0.02    -0.776 OA
DOCKED: ATOM     37  H   UNL d   1     -13.438   7.681  15.611 +0.01 -0.00    +0.167 HD
DOCKED: ENDBRANCH  34  36
DOCKED: ENDBRANCH  33  34
DOCKED: ENDBRANCH  32  33
DOCKED: ENDBRANCH   6  32
DOCKED: BRANCH  22  38
DOCKED: ATOM     38  C   UNL d   1     -10.882   4.852  16.560 -0.08 +0.00    +0.052 C 
DOCKED: BRANCH  38  39
DOCKED: ATOM     39  C   UNL d   1      -9.769   5.891  16.444 -0.12 +0.01    +0.115 C 
DOCKED: BRANCH  39  40
DOCKED: ATOM     40  C   UNL d   1     -10.275   7.301  16.627 -0.06 +0.00    +0.139 C 
DOCKED: ATOM     41  O   UNL d   1      -9.676   8.069  17.362 +0.02 +0.01    -0.650 OA
DOCKED: BRANCH  40  42
DOCKED: ATOM     42  O   UNL d   1     -11.352   7.747  15.952 +0.04 +0.00    -0.776 OA
DOCKED: ATOM     43  H   UNL d   1     -12.037   7.144  15.640 +0.02 -0.00    +0.167 HD
DOCKED: ENDBRANCH  40  42
DOCKED: ENDBRANCH  39  40
DOCKED: ENDBRANCH  38  39
DOCKED: ENDBRANCH  22  38
DOCKED: BRANCH  12  44
DOCKED: ATOM     44  C   UNL d   1     -11.882   1.653   5.719 -0.34 -0.00    +0.004 C 
DOCKED: ATOM     45  C   UNL d   1     -12.853   0.968   5.116 -0.22 -0.00    +0.012 C 
DOCKED: ENDBRANCH  12  44
DOCKED: BRANCH  17  46
DOCKED: ATOM     46  C   UNL d   1     -10.817  -2.141  12.895 -0.15 -0.00    +0.004 C 
DOCKED: ATOM     47  C   UNL d   1     -11.524  -2.382  14.007 -0.13 -0.00    +0.012 C 
DOCKED: ENDBRANCH  17  46
DOCKED: TORSDOF 10
DOCKED: TER
DOCKED: ENDMDL
________________________________________________________________________________


	BEGINNING GENETIC ALGORITHM DOCKING 67 of 100
Run: 67 Seed: 1389204511 1654307226 [ Run 67 of 100 GA/GALS ]
Beginning LAMARCKIAN GENETIC ALGORITHM (LGA), with a maximum of 25000000 energy evaluations.

Final-Value: -9.958


	FINAL GENETIC ALGORITHM DOCKED STATE
	_______________________________________________


Detailed state:  trans -11.345 3.704 11.888 quatxyzw -0.514066 0.226622 0.692898 -0.451963 center 8.287 34.468 -0.670 ntor 10 179.8555 20.6120 -34.6733 130.3070 167.6313 160.1970 -62.1533 -63.4527 -8.6957 -3.8875
State:	-11.345   3.704  11.888  -0.576  0.254  0.777 -126.261    179.86   20.61  -34.67  130.31  167.63  160.20  -62.15  -63.45   -8.70   -3.89

DOCKED: MODEL       67
DOCKED: USER    Run = 67
DOCKED: USER    DPF = D:/Protein_go_brrr/autodock/final/mut_N102T/heme_O2/dock.dpf
DOCKED: USER  
DOCKED: USER    Estimated Free Energy of Binding    =   -6.34 kcal/mol  [=(1)+(2)+(3)-(4)]
DOCKED: USER    Estimated Inhibition Constant, Ki   =   22.37 uM (micromolar)  [Temperature = 298.15 K]
DOCKED: USER    
DOCKED: USER    (1) Final Intermolecular Energy     =   -9.33 kcal/mol
DOCKED: USER        vdW + Hbond + desolv Energy     =   -8.12 kcal/mol
DOCKED: USER        Electrostatic Energy            =   -1.21 kcal/mol
DOCKED: USER    (2) Final Total Internal Energy     =   -0.63 kcal/mol
DOCKED: USER    (3) Torsional Free Energy           =   +2.98 kcal/mol
DOCKED: USER    (4) Unbound System's Energy  [=(2)] =   -0.63 kcal/mol
DOCKED: USER    
DOCKED: USER    
DOCKED: USER    NEWDPF move heme_O2_opt.pdbqt
DOCKED: USER    NEWDPF about 8.287000 34.468000 -0.670000
DOCKED: USER    NEWDPF tran0 -11.345266 3.704334 11.888210
DOCKED: USER    NEWDPF quaternion0 -0.514066 0.226622 0.692898 -0.451963
DOCKED: USER    NEWDPF axisangle0 -0.576284 0.254051 0.776760 -126.260600
DOCKED: USER    NEWDPF quat0 -0.576284 0.254051 0.776760 -126.260600
DOCKED: USER    NEWDPF dihe0 179.86 20.61 -34.67 130.31 167.63 160.20 -62.15 -63.45 -8.70 -3.89 
DOCKED: USER  keepresnum = 1 
DOCKED: USER  
DOCKED: REMARK  10 active torsions:
DOCKED: REMARK  status: ('A' for Active; 'I' for Inactive)
DOCKED: REMARK    1  A    between atoms: C_6  and  C_10 
DOCKED: REMARK    2  A    between atoms: C_10  and  C_11 
DOCKED: REMARK    3  A    between atoms: C_11  and  C_12 
DOCKED: REMARK    4  A    between atoms: C_12  and  O_14 
DOCKED: REMARK    5  A    between atoms: C_17  and  C_20 
DOCKED: REMARK    6  A    between atoms: C_24  and  C_27 
DOCKED: REMARK    7  A    between atoms: C_31  and  C_34 
DOCKED: REMARK    8  A    between atoms: C_34  and  C_35 
DOCKED: REMARK    9  A    between atoms: C_35  and  C_36 
DOCKED: REMARK   10  A    between atoms: C_36  and  O_38 
DOCKED: USER                              x       y       z     vdW  Elec       q    Type
DOCKED: USER                           _______ _______ _______ _____ _____    ______ ____
DOCKED: ROOT
DOCKED: ATOM      1  C   UNL d   1     -11.339   2.052  13.218 -0.20 +0.00    +0.064 A 
DOCKED: ATOM      2  C   UNL d   1     -10.951   6.733  13.918 -0.17 +0.00    +0.064 A 
DOCKED: ATOM      3  C   UNL d   1     -11.244   7.557   9.192 -0.30 -0.00    +0.064 C 
DOCKED: ATOM      4  C   UNL d   1     -12.124   2.782   8.497 -0.22 -0.01    +0.064 A 
DOCKED: ATOM      5  C   UNL d   1     -11.211   3.258  13.794 -0.14 +0.01    +0.066 A 
DOCKED: ATOM      6  C   UNL d   1     -11.070   3.457  15.170 -0.12 -0.00    -0.021 A 
DOCKED: ATOM      7  C   UNL d   1     -11.001   4.815  15.378 -0.11 -0.00    -0.025 A 
DOCKED: ATOM      8  C   UNL d   1     -11.054   5.405  14.118 -0.09 +0.01    +0.066 A 
DOCKED: ATOM      9  C   UNL d   1     -10.920   5.480  16.735 -0.07 +0.00    +0.051 C 
DOCKED: ATOM     10  C   UNL d   1     -10.976   7.409  12.620 -0.21 +0.00    +0.066 A 
DOCKED: ATOM     11  C   UNL d   1     -10.701   8.771  12.456 -0.19 -0.00    -0.021 A 
DOCKED: ATOM     12  C   UNL d   1     -10.763   9.024  11.098 -0.20 -0.00    +0.000 A 
DOCKED: ATOM     13  C   UNL d   1     -11.092   7.777  10.498 -0.23 -0.00    +0.070 A 
DOCKED: ATOM     14  C   UNL d   1     -10.367   9.783  13.546 -0.14 +0.00    +0.052 C 
DOCKED: ATOM     15  C   UNL d   1     -11.610   6.319   8.549 -0.25 -0.00    +0.066 A 
DOCKED: ATOM     16  C   UNL d   1     -11.915   6.192   7.194 -0.18 +0.00    -0.021 A 
DOCKED: ATOM     17  C   UNL d   1     -12.170   4.838   6.972 -0.18 -0.00    +0.000 A 
DOCKED: ATOM     18  C   UNL d   1     -11.998   4.233   8.225 -0.23 -0.00    +0.070 A 
DOCKED: ATOM     19  C   UNL d   1     -11.989   7.368   6.254 -0.19 -0.00    +0.052 C 
DOCKED: ATOM     20  C   UNL d   1     -12.008   2.174   9.693 -0.21 -0.01    +0.066 A 
DOCKED: ATOM     21  C   UNL d   1     -12.120   0.799   9.885 -0.21 +0.00    -0.025 A 
DOCKED: ATOM     22  C   UNL d   1     -11.872   0.570  11.219 -0.22 +0.00    -0.021 A 
DOCKED: ATOM     23  C   UNL d   1     -11.635   1.820  11.799 -0.19 -0.00    +0.066 A 
DOCKED: ATOM     24  C   UNL d   1     -12.450  -0.242   8.847 -0.19 -0.01    +0.051 C 
DOCKED: ATOM     25  N   UNL d   1     -11.249   4.449  13.149 -0.11 -0.02    -0.248 N 
DOCKED: ATOM     26  N   UNL d   1     -11.224   6.801  11.432 -0.15 -0.01    -0.248 N 
DOCKED: ATOM     27  N   UNL d   1     -11.732   5.157   9.184 -0.15 +0.00    -0.248 N 
DOCKED: ATOM     28  N   UNL d   1     -11.763   2.796  10.877 -0.03 +0.03    -0.248 N 
DOCKED: ATOM     29 FE   UNL d   1     -11.496   4.784  11.149 -0.06 -0.00    +0.000 Fe
DOCKED: ATOM     30  O   UNL d   1     -12.692   5.268  12.020 -0.14 -0.00    +0.000 OA
DOCKED: ATOM     31  O   UNL d   1     -12.966   4.572  10.634 -0.14 -0.00    +0.000 OA
DOCKED: ENDROOT
DOCKED: BRANCH   6  32
DOCKED: ATOM     32  C   UNL d   1     -11.135   2.423  16.264 -0.10 +0.01    +0.052 C 
DOCKED: BRANCH  32  33
DOCKED: ATOM     33  C   UNL d   1      -9.877   1.564  16.343 -0.15 +0.05    +0.115 C 
DOCKED: BRANCH  33  34
DOCKED: ATOM     34  C   UNL d   1      -9.132   1.753  17.641 -0.13 +0.05    +0.139 C 
DOCKED: ATOM     35  O   UNL d   1      -9.695   2.276  18.589 +0.03 -0.10    -0.650 OA
DOCKED: BRANCH  34  36
DOCKED: ATOM     36  O   UNL d   1      -7.841   1.383  17.771 -0.40 -0.57    -0.776 OA
DOCKED: ATOM     37  H   UNL d   1      -7.357   1.499  18.596 +0.03 +0.07    +0.167 HD
DOCKED: ENDBRANCH  34  36
DOCKED: ENDBRANCH  33  34
DOCKED: ENDBRANCH  32  33
DOCKED: ENDBRANCH   6  32
DOCKED: BRANCH  22  38
DOCKED: ATOM     38  C   UNL d   1     -11.925  -0.770  11.905 -0.16 -0.01    +0.052 C 
DOCKED: BRANCH  38  39
DOCKED: ATOM     39  C   UNL d   1     -10.543  -1.401  12.059 -0.22 -0.06    +0.115 C 
DOCKED: BRANCH  39  40
DOCKED: ATOM     40  C   UNL d   1     -10.134  -1.546  13.504 +0.05 +0.03    +0.139 C 
DOCKED: ATOM     41  O   UNL d   1     -10.131  -0.569  14.234 -0.09 -0.36    -0.650 OA
DOCKED: BRANCH  40  42
DOCKED: ATOM     42  O   UNL d   1      -9.819  -2.750  14.020 -0.49 -0.20    -0.776 OA
DOCKED: ATOM     43  H   UNL d   1      -9.522  -3.477  13.460 -0.32 -0.10    +0.167 HD
DOCKED: ENDBRANCH  40  42
DOCKED: ENDBRANCH  39  40
DOCKED: ENDBRANCH  38  39
DOCKED: ENDBRANCH  22  38
DOCKED: BRANCH  12  44
DOCKED: ATOM     44  C   UNL d   1     -10.512  10.403  10.525 -0.21 -0.00    +0.004 C 
DOCKED: ATOM     45  C   UNL d   1      -9.859  10.719   9.407 -0.27 -0.00    +0.012 C 
DOCKED: ENDBRANCH  12  44
DOCKED: BRANCH  17  46
DOCKED: ATOM     46  C   UNL d   1     -12.605   4.105   5.732 -0.20 -0.00    +0.004 C 
DOCKED: ATOM     47  C   UNL d   1     -12.001   3.077   5.122 -0.29 -0.00    +0.012 C 
DOCKED: ENDBRANCH  17  46
DOCKED: TORSDOF 10
DOCKED: TER
DOCKED: ENDMDL
________________________________________________________________________________


	BEGINNING GENETIC ALGORITHM DOCKING 68 of 100
Run: 68 Seed: 2059651647 523856175 [ Run 68 of 100 GA/GALS ]
Beginning LAMARCKIAN GENETIC ALGORITHM (LGA), with a maximum of 25000000 energy evaluations.

Final-Value: -10.564


	FINAL GENETIC ALGORITHM DOCKED STATE
	_______________________________________________


Detailed state:  trans -4.376 13.795 -14.240 quatxyzw -0.353396 0.163665 -0.818676 -0.422013 center 8.287 34.468 -0.670 ntor 10 -105.4789 162.0688 75.0520 114.9275 63.8198 -49.6877 52.1037 -88.6799 28.8468 -5.5557
State:	 -4.376  13.795 -14.240  -0.390  0.181 -0.903 -130.076   -105.48  162.07   75.05  114.93   63.82  -49.69   52.10  -88.68   28.85   -5.56

DOCKED: MODEL       68
DOCKED: USER    Run = 68
DOCKED: USER    DPF = D:/Protein_go_brrr/autodock/final/mut_N102T/heme_O2/dock.dpf
DOCKED: USER  
DOCKED: USER    Estimated Free Energy of Binding    =   -5.52 kcal/mol  [=(1)+(2)+(3)-(4)]
DOCKED: USER    Estimated Inhibition Constant, Ki   =   90.13 uM (micromolar)  [Temperature = 298.15 K]
DOCKED: USER    
DOCKED: USER    (1) Final Intermolecular Energy     =   -8.50 kcal/mol
DOCKED: USER        vdW + Hbond + desolv Energy     =   -7.16 kcal/mol
DOCKED: USER        Electrostatic Energy            =   -1.34 kcal/mol
DOCKED: USER    (2) Final Total Internal Energy     =   -2.06 kcal/mol
DOCKED: USER    (3) Torsional Free Energy           =   +2.98 kcal/mol
DOCKED: USER    (4) Unbound System's Energy  [=(2)] =   -2.06 kcal/mol
DOCKED: USER    
DOCKED: USER    
DOCKED: USER    NEWDPF move heme_O2_opt.pdbqt
DOCKED: USER    NEWDPF about 8.287000 34.468000 -0.670000
DOCKED: USER    NEWDPF tran0 -4.376463 13.794563 -14.239930
DOCKED: USER    NEWDPF quaternion0 -0.353396 0.163665 -0.818676 -0.422013
DOCKED: USER    NEWDPF axisangle0 -0.389809 0.180528 -0.903028 -130.076477
DOCKED: USER    NEWDPF quat0 -0.389809 0.180528 -0.903028 -130.076477
DOCKED: USER    NEWDPF dihe0 -105.48 162.07 75.05 114.93 63.82 -49.69 52.10 -88.68 28.85 -5.56 
DOCKED: USER  keepresnum = 1 
DOCKED: USER  
DOCKED: REMARK  10 active torsions:
DOCKED: REMARK  status: ('A' for Active; 'I' for Inactive)
DOCKED: REMARK    1  A    between atoms: C_6  and  C_10 
DOCKED: REMARK    2  A    between atoms: C_10  and  C_11 
DOCKED: REMARK    3  A    between atoms: C_11  and  C_12 
DOCKED: REMARK    4  A    between atoms: C_12  and  O_14 
DOCKED: REMARK    5  A    between atoms: C_17  and  C_20 
DOCKED: REMARK    6  A    between atoms: C_24  and  C_27 
DOCKED: REMARK    7  A    between atoms: C_31  and  C_34 
DOCKED: REMARK    8  A    between atoms: C_34  and  C_35 
DOCKED: REMARK    9  A    between atoms: C_35  and  C_36 
DOCKED: REMARK   10  A    between atoms: C_36  and  O_38 
DOCKED: USER                              x       y       z     vdW  Elec       q    Type
DOCKED: USER                           _______ _______ _______ _____ _____    ______ ____
DOCKED: ROOT
DOCKED: ATOM      1  C   UNL d   1      -3.867  14.923 -15.962 -0.04 +0.02    +0.064 A 
DOCKED: ATOM      2  C   UNL d   1      -3.241  15.698 -11.318 -0.11 -0.00    +0.064 A 
DOCKED: ATOM      3  C   UNL d   1      -5.444  11.565 -10.238 -0.10 -0.00    +0.064 C 
DOCKED: ATOM      4  C   UNL d   1      -5.668  10.528 -15.028 -0.26 -0.01    +0.064 A 
DOCKED: ATOM      5  C   UNL d   1      -3.515  15.470 -14.787 -0.18 +0.01    +0.066 A 
DOCKED: ATOM      6  C   UNL d   1      -2.867  16.702 -14.659 -0.14 -0.00    -0.021 A 
DOCKED: ATOM      7  C   UNL d   1      -2.646  16.907 -13.318 -0.08 -0.00    -0.025 A 
DOCKED: ATOM      8  C   UNL d   1      -3.210  15.817 -12.659 -0.10 +0.00    +0.066 A 
DOCKED: ATOM      9  C   UNL d   1      -1.901  18.087 -12.733 -0.04 +0.00    +0.051 C 
DOCKED: ATOM     10  C   UNL d   1      -3.838  14.590 -10.570 -0.16 -0.00    +0.066 A 
DOCKED: ATOM     11  C   UNL d   1      -3.989  14.594  -9.178 -0.19 +0.00    -0.021 A 
DOCKED: ATOM     12  C   UNL d   1      -4.638  13.418  -8.850 -0.21 -0.00    +0.000 A 
DOCKED: ATOM     13  C   UNL d   1      -4.840  12.743 -10.085 -0.17 -0.00    +0.070 A 
DOCKED: ATOM     14  C   UNL d   1      -3.557  15.686  -8.207 -0.17 +0.00    +0.052 C 
DOCKED: ATOM     15  C   UNL d   1      -5.637  10.832 -11.466 -0.19 -0.01    +0.066 A 
DOCKED: ATOM     16  C   UNL d   1      -6.129   9.529 -11.541 -0.28 +0.00    -0.021 A 
DOCKED: ATOM     17  C   UNL d   1      -6.201   9.212 -12.897 -0.35 -0.00    +0.000 A 
DOCKED: ATOM     18  C   UNL d   1      -5.743  10.361 -13.557 -0.25 -0.02    +0.070 A 
DOCKED: ATOM     19  C   UNL d   1      -6.431   8.693 -10.323 -0.29 -0.01    +0.052 C 
DOCKED: ATOM     20  C   UNL d   1      -5.194  11.599 -15.693 -0.28 -0.01    +0.066 A 
DOCKED: ATOM     21  C   UNL d   1      -5.166  11.706 -17.081 -0.31 -0.00    -0.025 A 
DOCKED: ATOM     22  C   UNL d   1      -4.681  12.963 -17.365 -0.19 -0.00    -0.021 A 
DOCKED: ATOM     23  C   UNL d   1      -4.413  13.572 -16.135 -0.21 +0.01    +0.066 A 
DOCKED: ATOM     24  C   UNL d   1      -5.577  10.661 -18.085 -0.34 +0.00    +0.051 C 
DOCKED: ATOM     25  N   UNL d   1      -3.687  14.902 -13.568 -0.10 -0.02    -0.248 N 
DOCKED: ATOM     26  N   UNL d   1      -4.346  13.461 -11.126 -0.12 +0.02    -0.248 N 
DOCKED: ATOM     27  N   UNL d   1      -5.335  11.306 -12.672 -0.14 +0.03    -0.248 N 
DOCKED: ATOM     28  N   UNL d   1      -4.684  12.723 -15.122 -0.16 +0.01    -0.248 N 
DOCKED: ATOM     29 FE   UNL d   1      -4.517  13.086 -13.138 -0.04 -0.00    +0.000 Fe
DOCKED: ATOM     30  O   UNL d   1      -2.992  13.166 -12.838 -0.02 -0.00    +0.000 OA
DOCKED: ATOM     31  O   UNL d   1      -3.596  11.857 -13.472 -0.21 -0.00    +0.000 OA
DOCKED: ENDROOT
DOCKED: BRANCH   6  32
DOCKED: ATOM     32  C   UNL d   1      -2.349  17.591 -15.761 -0.13 +0.02    +0.052 C 
DOCKED: BRANCH  32  33
DOCKED: ATOM     33  C   UNL d   1      -3.112  18.907 -15.868 -0.07 +0.04    +0.115 C 
DOCKED: BRANCH  33  34
DOCKED: ATOM     34  C   UNL d   1      -3.557  19.200 -17.279 -0.02 +0.09    +0.139 C 
DOCKED: ATOM     35  O   UNL d   1      -2.804  19.785 -18.041 -0.10 -0.66    -0.650 OA
DOCKED: BRANCH  34  36
DOCKED: ATOM     36  O   UNL d   1      -4.786  18.855 -17.716 -0.00 -0.41    -0.776 OA
DOCKED: ATOM     37  H   UNL d   1      -4.927  18.106 -18.307 +0.01 +0.11    +0.167 HD
DOCKED: ENDBRANCH  34  36
DOCKED: ENDBRANCH  33  34
DOCKED: ENDBRANCH  32  33
DOCKED: ENDBRANCH   6  32
DOCKED: BRANCH  22  38
DOCKED: ATOM     38  C   UNL d   1      -4.430  13.517 -18.743 -0.02 +0.01    +0.052 C 
DOCKED: BRANCH  38  39
DOCKED: ATOM     39  C   UNL d   1      -5.593  14.367 -19.250 -0.12 +0.03    +0.115 C 
DOCKED: BRANCH  39  40
DOCKED: ATOM     40  C   UNL d   1      -5.447  15.823 -18.882 -0.09 +0.06    +0.139 C 
DOCKED: ATOM     41  O   UNL d   1      -4.946  16.601 -19.678 -0.02 -0.48    -0.650 OA
DOCKED: BRANCH  40  42
DOCKED: ATOM     42  O   UNL d   1      -5.907  16.293 -17.707 +0.01 -0.23    -0.776 OA
DOCKED: ATOM     43  H   UNL d   1      -5.635  17.154 -17.367 +0.02 +0.05    +0.167 HD
DOCKED: ENDBRANCH  40  42
DOCKED: ENDBRANCH  39  40
DOCKED: ENDBRANCH  38  39
DOCKED: ENDBRANCH  22  38
DOCKED: BRANCH  12  44
DOCKED: ATOM     44  C   UNL d   1      -4.989  13.067  -7.419 -0.22 +0.00    +0.004 C 
DOCKED: ATOM     45  C   UNL d   1      -4.445  12.123  -6.651 -0.36 -0.00    +0.012 C 
DOCKED: ENDBRANCH  12  44
DOCKED: BRANCH  17  46
DOCKED: ATOM     46  C   UNL d   1      -6.597   7.938 -13.594 -0.30 -0.00    +0.004 C 
DOCKED: ATOM     47  C   UNL d   1      -7.712   7.687 -14.292 -0.32 -0.00    +0.012 C 
DOCKED: ENDBRANCH  17  46
DOCKED: TORSDOF 10
DOCKED: TER
DOCKED: ENDMDL
________________________________________________________________________________


	BEGINNING GENETIC ALGORITHM DOCKING 69 of 100
Run: 69 Seed: 1075172907 19608695 [ Run 69 of 100 GA/GALS ]
Beginning LAMARCKIAN GENETIC ALGORITHM (LGA), with a maximum of 25000000 energy evaluations.

Final-Value: -10.111


	FINAL GENETIC ALGORITHM DOCKED STATE
	_______________________________________________


Detailed state:  trans 3.332 15.285 -15.510 quatxyzw -0.690548 0.279734 -0.485106 0.457782 center 8.287 34.468 -0.670 ntor 10 -58.6894 150.1693 67.7480 -21.8427 54.4348 -9.3877 61.2458 -74.1365 25.6276 -36.2765
State:	  3.332  15.285 -15.510  -0.777  0.315 -0.546 125.512    -58.69  150.17   67.75  -21.84   54.43   -9.39   61.25  -74.14   25.63  -36.28

DOCKED: MODEL       69
DOCKED: USER    Run = 69
DOCKED: USER    DPF = D:/Protein_go_brrr/autodock/final/mut_N102T/heme_O2/dock.dpf
DOCKED: USER  
DOCKED: USER    Estimated Free Energy of Binding    =   -5.65 kcal/mol  [=(1)+(2)+(3)-(4)]
DOCKED: USER    Estimated Inhibition Constant, Ki   =   71.59 uM (micromolar)  [Temperature = 298.15 K]
DOCKED: USER    
DOCKED: USER    (1) Final Intermolecular Energy     =   -8.64 kcal/mol
DOCKED: USER        vdW + Hbond + desolv Energy     =   -6.64 kcal/mol
DOCKED: USER        Electrostatic Energy            =   -1.99 kcal/mol
DOCKED: USER    (2) Final Total Internal Energy     =   -1.47 kcal/mol
DOCKED: USER    (3) Torsional Free Energy           =   +2.98 kcal/mol
DOCKED: USER    (4) Unbound System's Energy  [=(2)] =   -1.47 kcal/mol
DOCKED: USER    
DOCKED: USER    
DOCKED: USER    NEWDPF move heme_O2_opt.pdbqt
DOCKED: USER    NEWDPF about 8.287000 34.468000 -0.670000
DOCKED: USER    NEWDPF tran0 3.331754 15.284737 -15.509664
DOCKED: USER    NEWDPF quaternion0 -0.690548 0.279734 -0.485106 0.457782
DOCKED: USER    NEWDPF axisangle0 -0.776713 0.314639 -0.545637 125.511800
DOCKED: USER    NEWDPF quat0 -0.776713 0.314639 -0.545637 125.511800
DOCKED: USER    NEWDPF dihe0 -58.69 150.17 67.75 -21.84 54.43 -9.39 61.25 -74.14 25.63 -36.28 
DOCKED: USER  keepresnum = 1 
DOCKED: USER  
DOCKED: REMARK  10 active torsions:
DOCKED: REMARK  status: ('A' for Active; 'I' for Inactive)
DOCKED: REMARK    1  A    between atoms: C_6  and  C_10 
DOCKED: REMARK    2  A    between atoms: C_10  and  C_11 
DOCKED: REMARK    3  A    between atoms: C_11  and  C_12 
DOCKED: REMARK    4  A    between atoms: C_12  and  O_14 
DOCKED: REMARK    5  A    between atoms: C_17  and  C_20 
DOCKED: REMARK    6  A    between atoms: C_24  and  C_27 
DOCKED: REMARK    7  A    between atoms: C_31  and  C_34 
DOCKED: REMARK    8  A    between atoms: C_34  and  C_35 
DOCKED: REMARK    9  A    between atoms: C_35  and  C_36 
DOCKED: REMARK   10  A    between atoms: C_36  and  O_38 
DOCKED: USER                              x       y       z     vdW  Elec       q    Type
DOCKED: USER                           _______ _______ _______ _____ _____    ______ ____
DOCKED: ROOT
DOCKED: ATOM      1  C   UNL d   1       1.803  15.644 -16.936 -0.22 +0.02    +0.064 A 
DOCKED: ATOM      2  C   UNL d   1       6.041  13.519 -17.240 -0.04 -0.05    +0.064 A 
DOCKED: ATOM      3  C   UNL d   1       6.924  14.412 -12.602 -0.11 -0.02    +0.064 C 
DOCKED: ATOM      4  C   UNL d   1       2.369  16.177 -12.157 -0.19 -0.01    +0.064 A 
DOCKED: ATOM      5  C   UNL d   1       2.883  14.992 -17.397 -0.20 +0.00    +0.066 A 
DOCKED: ATOM      6  C   UNL d   1       3.037  14.570 -18.721 -0.19 -0.00    -0.021 A 
DOCKED: ATOM      7  C   UNL d   1       4.244  13.916 -18.800 -0.14 +0.01    -0.025 A 
DOCKED: ATOM      8  C   UNL d   1       4.817  13.999 -17.534 -0.11 -0.03    +0.066 A 
DOCKED: ATOM      9  C   UNL d   1       4.777  13.230 -20.039 -0.11 -0.01    +0.051 C 
DOCKED: ATOM     10  C   UNL d   1       6.703  13.597 -15.938 -0.09 -0.03    +0.066 A 
DOCKED: ATOM     11  C   UNL d   1       8.037  13.230 -15.729 -0.07 +0.01    -0.021 A 
DOCKED: ATOM     12  C   UNL d   1       8.316  13.497 -14.402 -0.06 -0.00    +0.000 A 
DOCKED: ATOM     13  C   UNL d   1       7.106  14.012 -13.860 -0.08 -0.02    +0.070 A 
DOCKED: ATOM     14  C   UNL d   1       9.012  12.674 -16.760 -0.07 -0.01    +0.052 C 
DOCKED: ATOM     15  C   UNL d   1       5.706  14.906 -12.006 -0.06 -0.03    +0.066 A 
DOCKED: ATOM     16  C   UNL d   1       5.536  15.153 -10.644 -0.12 +0.01    -0.021 A 
DOCKED: ATOM     17  C   UNL d   1       4.244  15.656 -10.493 -0.22 -0.00    +0.000 A 
DOCKED: ATOM     18  C   UNL d   1       3.716  15.680 -11.792 -0.18 -0.02    +0.070 A 
DOCKED: ATOM     19  C   UNL d   1       6.590  14.838  -9.613 -0.20 -0.02    +0.052 C 
DOCKED: ATOM     20  C   UNL d   1       1.816  16.174 -13.386 -0.17 -0.00    +0.066 A 
DOCKED: ATOM     21  C   UNL d   1       0.547  16.671 -13.672 -0.14 -0.00    -0.025 A 
DOCKED: ATOM     22  C   UNL d   1       0.380  16.553 -15.033 -0.20 -0.00    -0.021 A 
DOCKED: ATOM     23  C   UNL d   1       1.550  15.968 -15.527 -0.21 +0.01    +0.066 A 
DOCKED: ATOM     24  C   UNL d   1      -0.455  17.228 -12.695 -0.11 +0.00    +0.051 C 
DOCKED: ATOM     25  N   UNL d   1       3.949  14.605 -16.654 -0.10 +0.06    -0.248 N 
DOCKED: ATOM     26  N   UNL d   1       6.128  14.065 -14.800 -0.06 +0.09    -0.248 N 
DOCKED: ATOM     27  N   UNL d   1       4.590  15.152 -12.687 -0.08 +0.09    -0.248 N 
DOCKED: ATOM     28  N   UNL d   1       2.402  15.698 -14.517 -0.13 +0.01    -0.248 N 
DOCKED: ATOM     29 FE   UNL d   1       4.252  14.888 -14.654 -0.04 -0.00    +0.000 Fe
DOCKED: ATOM     30  O   UNL d   1       4.045  13.398 -15.054 -0.41 -0.00    +0.000 OA
DOCKED: ATOM     31  O   UNL d   1       3.393  13.949 -13.730 -0.36 -0.00    +0.000 OA
DOCKED: ENDROOT
DOCKED: BRANCH   6  32
DOCKED: ATOM     32  C   UNL d   1       2.030  14.653 -19.839 -0.20 +0.01    +0.052 C 
DOCKED: BRANCH  32  33
DOCKED: ATOM     33  C   UNL d   1       2.409  15.680 -20.901 -0.10 +0.04    +0.115 C 
DOCKED: BRANCH  33  34
DOCKED: ATOM     34  C   UNL d   1       1.358  16.750 -21.068 -0.07 +0.12    +0.139 C 
DOCKED: ATOM     35  O   UNL d   1       0.527  16.646 -21.955 -0.12 -0.75    -0.650 OA
DOCKED: BRANCH  34  36
DOCKED: ATOM     36  O   UNL d   1       1.332  17.840 -20.273 -0.51 -0.88    -0.776 OA
DOCKED: ATOM     37  H   UNL d   1       1.253  17.771 -19.314 +0.00 +0.17    +0.167 HD
DOCKED: ENDBRANCH  34  36
DOCKED: ENDBRANCH  33  34
DOCKED: ENDBRANCH  32  33
DOCKED: ENDBRANCH   6  32
DOCKED: BRANCH  22  38
DOCKED: ATOM     38  C   UNL d   1      -0.863  16.923 -15.801 -0.16 +0.02    +0.052 C 
DOCKED: BRANCH  38  39
DOCKED: ATOM     39  C   UNL d   1      -1.144  18.423 -15.765 -0.10 +0.04    +0.115 C 
DOCKED: BRANCH  39  40
DOCKED: ATOM     40  C   UNL d   1      -0.800  19.105 -17.066 -0.07 +0.09    +0.139 C 
DOCKED: ATOM     41  O   UNL d   1      -1.575  19.914 -17.550 -0.03 -0.51    -0.650 OA
DOCKED: BRANCH  40  42
DOCKED: ATOM     42  O   UNL d   1       0.376  18.876 -17.682 -0.01 -0.56    -0.776 OA
DOCKED: ATOM     43  H   UNL d   1       0.471  18.968 -18.638 +0.00 +0.19    +0.167 HD
DOCKED: ENDBRANCH  40  42
DOCKED: ENDBRANCH  39  40
DOCKED: ENDBRANCH  38  39
DOCKED: ENDBRANCH  22  38
DOCKED: BRANCH  12  44
DOCKED: ATOM     44  C   UNL d   1       9.680  13.235 -13.799 -0.04 -0.00    +0.004 C 
DOCKED: ATOM     45  C   UNL d   1       9.994  12.382 -12.825 -0.08 -0.00    +0.012 C 
DOCKED: ENDBRANCH  12  44
DOCKED: BRANCH  17  46
DOCKED: ATOM     46  C   UNL d   1       3.473  16.047  -9.261 -0.31 -0.00    +0.004 C 
DOCKED: ATOM     47  C   UNL d   1       3.595  15.561  -8.019 -0.40 -0.01    +0.012 C 
DOCKED: ENDBRANCH  17  46
DOCKED: TORSDOF 10
DOCKED: TER
DOCKED: ENDMDL
________________________________________________________________________________


	BEGINNING GENETIC ALGORITHM DOCKING 70 of 100
Run: 70 Seed: 1725240626 1933274995 [ Run 70 of 100 GA/GALS ]
Beginning LAMARCKIAN GENETIC ALGORITHM (LGA), with a maximum of 25000000 energy evaluations.

Final-Value: -9.161


	FINAL GENETIC ALGORITHM DOCKED STATE
	_______________________________________________


Detailed state:  trans -11.194 8.345 9.706 quatxyzw -0.222777 0.349070 -0.717994 -0.559469 center 8.287 34.468 -0.670 ntor 10 139.2670 -55.9092 56.6284 -92.7026 176.4188 -28.1670 -60.7274 2.3488 -141.1994 28.1682
State:	-11.194   8.345   9.706  -0.269  0.421 -0.866 -111.962    139.27  -55.91   56.63  -92.70  176.42  -28.17  -60.73    2.35 -141.20   28.17

DOCKED: MODEL       70
DOCKED: USER    Run = 70
DOCKED: USER    DPF = D:/Protein_go_brrr/autodock/final/mut_N102T/heme_O2/dock.dpf
DOCKED: USER  
DOCKED: USER    Estimated Free Energy of Binding    =   -3.96 kcal/mol  [=(1)+(2)+(3)-(4)]
DOCKED: USER    Estimated Inhibition Constant, Ki   =    1.25 mM (millimolar)  [Temperature = 298.15 K]
DOCKED: USER    
DOCKED: USER    (1) Final Intermolecular Energy     =   -6.94 kcal/mol
DOCKED: USER        vdW + Hbond + desolv Energy     =   -7.07 kcal/mol
DOCKED: USER        Electrostatic Energy            =   +0.13 kcal/mol
DOCKED: USER    (2) Final Total Internal Energy     =   -2.22 kcal/mol
DOCKED: USER    (3) Torsional Free Energy           =   +2.98 kcal/mol
DOCKED: USER    (4) Unbound System's Energy  [=(2)] =   -2.22 kcal/mol
DOCKED: USER    
DOCKED: USER    
DOCKED: USER    NEWDPF move heme_O2_opt.pdbqt
DOCKED: USER    NEWDPF about 8.287000 34.468000 -0.670000
DOCKED: USER    NEWDPF tran0 -11.193919 8.344906 9.706303
DOCKED: USER    NEWDPF quaternion0 -0.222777 0.349070 -0.717994 -0.559469
DOCKED: USER    NEWDPF axisangle0 -0.268778 0.421149 -0.866251 -111.961894
DOCKED: USER    NEWDPF quat0 -0.268778 0.421149 -0.866251 -111.961894
DOCKED: USER    NEWDPF dihe0 139.27 -55.91 56.63 -92.70 176.42 -28.17 -60.73 2.35 -141.20 28.17 
DOCKED: USER  keepresnum = 1 
DOCKED: USER  
DOCKED: REMARK  10 active torsions:
DOCKED: REMARK  status: ('A' for Active; 'I' for Inactive)
DOCKED: REMARK    1  A    between atoms: C_6  and  C_10 
DOCKED: REMARK    2  A    between atoms: C_10  and  C_11 
DOCKED: REMARK    3  A    between atoms: C_11  and  C_12 
DOCKED: REMARK    4  A    between atoms: C_12  and  O_14 
DOCKED: REMARK    5  A    between atoms: C_17  and  C_20 
DOCKED: REMARK    6  A    between atoms: C_24  and  C_27 
DOCKED: REMARK    7  A    between atoms: C_31  and  C_34 
DOCKED: REMARK    8  A    between atoms: C_34  and  C_35 
DOCKED: REMARK    9  A    between atoms: C_35  and  C_36 
DOCKED: REMARK   10  A    between atoms: C_36  and  O_38 
DOCKED: USER                              x       y       z     vdW  Elec       q    Type
DOCKED: USER                           _______ _______ _______ _____ _____    ______ ____
DOCKED: ROOT
DOCKED: ATOM      1  C   UNL d   1     -10.859  10.261   8.861 -0.17 -0.01    +0.064 A 
DOCKED: ATOM      2  C   UNL d   1     -10.314   8.556  13.260 -0.20 +0.00    +0.064 A 
DOCKED: ATOM      3  C   UNL d   1     -11.912   4.238  11.883 -0.15 -0.00    +0.064 C 
DOCKED: ATOM      4  C   UNL d   1     -12.024   5.847   7.250 -0.16 -0.00    +0.064 A 
DOCKED: ATOM      5  C   UNL d   1     -10.578  10.149  10.170 -0.18 -0.01    +0.066 A 
DOCKED: ATOM      6  C   UNL d   1     -10.107  11.200  10.962 -0.12 +0.00    -0.021 A 
DOCKED: ATOM      7  C   UNL d   1      -9.908  10.696  12.226 -0.08 +0.00    -0.025 A 
DOCKED: ATOM      8  C   UNL d   1     -10.309   9.364  12.183 -0.12 +0.00    +0.066 A 
DOCKED: ATOM      9  C   UNL d   1      -9.330  11.475  13.387 -0.09 -0.00    +0.051 C 
DOCKED: ATOM     10  C   UNL d   1     -10.745   7.157  13.282 -0.22 +0.00    +0.066 A 
DOCKED: ATOM     11  C   UNL d   1     -10.886   6.413  14.458 -0.16 -0.00    -0.021 A 
DOCKED: ATOM     12  C   UNL d   1     -11.363   5.170  14.084 -0.16 +0.00    +0.000 A 
DOCKED: ATOM     13  C   UNL d   1     -11.477   5.224  12.667 -0.08 +0.00    +0.070 A 
DOCKED: ATOM     14  C   UNL d   1     -10.603   6.877  15.882 -0.10 +0.00    +0.052 C 
DOCKED: ATOM     15  C   UNL d   1     -12.010   4.240  10.443 -0.09 -0.00    +0.066 A 
DOCKED: ATOM     16  C   UNL d   1     -12.316   3.121   9.670 -0.18 +0.00    -0.021 A 
DOCKED: ATOM     17  C   UNL d   1     -12.353   3.556   8.345 -0.22 -0.00    +0.000 A 
DOCKED: ATOM     18  C   UNL d   1     -12.064   4.926   8.411 -0.22 -0.00    +0.070 A 
DOCKED: ATOM     19  C   UNL d   1     -12.490   1.741  10.252 -0.20 -0.01    +0.052 C 
DOCKED: ATOM     20  C   UNL d   1     -11.708   7.156   7.273 -0.17 -0.00    +0.066 A 
DOCKED: ATOM     21  C   UNL d   1     -11.705   7.978   6.149 -0.21 +0.00    -0.025 A 
DOCKED: ATOM     22  C   UNL d   1     -11.402   9.245   6.593 -0.21 +0.00    -0.021 A 
DOCKED: ATOM     23  C   UNL d   1     -11.213   9.146   7.975 -0.20 -0.01    +0.066 A 
DOCKED: ATOM     24  C   UNL d   1     -11.974   7.573   4.722 -0.15 +0.00    +0.051 C 
DOCKED: ATOM     25  N   UNL d   1     -10.660   9.010  10.900 -0.14 +0.00    -0.248 N 
DOCKED: ATOM     26  N   UNL d   1     -11.095   6.435  12.187 -0.14 -0.01    -0.248 N 
DOCKED: ATOM     27  N   UNL d   1     -11.785   5.308   9.683 -0.12 +0.01    -0.248 N 
DOCKED: ATOM     28  N   UNL d   1     -11.356   7.867   8.377 -0.17 +0.03    -0.248 N 
DOCKED: ATOM     29 FE   UNL d   1     -11.227   7.153  10.267 -0.05 -0.00    +0.000 Fe
DOCKED: ATOM     30  O   UNL d   1      -9.726   7.250  10.667 -0.59 +0.00    +0.000 OA
DOCKED: ATOM     31  O   UNL d   1     -10.146   6.404   9.405 -0.49 +0.00    +0.000 OA
DOCKED: ENDROOT
DOCKED: BRANCH   6  32
DOCKED: ATOM     32  C   UNL d   1      -9.725  12.589  10.521 -0.13 -0.00    +0.052 C 
DOCKED: BRANCH  32  33
DOCKED: ATOM     33  C   UNL d   1      -8.642  12.593   9.446 -0.23 -0.02    +0.115 C 
DOCKED: BRANCH  33  34
DOCKED: ATOM     34  C   UNL d   1      -9.124  13.189   8.147 -0.17 -0.02    +0.139 C 
DOCKED: ATOM     35  O   UNL d   1     -10.042  13.993   8.155 +0.02 +0.06    -0.650 OA
DOCKED: BRANCH  34  36
DOCKED: ATOM     36  O   UNL d   1      -8.580  12.832   6.965 -0.02 +0.11    -0.776 OA
DOCKED: ATOM     37  H   UNL d   1      -9.117  12.695   6.176 +0.04 -0.02    +0.167 HD
DOCKED: ENDBRANCH  34  36
DOCKED: ENDBRANCH  33  34
DOCKED: ENDBRANCH  32  33
DOCKED: ENDBRANCH   6  32
DOCKED: BRANCH  22  38
DOCKED: ATOM     38  C   UNL d   1     -11.240  10.465   5.724 -0.18 -0.01    +0.052 C 
DOCKED: BRANCH  38  39
DOCKED: ATOM     39  C   UNL d   1     -12.051  11.655   6.234 -0.06 -0.01    +0.115 C 
DOCKED: BRANCH  39  40
DOCKED: ATOM     40  C   UNL d   1     -11.913  12.868   5.349 -0.03 -0.01    +0.139 C 
DOCKED: ATOM     41  O   UNL d   1     -12.891  13.308   4.767 +0.01 +0.02    -0.650 OA
DOCKED: BRANCH  40  42
DOCKED: ATOM     42  O   UNL d   1     -10.735  13.511   5.228 +0.03 +0.04    -0.776 OA
DOCKED: ATOM     43  H   UNL d   1     -10.246  13.818   6.000 +0.02 -0.01    +0.167 HD
DOCKED: ENDBRANCH  40  42
DOCKED: ENDBRANCH  39  40
DOCKED: ENDBRANCH  38  39
DOCKED: ENDBRANCH  22  38
DOCKED: BRANCH  12  44
DOCKED: ATOM     44  C   UNL d   1     -11.650   4.081  15.096 -0.13 +0.00    +0.004 C 
DOCKED: ATOM     45  C   UNL d   1     -11.211   2.823  15.092 -0.16 +0.00    +0.012 C 
DOCKED: ENDBRANCH  12  44
DOCKED: BRANCH  17  46
DOCKED: ATOM     46  C   UNL d   1     -12.572   2.799   7.062 -0.22 -0.00    +0.004 C 
DOCKED: ATOM     47  C   UNL d   1     -11.655   2.367   6.187 -0.35 -0.00    +0.012 C 
DOCKED: ENDBRANCH  17  46
DOCKED: TORSDOF 10
DOCKED: TER
DOCKED: ENDMDL
________________________________________________________________________________


	BEGINNING GENETIC ALGORITHM DOCKING 71 of 100
Run: 71 Seed: 2128884614 1917498698 [ Run 71 of 100 GA/GALS ]
Beginning LAMARCKIAN GENETIC ALGORITHM (LGA), with a maximum of 25000000 energy evaluations.

Final-Value: -9.386


	FINAL GENETIC ALGORITHM DOCKED STATE
	_______________________________________________


Detailed state:  trans -4.856 17.272 -18.761 quatxyzw 0.410129 -0.647806 0.129264 -0.628834 center 8.287 34.468 -0.670 ntor 10 65.7508 -173.3326 51.1699 116.0169 -148.8080 103.2511 140.8821 -129.7868 23.1302 -11.7475
State:	 -4.856  17.272 -18.761   0.527 -0.833  0.166 -102.072     65.75 -173.33   51.17  116.02 -148.81  103.25  140.88 -129.79   23.13  -11.75

DOCKED: MODEL       71
DOCKED: USER    Run = 71
DOCKED: USER    DPF = D:/Protein_go_brrr/autodock/final/mut_N102T/heme_O2/dock.dpf
DOCKED: USER  
DOCKED: USER    Estimated Free Energy of Binding    =   -4.85 kcal/mol  [=(1)+(2)+(3)-(4)]
DOCKED: USER    Estimated Inhibition Constant, Ki   =  276.34 uM (micromolar)  [Temperature = 298.15 K]
DOCKED: USER    
DOCKED: USER    (1) Final Intermolecular Energy     =   -7.84 kcal/mol
DOCKED: USER        vdW + Hbond + desolv Energy     =   -4.83 kcal/mol
DOCKED: USER        Electrostatic Energy            =   -3.00 kcal/mol
DOCKED: USER    (2) Final Total Internal Energy     =   -1.55 kcal/mol
DOCKED: USER    (3) Torsional Free Energy           =   +2.98 kcal/mol
DOCKED: USER    (4) Unbound System's Energy  [=(2)] =   -1.55 kcal/mol
DOCKED: USER    
DOCKED: USER    
DOCKED: USER    NEWDPF move heme_O2_opt.pdbqt
DOCKED: USER    NEWDPF about 8.287000 34.468000 -0.670000
DOCKED: USER    NEWDPF tran0 -4.855892 17.271666 -18.761382
DOCKED: USER    NEWDPF quaternion0 0.410129 -0.647806 0.129264 -0.628834
DOCKED: USER    NEWDPF axisangle0 0.527471 -0.833149 0.166247 -102.071722
DOCKED: USER    NEWDPF quat0 0.527471 -0.833149 0.166247 -102.071722
DOCKED: USER    NEWDPF dihe0 65.75 -173.33 51.17 116.02 -148.81 103.25 140.88 -129.79 23.13 -11.75 
DOCKED: USER  keepresnum = 1 
DOCKED: USER  
DOCKED: REMARK  10 active torsions:
DOCKED: REMARK  status: ('A' for Active; 'I' for Inactive)
DOCKED: REMARK    1  A    between atoms: C_6  and  C_10 
DOCKED: REMARK    2  A    between atoms: C_10  and  C_11 
DOCKED: REMARK    3  A    between atoms: C_11  and  C_12 
DOCKED: REMARK    4  A    between atoms: C_12  and  O_14 
DOCKED: REMARK    5  A    between atoms: C_17  and  C_20 
DOCKED: REMARK    6  A    between atoms: C_24  and  C_27 
DOCKED: REMARK    7  A    between atoms: C_31  and  C_34 
DOCKED: REMARK    8  A    between atoms: C_34  and  C_35 
DOCKED: REMARK    9  A    between atoms: C_35  and  C_36 
DOCKED: REMARK   10  A    between atoms: C_36  and  O_38 
DOCKED: USER                              x       y       z     vdW  Elec       q    Type
DOCKED: USER                           _______ _______ _______ _____ _____    ______ ____
DOCKED: ROOT
DOCKED: ATOM      1  C   UNL d   1      -4.945  18.887 -20.133 -0.06 +0.05    +0.064 A 
DOCKED: ATOM      2  C   UNL d   1      -5.530  14.203 -20.652 -0.09 +0.02    +0.064 A 
DOCKED: ATOM      3  C   UNL d   1      -4.649  13.482 -15.983 -0.24 +0.00    +0.064 C 
DOCKED: ATOM      4  C   UNL d   1      -4.516  18.343 -15.341 -0.04 +0.01    +0.064 A 
DOCKED: ATOM      5  C   UNL d   1      -5.178  17.672 -20.655 -0.04 +0.05    +0.066 A 
DOCKED: ATOM      6  C   UNL d   1      -5.453  17.440 -22.006 -0.07 -0.01    -0.021 A 
DOCKED: ATOM      7  C   UNL d   1      -5.665  16.089 -22.149 -0.05 -0.01    -0.025 A 
DOCKED: ATOM      8  C   UNL d   1      -5.466  15.527 -20.891 -0.09 +0.03    +0.066 A 
DOCKED: ATOM      9  C   UNL d   1      -6.068  15.408 -23.439 -0.02 +0.01    +0.051 C 
DOCKED: ATOM     10  C   UNL d   1      -5.308  13.553 -19.360 -0.14 +0.02    +0.066 A 
DOCKED: ATOM     11  C   UNL d   1      -5.225  12.165 -19.201 -0.20 -0.00    -0.021 A 
DOCKED: ATOM     12  C   UNL d   1      -4.953  11.938 -17.864 -0.30 +0.00    +0.000 A 
DOCKED: ATOM     13  C   UNL d   1      -4.898  13.228 -17.268 -0.20 +0.01    +0.070 A 
DOCKED: ATOM     14  C   UNL d   1      -5.371  11.102 -20.283 -0.19 +0.00    +0.052 C 
DOCKED: ATOM     15  C   UNL d   1      -4.619  14.770 -15.334 -0.16 +0.01    +0.066 A 
DOCKED: ATOM     16  C   UNL d   1      -4.516  14.959 -13.957 -0.12 -0.00    -0.021 A 
DOCKED: ATOM     17  C   UNL d   1      -4.478  16.338 -13.750 -0.06 +0.00    +0.000 A 
DOCKED: ATOM     18  C   UNL d   1      -4.558  16.894 -15.034 -0.06 +0.01    +0.070 A 
DOCKED: ATOM     19  C   UNL d   1      -4.521  13.821 -12.968 -0.18 -0.00    +0.052 C 
DOCKED: ATOM     20  C   UNL d   1      -4.635  18.912 -16.557 -0.05 +0.02    +0.066 A 
DOCKED: ATOM     21  C   UNL d   1      -4.569  20.283 -16.787 -0.03 -0.01    -0.025 A 
DOCKED: ATOM     22  C   UNL d   1      -4.662  20.455 -18.149 -0.04 -0.01    -0.021 A 
DOCKED: ATOM     23  C   UNL d   1      -4.800  19.178 -18.702 -0.04 +0.05    +0.066 A 
DOCKED: ATOM     24  C   UNL d   1      -4.429  21.375 -15.757 -0.01 +0.01    +0.051 C 
DOCKED: ATOM     25  N   UNL d   1      -5.230  16.510 -19.958 -0.06 -0.16    -0.248 N 
DOCKED: ATOM     26  N   UNL d   1      -5.119  14.205 -18.184 -0.12 -0.07    -0.248 N 
DOCKED: ATOM     27  N   UNL d   1      -4.719  15.931 -15.977 -0.08 -0.06    -0.248 N 
DOCKED: ATOM     28  N   UNL d   1      -4.827  18.246 -17.727 -0.05 -0.14    -0.248 N 
DOCKED: ATOM     29 FE   UNL d   1      -4.972  16.240 -17.951 -0.03 +0.00    +0.000 Fe
DOCKED: ATOM     30  O   UNL d   1      -6.423  15.961 -18.441 -0.07 +0.00    +0.000 OA
DOCKED: ATOM     31  O   UNL d   1      -6.191  16.706 -17.072 -0.06 +0.00    +0.000 OA
DOCKED: ENDROOT
DOCKED: BRANCH   6  32
DOCKED: ATOM     32  C   UNL d   1      -5.645  18.461 -23.097 -0.02 +0.02    +0.052 C 
DOCKED: BRANCH  32  33
DOCKED: ATOM     33  C   UNL d   1      -4.467  18.524 -24.064 -0.02 +0.05    +0.115 C 
DOCKED: BRANCH  33  34
DOCKED: ATOM     34  C   UNL d   1      -3.137  18.437 -23.356 -0.04 +0.14    +0.139 C 
DOCKED: ATOM     35  O   UNL d   1      -2.871  17.449 -22.691 -0.35 -1.19    -0.650 OA
DOCKED: BRANCH  34  36
DOCKED: ATOM     36  O   UNL d   1      -2.241  19.443 -23.418 -0.04 -0.71    -0.776 OA
DOCKED: ATOM     37  H   UNL d   1      -2.413  20.306 -23.024 +0.00 +0.14    +0.167 HD
DOCKED: ENDBRANCH  34  36
DOCKED: ENDBRANCH  33  34
DOCKED: ENDBRANCH  32  33
DOCKED: ENDBRANCH   6  32
DOCKED: BRANCH  22  38
DOCKED: ATOM     38  C   UNL d   1      -4.683  21.779 -18.869 -0.02 +0.02    +0.052 C 
DOCKED: BRANCH  38  39
DOCKED: ATOM     39  C   UNL d   1      -3.283  22.254 -19.254 -0.02 +0.05    +0.115 C 
DOCKED: BRANCH  39  40
DOCKED: ATOM     40  C   UNL d   1      -2.481  21.180 -19.945 -0.03 +0.14    +0.139 C 
DOCKED: ATOM     41  O   UNL d   1      -1.508  20.697 -19.388 -0.16 -0.85    -0.650 OA
DOCKED: BRANCH  40  42
DOCKED: ATOM     42  O   UNL d   1      -2.848  20.703 -21.151 -0.34 -1.01    -0.776 OA
DOCKED: ATOM     43  H   UNL d   1      -2.423  19.929 -21.538 +0.03 +0.37    +0.167 HD
DOCKED: ENDBRANCH  40  42
DOCKED: ENDBRANCH  39  40
DOCKED: ENDBRANCH  38  39
DOCKED: ENDBRANCH  22  38
DOCKED: BRANCH  12  44
DOCKED: ATOM     44  C   UNL d   1      -4.782  10.541 -17.305 -0.48 -0.00    +0.004 C 
DOCKED: ATOM     45  C   UNL d   1      -5.326  10.029 -16.201 -0.34 -0.00    +0.012 C 
DOCKED: ENDBRANCH  12  44
DOCKED: BRANCH  17  46
DOCKED: ATOM     46  C   UNL d   1      -4.431  17.146 -12.480 -0.03 +0.00    +0.004 C 
DOCKED: ATOM     47  C   UNL d   1      -3.410  17.860 -11.989 -0.03 +0.00    +0.012 C 
DOCKED: ENDBRANCH  17  46
DOCKED: TORSDOF 10
DOCKED: TER
DOCKED: ENDMDL
________________________________________________________________________________


	BEGINNING GENETIC ALGORITHM DOCKING 72 of 100
Run: 72 Seed: 1183951249 796942845 [ Run 72 of 100 GA/GALS ]
Beginning LAMARCKIAN GENETIC ALGORITHM (LGA), with a maximum of 25000000 energy evaluations.

Final-Value: -9.844


	FINAL GENETIC ALGORITHM DOCKED STATE
	_______________________________________________


Detailed state:  trans 13.322 14.267 3.938 quatxyzw -0.090594 -0.614537 0.417808 0.663003 center 8.287 34.468 -0.670 ntor 10 180.0000 1.8872 -56.3525 -6.9841 -123.1745 132.8509 130.2557 171.3740 3.6759 0.5684
State:	 13.322  14.267   3.938  -0.121 -0.821  0.558 96.941    180.00    1.89  -56.35   -6.98 -123.17  132.85  130.26  171.37    3.68    0.57

DOCKED: MODEL       72
DOCKED: USER    Run = 72
DOCKED: USER    DPF = D:/Protein_go_brrr/autodock/final/mut_N102T/heme_O2/dock.dpf
DOCKED: USER  
DOCKED: USER    Estimated Free Energy of Binding    =   -4.63 kcal/mol  [=(1)+(2)+(3)-(4)]
DOCKED: USER    Estimated Inhibition Constant, Ki   =  400.47 uM (micromolar)  [Temperature = 298.15 K]
DOCKED: USER    
DOCKED: USER    (1) Final Intermolecular Energy     =   -7.62 kcal/mol
DOCKED: USER        vdW + Hbond + desolv Energy     =   -5.69 kcal/mol
DOCKED: USER        Electrostatic Energy            =   -1.93 kcal/mol
DOCKED: USER    (2) Final Total Internal Energy     =   -2.23 kcal/mol
DOCKED: USER    (3) Torsional Free Energy           =   +2.98 kcal/mol
DOCKED: USER    (4) Unbound System's Energy  [=(2)] =   -2.23 kcal/mol
DOCKED: USER    
DOCKED: USER    
DOCKED: USER    NEWDPF move heme_O2_opt.pdbqt
DOCKED: USER    NEWDPF about 8.287000 34.468000 -0.670000
DOCKED: USER    NEWDPF tran0 13.322405 14.267007 3.938477
DOCKED: USER    NEWDPF quaternion0 -0.090594 -0.614537 0.417808 0.663003
DOCKED: USER    NEWDPF axisangle0 -0.121016 -0.820897 0.558107 96.941325
DOCKED: USER    NEWDPF quat0 -0.121016 -0.820897 0.558107 96.941325
DOCKED: USER    NEWDPF dihe0 180.00 1.89 -56.35 -6.98 -123.17 132.85 130.26 171.37 3.68 0.57 
DOCKED: USER  keepresnum = 1 
DOCKED: USER  
DOCKED: REMARK  10 active torsions:
DOCKED: REMARK  status: ('A' for Active; 'I' for Inactive)
DOCKED: REMARK    1  A    between atoms: C_6  and  C_10 
DOCKED: REMARK    2  A    between atoms: C_10  and  C_11 
DOCKED: REMARK    3  A    between atoms: C_11  and  C_12 
DOCKED: REMARK    4  A    between atoms: C_12  and  O_14 
DOCKED: REMARK    5  A    between atoms: C_17  and  C_20 
DOCKED: REMARK    6  A    between atoms: C_24  and  C_27 
DOCKED: REMARK    7  A    between atoms: C_31  and  C_34 
DOCKED: REMARK    8  A    between atoms: C_34  and  C_35 
DOCKED: REMARK    9  A    between atoms: C_35  and  C_36 
DOCKED: REMARK   10  A    between atoms: C_36  and  O_38 
DOCKED: USER                              x       y       z     vdW  Elec       q    Type
DOCKED: USER                           _______ _______ _______ _____ _____    ______ ____
DOCKED: ROOT
DOCKED: ATOM      1  C   UNL d   1      13.327  15.984   5.184 -0.06 +0.05    +0.064 A 
DOCKED: ATOM      2  C   UNL d   1      14.130  11.384   6.057 -0.20 +0.03    +0.064 A 
DOCKED: ATOM      3  C   UNL d   1      13.311  10.273   1.454 -0.25 +0.00    +0.064 C 
DOCKED: ATOM      4  C   UNL d   1      12.952  15.061   0.447 -0.02 +0.00    +0.064 A 
DOCKED: ATOM      5  C   UNL d   1      13.614  14.824   5.797 -0.04 +0.06    +0.066 A 
DOCKED: ATOM      6  C   UNL d   1      13.892  14.707   7.162 -0.14 -0.01    -0.021 A 
DOCKED: ATOM      7  C   UNL d   1      14.167  13.382   7.408 -0.20 -0.01    -0.025 A 
DOCKED: ATOM      8  C   UNL d   1      14.002  12.718   6.195 -0.18 +0.04    +0.066 A 
DOCKED: ATOM      9  C   UNL d   1      14.594  12.820   8.746 -0.11 +0.01    +0.051 C 
DOCKED: ATOM     10  C   UNL d   1      13.947  10.629   4.817 -0.17 +0.02    +0.066 A 
DOCKED: ATOM     11  C   UNL d   1      13.930   9.231   4.762 -0.26 -0.00    -0.021 A 
DOCKED: ATOM     12  C   UNL d   1      13.677   8.891   3.446 -0.27 +0.00    +0.000 A 
DOCKED: ATOM     13  C   UNL d   1      13.564  10.129   2.754 -0.18 +0.01    +0.070 A 
DOCKED: ATOM     14  C   UNL d   1      14.119   8.260   5.922 -0.36 +0.01    +0.052 C 
DOCKED: ATOM     15  C   UNL d   1      13.224  11.506   0.709 -0.14 +0.00    +0.066 A 
DOCKED: ATOM     16  C   UNL d   1      13.120  11.586  -0.679 -0.21 +0.00    -0.021 A 
DOCKED: ATOM     17  C   UNL d   1      13.017  12.942  -0.989 -0.13 -0.00    +0.000 A 
DOCKED: ATOM     18  C   UNL d   1      13.064  13.596   0.250 -0.04 +0.00    +0.070 A 
DOCKED: ATOM     19  C   UNL d   1      13.184  10.378  -1.579 -0.22 -0.01    +0.052 C 
DOCKED: ATOM     20  C   UNL d   1      13.036  15.724   1.616 -0.03 +0.02    +0.066 A 
DOCKED: ATOM     21  C   UNL d   1      12.905  17.105   1.742 -0.01 -0.00    -0.025 A 
DOCKED: ATOM     22  C   UNL d   1      12.982  17.383   3.088 -0.02 -0.01    -0.021 A 
DOCKED: ATOM     23  C   UNL d   1      13.176  16.159   3.735 -0.05 +0.04    +0.066 A 
DOCKED: ATOM     24  C   UNL d   1      12.719  18.108   0.633 +0.00 +0.00    +0.051 C 
DOCKED: ATOM     25  N   UNL d   1      13.726  13.616   5.190 -0.08 -0.23    -0.248 N 
DOCKED: ATOM     26  N   UNL d   1      13.734  11.181   3.595 -0.09 -0.08    -0.248 N 
DOCKED: ATOM     27  N   UNL d   1      13.265  12.715   1.263 -0.04 -0.04    -0.248 N 
DOCKED: ATOM     28  N   UNL d   1      13.254  15.159   2.833 -0.05 -0.15    -0.248 N 
DOCKED: ATOM     29 FE   UNL d   1      13.492  13.184   3.208 -0.03 +0.00    +0.000 Fe
DOCKED: ATOM     30  O   UNL d   1      14.952  13.012   3.721 -0.06 +0.00    +0.000 OA
DOCKED: ATOM     31  O   UNL d   1      14.692  13.640   2.300 -0.04 +0.00    +0.000 OA
DOCKED: ENDROOT
DOCKED: BRANCH   6  32
DOCKED: ATOM     32  C   UNL d   1      14.030  15.815   8.174 -0.09 +0.01    +0.052 C 
DOCKED: BRANCH  32  33
DOCKED: ATOM     33  C   UNL d   1      12.699  16.210   8.806 -0.13 +0.03    +0.115 C 
DOCKED: BRANCH  33  34
DOCKED: ATOM     34  C   UNL d   1      11.639  16.510   7.774 -0.15 +0.08    +0.139 C 
DOCKED: ATOM     35  O   UNL d   1      10.969  15.599   7.315 -0.12 -0.86    -0.650 OA
DOCKED: BRANCH  34  36
DOCKED: ATOM     36  O   UNL d   1      11.432  17.765   7.324 +0.03 -0.27    -0.776 OA
DOCKED: ATOM     37  H   UNL d   1      10.755  17.967   6.668 +0.03 +0.07    +0.167 HD
DOCKED: ENDBRANCH  34  36
DOCKED: ENDBRANCH  33  34
DOCKED: ENDBRANCH  32  33
DOCKED: ENDBRANCH   6  32
DOCKED: BRANCH  22  38
DOCKED: ATOM     38  C   UNL d   1      12.936  18.757   3.705 -0.00 +0.01    +0.052 C 
DOCKED: BRANCH  38  39
DOCKED: ATOM     39  C   UNL d   1      11.575  19.072   4.322 -0.01 +0.02    +0.115 C 
DOCKED: BRANCH  39  40
DOCKED: ATOM     40  C   UNL d   1      10.530  18.043   3.969 -0.04 +0.06    +0.139 C 
DOCKED: ATOM     41  O   UNL d   1       9.944  18.116   2.900 +0.02 -0.16    -0.650 OA
DOCKED: BRANCH  40  42
DOCKED: ATOM     42  O   UNL d   1      10.264  17.010   4.792 -0.25 -0.84    -0.776 OA
DOCKED: ATOM     43  H   UNL d   1      10.684  16.933   5.657 +0.02 +0.19    +0.167 HD
DOCKED: ENDBRANCH  40  42
DOCKED: ENDBRANCH  39  40
DOCKED: ENDBRANCH  38  39
DOCKED: ENDBRANCH  22  38
DOCKED: BRANCH  12  44
DOCKED: ATOM     44  C   UNL d   1      13.576   7.450   2.993 -0.49 -0.00    +0.004 C 
DOCKED: ATOM     45  C   UNL d   1      12.530   6.838   2.438 -0.50 -0.00    +0.012 C 
DOCKED: ENDBRANCH  12  44
DOCKED: BRANCH  17  46
DOCKED: ATOM     46  C   UNL d   1      12.940  13.649  -2.316 -0.16 -0.00    +0.004 C 
DOCKED: ATOM     47  C   UNL d   1      13.198  13.156  -3.534 -0.20 -0.01    +0.012 C 
DOCKED: ENDBRANCH  17  46
DOCKED: TORSDOF 10
DOCKED: TER
DOCKED: ENDMDL
________________________________________________________________________________


	BEGINNING GENETIC ALGORITHM DOCKING 73 of 100
Run: 73 Seed: 760862336 1583301249 [ Run 73 of 100 GA/GALS ]
Beginning LAMARCKIAN GENETIC ALGORITHM (LGA), with a maximum of 25000000 energy evaluations.

Final-Value: -10.685


	FINAL GENETIC ALGORITHM DOCKED STATE
	_______________________________________________


Detailed state:  trans -2.932 -21.284 -2.701 quatxyzw 0.165562 0.363642 0.108009 0.910323 center 8.287 34.468 -0.670 ntor 10 8.6305 -119.6994 57.2141 -78.4782 65.8067 140.8460 -170.4447 104.8810 -171.0715 179.9535
State:	 -2.932 -21.284  -2.701   0.400  0.879  0.261 48.900      8.63 -119.70   57.21  -78.48   65.81  140.85 -170.44  104.88 -171.07  179.95

DOCKED: MODEL       73
DOCKED: USER    Run = 73
DOCKED: USER    DPF = D:/Protein_go_brrr/autodock/final/mut_N102T/heme_O2/dock.dpf
DOCKED: USER  
DOCKED: USER    Estimated Free Energy of Binding    =   -5.43 kcal/mol  [=(1)+(2)+(3)-(4)]
DOCKED: USER    Estimated Inhibition Constant, Ki   =  104.62 uM (micromolar)  [Temperature = 298.15 K]
DOCKED: USER    
DOCKED: USER    (1) Final Intermolecular Energy     =   -8.41 kcal/mol
DOCKED: USER        vdW + Hbond + desolv Energy     =   -4.77 kcal/mol
DOCKED: USER        Electrostatic Energy            =   -3.64 kcal/mol
DOCKED: USER    (2) Final Total Internal Energy     =   -2.27 kcal/mol
DOCKED: USER    (3) Torsional Free Energy           =   +2.98 kcal/mol
DOCKED: USER    (4) Unbound System's Energy  [=(2)] =   -2.27 kcal/mol
DOCKED: USER    
DOCKED: USER    
DOCKED: USER    NEWDPF move heme_O2_opt.pdbqt
DOCKED: USER    NEWDPF about 8.287000 34.468000 -0.670000
DOCKED: USER    NEWDPF tran0 -2.932120 -21.284360 -2.700899
DOCKED: USER    NEWDPF quaternion0 0.165562 0.363642 0.108009 0.910323
DOCKED: USER    NEWDPF axisangle0 0.400005 0.878578 0.260954 48.899998
DOCKED: USER    NEWDPF quat0 0.400005 0.878578 0.260954 48.899998
DOCKED: USER    NEWDPF dihe0 8.63 -119.70 57.21 -78.48 65.81 140.85 -170.44 104.88 -171.07 179.95 
DOCKED: USER  keepresnum = 1 
DOCKED: USER  
DOCKED: REMARK  10 active torsions:
DOCKED: REMARK  status: ('A' for Active; 'I' for Inactive)
DOCKED: REMARK    1  A    between atoms: C_6  and  C_10 
DOCKED: REMARK    2  A    between atoms: C_10  and  C_11 
DOCKED: REMARK    3  A    between atoms: C_11  and  C_12 
DOCKED: REMARK    4  A    between atoms: C_12  and  O_14 
DOCKED: REMARK    5  A    between atoms: C_17  and  C_20 
DOCKED: REMARK    6  A    between atoms: C_24  and  C_27 
DOCKED: REMARK    7  A    between atoms: C_31  and  C_34 
DOCKED: REMARK    8  A    between atoms: C_34  and  C_35 
DOCKED: REMARK    9  A    between atoms: C_35  and  C_36 
DOCKED: REMARK   10  A    between atoms: C_36  and  O_38 
DOCKED: USER                              x       y       z     vdW  Elec       q    Type
DOCKED: USER                           _______ _______ _______ _____ _____    ______ ____
DOCKED: ROOT
DOCKED: ATOM      1  C   UNL d   1      -3.572 -20.891  -4.685 -0.06 +0.04    +0.064 A 
DOCKED: ATOM      2  C   UNL d   1      -5.921 -22.086  -0.733 -0.04 +0.03    +0.064 A 
DOCKED: ATOM      3  C   UNL d   1      -1.816 -22.287   1.757 -0.06 +0.01    +0.064 C 
DOCKED: ATOM      4  C   UNL d   1       0.563 -20.592  -2.184 -0.15 +0.02    +0.064 A 
DOCKED: ATOM      5  C   UNL d   1      -4.546 -21.198  -3.813 -0.06 +0.05    +0.066 A 
DOCKED: ATOM      6  C   UNL d   1      -5.901 -21.275  -4.148 -0.03 -0.01    -0.021 A 
DOCKED: ATOM      7  C   UNL d   1      -6.587 -21.578  -2.995 -0.03 -0.01    -0.025 A 
DOCKED: ATOM      8  C   UNL d   1      -5.627 -21.726  -1.998 -0.06 +0.04    +0.066 A 
DOCKED: ATOM      9  C   UNL d   1      -8.092 -21.684  -2.886 -0.00 +0.02    +0.051 C 
DOCKED: ATOM     10  C   UNL d   1      -4.957 -22.278   0.350 -0.07 +0.02    +0.066 A 
DOCKED: ATOM     11  C   UNL d   1      -5.297 -22.811   1.598 -0.04 -0.00    -0.021 A 
DOCKED: ATOM     12  C   UNL d   1      -4.124 -22.893   2.325 -0.05 +0.00    +0.000 A 
DOCKED: ATOM     13  C   UNL d   1      -3.113 -22.384   1.463 -0.05 +0.02    +0.070 A 
DOCKED: ATOM     14  C   UNL d   1      -6.680 -23.248   2.069 -0.01 +0.00    +0.052 C 
DOCKED: ATOM     15  C   UNL d   1      -0.768 -21.745   0.927 -0.08 +0.02    +0.066 A 
DOCKED: ATOM     16  C   UNL d   1       0.541 -21.519   1.353 -0.09 -0.00    -0.021 A 
DOCKED: ATOM     17  C   UNL d   1       1.238 -21.035   0.246 -0.12 +0.00    +0.000 A 
DOCKED: ATOM     18  C   UNL d   1       0.290 -21.003  -0.787 -0.13 +0.02    +0.070 A 
DOCKED: ATOM     19  C   UNL d   1       0.990 -21.731   2.776 -0.10 +0.02    +0.052 C 
DOCKED: ATOM     20  C   UNL d   1      -0.332 -20.509  -3.188 -0.12 +0.03    +0.066 A 
DOCKED: ATOM     21  C   UNL d   1      -0.012 -20.132  -4.489 -0.16 -0.01    -0.025 A 
DOCKED: ATOM     22  C   UNL d   1      -1.173 -20.237  -5.222 -0.11 -0.01    -0.021 A 
DOCKED: ATOM     23  C   UNL d   1      -2.166 -20.659  -4.333 -0.09 +0.04    +0.066 A 
DOCKED: ATOM     24  C   UNL d   1       1.332 -19.690  -5.006 -0.22 +0.00    +0.051 C 
DOCKED: ATOM     25  N   UNL d   1      -4.377 -21.427  -2.487 -0.07 -0.22    -0.248 N 
DOCKED: ATOM     26  N   UNL d   1      -3.629 -22.008   0.266 -0.07 -0.11    -0.248 N 
DOCKED: ATOM     27  N   UNL d   1      -0.939 -21.366  -0.336 -0.09 -0.08    -0.248 N 
DOCKED: ATOM     28  N   UNL d   1      -1.661 -20.779  -3.088 -0.08 -0.15    -0.248 N 
DOCKED: ATOM     29 FE   UNL d   1      -2.635 -21.389  -1.422 -0.02 +0.00    +0.000 Fe
DOCKED: ATOM     30  O   UNL d   1      -3.623 -20.244  -1.053 -0.45 +0.00    +0.000 OA
DOCKED: ATOM     31  O   UNL d   1      -2.079 -19.945  -1.141 -0.27 +0.00    +0.000 OA
DOCKED: ENDROOT
DOCKED: BRANCH   6  32
DOCKED: ATOM     32  C   UNL d   1      -6.545 -20.942  -5.469 -0.01 +0.02    +0.052 C 
DOCKED: BRANCH  32  33
DOCKED: ATOM     33  C   UNL d   1      -6.913 -19.466  -5.593 -0.03 +0.07    +0.115 C 
DOCKED: BRANCH  33  34
DOCKED: ATOM     34  C   UNL d   1      -6.390 -18.644  -4.442 -0.05 +0.17    +0.139 C 
DOCKED: ATOM     35  O   UNL d   1      -7.039 -18.567  -3.411 -0.07 -0.86    -0.650 OA
DOCKED: BRANCH  34  36
DOCKED: ATOM     36  O   UNL d   1      -5.227 -17.965  -4.534 +0.01 -1.38    -0.776 OA
DOCKED: ATOM     37  H   UNL d   1      -4.753 -17.874  -5.368 +0.02 +0.27    +0.167 HD
DOCKED: ENDBRANCH  34  36
DOCKED: ENDBRANCH  33  34
DOCKED: ENDBRANCH  32  33
DOCKED: ENDBRANCH   6  32
DOCKED: BRANCH  22  38
DOCKED: ATOM     38  C   UNL d   1      -1.326 -19.888  -6.680 -0.13 +0.02    +0.052 C 
DOCKED: BRANCH  38  39
DOCKED: ATOM     39  C   UNL d   1      -1.436 -18.383  -6.909 -0.25 +0.07    +0.115 C 
DOCKED: BRANCH  39  40
DOCKED: ATOM     40  C   UNL d   1      -2.797 -17.842  -6.548 -0.19 +0.19    +0.139 C 
DOCKED: ATOM     41  O   UNL d   1      -3.747 -18.053  -7.284 -0.29 -0.95    -0.650 OA
DOCKED: BRANCH  40  42
DOCKED: ATOM     42  O   UNL d   1      -2.996 -17.171  -5.397 -0.31 -1.34    -0.776 OA
DOCKED: ATOM     43  H   UNL d   1      -3.590 -17.505  -4.714 +0.04 +0.31    +0.167 HD
DOCKED: ENDBRANCH  40  42
DOCKED: ENDBRANCH  39  40
DOCKED: ENDBRANCH  38  39
DOCKED: ENDBRANCH  22  38
DOCKED: BRANCH  12  44
DOCKED: ATOM     44  C   UNL d   1      -4.090 -23.435   3.738 -0.03 -0.00    +0.004 C 
DOCKED: ATOM     45  C   UNL d   1      -3.575 -22.859   4.824 -0.05 -0.00    +0.012 C 
DOCKED: ENDBRANCH  12  44
DOCKED: BRANCH  17  46
DOCKED: ATOM     46  C   UNL d   1       2.660 -20.562   0.103 -0.18 +0.00    +0.004 C 
DOCKED: ATOM     47  C   UNL d   1       3.156 -19.342   0.349 -0.29 +0.00    +0.012 C 
DOCKED: ENDBRANCH  17  46
DOCKED: TORSDOF 10
DOCKED: TER
DOCKED: ENDMDL
________________________________________________________________________________


	BEGINNING GENETIC ALGORITHM DOCKING 74 of 100
Run: 74 Seed: 65108806 1299179670 [ Run 74 of 100 GA/GALS ]
Beginning LAMARCKIAN GENETIC ALGORITHM (LGA), with a maximum of 25000000 energy evaluations.

Final-Value: -9.264


	FINAL GENETIC ALGORITHM DOCKED STATE
	_______________________________________________


Detailed state:  trans -11.095 5.471 11.331 quatxyzw 0.548197 -0.734652 -0.201839 -0.345003 center 8.287 34.468 -0.670 ntor 10 45.8883 161.6546 41.6812 117.7154 68.3027 -49.8686 132.9692 123.0059 -135.3995 -178.9753
State:	-11.095   5.471  11.331   0.584 -0.783 -0.215 -139.636     45.89  161.65   41.68  117.72   68.30  -49.87  132.97  123.01 -135.40 -178.98

DOCKED: MODEL       74
DOCKED: USER    Run = 74
DOCKED: USER    DPF = D:/Protein_go_brrr/autodock/final/mut_N102T/heme_O2/dock.dpf
DOCKED: USER  
DOCKED: USER    Estimated Free Energy of Binding    =   -3.83 kcal/mol  [=(1)+(2)+(3)-(4)]
DOCKED: USER    Estimated Inhibition Constant, Ki   =    1.55 mM (millimolar)  [Temperature = 298.15 K]
DOCKED: USER    
DOCKED: USER    (1) Final Intermolecular Energy     =   -6.82 kcal/mol
DOCKED: USER        vdW + Hbond + desolv Energy     =   -6.87 kcal/mol
DOCKED: USER        Electrostatic Energy            =   +0.05 kcal/mol
DOCKED: USER    (2) Final Total Internal Energy     =   -2.45 kcal/mol
DOCKED: USER    (3) Torsional Free Energy           =   +2.98 kcal/mol
DOCKED: USER    (4) Unbound System's Energy  [=(2)] =   -2.45 kcal/mol
DOCKED: USER    
DOCKED: USER    
DOCKED: USER    NEWDPF move heme_O2_opt.pdbqt
DOCKED: USER    NEWDPF about 8.287000 34.468000 -0.670000
DOCKED: USER    NEWDPF tran0 -11.095344 5.470736 11.331310
DOCKED: USER    NEWDPF quaternion0 0.548197 -0.734652 -0.201839 -0.345003
DOCKED: USER    NEWDPF axisangle0 0.584057 -0.782710 -0.215042 -139.635992
DOCKED: USER    NEWDPF quat0 0.584057 -0.782710 -0.215042 -139.635992
DOCKED: USER    NEWDPF dihe0 45.89 161.65 41.68 117.72 68.30 -49.87 132.97 123.01 -135.40 -178.98 
DOCKED: USER  keepresnum = 1 
DOCKED: USER  
DOCKED: REMARK  10 active torsions:
DOCKED: REMARK  status: ('A' for Active; 'I' for Inactive)
DOCKED: REMARK    1  A    between atoms: C_6  and  C_10 
DOCKED: REMARK    2  A    between atoms: C_10  and  C_11 
DOCKED: REMARK    3  A    between atoms: C_11  and  C_12 
DOCKED: REMARK    4  A    between atoms: C_12  and  O_14 
DOCKED: REMARK    5  A    between atoms: C_17  and  C_20 
DOCKED: REMARK    6  A    between atoms: C_24  and  C_27 
DOCKED: REMARK    7  A    between atoms: C_31  and  C_34 
DOCKED: REMARK    8  A    between atoms: C_34  and  C_35 
DOCKED: REMARK    9  A    between atoms: C_35  and  C_36 
DOCKED: REMARK   10  A    between atoms: C_36  and  O_38 
DOCKED: USER                              x       y       z     vdW  Elec       q    Type
DOCKED: USER                           _______ _______ _______ _____ _____    ______ ____
DOCKED: ROOT
DOCKED: ATOM      1  C   UNL d   1     -10.613   7.494  11.748 -0.29 +0.00    +0.064 A 
DOCKED: ATOM      2  C   UNL d   1     -11.685   5.215   7.721 -0.10 +0.00    +0.064 A 
DOCKED: ATOM      3  C   UNL d   1     -12.118   1.053  10.083 -0.23 -0.01    +0.064 C 
DOCKED: ATOM      4  C   UNL d   1     -11.486   3.475  14.302 -0.13 +0.01    +0.064 A 
DOCKED: ATOM      5  C   UNL d   1     -10.871   7.214  10.460 -0.30 +0.00    +0.066 A 
DOCKED: ATOM      6  C   UNL d   1     -10.826   8.158   9.430 -0.31 +0.00    -0.021 A 
DOCKED: ATOM      7  C   UNL d   1     -11.178   7.508   8.270 -0.30 +0.00    -0.025 A 
DOCKED: ATOM      8  C   UNL d   1     -11.382   6.175   8.616 -0.28 -0.00    +0.066 A 
DOCKED: ATOM      9  C   UNL d   1     -11.331   8.172   6.919 -0.28 -0.01    +0.051 C 
DOCKED: ATOM     10  C   UNL d   1     -11.888   3.797   8.020 -0.25 -0.00    +0.066 A 
DOCKED: ATOM     11  C   UNL d   1     -12.038   2.816   7.033 -0.27 +0.00    -0.021 A 
DOCKED: ATOM     12  C   UNL d   1     -12.146   1.606   7.694 -0.25 -0.00    +0.000 A 
DOCKED: ATOM     13  C   UNL d   1     -12.066   1.926   9.078 -0.22 -0.01    +0.070 A 
DOCKED: ATOM     14  C   UNL d   1     -12.050   3.021   5.523 -0.28 -0.00    +0.052 C 
DOCKED: ATOM     15  C   UNL d   1     -12.076   1.339  11.497 -0.19 -0.01    +0.066 A 
DOCKED: ATOM     16  C   UNL d   1     -12.299   0.398  12.501 -0.12 +0.00    -0.021 A 
DOCKED: ATOM     17  C   UNL d   1     -12.125   1.066  13.713 -0.12 +0.00    +0.000 A 
DOCKED: ATOM     18  C   UNL d   1     -11.802   2.382  13.352 -0.16 +0.00    +0.070 A 
DOCKED: ATOM     19  C   UNL d   1     -12.709  -1.025  12.218 -0.07 -0.01    +0.052 C 
DOCKED: ATOM     20  C   UNL d   1     -11.215   4.757  13.991 -0.14 +0.01    +0.066 A 
DOCKED: ATOM     21  C   UNL d   1     -10.906   5.739  14.929 -0.13 -0.00    -0.025 A 
DOCKED: ATOM     22  C   UNL d   1     -10.628   6.884  14.218 -0.19 -0.00    -0.021 A 
DOCKED: ATOM     23  C   UNL d   1     -10.795   6.562  12.867 -0.23 +0.01    +0.066 A 
DOCKED: ATOM     24  C   UNL d   1     -10.882   5.592  16.429 -0.08 +0.00    +0.051 C 
DOCKED: ATOM     25  N   UNL d   1     -11.256   6.008   9.975 -0.15 +0.00    -0.248 N 
DOCKED: ATOM     26  N   UNL d   1     -11.914   3.262   9.267 -0.16 +0.02    -0.248 N 
DOCKED: ATOM     27  N   UNL d   1     -11.851   2.547  12.006 -0.15 +0.01    -0.248 N 
DOCKED: ATOM     28  N   UNL d   1     -11.196   5.281  12.737 -0.09 -0.02    -0.248 N 
DOCKED: ATOM     29 FE   UNL d   1     -11.553   4.276  11.016 -0.06 -0.00    +0.000 Fe
DOCKED: ATOM     30  O   UNL d   1     -12.857   4.883  10.421 -0.15 -0.00    +0.000 OA
DOCKED: ATOM     31  O   UNL d   1     -12.878   4.248  11.863 -0.14 -0.00    +0.000 OA
DOCKED: ENDROOT
DOCKED: BRANCH   6  32
DOCKED: ATOM     32  C   UNL d   1     -10.595   9.642   9.547 -0.26 -0.01    +0.052 C 
DOCKED: BRANCH  32  33
DOCKED: ATOM     33  C   UNL d   1     -11.518  10.306  10.564 -0.10 -0.01    +0.115 C 
DOCKED: BRANCH  33  34
DOCKED: ATOM     34  C   UNL d   1     -12.963   9.921  10.368 -0.03 -0.01    +0.139 C 
DOCKED: ATOM     35  O   UNL d   1     -13.635  10.506   9.533 +0.01 +0.03    -0.650 OA
DOCKED: BRANCH  34  36
DOCKED: ATOM     36  O   UNL d   1     -13.543   8.959  11.115 +0.03 +0.03    -0.776 OA
DOCKED: ATOM     37  H   UNL d   1     -13.437   8.923  12.073 +0.02 -0.00    +0.167 HD
DOCKED: ENDBRANCH  34  36
DOCKED: ENDBRANCH  33  34
DOCKED: ENDBRANCH  32  33
DOCKED: ENDBRANCH   6  32
DOCKED: BRANCH  22  38
DOCKED: ATOM     38  C   UNL d   1     -10.284   8.226  14.812 -0.15 +0.00    +0.052 C 
DOCKED: BRANCH  38  39
DOCKED: ATOM     39  C   UNL d   1     -11.513   8.954  15.352 -0.03 -0.00    +0.115 C 
DOCKED: BRANCH  39  40
DOCKED: ATOM     40  C   UNL d   1     -12.564   9.175  14.294 -0.02 -0.00    +0.139 C 
DOCKED: ATOM     41  O   UNL d   1     -13.479   8.377  14.173 +0.01 +0.01    -0.650 OA
DOCKED: BRANCH  40  42
DOCKED: ATOM     42  O   UNL d   1     -12.542  10.269  13.509 +0.02 +0.02    -0.776 OA
DOCKED: ATOM     43  H   UNL d   1     -13.061  10.319  12.697 +0.01 -0.01    +0.167 HD
DOCKED: ENDBRANCH  40  42
DOCKED: ENDBRANCH  39  40
DOCKED: ENDBRANCH  38  39
DOCKED: ENDBRANCH  22  38
DOCKED: BRANCH  12  44
DOCKED: ATOM     44  C   UNL d   1     -12.315   0.297   6.952 -0.25 -0.00    +0.004 C 
DOCKED: ATOM     45  C   UNL d   1     -13.058  -0.752   7.301 -0.16 -0.01    +0.012 C 
DOCKED: ENDBRANCH  12  44
DOCKED: BRANCH  17  46
DOCKED: ATOM     46  C   UNL d   1     -12.290   0.596  15.134 -0.07 +0.00    +0.004 C 
DOCKED: ATOM     47  C   UNL d   1     -11.341   0.403  16.058 -0.11 +0.00    +0.012 C 
DOCKED: ENDBRANCH  17  46
DOCKED: TORSDOF 10
DOCKED: TER
DOCKED: ENDMDL
________________________________________________________________________________


	BEGINNING GENETIC ALGORITHM DOCKING 75 of 100
Run: 75 Seed: 1086135308 571801424 [ Run 75 of 100 GA/GALS ]
Beginning LAMARCKIAN GENETIC ALGORITHM (LGA), with a maximum of 25000000 energy evaluations.

Final-Value: -11.254


	FINAL GENETIC ALGORITHM DOCKED STATE
	_______________________________________________


Detailed state:  trans 6.887 -1.642 17.014 quatxyzw 0.107180 -0.940629 -0.308658 -0.091975 center 8.287 34.468 -0.670 ntor 10 -6.7558 -150.2426 119.3878 -58.9787 147.5062 -161.1594 88.1764 79.5039 -120.1316 -180.0000
State:	  6.887  -1.642  17.014   0.108 -0.945 -0.310 -169.445     -6.76 -150.24  119.39  -58.98  147.51 -161.16   88.18   79.50 -120.13 -180.00

DOCKED: MODEL       75
DOCKED: USER    Run = 75
DOCKED: USER    DPF = D:/Protein_go_brrr/autodock/final/mut_N102T/heme_O2/dock.dpf
DOCKED: USER  
DOCKED: USER    Estimated Free Energy of Binding    =   -6.41 kcal/mol  [=(1)+(2)+(3)-(4)]
DOCKED: USER    Estimated Inhibition Constant, Ki   =   20.16 uM (micromolar)  [Temperature = 298.15 K]
DOCKED: USER    
DOCKED: USER    (1) Final Intermolecular Energy     =   -9.39 kcal/mol
DOCKED: USER        vdW + Hbond + desolv Energy     =   -8.08 kcal/mol
DOCKED: USER        Electrostatic Energy            =   -1.31 kcal/mol
DOCKED: USER    (2) Final Total Internal Energy     =   -1.87 kcal/mol
DOCKED: USER    (3) Torsional Free Energy           =   +2.98 kcal/mol
DOCKED: USER    (4) Unbound System's Energy  [=(2)] =   -1.87 kcal/mol
DOCKED: USER    
DOCKED: USER    
DOCKED: USER    NEWDPF move heme_O2_opt.pdbqt
DOCKED: USER    NEWDPF about 8.287000 34.468000 -0.670000
DOCKED: USER    NEWDPF tran0 6.886707 -1.642071 17.013583
DOCKED: USER    NEWDPF quaternion0 0.107180 -0.940629 -0.308658 -0.091975
DOCKED: USER    NEWDPF axisangle0 0.107637 -0.944633 -0.309972 -169.445502
DOCKED: USER    NEWDPF quat0 0.107637 -0.944633 -0.309972 -169.445502
DOCKED: USER    NEWDPF dihe0 -6.76 -150.24 119.39 -58.98 147.51 -161.16 88.18 79.50 -120.13 -180.00 
DOCKED: USER  keepresnum = 1 
DOCKED: USER  
DOCKED: REMARK  10 active torsions:
DOCKED: REMARK  status: ('A' for Active; 'I' for Inactive)
DOCKED: REMARK    1  A    between atoms: C_6  and  C_10 
DOCKED: REMARK    2  A    between atoms: C_10  and  C_11 
DOCKED: REMARK    3  A    between atoms: C_11  and  C_12 
DOCKED: REMARK    4  A    between atoms: C_12  and  O_14 
DOCKED: REMARK    5  A    between atoms: C_17  and  C_20 
DOCKED: REMARK    6  A    between atoms: C_24  and  C_27 
DOCKED: REMARK    7  A    between atoms: C_31  and  C_34 
DOCKED: REMARK    8  A    between atoms: C_34  and  C_35 
DOCKED: REMARK    9  A    between atoms: C_35  and  C_36 
DOCKED: REMARK   10  A    between atoms: C_36  and  O_38 
DOCKED: USER                              x       y       z     vdW  Elec       q    Type
DOCKED: USER                           _______ _______ _______ _____ _____    ______ ____
DOCKED: ROOT
DOCKED: ATOM      1  C   UNL d   1       8.786  -1.134  17.809 -0.07 +0.02    +0.064 A 
DOCKED: ATOM      2  C   UNL d   1       7.166  -1.503  13.360 -0.22 +0.01    +0.064 A 
DOCKED: ATOM      3  C   UNL d   1       2.822  -2.804  14.951 -0.21 -0.02    +0.064 C 
DOCKED: ATOM      4  C   UNL d   1       4.342  -1.965  19.539 -0.08 -0.02    +0.064 A 
DOCKED: ATOM      5  C   UNL d   1       8.700  -1.127  16.469 -0.02 +0.02    +0.066 A 
DOCKED: ATOM      6  C   UNL d   1       9.765  -0.822  15.618 -0.09 -0.01    -0.021 A 
DOCKED: ATOM      7  C   UNL d   1       9.286  -0.886  14.330 -0.14 -0.01    -0.025 A 
DOCKED: ATOM      8  C   UNL d   1       7.953  -1.275  14.429 -0.16 +0.01    +0.066 A 
DOCKED: ATOM      9  C   UNL d   1      10.088  -0.554  13.091 -0.17 +0.01    +0.051 C 
DOCKED: ATOM     10  C   UNL d   1       5.769  -1.935  13.400 -0.28 -0.00    +0.066 A 
DOCKED: ATOM     11  C   UNL d   1       5.047  -2.315  12.263 -0.38 +0.00    -0.021 A 
DOCKED: ATOM     12  C   UNL d   1       3.798  -2.710  12.703 -0.43 -0.00    +0.000 A 
DOCKED: ATOM     13  C   UNL d   1       3.824  -2.534  14.114 -0.18 -0.02    +0.070 A 
DOCKED: ATOM     14  C   UNL d   1       5.539  -2.326  10.820 -0.27 +0.00    +0.052 C 
DOCKED: ATOM     15  C   UNL d   1       2.797  -2.607  16.380 -0.31 -0.02    +0.066 A 
DOCKED: ATOM     16  C   UNL d   1       1.663  -2.754  17.178 -0.34 +0.01    -0.021 A 
DOCKED: ATOM     17  C   UNL d   1       2.072  -2.519  18.491 -0.20 -0.00    +0.000 A 
DOCKED: ATOM     18  C   UNL d   1       3.443  -2.244  18.394 -0.14 -0.02    +0.070 A 
DOCKED: ATOM     19  C   UNL d   1       0.295  -3.048  16.617 -0.34 -0.02    +0.052 C 
DOCKED: ATOM     20  C   UNL d   1       5.651  -1.655  19.478 -0.08 -0.01    +0.066 A 
DOCKED: ATOM     21  C   UNL d   1       6.450  -1.420  20.593 -0.06 +0.00    -0.025 A 
DOCKED: ATOM     22  C   UNL d   1       7.726  -1.208  20.121 -0.07 -0.00    -0.021 A 
DOCKED: ATOM     23  C   UNL d   1       7.654  -1.305  18.728 -0.08 +0.01    +0.066 A 
DOCKED: ATOM     24  C   UNL d   1       6.018  -1.395  22.036 -0.04 -0.01    +0.051 C 
DOCKED: ATOM     25  N   UNL d   1       7.575  -1.360  15.749 -0.09 -0.04    -0.248 N 
DOCKED: ATOM     26  N   UNL d   1       5.025  -2.058  14.529 -0.14 +0.04    -0.248 N 
DOCKED: ATOM     27  N   UNL d   1       3.850  -2.228  17.099 -0.12 +0.05    -0.248 N 
DOCKED: ATOM     28  N   UNL d   1       6.383  -1.532  18.339 -0.07 +0.00    -0.248 N 
DOCKED: ATOM     29 FE   UNL d   1       5.706  -1.793  16.449 -0.05 -0.00    +0.000 Fe
DOCKED: ATOM     30  O   UNL d   1       5.810  -0.404  15.754 -0.43 -0.00    +0.000 OA
DOCKED: ATOM     31  O   UNL d   1       4.941  -0.562  17.058 -0.46 -0.00    +0.000 OA
DOCKED: ENDROOT
DOCKED: BRANCH   6  32
DOCKED: ATOM     32  C   UNL d   1      11.146  -0.353  15.998 -0.09 +0.01    +0.052 C 
DOCKED: BRANCH  32  33
DOCKED: ATOM     33  C   UNL d   1      11.144   0.577  17.207 -0.12 +0.04    +0.115 C 
DOCKED: BRANCH  33  34
DOCKED: ATOM     34  C   UNL d   1      11.101   2.033  16.813 -0.23 +0.09    +0.139 C 
DOCKED: ATOM     35  O   UNL d   1      11.137   2.339  15.632 -0.13 -0.41    -0.650 OA
DOCKED: BRANCH  34  36
DOCKED: ATOM     36  O   UNL d   1      11.052   3.012  17.740 -0.41 -0.87    -0.776 OA
DOCKED: ATOM     37  H   UNL d   1      10.949   2.821  18.679 -0.03 +0.13    +0.167 HD
DOCKED: ENDBRANCH  34  36
DOCKED: ENDBRANCH  33  34
DOCKED: ENDBRANCH  32  33
DOCKED: ENDBRANCH   6  32
DOCKED: BRANCH  22  38
DOCKED: ATOM     38  C   UNL d   1       8.929  -0.869  20.962 -0.05 +0.00    +0.052 C 
DOCKED: BRANCH  38  39
DOCKED: ATOM     39  C   UNL d   1       8.949   0.599  21.384 -0.06 +0.01    +0.115 C 
DOCKED: BRANCH  39  40
DOCKED: ATOM     40  C   UNL d   1       9.898   1.425  20.553 -0.03 +0.04    +0.139 C 
DOCKED: ATOM     41  O   UNL d   1      10.752   0.873  19.879 +0.00 -0.17    -0.650 OA
DOCKED: BRANCH  40  42
DOCKED: ATOM     42  O   UNL d   1       9.788   2.767  20.499 +0.04 -0.29    -0.776 OA
DOCKED: ATOM     43  H   UNL d   1      10.018   3.261  19.703 -0.06 +0.10    +0.167 HD
DOCKED: ENDBRANCH  40  42
DOCKED: ENDBRANCH  39  40
DOCKED: ENDBRANCH  38  39
DOCKED: ENDBRANCH  22  38
DOCKED: BRANCH  12  44
DOCKED: ATOM     44  C   UNL d   1       2.729  -3.202  11.750 -0.46 -0.00    +0.004 C 
DOCKED: ATOM     45  C   UNL d   1       2.109  -2.517  10.790 -0.36 +0.00    +0.012 C 
DOCKED: ENDBRANCH  12  44
DOCKED: BRANCH  17  46
DOCKED: ATOM     46  C   UNL d   1       1.290  -2.476  19.777 -0.16 -0.00    +0.004 C 
DOCKED: ATOM     47  C   UNL d   1       0.346  -1.600  20.143 -0.20 -0.01    +0.012 C 
DOCKED: ENDBRANCH  17  46
DOCKED: TORSDOF 10
DOCKED: TER
DOCKED: ENDMDL
________________________________________________________________________________


	BEGINNING GENETIC ALGORITHM DOCKING 76 of 100
Run: 76 Seed: 578637331 494682392 [ Run 76 of 100 GA/GALS ]
Beginning LAMARCKIAN GENETIC ALGORITHM (LGA), with a maximum of 25000000 energy evaluations.

Final-Value: -8.950


	FINAL GENETIC ALGORITHM DOCKED STATE
	_______________________________________________


Detailed state:  trans -11.353 6.375 11.563 quatxyzw 0.814324 0.457685 0.354980 -0.037283 center 8.287 34.468 -0.670 ntor 10 141.3365 95.2436 90.0848 -103.3334 164.2032 -35.9370 65.0065 -69.3669 172.3792 167.0268
State:	-11.353   6.375  11.563   0.815  0.458  0.355 -175.727    141.34   95.24   90.08 -103.33  164.20  -35.94   65.01  -69.37  172.38  167.03

DOCKED: MODEL       76
DOCKED: USER    Run = 76
DOCKED: USER    DPF = D:/Protein_go_brrr/autodock/final/mut_N102T/heme_O2/dock.dpf
DOCKED: USER  
DOCKED: USER    Estimated Free Energy of Binding    =   -5.25 kcal/mol  [=(1)+(2)+(3)-(4)]
DOCKED: USER    Estimated Inhibition Constant, Ki   =  142.93 uM (micromolar)  [Temperature = 298.15 K]
DOCKED: USER    
DOCKED: USER    (1) Final Intermolecular Energy     =   -8.23 kcal/mol
DOCKED: USER        vdW + Hbond + desolv Energy     =   -7.82 kcal/mol
DOCKED: USER        Electrostatic Energy            =   -0.41 kcal/mol
DOCKED: USER    (2) Final Total Internal Energy     =   -0.72 kcal/mol
DOCKED: USER    (3) Torsional Free Energy           =   +2.98 kcal/mol
DOCKED: USER    (4) Unbound System's Energy  [=(2)] =   -0.72 kcal/mol
DOCKED: USER    
DOCKED: USER    
DOCKED: USER    NEWDPF move heme_O2_opt.pdbqt
DOCKED: USER    NEWDPF about 8.287000 34.468000 -0.670000
DOCKED: USER    NEWDPF tran0 -11.352621 6.374967 11.563283
DOCKED: USER    NEWDPF quaternion0 0.814324 0.457685 0.354980 -0.037283
DOCKED: USER    NEWDPF axisangle0 0.814890 0.458004 0.355227 -175.726640
DOCKED: USER    NEWDPF quat0 0.814890 0.458004 0.355227 -175.726640
DOCKED: USER    NEWDPF dihe0 141.34 95.24 90.08 -103.33 164.20 -35.94 65.01 -69.37 172.38 167.03 
DOCKED: USER  keepresnum = 1 
DOCKED: USER  
DOCKED: REMARK  10 active torsions:
DOCKED: REMARK  status: ('A' for Active; 'I' for Inactive)
DOCKED: REMARK    1  A    between atoms: C_6  and  C_10 
DOCKED: REMARK    2  A    between atoms: C_10  and  C_11 
DOCKED: REMARK    3  A    between atoms: C_11  and  C_12 
DOCKED: REMARK    4  A    between atoms: C_12  and  O_14 
DOCKED: REMARK    5  A    between atoms: C_17  and  C_20 
DOCKED: REMARK    6  A    between atoms: C_24  and  C_27 
DOCKED: REMARK    7  A    between atoms: C_31  and  C_34 
DOCKED: REMARK    8  A    between atoms: C_34  and  C_35 
DOCKED: REMARK    9  A    between atoms: C_35  and  C_36 
DOCKED: REMARK   10  A    between atoms: C_36  and  O_38 
DOCKED: USER                              x       y       z     vdW  Elec       q    Type
DOCKED: USER                           _______ _______ _______ _____ _____    ______ ____
DOCKED: ROOT
DOCKED: ATOM      1  C   UNL d   1     -12.025   4.372  11.374 -0.08 -0.00    +0.064 A 
DOCKED: ATOM      2  C   UNL d   1     -11.329   7.835   8.199 -0.26 -0.01    +0.064 A 
DOCKED: ATOM      3  C   UNL d   1      -9.970  10.870  11.669 -0.08 -0.00    +0.064 C 
DOCKED: ATOM      4  C   UNL d   1     -10.223   7.175  14.887 -0.16 +0.00    +0.064 A 
DOCKED: ATOM      5  C   UNL d   1     -11.945   5.066  10.227 -0.15 -0.00    +0.066 A 
DOCKED: ATOM      6  C   UNL d   1     -12.282   4.548   8.974 -0.20 +0.00    -0.021 A 
DOCKED: ATOM      7  C   UNL d   1     -12.039   5.536   8.048 -0.23 +0.00    -0.025 A 
DOCKED: ATOM      8  C   UNL d   1     -11.607   6.646   8.768 -0.25 -0.00    +0.066 A 
DOCKED: ATOM      9  C   UNL d   1     -12.197   5.378   6.552 -0.08 -0.00    +0.051 C 
DOCKED: ATOM     10  C   UNL d   1     -10.894   9.042   8.904 -0.19 -0.01    +0.066 A 
DOCKED: ATOM     11  C   UNL d   1     -10.777  10.293   8.288 -0.14 +0.00    -0.021 A 
DOCKED: ATOM     12  C   UNL d   1     -10.404  11.185   9.277 -0.19 -0.00    +0.000 A 
DOCKED: ATOM     13  C   UNL d   1     -10.299  10.408  10.463 -0.08 -0.00    +0.070 A 
DOCKED: ATOM     14  C   UNL d   1     -11.038  10.629   6.824 -0.17 -0.01    +0.052 C 
DOCKED: ATOM     15  C   UNL d   1      -9.819  10.110  12.887 -0.12 +0.00    +0.066 A 
DOCKED: ATOM     16  C   UNL d   1      -9.313  10.623  14.081 -0.11 +0.00    -0.021 A 
DOCKED: ATOM     17  C   UNL d   1      -9.375   9.587  15.013 -0.14 -0.00    +0.000 A 
DOCKED: ATOM     18  C   UNL d   1      -9.923   8.506  14.309 -0.18 +0.00    +0.070 A 
DOCKED: ATOM     19  C   UNL d   1      -8.770  12.024  14.210 -0.10 -0.00    +0.052 C 
DOCKED: ATOM     20  C   UNL d   1     -10.709   6.104  14.230 -0.15 +0.01    +0.066 A 
DOCKED: ATOM     21  C   UNL d   1     -10.989   4.880  14.832 -0.09 -0.00    -0.025 A 
DOCKED: ATOM     22  C   UNL d   1     -11.528   4.078  13.852 -0.14 -0.00    -0.021 A 
DOCKED: ATOM     23  C   UNL d   1     -11.541   4.839  12.679 -0.01 +0.00    +0.066 A 
DOCKED: ATOM     24  C   UNL d   1     -10.749   4.495  16.269 -0.10 +0.00    +0.051 C 
DOCKED: ATOM     25  N   UNL d   1     -11.487   6.336  10.103 -0.14 +0.00    -0.248 N 
DOCKED: ATOM     26  N   UNL d   1     -10.595   9.104  10.227 -0.16 +0.01    -0.248 N 
DOCKED: ATOM     27  N   UNL d   1     -10.117   8.819  13.002 -0.15 -0.01    -0.248 N 
DOCKED: ATOM     28  N   UNL d   1     -11.001   6.054  12.903 -0.14 -0.02    -0.248 N 
DOCKED: ATOM     29 FE   UNL d   1     -10.798   7.570  11.577 -0.05 +0.00    +0.000 Fe
DOCKED: ATOM     30  O   UNL d   1      -9.700   7.121  10.569 -0.56 +0.00    +0.000 OA
DOCKED: ATOM     31  O   UNL d   1      -9.361   7.209  12.105 -0.82 +0.00    +0.000 OA
DOCKED: ENDROOT
DOCKED: BRANCH   6  32
DOCKED: ATOM     32  C   UNL d   1     -12.685   3.135   8.637 -0.19 -0.00    +0.052 C 
DOCKED: BRANCH  32  33
DOCKED: ATOM     33  C   UNL d   1     -11.565   2.343   7.969 -0.28 -0.01    +0.115 C 
DOCKED: BRANCH  33  34
DOCKED: ATOM     34  C   UNL d   1     -11.922   1.914   6.567 -0.28 -0.03    +0.139 C 
DOCKED: ATOM     35  O   UNL d   1     -12.891   2.407   6.013 +0.03 +0.07    -0.650 OA
DOCKED: BRANCH  34  36
DOCKED: ATOM     36  O   UNL d   1     -11.208   0.971   5.918 +0.03 +0.37    -0.776 OA
DOCKED: ATOM     37  H   UNL d   1     -11.627   0.314   5.350 -0.44 -0.18    +0.167 HD
DOCKED: ENDBRANCH  34  36
DOCKED: ENDBRANCH  33  34
DOCKED: ENDBRANCH  32  33
DOCKED: ENDBRANCH   6  32
DOCKED: BRANCH  22  38
DOCKED: ATOM     38  C   UNL d   1     -11.945   2.640  14.025 -0.15 +0.00    +0.052 C 
DOCKED: BRANCH  38  39
DOCKED: ATOM     39  C   UNL d   1     -10.816   1.664  13.702 -0.24 +0.02    +0.115 C 
DOCKED: BRANCH  39  40
DOCKED: ATOM     40  C   UNL d   1     -10.280   0.975  14.932 -0.21 +0.06    +0.139 C 
DOCKED: ATOM     41  O   UNL d   1     -10.515  -0.209  15.115 -0.18 -0.35    -0.650 OA
DOCKED: BRANCH  40  42
DOCKED: ATOM     42  O   UNL d   1      -9.500   1.632  15.812 +0.02 -0.38    -0.776 OA
DOCKED: ATOM     43  H   UNL d   1      -9.862   2.011  16.622 +0.04 +0.05    +0.167 HD
DOCKED: ENDBRANCH  40  42
DOCKED: ENDBRANCH  39  40
DOCKED: ENDBRANCH  38  39
DOCKED: ENDBRANCH  22  38
DOCKED: BRANCH  12  44
DOCKED: ATOM     44  C   UNL d   1     -10.185  12.656   8.991 -0.14 -0.00    +0.004 C 
DOCKED: ATOM     45  C   UNL d   1      -9.040  13.273   8.703 -0.19 -0.00    +0.012 C 
DOCKED: ENDBRANCH  12  44
DOCKED: BRANCH  17  46
DOCKED: ATOM     46  C   UNL d   1      -8.920   9.519  16.447 -0.09 -0.00    +0.004 C 
DOCKED: ATOM     47  C   UNL d   1      -7.898   8.823  16.960 -0.11 -0.00    +0.012 C 
DOCKED: ENDBRANCH  17  46
DOCKED: TORSDOF 10
DOCKED: TER
DOCKED: ENDMDL
________________________________________________________________________________


	BEGINNING GENETIC ALGORITHM DOCKING 77 of 100
Run: 77 Seed: 895661849 705590273 [ Run 77 of 100 GA/GALS ]
Beginning LAMARCKIAN GENETIC ALGORITHM (LGA), with a maximum of 25000000 energy evaluations.

Final-Value: -9.505


	FINAL GENETIC ALGORITHM DOCKED STATE
	_______________________________________________


Detailed state:  trans -11.201 2.836 12.307 quatxyzw 0.564928 -0.255617 -0.713792 0.325602 center 8.287 34.468 -0.670 ntor 10 -117.7500 71.6445 -27.1530 50.7094 135.6575 -153.7259 -86.8687 37.7069 -24.6620 135.0362
State:	-11.201   2.836  12.307   0.597 -0.270 -0.755 141.996   -117.75   71.64  -27.15   50.71  135.66 -153.73  -86.87   37.71  -24.66  135.04

DOCKED: MODEL       77
DOCKED: USER    Run = 77
DOCKED: USER    DPF = D:/Protein_go_brrr/autodock/final/mut_N102T/heme_O2/dock.dpf
DOCKED: USER  
DOCKED: USER    Estimated Free Energy of Binding    =   -5.89 kcal/mol  [=(1)+(2)+(3)-(4)]
DOCKED: USER    Estimated Inhibition Constant, Ki   =   47.79 uM (micromolar)  [Temperature = 298.15 K]
DOCKED: USER    
DOCKED: USER    (1) Final Intermolecular Energy     =   -8.88 kcal/mol
DOCKED: USER        vdW + Hbond + desolv Energy     =   -7.88 kcal/mol
DOCKED: USER        Electrostatic Energy            =   -0.99 kcal/mol
DOCKED: USER    (2) Final Total Internal Energy     =   -0.63 kcal/mol
DOCKED: USER    (3) Torsional Free Energy           =   +2.98 kcal/mol
DOCKED: USER    (4) Unbound System's Energy  [=(2)] =   -0.63 kcal/mol
DOCKED: USER    
DOCKED: USER    
DOCKED: USER    NEWDPF move heme_O2_opt.pdbqt
DOCKED: USER    NEWDPF about 8.287000 34.468000 -0.670000
DOCKED: USER    NEWDPF tran0 -11.201367 2.836106 12.306759
DOCKED: USER    NEWDPF quaternion0 0.564928 -0.255617 -0.713792 0.325602
DOCKED: USER    NEWDPF axisangle0 0.597487 -0.270350 -0.754931 141.995902
DOCKED: USER    NEWDPF quat0 0.597487 -0.270350 -0.754931 141.995902
DOCKED: USER    NEWDPF dihe0 -117.75 71.64 -27.15 50.71 135.66 -153.73 -86.87 37.71 -24.66 135.04 
DOCKED: USER  keepresnum = 1 
DOCKED: USER  
DOCKED: REMARK  10 active torsions:
DOCKED: REMARK  status: ('A' for Active; 'I' for Inactive)
DOCKED: REMARK    1  A    between atoms: C_6  and  C_10 
DOCKED: REMARK    2  A    between atoms: C_10  and  C_11 
DOCKED: REMARK    3  A    between atoms: C_11  and  C_12 
DOCKED: REMARK    4  A    between atoms: C_12  and  O_14 
DOCKED: REMARK    5  A    between atoms: C_17  and  C_20 
DOCKED: REMARK    6  A    between atoms: C_24  and  C_27 
DOCKED: REMARK    7  A    between atoms: C_31  and  C_34 
DOCKED: REMARK    8  A    between atoms: C_34  and  C_35 
DOCKED: REMARK    9  A    between atoms: C_35  and  C_36 
DOCKED: REMARK   10  A    between atoms: C_36  and  O_38 
DOCKED: USER                              x       y       z     vdW  Elec       q    Type
DOCKED: USER                           _______ _______ _______ _____ _____    ______ ____
DOCKED: ROOT
DOCKED: ATOM      1  C   UNL d   1     -10.863   1.525  13.940 -0.22 +0.01    +0.064 A 
DOCKED: ATOM      2  C   UNL d   1     -11.356   6.241  13.661 -0.15 +0.00    +0.064 A 
DOCKED: ATOM      3  C   UNL d   1     -11.870   5.998   8.889 -0.26 -0.00    +0.064 C 
DOCKED: ATOM      4  C   UNL d   1     -11.842   1.103   9.217 -0.22 -0.01    +0.064 A 
DOCKED: ATOM      5  C   UNL d   1     -10.957   2.827  14.253 -0.05 +0.01    +0.066 A 
DOCKED: ATOM      6  C   UNL d   1     -10.836   3.330  15.552 -0.12 -0.00    -0.021 A 
DOCKED: ATOM      7  C   UNL d   1     -11.022   4.691  15.478 -0.11 -0.00    -0.025 A 
DOCKED: ATOM      8  C   UNL d   1     -11.203   4.987  14.130 -0.14 +0.01    +0.066 A 
DOCKED: ATOM      9  C   UNL d   1     -11.048   5.627  16.667 -0.06 +0.00    +0.051 C 
DOCKED: ATOM     10  C   UNL d   1     -11.528   6.616  12.257 -0.17 +0.00    +0.066 A 
DOCKED: ATOM     11  C   UNL d   1     -11.518   7.941  11.807 -0.15 -0.00    -0.021 A 
DOCKED: ATOM     12  C   UNL d   1     -11.647   7.891  10.431 -0.18 -0.00    +0.000 A 
DOCKED: ATOM     13  C   UNL d   1     -11.742   6.508  10.114 -0.19 -0.00    +0.070 A 
DOCKED: ATOM     14  C   UNL d   1     -11.365   9.200  12.652 -0.12 -0.00    +0.052 C 
DOCKED: ATOM     15  C   UNL d   1     -12.005   4.607   8.528 -0.22 -0.00    +0.066 A 
DOCKED: ATOM     16  C   UNL d   1     -12.300   4.148   7.245 -0.21 +0.00    -0.021 A 
DOCKED: ATOM     17  C   UNL d   1     -12.298   2.755   7.315 -0.24 -0.00    +0.000 A 
DOCKED: ATOM     18  C   UNL d   1     -11.996   2.464   8.652 -0.23 -0.01    +0.070 A 
DOCKED: ATOM     19  C   UNL d   1     -12.609   5.070   6.092 -0.17 -0.00    +0.052 C 
DOCKED: ATOM     20  C   UNL d   1     -11.595   0.789  10.504 -0.21 -0.01    +0.066 A 
DOCKED: ATOM     21  C   UNL d   1     -11.442  -0.513  10.973 -0.24 +0.01    -0.025 A 
DOCKED: ATOM     22  C   UNL d   1     -11.136  -0.411  12.312 -0.26 +0.00    -0.021 A 
DOCKED: ATOM     23  C   UNL d   1     -11.131   0.954  12.614 -0.24 +0.00    +0.066 A 
DOCKED: ATOM     24  C   UNL d   1     -11.585  -1.790  10.186 -0.25 -0.03    +0.051 C 
DOCKED: ATOM     25  N   UNL d   1     -11.229   3.832  13.384 -0.12 -0.02    -0.248 N 
DOCKED: ATOM     26  N   UNL d   1     -11.674   5.739  11.230 -0.07 -0.00    -0.248 N 
DOCKED: ATOM     27  N   UNL d   1     -11.896   3.600   9.390 -0.14 +0.02    -0.248 N 
DOCKED: ATOM     28  N   UNL d   1     -11.455   1.677  11.523 -0.19 +0.02    -0.248 N 
DOCKED: ATOM     29 FE   UNL d   1     -11.564   3.693  11.375 -0.06 -0.00    +0.000 Fe
DOCKED: ATOM     30  O   UNL d   1     -12.817   4.122  12.193 -0.14 -0.00    +0.000 OA
DOCKED: ATOM     31  O   UNL d   1     -12.976   3.115  10.992 -0.15 -0.00    +0.000 OA
DOCKED: ENDROOT
DOCKED: BRANCH   6  32
DOCKED: ATOM     32  C   UNL d   1     -10.688   2.552  16.833 -0.10 +0.01    +0.052 C 
DOCKED: BRANCH  32  33
DOCKED: ATOM     33  C   UNL d   1      -9.451   1.659  16.845 -0.14 +0.05    +0.115 C 
DOCKED: BRANCH  33  34
DOCKED: ATOM     34  C   UNL d   1      -8.243   2.359  17.418 -0.21 +0.05    +0.139 C 
DOCKED: ATOM     35  O   UNL d   1      -8.252   3.573  17.543 +0.01 -0.11    -0.650 OA
DOCKED: BRANCH  34  36
DOCKED: ATOM     36  O   UNL d   1      -7.136   1.674  17.772 -0.42 -0.47    -0.776 OA
DOCKED: ATOM     37  H   UNL d   1      -6.819   1.650  18.682 +0.04 +0.06    +0.167 HD
DOCKED: ENDBRANCH  34  36
DOCKED: ENDBRANCH  33  34
DOCKED: ENDBRANCH  32  33
DOCKED: ENDBRANCH   6  32
DOCKED: BRANCH  22  38
DOCKED: ATOM     38  C   UNL d   1     -10.925  -1.567  13.255 -0.22 -0.01    +0.052 C 
DOCKED: BRANCH  38  39
DOCKED: ATOM     39  C   UNL d   1     -11.867  -1.517  14.456 -0.08 +0.01    +0.115 C 
DOCKED: BRANCH  39  40
DOCKED: ATOM     40  C   UNL d   1     -11.209  -1.997  15.725 -0.08 +0.04    +0.139 C 
DOCKED: ATOM     41  O   UNL d   1     -10.108  -2.521  15.676 -0.47 -0.48    -0.650 OA
DOCKED: BRANCH  40  42
DOCKED: ATOM     42  O   UNL d   1     -11.792  -1.811  16.925 -0.00 -0.13    -0.776 OA
DOCKED: ATOM     43  H   UNL d   1     -12.551  -2.337  17.204 +0.01 +0.01    +0.167 HD
DOCKED: ENDBRANCH  40  42
DOCKED: ENDBRANCH  39  40
DOCKED: ENDBRANCH  38  39
DOCKED: ENDBRANCH  22  38
DOCKED: BRANCH  12  44
DOCKED: ATOM     44  C   UNL d   1     -11.669   9.143   9.580 -0.18 -0.00    +0.004 C 
DOCKED: ATOM     45  C   UNL d   1     -11.224   9.293   8.333 -0.24 -0.00    +0.012 C 
DOCKED: ENDBRANCH  12  44
DOCKED: BRANCH  17  46
DOCKED: ATOM     46  C   UNL d   1     -12.605   1.713   6.272 -0.25 -0.00    +0.004 C 
DOCKED: ATOM     47  C   UNL d   1     -12.205   1.676   4.994 -0.29 -0.00    +0.012 C 
DOCKED: ENDBRANCH  17  46
DOCKED: TORSDOF 10
DOCKED: TER
DOCKED: ENDMDL
________________________________________________________________________________


	BEGINNING GENETIC ALGORITHM DOCKING 78 of 100
Run: 78 Seed: 1209547226 222059337 [ Run 78 of 100 GA/GALS ]
Beginning LAMARCKIAN GENETIC ALGORITHM (LGA), with a maximum of 25000000 energy evaluations.

Final-Value: -9.688


	FINAL GENETIC ALGORITHM DOCKED STATE
	_______________________________________________


Detailed state:  trans -12.236 6.298 8.535 quatxyzw -0.801447 -0.364834 -0.469040 -0.067683 center 8.287 34.468 -0.670 ntor 10 -15.1604 -152.6157 70.1405 -61.7191 -93.1867 -8.4612 -12.1400 94.5651 162.7666 155.5880
State:	-12.236   6.298   8.535  -0.803 -0.366 -0.470 -172.238    -15.16 -152.62   70.14  -61.72  -93.19   -8.46  -12.14   94.57  162.77  155.59

DOCKED: MODEL       78
DOCKED: USER    Run = 78
DOCKED: USER    DPF = D:/Protein_go_brrr/autodock/final/mut_N102T/heme_O2/dock.dpf
DOCKED: USER  
DOCKED: USER    Estimated Free Energy of Binding    =   -4.47 kcal/mol  [=(1)+(2)+(3)-(4)]
DOCKED: USER    Estimated Inhibition Constant, Ki   =  530.39 uM (micromolar)  [Temperature = 298.15 K]
DOCKED: USER    
DOCKED: USER    (1) Final Intermolecular Energy     =   -7.45 kcal/mol
DOCKED: USER        vdW + Hbond + desolv Energy     =   -7.28 kcal/mol
DOCKED: USER        Electrostatic Energy            =   -0.17 kcal/mol
DOCKED: USER    (2) Final Total Internal Energy     =   -2.24 kcal/mol
DOCKED: USER    (3) Torsional Free Energy           =   +2.98 kcal/mol
DOCKED: USER    (4) Unbound System's Energy  [=(2)] =   -2.24 kcal/mol
DOCKED: USER    
DOCKED: USER    
DOCKED: USER    NEWDPF move heme_O2_opt.pdbqt
DOCKED: USER    NEWDPF about 8.287000 34.468000 -0.670000
DOCKED: USER    NEWDPF tran0 -12.235645 6.298195 8.535125
DOCKED: USER    NEWDPF quaternion0 -0.801447 -0.364834 -0.469040 -0.067683
DOCKED: USER    NEWDPF axisangle0 -0.803289 -0.365672 -0.470118 -172.238145
DOCKED: USER    NEWDPF quat0 -0.803289 -0.365672 -0.470118 -172.238145
DOCKED: USER    NEWDPF dihe0 -15.16 -152.62 70.14 -61.72 -93.19 -8.46 -12.14 94.57 162.77 155.59 
DOCKED: USER  keepresnum = 1 
DOCKED: USER  
DOCKED: REMARK  10 active torsions:
DOCKED: REMARK  status: ('A' for Active; 'I' for Inactive)
DOCKED: REMARK    1  A    between atoms: C_6  and  C_10 
DOCKED: REMARK    2  A    between atoms: C_10  and  C_11 
DOCKED: REMARK    3  A    between atoms: C_11  and  C_12 
DOCKED: REMARK    4  A    between atoms: C_12  and  O_14 
DOCKED: REMARK    5  A    between atoms: C_17  and  C_20 
DOCKED: REMARK    6  A    between atoms: C_24  and  C_27 
DOCKED: REMARK    7  A    between atoms: C_31  and  C_34 
DOCKED: REMARK    8  A    between atoms: C_34  and  C_35 
DOCKED: REMARK    9  A    between atoms: C_35  and  C_36 
DOCKED: REMARK   10  A    between atoms: C_36  and  O_38 
DOCKED: USER                              x       y       z     vdW  Elec       q    Type
DOCKED: USER                           _______ _______ _______ _____ _____    ______ ____
DOCKED: ROOT
DOCKED: ATOM      1  C   UNL d   1     -12.957   4.527   7.618 -0.13 -0.00    +0.064 A 
DOCKED: ATOM      2  C   UNL d   1     -11.775   8.786   5.880 -0.19 -0.01    +0.064 A 
DOCKED: ATOM      3  C   UNL d   1     -10.706  10.389  10.283 -0.18 -0.00    +0.064 C 
DOCKED: ATOM      4  C   UNL d   1     -11.462   5.865  12.024 -0.13 +0.00    +0.064 A 
DOCKED: ATOM      5  C   UNL d   1     -12.721   5.554   6.786 -0.13 -0.00    +0.066 A 
DOCKED: ATOM      6  C   UNL d   1     -12.932   5.507   5.405 -0.12 -0.00    -0.021 A 
DOCKED: ATOM      7  C   UNL d   1     -12.550   6.725   4.895 -0.10 -0.00    -0.025 A 
DOCKED: ATOM      8  C   UNL d   1     -12.161   7.500   5.985 -0.15 -0.00    +0.066 A 
DOCKED: ATOM      9  C   UNL d   1     -12.542   7.085   3.425 -0.15 +0.00    +0.051 C 
DOCKED: ATOM     10  C   UNL d   1     -11.378   9.655   6.989 -0.17 -0.01    +0.066 A 
DOCKED: ATOM     11  C   UNL d   1     -11.145  11.027   6.846 -0.15 +0.00    -0.021 A 
DOCKED: ATOM     12  C   UNL d   1     -10.853  11.511   8.108 -0.15 -0.00    +0.000 A 
DOCKED: ATOM     13  C   UNL d   1     -10.914  10.379   8.966 -0.16 -0.01    +0.070 A 
DOCKED: ATOM     14  C   UNL d   1     -11.225  11.848   5.564 -0.11 -0.00    +0.052 C 
DOCKED: ATOM     15  C   UNL d   1     -10.724   9.259  11.181 -0.17 -0.00    +0.066 A 
DOCKED: ATOM     16  C   UNL d   1     -10.337   9.308  12.520 -0.16 -0.00    -0.021 A 
DOCKED: ATOM     17  C   UNL d   1     -10.543   8.029  13.037 -0.24 +0.00    +0.000 A 
DOCKED: ATOM     18  C   UNL d   1     -11.049   7.287  11.961 -0.22 +0.00    +0.070 A 
DOCKED: ATOM     19  C   UNL d   1      -9.760  10.543  13.165 -0.10 +0.00    +0.052 C 
DOCKED: ATOM     20  C   UNL d   1     -11.910   5.111  11.002 -0.13 -0.00    +0.066 A 
DOCKED: ATOM     21  C   UNL d   1     -12.302   3.781  11.126 -0.13 +0.00    -0.025 A 
DOCKED: ATOM     22  C   UNL d   1     -12.756   3.391   9.886 -0.16 +0.00    -0.021 A 
DOCKED: ATOM     23  C   UNL d   1     -12.607   4.497   9.043 -0.16 -0.00    +0.066 A 
DOCKED: ATOM     24  C   UNL d   1     -12.242   2.924  12.364 -0.19 -0.00    +0.051 C 
DOCKED: ATOM     25  N   UNL d   1     -12.204   6.756   7.141 -0.11 +0.01    -0.248 N 
DOCKED: ATOM     26  N   UNL d   1     -11.229   9.253   8.277 -0.13 +0.04    -0.248 N 
DOCKED: ATOM     27  N   UNL d   1     -11.081   8.029  10.825 -0.14 +0.00    -0.248 N 
DOCKED: ATOM     28  N   UNL d   1     -12.051   5.526   9.715 -0.12 +0.01    -0.248 N 
DOCKED: ATOM     29 FE   UNL d   1     -11.642   7.377   9.004 -0.04 -0.00    +0.000 Fe
DOCKED: ATOM     30  O   UNL d   1     -10.454   7.209   8.012 -0.44 -0.00    +0.000 OA
DOCKED: ATOM     31  O   UNL d   1     -10.289   6.757   9.512 -0.52 -0.00    +0.000 OA
DOCKED: ENDROOT
DOCKED: BRANCH   6  32
DOCKED: ATOM     32  C   UNL d   1     -13.347   4.320   4.575 -0.12 +0.00    +0.052 C 
DOCKED: BRANCH  32  33
DOCKED: ATOM     33  C   UNL d   1     -12.256   3.859   3.614 -0.19 +0.02    +0.115 C 
DOCKED: BRANCH  33  34
DOCKED: ATOM     34  C   UNL d   1     -12.532   2.489   3.044 -0.11 +0.04    +0.139 C 
DOCKED: ATOM     35  O   UNL d   1     -12.722   2.361   1.846 -0.53 -0.39    -0.650 OA
DOCKED: BRANCH  34  36
DOCKED: ATOM     36  O   UNL d   1     -12.601   1.399   3.837 +0.10 -0.02    -0.776 OA
DOCKED: ATOM     37  H   UNL d   1     -12.277   1.406   4.745 -0.01 -0.04    +0.167 HD
DOCKED: ENDBRANCH  34  36
DOCKED: ENDBRANCH  33  34
DOCKED: ENDBRANCH  32  33
DOCKED: ENDBRANCH   6  32
DOCKED: BRANCH  22  38
DOCKED: ATOM     38  C   UNL d   1     -13.244   2.012   9.523 -0.12 -0.01    +0.052 C 
DOCKED: BRANCH  38  39
DOCKED: ATOM     39  C   UNL d   1     -12.202   1.213   8.744 -0.22 -0.02    +0.115 C 
DOCKED: BRANCH  39  40
DOCKED: ATOM     40  C   UNL d   1     -12.268   1.471   7.260 -0.22 -0.03    +0.139 C 
DOCKED: ATOM     41  O   UNL d   1     -11.238   1.640   6.627 -0.06 +0.15    -0.650 OA
DOCKED: BRANCH  40  42
DOCKED: ATOM     42  O   UNL d   1     -13.446   1.469   6.605 +0.07 +0.15    -0.776 OA
DOCKED: ATOM     43  H   UNL d   1     -13.508   1.206   5.679 +0.04 -0.04    +0.167 HD
DOCKED: ENDBRANCH  40  42
DOCKED: ENDBRANCH  39  40
DOCKED: ENDBRANCH  38  39
DOCKED: ENDBRANCH  22  38
DOCKED: BRANCH  12  44
DOCKED: ATOM     44  C   UNL d   1     -10.549  12.973   8.358 -0.10 -0.00    +0.004 C 
DOCKED: ATOM     45  C   UNL d   1      -9.400  13.513   8.762 -0.14 -0.00    +0.012 C 
DOCKED: ENDBRANCH  12  44
DOCKED: BRANCH  17  46
DOCKED: ATOM     46  C   UNL d   1     -10.257   7.457  14.400 -0.23 +0.00    +0.004 C 
DOCKED: ATOM     47  C   UNL d   1      -9.067   7.220  14.966 -0.29 +0.00    +0.012 C 
DOCKED: ENDBRANCH  17  46
DOCKED: TORSDOF 10
DOCKED: TER
DOCKED: ENDMDL
________________________________________________________________________________


	BEGINNING GENETIC ALGORITHM DOCKING 79 of 100
Run: 79 Seed: 1788830302 1556572884 [ Run 79 of 100 GA/GALS ]
Beginning LAMARCKIAN GENETIC ALGORITHM (LGA), with a maximum of 25000000 energy evaluations.

Final-Value: -9.330


	FINAL GENETIC ALGORITHM DOCKED STATE
	_______________________________________________


Detailed state:  trans 13.778 -0.033 -6.842 quatxyzw 0.420451 -0.664036 -0.034311 -0.617333 center 8.287 34.468 -0.670 ntor 10 -2.2412 23.8721 -56.7614 -100.4502 -109.6373 -123.0952 170.5177 -69.4485 9.9619 29.7690
State:	 13.778  -0.033  -6.842   0.534 -0.844 -0.044 -103.757     -2.24   23.87  -56.76 -100.45 -109.64 -123.10  170.52  -69.45    9.96   29.77

DOCKED: MODEL       79
DOCKED: USER    Run = 79
DOCKED: USER    DPF = D:/Protein_go_brrr/autodock/final/mut_N102T/heme_O2/dock.dpf
DOCKED: USER  
DOCKED: USER    Estimated Free Energy of Binding    =   -4.37 kcal/mol  [=(1)+(2)+(3)-(4)]
DOCKED: USER    Estimated Inhibition Constant, Ki   =  621.58 uM (micromolar)  [Temperature = 298.15 K]
DOCKED: USER    
DOCKED: USER    (1) Final Intermolecular Energy     =   -7.36 kcal/mol
DOCKED: USER        vdW + Hbond + desolv Energy     =   -7.54 kcal/mol
DOCKED: USER        Electrostatic Energy            =   +0.18 kcal/mol
DOCKED: USER    (2) Final Total Internal Energy     =   -1.97 kcal/mol
DOCKED: USER    (3) Torsional Free Energy           =   +2.98 kcal/mol
DOCKED: USER    (4) Unbound System's Energy  [=(2)] =   -1.97 kcal/mol
DOCKED: USER    
DOCKED: USER    
DOCKED: USER    NEWDPF move heme_O2_opt.pdbqt
DOCKED: USER    NEWDPF about 8.287000 34.468000 -0.670000
DOCKED: USER    NEWDPF tran0 13.777547 -0.033183 -6.842372
DOCKED: USER    NEWDPF quaternion0 0.420451 -0.664036 -0.034311 -0.617333
DOCKED: USER    NEWDPF axisangle0 0.534448 -0.844076 -0.043614 -103.756778
DOCKED: USER    NEWDPF quat0 0.534448 -0.844076 -0.043614 -103.756778
DOCKED: USER    NEWDPF dihe0 -2.24 23.87 -56.76 -100.45 -109.64 -123.10 170.52 -69.45 9.96 29.77 
DOCKED: USER  keepresnum = 1 
DOCKED: USER  
DOCKED: REMARK  10 active torsions:
DOCKED: REMARK  status: ('A' for Active; 'I' for Inactive)
DOCKED: REMARK    1  A    between atoms: C_6  and  C_10 
DOCKED: REMARK    2  A    between atoms: C_10  and  C_11 
DOCKED: REMARK    3  A    between atoms: C_11  and  C_12 
DOCKED: REMARK    4  A    between atoms: C_12  and  O_14 
DOCKED: REMARK    5  A    between atoms: C_17  and  C_20 
DOCKED: REMARK    6  A    between atoms: C_24  and  C_27 
DOCKED: REMARK    7  A    between atoms: C_31  and  C_34 
DOCKED: REMARK    8  A    between atoms: C_34  and  C_35 
DOCKED: REMARK    9  A    between atoms: C_35  and  C_36 
DOCKED: REMARK   10  A    between atoms: C_36  and  O_38 
DOCKED: USER                              x       y       z     vdW  Elec       q    Type
DOCKED: USER                           _______ _______ _______ _____ _____    ______ ____
DOCKED: ROOT
DOCKED: ATOM      1  C   UNL d   1      13.929   1.857  -7.793 -0.14 -0.01    +0.064 A 
DOCKED: ATOM      2  C   UNL d   1      12.326  -2.361  -9.277 -0.16 -0.01    +0.064 A 
DOCKED: ATOM      3  C   UNL d   1      13.386  -4.359  -5.036 -0.25 -0.04    +0.064 C 
DOCKED: ATOM      4  C   UNL d   1      14.596   0.082  -3.338 -0.15 -0.00    +0.064 A 
DOCKED: ATOM      5  C   UNL d   1      13.405   0.873  -8.542 -0.15 -0.01    +0.066 A 
DOCKED: ATOM      6  C   UNL d   1      12.985   1.036  -9.865 -0.24 +0.00    -0.021 A 
DOCKED: ATOM      7  C   UNL d   1      12.481  -0.174 -10.282 -0.23 +0.00    -0.025 A 
DOCKED: ATOM      8  C   UNL d   1      12.651  -1.055  -9.217 -0.16 -0.01    +0.066 A 
DOCKED: ATOM      9  C   UNL d   1      11.847  -0.429 -11.632 -0.24 -0.01    +0.051 C 
DOCKED: ATOM     10  C   UNL d   1      12.503  -3.338  -8.201 -0.16 -0.01    +0.066 A 
DOCKED: ATOM     11  C   UNL d   1      12.302  -4.713  -8.370 -0.21 +0.00    -0.021 A 
DOCKED: ATOM     12  C   UNL d   1      12.620  -5.308  -7.163 -0.27 -0.00    +0.000 A 
DOCKED: ATOM     13  C   UNL d   1      12.993  -4.238  -6.304 -0.04 -0.03    +0.070 A 
DOCKED: ATOM     14  C   UNL d   1      11.852  -5.431  -9.637 -0.22 -0.01    +0.052 C 
DOCKED: ATOM     15  C   UNL d   1      13.738  -3.298  -4.123 -0.19 -0.02    +0.066 A 
DOCKED: ATOM     16  C   UNL d   1      13.983  -3.476  -2.761 -0.18 +0.01    -0.021 A 
DOCKED: ATOM     17  C   UNL d   1      14.329  -2.223  -2.256 -0.14 -0.00    +0.000 A 
DOCKED: ATOM     18  C   UNL d   1      14.271  -1.363  -3.362 -0.14 -0.01    +0.070 A 
DOCKED: ATOM     19  C   UNL d   1      13.813  -4.801  -2.061 -0.21 -0.04    +0.052 C 
DOCKED: ATOM     20  C   UNL d   1      14.508   0.944  -4.370 -0.14 -0.01    +0.066 A 
DOCKED: ATOM     21  C   UNL d   1      14.845   2.292  -4.292 -0.21 +0.00    -0.025 A 
DOCKED: ATOM     22  C   UNL d   1      14.688   2.808  -5.559 -0.20 +0.00    -0.021 A 
DOCKED: ATOM     23  C   UNL d   1      14.241   1.755  -6.363 -0.11 -0.01    +0.066 A 
DOCKED: ATOM     24  C   UNL d   1      15.292   3.051  -3.069 -0.16 -0.02    +0.051 C 
DOCKED: ATOM     25  N   UNL d   1      13.160  -0.393  -8.124 -0.08 +0.03    -0.248 N 
DOCKED: ATOM     26  N   UNL d   1      12.914  -3.042  -6.942 -0.01 +0.03    -0.248 N 
DOCKED: ATOM     27  N   UNL d   1      13.838  -2.018  -4.470 -0.10 +0.04    -0.248 N 
DOCKED: ATOM     28  N   UNL d   1      14.091   0.634  -5.626 -0.08 +0.02    -0.248 N 
DOCKED: ATOM     29 FE   UNL d   1      13.507  -1.192  -6.277 -0.04 -0.00    +0.000 Fe
DOCKED: ATOM     30  O   UNL d   1      11.997  -1.064  -6.633 -0.37 +0.00    +0.000 OA
DOCKED: ATOM     31  O   UNL d   1      12.485  -0.736  -5.172 -0.86 +0.00    +0.000 OA
DOCKED: ENDROOT
DOCKED: BRANCH   6  32
DOCKED: ATOM     32  C   UNL d   1      12.931   2.311 -10.667 -0.23 -0.02    +0.052 C 
DOCKED: BRANCH  32  33
DOCKED: ATOM     33  C   UNL d   1      14.186   2.539 -11.503 -0.03 -0.03    +0.115 C 
DOCKED: BRANCH  33  34
DOCKED: ATOM     34  C   UNL d   1      15.305   1.597 -11.130 -0.05 -0.02    +0.139 C 
DOCKED: ATOM     35  O   UNL d   1      15.508   0.603 -11.809 +0.02 +0.07    -0.650 OA
DOCKED: BRANCH  34  36
DOCKED: ATOM     36  O   UNL d   1      16.073   1.813 -10.042 +0.04 +0.09    -0.776 OA
DOCKED: ATOM     37  H   UNL d   1      15.956   2.588  -9.480 +0.03 -0.02    +0.167 HD
DOCKED: ENDBRANCH  34  36
DOCKED: ENDBRANCH  33  34
DOCKED: ENDBRANCH  32  33
DOCKED: ENDBRANCH   6  32
DOCKED: BRANCH  22  38
DOCKED: ATOM     38  C   UNL d   1      14.894   4.247  -5.953 -0.26 -0.01    +0.052 C 
DOCKED: BRANCH  38  39
DOCKED: ATOM     39  C   UNL d   1      15.759   4.390  -7.204 -0.08 -0.02    +0.115 C 
DOCKED: BRANCH  39  40
DOCKED: ATOM     40  C   UNL d   1      14.968   4.853  -8.402 -0.14 -0.03    +0.139 C 
DOCKED: ATOM     41  O   UNL d   1      13.907   5.434  -8.240 -0.07 +0.16    -0.650 OA
DOCKED: BRANCH  40  42
DOCKED: ATOM     42  O   UNL d   1      15.437   4.682  -9.653 +0.07 +0.13    -0.776 OA
DOCKED: ATOM     43  H   UNL d   1      16.051   3.970  -9.869 +0.03 -0.02    +0.167 HD
DOCKED: ENDBRANCH  40  42
DOCKED: ENDBRANCH  39  40
DOCKED: ENDBRANCH  38  39
DOCKED: ENDBRANCH  22  38
DOCKED: BRANCH  12  44
DOCKED: ATOM     44  C   UNL d   1      12.533  -6.806  -6.958 -0.28 -0.00    +0.004 C 
DOCKED: ATOM     45  C   UNL d   1      13.516  -7.647  -6.642 -0.20 -0.01    +0.012 C 
DOCKED: ENDBRANCH  12  44
DOCKED: BRANCH  17  46
DOCKED: ATOM     46  C   UNL d   1      14.642  -1.775  -0.853 -0.18 -0.00    +0.004 C 
DOCKED: ATOM     47  C   UNL d   1      13.887  -1.033  -0.032 -0.36 +0.00    +0.012 C 
DOCKED: ENDBRANCH  17  46
DOCKED: TORSDOF 10
DOCKED: TER
DOCKED: ENDMDL
________________________________________________________________________________


	BEGINNING GENETIC ALGORITHM DOCKING 80 of 100
Run: 80 Seed: 1050385577 974932524 [ Run 80 of 100 GA/GALS ]
Beginning LAMARCKIAN GENETIC ALGORITHM (LGA), with a maximum of 25000000 energy evaluations.

Final-Value: -9.100


	FINAL GENETIC ALGORITHM DOCKED STATE
	_______________________________________________


Detailed state:  trans -11.357 4.301 9.804 quatxyzw -0.311819 0.622755 -0.257836 0.669675 center 8.287 34.468 -0.670 ntor 10 127.8676 -6.4113 20.7516 124.1979 176.1092 -45.2169 -86.4488 170.9524 -173.4261 175.3049
State:	-11.357   4.301   9.804  -0.420  0.839 -0.347 95.916    127.87   -6.41   20.75  124.20  176.11  -45.22  -86.45  170.95 -173.43  175.30

DOCKED: MODEL       80
DOCKED: USER    Run = 80
DOCKED: USER    DPF = D:/Protein_go_brrr/autodock/final/mut_N102T/heme_O2/dock.dpf
DOCKED: USER  
DOCKED: USER    Estimated Free Energy of Binding    =   -3.69 kcal/mol  [=(1)+(2)+(3)-(4)]
DOCKED: USER    Estimated Inhibition Constant, Ki   =    1.96 mM (millimolar)  [Temperature = 298.15 K]
DOCKED: USER    
DOCKED: USER    (1) Final Intermolecular Energy     =   -6.68 kcal/mol
DOCKED: USER        vdW + Hbond + desolv Energy     =   -6.69 kcal/mol
DOCKED: USER        Electrostatic Energy            =   +0.01 kcal/mol
DOCKED: USER    (2) Final Total Internal Energy     =   -2.42 kcal/mol
DOCKED: USER    (3) Torsional Free Energy           =   +2.98 kcal/mol
DOCKED: USER    (4) Unbound System's Energy  [=(2)] =   -2.42 kcal/mol
DOCKED: USER    
DOCKED: USER    
DOCKED: USER    NEWDPF move heme_O2_opt.pdbqt
DOCKED: USER    NEWDPF about 8.287000 34.468000 -0.670000
DOCKED: USER    NEWDPF tran0 -11.357452 4.300937 9.804326
DOCKED: USER    NEWDPF quaternion0 -0.311819 0.622755 -0.257836 0.669675
DOCKED: USER    NEWDPF axisangle0 -0.419871 0.838554 -0.347182 95.915960
DOCKED: USER    NEWDPF quat0 -0.419871 0.838554 -0.347182 95.915960
DOCKED: USER    NEWDPF dihe0 127.87 -6.41 20.75 124.20 176.11 -45.22 -86.45 170.95 -173.43 175.30 
DOCKED: USER  keepresnum = 1 
DOCKED: USER  
DOCKED: REMARK  10 active torsions:
DOCKED: REMARK  status: ('A' for Active; 'I' for Inactive)
DOCKED: REMARK    1  A    between atoms: C_6  and  C_10 
DOCKED: REMARK    2  A    between atoms: C_10  and  C_11 
DOCKED: REMARK    3  A    between atoms: C_11  and  C_12 
DOCKED: REMARK    4  A    between atoms: C_12  and  O_14 
DOCKED: REMARK    5  A    between atoms: C_17  and  C_20 
DOCKED: REMARK    6  A    between atoms: C_24  and  C_27 
DOCKED: REMARK    7  A    between atoms: C_31  and  C_34 
DOCKED: REMARK    8  A    between atoms: C_34  and  C_35 
DOCKED: REMARK    9  A    between atoms: C_35  and  C_36 
DOCKED: REMARK   10  A    between atoms: C_36  and  O_38 
DOCKED: USER                              x       y       z     vdW  Elec       q    Type
DOCKED: USER                           _______ _______ _______ _____ _____    ______ ____
DOCKED: ROOT
DOCKED: ATOM      1  C   UNL d   1     -11.431   5.377   7.978 -0.17 +0.00    +0.064 A 
DOCKED: ATOM      2  C   UNL d   1     -11.819   0.754   8.995 -0.23 -0.01    +0.064 A 
DOCKED: ATOM      3  C   UNL d   1     -11.162   1.633  13.673 -0.24 +0.01    +0.064 C 
DOCKED: ATOM      4  C   UNL d   1     -11.239   6.440  12.697 -0.19 +0.00    +0.064 A 
DOCKED: ATOM      5  C   UNL d   1     -11.592   4.048   7.873 -0.20 +0.00    +0.066 A 
DOCKED: ATOM      6  C   UNL d   1     -11.787   3.377   6.663 -0.27 +0.00    -0.021 A 
DOCKED: ATOM      7  C   UNL d   1     -11.942   2.043   6.960 -0.28 +0.00    -0.025 A 
DOCKED: ATOM      8  C   UNL d   1     -11.790   1.930   8.339 -0.24 -0.01    +0.066 A 
DOCKED: ATOM      9  C   UNL d   1     -12.251   0.961   5.949 -0.27 -0.02    +0.051 C 
DOCKED: ATOM     10  C   UNL d   1     -11.643   0.571  10.436 -0.21 -0.01    +0.066 A 
DOCKED: ATOM     11  C   UNL d   1     -11.518  -0.684  11.043 -0.23 +0.01    -0.021 A 
DOCKED: ATOM     12  C   UNL d   1     -11.310  -0.451  12.390 -0.24 -0.00    +0.000 A 
DOCKED: ATOM     13  C   UNL d   1     -11.333   0.964  12.533 -0.23 -0.00    +0.070 A 
DOCKED: ATOM     14  C   UNL d   1     -11.568  -2.047  10.362 -0.22 -0.03    +0.052 C 
DOCKED: ATOM     15  C   UNL d   1     -11.213   3.063  13.867 -0.15 +0.01    +0.066 A 
DOCKED: ATOM     16  C   UNL d   1     -11.191   3.693  15.110 -0.13 -0.00    -0.021 A 
DOCKED: ATOM     17  C   UNL d   1     -11.212   5.065  14.857 -0.14 +0.00    +0.000 A 
DOCKED: ATOM     18  C   UNL d   1     -11.245   5.169  13.459 -0.15 +0.01    +0.070 A 
DOCKED: ATOM     19  C   UNL d   1     -11.206   2.939  16.416 -0.08 +0.01    +0.052 C 
DOCKED: ATOM     20  C   UNL d   1     -11.313   6.577  11.359 -0.21 +0.00    +0.066 A 
DOCKED: ATOM     21  C   UNL d   1     -11.285   7.801  10.697 -0.21 +0.00    -0.025 A 
DOCKED: ATOM     22  C   UNL d   1     -11.311   7.516   9.350 -0.27 +0.00    -0.021 A 
DOCKED: ATOM     23  C   UNL d   1     -11.373   6.124   9.240 -0.27 -0.00    +0.066 A 
DOCKED: ATOM     24  C   UNL d   1     -11.239   9.173  11.318 -0.16 -0.00    +0.051 C 
DOCKED: ATOM     25  N   UNL d   1     -11.640   3.174   8.908 +0.02 +0.01    -0.248 N 
DOCKED: ATOM     26  N   UNL d   1     -11.541   1.578  11.341 -0.18 +0.03    -0.248 N 
DOCKED: ATOM     27  N   UNL d   1     -11.321   3.945  12.877 -0.09 -0.02    -0.248 N 
DOCKED: ATOM     28  N   UNL d   1     -11.419   5.559  10.464 +0.05 +0.00    -0.248 N 
DOCKED: ATOM     29 FE   UNL d   1     -11.480   3.584  10.902 -0.07 -0.00    +0.000 Fe
DOCKED: ATOM     30  O   UNL d   1     -12.891   3.086  10.475 -0.17 -0.00    +0.000 OA
DOCKED: ATOM     31  O   UNL d   1     -12.759   4.246  11.533 -0.16 -0.00    +0.000 OA
DOCKED: ENDROOT
DOCKED: BRANCH   6  32
DOCKED: ATOM     32  C   UNL d   1     -11.958   3.977   5.291 -0.09 +0.00    +0.052 C 
DOCKED: BRANCH  32  33
DOCKED: ATOM     33  C   UNL d   1     -13.415   4.277   4.954 -0.10 +0.00    +0.115 C 
DOCKED: BRANCH  33  34
DOCKED: ATOM     34  C   UNL d   1     -13.817   5.679   5.339 -0.07 -0.00    +0.139 C 
DOCKED: ATOM     35  O   UNL d   1     -12.967   6.551   5.417 -0.00 -0.00    -0.650 OA
DOCKED: BRANCH  34  36
DOCKED: ATOM     36  O   UNL d   1     -15.098   5.989   5.630 +0.02 +0.01    -0.776 OA
DOCKED: ATOM     37  H   UNL d   1     -15.342   6.446   6.443 +0.01 -0.00    +0.167 HD
DOCKED: ENDBRANCH  34  36
DOCKED: ENDBRANCH  33  34
DOCKED: ENDBRANCH  32  33
DOCKED: ENDBRANCH   6  32
DOCKED: BRANCH  22  38
DOCKED: ATOM     38  C   UNL d   1     -11.341   8.533   8.238 -0.25 -0.01    +0.052 C 
DOCKED: BRANCH  38  39
DOCKED: ATOM     39  C   UNL d   1     -12.751   9.051   7.961 -0.07 -0.01    +0.115 C 
DOCKED: BRANCH  39  40
DOCKED: ATOM     40  C   UNL d   1     -13.809   8.257   8.684 -0.03 -0.01    +0.139 C 
DOCKED: ATOM     41  O   UNL d   1     -14.281   8.683   9.726 +0.01 +0.03    -0.650 OA
DOCKED: BRANCH  40  42
DOCKED: ATOM     42  O   UNL d   1     -14.284   7.104   8.174 +0.03 +0.03    -0.776 OA
DOCKED: ATOM     43  H   UNL d   1     -14.002   6.780   7.311 +0.02 -0.01    +0.167 HD
DOCKED: ENDBRANCH  40  42
DOCKED: ENDBRANCH  39  40
DOCKED: ENDBRANCH  38  39
DOCKED: ENDBRANCH  22  38
DOCKED: BRANCH  12  44
DOCKED: ATOM     44  C   UNL d   1     -11.119  -1.580  13.381 -0.22 -0.00    +0.004 C 
DOCKED: ATOM     45  C   UNL d   1     -11.209  -1.527  14.709 -0.15 +0.00    +0.012 C 
DOCKED: ENDBRANCH  12  44
DOCKED: BRANCH  17  46
DOCKED: ATOM     46  C   UNL d   1     -11.263   6.242  15.794 -0.09 +0.00    +0.004 C 
DOCKED: ATOM     47  C   UNL d   1     -10.354   7.213  15.954 -0.11 +0.00    +0.012 C 
DOCKED: ENDBRANCH  17  46
DOCKED: TORSDOF 10
DOCKED: TER
DOCKED: ENDMDL
________________________________________________________________________________


	BEGINNING GENETIC ALGORITHM DOCKING 81 of 100
Run: 81 Seed: 225634517 387800226 [ Run 81 of 100 GA/GALS ]
Beginning LAMARCKIAN GENETIC ALGORITHM (LGA), with a maximum of 25000000 energy evaluations.

Final-Value: -9.344


	FINAL GENETIC ALGORITHM DOCKED STATE
	_______________________________________________


Detailed state:  trans 12.489 -5.208 10.050 quatxyzw -0.390345 -0.539366 -0.664074 0.340178 center 8.287 34.468 -0.670 ntor 10 -178.2862 24.4705 -99.4562 68.7007 163.1642 89.3975 -77.0535 4.8172 -146.4623 -180.0000
State:	 12.489  -5.208  10.050  -0.415 -0.574 -0.706 140.225   -178.29   24.47  -99.46   68.70  163.16   89.40  -77.05    4.82 -146.46 -180.00

DOCKED: MODEL       81
DOCKED: USER    Run = 81
DOCKED: USER    DPF = D:/Protein_go_brrr/autodock/final/mut_N102T/heme_O2/dock.dpf
DOCKED: USER  
DOCKED: USER    Estimated Free Energy of Binding    =   -4.13 kcal/mol  [=(1)+(2)+(3)-(4)]
DOCKED: USER    Estimated Inhibition Constant, Ki   =  938.05 uM (micromolar)  [Temperature = 298.15 K]
DOCKED: USER    
DOCKED: USER    (1) Final Intermolecular Energy     =   -7.11 kcal/mol
DOCKED: USER        vdW + Hbond + desolv Energy     =   -4.94 kcal/mol
DOCKED: USER        Electrostatic Energy            =   -2.17 kcal/mol
DOCKED: USER    (2) Final Total Internal Energy     =   -2.23 kcal/mol
DOCKED: USER    (3) Torsional Free Energy           =   +2.98 kcal/mol
DOCKED: USER    (4) Unbound System's Energy  [=(2)] =   -2.23 kcal/mol
DOCKED: USER    
DOCKED: USER    
DOCKED: USER    NEWDPF move heme_O2_opt.pdbqt
DOCKED: USER    NEWDPF about 8.287000 34.468000 -0.670000
DOCKED: USER    NEWDPF tran0 12.488521 -5.208337 10.049678
DOCKED: USER    NEWDPF quaternion0 -0.390345 -0.539366 -0.664074 0.340178
DOCKED: USER    NEWDPF axisangle0 -0.415101 -0.573573 -0.706191 140.224525
DOCKED: USER    NEWDPF quat0 -0.415101 -0.573573 -0.706191 140.224525
DOCKED: USER    NEWDPF dihe0 -178.29 24.47 -99.46 68.70 163.16 89.40 -77.05 4.82 -146.46 -180.00 
DOCKED: USER  keepresnum = 1 
DOCKED: USER  
DOCKED: REMARK  10 active torsions:
DOCKED: REMARK  status: ('A' for Active; 'I' for Inactive)
DOCKED: REMARK    1  A    between atoms: C_6  and  C_10 
DOCKED: REMARK    2  A    between atoms: C_10  and  C_11 
DOCKED: REMARK    3  A    between atoms: C_11  and  C_12 
DOCKED: REMARK    4  A    between atoms: C_12  and  O_14 
DOCKED: REMARK    5  A    between atoms: C_17  and  C_20 
DOCKED: REMARK    6  A    between atoms: C_24  and  C_27 
DOCKED: REMARK    7  A    between atoms: C_31  and  C_34 
DOCKED: REMARK    8  A    between atoms: C_34  and  C_35 
DOCKED: REMARK    9  A    between atoms: C_35  and  C_36 
DOCKED: REMARK   10  A    between atoms: C_36  and  O_38 
DOCKED: USER                              x       y       z     vdW  Elec       q    Type
DOCKED: USER                           _______ _______ _______ _____ _____    ______ ____
DOCKED: ROOT
DOCKED: ATOM      1  C   UNL d   1      12.629  -7.314  10.267 -0.06 +0.05    +0.064 A 
DOCKED: ATOM      2  C   UNL d   1      15.450  -4.108   8.188 -0.07 +0.04    +0.064 A 
DOCKED: ATOM      3  C   UNL d   1      12.421  -0.559   9.339 -0.23 +0.04    +0.064 C 
DOCKED: ATOM      4  C   UNL d   1       9.747  -3.781  11.896 -0.10 +0.04    +0.064 A 
DOCKED: ATOM      5  C   UNL d   1      13.644  -6.731   9.609 -0.05 +0.05    +0.066 A 
DOCKED: ATOM      6  C   UNL d   1      14.734  -7.426   9.077 -0.02 -0.01    -0.021 A 
DOCKED: ATOM      7  C   UNL d   1      15.573  -6.494   8.513 -0.02 -0.01    -0.025 A 
DOCKED: ATOM      8  C   UNL d   1      14.949  -5.260   8.673 -0.06 +0.05    +0.066 A 
DOCKED: ATOM      9  C   UNL d   1      16.915  -6.804   7.886 -0.00 +0.01    +0.051 C 
DOCKED: ATOM     10  C   UNL d   1      14.830  -2.787   8.304 -0.09 +0.05    +0.066 A 
DOCKED: ATOM     11  C   UNL d   1      15.309  -1.651   7.642 -0.09 -0.01    -0.021 A 
DOCKED: ATOM     12  C   UNL d   1      14.439  -0.621   7.947 -0.14 +0.00    +0.000 A 
DOCKED: ATOM     13  C   UNL d   1      13.463  -1.197   8.807 -0.12 +0.05    +0.070 A 
DOCKED: ATOM     14  C   UNL d   1      16.530  -1.558   6.735 -0.05 +0.01    +0.052 C 
DOCKED: ATOM     15  C   UNL d   1      11.431  -1.097  10.241 -0.20 +0.05    +0.066 A 
DOCKED: ATOM     16  C   UNL d   1      10.460  -0.338  10.893 -0.14 -0.01    -0.021 A 
DOCKED: ATOM     17  C   UNL d   1       9.686  -1.235  11.629 -0.21 +0.00    +0.000 A 
DOCKED: ATOM     18  C   UNL d   1      10.250  -2.492  11.366 -0.14 +0.05    +0.070 A 
DOCKED: ATOM     19  C   UNL d   1      10.392   1.166  10.800 -0.38 +0.02    +0.052 C 
DOCKED: ATOM     20  C   UNL d   1      10.290  -4.998  11.699 -0.10 +0.05    +0.066 A 
DOCKED: ATOM     21  C   UNL d   1       9.761  -6.180  12.210 -0.15 -0.01    -0.025 A 
DOCKED: ATOM     22  C   UNL d   1      10.554  -7.200  11.734 -0.13 -0.01    -0.021 A 
DOCKED: ATOM     23  C   UNL d   1      11.552  -6.599  10.961 -0.09 +0.05    +0.066 A 
DOCKED: ATOM     24  C   UNL d   1       8.562  -6.329  13.111 -0.21 +0.01    +0.051 C 
DOCKED: ATOM     25  N   UNL d   1      13.793  -5.399   9.406 +0.02 -0.31    -0.248 N 
DOCKED: ATOM     26  N   UNL d   1      13.712  -2.514   9.023 +0.02 -0.31    -0.248 N 
DOCKED: ATOM     27  N   UNL d   1      11.353  -2.380  10.583 -0.09 -0.29    -0.248 N 
DOCKED: ATOM     28  N   UNL d   1      11.414  -5.257  10.979 -0.05 -0.30    -0.248 N 
DOCKED: ATOM     29 FE   UNL d   1      12.553  -3.893  10.009 -0.01 +0.00    +0.000 Fe
DOCKED: ATOM     30  O   UNL d   1      13.935  -3.894  10.725 -0.15 +0.00    +0.000 OA
DOCKED: ATOM     31  O   UNL d   1      12.631  -3.566  11.546 -0.08 +0.00    +0.000 OA
DOCKED: ENDROOT
DOCKED: BRANCH   6  32
DOCKED: ATOM     32  C   UNL d   1      15.047  -8.894   9.212 -0.00 +0.01    +0.052 C 
DOCKED: BRANCH  32  33
DOCKED: ATOM     33  C   UNL d   1      15.287  -9.318  10.658 +0.00 +0.02    +0.115 C 
DOCKED: BRANCH  33  34
DOCKED: ATOM     34  C   UNL d   1      14.083  -9.994  11.266 -0.00 +0.03    +0.139 C 
DOCKED: ATOM     35  O   UNL d   1      13.160 -10.343  10.548 +0.02 -0.17    -0.650 OA
DOCKED: BRANCH  34  36
DOCKED: ATOM     36  O   UNL d   1      13.989 -10.198  12.596 +0.02 -0.19    -0.776 OA
DOCKED: ATOM     37  H   UNL d   1      13.237 -10.654  12.991 +0.01 +0.06    +0.167 HD
DOCKED: ENDBRANCH  34  36
DOCKED: ENDBRANCH  33  34
DOCKED: ENDBRANCH  32  33
DOCKED: ENDBRANCH   6  32
DOCKED: BRANCH  22  38
DOCKED: ATOM     38  C   UNL d   1      10.394  -8.663  12.060 -0.12 +0.02    +0.052 C 
DOCKED: BRANCH  38  39
DOCKED: ATOM     39  C   UNL d   1      10.942  -9.015  13.441 -0.11 +0.05    +0.115 C 
DOCKED: BRANCH  39  40
DOCKED: ATOM     40  C   UNL d   1      10.863 -10.492  13.733 -0.14 +0.12    +0.139 C 
DOCKED: ATOM     41  O   UNL d   1      10.307 -10.880  14.747 -0.17 -0.91    -0.650 OA
DOCKED: BRANCH  40  42
DOCKED: ATOM     42  O   UNL d   1      11.352 -11.400  12.866 -0.11 -0.64    -0.776 OA
DOCKED: ATOM     43  H   UNL d   1      12.075 -11.185  12.264 +0.02 +0.08    +0.167 HD
DOCKED: ENDBRANCH  40  42
DOCKED: ENDBRANCH  39  40
DOCKED: ENDBRANCH  38  39
DOCKED: ENDBRANCH  22  38
DOCKED: BRANCH  12  44
DOCKED: ATOM     44  C   UNL d   1      14.626   0.779   7.400 -0.21 +0.00    +0.004 C 
DOCKED: ATOM     45  C   UNL d   1      14.364   1.219   6.170 -0.29 +0.00    +0.012 C 
DOCKED: ENDBRANCH  12  44
DOCKED: BRANCH  17  46
DOCKED: ATOM     46  C   UNL d   1       8.536  -1.006  12.573 -0.27 +0.00    +0.004 C 
DOCKED: ATOM     47  C   UNL d   1       7.341  -0.462  12.306 -0.40 +0.00    +0.012 C 
DOCKED: ENDBRANCH  17  46
DOCKED: TORSDOF 10
DOCKED: TER
DOCKED: ENDMDL
________________________________________________________________________________


	BEGINNING GENETIC ALGORITHM DOCKING 82 of 100
Run: 82 Seed: 1040424210 1833915390 [ Run 82 of 100 GA/GALS ]
Beginning LAMARCKIAN GENETIC ALGORITHM (LGA), with a maximum of 25000000 energy evaluations.

Final-Value: -9.331


	FINAL GENETIC ALGORITHM DOCKED STATE
	_______________________________________________


Detailed state:  trans -11.166 4.939 12.804 quatxyzw 0.626204 -0.509125 -0.572061 0.146311 center 8.287 34.468 -0.670 ntor 10 12.5311 -101.5590 61.4239 109.1397 -127.4863 40.2856 150.7754 -79.0081 20.6315 -28.9854
State:	-11.166   4.939  12.804   0.633 -0.515 -0.578 163.174     12.53 -101.56   61.42  109.14 -127.49   40.29  150.78  -79.01   20.63  -28.99

DOCKED: MODEL       82
DOCKED: USER    Run = 82
DOCKED: USER    DPF = D:/Protein_go_brrr/autodock/final/mut_N102T/heme_O2/dock.dpf
DOCKED: USER  
DOCKED: USER    Estimated Free Energy of Binding    =   -4.66 kcal/mol  [=(1)+(2)+(3)-(4)]
DOCKED: USER    Estimated Inhibition Constant, Ki   =  386.29 uM (micromolar)  [Temperature = 298.15 K]
DOCKED: USER    
DOCKED: USER    (1) Final Intermolecular Energy     =   -7.64 kcal/mol
DOCKED: USER        vdW + Hbond + desolv Energy     =   -7.10 kcal/mol
DOCKED: USER        Electrostatic Energy            =   -0.54 kcal/mol
DOCKED: USER    (2) Final Total Internal Energy     =   -1.69 kcal/mol
DOCKED: USER    (3) Torsional Free Energy           =   +2.98 kcal/mol
DOCKED: USER    (4) Unbound System's Energy  [=(2)] =   -1.69 kcal/mol
DOCKED: USER    
DOCKED: USER    
DOCKED: USER    NEWDPF move heme_O2_opt.pdbqt
DOCKED: USER    NEWDPF about 8.287000 34.468000 -0.670000
DOCKED: USER    NEWDPF tran0 -11.166412 4.938543 12.803745
DOCKED: USER    NEWDPF quaternion0 0.626204 -0.509125 -0.572061 0.146311
DOCKED: USER    NEWDPF axisangle0 0.633016 -0.514663 -0.578284 163.173646
DOCKED: USER    NEWDPF quat0 0.633016 -0.514663 -0.578284 163.173646
DOCKED: USER    NEWDPF dihe0 12.53 -101.56 61.42 109.14 -127.49 40.29 150.78 -79.01 20.63 -28.99 
DOCKED: USER  keepresnum = 1 
DOCKED: USER  
DOCKED: REMARK  10 active torsions:
DOCKED: REMARK  status: ('A' for Active; 'I' for Inactive)
DOCKED: REMARK    1  A    between atoms: C_6  and  C_10 
DOCKED: REMARK    2  A    between atoms: C_10  and  C_11 
DOCKED: REMARK    3  A    between atoms: C_11  and  C_12 
DOCKED: REMARK    4  A    between atoms: C_12  and  O_14 
DOCKED: REMARK    5  A    between atoms: C_17  and  C_20 
DOCKED: REMARK    6  A    between atoms: C_24  and  C_27 
DOCKED: REMARK    7  A    between atoms: C_31  and  C_34 
DOCKED: REMARK    8  A    between atoms: C_34  and  C_35 
DOCKED: REMARK    9  A    between atoms: C_35  and  C_36 
DOCKED: REMARK   10  A    between atoms: C_36  and  O_38 
DOCKED: USER                              x       y       z     vdW  Elec       q    Type
DOCKED: USER                           _______ _______ _______ _____ _____    ______ ____
DOCKED: ROOT
DOCKED: ATOM      1  C   UNL d   1     -10.874   4.941  14.905 -0.08 +0.01    +0.064 A 
DOCKED: ATOM      2  C   UNL d   1     -10.985   8.424  11.677 -0.18 +0.00    +0.064 A 
DOCKED: ATOM      3  C   UNL d   1     -11.705   5.249   8.141 -0.26 -0.00    +0.064 C 
DOCKED: ATOM      4  C   UNL d   1     -12.070   1.702  11.511 -0.20 -0.01    +0.064 A 
DOCKED: ATOM      5  C   UNL d   1     -10.847   6.148  14.315 -0.15 +0.00    +0.066 A 
DOCKED: ATOM      6  C   UNL d   1     -10.633   7.348  14.999 -0.13 -0.00    -0.021 A 
DOCKED: ATOM      7  C   UNL d   1     -10.708   8.361  14.072 -0.14 -0.00    -0.025 A 
DOCKED: ATOM      8  C   UNL d   1     -10.918   7.747  12.840 -0.19 +0.00    +0.066 A 
DOCKED: ATOM      9  C   UNL d   1     -10.610   9.837  14.392 -0.10 -0.00    +0.051 C 
DOCKED: ATOM     10  C   UNL d   1     -11.180   7.834  10.352 -0.22 -0.00    +0.066 A 
DOCKED: ATOM     11  C   UNL d   1     -11.079   8.563   9.162 -0.24 +0.00    -0.021 A 
DOCKED: ATOM     12  C   UNL d   1     -11.265   7.662   8.130 -0.30 -0.00    +0.000 A 
DOCKED: ATOM     13  C   UNL d   1     -11.488   6.408   8.764 -0.27 -0.00    +0.070 A 
DOCKED: ATOM     14  C   UNL d   1     -10.788  10.052   9.015 -0.21 -0.01    +0.052 C 
DOCKED: ATOM     15  C   UNL d   1     -11.969   3.966   8.746 -0.22 -0.00    +0.066 A 
DOCKED: ATOM     16  C   UNL d   1     -12.352   2.824   8.042 -0.22 +0.00    -0.021 A 
DOCKED: ATOM     17  C   UNL d   1     -12.463   1.800   8.983 -0.20 -0.00    +0.000 A 
DOCKED: ATOM     18  C   UNL d   1     -12.133   2.401  10.205 -0.19 -0.01    +0.070 A 
DOCKED: ATOM     19  C   UNL d   1     -12.629   2.826   6.560 -0.20 -0.00    +0.052 C 
DOCKED: ATOM     20  C   UNL d   1     -11.800   2.257  12.708 -0.18 +0.00    +0.066 A 
DOCKED: ATOM     21  C   UNL d   1     -11.737   1.544  13.902 -0.15 -0.00    -0.025 A 
DOCKED: ATOM     22  C   UNL d   1     -11.370   2.446  14.876 -0.14 -0.00    -0.021 A 
DOCKED: ATOM     23  C   UNL d   1     -11.240   3.685  14.240 -0.13 +0.01    +0.066 A 
DOCKED: ATOM     24  C   UNL d   1     -12.016   0.078  14.104 -0.10 +0.00    +0.051 C 
DOCKED: ATOM     25  N   UNL d   1     -11.069   6.389  13.000 -0.14 -0.02    -0.248 N 
DOCKED: ATOM     26  N   UNL d   1     -11.439   6.522  10.115 -0.15 +0.00    -0.248 N 
DOCKED: ATOM     27  N   UNL d   1     -11.910   3.732  10.054 -0.14 +0.02    -0.248 N 
DOCKED: ATOM     28  N   UNL d   1     -11.546   3.574  12.931 -0.11 -0.01    -0.248 N 
DOCKED: ATOM     29 FE   UNL d   1     -11.494   5.035  11.532 -0.06 +0.00    +0.000 Fe
DOCKED: ATOM     30  O   UNL d   1     -12.673   5.996  11.861 -0.12 -0.00    +0.000 OA
DOCKED: ATOM     31  O   UNL d   1     -12.962   4.474  11.573 -0.13 -0.00    +0.000 OA
DOCKED: ENDROOT
DOCKED: BRANCH   6  32
DOCKED: ATOM     32  C   UNL d   1     -10.500   7.552  16.486 -0.06 +0.00    +0.052 C 
DOCKED: BRANCH  32  33
DOCKED: ATOM     33  C   UNL d   1      -9.060   7.798  16.924 -0.08 -0.00    +0.115 C 
DOCKED: BRANCH  33  34
DOCKED: ATOM     34  C   UNL d   1      -8.062   7.080  16.048 -0.21 +0.00    +0.139 C 
DOCKED: ATOM     35  O   UNL d   1      -7.731   7.572  14.982 -0.05 -0.03    -0.650 OA
DOCKED: BRANCH  34  36
DOCKED: ATOM     36  O   UNL d   1      -7.546   5.885  16.404 +0.03 -0.05    -0.776 OA
DOCKED: ATOM     37  H   UNL d   1      -7.917   5.362  17.124 +0.06 +0.01    +0.167 HD
DOCKED: ENDBRANCH  34  36
DOCKED: ENDBRANCH  33  34
DOCKED: ENDBRANCH  32  33
DOCKED: ENDBRANCH   6  32
DOCKED: BRANCH  22  38
DOCKED: ATOM     38  C   UNL d   1     -11.219   2.141  16.344 -0.09 +0.01    +0.052 C 
DOCKED: BRANCH  38  39
DOCKED: ATOM     39  C   UNL d   1      -9.966   1.320  16.641 -0.09 +0.05    +0.115 C 
DOCKED: BRANCH  39  40
DOCKED: ATOM     40  C   UNL d   1      -8.828   2.169  17.152 -0.16 +0.06    +0.139 C 
DOCKED: ATOM     41  O   UNL d   1      -7.735   1.664  17.347 -0.41 -0.46    -0.650 OA
DOCKED: BRANCH  40  42
DOCKED: ATOM     42  O   UNL d   1      -8.982   3.493  17.349 +0.05 -0.14    -0.776 OA
DOCKED: ATOM     43  H   UNL d   1      -8.683   4.138  16.698 +0.05 +0.03    +0.167 HD
DOCKED: ENDBRANCH  40  42
DOCKED: ENDBRANCH  39  40
DOCKED: ENDBRANCH  38  39
DOCKED: ENDBRANCH  22  38
DOCKED: BRANCH  12  44
DOCKED: ATOM     44  C   UNL d   1     -11.217   8.083   6.677 -0.31 -0.00    +0.004 C 
DOCKED: ATOM     45  C   UNL d   1     -12.161   7.931   5.748 -0.21 -0.00    +0.012 C 
DOCKED: ENDBRANCH  12  44
DOCKED: BRANCH  17  46
DOCKED: ATOM     46  C   UNL d   1     -12.896   0.366   8.835 -0.16 -0.00    +0.004 C 
DOCKED: ATOM     47  C   UNL d   1     -12.128  -0.731   8.793 -0.24 -0.00    +0.012 C 
DOCKED: ENDBRANCH  17  46
DOCKED: TORSDOF 10
DOCKED: TER
DOCKED: ENDMDL
________________________________________________________________________________


	BEGINNING GENETIC ALGORITHM DOCKING 83 of 100
Run: 83 Seed: 1690979055 1214084006 [ Run 83 of 100 GA/GALS ]
Beginning LAMARCKIAN GENETIC ALGORITHM (LGA), with a maximum of 25000000 energy evaluations.

Final-Value: -9.151


	FINAL GENETIC ALGORITHM DOCKED STATE
	_______________________________________________


Detailed state:  trans -4.922 15.246 -6.765 quatxyzw 0.602647 0.441044 -0.215730 -0.629093 center 8.287 34.468 -0.670 ntor 10 44.6786 96.5007 124.6754 -105.2117 11.6660 -52.9223 -126.0063 111.4570 169.7847 -166.9700
State:	 -4.922  15.246  -6.765   0.775  0.567 -0.278 -102.034     44.68   96.50  124.68 -105.21   11.67  -52.92 -126.01  111.46  169.78 -166.97

DOCKED: MODEL       83
DOCKED: USER    Run = 83
DOCKED: USER    DPF = D:/Protein_go_brrr/autodock/final/mut_N102T/heme_O2/dock.dpf
DOCKED: USER  
DOCKED: USER    Estimated Free Energy of Binding    =   -4.70 kcal/mol  [=(1)+(2)+(3)-(4)]
DOCKED: USER    Estimated Inhibition Constant, Ki   =  360.06 uM (micromolar)  [Temperature = 298.15 K]
DOCKED: USER    
DOCKED: USER    (1) Final Intermolecular Energy     =   -7.68 kcal/mol
DOCKED: USER        vdW + Hbond + desolv Energy     =   -6.37 kcal/mol
DOCKED: USER        Electrostatic Energy            =   -1.32 kcal/mol
DOCKED: USER    (2) Final Total Internal Energy     =   -1.47 kcal/mol
DOCKED: USER    (3) Torsional Free Energy           =   +2.98 kcal/mol
DOCKED: USER    (4) Unbound System's Energy  [=(2)] =   -1.47 kcal/mol
DOCKED: USER    
DOCKED: USER    
DOCKED: USER    NEWDPF move heme_O2_opt.pdbqt
DOCKED: USER    NEWDPF about 8.287000 34.468000 -0.670000
DOCKED: USER    NEWDPF tran0 -4.922169 15.246406 -6.765495
DOCKED: USER    NEWDPF quaternion0 0.602647 0.441044 -0.215730 -0.629093
DOCKED: USER    NEWDPF axisangle0 0.775277 0.567383 -0.277527 -102.033543
DOCKED: USER    NEWDPF quat0 0.775277 0.567383 -0.277527 -102.033543
DOCKED: USER    NEWDPF dihe0 44.68 96.50 124.68 -105.21 11.67 -52.92 -126.01 111.46 169.78 -166.97 
DOCKED: USER  keepresnum = 1 
DOCKED: USER  
DOCKED: REMARK  10 active torsions:
DOCKED: REMARK  status: ('A' for Active; 'I' for Inactive)
DOCKED: REMARK    1  A    between atoms: C_6  and  C_10 
DOCKED: REMARK    2  A    between atoms: C_10  and  C_11 
DOCKED: REMARK    3  A    between atoms: C_11  and  C_12 
DOCKED: REMARK    4  A    between atoms: C_12  and  O_14 
DOCKED: REMARK    5  A    between atoms: C_17  and  C_20 
DOCKED: REMARK    6  A    between atoms: C_24  and  C_27 
DOCKED: REMARK    7  A    between atoms: C_31  and  C_34 
DOCKED: REMARK    8  A    between atoms: C_34  and  C_35 
DOCKED: REMARK    9  A    between atoms: C_35  and  C_36 
DOCKED: REMARK   10  A    between atoms: C_36  and  O_38 
DOCKED: USER                              x       y       z     vdW  Elec       q    Type
DOCKED: USER                           _______ _______ _______ _____ _____    ______ ____
DOCKED: ROOT
DOCKED: ATOM      1  C   UNL d   1      -5.643  15.627  -4.807 -0.02 +0.01    +0.064 A 
DOCKED: ATOM      2  C   UNL d   1      -6.131  11.925  -7.741 -0.13 -0.00    +0.064 A 
DOCKED: ATOM      3  C   UNL d   1      -3.539  14.146 -11.124 -0.24 -0.01    +0.064 C 
DOCKED: ATOM      4  C   UNL d   1      -2.628  17.762  -7.937 -0.07 +0.00    +0.064 A 
DOCKED: ATOM      5  C   UNL d   1      -5.986  14.438  -5.329 -0.03 +0.00    +0.066 A 
DOCKED: ATOM      6  C   UNL d   1      -6.771  13.490  -4.667 -0.03 -0.00    -0.021 A 
DOCKED: ATOM      7  C   UNL d   1      -6.877  12.400  -5.498 -0.07 -0.00    -0.025 A 
DOCKED: ATOM      8  C   UNL d   1      -6.194  12.731  -6.665 -0.08 +0.00    +0.066 A 
DOCKED: ATOM      9  C   UNL d   1      -7.582  11.108  -5.146 -0.09 +0.00    +0.051 C 
DOCKED: ATOM     10  C   UNL d   1      -5.449  12.227  -9.001 -0.15 -0.00    +0.066 A 
DOCKED: ATOM     11  C   UNL d   1      -5.553  11.426 -10.143 -0.10 +0.00    -0.021 A 
DOCKED: ATOM     12  C   UNL d   1      -4.827  12.059 -11.135 -0.21 -0.00    +0.000 A 
DOCKED: ATOM     13  C   UNL d   1      -4.300  13.230 -10.524 -0.20 -0.01    +0.070 A 
DOCKED: ATOM     14  C   UNL d   1      -6.335  10.125 -10.291 -0.19 -0.00    +0.052 C 
DOCKED: ATOM     15  C   UNL d   1      -2.957  15.326 -10.532 -0.18 -0.00    +0.066 A 
DOCKED: ATOM     16  C   UNL d   1      -2.036  16.157 -11.169 -0.16 +0.00    -0.021 A 
DOCKED: ATOM     17  C   UNL d   1      -1.761  17.195 -10.279 -0.13 -0.00    +0.000 A 
DOCKED: ATOM     18  C   UNL d   1      -2.547  16.916  -9.151 -0.11 +0.00    +0.070 A 
DOCKED: ATOM     19  C   UNL d   1      -1.466  15.861 -12.533 -0.11 +0.00    +0.052 C 
DOCKED: ATOM     20  C   UNL d   1      -3.337  17.501  -6.821 -0.06 +0.00    +0.066 A 
DOCKED: ATOM     21  C   UNL d   1      -3.389  18.345  -5.715 -0.06 -0.00    -0.025 A 
DOCKED: ATOM     22  C   UNL d   1      -4.265  17.766  -4.824 -0.04 -0.00    -0.021 A 
DOCKED: ATOM     23  C   UNL d   1      -4.703  16.577  -5.415 -0.04 +0.00    +0.066 A 
DOCKED: ATOM     24  C   UNL d   1      -2.638  19.636  -5.517 -0.04 -0.00    +0.051 C 
DOCKED: ATOM     25  N   UNL d   1      -5.590  13.961  -6.534 -0.03 -0.01    -0.248 N 
DOCKED: ATOM     26  N   UNL d   1      -4.679  13.322  -9.224 -0.12 +0.01    -0.248 N 
DOCKED: ATOM     27  N   UNL d   1      -3.208  15.739  -9.293 -0.11 -0.00    -0.248 N 
DOCKED: ATOM     28  N   UNL d   1      -4.102  16.397  -6.609 -0.07 -0.02    -0.248 N 
DOCKED: ATOM     29 FE   UNL d   1      -4.387  14.872  -7.909 -0.03 +0.00    +0.000 Fe
DOCKED: ATOM     30  O   UNL d   1      -3.748  13.615  -7.251 -0.37 +0.00    +0.000 OA
DOCKED: ATOM     31  O   UNL d   1      -2.861  14.888  -7.526 -0.60 +0.00    +0.000 OA
DOCKED: ENDROOT
DOCKED: BRANCH   6  32
DOCKED: ATOM     32  C   UNL d   1      -7.290  13.546  -3.253 -0.03 +0.00    +0.052 C 
DOCKED: BRANCH  32  33
DOCKED: ATOM     33  C   UNL d   1      -6.550  12.599  -2.313 -0.07 +0.02    +0.115 C 
DOCKED: BRANCH  33  34
DOCKED: ATOM     34  C   UNL d   1      -5.053  12.774  -2.381 -0.14 +0.05    +0.139 C 
DOCKED: ATOM     35  O   UNL d   1      -4.329  11.792  -2.360 -0.01 -0.29    -0.650 OA
DOCKED: BRANCH  34  36
DOCKED: ATOM     36  O   UNL d   1      -4.490  13.999  -2.435 -0.02 -0.44    -0.776 OA
DOCKED: ATOM     37  H   UNL d   1      -4.778  14.720  -1.863 +0.02 +0.09    +0.167 HD
DOCKED: ENDBRANCH  34  36
DOCKED: ENDBRANCH  33  34
DOCKED: ENDBRANCH  32  33
DOCKED: ENDBRANCH   6  32
DOCKED: BRANCH  22  38
DOCKED: ATOM     38  C   UNL d   1      -4.607  18.299  -3.457 -0.01 +0.00    +0.052 C 
DOCKED: BRANCH  38  39
DOCKED: ATOM     39  C   UNL d   1      -3.408  18.290  -2.512 -0.02 +0.01    +0.115 C 
DOCKED: BRANCH  39  40
DOCKED: ATOM     40  C   UNL d   1      -2.996  16.894  -2.116 -0.08 +0.06    +0.139 C 
DOCKED: ATOM     41  O   UNL d   1      -2.154  16.302  -2.771 -0.58 -0.42    -0.650 OA
DOCKED: BRANCH  40  42
DOCKED: ATOM     42  O   UNL d   1      -3.506  16.304  -1.018 -0.52 -0.49    -0.776 OA
DOCKED: ATOM     43  H   UNL d   1      -4.230  15.670  -1.075 +0.01 +0.11    +0.167 HD
DOCKED: ENDBRANCH  40  42
DOCKED: ENDBRANCH  39  40
DOCKED: ENDBRANCH  38  39
DOCKED: ENDBRANCH  22  38
DOCKED: BRANCH  12  44
DOCKED: ATOM     44  C   UNL d   1      -4.711  11.490 -12.534 -0.37 -0.00    +0.004 C 
DOCKED: ATOM     45  C   UNL d   1      -4.210  10.311 -12.899 -0.49 -0.00    +0.012 C 
DOCKED: ENDBRANCH  12  44
DOCKED: BRANCH  17  46
DOCKED: ATOM     46  C   UNL d   1      -0.807  18.356 -10.378 -0.08 -0.00    +0.004 C 
DOCKED: ATOM     47  C   UNL d   1       0.305  18.578  -9.666 -0.10 -0.00    +0.012 C 
DOCKED: ENDBRANCH  17  46
DOCKED: TORSDOF 10
DOCKED: TER
DOCKED: ENDMDL
________________________________________________________________________________


	BEGINNING GENETIC ALGORITHM DOCKING 84 of 100
Run: 84 Seed: 607571772 833320697 [ Run 84 of 100 GA/GALS ]
Beginning LAMARCKIAN GENETIC ALGORITHM (LGA), with a maximum of 25000000 energy evaluations.

Final-Value: -9.359


	FINAL GENETIC ALGORITHM DOCKED STATE
	_______________________________________________


Detailed state:  trans -3.974 14.045 -12.987 quatxyzw -0.514158 0.763385 0.330161 0.209474 center 8.287 34.468 -0.670 ntor 10 -23.5527 -126.8807 -93.0231 -126.2660 62.4872 -179.9450 -142.0589 81.0647 177.5831 179.8872
State:	 -3.974  14.045 -12.987  -0.526  0.781  0.338 155.817    -23.55 -126.88  -93.02 -126.27   62.49 -179.94 -142.06   81.06  177.58  179.89

DOCKED: MODEL       84
DOCKED: USER    Run = 84
DOCKED: USER    DPF = D:/Protein_go_brrr/autodock/final/mut_N102T/heme_O2/dock.dpf
DOCKED: USER  
DOCKED: USER    Estimated Free Energy of Binding    =   -4.10 kcal/mol  [=(1)+(2)+(3)-(4)]
DOCKED: USER    Estimated Inhibition Constant, Ki   =  984.95 uM (micromolar)  [Temperature = 298.15 K]
DOCKED: USER    
DOCKED: USER    (1) Final Intermolecular Energy     =   -7.08 kcal/mol
DOCKED: USER        vdW + Hbond + desolv Energy     =   -7.10 kcal/mol
DOCKED: USER        Electrostatic Energy            =   +0.02 kcal/mol
DOCKED: USER    (2) Final Total Internal Energy     =   -2.27 kcal/mol
DOCKED: USER    (3) Torsional Free Energy           =   +2.98 kcal/mol
DOCKED: USER    (4) Unbound System's Energy  [=(2)] =   -2.27 kcal/mol
DOCKED: USER    
DOCKED: USER    
DOCKED: USER    NEWDPF move heme_O2_opt.pdbqt
DOCKED: USER    NEWDPF about 8.287000 34.468000 -0.670000
DOCKED: USER    NEWDPF tran0 -3.974127 14.044726 -12.986943
DOCKED: USER    NEWDPF quaternion0 -0.514158 0.763385 0.330161 0.209474
DOCKED: USER    NEWDPF axisangle0 -0.525824 0.780705 0.337652 155.816980
DOCKED: USER    NEWDPF quat0 -0.525824 0.780705 0.337652 155.816980
DOCKED: USER    NEWDPF dihe0 -23.55 -126.88 -93.02 -126.27 62.49 -179.94 -142.06 81.06 177.58 179.89 
DOCKED: USER  keepresnum = 1 
DOCKED: USER  
DOCKED: REMARK  10 active torsions:
DOCKED: REMARK  status: ('A' for Active; 'I' for Inactive)
DOCKED: REMARK    1  A    between atoms: C_6  and  C_10 
DOCKED: REMARK    2  A    between atoms: C_10  and  C_11 
DOCKED: REMARK    3  A    between atoms: C_11  and  C_12 
DOCKED: REMARK    4  A    between atoms: C_12  and  O_14 
DOCKED: REMARK    5  A    between atoms: C_17  and  C_20 
DOCKED: REMARK    6  A    between atoms: C_24  and  C_27 
DOCKED: REMARK    7  A    between atoms: C_31  and  C_34 
DOCKED: REMARK    8  A    between atoms: C_34  and  C_35 
DOCKED: REMARK    9  A    between atoms: C_35  and  C_36 
DOCKED: REMARK   10  A    between atoms: C_36  and  O_38 
DOCKED: USER                              x       y       z     vdW  Elec       q    Type
DOCKED: USER                           _______ _______ _______ _____ _____    ______ ____
DOCKED: ROOT
DOCKED: ATOM      1  C   UNL d   1      -3.119  15.693 -11.962 -0.11 +0.00    +0.064 A 
DOCKED: ATOM      2  C   UNL d   1      -4.250  14.987 -16.520 -0.10 +0.02    +0.064 A 
DOCKED: ATOM      3  C   UNL d   1      -5.779  10.536 -15.548 -0.33 -0.01    +0.064 C 
DOCKED: ATOM      4  C   UNL d   1      -5.064  11.421 -10.776 -0.07 -0.00    +0.064 A 
DOCKED: ATOM      5  C   UNL d   1      -3.303  15.865 -13.281 -0.11 +0.01    +0.066 A 
DOCKED: ATOM      6  C   UNL d   1      -2.960  17.029 -13.974 -0.08 -0.00    -0.021 A 
DOCKED: ATOM      7  C   UNL d   1      -3.327  16.842 -15.286 -0.13 -0.01    -0.025 A 
DOCKED: ATOM      8  C   UNL d   1      -3.840  15.551 -15.367 -0.17 +0.01    +0.066 A 
DOCKED: ATOM      9  C   UNL d   1      -3.205  17.885 -16.376 -0.08 +0.03    +0.051 C 
DOCKED: ATOM     10  C   UNL d   1      -4.776  13.630 -16.672 -0.19 +0.01    +0.066 A 
DOCKED: ATOM     11  C   UNL d   1      -5.033  13.039 -17.914 -0.22 -0.00    -0.021 A 
DOCKED: ATOM     12  C   UNL d   1      -5.458  11.748 -17.655 -0.26 +0.00    +0.000 A 
DOCKED: ATOM     13  C   UNL d   1      -5.447  11.627 -16.238 -0.26 -0.00    +0.070 A 
DOCKED: ATOM     14  C   UNL d   1      -4.855  13.669 -19.290 -0.16 +0.01    +0.052 C 
DOCKED: ATOM     15  C   UNL d   1      -5.815  10.384 -14.113 -0.23 -0.01    +0.066 A 
DOCKED: ATOM     16  C   UNL d   1      -6.329   9.271 -13.449 -0.34 +0.01    -0.021 A 
DOCKED: ATOM     17  C   UNL d   1      -6.136   9.501 -12.087 -0.32 -0.00    +0.000 A 
DOCKED: ATOM     18  C   UNL d   1      -5.510  10.753 -12.021 -0.22 -0.01    +0.070 A 
DOCKED: ATOM     19  C   UNL d   1      -7.000   8.124 -14.163 -0.42 -0.02    +0.052 C 
DOCKED: ATOM     20  C   UNL d   1      -4.499  12.640 -10.674 -0.19 -0.01    +0.066 A 
DOCKED: ATOM     21  C   UNL d   1      -4.084  13.209  -9.474 -0.22 +0.00    -0.025 A 
DOCKED: ATOM     22  C   UNL d   1      -3.502  14.415  -9.795 -0.24 +0.00    -0.021 A 
DOCKED: ATOM     23  C   UNL d   1      -3.601  14.546 -11.184 -0.17 -0.00    +0.066 A 
DOCKED: ATOM     24  C   UNL d   1      -4.237  12.634  -8.090 -0.32 -0.00    +0.051 C 
DOCKED: ATOM     25  N   UNL d   1      -3.886  14.973 -14.120 -0.11 -0.02    -0.248 N 
DOCKED: ATOM     26  N   UNL d   1      -5.035  12.778 -15.648 -0.15 +0.00    -0.248 N 
DOCKED: ATOM     27  N   UNL d   1      -5.391  11.307 -13.255 -0.13 +0.04    -0.248 N 
DOCKED: ATOM     28  N   UNL d   1      -4.248  13.485 -11.709 -0.12 +0.02    -0.248 N 
DOCKED: ATOM     29 FE   UNL d   1      -4.640  13.131 -13.663 -0.04 -0.00    +0.000 Fe
DOCKED: ATOM     30  O   UNL d   1      -5.723  14.168 -14.084 -0.09 +0.00    +0.000 OA
DOCKED: ATOM     31  O   UNL d   1      -6.017  13.165 -12.904 -0.09 -0.00    +0.000 OA
DOCKED: ENDROOT
DOCKED: BRANCH   6  32
DOCKED: ATOM     32  C   UNL d   1      -2.434  18.321 -13.404 -0.03 +0.01    +0.052 C 
DOCKED: BRANCH  32  33
DOCKED: ATOM     33  C   UNL d   1      -3.522  19.377 -13.227 -0.01 +0.01    +0.115 C 
DOCKED: BRANCH  33  34
DOCKED: ATOM     34  C   UNL d   1      -4.844  18.777 -12.816 -0.00 +0.01    +0.139 C 
DOCKED: ATOM     35  O   UNL d   1      -5.630  18.405 -13.673 +0.01 -0.05    -0.650 OA
DOCKED: BRANCH  34  36
DOCKED: ATOM     36  O   UNL d   1      -5.192  18.667 -11.518 +0.01 -0.02    -0.776 OA
DOCKED: ATOM     37  H   UNL d   1      -4.535  18.645 -10.812 +0.01 +0.00    +0.167 HD
DOCKED: ENDBRANCH  34  36
DOCKED: ENDBRANCH  33  34
DOCKED: ENDBRANCH  32  33
DOCKED: ENDBRANCH   6  32
DOCKED: BRANCH  22  38
DOCKED: ATOM     38  C   UNL d   1      -2.943  15.411  -8.812 -0.20 +0.00    +0.052 C 
DOCKED: BRANCH  38  39
DOCKED: ATOM     39  C   UNL d   1      -4.035  16.234  -8.132 -0.10 +0.01    +0.115 C 
DOCKED: BRANCH  39  40
DOCKED: ATOM     40  C   UNL d   1      -4.192  17.602  -8.746 -0.04 +0.00    +0.139 C 
DOCKED: ATOM     41  O   UNL d   1      -3.210  18.197  -9.161 +0.02 +0.00    -0.650 OA
DOCKED: BRANCH  40  42
DOCKED: ATOM     42  O   UNL d   1      -5.407  18.164  -8.893 +0.02 -0.00    -0.776 OA
DOCKED: ATOM     43  H   UNL d   1      -5.724  18.464  -9.753 +0.00 +0.00    +0.167 HD
DOCKED: ENDBRANCH  40  42
DOCKED: ENDBRANCH  39  40
DOCKED: ENDBRANCH  38  39
DOCKED: ENDBRANCH  22  38
DOCKED: BRANCH  12  44
DOCKED: ATOM     44  C   UNL d   1      -5.826  10.786 -18.765 -0.29 +0.00    +0.004 C 
DOCKED: ATOM     45  C   UNL d   1      -5.009  10.028 -19.495 -0.28 +0.00    +0.012 C 
DOCKED: ENDBRANCH  12  44
DOCKED: BRANCH  17  46
DOCKED: ATOM     46  C   UNL d   1      -6.534   8.691 -10.882 -0.25 -0.00    +0.004 C 
DOCKED: ATOM     47  C   UNL d   1      -7.130   9.113  -9.759 -0.26 -0.00    +0.012 C 
DOCKED: ENDBRANCH  17  46
DOCKED: TORSDOF 10
DOCKED: TER
DOCKED: ENDMDL
________________________________________________________________________________


	BEGINNING GENETIC ALGORITHM DOCKING 85 of 100
Run: 85 Seed: 1217267694 392545661 [ Run 85 of 100 GA/GALS ]
Beginning LAMARCKIAN GENETIC ALGORITHM (LGA), with a maximum of 25000000 energy evaluations.

Final-Value: -10.436


	FINAL GENETIC ALGORITHM DOCKED STATE
	_______________________________________________


Detailed state:  trans 12.638 1.556 16.683 quatxyzw -0.374521 0.769110 0.504138 -0.118529 center 8.287 34.468 -0.670 ntor 10 19.5251 139.1727 -51.2140 -68.1717 51.5412 -1.4193 -169.9883 110.4296 180.0000 170.8043
State:	 12.638   1.556  16.683  -0.377  0.775  0.508 -166.386     19.53  139.17  -51.21  -68.17   51.54   -1.42 -169.99  110.43  180.00  170.80

DOCKED: MODEL       85
DOCKED: USER    Run = 85
DOCKED: USER    DPF = D:/Protein_go_brrr/autodock/final/mut_N102T/heme_O2/dock.dpf
DOCKED: USER  
DOCKED: USER    Estimated Free Energy of Binding    =   -5.12 kcal/mol  [=(1)+(2)+(3)-(4)]
DOCKED: USER    Estimated Inhibition Constant, Ki   =  177.25 uM (micromolar)  [Temperature = 298.15 K]
DOCKED: USER    
DOCKED: USER    (1) Final Intermolecular Energy     =   -8.10 kcal/mol
DOCKED: USER        vdW + Hbond + desolv Energy     =   -6.04 kcal/mol
DOCKED: USER        Electrostatic Energy            =   -2.06 kcal/mol
DOCKED: USER    (2) Final Total Internal Energy     =   -2.33 kcal/mol
DOCKED: USER    (3) Torsional Free Energy           =   +2.98 kcal/mol
DOCKED: USER    (4) Unbound System's Energy  [=(2)] =   -2.33 kcal/mol
DOCKED: USER    
DOCKED: USER    
DOCKED: USER    NEWDPF move heme_O2_opt.pdbqt
DOCKED: USER    NEWDPF about 8.287000 34.468000 -0.670000
DOCKED: USER    NEWDPF tran0 12.638371 1.555938 16.682554
DOCKED: USER    NEWDPF quaternion0 -0.374521 0.769110 0.504138 -0.118529
DOCKED: USER    NEWDPF axisangle0 -0.377180 0.774570 0.507717 -166.385550
DOCKED: USER    NEWDPF quat0 -0.377180 0.774570 0.507717 -166.385550
DOCKED: USER    NEWDPF dihe0 19.53 139.17 -51.21 -68.17 51.54 -1.42 -169.99 110.43 180.00 170.80 
DOCKED: USER  keepresnum = 1 
DOCKED: USER  
DOCKED: REMARK  10 active torsions:
DOCKED: REMARK  status: ('A' for Active; 'I' for Inactive)
DOCKED: REMARK    1  A    between atoms: C_6  and  C_10 
DOCKED: REMARK    2  A    between atoms: C_10  and  C_11 
DOCKED: REMARK    3  A    between atoms: C_11  and  C_12 
DOCKED: REMARK    4  A    between atoms: C_12  and  O_14 
DOCKED: REMARK    5  A    between atoms: C_17  and  C_20 
DOCKED: REMARK    6  A    between atoms: C_24  and  C_27 
DOCKED: REMARK    7  A    between atoms: C_31  and  C_34 
DOCKED: REMARK    8  A    between atoms: C_34  and  C_35 
DOCKED: REMARK    9  A    between atoms: C_35  and  C_36 
DOCKED: REMARK   10  A    between atoms: C_36  and  O_38 
DOCKED: USER                              x       y       z     vdW  Elec       q    Type
DOCKED: USER                           _______ _______ _______ _____ _____    ______ ____
DOCKED: ROOT
DOCKED: ATOM      1  C   UNL d   1      13.669   1.845  18.514 -0.03 +0.02    +0.064 A 
DOCKED: ATOM      2  C   UNL d   1      14.029   3.937  14.265 -0.08 +0.04    +0.064 A 
DOCKED: ATOM      3  C   UNL d   1      10.591   1.097  12.473 -0.23 +0.02    +0.064 C 
DOCKED: ATOM      4  C   UNL d   1       9.877  -0.737  16.966 -0.00 +0.02    +0.064 A 
DOCKED: ATOM      5  C   UNL d   1      14.046   2.647  17.505 -0.06 +0.03    +0.066 A 
DOCKED: ATOM      6  C   UNL d   1      15.052   3.613  17.606 -0.05 -0.01    -0.021 A 
DOCKED: ATOM      7  C   UNL d   1      15.127   4.249  16.389 -0.07 -0.01    -0.025 A 
DOCKED: ATOM      8  C   UNL d   1      14.199   3.621  15.563 -0.07 +0.04    +0.066 A 
DOCKED: ATOM      9  C   UNL d   1      16.036   5.418  16.078 -0.06 +0.02    +0.051 C 
DOCKED: ATOM     10  C   UNL d   1      13.088   3.299  13.343 -0.16 +0.03    +0.066 A 
DOCKED: ATOM     11  C   UNL d   1      13.068   3.553  11.967 -0.25 -0.01    -0.021 A 
DOCKED: ATOM     12  C   UNL d   1      12.095   2.730  11.430 -0.34 +0.00    +0.000 A 
DOCKED: ATOM     13  C   UNL d   1      11.557   2.014  12.535 -0.24 +0.02    +0.070 A 
DOCKED: ATOM     14  C   UNL d   1      13.957   4.519  11.193 -0.28 +0.01    +0.052 C 
DOCKED: ATOM     15  C   UNL d   1       9.995   0.376  13.571 -0.14 +0.02    +0.066 A 
DOCKED: ATOM     16  C   UNL d   1       8.877  -0.449  13.461 -0.22 -0.00    -0.021 A 
DOCKED: ATOM     17  C   UNL d   1       8.654  -0.983  14.730 -0.16 +0.00    +0.000 A 
DOCKED: ATOM     18  C   UNL d   1       9.668  -0.437  15.530 -0.05 +0.02    +0.070 A 
DOCKED: ATOM     19  C   UNL d   1       8.096  -0.610  12.181 -0.31 +0.01    +0.052 C 
DOCKED: ATOM     20  C   UNL d   1      10.813  -0.198  17.773 -0.07 +0.02    +0.066 A 
DOCKED: ATOM     21  C   UNL d   1      10.973  -0.534  19.114 -0.05 -0.00    -0.025 A 
DOCKED: ATOM     22  C   UNL d   1      12.066   0.172  19.564 -0.03 -0.00    -0.021 A 
DOCKED: ATOM     23  C   UNL d   1      12.523   0.929  18.481 -0.04 +0.02    +0.066 A 
DOCKED: ATOM     24  C   UNL d   1      10.124  -1.477  19.926 -0.03 +0.01    +0.051 C 
DOCKED: ATOM     25  N   UNL d   1      13.488   2.679  16.270 -0.08 -0.15    -0.248 N 
DOCKED: ATOM     26  N   UNL d   1      12.164   2.370  13.696 -0.14 -0.10    -0.248 N 
DOCKED: ATOM     27  N   UNL d   1      10.426   0.443  14.828 -0.11 -0.08    -0.248 N 
DOCKED: ATOM     28  N   UNL d   1      11.731   0.735  17.406 -0.06 -0.09    -0.248 N 
DOCKED: ATOM     29 FE   UNL d   1      11.943   1.545  15.564 -0.03 +0.00    +0.000 Fe
DOCKED: ATOM     30  O   UNL d   1      11.598   3.056  15.710 -0.49 +0.00    +0.000 OA
DOCKED: ATOM     31  O   UNL d   1      10.528   1.968  16.105 -0.36 +0.00    +0.000 OA
DOCKED: ENDROOT
DOCKED: BRANCH   6  32
DOCKED: ATOM     32  C   UNL d   1      15.820   4.020  18.837 -0.02 +0.02    +0.052 C 
DOCKED: BRANCH  32  33
DOCKED: ATOM     33  C   UNL d   1      15.233   5.250  19.522 -0.03 +0.05    +0.115 C 
DOCKED: BRANCH  33  34
DOCKED: ATOM     34  C   UNL d   1      13.913   5.668  18.922 +0.13 +0.15    +0.139 C 
DOCKED: ATOM     35  O   UNL d   1      13.879   6.584  18.116 -0.35 -0.93    -0.650 OA
DOCKED: BRANCH  34  36
DOCKED: ATOM     36  O   UNL d   1      12.758   5.068  19.278 -0.19 -1.12    -0.776 OA
DOCKED: ATOM     37  H   UNL d   1      12.673   4.568  20.098 +0.02 +0.12    +0.167 HD
DOCKED: ENDBRANCH  34  36
DOCKED: ENDBRANCH  33  34
DOCKED: ENDBRANCH  32  33
DOCKED: ENDBRANCH   6  32
DOCKED: BRANCH  22  38
DOCKED: ATOM     38  C   UNL d   1      12.596   0.165  20.975 -0.01 +0.01    +0.052 C 
DOCKED: BRANCH  38  39
DOCKED: ATOM     39  C   UNL d   1      11.913   1.206  21.859 -0.01 +0.01    +0.115 C 
DOCKED: BRANCH  39  40
DOCKED: ATOM     40  C   UNL d   1      12.308   2.616  21.498 -0.01 +0.03    +0.139 C 
DOCKED: ATOM     41  O   UNL d   1      11.480   3.511  21.559 +0.03 -0.17    -0.650 OA
DOCKED: BRANCH  40  42
DOCKED: ATOM     42  O   UNL d   1      13.576   2.919  21.158 +0.03 -0.18    -0.776 OA
DOCKED: ATOM     43  H   UNL d   1      13.773   3.557  20.462 +0.01 +0.06    +0.167 HD
DOCKED: ENDBRANCH  40  42
DOCKED: ENDBRANCH  39  40
DOCKED: ENDBRANCH  38  39
DOCKED: ENDBRANCH  22  38
DOCKED: BRANCH  12  44
DOCKED: ATOM     44  C   UNL d   1      11.783   2.715   9.948 -0.48 +0.00    +0.004 C 
DOCKED: ATOM     45  C   UNL d   1      11.790   1.671   9.120 -0.44 +0.00    +0.012 C 
DOCKED: ENDBRANCH  12  44
DOCKED: BRANCH  17  46
DOCKED: ATOM     46  C   UNL d   1       7.566  -1.888  15.245 -0.17 +0.00    +0.004 C 
DOCKED: ATOM     47  C   UNL d   1       6.292  -1.578  15.520 -0.27 -0.00    +0.012 C 
DOCKED: ENDBRANCH  17  46
DOCKED: TORSDOF 10
DOCKED: TER
DOCKED: ENDMDL
________________________________________________________________________________


	BEGINNING GENETIC ALGORITHM DOCKING 86 of 100
Run: 86 Seed: 1054866343 863702014 [ Run 86 of 100 GA/GALS ]
Beginning LAMARCKIAN GENETIC ALGORITHM (LGA), with a maximum of 25000000 energy evaluations.

Final-Value: -9.438


	FINAL GENETIC ALGORITHM DOCKED STATE
	_______________________________________________


Detailed state:  trans 15.818 -1.648 7.962 quatxyzw 0.528611 -0.345760 -0.708092 0.315636 center 8.287 34.468 -0.670 ntor 10 -146.7917 -39.9637 121.6506 -41.2358 75.6298 -51.8145 -124.8007 -147.5183 180.0000 147.5530
State:	 15.818  -1.648   7.962   0.557 -0.364 -0.746 143.202   -146.79  -39.96  121.65  -41.24   75.63  -51.81 -124.80 -147.52  180.00  147.55

DOCKED: MODEL       86
DOCKED: USER    Run = 86
DOCKED: USER    DPF = D:/Protein_go_brrr/autodock/final/mut_N102T/heme_O2/dock.dpf
DOCKED: USER  
DOCKED: USER    Estimated Free Energy of Binding    =   -4.11 kcal/mol  [=(1)+(2)+(3)-(4)]
DOCKED: USER    Estimated Inhibition Constant, Ki   =  972.24 uM (micromolar)  [Temperature = 298.15 K]
DOCKED: USER    
DOCKED: USER    (1) Final Intermolecular Energy     =   -7.09 kcal/mol
DOCKED: USER        vdW + Hbond + desolv Energy     =   -4.69 kcal/mol
DOCKED: USER        Electrostatic Energy            =   -2.40 kcal/mol
DOCKED: USER    (2) Final Total Internal Energy     =   -2.35 kcal/mol
DOCKED: USER    (3) Torsional Free Energy           =   +2.98 kcal/mol
DOCKED: USER    (4) Unbound System's Energy  [=(2)] =   -2.35 kcal/mol
DOCKED: USER    
DOCKED: USER    
DOCKED: USER    NEWDPF move heme_O2_opt.pdbqt
DOCKED: USER    NEWDPF about 8.287000 34.468000 -0.670000
DOCKED: USER    NEWDPF tran0 15.818095 -1.647615 7.962349
DOCKED: USER    NEWDPF quaternion0 0.528611 -0.345760 -0.708092 0.315636
DOCKED: USER    NEWDPF axisangle0 0.557089 -0.364387 -0.746240 143.201570
DOCKED: USER    NEWDPF quat0 0.557089 -0.364387 -0.746240 143.201570
DOCKED: USER    NEWDPF dihe0 -146.79 -39.96 121.65 -41.24 75.63 -51.81 -124.80 -147.52 180.00 147.55 
DOCKED: USER  keepresnum = 1 
DOCKED: USER  
DOCKED: REMARK  10 active torsions:
DOCKED: REMARK  status: ('A' for Active; 'I' for Inactive)
DOCKED: REMARK    1  A    between atoms: C_6  and  C_10 
DOCKED: REMARK    2  A    between atoms: C_10  and  C_11 
DOCKED: REMARK    3  A    between atoms: C_11  and  C_12 
DOCKED: REMARK    4  A    between atoms: C_12  and  O_14 
DOCKED: REMARK    5  A    between atoms: C_17  and  C_20 
DOCKED: REMARK    6  A    between atoms: C_24  and  C_27 
DOCKED: REMARK    7  A    between atoms: C_31  and  C_34 
DOCKED: REMARK    8  A    between atoms: C_34  and  C_35 
DOCKED: REMARK    9  A    between atoms: C_35  and  C_36 
DOCKED: REMARK   10  A    between atoms: C_36  and  O_38 
DOCKED: USER                              x       y       z     vdW  Elec       q    Type
DOCKED: USER                           _______ _______ _______ _____ _____    ______ ____
DOCKED: ROOT
DOCKED: ATOM      1  C   UNL d   1      16.206  -2.797   9.703 -0.01 +0.02    +0.064 A 
DOCKED: ATOM      2  C   UNL d   1      16.171   1.883   8.890 -0.04 +0.01    +0.064 A 
DOCKED: ATOM      3  C   UNL d   1      15.089   1.165   4.263 -0.28 +0.02    +0.064 C 
DOCKED: ATOM      4  C   UNL d   1      14.651  -3.632   5.194 -0.12 +0.03    +0.064 A 
DOCKED: ATOM      5  C   UNL d   1      16.283  -1.465   9.860 -0.01 +0.02    +0.066 A 
DOCKED: ATOM      6  C   UNL d   1      16.604  -0.837  11.066 +0.00 -0.00    -0.021 A 
DOCKED: ATOM      7  C   UNL d   1      16.552   0.519  10.843 -0.01 -0.00    -0.025 A 
DOCKED: ATOM      8  C   UNL d   1      16.248   0.681   9.494 -0.02 +0.01    +0.066 A 
DOCKED: ATOM      9  C   UNL d   1      16.759   1.580  11.902 -0.01 +0.01    +0.051 C 
DOCKED: ATOM     10  C   UNL d   1      15.878   2.114   7.475 -0.09 +0.01    +0.066 A 
DOCKED: ATOM     11  C   UNL d   1      15.973   3.370   6.865 -0.11 -0.00    -0.021 A 
DOCKED: ATOM     12  C   UNL d   1      15.682   3.181   5.527 -0.20 +0.00    +0.000 A 
DOCKED: ATOM     13  C   UNL d   1      15.409   1.791   5.396 -0.20 +0.01    +0.070 A 
DOCKED: ATOM     14  C   UNL d   1      16.351   4.691   7.526 -0.04 +0.01    +0.052 C 
DOCKED: ATOM     15  C   UNL d   1      14.771  -0.233   4.095 -0.24 +0.02    +0.066 A 
DOCKED: ATOM     16  C   UNL d   1      14.284  -0.796   2.916 -0.26 -0.00    -0.021 A 
DOCKED: ATOM     17  C   UNL d   1      14.151  -2.163   3.158 -0.21 +0.00    +0.000 A 
DOCKED: ATOM     18  C   UNL d   1      14.574  -2.334   4.483 -0.15 +0.02    +0.070 A 
DOCKED: ATOM     19  C   UNL d   1      13.941   0.020   1.695 -0.29 +0.01    +0.052 C 
DOCKED: ATOM     20  C   UNL d   1      15.011  -3.826   6.478 -0.09 +0.04    +0.066 A 
DOCKED: ATOM     21  C   UNL d   1      15.082  -5.075   7.088 -0.08 -0.01    -0.025 A 
DOCKED: ATOM     22  C   UNL d   1      15.549  -4.859   8.365 -0.05 -0.01    -0.021 A 
DOCKED: ATOM     23  C   UNL d   1      15.729  -3.478   8.493 -0.05 +0.03    +0.066 A 
DOCKED: ATOM     24  C   UNL d   1      14.719  -6.407   6.485 -0.07 +0.02    +0.051 C 
DOCKED: ATOM     25  N   UNL d   1      16.018  -0.541   8.904 -0.01 -0.06    -0.248 N 
DOCKED: ATOM     26  N   UNL d   1      15.526   1.151   6.586 -0.07 -0.05    -0.248 N 
DOCKED: ATOM     27  N   UNL d   1      14.875  -1.142   5.060 -0.11 -0.07    -0.248 N 
DOCKED: ATOM     28  N   UNL d   1      15.358  -2.850   7.359 -0.07 -0.13    -0.248 N 
DOCKED: ATOM     29 FE   UNL d   1      15.440  -0.865   6.973 -0.02 +0.00    +0.000 Fe
DOCKED: ATOM     30  O   UNL d   1      14.341  -0.204   7.855 -0.18 +0.00    +0.000 OA
DOCKED: ATOM     31  O   UNL d   1      13.942  -1.315   6.811 -0.22 +0.00    +0.000 OA
DOCKED: ENDROOT
DOCKED: BRANCH   6  32
DOCKED: ATOM     32  C   UNL d   1      16.817  -1.478  12.413 +0.00 +0.01    +0.052 C 
DOCKED: BRANCH  32  33
DOCKED: ATOM     33  C   UNL d   1      15.566  -1.452  13.286 +0.01 +0.02    +0.115 C 
DOCKED: BRANCH  33  34
DOCKED: ATOM     34  C   UNL d   1      14.363  -2.032  12.584 +0.00 +0.04    +0.139 C 
DOCKED: ATOM     35  O   UNL d   1      13.797  -1.382  11.721 +0.03 -0.24    -0.650 OA
DOCKED: BRANCH  34  36
DOCKED: ATOM     36  O   UNL d   1      13.878  -3.248  12.909 +0.02 -0.25    -0.776 OA
DOCKED: ATOM     37  H   UNL d   1      13.477  -3.831  12.253 +0.01 +0.08    +0.167 HD
DOCKED: ENDBRANCH  34  36
DOCKED: ENDBRANCH  33  34
DOCKED: ENDBRANCH  32  33
DOCKED: ENDBRANCH   6  32
DOCKED: BRANCH  22  38
DOCKED: ATOM     38  C   UNL d   1      15.747  -5.918   9.419 -0.02 +0.02    +0.052 C 
DOCKED: BRANCH  38  39
DOCKED: ATOM     39  C   UNL d   1      14.742  -5.796  10.562 -0.03 +0.06    +0.115 C 
DOCKED: BRANCH  39  40
DOCKED: ATOM     40  C   UNL d   1      13.414  -5.245  10.106 +0.06 +0.17    +0.139 C 
DOCKED: ATOM     41  O   UNL d   1      12.522  -6.009   9.775 +0.05 -1.10    -0.650 OA
DOCKED: BRANCH  40  42
DOCKED: ATOM     42  O   UNL d   1      13.175  -3.919  10.105 -0.32 -1.29    -0.776 OA
DOCKED: ATOM     43  H   UNL d   1      13.516  -3.344  10.801 +0.01 +0.14    +0.167 HD
DOCKED: ENDBRANCH  40  42
DOCKED: ENDBRANCH  39  40
DOCKED: ENDBRANCH  38  39
DOCKED: ENDBRANCH  22  38
DOCKED: BRANCH  12  44
DOCKED: ATOM     44  C   UNL d   1      15.691   4.323   4.533 -0.26 +0.00    +0.004 C 
DOCKED: ATOM     45  C   UNL d   1      14.913   5.405   4.522 -0.29 +0.00    +0.012 C 
DOCKED: ENDBRANCH  12  44
DOCKED: BRANCH  17  46
DOCKED: ATOM     46  C   UNL d   1      13.620  -3.273   2.290 -0.27 +0.00    +0.004 C 
DOCKED: ATOM     47  C   UNL d   1      12.485  -3.299   1.580 -0.40 -0.00    +0.012 C 
DOCKED: ENDBRANCH  17  46
DOCKED: TORSDOF 10
DOCKED: TER
DOCKED: ENDMDL
________________________________________________________________________________


	BEGINNING GENETIC ALGORITHM DOCKING 87 of 100
Run: 87 Seed: 92152506 1131705404 [ Run 87 of 100 GA/GALS ]
Beginning LAMARCKIAN GENETIC ALGORITHM (LGA), with a maximum of 25000000 energy evaluations.

Final-Value: -10.200


	FINAL GENETIC ALGORITHM DOCKED STATE
	_______________________________________________


Detailed state:  trans 4.118 14.829 -12.402 quatxyzw -0.433173 0.267071 -0.276829 -0.815107 center 8.287 34.468 -0.670 ntor 10 153.8887 -90.2852 -18.2852 -29.4804 16.9291 179.9881 -89.3015 46.2051 -172.2240 178.7847
State:	  4.118  14.829 -12.402  -0.748  0.461 -0.478 -70.804    153.89  -90.29  -18.29  -29.48   16.93  179.99  -89.30   46.21 -172.22  178.78

DOCKED: MODEL       87
DOCKED: USER    Run = 87
DOCKED: USER    DPF = D:/Protein_go_brrr/autodock/final/mut_N102T/heme_O2/dock.dpf
DOCKED: USER  
DOCKED: USER    Estimated Free Energy of Binding    =   -4.83 kcal/mol  [=(1)+(2)+(3)-(4)]
DOCKED: USER    Estimated Inhibition Constant, Ki   =  288.07 uM (micromolar)  [Temperature = 298.15 K]
DOCKED: USER    
DOCKED: USER    (1) Final Intermolecular Energy     =   -7.81 kcal/mol
DOCKED: USER        vdW + Hbond + desolv Energy     =   -7.40 kcal/mol
DOCKED: USER        Electrostatic Energy            =   -0.42 kcal/mol
DOCKED: USER    (2) Final Total Internal Energy     =   -2.39 kcal/mol
DOCKED: USER    (3) Torsional Free Energy           =   +2.98 kcal/mol
DOCKED: USER    (4) Unbound System's Energy  [=(2)] =   -2.39 kcal/mol
DOCKED: USER    
DOCKED: USER    
DOCKED: USER    NEWDPF move heme_O2_opt.pdbqt
DOCKED: USER    NEWDPF about 8.287000 34.468000 -0.670000
DOCKED: USER    NEWDPF tran0 4.117911 14.829223 -12.401524
DOCKED: USER    NEWDPF quaternion0 -0.433173 0.267071 -0.276829 -0.815107
DOCKED: USER    NEWDPF axisangle0 -0.747739 0.461016 -0.477860 -70.804044
DOCKED: USER    NEWDPF quat0 -0.747739 0.461016 -0.477860 -70.804044
DOCKED: USER    NEWDPF dihe0 153.89 -90.29 -18.29 -29.48 16.93 179.99 -89.30 46.21 -172.22 178.78 
DOCKED: USER  keepresnum = 1 
DOCKED: USER  
DOCKED: REMARK  10 active torsions:
DOCKED: REMARK  status: ('A' for Active; 'I' for Inactive)
DOCKED: REMARK    1  A    between atoms: C_6  and  C_10 
DOCKED: REMARK    2  A    between atoms: C_10  and  C_11 
DOCKED: REMARK    3  A    between atoms: C_11  and  C_12 
DOCKED: REMARK    4  A    between atoms: C_12  and  O_14 
DOCKED: REMARK    5  A    between atoms: C_17  and  C_20 
DOCKED: REMARK    6  A    between atoms: C_24  and  C_27 
DOCKED: REMARK    7  A    between atoms: C_31  and  C_34 
DOCKED: REMARK    8  A    between atoms: C_34  and  C_35 
DOCKED: REMARK    9  A    between atoms: C_35  and  C_36 
DOCKED: REMARK   10  A    between atoms: C_36  and  O_38 
DOCKED: USER                              x       y       z     vdW  Elec       q    Type
DOCKED: USER                           _______ _______ _______ _____ _____    ______ ____
DOCKED: ROOT
DOCKED: ATOM      1  C   UNL d   1       2.394  15.943 -12.936 -0.20 -0.01    +0.064 A 
DOCKED: ATOM      2  C   UNL d   1       5.124  15.925  -9.049 -0.17 -0.02    +0.064 A 
DOCKED: ATOM      3  C   UNL d   1       7.898  12.465 -10.902 -0.24 -0.02    +0.064 C 
DOCKED: ATOM      4  C   UNL d   1       5.383  12.810 -15.100 -0.25 -0.05    +0.064 A 
DOCKED: ATOM      5  C   UNL d   1       2.911  16.222 -11.728 -0.17 -0.02    +0.066 A 
DOCKED: ATOM      6  C   UNL d   1       2.376  17.165 -10.846 -0.13 +0.00    -0.021 A 
DOCKED: ATOM      7  C   UNL d   1       3.191  17.192  -9.739 -0.14 +0.01    -0.025 A 
DOCKED: ATOM      8  C   UNL d   1       4.174  16.229  -9.954 -0.18 -0.02    +0.066 A 
DOCKED: ATOM      9  C   UNL d   1       3.024  18.129  -8.563 -0.12 -0.01    +0.051 C 
DOCKED: ATOM     10  C   UNL d   1       6.166  14.910  -9.209 -0.21 -0.03    +0.066 A 
DOCKED: ATOM     11  C   UNL d   1       7.026  14.520  -8.176 -0.17 +0.01    -0.021 A 
DOCKED: ATOM     12  C   UNL d   1       7.821  13.511  -8.685 -0.17 -0.00    +0.000 A 
DOCKED: ATOM     13  C   UNL d   1       7.401  13.346 -10.034 -0.20 -0.03    +0.070 A 
DOCKED: ATOM     14  C   UNL d   1       7.068  15.069  -6.754 -0.17 -0.05    +0.052 C 
DOCKED: ATOM     15  C   UNL d   1       7.524  12.291 -12.285 -0.21 -0.02    +0.066 A 
DOCKED: ATOM     16  C   UNL d   1       8.194  11.465 -13.187 -0.22 +0.01    -0.021 A 
DOCKED: ATOM     17  C   UNL d   1       7.495  11.548 -14.391 -0.26 -0.00    +0.000 A 
DOCKED: ATOM     18  C   UNL d   1       6.436  12.429 -14.130 -0.26 -0.04    +0.070 A 
DOCKED: ATOM     19  C   UNL d   1       9.459  10.721 -12.838 -0.25 -0.01    +0.052 C 
DOCKED: ATOM     20  C   UNL d   1       4.379  13.685 -14.896 -0.28 -0.03    +0.066 A 
DOCKED: ATOM     21  C   UNL d   1       3.406  13.991 -15.843 -0.29 +0.01    -0.025 A 
DOCKED: ATOM     22  C   UNL d   1       2.530  14.861 -15.234 -0.28 +0.00    -0.021 A 
DOCKED: ATOM     23  C   UNL d   1       3.013  15.069 -13.939 -0.25 -0.01    +0.066 A 
DOCKED: ATOM     24  C   UNL d   1       3.318  13.481 -17.258 -0.34 -0.02    +0.051 C 
DOCKED: ATOM     25  N   UNL d   1       4.038  15.678 -11.207 -0.13 +0.09    -0.248 N 
DOCKED: ATOM     26  N   UNL d   1       6.397  14.205 -10.346 -0.13 +0.11    -0.248 N 
DOCKED: ATOM     27  N   UNL d   1       6.513  12.928 -12.870 -0.12 +0.11    -0.248 N 
DOCKED: ATOM     28  N   UNL d   1       4.162  14.387 -13.752 -0.16 +0.10    -0.248 N 
DOCKED: ATOM     29 FE   UNL d   1       5.273  14.295 -12.063 -0.05 -0.00    +0.000 Fe
DOCKED: ATOM     30  O   UNL d   1       5.924  15.698 -11.893 -0.12 -0.00    +0.000 OA
DOCKED: ATOM     31  O   UNL d   1       6.194  14.865 -13.203 -0.13 -0.00    +0.000 OA
DOCKED: ENDROOT
DOCKED: BRANCH   6  32
DOCKED: ATOM     32  C   UNL d   1       1.225  18.106 -11.088 -0.07 -0.01    +0.052 C 
DOCKED: BRANCH  32  33
DOCKED: ATOM     33  C   UNL d   1       1.660  19.426 -11.718 -0.01 -0.01    +0.115 C 
DOCKED: BRANCH  33  34
DOCKED: ATOM     34  C   UNL d   1       1.679  19.365 -13.225 -0.01 +0.00    +0.139 C 
DOCKED: ATOM     35  O   UNL d   1       2.638  19.812 -13.835 +0.01 -0.01    -0.650 OA
DOCKED: BRANCH  34  36
DOCKED: ATOM     36  O   UNL d   1       0.645  18.851 -13.922 +0.04 -0.06    -0.776 OA
DOCKED: ATOM     37  H   UNL d   1       0.459  19.116 -14.830 +0.02 +0.02    +0.167 HD
DOCKED: ENDBRANCH  34  36
DOCKED: ENDBRANCH  33  34
DOCKED: ENDBRANCH  32  33
DOCKED: ENDBRANCH   6  32
DOCKED: BRANCH  22  38
DOCKED: ATOM     38  C   UNL d   1       1.334  15.504 -15.888 -0.25 +0.01    +0.052 C 
DOCKED: BRANCH  38  39
DOCKED: ATOM     39  C   UNL d   1       1.718  16.695 -16.762 -0.16 +0.03    +0.115 C 
DOCKED: BRANCH  39  40
DOCKED: ATOM     40  C   UNL d   1       0.815  17.884 -16.546 -0.11 +0.05    +0.139 C 
DOCKED: ATOM     41  O   UNL d   1      -0.371  17.710 -16.316 -0.04 -0.31    -0.650 OA
DOCKED: BRANCH  40  42
DOCKED: ATOM     42  O   UNL d   1       1.304  19.139 -16.552 +0.03 -0.22    -0.776 OA
DOCKED: ATOM     43  H   UNL d   1       1.651  19.549 -15.750 +0.01 +0.03    +0.167 HD
DOCKED: ENDBRANCH  40  42
DOCKED: ENDBRANCH  39  40
DOCKED: ENDBRANCH  38  39
DOCKED: ENDBRANCH  22  38
DOCKED: BRANCH  12  44
DOCKED: ATOM     44  C   UNL d   1       8.882  12.824  -7.850 -0.10 -0.00    +0.004 C 
DOCKED: ATOM     45  C   UNL d   1       9.416  11.617  -8.036 -0.35 -0.01    +0.012 C 
DOCKED: ENDBRANCH  12  44
DOCKED: BRANCH  17  46
DOCKED: ATOM     46  C   UNL d   1       7.769  10.931 -15.737 -0.18 -0.00    +0.004 C 
DOCKED: ATOM     47  C   UNL d   1       8.953  10.719 -16.326 -0.24 -0.00    +0.012 C 
DOCKED: ENDBRANCH  17  46
DOCKED: TORSDOF 10
DOCKED: TER
DOCKED: ENDMDL
________________________________________________________________________________


	BEGINNING GENETIC ALGORITHM DOCKING 88 of 100
Run: 88 Seed: 1260050428 391508476 [ Run 88 of 100 GA/GALS ]
Beginning LAMARCKIAN GENETIC ALGORITHM (LGA), with a maximum of 25000000 energy evaluations.

Final-Value: -8.914


	FINAL GENETIC ALGORITHM DOCKED STATE
	_______________________________________________


Detailed state:  trans -9.484 -16.458 2.741 quatxyzw 0.083875 0.681336 -0.638981 0.347059 center 8.287 34.468 -0.670 ntor 10 -39.6107 63.0896 -49.5074 123.4953 172.8345 119.5501 1.0864 51.5555 -180.0000 -178.3437
State:	 -9.484 -16.458   2.741   0.089  0.726 -0.681 139.385    -39.61   63.09  -49.51  123.50  172.83  119.55    1.09   51.56 -180.00 -178.34

DOCKED: MODEL       88
DOCKED: USER    Run = 88
DOCKED: USER    DPF = D:/Protein_go_brrr/autodock/final/mut_N102T/heme_O2/dock.dpf
DOCKED: USER  
DOCKED: USER    Estimated Free Energy of Binding    =   -5.59 kcal/mol  [=(1)+(2)+(3)-(4)]
DOCKED: USER    Estimated Inhibition Constant, Ki   =   80.31 uM (micromolar)  [Temperature = 298.15 K]
DOCKED: USER    
DOCKED: USER    (1) Final Intermolecular Energy     =   -8.57 kcal/mol
DOCKED: USER        vdW + Hbond + desolv Energy     =   -5.32 kcal/mol
DOCKED: USER        Electrostatic Energy            =   -3.25 kcal/mol
DOCKED: USER    (2) Final Total Internal Energy     =   -0.34 kcal/mol
DOCKED: USER    (3) Torsional Free Energy           =   +2.98 kcal/mol
DOCKED: USER    (4) Unbound System's Energy  [=(2)] =   -0.34 kcal/mol
DOCKED: USER    
DOCKED: USER    
DOCKED: USER    NEWDPF move heme_O2_opt.pdbqt
DOCKED: USER    NEWDPF about 8.287000 34.468000 -0.670000
DOCKED: USER    NEWDPF tran0 -9.484233 -16.457710 2.741057
DOCKED: USER    NEWDPF quaternion0 0.083875 0.681336 -0.638981 0.347059
DOCKED: USER    NEWDPF axisangle0 0.089434 0.726493 -0.681330 139.384967
DOCKED: USER    NEWDPF quat0 0.089434 0.726493 -0.681330 139.384967
DOCKED: USER    NEWDPF dihe0 -39.61 63.09 -49.51 123.50 172.83 119.55 1.09 51.56 -180.00 -178.34 
DOCKED: USER  keepresnum = 1 
DOCKED: USER  
DOCKED: REMARK  10 active torsions:
DOCKED: REMARK  status: ('A' for Active; 'I' for Inactive)
DOCKED: REMARK    1  A    between atoms: C_6  and  C_10 
DOCKED: REMARK    2  A    between atoms: C_10  and  C_11 
DOCKED: REMARK    3  A    between atoms: C_11  and  C_12 
DOCKED: REMARK    4  A    between atoms: C_12  and  O_14 
DOCKED: REMARK    5  A    between atoms: C_17  and  C_20 
DOCKED: REMARK    6  A    between atoms: C_24  and  C_27 
DOCKED: REMARK    7  A    between atoms: C_31  and  C_34 
DOCKED: REMARK    8  A    between atoms: C_34  and  C_35 
DOCKED: REMARK    9  A    between atoms: C_35  and  C_36 
DOCKED: REMARK   10  A    between atoms: C_36  and  O_38 
DOCKED: USER                              x       y       z     vdW  Elec       q    Type
DOCKED: USER                           _______ _______ _______ _____ _____    ______ ____
DOCKED: ROOT
DOCKED: ATOM      1  C   UNL d   1      -7.825 -16.749   1.452 -0.18 +0.01    +0.064 A 
DOCKED: ATOM      2  C   UNL d   1      -9.953 -19.567   4.628 -0.10 -0.04    +0.064 A 
DOCKED: ATOM      3  C   UNL d   1     -13.070 -16.090   5.763 -0.13 -0.01    +0.064 C 
DOCKED: ATOM      4  C   UNL d   1     -11.192 -13.342   2.158 -0.11 -0.01    +0.064 A 
DOCKED: ATOM      5  C   UNL d   1      -8.151 -17.800   2.222 -0.16 +0.00    +0.066 A 
DOCKED: ATOM      6  C   UNL d   1      -7.465 -19.018   2.215 -0.17 -0.00    -0.021 A 
DOCKED: ATOM      7  C   UNL d   1      -8.106 -19.849   3.103 -0.12 +0.01    -0.025 A 
DOCKED: ATOM      8  C   UNL d   1      -9.138 -19.100   3.663 -0.11 -0.03    +0.066 A 
DOCKED: ATOM      9  C   UNL d   1      -7.740 -21.295   3.354 -0.07 -0.01    +0.051 C 
DOCKED: ATOM     10  C   UNL d   1     -11.037 -18.822   5.270 -0.09 -0.04    +0.066 A 
DOCKED: ATOM     11  C   UNL d   1     -11.746 -19.297   6.379 -0.11 +0.01    -0.021 A 
DOCKED: ATOM     12  C   UNL d   1     -12.638 -18.300   6.732 -0.11 -0.00    +0.000 A 
DOCKED: ATOM     13  C   UNL d   1     -12.425 -17.256   5.790 -0.14 -0.02    +0.070 A 
DOCKED: ATOM     14  C   UNL d   1     -11.562 -20.633   7.088 -0.07 -0.03    +0.052 C 
DOCKED: ATOM     15  C   UNL d   1     -12.909 -15.022   4.806 -0.12 -0.01    +0.066 A 
DOCKED: ATOM     16  C   UNL d   1     -13.729 -13.896   4.733 -0.08 +0.00    -0.021 A 
DOCKED: ATOM     17  C   UNL d   1     -13.213 -13.098   3.712 -0.09 -0.00    +0.000 A 
DOCKED: ATOM     18  C   UNL d   1     -12.102 -13.806   3.233 -0.11 -0.01    +0.070 A 
DOCKED: ATOM     19  C   UNL d   1     -14.950 -13.709   5.598 -0.03 -0.01    +0.052 C 
DOCKED: ATOM     20  C   UNL d   1     -10.143 -14.015   1.646 -0.11 -0.00    +0.066 A 
DOCKED: ATOM     21  C   UNL d   1      -9.311 -13.519   0.646 -0.14 -0.00    -0.025 A 
DOCKED: ATOM     22  C   UNL d   1      -8.330 -14.465   0.451 -0.16 -0.00    -0.021 A 
DOCKED: ATOM     23  C   UNL d   1      -8.611 -15.516   1.330 -0.13 +0.01    +0.066 A 
DOCKED: ATOM     24  C   UNL d   1      -9.448 -12.211  -0.089 -0.15 +0.00    +0.051 C 
DOCKED: ATOM     25  N   UNL d   1      -9.205 -17.860   3.072 -0.09 +0.04    -0.248 N 
DOCKED: ATOM     26  N   UNL d   1     -11.453 -17.583   4.901 -0.10 +0.08    -0.248 N 
DOCKED: ATOM     27  N   UNL d   1     -11.977 -15.005   3.857 -0.13 +0.05    -0.248 N 
DOCKED: ATOM     28  N   UNL d   1      -9.740 -15.258   2.022 -0.03 +0.01    -0.248 N 
DOCKED: ATOM     29 FE   UNL d   1     -10.592 -16.410   3.451 -0.05 -0.00    +0.000 Fe
DOCKED: ATOM     30  O   UNL d   1     -11.170 -17.656   2.718 -0.10 -0.00    +0.000 OA
DOCKED: ATOM     31  O   UNL d   1     -11.654 -16.214   2.308 -0.10 -0.00    +0.000 OA
DOCKED: ENDROOT
DOCKED: BRANCH   6  32
DOCKED: ATOM     32  C   UNL d   1      -6.334 -19.435   1.311 -0.15 +0.03    +0.052 C 
DOCKED: BRANCH  32  33
DOCKED: ATOM     33  C   UNL d   1      -6.806 -20.242   0.106 -0.11 +0.07    +0.115 C 
DOCKED: BRANCH  33  34
DOCKED: ATOM     34  C   UNL d   1      -5.669 -20.632  -0.807 -0.10 +0.16    +0.139 C 
DOCKED: ATOM     35  O   UNL d   1      -4.530 -20.663  -0.371 -0.72 -0.86    -0.650 OA
DOCKED: BRANCH  34  36
DOCKED: ATOM     36  O   UNL d   1      -5.880 -20.921  -2.108 -0.04 -0.78    -0.776 OA
DOCKED: ATOM     37  H   UNL d   1      -6.650 -21.420  -2.402 +0.01 +0.10    +0.167 HD
DOCKED: ENDBRANCH  34  36
DOCKED: ENDBRANCH  33  34
DOCKED: ENDBRANCH  32  33
DOCKED: ENDBRANCH   6  32
DOCKED: BRANCH  22  38
DOCKED: ATOM     38  C   UNL d   1      -7.225 -14.386  -0.570 -0.26 +0.02    +0.052 C 
DOCKED: BRANCH  38  39
DOCKED: ATOM     39  C   UNL d   1      -7.714 -14.699  -1.983 -0.13 +0.07    +0.115 C 
DOCKED: BRANCH  39  40
DOCKED: ATOM     40  C   UNL d   1      -6.859 -15.732  -2.674 -0.00 +0.17    +0.139 C 
DOCKED: ATOM     41  O   UNL d   1      -5.963 -15.375  -3.421 +0.09 -0.93    -0.650 OA
DOCKED: BRANCH  40  42
DOCKED: ATOM     42  O   UNL d   1      -7.033 -17.047  -2.441 -0.40 -1.47    -0.776 OA
DOCKED: ATOM     43  H   UNL d   1      -7.842 -17.503  -2.700 +0.02 +0.17    +0.167 HD
DOCKED: ENDBRANCH  40  42
DOCKED: ENDBRANCH  39  40
DOCKED: ENDBRANCH  38  39
DOCKED: ENDBRANCH  22  38
DOCKED: BRANCH  12  44
DOCKED: ATOM     44  C   UNL d   1     -13.583 -18.447   7.906 -0.04 -0.00    +0.004 C 
DOCKED: ATOM     45  C   UNL d   1     -13.739 -17.621   8.940 -0.04 -0.00    +0.012 C 
DOCKED: ENDBRANCH  12  44
DOCKED: BRANCH  17  46
DOCKED: ATOM     46  C   UNL d   1     -13.700 -11.797   3.132 -0.04 -0.00    +0.004 C 
DOCKED: ATOM     47  C   UNL d   1     -13.087 -10.606   3.139 -0.04 -0.00    +0.012 C 
DOCKED: ENDBRANCH  17  46
DOCKED: TORSDOF 10
DOCKED: TER
DOCKED: ENDMDL
________________________________________________________________________________


	BEGINNING GENETIC ALGORITHM DOCKING 89 of 100
Run: 89 Seed: 1929035181 490534262 [ Run 89 of 100 GA/GALS ]
Beginning LAMARCKIAN GENETIC ALGORITHM (LGA), with a maximum of 25000000 energy evaluations.

Final-Value: -10.000


	FINAL GENETIC ALGORITHM DOCKED STATE
	_______________________________________________


Detailed state:  trans 14.656 11.814 5.605 quatxyzw 0.533092 -0.558042 -0.049877 -0.633968 center 8.287 34.468 -0.670 ntor 10 89.5878 85.0440 -57.6456 -69.3167 -92.4350 129.5625 90.0543 116.2909 -6.7147 174.5286
State:	 14.656  11.814   5.605   0.689 -0.722 -0.064 -101.313     89.59   85.04  -57.65  -69.32  -92.44  129.56   90.05  116.29   -6.71  174.53

DOCKED: MODEL       89
DOCKED: USER    Run = 89
DOCKED: USER    DPF = D:/Protein_go_brrr/autodock/final/mut_N102T/heme_O2/dock.dpf
DOCKED: USER  
DOCKED: USER    Estimated Free Energy of Binding    =   -5.73 kcal/mol  [=(1)+(2)+(3)-(4)]
DOCKED: USER    Estimated Inhibition Constant, Ki   =   63.46 uM (micromolar)  [Temperature = 298.15 K]
DOCKED: USER    
DOCKED: USER    (1) Final Intermolecular Energy     =   -8.71 kcal/mol
DOCKED: USER        vdW + Hbond + desolv Energy     =   -6.95 kcal/mol
DOCKED: USER        Electrostatic Energy            =   -1.76 kcal/mol
DOCKED: USER    (2) Final Total Internal Energy     =   -1.29 kcal/mol
DOCKED: USER    (3) Torsional Free Energy           =   +2.98 kcal/mol
DOCKED: USER    (4) Unbound System's Energy  [=(2)] =   -1.29 kcal/mol
DOCKED: USER    
DOCKED: USER    
DOCKED: USER    NEWDPF move heme_O2_opt.pdbqt
DOCKED: USER    NEWDPF about 8.287000 34.468000 -0.670000
DOCKED: USER    NEWDPF tran0 14.655500 11.814338 5.605094
DOCKED: USER    NEWDPF quaternion0 0.533092 -0.558042 -0.049877 -0.633968
DOCKED: USER    NEWDPF axisangle0 0.689319 -0.721581 -0.064494 -101.313046
DOCKED: USER    NEWDPF quat0 0.689319 -0.721581 -0.064494 -101.313046
DOCKED: USER    NEWDPF dihe0 89.59 85.04 -57.65 -69.32 -92.44 129.56 90.05 116.29 -6.71 174.53 
DOCKED: USER  keepresnum = 1 
DOCKED: USER  
DOCKED: REMARK  10 active torsions:
DOCKED: REMARK  status: ('A' for Active; 'I' for Inactive)
DOCKED: REMARK    1  A    between atoms: C_6  and  C_10 
DOCKED: REMARK    2  A    between atoms: C_10  and  C_11 
DOCKED: REMARK    3  A    between atoms: C_11  and  C_12 
DOCKED: REMARK    4  A    between atoms: C_12  and  O_14 
DOCKED: REMARK    5  A    between atoms: C_17  and  C_20 
DOCKED: REMARK    6  A    between atoms: C_24  and  C_27 
DOCKED: REMARK    7  A    between atoms: C_31  and  C_34 
DOCKED: REMARK    8  A    between atoms: C_34  and  C_35 
DOCKED: REMARK    9  A    between atoms: C_35  and  C_36 
DOCKED: REMARK   10  A    between atoms: C_36  and  O_38 
DOCKED: USER                              x       y       z     vdW  Elec       q    Type
DOCKED: USER                           _______ _______ _______ _____ _____    ______ ____
DOCKED: ROOT
DOCKED: ATOM      1  C   UNL d   1      14.248  13.798   4.975 -0.10 +0.04    +0.064 A 
DOCKED: ATOM      2  C   UNL d   1      13.315   9.562   3.040 -0.23 +0.01    +0.064 A 
DOCKED: ATOM      3  C   UNL d   1      15.482   7.313   6.693 -0.21 +0.01    +0.064 C 
DOCKED: ATOM      4  C   UNL d   1      16.027  11.645   8.930 -0.06 +0.01    +0.064 A 
DOCKED: ATOM      5  C   UNL d   1      13.816  12.829   4.151 -0.10 +0.04    +0.066 A 
DOCKED: ATOM      6  C   UNL d   1      13.149  13.066   2.946 -0.11 -0.01    -0.021 A 
DOCKED: ATOM      7  C   UNL d   1      12.840  11.840   2.406 -0.16 -0.01    -0.025 A 
DOCKED: ATOM      8  C   UNL d   1      13.370  10.888   3.273 -0.13 +0.02    +0.066 A 
DOCKED: ATOM      9  C   UNL d   1      12.047  11.629   1.135 -0.25 +0.01    +0.051 C 
DOCKED: ATOM     10  C   UNL d   1      13.872   8.517   3.900 -0.26 +0.01    +0.066 A 
DOCKED: ATOM     11  C   UNL d   1      13.933   7.168   3.531 -0.40 -0.00    -0.021 A 
DOCKED: ATOM     12  C   UNL d   1      14.571   6.506   4.564 -0.31 +0.00    +0.000 A 
DOCKED: ATOM     13  C   UNL d   1      14.859   7.509   5.531 -0.22 +0.01    +0.070 A 
DOCKED: ATOM     14  C   UNL d   1      13.428   6.542   2.237 -0.27 -0.01    +0.052 C 
DOCKED: ATOM     15  C   UNL d   1      15.761   8.295   7.714 -0.18 +0.01    +0.066 A 
DOCKED: ATOM     16  C   UNL d   1      16.269   7.997   8.978 -0.16 -0.00    -0.021 A 
DOCKED: ATOM     17  C   UNL d   1      16.432   9.217   9.634 -0.10 +0.00    +0.000 A 
DOCKED: ATOM     18  C   UNL d   1      16.007  10.180   8.708 -0.07 +0.01    +0.070 A 
DOCKED: ATOM     19  C   UNL d   1      16.499   6.588   9.461 -0.13 +0.01    +0.052 C 
DOCKED: ATOM     20  C   UNL d   1      15.587  12.594   8.080 -0.10 +0.01    +0.066 A 
DOCKED: ATOM     21  C   UNL d   1      15.647  13.961   8.337 -0.07 -0.00    -0.025 A 
DOCKED: ATOM     22  C   UNL d   1      15.170  14.591   7.210 -0.06 -0.01    -0.021 A 
DOCKED: ATOM     23  C   UNL d   1      14.817  13.580   6.310 -0.10 +0.03    +0.066 A 
DOCKED: ATOM     24  C   UNL d   1      16.133  14.631   9.596 -0.05 +0.01    +0.051 C 
DOCKED: ATOM     25  N   UNL d   1      13.913  11.497   4.380 -0.10 -0.10    -0.248 N 
DOCKED: ATOM     26  N   UNL d   1      14.426   8.728   5.121 -0.16 -0.03    -0.248 N 
DOCKED: ATOM     27  N   UNL d   1      15.533   9.598   7.577 -0.12 -0.04    -0.248 N 
DOCKED: ATOM     28  N   UNL d   1      15.030  12.367   6.860 -0.08 -0.07    -0.248 N 
DOCKED: ATOM     29 FE   UNL d   1      14.731  10.560   5.999 -0.04 +0.00    +0.000 Fe
DOCKED: ATOM     30  O   UNL d   1      13.189  10.383   5.884 -0.30 +0.00    +0.000 OA
DOCKED: ATOM     31  O   UNL d   1      13.845  10.617   7.297 -0.38 +0.00    +0.000 OA
DOCKED: ENDROOT
DOCKED: BRANCH   6  32
DOCKED: ATOM     32  C   UNL d   1      12.695  14.390   2.387 -0.09 +0.04    +0.052 C 
DOCKED: BRANCH  32  33
DOCKED: ATOM     33  C   UNL d   1      13.836  15.197   1.775 -0.02 +0.03    +0.115 C 
DOCKED: BRANCH  33  34
DOCKED: ATOM     34  C   UNL d   1      14.468  16.142   2.767 -0.01 +0.03    +0.139 C 
DOCKED: ATOM     35  O   UNL d   1      15.638  15.992   3.082 +0.01 -0.09    -0.650 OA
DOCKED: BRANCH  34  36
DOCKED: ATOM     36  O   UNL d   1      13.761  17.138   3.339 +0.02 -0.21    -0.776 OA
DOCKED: ATOM     37  H   UNL d   1      13.281  17.014   4.166 +0.01 +0.07    +0.167 HD
DOCKED: ENDBRANCH  34  36
DOCKED: ENDBRANCH  33  34
DOCKED: ENDBRANCH  32  33
DOCKED: ENDBRANCH   6  32
DOCKED: BRANCH  22  38
DOCKED: ATOM     38  C   UNL d   1      15.004  16.079   7.039 -0.03 +0.01    +0.052 C 
DOCKED: BRANCH  38  39
DOCKED: ATOM     39  C   UNL d   1      13.691  16.589   7.628 -0.06 +0.03    +0.115 C 
DOCKED: BRANCH  39  40
DOCKED: ATOM     40  C   UNL d   1      12.484  16.040   6.909 -0.08 +0.12    +0.139 C 
DOCKED: ATOM     41  O   UNL d   1      12.067  16.602   5.909 +0.01 -0.67    -0.650 OA
DOCKED: BRANCH  40  42
DOCKED: ATOM     42  O   UNL d   1      11.885  14.906   7.321 -0.44 -1.16    -0.776 OA
DOCKED: ATOM     43  H   UNL d   1      11.189  14.917   7.989 -0.50 +0.11    +0.167 HD
DOCKED: ENDBRANCH  40  42
DOCKED: ENDBRANCH  39  40
DOCKED: ENDBRANCH  38  39
DOCKED: ENDBRANCH  22  38
DOCKED: BRANCH  12  44
DOCKED: ATOM     44  C   UNL d   1      14.830   5.015   4.524 -0.26 +0.00    +0.004 C 
DOCKED: ATOM     45  C   UNL d   1      16.006   4.388   4.537 -0.24 +0.00    +0.012 C 
DOCKED: ENDBRANCH  12  44
DOCKED: BRANCH  17  46
DOCKED: ATOM     46  C   UNL d   1      16.884   9.533  11.035 -0.12 +0.00    +0.004 C 
DOCKED: ATOM     47  C   UNL d   1      16.193   9.413  12.176 -0.14 +0.00    +0.012 C 
DOCKED: ENDBRANCH  17  46
DOCKED: TORSDOF 10
DOCKED: TER
DOCKED: ENDMDL
________________________________________________________________________________


	BEGINNING GENETIC ALGORITHM DOCKING 90 of 100
Run: 90 Seed: 647222251 650141875 [ Run 90 of 100 GA/GALS ]
Beginning LAMARCKIAN GENETIC ALGORITHM (LGA), with a maximum of 25000000 energy evaluations.

Final-Value: -10.956


	FINAL GENETIC ALGORITHM DOCKED STATE
	_______________________________________________


Detailed state:  trans 7.920 -1.511 16.334 quatxyzw -0.017771 -0.791018 -0.235324 -0.564444 center 8.287 34.468 -0.670 ntor 10 28.1049 -50.4060 122.9567 -104.4058 -124.8059 -39.9974 -58.1337 -83.7510 -18.3823 128.7132
State:	  7.920  -1.511  16.334  -0.022 -0.958 -0.285 -111.273     28.10  -50.41  122.96 -104.41 -124.81  -40.00  -58.13  -83.75  -18.38  128.71

DOCKED: MODEL       90
DOCKED: USER    Run = 90
DOCKED: USER    DPF = D:/Protein_go_brrr/autodock/final/mut_N102T/heme_O2/dock.dpf
DOCKED: USER  
DOCKED: USER    Estimated Free Energy of Binding    =   -7.33 kcal/mol  [=(1)+(2)+(3)-(4)]
DOCKED: USER    Estimated Inhibition Constant, Ki   =    4.22 uM (micromolar)  [Temperature = 298.15 K]
DOCKED: USER    
DOCKED: USER    (1) Final Intermolecular Energy     =  -10.32 kcal/mol
DOCKED: USER        vdW + Hbond + desolv Energy     =   -7.55 kcal/mol
DOCKED: USER        Electrostatic Energy            =   -2.76 kcal/mol
DOCKED: USER    (2) Final Total Internal Energy     =   -0.64 kcal/mol
DOCKED: USER    (3) Torsional Free Energy           =   +2.98 kcal/mol
DOCKED: USER    (4) Unbound System's Energy  [=(2)] =   -0.64 kcal/mol
DOCKED: USER    
DOCKED: USER    
DOCKED: USER    NEWDPF move heme_O2_opt.pdbqt
DOCKED: USER    NEWDPF about 8.287000 34.468000 -0.670000
DOCKED: USER    NEWDPF tran0 7.920039 -1.510525 16.333669
DOCKED: USER    NEWDPF quaternion0 -0.017771 -0.791018 -0.235324 -0.564444
DOCKED: USER    NEWDPF axisangle0 -0.021528 -0.958263 -0.285078 -111.272558
DOCKED: USER    NEWDPF quat0 -0.021528 -0.958263 -0.285078 -111.272558
DOCKED: USER    NEWDPF dihe0 28.10 -50.41 122.96 -104.41 -124.81 -40.00 -58.13 -83.75 -18.38 128.71 
DOCKED: USER  keepresnum = 1 
DOCKED: USER  
DOCKED: REMARK  10 active torsions:
DOCKED: REMARK  status: ('A' for Active; 'I' for Inactive)
DOCKED: REMARK    1  A    between atoms: C_6  and  C_10 
DOCKED: REMARK    2  A    between atoms: C_10  and  C_11 
DOCKED: REMARK    3  A    between atoms: C_11  and  C_12 
DOCKED: REMARK    4  A    between atoms: C_12  and  O_14 
DOCKED: REMARK    5  A    between atoms: C_17  and  C_20 
DOCKED: REMARK    6  A    between atoms: C_24  and  C_27 
DOCKED: REMARK    7  A    between atoms: C_31  and  C_34 
DOCKED: REMARK    8  A    between atoms: C_34  and  C_35 
DOCKED: REMARK    9  A    between atoms: C_35  and  C_36 
DOCKED: REMARK   10  A    between atoms: C_36  and  O_38 
DOCKED: USER                              x       y       z     vdW  Elec       q    Type
DOCKED: USER                           _______ _______ _______ _____ _____    ______ ____
DOCKED: ROOT
DOCKED: ATOM      1  C   UNL d   1       9.482  -0.845  15.062 -0.10 +0.02    +0.064 A 
DOCKED: ATOM      2  C   UNL d   1       4.976  -2.093  14.226 -0.18 -0.01    +0.064 A 
DOCKED: ATOM      3  C   UNL d   1       4.289  -3.079  18.879 -0.08 -0.01    +0.064 C 
DOCKED: ATOM      4  C   UNL d   1       8.779  -1.343  19.826 -0.05 +0.01    +0.064 A 
DOCKED: ATOM      5  C   UNL d   1       8.312  -1.102  14.455 -0.16 +0.01    +0.066 A 
DOCKED: ATOM      6  C   UNL d   1       8.096  -0.966  13.081 -0.23 -0.00    -0.021 A 
DOCKED: ATOM      7  C   UNL d   1       6.779  -1.285  12.844 -0.31 -0.00    -0.025 A 
DOCKED: ATOM      8  C   UNL d   1       6.240  -1.655  14.073 -0.24 -0.00    +0.066 A 
DOCKED: ATOM      9  C   UNL d   1       6.097  -1.199  11.496 -0.33 +0.00    +0.051 C 
DOCKED: ATOM     10  C   UNL d   1       4.362  -2.516  15.485 -0.23 -0.01    +0.066 A 
DOCKED: ATOM     11  C   UNL d   1       3.100  -3.117  15.562 -0.37 +0.00    -0.021 A 
DOCKED: ATOM     12  C   UNL d   1       2.891  -3.425  16.894 -0.29 -0.00    +0.000 A 
DOCKED: ATOM     13  C   UNL d   1       4.059  -2.974  17.571 -0.13 -0.01    +0.070 A 
DOCKED: ATOM     14  C   UNL d   1       2.145  -3.409  14.411 -0.49 -0.01    +0.052 C 
DOCKED: ATOM     15  C   UNL d   1       5.441  -2.604  19.607 -0.03 -0.01    +0.066 A 
DOCKED: ATOM     16  C   UNL d   1       5.550  -2.597  20.997 -0.02 +0.00    -0.021 A 
DOCKED: ATOM     17  C   UNL d   1       6.822  -2.105  21.291 -0.02 -0.00    +0.000 A 
DOCKED: ATOM     18  C   UNL d   1       7.402  -1.847  20.041 -0.04 -0.00    +0.070 A 
DOCKED: ATOM     19  C   UNL d   1       4.422  -3.003  21.913 -0.02 -0.01    +0.052 C 
DOCKED: ATOM     20  C   UNL d   1       9.351  -1.045  18.643 -0.04 +0.01    +0.066 A 
DOCKED: ATOM     21  C   UNL d   1      10.659  -0.589  18.502 -0.06 -0.01    -0.025 A 
DOCKED: ATOM     22  C   UNL d   1      10.886  -0.468  17.150 -0.08 -0.01    -0.021 A 
DOCKED: ATOM     23  C   UNL d   1       9.697  -0.838  16.514 +0.00 +0.02    +0.066 A 
DOCKED: ATOM     24  C   UNL d   1      11.641  -0.282  19.603 -0.03 +0.01    +0.051 C 
DOCKED: ATOM     25  N   UNL d   1       7.167  -1.479  15.075 -0.11 -0.02    -0.248 N 
DOCKED: ATOM     26  N   UNL d   1       4.946  -2.418  16.707 -0.09 +0.03    -0.248 N 
DOCKED: ATOM     27  N   UNL d   1       6.523  -2.085  19.034 -0.03 +0.01    -0.248 N 
DOCKED: ATOM     28  N   UNL d   1       8.752  -1.144  17.427 -0.06 -0.07    -0.248 N 
DOCKED: ATOM     29 FE   UNL d   1       6.862  -1.777  17.072 -0.03 +0.00    +0.000 Fe
DOCKED: ATOM     30  O   UNL d   1       6.095  -0.552  16.495 -0.35 -0.00    +0.000 OA
DOCKED: ATOM     31  O   UNL d   1       6.766  -0.454  17.917 -0.18 +0.00    +0.000 OA
DOCKED: ENDROOT
DOCKED: BRANCH   6  32
DOCKED: ATOM     32  C   UNL d   1       9.048  -0.424  12.046 -0.27 +0.01    +0.052 C 
DOCKED: BRANCH  32  33
DOCKED: ATOM     33  C   UNL d   1      10.283  -1.300  11.861 -0.15 +0.05    +0.115 C 
DOCKED: BRANCH  33  34
DOCKED: ATOM     34  C   UNL d   1      10.411  -1.824  10.453 -0.19 +0.13    +0.139 C 
DOCKED: ATOM     35  O   UNL d   1      10.937  -1.132   9.596 -0.44 -0.63    -0.650 OA
DOCKED: BRANCH  34  36
DOCKED: ATOM     36  O   UNL d   1       9.930  -3.037  10.107 -0.39 -1.23    -0.776 OA
DOCKED: ATOM     37  H   UNL d   1       9.178  -3.436  10.560 +0.04 +0.16    +0.167 HD
DOCKED: ENDBRANCH  34  36
DOCKED: ENDBRANCH  33  34
DOCKED: ENDBRANCH  32  33
DOCKED: ENDBRANCH   6  32
DOCKED: BRANCH  22  38
DOCKED: ATOM     38  C   UNL d   1      12.155   0.037  16.514 -0.06 +0.01    +0.052 C 
DOCKED: BRANCH  38  39
DOCKED: ATOM     39  C   UNL d   1      11.893   1.136  15.485 -0.13 +0.04    +0.115 C 
DOCKED: BRANCH  39  40
DOCKED: ATOM     40  C   UNL d   1      12.032   2.519  16.071 -0.19 +0.11    +0.139 C 
DOCKED: ATOM     41  O   UNL d   1      13.023   3.186  15.821 +0.01 -0.55    -0.650 OA
DOCKED: BRANCH  40  42
DOCKED: ATOM     42  O   UNL d   1      11.055   3.055  16.828 -0.49 -0.95    -0.776 OA
DOCKED: ATOM     43  H   UNL d   1      10.132   3.033  16.550 -0.19 +0.14    +0.167 HD
DOCKED: ENDBRANCH  40  42
DOCKED: ENDBRANCH  39  40
DOCKED: ENDBRANCH  38  39
DOCKED: ENDBRANCH  22  38
DOCKED: BRANCH  12  44
DOCKED: ATOM     44  C   UNL d   1       1.624  -4.101  17.374 -0.32 -0.00    +0.004 C 
DOCKED: ATOM     45  C   UNL d   1       0.373  -3.649  17.291 -0.39 -0.00    +0.012 C 
DOCKED: ENDBRANCH  12  44
DOCKED: BRANCH  17  46
DOCKED: ATOM     46  C   UNL d   1       7.489  -1.814  22.609 -0.01 -0.00    +0.004 C 
DOCKED: ATOM     47  C   UNL d   1       7.818  -0.623  23.125 -0.02 -0.00    +0.012 C 
DOCKED: ENDBRANCH  17  46
DOCKED: TORSDOF 10
DOCKED: TER
DOCKED: ENDMDL
________________________________________________________________________________


	BEGINNING GENETIC ALGORITHM DOCKING 91 of 100
Run: 91 Seed: 1912325463 977147274 [ Run 91 of 100 GA/GALS ]
Beginning LAMARCKIAN GENETIC ALGORITHM (LGA), with a maximum of 25000000 energy evaluations.

Final-Value: -10.784


	FINAL GENETIC ALGORITHM DOCKED STATE
	_______________________________________________


Detailed state:  trans 14.482 3.031 8.190 quatxyzw -0.696778 -0.454655 -0.489742 0.260657 center 8.287 34.468 -0.670 ntor 10 -107.1153 -60.8542 18.7628 24.2042 -4.3536 -149.4771 -57.5018 31.5948 -178.1739 145.1989
State:	 14.482   3.031   8.190  -0.722 -0.471 -0.507 149.782   -107.12  -60.85   18.76   24.20   -4.35 -149.48  -57.50   31.59 -178.17  145.20

DOCKED: MODEL       91
DOCKED: USER    Run = 91
DOCKED: USER    DPF = D:/Protein_go_brrr/autodock/final/mut_N102T/heme_O2/dock.dpf
DOCKED: USER  
DOCKED: USER    Estimated Free Energy of Binding    =   -5.66 kcal/mol  [=(1)+(2)+(3)-(4)]
DOCKED: USER    Estimated Inhibition Constant, Ki   =   71.29 uM (micromolar)  [Temperature = 298.15 K]
DOCKED: USER    
DOCKED: USER    (1) Final Intermolecular Energy     =   -8.64 kcal/mol
DOCKED: USER        vdW + Hbond + desolv Energy     =   -6.26 kcal/mol
DOCKED: USER        Electrostatic Energy            =   -2.38 kcal/mol
DOCKED: USER    (2) Final Total Internal Energy     =   -2.14 kcal/mol
DOCKED: USER    (3) Torsional Free Energy           =   +2.98 kcal/mol
DOCKED: USER    (4) Unbound System's Energy  [=(2)] =   -2.14 kcal/mol
DOCKED: USER    
DOCKED: USER    
DOCKED: USER    NEWDPF move heme_O2_opt.pdbqt
DOCKED: USER    NEWDPF about 8.287000 34.468000 -0.670000
DOCKED: USER    NEWDPF tran0 14.482194 3.031326 8.189598
DOCKED: USER    NEWDPF quaternion0 -0.696778 -0.454655 -0.489742 0.260657
DOCKED: USER    NEWDPF axisangle0 -0.721727 -0.470934 -0.507278 149.781861
DOCKED: USER    NEWDPF quat0 -0.721727 -0.470934 -0.507278 149.781861
DOCKED: USER    NEWDPF dihe0 -107.12 -60.85 18.76 24.20 -4.35 -149.48 -57.50 31.59 -178.17 145.20 
DOCKED: USER  keepresnum = 1 
DOCKED: USER  
DOCKED: REMARK  10 active torsions:
DOCKED: REMARK  status: ('A' for Active; 'I' for Inactive)
DOCKED: REMARK    1  A    between atoms: C_6  and  C_10 
DOCKED: REMARK    2  A    between atoms: C_10  and  C_11 
DOCKED: REMARK    3  A    between atoms: C_11  and  C_12 
DOCKED: REMARK    4  A    between atoms: C_12  and  O_14 
DOCKED: REMARK    5  A    between atoms: C_17  and  C_20 
DOCKED: REMARK    6  A    between atoms: C_24  and  C_27 
DOCKED: REMARK    7  A    between atoms: C_31  and  C_34 
DOCKED: REMARK    8  A    between atoms: C_34  and  C_35 
DOCKED: REMARK    9  A    between atoms: C_35  and  C_36 
DOCKED: REMARK   10  A    between atoms: C_36  and  O_38 
DOCKED: USER                              x       y       z     vdW  Elec       q    Type
DOCKED: USER                           _______ _______ _______ _____ _____    ______ ____
DOCKED: ROOT
DOCKED: ATOM      1  C   UNL d   1      13.774   1.032   8.151 -0.21 +0.02    +0.064 A 
DOCKED: ATOM      2  C   UNL d   1      16.277   3.610   5.044 -0.16 +0.02    +0.064 A 
DOCKED: ATOM      3  C   UNL d   1      16.114   7.436   7.947 -0.17 +0.01    +0.064 C 
DOCKED: ATOM      4  C   UNL d   1      13.951   4.653  11.359 -0.24 +0.02    +0.064 A 
DOCKED: ATOM      5  C   UNL d   1      14.470   1.420   7.070 -0.20 +0.01    +0.066 A 
DOCKED: ATOM      6  C   UNL d   1      14.725   0.601   5.967 -0.23 -0.00    -0.021 A 
DOCKED: ATOM      7  C   UNL d   1      15.486   1.332   5.086 -0.20 -0.01    -0.025 A 
DOCKED: ATOM      8  C   UNL d   1      15.635   2.594   5.653 -0.18 +0.01    +0.066 A 
DOCKED: ATOM      9  C   UNL d   1      16.052   0.804   3.786 -0.18 +0.01    +0.051 C 
DOCKED: ATOM     10  C   UNL d   1      16.445   4.962   5.579 -0.12 +0.01    +0.066 A 
DOCKED: ATOM     11  C   UNL d   1      16.977   6.022   4.837 -0.10 -0.00    -0.021 A 
DOCKED: ATOM     12  C   UNL d   1      16.922   7.139   5.651 -0.07 +0.00    +0.000 A 
DOCKED: ATOM     13  C   UNL d   1      16.358   6.683   6.875 -0.10 +0.01    +0.070 A 
DOCKED: ATOM     14  C   UNL d   1      17.490   5.979   3.403 -0.13 +0.02    +0.052 C 
DOCKED: ATOM     15  C   UNL d   1      15.578   7.007   9.216 -0.19 +0.01    +0.066 A 
DOCKED: ATOM     16  C   UNL d   1      15.499   7.809  10.354 -0.21 -0.00    -0.021 A 
DOCKED: ATOM     17  C   UNL d   1      14.886   7.037  11.340 -0.29 +0.00    +0.000 A 
DOCKED: ATOM     18  C   UNL d   1      14.632   5.805  10.722 -0.25 +0.01    +0.070 A 
DOCKED: ATOM     19  C   UNL d   1      16.059   9.208  10.414 -0.04 +0.01    +0.052 C 
DOCKED: ATOM     20  C   UNL d   1      13.730   3.443  10.809 -0.20 +0.02    +0.066 A 
DOCKED: ATOM     21  C   UNL d   1      13.067   2.403  11.454 -0.18 -0.01    -0.025 A 
DOCKED: ATOM     22  C   UNL d   1      12.983   1.372  10.545 -0.16 -0.01    -0.021 A 
DOCKED: ATOM     23  C   UNL d   1      13.617   1.817   9.381 -0.17 +0.02    +0.066 A 
DOCKED: ATOM     24  C   UNL d   1      12.542   2.391  12.866 -0.22 +0.02    +0.051 C 
DOCKED: ATOM     25  N   UNL d   1      15.064   2.628   6.905 -0.01 -0.05    -0.248 N 
DOCKED: ATOM     26  N   UNL d   1      16.076   5.356   6.824 -0.05 -0.04    -0.248 N 
DOCKED: ATOM     27  N   UNL d   1      15.126   5.779   9.457 -0.01 -0.04    -0.248 N 
DOCKED: ATOM     28  N   UNL d   1      14.109   3.060   9.561 -0.01 -0.06    -0.248 N 
DOCKED: ATOM     29 FE   UNL d   1      15.086   4.202   8.205 -0.02 +0.00    +0.000 Fe
DOCKED: ATOM     30  O   UNL d   1      16.478   3.538   7.999 -0.10 +0.00    +0.000 OA
DOCKED: ATOM     31  O   UNL d   1      16.043   4.011   9.438 -0.10 +0.00    +0.000 OA
DOCKED: ENDROOT
DOCKED: BRANCH   6  32
DOCKED: ATOM     32  C   UNL d   1      14.385  -0.858   5.803 -0.17 +0.02    +0.052 C 
DOCKED: BRANCH  32  33
DOCKED: ATOM     33  C   UNL d   1      15.535  -1.782   6.195 -0.11 +0.04    +0.115 C 
DOCKED: BRANCH  33  34
DOCKED: ATOM     34  C   UNL d   1      15.163  -2.721   7.315 -0.10 +0.08    +0.139 C 
DOCKED: ATOM     35  O   UNL d   1      16.037  -3.181   8.032 +0.00 -0.26    -0.650 OA
DOCKED: BRANCH  34  36
DOCKED: ATOM     36  O   UNL d   1      13.883  -3.089   7.529 -0.05 -1.02    -0.776 OA
DOCKED: ATOM     37  H   UNL d   1      13.371  -2.751   8.273 +0.03 +0.32    +0.167 HD
DOCKED: ENDBRANCH  34  36
DOCKED: ENDBRANCH  33  34
DOCKED: ENDBRANCH  32  33
DOCKED: ENDBRANCH   6  32
DOCKED: BRANCH  22  38
DOCKED: ATOM     38  C   UNL d   1      12.384   0.015  10.808 -0.15 +0.02    +0.052 C 
DOCKED: BRANCH  38  39
DOCKED: ATOM     39  C   UNL d   1      13.430  -1.097  10.789 -0.06 +0.06    +0.115 C 
DOCKED: BRANCH  39  40
DOCKED: ATOM     40  C   UNL d   1      12.862  -2.415  10.323 -0.03 +0.15    +0.139 C 
DOCKED: ATOM     41  O   UNL d   1      11.667  -2.515  10.100 -0.14 -1.04    -0.650 OA
DOCKED: BRANCH  40  42
DOCKED: ATOM     42  O   UNL d   1      13.661  -3.475  10.097 -0.38 -0.93    -0.776 OA
DOCKED: ATOM     43  H   UNL d   1      14.386  -3.435   9.462 +0.01 +0.16    +0.167 HD
DOCKED: ENDBRANCH  40  42
DOCKED: ENDBRANCH  39  40
DOCKED: ENDBRANCH  38  39
DOCKED: ENDBRANCH  22  38
DOCKED: BRANCH  12  44
DOCKED: ATOM     44  C   UNL d   1      17.406   8.497   5.187 -0.04 +0.00    +0.004 C 
DOCKED: ATOM     45  C   UNL d   1      17.654   9.575   5.930 -0.03 +0.00    +0.012 C 
DOCKED: ENDBRANCH  12  44
DOCKED: BRANCH  17  46
DOCKED: ATOM     46  C   UNL d   1      14.584   7.336  12.785 -0.29 +0.00    +0.004 C 
DOCKED: ATOM     47  C   UNL d   1      14.545   8.528  13.393 -0.26 +0.00    +0.012 C 
DOCKED: ENDBRANCH  17  46
DOCKED: TORSDOF 10
DOCKED: TER
DOCKED: ENDMDL
________________________________________________________________________________


	BEGINNING GENETIC ALGORITHM DOCKING 92 of 100
Run: 92 Seed: 1832700932 1877021062 [ Run 92 of 100 GA/GALS ]
Beginning LAMARCKIAN GENETIC ALGORITHM (LGA), with a maximum of 25000000 energy evaluations.

Final-Value: -9.775


	FINAL GENETIC ALGORITHM DOCKED STATE
	_______________________________________________


Detailed state:  trans 9.457 16.653 2.757 quatxyzw -0.241115 -0.134596 0.953818 0.118235 center 8.287 34.468 -0.670 ntor 10 180.0000 -30.5630 27.9503 101.9347 86.9299 -35.0463 116.2718 163.8347 -165.0476 169.1051
State:	  9.457  16.653   2.757  -0.243 -0.136  0.961 166.419    180.00  -30.56   27.95  101.93   86.93  -35.05  116.27  163.83 -165.05  169.11

DOCKED: MODEL       92
DOCKED: USER    Run = 92
DOCKED: USER    DPF = D:/Protein_go_brrr/autodock/final/mut_N102T/heme_O2/dock.dpf
DOCKED: USER  
DOCKED: USER    Estimated Free Energy of Binding    =   -6.14 kcal/mol  [=(1)+(2)+(3)-(4)]
DOCKED: USER    Estimated Inhibition Constant, Ki   =   31.80 uM (micromolar)  [Temperature = 298.15 K]
DOCKED: USER    
DOCKED: USER    (1) Final Intermolecular Energy     =   -9.12 kcal/mol
DOCKED: USER        vdW + Hbond + desolv Energy     =   -6.91 kcal/mol
DOCKED: USER        Electrostatic Energy            =   -2.21 kcal/mol
DOCKED: USER    (2) Final Total Internal Energy     =   -0.66 kcal/mol
DOCKED: USER    (3) Torsional Free Energy           =   +2.98 kcal/mol
DOCKED: USER    (4) Unbound System's Energy  [=(2)] =   -0.66 kcal/mol
DOCKED: USER    
DOCKED: USER    
DOCKED: USER    NEWDPF move heme_O2_opt.pdbqt
DOCKED: USER    NEWDPF about 8.287000 34.468000 -0.670000
DOCKED: USER    NEWDPF tran0 9.457260 16.653125 2.757487
DOCKED: USER    NEWDPF quaternion0 -0.241115 -0.134596 0.953818 0.118235
DOCKED: USER    NEWDPF axisangle0 -0.242818 -0.135547 0.960555 166.419467
DOCKED: USER    NEWDPF quat0 -0.242818 -0.135547 0.960555 166.419467
DOCKED: USER    NEWDPF dihe0 180.00 -30.56 27.95 101.93 86.93 -35.05 116.27 163.83 -165.05 169.11 
DOCKED: USER  keepresnum = 1 
DOCKED: USER  
DOCKED: REMARK  10 active torsions:
DOCKED: REMARK  status: ('A' for Active; 'I' for Inactive)
DOCKED: REMARK    1  A    between atoms: C_6  and  C_10 
DOCKED: REMARK    2  A    between atoms: C_10  and  C_11 
DOCKED: REMARK    3  A    between atoms: C_11  and  C_12 
DOCKED: REMARK    4  A    between atoms: C_12  and  O_14 
DOCKED: REMARK    5  A    between atoms: C_17  and  C_20 
DOCKED: REMARK    6  A    between atoms: C_24  and  C_27 
DOCKED: REMARK    7  A    between atoms: C_31  and  C_34 
DOCKED: REMARK    8  A    between atoms: C_34  and  C_35 
DOCKED: REMARK    9  A    between atoms: C_35  and  C_36 
DOCKED: REMARK   10  A    between atoms: C_36  and  O_38 
DOCKED: USER                              x       y       z     vdW  Elec       q    Type
DOCKED: USER                           _______ _______ _______ _____ _____    ______ ____
DOCKED: ROOT
DOCKED: ATOM      1  C   UNL d   1      11.575  16.641   2.879 -0.05 +0.04    +0.064 A 
DOCKED: ATOM      2  C   UNL d   1       8.190  17.841   5.987 -0.17 +0.02    +0.064 A 
DOCKED: ATOM      3  C   UNL d   1       4.758  16.864   2.768 -0.15 -0.00    +0.064 C 
DOCKED: ATOM      4  C   UNL d   1       8.211  15.171  -0.278 -0.08 -0.02    +0.064 A 
DOCKED: ATOM      5  C   UNL d   1      10.934  17.046   3.988 -0.05 +0.06    +0.066 A 
DOCKED: ATOM      6  C   UNL d   1      11.578  17.450   5.160 -0.06 -0.01    -0.021 A 
DOCKED: ATOM      7  C   UNL d   1      10.599  17.757   6.076 -0.11 -0.01    -0.025 A 
DOCKED: ATOM      8  C   UNL d   1       9.383  17.577   5.421 -0.11 +0.04    +0.066 A 
DOCKED: ATOM      9  C   UNL d   1      10.852  18.169   7.509 -0.09 +0.01    +0.051 C 
DOCKED: ATOM     10  C   UNL d   1       6.884  17.694   5.344 -0.20 +0.00    +0.066 A 
DOCKED: ATOM     11  C   UNL d   1       5.688  18.137   5.920 -0.28 +0.00    -0.021 A 
DOCKED: ATOM     12  C   UNL d   1       4.689  17.880   4.999 -0.21 -0.00    +0.000 A 
DOCKED: ATOM     13  C   UNL d   1       5.345  17.270   3.894 -0.14 -0.00    +0.070 A 
DOCKED: ATOM     14  C   UNL d   1       5.510  18.802   7.279 -0.29 -0.03    +0.052 C 
DOCKED: ATOM     15  C   UNL d   1       5.381  16.210   1.642 -0.09 -0.01    +0.066 A 
DOCKED: ATOM     16  C   UNL d   1       4.687  15.661   0.564 -0.14 +0.01    -0.021 A 
DOCKED: ATOM     17  C   UNL d   1       5.651  15.172  -0.317 -0.16 -0.00    +0.000 A 
DOCKED: ATOM     18  C   UNL d   1       6.877  15.465   0.297 -0.07 -0.02    +0.070 A 
DOCKED: ATOM     19  C   UNL d   1       3.182  15.603   0.499 -0.23 -0.01    +0.052 C 
DOCKED: ATOM     20  C   UNL d   1       9.405  15.400   0.303 -0.05 -0.00    +0.066 A 
DOCKED: ATOM     21  C   UNL d   1      10.630  15.118  -0.295 -0.07 +0.00    -0.025 A 
DOCKED: ATOM     22  C   UNL d   1      11.600  15.555   0.578 -0.03 -0.00    -0.021 A 
DOCKED: ATOM     23  C   UNL d   1      10.929  16.074   1.690 -0.05 +0.02    +0.066 A 
DOCKED: ATOM     24  C   UNL d   1      10.864  14.462  -1.631 -0.12 -0.03    +0.051 C 
DOCKED: ATOM     25  N   UNL d   1       9.589  17.076   4.156 -0.07 -0.20    -0.248 N 
DOCKED: ATOM     26  N   UNL d   1       6.680  17.157   4.114 -0.11 -0.02    -0.248 N 
DOCKED: ATOM     27  N   UNL d   1       6.692  16.027   1.518 -0.03 +0.01    -0.248 N 
DOCKED: ATOM     28  N   UNL d   1       9.595  15.936   1.538 -0.04 -0.07    -0.248 N 
DOCKED: ATOM     29 FE   UNL d   1       8.146  16.541   2.815 -0.02 +0.00    +0.000 Fe
DOCKED: ATOM     30  O   UNL d   1       8.235  15.599   4.051 -0.60 +0.00    +0.000 OA
DOCKED: ATOM     31  O   UNL d   1       7.986  14.988   2.620 -0.24 +0.00    +0.000 OA
DOCKED: ENDROOT
DOCKED: BRANCH   6  32
DOCKED: ATOM     32  C   UNL d   1      13.055  17.421   5.460 -0.04 +0.02    +0.052 C 
DOCKED: BRANCH  32  33
DOCKED: ATOM     33  C   UNL d   1      13.544  16.042   5.892 -0.08 +0.08    +0.115 C 
DOCKED: BRANCH  33  34
DOCKED: ATOM     34  C   UNL d   1      12.960  15.613   7.215 -0.13 +0.10    +0.139 C 
DOCKED: ATOM     35  O   UNL d   1      13.227  16.245   8.225 +0.01 -0.20    -0.650 OA
DOCKED: BRANCH  34  36
DOCKED: ATOM     36  O   UNL d   1      12.169  14.525   7.315 -0.31 -1.09    -0.776 OA
DOCKED: ATOM     37  H   UNL d   1      11.788  14.246   8.156 -0.48 +0.09    +0.167 HD
DOCKED: ENDBRANCH  34  36
DOCKED: ENDBRANCH  33  34
DOCKED: ENDBRANCH  32  33
DOCKED: ENDBRANCH   6  32
DOCKED: BRANCH  22  38
DOCKED: ATOM     38  C   UNL d   1      13.088  15.421   0.378 -0.02 +0.00    +0.052 C 
DOCKED: BRANCH  38  39
DOCKED: ATOM     39  C   UNL d   1      13.632  14.104   0.929 -0.03 +0.01    +0.115 C 
DOCKED: BRANCH  39  40
DOCKED: ATOM     40  C   UNL d   1      12.678  13.444   1.893 -0.10 +0.06    +0.139 C 
DOCKED: ATOM     41  O   UNL d   1      12.100  12.420   1.568 +0.01 -0.19    -0.650 OA
DOCKED: BRANCH  40  42
DOCKED: ATOM     42  O   UNL d   1      12.490  13.937   3.132 -0.55 -1.03    -0.776 OA
DOCKED: ATOM     43  H   UNL d   1      13.180  14.434   3.589 +0.01 +0.17    +0.167 HD
DOCKED: ENDBRANCH  40  42
DOCKED: ENDBRANCH  39  40
DOCKED: ENDBRANCH  38  39
DOCKED: ENDBRANCH  22  38
DOCKED: BRANCH  12  44
DOCKED: ATOM     44  C   UNL d   1       3.241  18.233   5.265 -0.28 -0.00    +0.004 C 
DOCKED: ATOM     45  C   UNL d   1       2.152  17.693   4.717 -0.29 -0.00    +0.012 C 
DOCKED: ENDBRANCH  12  44
DOCKED: BRANCH  17  46
DOCKED: ATOM     46  C   UNL d   1       5.514  14.424  -1.616 -0.22 -0.00    +0.004 C 
DOCKED: ATOM     47  C   UNL d   1       5.520  14.919  -2.861 -0.30 -0.01    +0.012 C 
DOCKED: ENDBRANCH  17  46
DOCKED: TORSDOF 10
DOCKED: TER
DOCKED: ENDMDL
________________________________________________________________________________


	BEGINNING GENETIC ALGORITHM DOCKING 93 of 100
Run: 93 Seed: 356033762 1616272979 [ Run 93 of 100 GA/GALS ]
Beginning LAMARCKIAN GENETIC ALGORITHM (LGA), with a maximum of 25000000 energy evaluations.

Final-Value: -10.494


	FINAL GENETIC ALGORITHM DOCKED STATE
	_______________________________________________


Detailed state:  trans -8.344 -14.842 -8.302 quatxyzw 0.562921 0.742849 -0.176679 -0.316355 center 8.287 34.468 -0.670 ntor 10 70.6488 -151.3433 51.9526 -116.9892 86.8967 110.1606 -85.5768 -82.9491 174.7900 153.2072
State:	 -8.344 -14.842  -8.302   0.593  0.783 -0.186 -143.115     70.65 -151.34   51.95 -116.99   86.90  110.16  -85.58  -82.95  174.79  153.21

DOCKED: MODEL       93
DOCKED: USER    Run = 93
DOCKED: USER    DPF = D:/Protein_go_brrr/autodock/final/mut_N102T/heme_O2/dock.dpf
DOCKED: USER  
DOCKED: USER    Estimated Free Energy of Binding    =   -6.81 kcal/mol  [=(1)+(2)+(3)-(4)]
DOCKED: USER    Estimated Inhibition Constant, Ki   =   10.23 uM (micromolar)  [Temperature = 298.15 K]
DOCKED: USER    
DOCKED: USER    (1) Final Intermolecular Energy     =   -9.79 kcal/mol
DOCKED: USER        vdW + Hbond + desolv Energy     =   -6.36 kcal/mol
DOCKED: USER        Electrostatic Energy            =   -3.43 kcal/mol
DOCKED: USER    (2) Final Total Internal Energy     =   -0.70 kcal/mol
DOCKED: USER    (3) Torsional Free Energy           =   +2.98 kcal/mol
DOCKED: USER    (4) Unbound System's Energy  [=(2)] =   -0.70 kcal/mol
DOCKED: USER    
DOCKED: USER    
DOCKED: USER    NEWDPF move heme_O2_opt.pdbqt
DOCKED: USER    NEWDPF about 8.287000 34.468000 -0.670000
DOCKED: USER    NEWDPF tran0 -8.344059 -14.841838 -8.302219
DOCKED: USER    NEWDPF quaternion0 0.562921 0.742849 -0.176679 -0.316355
DOCKED: USER    NEWDPF axisangle0 0.593397 0.783066 -0.186244 -143.114766
DOCKED: USER    NEWDPF quat0 0.593397 0.783066 -0.186244 -143.114766
DOCKED: USER    NEWDPF dihe0 70.65 -151.34 51.95 -116.99 86.90 110.16 -85.58 -82.95 174.79 153.21 
DOCKED: USER  keepresnum = 1 
DOCKED: USER  
DOCKED: REMARK  10 active torsions:
DOCKED: REMARK  status: ('A' for Active; 'I' for Inactive)
DOCKED: REMARK    1  A    between atoms: C_6  and  C_10 
DOCKED: REMARK    2  A    between atoms: C_10  and  C_11 
DOCKED: REMARK    3  A    between atoms: C_11  and  C_12 
DOCKED: REMARK    4  A    between atoms: C_12  and  O_14 
DOCKED: REMARK    5  A    between atoms: C_17  and  C_20 
DOCKED: REMARK    6  A    between atoms: C_24  and  C_27 
DOCKED: REMARK    7  A    between atoms: C_31  and  C_34 
DOCKED: REMARK    8  A    between atoms: C_34  and  C_35 
DOCKED: REMARK    9  A    between atoms: C_35  and  C_36 
DOCKED: REMARK   10  A    between atoms: C_36  and  O_38 
DOCKED: USER                              x       y       z     vdW  Elec       q    Type
DOCKED: USER                           _______ _______ _______ _____ _____    ______ ____
DOCKED: ROOT
DOCKED: ATOM      1  C   UNL d   1      -7.680 -15.519  -6.405 -0.07 +0.06    +0.064 A 
DOCKED: ATOM      2  C   UNL d   1      -9.455 -17.789 -10.180 -0.04 +0.01    +0.064 A 
DOCKED: ATOM      3  C   UNL d   1      -9.958 -13.641 -12.554 -0.11 +0.01    +0.064 C 
DOCKED: ATOM      4  C   UNL d   1      -7.689 -11.346  -8.860 -0.19 +0.02    +0.064 A 
DOCKED: ATOM      5  C   UNL d   1      -8.120 -16.475  -7.239 -0.06 +0.05    +0.066 A 
DOCKED: ATOM      6  C   UNL d   1      -8.165 -17.835  -6.916 -0.03 -0.01    -0.021 A 
DOCKED: ATOM      7  C   UNL d   1      -8.639 -18.498  -8.024 -0.02 -0.01    -0.025 A 
DOCKED: ATOM      8  C   UNL d   1      -8.915 -17.520  -8.976 -0.04 +0.02    +0.066 A 
DOCKED: ATOM      9  C   UNL d   1      -8.778 -20.000  -8.140 -0.00 +0.01    +0.051 C 
DOCKED: ATOM     10  C   UNL d   1      -9.788 -16.804 -11.210 -0.07 +0.01    +0.066 A 
DOCKED: ATOM     11  C   UNL d   1     -10.498 -17.119 -12.375 -0.05 -0.00    -0.021 A 
DOCKED: ATOM     12  C   UNL d   1     -10.668 -15.932 -13.064 -0.06 +0.00    +0.000 A 
DOCKED: ATOM     13  C   UNL d   1     -10.029 -14.941 -12.269 -0.09 +0.01    +0.070 A 
DOCKED: ATOM     14  C   UNL d   1     -11.014 -18.489 -12.799 -0.01 +0.00    +0.052 C 
DOCKED: ATOM     15  C   UNL d   1      -9.290 -12.613 -11.794 -0.06 +0.01    +0.066 A 
DOCKED: ATOM     16  C   UNL d   1      -9.111 -11.299 -12.228 -0.17 -0.01    -0.021 A 
DOCKED: ATOM     17  C   UNL d   1      -8.466 -10.626 -11.191 -0.24 +0.00    +0.000 A 
DOCKED: ATOM     18  C   UNL d   1      -8.299 -11.591 -10.188 -0.20 +0.02    +0.070 A 
DOCKED: ATOM     19  C   UNL d   1      -9.519 -10.824 -13.600 -0.16 +0.01    +0.052 C 
DOCKED: ATOM     20  C   UNL d   1      -7.474 -12.258  -7.892 -0.05 +0.03    +0.066 A 
DOCKED: ATOM     21  C   UNL d   1      -6.911 -11.964  -6.653 -0.24 -0.02    -0.025 A 
DOCKED: ATOM     22  C   UNL d   1      -6.926 -13.136  -5.930 -0.19 -0.02    -0.021 A 
DOCKED: ATOM     23  C   UNL d   1      -7.483 -14.110  -6.765 -0.09 +0.07    +0.066 A 
DOCKED: ATOM     24  C   UNL d   1      -6.383 -10.633  -6.184 -0.34 +0.03    +0.051 C 
DOCKED: ATOM     25  N   UNL d   1      -8.534 -16.281  -8.515 -0.05 -0.13    -0.248 N 
DOCKED: ATOM     26  N   UNL d   1      -9.492 -15.481 -11.145 -0.07 -0.05    -0.248 N 
DOCKED: ATOM     27  N   UNL d   1      -8.737 -12.808 -10.600 -0.09 -0.06    -0.248 N 
DOCKED: ATOM     28  N   UNL d   1      -7.773 -13.582  -7.972 -0.12 -0.16    -0.248 N 
DOCKED: ATOM     29 FE   UNL d   1      -8.626 -14.522  -9.549 -0.03 +0.00    +0.000 Fe
DOCKED: ATOM     30  O   UNL d   1      -7.558 -15.515 -10.093 -0.42 +0.00    +0.000 OA
DOCKED: ATOM     31  O   UNL d   1      -7.230 -13.976 -10.024 +0.14 +0.00    +0.000 OA
DOCKED: ENDROOT
DOCKED: BRANCH   6  32
DOCKED: ATOM     32  C   UNL d   1      -7.656 -18.504  -5.667 -0.03 +0.03    +0.052 C 
DOCKED: BRANCH  32  33
DOCKED: ATOM     33  C   UNL d   1      -6.309 -19.191  -5.870 -0.05 +0.09    +0.115 C 
DOCKED: BRANCH  33  34
DOCKED: ATOM     34  C   UNL d   1      -5.147 -18.291  -5.533 -0.13 +0.19    +0.139 C 
DOCKED: ATOM     35  O   UNL d   1      -4.956 -17.280  -6.190 -0.20 -1.43    -0.650 OA
DOCKED: BRANCH  34  36
DOCKED: ATOM     36  O   UNL d   1      -4.291 -18.591  -4.534 -0.17 -1.36    -0.776 OA
DOCKED: ATOM     37  H   UNL d   1      -3.659 -19.316  -4.603 +0.02 +0.22    +0.167 HD
DOCKED: ENDBRANCH  34  36
DOCKED: ENDBRANCH  33  34
DOCKED: ENDBRANCH  32  33
DOCKED: ENDBRANCH   6  32
DOCKED: BRANCH  22  38
DOCKED: ATOM     38  C   UNL d   1      -6.375 -13.317  -4.540 -0.24 +0.05    +0.052 C 
DOCKED: BRANCH  38  39
DOCKED: ATOM     39  C   UNL d   1      -5.046 -14.070  -4.534 -0.23 +0.18    +0.115 C 
DOCKED: BRANCH  39  40
DOCKED: ATOM     40  C   UNL d   1      -3.858 -13.142  -4.503 -0.42 +0.17    +0.139 C 
DOCKED: ATOM     41  O   UNL d   1      -3.195 -12.972  -5.513 -0.41 -1.02    -0.650 OA
DOCKED: BRANCH  40  42
DOCKED: ATOM     42  O   UNL d   1      -3.542 -12.453  -3.389 +0.06 -0.50    -0.776 OA
DOCKED: ATOM     43  H   UNL d   1      -3.126 -11.584  -3.434 -0.47 +0.03    +0.167 HD
DOCKED: ENDBRANCH  40  42
DOCKED: ENDBRANCH  39  40
DOCKED: ENDBRANCH  38  39
DOCKED: ENDBRANCH  22  38
DOCKED: BRANCH  12  44
DOCKED: ATOM     44  C   UNL d   1     -11.406 -15.869 -14.385 -0.03 +0.00    +0.004 C 
DOCKED: ATOM     45  C   UNL d   1     -11.025 -15.259 -15.507 -0.03 +0.00    +0.012 C 
DOCKED: ENDBRANCH  12  44
DOCKED: BRANCH  17  46
DOCKED: ATOM     46  C   UNL d   1      -7.959  -9.212 -11.096 -0.35 +0.00    +0.004 C 
DOCKED: ATOM     47  C   UNL d   1      -6.717  -8.793 -10.818 -0.48 +0.00    +0.012 C 
DOCKED: ENDBRANCH  17  46
DOCKED: TORSDOF 10
DOCKED: TER
DOCKED: ENDMDL
________________________________________________________________________________


	BEGINNING GENETIC ALGORITHM DOCKING 94 of 100
Run: 94 Seed: 1034798073 6557158 [ Run 94 of 100 GA/GALS ]
Beginning LAMARCKIAN GENETIC ALGORITHM (LGA), with a maximum of 25000000 energy evaluations.

Final-Value: -9.773


	FINAL GENETIC ALGORITHM DOCKED STATE
	_______________________________________________


Detailed state:  trans -4.091 15.012 -8.712 quatxyzw 0.570448 0.542604 -0.229905 -0.572114 center 8.287 34.468 -0.670 ntor 10 -49.8848 -139.1965 -25.9108 -87.3777 -83.5464 105.8020 -19.1905 82.8994 180.0000 172.8610
State:	 -4.091  15.012  -8.712   0.696  0.662 -0.280 -110.205    -49.88 -139.20  -25.91  -87.38  -83.55  105.80  -19.19   82.90  180.00  172.86

DOCKED: MODEL       94
DOCKED: USER    Run = 94
DOCKED: USER    DPF = D:/Protein_go_brrr/autodock/final/mut_N102T/heme_O2/dock.dpf
DOCKED: USER  
DOCKED: USER    Estimated Free Energy of Binding    =   -4.63 kcal/mol  [=(1)+(2)+(3)-(4)]
DOCKED: USER    Estimated Inhibition Constant, Ki   =  405.42 uM (micromolar)  [Temperature = 298.15 K]
DOCKED: USER    
DOCKED: USER    (1) Final Intermolecular Energy     =   -7.61 kcal/mol
DOCKED: USER        vdW + Hbond + desolv Energy     =   -6.46 kcal/mol
DOCKED: USER        Electrostatic Energy            =   -1.15 kcal/mol
DOCKED: USER    (2) Final Total Internal Energy     =   -2.16 kcal/mol
DOCKED: USER    (3) Torsional Free Energy           =   +2.98 kcal/mol
DOCKED: USER    (4) Unbound System's Energy  [=(2)] =   -2.16 kcal/mol
DOCKED: USER    
DOCKED: USER    
DOCKED: USER    NEWDPF move heme_O2_opt.pdbqt
DOCKED: USER    NEWDPF about 8.287000 34.468000 -0.670000
DOCKED: USER    NEWDPF tran0 -4.090610 15.011738 -8.711710
DOCKED: USER    NEWDPF quaternion0 0.570448 0.542604 -0.229905 -0.572114
DOCKED: USER    NEWDPF axisangle0 0.695520 0.661572 -0.280312 -110.204508
DOCKED: USER    NEWDPF quat0 0.695520 0.661572 -0.280312 -110.204508
DOCKED: USER    NEWDPF dihe0 -49.88 -139.20 -25.91 -87.38 -83.55 105.80 -19.19 82.90 180.00 172.86 
DOCKED: USER  keepresnum = 1 
DOCKED: USER  
DOCKED: REMARK  10 active torsions:
DOCKED: REMARK  status: ('A' for Active; 'I' for Inactive)
DOCKED: REMARK    1  A    between atoms: C_6  and  C_10 
DOCKED: REMARK    2  A    between atoms: C_10  and  C_11 
DOCKED: REMARK    3  A    between atoms: C_11  and  C_12 
DOCKED: REMARK    4  A    between atoms: C_12  and  O_14 
DOCKED: REMARK    5  A    between atoms: C_17  and  C_20 
DOCKED: REMARK    6  A    between atoms: C_24  and  C_27 
DOCKED: REMARK    7  A    between atoms: C_31  and  C_34 
DOCKED: REMARK    8  A    between atoms: C_34  and  C_35 
DOCKED: REMARK    9  A    between atoms: C_35  and  C_36 
DOCKED: REMARK   10  A    between atoms: C_36  and  O_38 
DOCKED: USER                              x       y       z     vdW  Elec       q    Type
DOCKED: USER                           _______ _______ _______ _____ _____    ______ ____
DOCKED: ROOT
DOCKED: ATOM      1  C   UNL d   1      -4.418  15.214  -6.626 -0.11 +0.00    +0.064 A 
DOCKED: ATOM      2  C   UNL d   1      -5.135  11.624  -9.651 +0.12 -0.00    +0.064 A 
DOCKED: ATOM      3  C   UNL d   1      -3.553  14.285 -13.328 -0.20 +0.00    +0.064 C 
DOCKED: ATOM      4  C   UNL d   1      -2.362  17.825 -10.147 -0.05 -0.00    +0.064 A 
DOCKED: ATOM      5  C   UNL d   1      -4.740  14.020  -7.148 -0.14 +0.00    +0.066 A 
DOCKED: ATOM      6  C   UNL d   1      -5.268  12.959  -6.408 -0.15 -0.00    -0.021 A 
DOCKED: ATOM      7  C   UNL d   1      -5.436  11.904  -7.275 -0.22 +0.00    -0.025 A 
DOCKED: ATOM      8  C   UNL d   1      -5.051  12.366  -8.531 -0.20 -0.00    +0.066 A 
DOCKED: ATOM      9  C   UNL d   1      -5.916  10.525  -6.878 -0.26 +0.00    +0.051 C 
DOCKED: ATOM     10  C   UNL d   1      -4.768  12.062 -10.999 -0.18 -0.01    +0.066 A 
DOCKED: ATOM     11  C   UNL d   1      -5.028  11.309 -12.150 -0.28 +0.00    -0.021 A 
DOCKED: ATOM     12  C   UNL d   1      -4.596  12.068 -13.222 -0.28 -0.00    +0.000 A 
DOCKED: ATOM     13  C   UNL d   1      -4.073  13.261 -12.651 -0.20 -0.00    +0.070 A 
DOCKED: ATOM     14  C   UNL d   1      -5.687   9.937 -12.226 -0.34 -0.01    +0.052 C 
DOCKED: ATOM     15  C   UNL d   1      -2.982  15.494 -12.785 -0.13 +0.00    +0.066 A 
DOCKED: ATOM     16  C   UNL d   1      -2.305  16.454 -13.536 -0.13 -0.00    -0.021 A 
DOCKED: ATOM     17  C   UNL d   1      -1.955  17.473 -12.650 -0.06 +0.00    +0.000 A 
DOCKED: ATOM     18  C   UNL d   1      -2.453  17.053 -11.409 -0.06 -0.00    +0.070 A 
DOCKED: ATOM     19  C   UNL d   1      -2.007  16.290 -15.006 -0.23 +0.01    +0.052 C 
DOCKED: ATOM     20  C   UNL d   1      -2.790  17.432  -8.931 -0.09 +0.00    +0.066 A 
DOCKED: ATOM     21  C   UNL d   1      -2.693  18.211  -7.781 -0.08 -0.00    -0.025 A 
DOCKED: ATOM     22  C   UNL d   1      -3.298  17.494  -6.773 -0.06 -0.00    -0.021 A 
DOCKED: ATOM     23  C   UNL d   1      -3.728  16.292  -7.344 -0.09 +0.01    +0.066 A 
DOCKED: ATOM     24  C   UNL d   1      -2.052  19.568  -7.650 -0.06 -0.00    +0.051 C 
DOCKED: ATOM     25  N   UNL d   1      -4.561  13.649  -8.440 -0.12 +0.00    -0.248 N 
DOCKED: ATOM     26  N   UNL d   1      -4.177  13.247 -11.298 -0.14 +0.02    -0.248 N 
DOCKED: ATOM     27  N   UNL d   1      -3.006  15.816 -11.495 -0.06 +0.00    -0.248 N 
DOCKED: ATOM     28  N   UNL d   1      -3.377  16.240  -8.646 -0.09 -0.01    -0.248 N 
DOCKED: ATOM     29 FE   UNL d   1      -3.773  14.756  -9.964 -0.03 -0.00    +0.000 Fe
DOCKED: ATOM     30  O   UNL d   1      -2.886  13.549  -9.540 -0.38 -0.00    +0.000 OA
DOCKED: ATOM     31  O   UNL d   1      -2.211  14.926  -9.901 -0.44 -0.00    +0.000 OA
DOCKED: ENDROOT
DOCKED: BRANCH   6  32
DOCKED: ATOM     32  C   UNL d   1      -5.480  12.888  -4.918 -0.14 +0.00    +0.052 C 
DOCKED: BRANCH  32  33
DOCKED: ATOM     33  C   UNL d   1      -4.332  12.196  -4.189 -0.27 +0.02    +0.115 C 
DOCKED: BRANCH  33  34
DOCKED: ATOM     34  C   UNL d   1      -4.274  12.565  -2.727 -0.12 +0.06    +0.139 C 
DOCKED: ATOM     35  O   UNL d   1      -4.278  11.684  -1.882 -0.00 -0.35    -0.650 OA
DOCKED: BRANCH  34  36
DOCKED: ATOM     36  O   UNL d   1      -4.244  13.853  -2.328 +0.08 -0.53    -0.776 OA
DOCKED: ATOM     37  H   UNL d   1      -3.628  14.491  -2.705 +0.03 +0.13    +0.167 HD
DOCKED: ENDBRANCH  34  36
DOCKED: ENDBRANCH  33  34
DOCKED: ENDBRANCH  32  33
DOCKED: ENDBRANCH   6  32
DOCKED: BRANCH  22  38
DOCKED: ATOM     38  C   UNL d   1      -3.397  17.919  -5.331 -0.08 +0.00    +0.052 C 
DOCKED: BRANCH  38  39
DOCKED: ATOM     39  C   UNL d   1      -2.155  17.540  -4.527 -0.01 +0.01    +0.115 C 
DOCKED: BRANCH  39  40
DOCKED: ATOM     40  C   UNL d   1      -2.343  16.266  -3.742 -0.15 +0.04    +0.139 C 
DOCKED: ATOM     41  O   UNL d   1      -2.428  16.310  -2.525 -0.50 -0.44    -0.650 OA
DOCKED: BRANCH  40  42
DOCKED: ATOM     42  O   UNL d   1      -2.470  15.078  -4.364 +0.02 -0.18    -0.776 OA
DOCKED: ATOM     43  H   UNL d   1      -3.132  14.432  -4.089 +0.05 +0.06    +0.167 HD
DOCKED: ENDBRANCH  40  42
DOCKED: ENDBRANCH  39  40
DOCKED: ENDBRANCH  38  39
DOCKED: ENDBRANCH  22  38
DOCKED: BRANCH  12  44
DOCKED: ATOM     44  C   UNL d   1      -4.720  11.583 -14.651 -0.26 -0.00    +0.004 C 
DOCKED: ATOM     45  C   UNL d   1      -4.884  12.315 -15.753 -0.31 -0.00    +0.012 C 
DOCKED: ENDBRANCH  12  44
DOCKED: BRANCH  17  46
DOCKED: ATOM     46  C   UNL d   1      -1.166  18.738 -12.861 -0.03 +0.00    +0.004 C 
DOCKED: ATOM     47  C   UNL d   1       0.144  18.940 -12.666 -0.03 +0.00    +0.012 C 
DOCKED: ENDBRANCH  17  46
DOCKED: TORSDOF 10
DOCKED: TER
DOCKED: ENDMDL
________________________________________________________________________________


	BEGINNING GENETIC ALGORITHM DOCKING 95 of 100
Run: 95 Seed: 172113791 213384051 [ Run 95 of 100 GA/GALS ]
Beginning LAMARCKIAN GENETIC ALGORITHM (LGA), with a maximum of 25000000 energy evaluations.

Final-Value: -9.102


	FINAL GENETIC ALGORITHM DOCKED STATE
	_______________________________________________


Detailed state:  trans -9.885 -6.759 -13.245 quatxyzw -0.260214 0.379009 -0.554785 0.693437 center 8.287 34.468 -0.670 ntor 10 -179.8975 128.6742 67.6824 140.8183 -121.6583 119.9835 -135.0374 -85.7049 0.3082 -0.8383
State:	 -9.885  -6.759 -13.245  -0.361  0.526 -0.770 92.194   -179.90  128.67   67.68  140.82 -121.66  119.98 -135.04  -85.70    0.31   -0.84

DOCKED: MODEL       95
DOCKED: USER    Run = 95
DOCKED: USER    DPF = D:/Protein_go_brrr/autodock/final/mut_N102T/heme_O2/dock.dpf
DOCKED: USER  
DOCKED: USER    Estimated Free Energy of Binding    =   -5.49 kcal/mol  [=(1)+(2)+(3)-(4)]
DOCKED: USER    Estimated Inhibition Constant, Ki   =   94.70 uM (micromolar)  [Temperature = 298.15 K]
DOCKED: USER    
DOCKED: USER    (1) Final Intermolecular Energy     =   -8.47 kcal/mol
DOCKED: USER        vdW + Hbond + desolv Energy     =   -7.22 kcal/mol
DOCKED: USER        Electrostatic Energy            =   -1.26 kcal/mol
DOCKED: USER    (2) Final Total Internal Energy     =   -0.63 kcal/mol
DOCKED: USER    (3) Torsional Free Energy           =   +2.98 kcal/mol
DOCKED: USER    (4) Unbound System's Energy  [=(2)] =   -0.63 kcal/mol
DOCKED: USER    
DOCKED: USER    
DOCKED: USER    NEWDPF move heme_O2_opt.pdbqt
DOCKED: USER    NEWDPF about 8.287000 34.468000 -0.670000
DOCKED: USER    NEWDPF tran0 -9.885396 -6.759157 -13.244794
DOCKED: USER    NEWDPF quaternion0 -0.260214 0.379009 -0.554785 0.693437
DOCKED: USER    NEWDPF axisangle0 -0.361149 0.526023 -0.769981 92.194436
DOCKED: USER    NEWDPF quat0 -0.361149 0.526023 -0.769981 92.194436
DOCKED: USER    NEWDPF dihe0 -179.90 128.67 67.68 140.82 -121.66 119.98 -135.04 -85.70 0.31 -0.84 
DOCKED: USER  keepresnum = 1 
DOCKED: USER  
DOCKED: REMARK  10 active torsions:
DOCKED: REMARK  status: ('A' for Active; 'I' for Inactive)
DOCKED: REMARK    1  A    between atoms: C_6  and  C_10 
DOCKED: REMARK    2  A    between atoms: C_10  and  C_11 
DOCKED: REMARK    3  A    between atoms: C_11  and  C_12 
DOCKED: REMARK    4  A    between atoms: C_12  and  O_14 
DOCKED: REMARK    5  A    between atoms: C_17  and  C_20 
DOCKED: REMARK    6  A    between atoms: C_24  and  C_27 
DOCKED: REMARK    7  A    between atoms: C_31  and  C_34 
DOCKED: REMARK    8  A    between atoms: C_34  and  C_35 
DOCKED: REMARK    9  A    between atoms: C_35  and  C_36 
DOCKED: REMARK   10  A    between atoms: C_36  and  O_38 
DOCKED: USER                              x       y       z     vdW  Elec       q    Type
DOCKED: USER                           _______ _______ _______ _____ _____    ______ ____
DOCKED: ROOT
DOCKED: ATOM      1  C   UNL d   1     -10.459  -7.054 -15.265 +0.03 +0.04    +0.064 A 
DOCKED: ATOM      2  C   UNL d   1      -8.587  -9.958 -12.006 -0.23 +0.02    +0.064 A 
DOCKED: ATOM      3  C   UNL d   1      -8.450  -6.398  -8.780 -0.30 +0.01    +0.064 C 
DOCKED: ATOM      4  C   UNL d   1     -10.817  -3.523 -11.973 -0.14 +0.01    +0.064 A 
DOCKED: ATOM      5  C   UNL d   1      -9.963  -8.135 -14.641 -0.05 +0.04    +0.066 A 
DOCKED: ATOM      6  C   UNL d   1      -9.807  -9.385 -15.246 -0.12 -0.01    -0.021 A 
DOCKED: ATOM      7  C   UNL d   1      -9.306 -10.238 -14.291 -0.17 -0.01    -0.025 A 
DOCKED: ATOM      8  C   UNL d   1      -9.124  -9.472 -13.142 -0.19 +0.02    +0.066 A 
DOCKED: ATOM      9  C   UNL d   1      -9.054 -11.716 -14.496 -0.13 +0.01    +0.051 C 
DOCKED: ATOM     10  C   UNL d   1      -8.351  -9.198 -10.777 -0.21 +0.02    +0.066 A 
DOCKED: ATOM     11  C   UNL d   1      -7.642  -9.707  -9.683 -0.28 -0.01    -0.021 A 
DOCKED: ATOM     12  C   UNL d   1      -7.576  -8.689  -8.749 -0.31 +0.00    +0.000 A 
DOCKED: ATOM     13  C   UNL d   1      -8.275  -7.597  -9.335 -0.22 +0.02    +0.070 A 
DOCKED: ATOM     14  C   UNL d   1      -7.030 -11.096  -9.545 -0.28 +0.02    +0.052 C 
DOCKED: ATOM     15  C   UNL d   1      -9.180  -5.279  -9.325 -0.27 +0.01    +0.066 A 
DOCKED: ATOM     16  C   UNL d   1      -9.468  -4.107  -8.625 -0.29 -0.00    -0.021 A 
DOCKED: ATOM     17  C   UNL d   1     -10.143  -3.272  -9.516 -0.22 +0.00    +0.000 A 
DOCKED: ATOM     18  C   UNL d   1     -10.216  -4.006 -10.708 -0.20 +0.01    +0.070 A 
DOCKED: ATOM     19  C   UNL d   1      -9.125  -3.912  -7.170 -0.31 +0.01    +0.052 C 
DOCKED: ATOM     20  C   UNL d   1     -10.943  -4.216 -13.121 -0.11 +0.01    +0.066 A 
DOCKED: ATOM     21  C   UNL d   1     -11.503  -3.701 -14.287 -0.07 -0.00    -0.025 A 
DOCKED: ATOM     22  C   UNL d   1     -11.384  -4.684 -15.243 -0.07 -0.00    -0.021 A 
DOCKED: ATOM     23  C   UNL d   1     -10.771  -5.774 -14.618 -0.01 +0.03    +0.066 A 
DOCKED: ATOM     24  C   UNL d   1     -12.122  -2.341 -14.477 -0.05 +0.00    +0.051 C 
DOCKED: ATOM     25  N   UNL d   1      -9.590  -8.193 -13.340 -0.05 -0.13    -0.248 N 
DOCKED: ATOM     26  N   UNL d   1      -8.747  -7.917 -10.567 -0.10 -0.07    -0.248 N 
DOCKED: ATOM     27  N   UNL d   1      -9.694  -5.250 -10.551 -0.11 -0.05    -0.248 N 
DOCKED: ATOM     28  N   UNL d   1     -10.545  -5.501 -13.317 -0.07 -0.09    -0.248 N 
DOCKED: ATOM     29 FE   UNL d   1      -9.653  -6.698 -11.950 -0.05 +0.00    +0.000 Fe
DOCKED: ATOM     30  O   UNL d   1     -10.652  -7.859 -11.670 -0.10 +0.00    +0.000 OA
DOCKED: ATOM     31  O   UNL d   1     -11.095  -6.368 -11.418 -0.10 +0.00    +0.000 OA
DOCKED: ENDROOT
DOCKED: BRANCH   6  32
DOCKED: ATOM     32  C   UNL d   1     -10.240  -9.802 -16.628 -0.06 +0.01    +0.052 C 
DOCKED: BRANCH  32  33
DOCKED: ATOM     33  C   UNL d   1      -9.221  -9.439 -17.703 -0.09 +0.03    +0.115 C 
DOCKED: BRANCH  33  34
DOCKED: ATOM     34  C   UNL d   1      -7.804  -9.729 -17.274 -0.24 +0.05    +0.139 C 
DOCKED: ATOM     35  O   UNL d   1      -7.331 -10.839 -17.463 -0.01 -0.10    -0.650 OA
DOCKED: BRANCH  34  36
DOCKED: ATOM     36  O   UNL d   1      -7.051  -8.795 -16.656 -0.11 -0.80    -0.776 OA
DOCKED: ATOM     37  H   UNL d   1      -6.143  -8.970 -16.383 -0.26 +0.08    +0.167 HD
DOCKED: ENDBRANCH  34  36
DOCKED: ENDBRANCH  33  34
DOCKED: ENDBRANCH  32  33
DOCKED: ENDBRANCH   6  32
DOCKED: BRANCH  22  38
DOCKED: ATOM     38  C   UNL d   1     -11.894  -4.598 -16.659 -0.03 +0.01    +0.052 C 
DOCKED: BRANCH  38  39
DOCKED: ATOM     39  C   UNL d   1     -10.783  -4.281 -17.659 -0.05 +0.01    +0.115 C 
DOCKED: BRANCH  39  40
DOCKED: ATOM     40  C   UNL d   1     -10.178  -5.524 -18.261 -0.07 +0.03    +0.139 C 
DOCKED: ATOM     41  O   UNL d   1      -9.162  -5.999 -17.778 -0.57 -0.43    -0.650 OA
DOCKED: BRANCH  40  42
DOCKED: ATOM     42  O   UNL d   1     -10.768  -6.155 -19.295 +0.03 -0.07    -0.776 OA
DOCKED: ATOM     43  H   UNL d   1     -10.269  -6.413 -20.079 +0.02 +0.01    +0.167 HD
DOCKED: ENDBRANCH  40  42
DOCKED: ENDBRANCH  39  40
DOCKED: ENDBRANCH  38  39
DOCKED: ENDBRANCH  22  38
DOCKED: BRANCH  12  44
DOCKED: ATOM     44  C   UNL d   1      -6.871  -8.862  -7.420 -0.44 +0.00    +0.004 C 
DOCKED: ATOM     45  C   UNL d   1      -7.402  -8.813  -6.199 -0.31 +0.00    +0.012 C 
DOCKED: ENDBRANCH  12  44
DOCKED: BRANCH  17  46
DOCKED: ATOM     46  C   UNL d   1     -10.755  -1.910  -9.323 -0.04 +0.00    +0.004 C 
DOCKED: ATOM     47  C   UNL d   1     -10.649  -0.835 -10.114 -0.18 +0.00    +0.012 C 
DOCKED: ENDBRANCH  17  46
DOCKED: TORSDOF 10
DOCKED: TER
DOCKED: ENDMDL
________________________________________________________________________________


	BEGINNING GENETIC ALGORITHM DOCKING 96 of 100
Run: 96 Seed: 520251546 119512755 [ Run 96 of 100 GA/GALS ]
Beginning LAMARCKIAN GENETIC ALGORITHM (LGA), with a maximum of 25000000 energy evaluations.

Final-Value: -8.939


	FINAL GENETIC ALGORITHM DOCKED STATE
	_______________________________________________


Detailed state:  trans -12.100 5.053 9.531 quatxyzw -0.562854 -0.709799 0.086928 0.414517 center 8.287 34.468 -0.670 ntor 10 99.0765 101.2949 100.4997 -53.3114 35.8042 47.3826 40.1873 -72.2318 178.3379 179.2180
State:	-12.100   5.053   9.531  -0.618 -0.780  0.096 131.022     99.08  101.29  100.50  -53.31   35.80   47.38   40.19  -72.23  178.34  179.22

DOCKED: MODEL       96
DOCKED: USER    Run = 96
DOCKED: USER    DPF = D:/Protein_go_brrr/autodock/final/mut_N102T/heme_O2/dock.dpf
DOCKED: USER  
DOCKED: USER    Estimated Free Energy of Binding    =   -5.28 kcal/mol  [=(1)+(2)+(3)-(4)]
DOCKED: USER    Estimated Inhibition Constant, Ki   =  135.44 uM (micromolar)  [Temperature = 298.15 K]
DOCKED: USER    
DOCKED: USER    (1) Final Intermolecular Energy     =   -8.26 kcal/mol
DOCKED: USER        vdW + Hbond + desolv Energy     =   -7.91 kcal/mol
DOCKED: USER        Electrostatic Energy            =   -0.35 kcal/mol
DOCKED: USER    (2) Final Total Internal Energy     =   -0.68 kcal/mol
DOCKED: USER    (3) Torsional Free Energy           =   +2.98 kcal/mol
DOCKED: USER    (4) Unbound System's Energy  [=(2)] =   -0.68 kcal/mol
DOCKED: USER    
DOCKED: USER    
DOCKED: USER    NEWDPF move heme_O2_opt.pdbqt
DOCKED: USER    NEWDPF about 8.287000 34.468000 -0.670000
DOCKED: USER    NEWDPF tran0 -12.099943 5.052764 9.531459
DOCKED: USER    NEWDPF quaternion0 -0.562854 -0.709799 0.086928 0.414517
DOCKED: USER    NEWDPF axisangle0 -0.618493 -0.779963 0.095521 131.022205
DOCKED: USER    NEWDPF quat0 -0.618493 -0.779963 0.095521 131.022205
DOCKED: USER    NEWDPF dihe0 99.08 101.29 100.50 -53.31 35.80 47.38 40.19 -72.23 178.34 179.22 
DOCKED: USER  keepresnum = 1 
DOCKED: USER  
DOCKED: REMARK  10 active torsions:
DOCKED: REMARK  status: ('A' for Active; 'I' for Inactive)
DOCKED: REMARK    1  A    between atoms: C_6  and  C_10 
DOCKED: REMARK    2  A    between atoms: C_10  and  C_11 
DOCKED: REMARK    3  A    between atoms: C_11  and  C_12 
DOCKED: REMARK    4  A    between atoms: C_12  and  O_14 
DOCKED: REMARK    5  A    between atoms: C_17  and  C_20 
DOCKED: REMARK    6  A    between atoms: C_24  and  C_27 
DOCKED: REMARK    7  A    between atoms: C_31  and  C_34 
DOCKED: REMARK    8  A    between atoms: C_34  and  C_35 
DOCKED: REMARK    9  A    between atoms: C_35  and  C_36 
DOCKED: REMARK   10  A    between atoms: C_36  and  O_38 
DOCKED: USER                              x       y       z     vdW  Elec       q    Type
DOCKED: USER                           _______ _______ _______ _____ _____    ______ ____
DOCKED: ROOT
DOCKED: ATOM      1  C   UNL d   1     -11.925   4.377  11.534 -0.08 -0.00    +0.064 A 
DOCKED: ATOM      2  C   UNL d   1     -12.509   2.086   7.415 -0.18 -0.01    +0.064 A 
DOCKED: ATOM      3  C   UNL d   1     -12.594   6.245   5.008 -0.12 +0.00    +0.064 C 
DOCKED: ATOM      4  C   UNL d   1     -11.515   8.588   9.181 -0.18 -0.01    +0.064 A 
DOCKED: ATOM      5  C   UNL d   1     -12.075   3.414  10.610 -0.11 -0.01    +0.066 A 
DOCKED: ATOM      6  C   UNL d   1     -12.130   2.049  10.904 -0.21 +0.00    -0.021 A 
DOCKED: ATOM      7  C   UNL d   1     -12.255   1.382   9.708 -0.21 +0.00    -0.025 A 
DOCKED: ATOM      8  C   UNL d   1     -12.323   2.361   8.720 -0.20 -0.01    +0.066 A 
DOCKED: ATOM      9  C   UNL d   1     -12.275  -0.123   9.554 -0.20 -0.01    +0.051 C 
DOCKED: ATOM     10  C   UNL d   1     -12.611   3.071   6.337 -0.17 -0.00    +0.066 A 
DOCKED: ATOM     11  C   UNL d   1     -12.968   2.741   5.025 -0.16 +0.00    -0.021 A 
DOCKED: ATOM     12  C   UNL d   1     -13.015   3.929   4.319 -0.15 +0.00    +0.000 A 
DOCKED: ATOM     13  C   UNL d   1     -12.665   4.938   5.260 -0.13 +0.00    +0.070 A 
DOCKED: ATOM     14  C   UNL d   1     -13.277   1.354   4.474 -0.18 -0.01    +0.052 C 
DOCKED: ATOM     15  C   UNL d   1     -12.209   7.293   5.922 -0.13 -0.00    +0.066 A 
DOCKED: ATOM     16  C   UNL d   1     -11.995   8.621   5.556 -0.18 +0.00    -0.021 A 
DOCKED: ATOM     17  C   UNL d   1     -11.685   9.309   6.730 -0.18 -0.00    +0.000 A 
DOCKED: ATOM     18  C   UNL d   1     -11.736   8.335   7.738 -0.19 -0.01    +0.070 A 
DOCKED: ATOM     19  C   UNL d   1     -12.049   9.100   4.127 -0.15 -0.00    +0.052 C 
DOCKED: ATOM     20  C   UNL d   1     -11.514   7.670  10.168 -0.19 -0.00    +0.066 A 
DOCKED: ATOM     21  C   UNL d   1     -11.317   7.971  11.512 -0.18 -0.00    -0.025 A 
DOCKED: ATOM     22  C   UNL d   1     -11.458   6.787  12.201 -0.19 -0.00    -0.021 A 
DOCKED: ATOM     23  C   UNL d   1     -11.719   5.801  11.245 -0.09 +0.00    +0.066 A 
DOCKED: ATOM     24  C   UNL d   1     -11.007   9.319  12.110 -0.16 -0.00    +0.051 C 
DOCKED: ATOM     25  N   UNL d   1     -12.146   3.610   9.271 -0.14 +0.02    -0.248 N 
DOCKED: ATOM     26  N   UNL d   1     -12.416   4.406   6.483 -0.11 +0.00    -0.248 N 
DOCKED: ATOM     27  N   UNL d   1     -11.982   7.105   7.219 -0.13 +0.01    -0.248 N 
DOCKED: ATOM     28  N   UNL d   1     -11.707   6.334  10.006 -0.13 +0.00    -0.248 N 
DOCKED: ATOM     29 FE   UNL d   1     -12.059   5.380   8.256 -0.05 -0.00    +0.000 Fe
DOCKED: ATOM     30  O   UNL d   1     -10.832   4.454   8.012 -0.79 +0.00    +0.000 OA
DOCKED: ATOM     31  O   UNL d   1     -10.619   6.007   8.171 -0.25 +0.00    +0.000 OA
DOCKED: ENDROOT
DOCKED: BRANCH   6  32
DOCKED: ATOM     32  C   UNL d   1     -11.933   1.384  12.242 -0.22 -0.00    +0.052 C 
DOCKED: BRANCH  32  33
DOCKED: ATOM     33  C   UNL d   1     -10.517   0.848  12.434 -0.20 +0.00    +0.115 C 
DOCKED: BRANCH  33  34
DOCKED: ATOM     34  C   UNL d   1     -10.496  -0.470  13.169 -0.29 +0.01    +0.139 C 
DOCKED: ATOM     35  O   UNL d   1      -9.975  -0.538  14.271 -0.07 -0.42    -0.650 OA
DOCKED: BRANCH  34  36
DOCKED: ATOM     36  O   UNL d   1     -11.018  -1.588  12.624 +0.02 +0.24    -0.776 OA
DOCKED: ATOM     37  H   UNL d   1     -10.467  -2.253  12.195 -0.30 -0.17    +0.167 HD
DOCKED: ENDBRANCH  34  36
DOCKED: ENDBRANCH  33  34
DOCKED: ENDBRANCH  32  33
DOCKED: ENDBRANCH   6  32
DOCKED: BRANCH  22  38
DOCKED: ATOM     38  C   UNL d   1     -11.285   6.610  13.688 -0.18 +0.00    +0.052 C 
DOCKED: BRANCH  38  39
DOCKED: ATOM     39  C   UNL d   1      -9.816   6.542  14.099 -0.21 +0.01    +0.115 C 
DOCKED: BRANCH  39  40
DOCKED: ATOM     40  C   UNL d   1      -9.353   7.800  14.792 -0.23 +0.01    +0.139 C 
DOCKED: ATOM     41  O   UNL d   1      -8.162   7.984  14.982 -0.07 -0.03    -0.650 OA
DOCKED: BRANCH  40  42
DOCKED: ATOM     42  O   UNL d   1     -10.230   8.753  15.161 +0.04 -0.00    -0.776 OA
DOCKED: ATOM     43  H   UNL d   1     -10.498   8.863  16.081 +0.02 -0.00    +0.167 HD
DOCKED: ENDBRANCH  40  42
DOCKED: ENDBRANCH  39  40
DOCKED: ENDBRANCH  38  39
DOCKED: ENDBRANCH  22  38
DOCKED: BRANCH  12  44
DOCKED: ATOM     44  C   UNL d   1     -13.379   3.978   2.850 -0.12 +0.00    +0.004 C 
DOCKED: ATOM     45  C   UNL d   1     -12.580   3.783   1.802 -0.19 +0.00    +0.012 C 
DOCKED: ENDBRANCH  12  44
DOCKED: BRANCH  17  46
DOCKED: ATOM     46  C   UNL d   1     -11.301  10.746   6.962 -0.17 -0.00    +0.004 C 
DOCKED: ATOM     47  C   UNL d   1     -10.249  11.412   6.468 -0.22 -0.00    +0.012 C 
DOCKED: ENDBRANCH  17  46
DOCKED: TORSDOF 10
DOCKED: TER
DOCKED: ENDMDL
________________________________________________________________________________


	BEGINNING GENETIC ALGORITHM DOCKING 97 of 100
Run: 97 Seed: 1972180843 789159260 [ Run 97 of 100 GA/GALS ]
Beginning LAMARCKIAN GENETIC ALGORITHM (LGA), with a maximum of 25000000 energy evaluations.

Final-Value: -10.345


	FINAL GENETIC ALGORITHM DOCKED STATE
	_______________________________________________


Detailed state:  trans 8.505 -0.652 16.017 quatxyzw -0.178894 0.326919 -0.924629 -0.078628 center 8.287 34.468 -0.670 ntor 10 -141.0793 4.1547 -41.2443 -150.2902 48.3630 -33.7397 164.0186 -54.8941 7.8370 134.0372
State:	  8.505  -0.652  16.017  -0.179  0.328 -0.928 -170.981   -141.08    4.15  -41.24 -150.29   48.36  -33.74  164.02  -54.89    7.84  134.04

DOCKED: MODEL       97
DOCKED: USER    Run = 97
DOCKED: USER    DPF = D:/Protein_go_brrr/autodock/final/mut_N102T/heme_O2/dock.dpf
DOCKED: USER  
DOCKED: USER    Estimated Free Energy of Binding    =   -6.70 kcal/mol  [=(1)+(2)+(3)-(4)]
DOCKED: USER    Estimated Inhibition Constant, Ki   =   12.24 uM (micromolar)  [Temperature = 298.15 K]
DOCKED: USER    
DOCKED: USER    (1) Final Intermolecular Energy     =   -9.68 kcal/mol
DOCKED: USER        vdW + Hbond + desolv Energy     =   -6.87 kcal/mol
DOCKED: USER        Electrostatic Energy            =   -2.81 kcal/mol
DOCKED: USER    (2) Final Total Internal Energy     =   -0.66 kcal/mol
DOCKED: USER    (3) Torsional Free Energy           =   +2.98 kcal/mol
DOCKED: USER    (4) Unbound System's Energy  [=(2)] =   -0.66 kcal/mol
DOCKED: USER    
DOCKED: USER    
DOCKED: USER    NEWDPF move heme_O2_opt.pdbqt
DOCKED: USER    NEWDPF about 8.287000 34.468000 -0.670000
DOCKED: USER    NEWDPF tran0 8.505206 -0.651619 16.017142
DOCKED: USER    NEWDPF quaternion0 -0.178894 0.326919 -0.924629 -0.078628
DOCKED: USER    NEWDPF axisangle0 -0.179449 0.327934 -0.927500 -170.980621
DOCKED: USER    NEWDPF quat0 -0.179449 0.327934 -0.927500 -170.980621
DOCKED: USER    NEWDPF dihe0 -141.08 4.15 -41.24 -150.29 48.36 -33.74 164.02 -54.89 7.84 134.04 
DOCKED: USER  keepresnum = 1 
DOCKED: USER  
DOCKED: REMARK  10 active torsions:
DOCKED: REMARK  status: ('A' for Active; 'I' for Inactive)
DOCKED: REMARK    1  A    between atoms: C_6  and  C_10 
DOCKED: REMARK    2  A    between atoms: C_10  and  C_11 
DOCKED: REMARK    3  A    between atoms: C_11  and  C_12 
DOCKED: REMARK    4  A    between atoms: C_12  and  O_14 
DOCKED: REMARK    5  A    between atoms: C_17  and  C_20 
DOCKED: REMARK    6  A    between atoms: C_24  and  C_27 
DOCKED: REMARK    7  A    between atoms: C_31  and  C_34 
DOCKED: REMARK    8  A    between atoms: C_34  and  C_35 
DOCKED: REMARK    9  A    between atoms: C_35  and  C_36 
DOCKED: REMARK   10  A    between atoms: C_36  and  O_38 
DOCKED: USER                              x       y       z     vdW  Elec       q    Type
DOCKED: USER                           _______ _______ _______ _____ _____    ______ ____
DOCKED: ROOT
DOCKED: ATOM      1  C   UNL d   1       9.944  -0.166  14.536 -0.14 +0.02    +0.064 A 
DOCKED: ATOM      2  C   UNL d   1      10.198  -0.500  19.267 -0.06 +0.01    +0.064 A 
DOCKED: ATOM      3  C   UNL d   1       5.530  -1.613  19.531 -0.10 -0.01    +0.064 C 
DOCKED: ATOM      4  C   UNL d   1       5.367  -1.740  14.630 -0.17 -0.01    +0.064 A 
DOCKED: ATOM      5  C   UNL d   1      10.394  -0.168  15.801 -0.11 +0.02    +0.066 A 
DOCKED: ATOM      6  C   UNL d   1      11.710   0.134  16.164 -0.08 -0.01    -0.021 A 
DOCKED: ATOM      7  C   UNL d   1      11.795  -0.005  17.530 -0.06 -0.01    -0.025 A 
DOCKED: ATOM      8  C   UNL d   1      10.517  -0.341  17.968 -0.07 +0.02    +0.066 A 
DOCKED: ATOM      9  C   UNL d   1      13.064   0.155  18.338 -0.02 +0.01    +0.051 C 
DOCKED: ATOM     10  C   UNL d   1       8.871  -0.830  19.789 -0.05 +0.01    +0.066 A 
DOCKED: ATOM     11  C   UNL d   1       8.557  -0.823  21.153 -0.04 -0.00    -0.021 A 
DOCKED: ATOM     12  C   UNL d   1       7.211  -1.124  21.249 -0.05 -0.00    +0.000 A 
DOCKED: ATOM     13  C   UNL d   1       6.773  -1.314  19.909 -0.07 -0.00    +0.070 A 
DOCKED: ATOM     14  C   UNL d   1       9.496  -0.516  22.314 -0.02 +0.00    +0.052 C 
DOCKED: ATOM     15  C   UNL d   1       5.054  -1.847  18.189 -0.12 -0.01    +0.066 A 
DOCKED: ATOM     16  C   UNL d   1       3.780  -2.318  17.873 -0.17 +0.00    -0.021 A 
DOCKED: ATOM     17  C   UNL d   1       3.711  -2.363  16.481 -0.25 -0.00    +0.000 A 
DOCKED: ATOM     18  C   UNL d   1       4.964  -1.909  16.046 -0.20 -0.01    +0.070 A 
DOCKED: ATOM     19  C   UNL d   1       2.773  -2.731  18.917 -0.14 -0.02    +0.052 C 
DOCKED: ATOM     20  C   UNL d   1       6.574  -1.348  14.178 -0.25 +0.00    +0.066 A 
DOCKED: ATOM     21  C   UNL d   1       6.889  -1.191  12.831 -0.31 -0.00    -0.025 A 
DOCKED: ATOM     22  C   UNL d   1       8.181  -0.716  12.786 -0.25 -0.00    -0.021 A 
DOCKED: ATOM     23  C   UNL d   1       8.614  -0.619  14.112 -0.18 +0.01    +0.066 A 
DOCKED: ATOM     24  C   UNL d   1       6.004  -1.481  11.647 -0.36 +0.00    +0.051 C 
DOCKED: ATOM     25  N   UNL d   1       9.670  -0.505  16.897 -0.01 -0.10    -0.248 N 
DOCKED: ATOM     26  N   UNL d   1       7.790  -1.137  19.028 -0.07 -0.03    -0.248 N 
DOCKED: ATOM     27  N   UNL d   1       5.791  -1.672  17.096 -0.10 +0.01    -0.248 N 
DOCKED: ATOM     28  N   UNL d   1       7.649  -1.047  14.953 -0.11 -0.04    -0.248 N 
DOCKED: ATOM     29 FE   UNL d   1       7.717  -1.093  16.975 -0.04 +0.00    +0.000 Fe
DOCKED: ATOM     30  O   UNL d   1       8.726  -2.216  17.351 -0.09 +0.00    +0.000 OA
DOCKED: ATOM     31  O   UNL d   1       7.462  -2.563  16.478 -0.11 +0.00    +0.000 OA
DOCKED: ENDROOT
DOCKED: BRANCH   6  32
DOCKED: ATOM     32  C   UNL d   1      12.879   0.409  15.254 -0.05 +0.01    +0.052 C 
DOCKED: BRANCH  32  33
DOCKED: ATOM     33  C   UNL d   1      13.050   1.892  14.940 -0.11 +0.05    +0.115 C 
DOCKED: BRANCH  33  34
DOCKED: ATOM     34  C   UNL d   1      11.802   2.688  15.229 -0.21 +0.10    +0.139 C 
DOCKED: ATOM     35  O   UNL d   1      11.079   3.033  14.307 -0.08 -0.40    -0.650 OA
DOCKED: BRANCH  34  36
DOCKED: ATOM     36  O   UNL d   1      11.477   3.056  16.485 -0.36 -0.92    -0.776 OA
DOCKED: ATOM     37  H   UNL d   1      10.566   3.043  16.802 -0.12 +0.18    +0.167 HD
DOCKED: ENDBRANCH  34  36
DOCKED: ENDBRANCH  33  34
DOCKED: ENDBRANCH  32  33
DOCKED: ENDBRANCH   6  32
DOCKED: BRANCH  22  38
DOCKED: ATOM     38  C   UNL d   1       8.971  -0.436  11.534 -0.19 +0.02    +0.052 C 
DOCKED: BRANCH  38  39
DOCKED: ATOM     39  C   UNL d   1      10.293  -1.200  11.497 -0.18 +0.06    +0.115 C 
DOCKED: BRANCH  39  40
DOCKED: ATOM     40  C   UNL d   1      10.430  -2.055  10.262 -0.12 +0.16    +0.139 C 
DOCKED: ATOM     41  O   UNL d   1      11.247  -1.757   9.406 -0.21 -0.91    -0.650 OA
DOCKED: BRANCH  40  42
DOCKED: ATOM     42  O   UNL d   1       9.699  -3.176  10.107 -0.49 -1.17    -0.776 OA
DOCKED: ATOM     43  H   UNL d   1       9.000  -3.413  10.728 +0.05 +0.13    +0.167 HD
DOCKED: ENDBRANCH  40  42
DOCKED: ENDBRANCH  39  40
DOCKED: ENDBRANCH  38  39
DOCKED: ENDBRANCH  22  38
DOCKED: BRANCH  12  44
DOCKED: ATOM     44  C   UNL d   1       6.497  -1.202  22.582 -0.03 -0.00    +0.004 C 
DOCKED: ATOM     45  C   UNL d   1       5.317  -0.678  22.911 -0.05 -0.00    +0.012 C 
DOCKED: ENDBRANCH  12  44
DOCKED: BRANCH  17  46
DOCKED: ATOM     46  C   UNL d   1       2.618  -2.839  15.561 -0.39 -0.00    +0.004 C 
DOCKED: ATOM     47  C   UNL d   1       2.726  -3.256  14.293 -0.54 -0.00    +0.012 C 
DOCKED: ENDBRANCH  17  46
DOCKED: TORSDOF 10
DOCKED: TER
DOCKED: ENDMDL
________________________________________________________________________________


	BEGINNING GENETIC ALGORITHM DOCKING 98 of 100
Run: 98 Seed: 2038439682 523067802 [ Run 98 of 100 GA/GALS ]
Beginning LAMARCKIAN GENETIC ALGORITHM (LGA), with a maximum of 25000000 energy evaluations.

Final-Value: -9.471


	FINAL GENETIC ALGORITHM DOCKED STATE
	_______________________________________________


Detailed state:  trans 12.509 2.951 14.421 quatxyzw 0.894694 0.270361 0.337365 -0.112303 center 8.287 34.468 -0.670 ntor 10 6.8458 -173.6552 -66.5299 122.9059 134.2364 -167.5249 72.3683 79.1619 -135.0315 159.4730
State:	 12.509   2.951  14.421   0.900  0.272  0.340 -167.104      6.85 -173.66  -66.53  122.91  134.24 -167.52   72.37   79.16 -135.03  159.47

DOCKED: MODEL       98
DOCKED: USER    Run = 98
DOCKED: USER    DPF = D:/Protein_go_brrr/autodock/final/mut_N102T/heme_O2/dock.dpf
DOCKED: USER  
DOCKED: USER    Estimated Free Energy of Binding    =   -4.75 kcal/mol  [=(1)+(2)+(3)-(4)]
DOCKED: USER    Estimated Inhibition Constant, Ki   =  328.79 uM (micromolar)  [Temperature = 298.15 K]
DOCKED: USER    
DOCKED: USER    (1) Final Intermolecular Energy     =   -7.73 kcal/mol
DOCKED: USER        vdW + Hbond + desolv Energy     =   -6.17 kcal/mol
DOCKED: USER        Electrostatic Energy            =   -1.57 kcal/mol
DOCKED: USER    (2) Final Total Internal Energy     =   -1.74 kcal/mol
DOCKED: USER    (3) Torsional Free Energy           =   +2.98 kcal/mol
DOCKED: USER    (4) Unbound System's Energy  [=(2)] =   -1.74 kcal/mol
DOCKED: USER    
DOCKED: USER    
DOCKED: USER    NEWDPF move heme_O2_opt.pdbqt
DOCKED: USER    NEWDPF about 8.287000 34.468000 -0.670000
DOCKED: USER    NEWDPF tran0 12.509301 2.951350 14.421065
DOCKED: USER    NEWDPF quaternion0 0.894694 0.270361 0.337365 -0.112303
DOCKED: USER    NEWDPF axisangle0 0.900390 0.272082 0.339513 -167.103795
DOCKED: USER    NEWDPF quat0 0.900390 0.272082 0.339513 -167.103795
DOCKED: USER    NEWDPF dihe0 6.85 -173.66 -66.53 122.91 134.24 -167.52 72.37 79.16 -135.03 159.47 
DOCKED: USER  keepresnum = 1 
DOCKED: USER  
DOCKED: REMARK  10 active torsions:
DOCKED: REMARK  status: ('A' for Active; 'I' for Inactive)
DOCKED: REMARK    1  A    between atoms: C_6  and  C_10 
DOCKED: REMARK    2  A    between atoms: C_10  and  C_11 
DOCKED: REMARK    3  A    between atoms: C_11  and  C_12 
DOCKED: REMARK    4  A    between atoms: C_12  and  O_14 
DOCKED: REMARK    5  A    between atoms: C_17  and  C_20 
DOCKED: REMARK    6  A    between atoms: C_24  and  C_27 
DOCKED: REMARK    7  A    between atoms: C_31  and  C_34 
DOCKED: REMARK    8  A    between atoms: C_34  and  C_35 
DOCKED: REMARK    9  A    between atoms: C_35  and  C_36 
DOCKED: REMARK   10  A    between atoms: C_36  and  O_38 
DOCKED: USER                              x       y       z     vdW  Elec       q    Type
DOCKED: USER                           _______ _______ _______ _____ _____    ______ ____
DOCKED: ROOT
DOCKED: ATOM      1  C   UNL d   1      11.052   1.421  14.234 -0.21 +0.02    +0.064 A 
DOCKED: ATOM      2  C   UNL d   1      13.139   4.269  11.057 -0.27 +0.02    +0.064 A 
DOCKED: ATOM      3  C   UNL d   1      15.664   6.439  14.523 -0.11 +0.02    +0.064 C 
DOCKED: ATOM      4  C   UNL d   1      13.880   3.194  17.741 -0.08 +0.04    +0.064 A 
DOCKED: ATOM      5  C   UNL d   1      11.415   2.017  13.087 -0.24 +0.02    +0.066 A 
DOCKED: ATOM      6  C   UNL d   1      10.887   1.692  11.834 -0.29 -0.01    -0.021 A 
DOCKED: ATOM      7  C   UNL d   1      11.522   2.486  10.908 -0.42 -0.01    -0.025 A 
DOCKED: ATOM      8  C   UNL d   1      12.385   3.309  11.626 -0.29 +0.02    +0.066 A 
DOCKED: ATOM      9  C   UNL d   1      11.308   2.411   9.412 -0.36 +0.01    +0.051 C 
DOCKED: ATOM     10  C   UNL d   1      14.045   5.178  11.761 -0.20 +0.02    +0.066 A 
DOCKED: ATOM     11  C   UNL d   1      14.678   6.263  11.144 -0.29 -0.00    -0.021 A 
DOCKED: ATOM     12  C   UNL d   1      15.397   6.912  12.131 -0.20 +0.00    +0.000 A 
DOCKED: ATOM     13  C   UNL d   1      15.166   6.162  13.318 -0.13 +0.02    +0.070 A 
DOCKED: ATOM     14  C   UNL d   1      14.580   6.679   9.681 -0.19 +0.01    +0.052 C 
DOCKED: ATOM     15  C   UNL d   1      15.482   5.686  15.740 -0.07 +0.03    +0.066 A 
DOCKED: ATOM     16  C   UNL d   1      16.162   5.935  16.932 -0.05 -0.01    -0.021 A 
DOCKED: ATOM     17  C   UNL d   1      15.670   5.021  17.865 -0.05 +0.00    +0.000 A 
DOCKED: ATOM     18  C   UNL d   1      14.714   4.274  17.162 -0.07 +0.05    +0.070 A 
DOCKED: ATOM     19  C   UNL d   1      17.247   6.974  17.059 -0.01 +0.01    +0.052 C 
DOCKED: ATOM     20  C   UNL d   1      12.985   2.430  17.086 -0.12 +0.04    +0.066 A 
DOCKED: ATOM     21  C   UNL d   1      12.216   1.438  17.689 -0.11 -0.01    -0.025 A 
DOCKED: ATOM     22  C   UNL d   1      11.385   0.941  16.710 -0.14 -0.01    -0.021 A 
DOCKED: ATOM     23  C   UNL d   1      11.692   1.638  15.537 -0.19 +0.03    +0.066 A 
DOCKED: ATOM     24  C   UNL d   1      12.274   0.986  19.125 -0.05 +0.01    +0.051 C 
DOCKED: ATOM     25  N   UNL d   1      12.367   2.974  12.961 -0.16 -0.10    -0.248 N 
DOCKED: ATOM     26  N   UNL d   1      14.346   5.106  13.082 -0.09 -0.11    -0.248 N 
DOCKED: ATOM     27  N   UNL d   1      14.667   4.642  15.856 -0.04 -0.18    -0.248 N 
DOCKED: ATOM     28  N   UNL d   1      12.696   2.510  15.760 -0.11 -0.16    -0.248 N 
DOCKED: ATOM     29 FE   UNL d   1      13.517   3.799  14.433 -0.04 +0.00    +0.000 Fe
DOCKED: ATOM     30  O   UNL d   1      14.320   2.930  13.421 -0.11 +0.00    +0.000 OA
DOCKED: ATOM     31  O   UNL d   1      14.668   2.865  14.956 -0.08 +0.00    +0.000 OA
DOCKED: ENDROOT
DOCKED: BRANCH   6  32
DOCKED: ATOM     32  C   UNL d   1       9.923   0.583  11.499 -0.26 +0.02    +0.052 C 
DOCKED: BRANCH  32  33
DOCKED: ATOM     33  C   UNL d   1      10.368  -0.772  12.040 -0.17 +0.04    +0.115 C 
DOCKED: BRANCH  33  34
DOCKED: ATOM     34  C   UNL d   1      10.802  -1.714  10.945 -0.17 +0.10    +0.139 C 
DOCKED: ATOM     35  O   UNL d   1      10.490  -1.480   9.788 -0.41 -0.70    -0.650 OA
DOCKED: BRANCH  34  36
DOCKED: ATOM     36  O   UNL d   1      11.508  -2.832  11.217 -0.00 -0.73    -0.776 OA
DOCKED: ATOM     37  H   UNL d   1      11.674  -3.123  12.120 +0.02 +0.10    +0.167 HD
DOCKED: ENDBRANCH  34  36
DOCKED: ENDBRANCH  33  34
DOCKED: ENDBRANCH  32  33
DOCKED: ENDBRANCH   6  32
DOCKED: BRANCH  22  38
DOCKED: ATOM     38  C   UNL d   1      10.400  -0.186  16.884 -0.09 +0.02    +0.052 C 
DOCKED: BRANCH  38  39
DOCKED: ATOM     39  C   UNL d   1      10.947  -1.521  16.384 -0.04 +0.02    +0.115 C 
DOCKED: BRANCH  39  40
DOCKED: ATOM     40  C   UNL d   1      10.396  -1.900  15.032 -0.03 +0.03    +0.139 C 
DOCKED: ATOM     41  O   UNL d   1       9.336  -1.427  14.656 +0.01 -0.14    -0.650 OA
DOCKED: BRANCH  40  42
DOCKED: ATOM     42  O   UNL d   1      11.081  -2.714  14.206 +0.04 -0.19    -0.776 OA
DOCKED: ATOM     43  H   UNL d   1      10.801  -2.858  13.294 +0.02 +0.06    +0.167 HD
DOCKED: ENDBRANCH  40  42
DOCKED: ENDBRANCH  39  40
DOCKED: ENDBRANCH  38  39
DOCKED: ENDBRANCH  22  38
DOCKED: BRANCH  12  44
DOCKED: ATOM     44  C   UNL d   1      16.216   8.153  11.845 -0.16 +0.00    +0.004 C 
DOCKED: ATOM     45  C   UNL d   1      15.963   9.405  12.223 -0.15 +0.00    +0.012 C 
DOCKED: ENDBRANCH  12  44
DOCKED: BRANCH  17  46
DOCKED: ATOM     46  C   UNL d   1      16.058   4.765  19.297 -0.01 +0.00    +0.004 C 
DOCKED: ATOM     47  C   UNL d   1      15.311   4.923  20.398 -0.01 +0.00    +0.012 C 
DOCKED: ENDBRANCH  17  46
DOCKED: TORSDOF 10
DOCKED: TER
DOCKED: ENDMDL
________________________________________________________________________________


	BEGINNING GENETIC ALGORITHM DOCKING 99 of 100
Run: 99 Seed: 1621090827 518308586 [ Run 99 of 100 GA/GALS ]
Beginning LAMARCKIAN GENETIC ALGORITHM (LGA), with a maximum of 25000000 energy evaluations.

Final-Value: -8.918


	FINAL GENETIC ALGORITHM DOCKED STATE
	_______________________________________________


Detailed state:  trans -12.964 5.227 7.409 quatxyzw -0.498930 0.076556 -0.640117 -0.579188 center 8.287 34.468 -0.670 ntor 10 -83.5567 19.8758 25.4367 -1.6342 -99.6461 68.2579 -143.9892 -86.2333 179.9597 -180.0000
State:	-12.964   5.227   7.409  -0.612  0.094 -0.785 -109.213    -83.56   19.88   25.44   -1.63  -99.65   68.26 -143.99  -86.23  179.96 -180.00

DOCKED: MODEL       99
DOCKED: USER    Run = 99
DOCKED: USER    DPF = D:/Protein_go_brrr/autodock/final/mut_N102T/heme_O2/dock.dpf
DOCKED: USER  
DOCKED: USER    Estimated Free Energy of Binding    =   -5.32 kcal/mol  [=(1)+(2)+(3)-(4)]
DOCKED: USER    Estimated Inhibition Constant, Ki   =  125.48 uM (micromolar)  [Temperature = 298.15 K]
DOCKED: USER    
DOCKED: USER    (1) Final Intermolecular Energy     =   -8.31 kcal/mol
DOCKED: USER        vdW + Hbond + desolv Energy     =   -7.63 kcal/mol
DOCKED: USER        Electrostatic Energy            =   -0.67 kcal/mol
DOCKED: USER    (2) Final Total Internal Energy     =   -0.61 kcal/mol
DOCKED: USER    (3) Torsional Free Energy           =   +2.98 kcal/mol
DOCKED: USER    (4) Unbound System's Energy  [=(2)] =   -0.61 kcal/mol
DOCKED: USER    
DOCKED: USER    
DOCKED: USER    NEWDPF move heme_O2_opt.pdbqt
DOCKED: USER    NEWDPF about 8.287000 34.468000 -0.670000
DOCKED: USER    NEWDPF tran0 -12.964027 5.227063 7.408791
DOCKED: USER    NEWDPF quaternion0 -0.498930 0.076556 -0.640117 -0.579188
DOCKED: USER    NEWDPF axisangle0 -0.612038 0.093911 -0.785232 -109.213132
DOCKED: USER    NEWDPF quat0 -0.612038 0.093911 -0.785232 -109.213132
DOCKED: USER    NEWDPF dihe0 -83.56 19.88 25.44 -1.63 -99.65 68.26 -143.99 -86.23 179.96 -180.00 
DOCKED: USER  keepresnum = 1 
DOCKED: USER  
DOCKED: REMARK  10 active torsions:
DOCKED: REMARK  status: ('A' for Active; 'I' for Inactive)
DOCKED: REMARK    1  A    between atoms: C_6  and  C_10 
DOCKED: REMARK    2  A    between atoms: C_10  and  C_11 
DOCKED: REMARK    3  A    between atoms: C_11  and  C_12 
DOCKED: REMARK    4  A    between atoms: C_12  and  O_14 
DOCKED: REMARK    5  A    between atoms: C_17  and  C_20 
DOCKED: REMARK    6  A    between atoms: C_24  and  C_27 
DOCKED: REMARK    7  A    between atoms: C_31  and  C_34 
DOCKED: REMARK    8  A    between atoms: C_34  and  C_35 
DOCKED: REMARK    9  A    between atoms: C_35  and  C_36 
DOCKED: REMARK   10  A    between atoms: C_36  and  O_38 
DOCKED: USER                              x       y       z     vdW  Elec       q    Type
DOCKED: USER                           _______ _______ _______ _____ _____    ______ ____
DOCKED: ROOT
DOCKED: ATOM      1  C   UNL d   1     -13.461   6.182   5.581 -0.09 -0.00    +0.064 A 
DOCKED: ATOM      2  C   UNL d   1     -12.380   7.865   9.889 -0.10 -0.00    +0.064 A 
DOCKED: ATOM      3  C   UNL d   1     -11.910   3.405  11.615 -0.16 -0.00    +0.064 C 
DOCKED: ATOM      4  C   UNL d   1     -12.552   1.666   7.073 -0.18 -0.01    +0.064 A 
DOCKED: ATOM      5  C   UNL d   1     -13.204   7.003   6.611 -0.09 -0.00    +0.066 A 
DOCKED: ATOM      6  C   UNL d   1     -13.258   8.398   6.533 -0.07 +0.00    -0.021 A 
DOCKED: ATOM      7  C   UNL d   1     -12.903   8.887   7.768 -0.07 +0.00    -0.025 A 
DOCKED: ATOM      8  C   UNL d   1     -12.688   7.777   8.580 -0.09 -0.00    +0.066 A 
DOCKED: ATOM      9  C   UNL d   1     -12.758  10.354   8.108 -0.06 -0.00    +0.051 C 
DOCKED: ATOM     10  C   UNL d   1     -12.165   6.737  10.796 -0.13 -0.00    +0.066 A 
DOCKED: ATOM     11  C   UNL d   1     -12.010   6.882  12.179 -0.13 -0.00    -0.021 A 
DOCKED: ATOM     12  C   UNL d   1     -11.891   5.605  12.697 -0.17 +0.00    +0.000 A 
DOCKED: ATOM     13  C   UNL d   1     -11.970   4.736  11.575 -0.11 -0.00    +0.070 A 
DOCKED: ATOM     14  C   UNL d   1     -12.002   8.181  12.976 -0.08 -0.00    +0.052 C 
DOCKED: ATOM     15  C   UNL d   1     -11.951   2.491  10.499 -0.19 -0.01    +0.066 A 
DOCKED: ATOM     16  C   UNL d   1     -11.719   1.119  10.591 -0.22 +0.00    -0.021 A 
DOCKED: ATOM     17  C   UNL d   1     -11.895   0.603   9.307 -0.25 -0.00    +0.000 A 
DOCKED: ATOM     18  C   UNL d   1     -12.229   1.712   8.519 -0.20 -0.01    +0.070 A 
DOCKED: ATOM     19  C   UNL d   1     -11.299   0.440  11.870 -0.29 -0.01    +0.052 C 
DOCKED: ATOM     20  C   UNL d   1     -12.834   2.717   6.278 -0.15 -0.01    +0.066 A 
DOCKED: ATOM     21  C   UNL d   1     -13.148   2.609   4.926 -0.15 +0.00    -0.025 A 
DOCKED: ATOM     22  C   UNL d   1     -13.437   3.883   4.490 -0.10 -0.00    -0.021 A 
DOCKED: ATOM     23  C   UNL d   1     -13.270   4.727   5.593 -0.10 -0.00    +0.066 A 
DOCKED: ATOM     24  C   UNL d   1     -13.168   1.355   4.091 -0.07 -0.00    +0.051 C 
DOCKED: ATOM     25  N   UNL d   1     -12.810   6.618   7.850 -0.07 +0.01    -0.248 N 
DOCKED: ATOM     26  N   UNL d   1     -12.133   5.433  10.422 -0.11 +0.01    -0.248 N 
DOCKED: ATOM     27  N   UNL d   1     -12.185   2.860   9.242 -0.15 +0.02    -0.248 N 
DOCKED: ATOM     28  N   UNL d   1     -12.859   4.019   6.666 -0.08 +0.01    -0.248 N 
DOCKED: ATOM     29 FE   UNL d   1     -12.498   4.718   8.531 -0.04 -0.00    +0.000 Fe
DOCKED: ATOM     30  O   UNL d   1     -11.200   5.571   8.431 -0.45 +0.00    +0.000 OA
DOCKED: ATOM     31  O   UNL d   1     -11.171   4.053   8.011 -0.75 +0.00    +0.000 OA
DOCKED: ENDROOT
DOCKED: BRANCH   6  32
DOCKED: ATOM     32  C   UNL d   1     -13.500   9.245   5.310 -0.05 -0.00    +0.052 C 
DOCKED: BRANCH  32  33
DOCKED: ATOM     33  C   UNL d   1     -12.208   9.739   4.667 -0.10 -0.01    +0.115 C 
DOCKED: BRANCH  33  34
DOCKED: ATOM     34  C   UNL d   1     -11.084   8.741   4.794 -0.22 -0.01    +0.139 C 
DOCKED: ATOM     35  O   UNL d   1     -10.692   8.144   3.805 -0.03 +0.00    -0.650 OA
DOCKED: BRANCH  34  36
DOCKED: ATOM     36  O   UNL d   1     -10.516   8.470   5.988 -0.00 +0.16    -0.776 OA
DOCKED: ATOM     37  H   UNL d   1      -9.819   9.023   6.360 -0.43 -0.10    +0.167 HD
DOCKED: ENDBRANCH  34  36
DOCKED: ENDBRANCH  33  34
DOCKED: ENDBRANCH  32  33
DOCKED: ENDBRANCH   6  32
DOCKED: BRANCH  22  38
DOCKED: ATOM     38  C   UNL d   1     -13.789   4.270   3.077 -0.07 +0.00    +0.052 C 
DOCKED: BRANCH  38  39
DOCKED: ATOM     39  C   UNL d   1     -12.562   4.345   2.171 -0.14 +0.02    +0.115 C 
DOCKED: BRANCH  39  40
DOCKED: ATOM     40  C   UNL d   1     -12.297   3.045   1.452 -0.18 +0.06    +0.139 C 
DOCKED: ATOM     41  O   UNL d   1     -11.149   2.714   1.203 -0.22 -0.40    -0.650 OA
DOCKED: BRANCH  40  42
DOCKED: ATOM     42  O   UNL d   1     -13.304   2.213   1.124 -0.42 -0.44    -0.776 OA
DOCKED: ATOM     43  H   UNL d   1     -14.211   2.530   1.033 +0.02 +0.05    +0.167 HD
DOCKED: ENDBRANCH  40  42
DOCKED: ENDBRANCH  39  40
DOCKED: ENDBRANCH  38  39
DOCKED: ENDBRANCH  22  38
DOCKED: BRANCH  12  44
DOCKED: ATOM     44  C   UNL d   1     -11.713   5.353  14.180 -0.15 +0.00    +0.004 C 
DOCKED: ATOM     45  C   UNL d   1     -11.215   4.268  14.772 -0.17 +0.00    +0.012 C 
DOCKED: ENDBRANCH  12  44
DOCKED: BRANCH  17  46
DOCKED: ATOM     46  C   UNL d   1     -11.724  -0.794   8.772 -0.28 -0.00    +0.004 C 
DOCKED: ATOM     47  C   UNL d   1     -11.207  -1.862   9.394 -0.33 -0.01    +0.012 C 
DOCKED: ENDBRANCH  17  46
DOCKED: TORSDOF 10
DOCKED: TER
DOCKED: ENDMDL
________________________________________________________________________________


	BEGINNING GENETIC ALGORITHM DOCKING 100 of 100
Run: 100 Seed: 1186154597 63873642 [ Run 100 of 100 GA/GALS ]
Beginning LAMARCKIAN GENETIC ALGORITHM (LGA), with a maximum of 25000000 energy evaluations.

Final-Value: -10.441


	FINAL GENETIC ALGORITHM DOCKED STATE
	_______________________________________________


Detailed state:  trans 12.575 -3.291 11.250 quatxyzw -0.546949 -0.638030 0.412696 -0.351350 center 8.287 34.468 -0.670 ntor 10 -3.1528 178.3435 -95.2213 68.9190 65.6919 123.2871 -167.0843 116.5657 179.9760 174.2095
State:	 12.575  -3.291  11.250  -0.584 -0.681  0.441 -138.860     -3.15  178.34  -95.22   68.92   65.69  123.29 -167.08  116.57  179.98  174.21

DOCKED: MODEL      100
DOCKED: USER    Run = 100
DOCKED: USER    DPF = D:/Protein_go_brrr/autodock/final/mut_N102T/heme_O2/dock.dpf
DOCKED: USER  
DOCKED: USER    Estimated Free Energy of Binding    =   -5.21 kcal/mol  [=(1)+(2)+(3)-(4)]
DOCKED: USER    Estimated Inhibition Constant, Ki   =  152.16 uM (micromolar)  [Temperature = 298.15 K]
DOCKED: USER    
DOCKED: USER    (1) Final Intermolecular Energy     =   -8.19 kcal/mol
DOCKED: USER        vdW + Hbond + desolv Energy     =   -5.73 kcal/mol
DOCKED: USER        Electrostatic Energy            =   -2.46 kcal/mol
DOCKED: USER    (2) Final Total Internal Energy     =   -2.25 kcal/mol
DOCKED: USER    (3) Torsional Free Energy           =   +2.98 kcal/mol
DOCKED: USER    (4) Unbound System's Energy  [=(2)] =   -2.25 kcal/mol
DOCKED: USER    
DOCKED: USER    
DOCKED: USER    NEWDPF move heme_O2_opt.pdbqt
DOCKED: USER    NEWDPF about 8.287000 34.468000 -0.670000
DOCKED: USER    NEWDPF tran0 12.574674 -3.291350 11.250262
DOCKED: USER    NEWDPF quaternion0 -0.546949 -0.638030 0.412696 -0.351350
DOCKED: USER    NEWDPF axisangle0 -0.584195 -0.681478 0.440799 -138.860124
DOCKED: USER    NEWDPF quat0 -0.584195 -0.681478 0.440799 -138.860124
DOCKED: USER    NEWDPF dihe0 -3.15 178.34 -95.22 68.92 65.69 123.29 -167.08 116.57 179.98 174.21 
DOCKED: USER  keepresnum = 1 
DOCKED: USER  
DOCKED: REMARK  10 active torsions:
DOCKED: REMARK  status: ('A' for Active; 'I' for Inactive)
DOCKED: REMARK    1  A    between atoms: C_6  and  C_10 
DOCKED: REMARK    2  A    between atoms: C_10  and  C_11 
DOCKED: REMARK    3  A    between atoms: C_11  and  C_12 
DOCKED: REMARK    4  A    between atoms: C_12  and  O_14 
DOCKED: REMARK    5  A    between atoms: C_17  and  C_20 
DOCKED: REMARK    6  A    between atoms: C_24  and  C_27 
DOCKED: REMARK    7  A    between atoms: C_31  and  C_34 
DOCKED: REMARK    8  A    between atoms: C_34  and  C_35 
DOCKED: REMARK    9  A    between atoms: C_35  and  C_36 
DOCKED: REMARK   10  A    between atoms: C_36  and  O_38 
DOCKED: USER                              x       y       z     vdW  Elec       q    Type
DOCKED: USER                           _______ _______ _______ _____ _____    ______ ____
DOCKED: ROOT
DOCKED: ATOM      1  C   UNL d   1      13.830  -4.988  11.038 -0.04 +0.04    +0.064 A 
DOCKED: ATOM      2  C   UNL d   1       9.200  -4.521  11.989 -0.13 +0.03    +0.064 A 
DOCKED: ATOM      3  C   UNL d   1       9.561   0.269  11.856 -0.25 +0.02    +0.064 C 
DOCKED: ATOM      4  C   UNL d   1      14.223  -0.205  10.405 -0.04 +0.02    +0.064 A 
DOCKED: ATOM      5  C   UNL d   1      12.540  -5.252  11.305 -0.05 +0.06    +0.066 A 
DOCKED: ATOM      6  C   UNL d   1      12.020  -6.541  11.453 -0.07 -0.01    -0.021 A 
DOCKED: ATOM      7  C   UNL d   1      10.671  -6.408  11.686 -0.12 -0.01    -0.025 A 
DOCKED: ATOM      8  C   UNL d   1      10.413  -5.041  11.722 -0.10 +0.05    +0.066 A 
DOCKED: ATOM      9  C   UNL d   1       9.700  -7.560  11.832 +0.00 +0.02    +0.051 C 
DOCKED: ATOM     10  C   UNL d   1       8.874  -3.096  12.063 -0.13 +0.03    +0.066 A 
DOCKED: ATOM     11  C   UNL d   1       7.638  -2.611  12.505 -0.19 -0.00    -0.021 A 
DOCKED: ATOM     12  C   UNL d   1       7.728  -1.232  12.490 -0.27 +0.00    +0.000 A 
DOCKED: ATOM     13  C   UNL d   1       9.040  -0.947  12.019 -0.19 +0.02    +0.070 A 
DOCKED: ATOM     14  C   UNL d   1       6.431  -3.430  12.948 +0.03 +0.01    +0.052 C 
DOCKED: ATOM     15  C   UNL d   1      10.871   0.600  11.349 -0.23 +0.02    +0.066 A 
DOCKED: ATOM     16  C   UNL d   1      11.298   1.893  11.047 -0.37 -0.01    -0.021 A 
DOCKED: ATOM     17  C   UNL d   1      12.624   1.783  10.630 -0.23 +0.00    +0.000 A 
DOCKED: ATOM     18  C   UNL d   1      12.911   0.413  10.712 -0.10 +0.02    +0.070 A 
DOCKED: ATOM     19  C   UNL d   1      10.395   3.098  11.129 -0.26 +0.01    +0.052 C 
DOCKED: ATOM     20  C   UNL d   1      14.520  -1.518  10.431 -0.04 +0.03    +0.066 A 
DOCKED: ATOM     21  C   UNL d   1      15.780  -2.040  10.149 -0.02 -0.01    -0.025 A 
DOCKED: ATOM     22  C   UNL d   1      15.693  -3.399  10.351 -0.02 -0.01    -0.021 A 
DOCKED: ATOM     23  C   UNL d   1      14.374  -3.660  10.733 -0.04 +0.04    +0.066 A 
DOCKED: ATOM     24  C   UNL d   1      17.003  -1.279   9.706 -0.01 +0.01    +0.051 C 
DOCKED: ATOM     25  N   UNL d   1      11.553  -4.330  11.422 -0.05 -0.24    -0.248 N 
DOCKED: ATOM     26  N   UNL d   1       9.728  -2.087  11.757 -0.09 -0.12    -0.248 N 
DOCKED: ATOM     27  N   UNL d   1      11.814  -0.298  11.077 -0.07 -0.11    -0.248 N 
DOCKED: ATOM     28  N   UNL d   1      13.653  -2.520  10.736 -0.04 -0.18    -0.248 N 
DOCKED: ATOM     29 FE   UNL d   1      11.705  -2.302  11.242 -0.02 +0.00    +0.000 Fe
DOCKED: ATOM     30  O   UNL d   1      10.883  -2.974  10.104 -0.12 +0.00    +0.000 OA
DOCKED: ATOM     31  O   UNL d   1      11.868  -1.793   9.763 -0.31 +0.00    +0.000 OA
DOCKED: ENDROOT
DOCKED: BRANCH   6  32
DOCKED: ATOM     32  C   UNL d   1      12.731  -7.853  11.248 -0.04 +0.02    +0.052 C 
DOCKED: BRANCH  32  33
DOCKED: ATOM     33  C   UNL d   1      12.504  -8.439   9.858 -0.06 +0.06    +0.115 C 
DOCKED: BRANCH  33  34
DOCKED: ATOM     34  C   UNL d   1      11.838  -7.461   8.923 -0.03 +0.15    +0.139 C 
DOCKED: ATOM     35  O   UNL d   1      10.621  -7.364   8.918 -0.36 -0.70    -0.650 OA
DOCKED: BRANCH  34  36
DOCKED: ATOM     36  O   UNL d   1      12.557  -6.705   8.067 -0.25 -1.30    -0.776 OA
DOCKED: ATOM     37  H   UNL d   1      13.521  -6.731   8.049 +0.00 +0.17    +0.167 HD
DOCKED: ENDBRANCH  34  36
DOCKED: ENDBRANCH  33  34
DOCKED: ENDBRANCH  32  33
DOCKED: ENDBRANCH   6  32
DOCKED: BRANCH  22  38
DOCKED: ATOM     38  C   UNL d   1      16.803  -4.393  10.125 -0.00 +0.01    +0.052 C 
DOCKED: BRANCH  38  39
DOCKED: ATOM     39  C   UNL d   1      16.903  -4.831   8.665 -0.01 +0.03    +0.115 C 
DOCKED: BRANCH  39  40
DOCKED: ATOM     40  C   UNL d   1      15.681  -5.586   8.205 -0.04 +0.06    +0.139 C 
DOCKED: ATOM     41  O   UNL d   1      15.654  -6.803   8.289 +0.01 -0.23    -0.650 OA
DOCKED: BRANCH  40  42
DOCKED: ATOM     42  O   UNL d   1      14.593  -4.936   7.749 -0.04 -0.69    -0.776 OA
DOCKED: ATOM     43  H   UNL d   1      13.802  -5.411   7.467 +0.00 +0.22    +0.167 HD
DOCKED: ENDBRANCH  40  42
DOCKED: ENDBRANCH  39  40
DOCKED: ENDBRANCH  38  39
DOCKED: ENDBRANCH  22  38
DOCKED: BRANCH  12  44
DOCKED: ATOM     44  C   UNL d   1       6.576  -0.346  12.916 -0.39 +0.00    +0.004 C 
DOCKED: ATOM     45  C   UNL d   1       6.207  -0.023  14.155 -0.49 -0.00    +0.012 C 
DOCKED: ENDBRANCH  12  44
DOCKED: BRANCH  17  46
DOCKED: ATOM     46  C   UNL d   1      13.591   2.820  10.124 -0.23 +0.00    +0.004 C 
DOCKED: ATOM     47  C   UNL d   1      14.066   3.894  10.767 -0.24 +0.00    +0.012 C 
DOCKED: ENDBRANCH  17  46
DOCKED: TORSDOF 10
DOCKED: TER
DOCKED: ENDMDL
________________________________________________________________________________

DPF> analysis                             # perform a ranked cluster analysis


		CLUSTER ANALYSIS OF CONFORMATIONS
		_________________________________

Number of conformations = 100

RMSD cluster analysis will be performed using the ligand atoms only (47 / 47 total atoms).

Outputting structurally similar clusters, ranked in order of increasing energy.


________________________________________________________________________________

Number of distinct conformational clusters found = 61,  out of 100 runs,
Using an rmsd-tolerance of 2.0 A


	CLUSTERING HISTOGRAM
	____________________

________________________________________________________________________________
     |           |     |           |     |                                    
Clus | Lowest    | Run | Mean      | Num | Histogram                          
-ter | Binding   |     | Binding   | in  |                                    
Rank | Energy    |     | Energy    | Clus|    5    10   15   20   25   30   35
_____|___________|_____|___________|_____|____:____|____:____|____:____|____:___
   1 |     -7.81 |  49 |     -7.13 |   9 |#########
   2 |     -7.33 |  45 |     -7.33 |   1 |#
   3 |     -6.86 |   8 |     -6.83 |   2 |##
   4 |     -6.72 |  43 |     -5.94 |   3 |###
   5 |     -6.57 |  28 |     -6.29 |   4 |####
   6 |     -6.34 |  67 |     -5.63 |   3 |###
   7 |     -6.32 |  19 |     -6.10 |   2 |##
   8 |     -6.29 |  53 |     -6.29 |   1 |#
   9 |     -6.14 |  92 |     -6.14 |   1 |#
  10 |     -6.12 |  46 |     -6.12 |   1 |#
  11 |     -6.02 |  57 |     -5.50 |   3 |###
  12 |     -6.02 |  58 |     -5.43 |   2 |##
  13 |     -5.96 |  31 |     -5.96 |   1 |#
  14 |     -5.87 |  62 |     -5.87 |   1 |#
  15 |     -5.81 |  20 |     -5.67 |   2 |##
  16 |     -5.73 |  89 |     -5.73 |   1 |#
  17 |     -5.65 |  69 |     -5.65 |   1 |#
  18 |     -5.59 |  88 |     -5.59 |   1 |#
  19 |     -5.50 |  32 |     -5.11 |   2 |##
  20 |     -5.49 |  95 |     -5.49 |   1 |#
  21 |     -5.47 |  15 |     -5.47 |   1 |#
  22 |     -5.43 |  73 |     -5.41 |   2 |##
  23 |     -5.43 |  50 |     -5.09 |   2 |##
  24 |     -5.36 |  22 |     -5.30 |   2 |##
  25 |     -5.28 |  96 |     -5.05 |   4 |####
  26 |     -5.26 |  60 |     -5.20 |   3 |###
  27 |     -5.21 | 100 |     -5.21 |   1 |#
  28 |     -5.19 |  18 |     -5.19 |   1 |#
  29 |     -5.19 |  35 |     -5.19 |   1 |#
  30 |     -5.06 |  24 |     -4.78 |   3 |###
  31 |     -5.05 |   1 |     -5.05 |   1 |#
  32 |     -5.01 |  44 |     -5.01 |   1 |#
  33 |     -4.85 |  71 |     -4.33 |   3 |###
  34 |     -4.83 |  87 |     -4.83 |   1 |#
  35 |     -4.73 |  41 |     -4.73 |   1 |#
  36 |     -4.71 |   2 |     -4.71 |   1 |#
  37 |     -4.70 |  83 |     -4.66 |   2 |##
  38 |     -4.63 |  72 |     -4.63 |   1 |#
  39 |     -4.49 |   7 |     -4.49 |   1 |#
  40 |     -4.48 |  48 |     -4.48 |   1 |#
  41 |     -4.47 |  78 |     -4.47 |   1 |#
  42 |     -4.38 |   4 |     -4.38 |   1 |#
  43 |     -4.38 |  64 |     -4.38 |   1 |#
  44 |     -4.37 |  79 |     -4.37 |   1 |#
  45 |     -4.34 |   9 |     -4.34 |   1 |#
  46 |     -4.14 |  16 |     -4.14 |   1 |#
  47 |     -4.13 |  81 |     -4.13 |   1 |#
  48 |     -4.11 |  86 |     -4.11 |   1 |#
  49 |     -4.10 |  34 |     -4.10 |   1 |#
  50 |     -4.10 |  84 |     -4.10 |   1 |#
  51 |     -3.96 |  70 |     -3.96 |   1 |#
  52 |     -3.94 |  37 |     -3.94 |   1 |#
  53 |     -3.90 |   5 |     -3.90 |   1 |#
  54 |     -3.88 |  26 |     -3.77 |   5 |#####
  55 |     -3.88 |  25 |     -3.88 |   1 |#
  56 |     -3.75 |  59 |     -3.75 |   1 |#
  57 |     -3.69 |  80 |     -3.69 |   1 |#
  58 |     -3.66 |  17 |     -3.66 |   1 |#
  59 |     -3.50 |  21 |     -3.50 |   1 |#
  60 |     -3.46 |  12 |     -3.46 |   1 |#
  61 |     -3.35 |  42 |     -3.35 |   1 |#
_____|___________|_____|___________|_____|______________________________________


Number of multi-member conformational clusters found = 19, out of 100 runs.

	RMSD TABLE
	__________

_____________________________________________________________________
     |      |      |           |         |                 |
Rank | Sub- | Run  | Binding   | Cluster | Reference       | Grep
     | Rank |      | Energy    | RMSD    | RMSD            | Pattern
_____|______|______|___________|_________|_________________|___________
   1      1     49       -7.81      0.00     36.51           RANKING
   1      2     54       -7.50      0.58     36.31           RANKING
   1      3     23       -7.46      1.08     36.48           RANKING
   1      4     52       -7.37      1.01     36.49           RANKING
   1      5      3       -7.36      1.11     36.50           RANKING
   1      6     90       -7.33      1.35     36.28           RANKING
   1      7     97       -6.70      1.74     35.78           RANKING
   1      8     75       -6.41      1.46     36.21           RANKING
   1      9     29       -6.22      1.53     36.77           RANKING
   2      1     45       -7.33      0.00     36.36           RANKING
   3      1      8       -6.86      0.00     50.50           RANKING
   3      2     93       -6.81      0.56     50.51           RANKING
   4      1     43       -6.72      0.00     30.36           RANKING
   4      2     91       -5.66      0.74     30.52           RANKING
   4      3     38       -5.45      0.83     30.70           RANKING
   5      1     28       -6.57      0.00     39.47           RANKING
   5      2     33       -6.49      0.85     38.89           RANKING
   5      3     51       -6.46      1.11     38.81           RANKING
   5      4     11       -5.66      1.10     39.18           RANKING
   6      1     67       -6.34      0.00     35.47           RANKING
   6      2     77       -5.89      1.51     36.34           RANKING
   6      3     82       -4.66      1.87     34.63           RANKING
   7      1     19       -6.32      0.00     40.75           RANKING
   7      2     55       -5.88      1.57     39.58           RANKING
   8      1     53       -6.29      0.00     53.34           RANKING
   9      1     92       -6.14      0.00     16.80           RANKING
  10      1     46       -6.12      0.00     35.47           RANKING
  11      1     57       -6.02      0.00     34.01           RANKING
  11      2     99       -5.32      1.40     33.97           RANKING
  11      3     36       -5.16      1.02     33.74           RANKING
  12      1     58       -6.02      0.00     33.47           RANKING
  12      2     39       -4.85      1.24     34.10           RANKING
  13      1     31       -5.96      0.00     30.07           RANKING
  14      1     62       -5.87      0.00     36.78           RANKING
  15      1     20       -5.81      0.00     26.27           RANKING
  15      2     68       -5.52      1.58     25.85           RANKING
  16      1     89       -5.73      0.00     21.58           RANKING
  17      1     69       -5.65      0.00     23.87           RANKING
  18      1     88       -5.59      0.00     52.04           RANKING
  19      1     32       -5.50      0.00     24.82           RANKING
  19      2     13       -4.71      1.73     26.06           RANKING
  20      1     95       -5.49      0.00     44.68           RANKING
  21      1     15       -5.47      0.00     50.97           RANKING
  22      1     73       -5.43      0.00     53.89           RANKING
  22      2     65       -5.40      0.78     54.10           RANKING
  23      1     50       -5.43      0.00     31.88           RANKING
  23      2     98       -4.75      1.03     32.03           RANKING
  24      1     22       -5.36      0.00     33.10           RANKING
  24      2     76       -5.25      1.01     33.03           RANKING
  25      1     96       -5.28      0.00     34.01           RANKING
  25      2     61       -4.99      1.23     33.46           RANKING
  25      3     40       -4.97      1.14     33.49           RANKING
  25      4     47       -4.94      1.85     33.59           RANKING
  26      1     60       -5.26      0.00     33.20           RANKING
  26      2     63       -5.21      0.29     33.24           RANKING
  26      3     85       -5.12      0.41     33.30           RANKING
  27      1    100       -5.21      0.00     36.26           RANKING
  28      1     18       -5.19      0.00     32.48           RANKING
  29      1     35       -5.19      0.00     30.76           RANKING
  30      1     24       -5.06      0.00     30.20           RANKING
  30      2     27       -4.92      1.02     30.40           RANKING
  30      3     30       -4.35      1.69     31.34           RANKING
  31      1      1       -5.05      0.00     17.56           RANKING
  32      1     44       -5.01      0.00     40.81           RANKING
  33      1     71       -4.85      0.00     26.40           RANKING
  33      2      6       -4.28      1.35     27.20           RANKING
  33      3     14       -3.86      1.94     26.06           RANKING
  34      1     87       -4.83      0.00     22.47           RANKING
  35      1     41       -4.73      0.00     21.67           RANKING
  36      1      2       -4.71      0.00     33.05           RANKING
  37      1     83       -4.70      0.00     22.09           RANKING
  37      2     94       -4.63      1.83     22.66           RANKING
  38      1     72       -4.63      0.00     18.93           RANKING
  39      1      7       -4.49      0.00     36.44           RANKING
  40      1     48       -4.48      0.00     44.20           RANKING
  41      1     78       -4.47      0.00     32.63           RANKING
  42      1      4       -4.38      0.00     18.48           RANKING
  43      1     64       -4.38      0.00     26.55           RANKING
  44      1     79       -4.37      0.00     34.20           RANKING
  45      1      9       -4.34      0.00     36.97           RANKING
  46      1     16       -4.14      0.00     28.41           RANKING
  47      1     81       -4.13      0.00     38.36           RANKING
  48      1     86       -4.11      0.00     34.46           RANKING
  49      1     34       -4.10      0.00     27.57           RANKING
  50      1     84       -4.10      0.00     25.27           RANKING
  51      1     70       -3.96      0.00     31.07           RANKING
  52      1     37       -3.94      0.00     53.22           RANKING
  53      1      5       -3.90      0.00     28.81           RANKING
  54      1     26       -3.88      0.00     34.40           RANKING
  54      2     56       -3.84      0.79     34.10           RANKING
  54      3     74       -3.83      0.64     34.37           RANKING
  54      4     10       -3.78      1.28     33.99           RANKING
  54      5     66       -3.52      1.89     35.70           RANKING
  55      1     25       -3.88      0.00     26.09           RANKING
  56      1     59       -3.75      0.00     38.70           RANKING
  57      1     80       -3.69      0.00     34.90           RANKING
  58      1     17       -3.66      0.00     39.42           RANKING
  59      1     21       -3.50      0.00     33.34           RANKING
  60      1     12       -3.46      0.00     36.38           RANKING
  61      1     42       -3.35      0.00     24.53           RANKING
_______________________________________________________________________



	INFORMATION ENTROPY ANALYSIS FOR THIS CLUSTERING
	________________________________________________


Information entropy for this clustering = 0.85  (rmstol = 2.00 Angstrom)

_______________________________________________________________________


	STATISTICAL MECHANICAL ANALYSIS
	_______________________________


Partition function, Q =   100.88            at Temperature, T = 298.15 K
Free energy,        A ~ -2733.68 kcal/mol   at Temperature, T = 298.15 K
Internal energy,    U =    -5.21 kcal/mol   at Temperature, T = 298.15 K
Entropy,            S =     9.15 kcal/mol/K at Temperature, T = 298.15 K

_______________________________________________________________________


	LOWEST ENERGY DOCKED CONFORMATION from EACH CLUSTER
	___________________________________________________



Keeping original residue number (specified in the input PDBQ file) for outputting.

MODEL       49
USER    Run = 49
USER    Cluster Rank = 1
USER    Number of conformations in this cluster = 9
USER  
USER    RMSD from reference structure       = 36.510 A
USER  
USER    Estimated Free Energy of Binding    =   -7.81 kcal/mol  [=(1)+(2)+(3)-(4)]
USER    Estimated Inhibition Constant, Ki   =    1.89 uM (micromolar)  [Temperature = 298.15 K]
USER    
USER    (1) Final Intermolecular Energy     =  -10.79 kcal/mol
USER        vdW + Hbond + desolv Energy     =   -8.14 kcal/mol
USER        Electrostatic Energy            =   -2.65 kcal/mol
USER    (2) Final Total Internal Energy     =   -0.73 kcal/mol
USER    (3) Torsional Free Energy           =   +2.98 kcal/mol
USER    (4) Unbound System's Energy  [=(2)] =   -0.73 kcal/mol
USER    
USER    
USER  
USER    DPF = D:/Protein_go_brrr/autodock/final/mut_N102T/heme_O2/dock.dpf
USER    NEWDPF move	heme_O2_opt.pdbqt
USER    NEWDPF about	8.287000 34.468000 -0.670000
USER    NEWDPF tran0	7.149220 -1.683501 16.794947
USER    NEWDPF axisangle0	-0.089903 -0.974555 -0.205328 -129.568036
USER    NEWDPF quaternion0	-0.081336 -0.881688 -0.185762 -0.426032
USER    NEWDPF dihe0	36.83 104.41 50.03 -101.16 -167.21 -91.64 -64.04 -82.28 29.00 139.54 
USER  
USER                              x       y       z    vdW   Elec        q     RMS 
ATOM      1  C   UNL d   1       9.074  -1.421  15.943 -0.08 +0.02    +0.064    36.510
ATOM      2  C   UNL d   1       4.846  -2.470  14.052 -0.27 -0.01    +0.064    36.510
ATOM      3  C   UNL d   1       2.784  -2.402  18.392 -0.19 -0.02    +0.064    36.510
ATOM      4  C   UNL d   1       7.032  -0.853  20.296 -0.08 -0.00    +0.064    36.510
ATOM      5  C   UNL d   1       8.092  -1.710  15.075 -0.12 +0.01    +0.066    36.510
ATOM      6  C   UNL d   1       8.281  -1.848  13.697 -0.13 -0.00    -0.021    36.510
ATOM      7  C   UNL d   1       7.050  -2.109  13.143 -0.21 -0.00    -0.025    36.510
ATOM      8  C   UNL d   1       6.150  -2.171  14.203 -0.21 -0.00    +0.066    36.510
ATOM      9  C   UNL d   1       6.781  -2.257  11.661 -0.26 +0.01    +0.051    36.510
ATOM     10  C   UNL d   1       3.859  -2.571  15.128 -0.17 -0.02    +0.066    36.510
ATOM     11  C   UNL d   1       2.556  -3.044  14.935 -0.36 +0.00    -0.021    36.510
ATOM     12  C   UNL d   1       1.951  -3.049  16.179 -0.42 -0.00    +0.000    36.510
ATOM     13  C   UNL d   1       2.937  -2.557  17.077 -0.24 -0.02    +0.070    36.510
ATOM     14  C   UNL d   1       1.924  -3.498  13.625 -0.38 -0.01    +0.052    36.510
ATOM     15  C   UNL d   1       3.745  -1.874  19.331 -0.11 -0.02    +0.066    36.510
ATOM     16  C   UNL d   1       3.468  -1.584  20.666 -0.11 +0.01    -0.021    36.510
ATOM     17  C   UNL d   1       4.665  -1.139  21.229 -0.10 -0.00    +0.000    36.510
ATOM     18  C   UNL d   1       5.594  -1.195  20.181 -0.09 -0.01    +0.070    36.510
ATOM     19  C   UNL d   1       2.089  -1.702  21.265 -0.07 -0.04    +0.052    36.510
ATOM     20  C   UNL d   1       7.941  -0.853  19.302 +0.03 +0.01    +0.066    36.510
ATOM     21  C   UNL d   1       9.286  -0.539  19.474 -0.03 -0.00    -0.025    36.510
ATOM     22  C   UNL d   1       9.889  -0.722  18.250 -0.05 -0.01    -0.021    36.510
ATOM     23  C   UNL d   1       8.882  -1.125  17.368 -0.05 +0.02    +0.066    36.510
ATOM     24  C   UNL d   1       9.961  -0.084  20.742 -0.05 +0.01    +0.051    36.510
ATOM     25  N   UNL d   1       6.781  -1.860  15.386 -0.09 -0.01    -0.248    36.510
ATOM     26  N   UNL d   1       4.093  -2.264  16.429 -0.14 +0.05    -0.248    36.510
ATOM     27  N   UNL d   1       5.002  -1.571  19.019 -0.06 +0.04    -0.248    36.510
ATOM     28  N   UNL d   1       7.691  -1.160  18.001 -0.07 -0.04    -0.248    36.510
ATOM     29 FE   UNL d   1       5.904  -1.707  17.223 -0.04 -0.00    +0.000    36.510
ATOM     30  O   UNL d   1       5.495  -0.576  16.236 -0.42 -0.00    +0.000    36.510
ATOM     31  O   UNL d   1       5.757  -0.233  17.751 -0.44 +0.00    +0.000    36.510
ATOM     32  C   UNL d   1       9.544  -1.610  12.910 -0.13 +0.01    +0.052    36.510
ATOM     33  C   UNL d   1      10.118  -2.889  12.308 -0.09 +0.05    +0.115    36.510
ATOM     34  C   UNL d   1      10.063  -2.889  10.800 -0.16 +0.14    +0.139    36.510
ATOM     35  O   UNL d   1      10.349  -1.874  10.185 -0.32 -0.68    -0.650    36.510
ATOM     36  O   UNL d   1       9.676  -3.983  10.111 -0.32 -1.34    -0.776    36.510
ATOM     37  H   UNL d   1       8.975  -4.564  10.427 +0.05 +0.16    +0.167    36.510
ATOM     38  C   UNL d   1      11.339  -0.459  17.937 -0.06 +0.01    +0.052    36.510
ATOM     39  C   UNL d   1      11.519   0.619  16.871 -0.11 +0.04    +0.115    36.510
ATOM     40  C   UNL d   1      11.781   1.980  17.465 -0.18 +0.08    +0.139    36.510
ATOM     41  O   UNL d   1      12.683   2.124  18.275 +0.00 -0.33    -0.650    36.510
ATOM     42  O   UNL d   1      11.070   3.057  17.079 -0.51 -0.98    -0.776    36.510
ATOM     43  H   UNL d   1      10.404   3.454  17.654 -0.40 +0.22    +0.167    36.510
ATOM     44  C   UNL d   1       0.522  -3.511  16.376 -0.30 -0.00    +0.004    36.510
ATOM     45  C   UNL d   1      -0.438  -2.922  17.087 -0.43 -0.00    +0.012    36.510
ATOM     46  C   UNL d   1       4.977  -0.630  22.611 -0.08 -0.00    +0.004    36.510
ATOM     47  C   UNL d   1       5.250   0.626  22.989 -0.10 -0.00    +0.012    36.510
TER
ENDMDL
MODEL       45
USER    Run = 45
USER    Cluster Rank = 2
USER    Number of conformations in this cluster = 1
USER  
USER    RMSD from reference structure       = 36.363 A
USER  
USER    Estimated Free Energy of Binding    =   -7.33 kcal/mol  [=(1)+(2)+(3)-(4)]
USER    Estimated Inhibition Constant, Ki   =    4.24 uM (micromolar)  [Temperature = 298.15 K]
USER    
USER    (1) Final Intermolecular Energy     =  -10.31 kcal/mol
USER        vdW + Hbond + desolv Energy     =   -8.39 kcal/mol
USER        Electrostatic Energy            =   -1.92 kcal/mol
USER    (2) Final Total Internal Energy     =   -0.35 kcal/mol
USER    (3) Torsional Free Energy           =   +2.98 kcal/mol
USER    (4) Unbound System's Energy  [=(2)] =   -0.35 kcal/mol
USER    
USER    
USER  
USER    DPF = D:/Protein_go_brrr/autodock/final/mut_N102T/heme_O2/dock.dpf
USER    NEWDPF move	heme_O2_opt.pdbqt
USER    NEWDPF about	8.287000 34.468000 -0.670000
USER    NEWDPF tran0	6.890423 -1.496975 14.952024
USER    NEWDPF axisangle0	0.418098 -0.273058 0.866391 177.568128
USER    NEWDPF quaternion0	0.418004 -0.272997 0.866196 0.021220
USER    NEWDPF dihe0	62.33 -172.10 -48.79 124.59 -147.73 137.52 -54.55 -46.18 -177.53 -136.58 
USER  
USER                              x       y       z    vdW   Elec        q     RMS 
ATOM      1  C   UNL d   1       7.401  -1.149  12.923 -0.25 +0.01    +0.064    36.363
ATOM      2  C   UNL d   1       9.888  -0.830  16.957 -0.02 +0.02    +0.064    36.363
ATOM      3  C   UNL d   1       6.041  -2.113  19.537 -0.06 -0.01    +0.064    36.363
ATOM      4  C   UNL d   1       3.603  -2.908  15.355 -0.25 -0.01    +0.064    36.363
ATOM      5  C   UNL d   1       8.392  -0.959  13.810 -0.18 +0.01    +0.066    36.363
ATOM      6  C   UNL d   1       9.683  -0.550  13.465 -0.17 -0.01    -0.021    36.363
ATOM      7  C   UNL d   1      10.416  -0.499  14.628 -0.11 -0.01    -0.025    36.363
ATOM      8  C   UNL d   1       9.539  -0.832  15.656 -0.01 +0.02    +0.066    36.363
ATOM      9  C   UNL d   1      11.891  -0.173  14.707 -0.06 +0.01    +0.051    36.363
ATOM     10  C   UNL d   1       9.006  -1.147  18.082 -0.07 +0.01    +0.066    36.363
ATOM     11  C   UNL d   1       9.373  -0.971  19.421 -0.05 -0.00    -0.021    36.363
ATOM     12  C   UNL d   1       8.271  -1.319  20.180 -0.06 +0.00    +0.000    36.363
ATOM     13  C   UNL d   1       7.276  -1.708  19.240 -0.07 +0.00    +0.070    36.363
ATOM     14  C   UNL d   1      10.709  -0.466  19.952 -0.04 +0.01    +0.052    36.363
ATOM     15  C   UNL d   1       5.017  -2.548  18.619 -0.06 -0.01    +0.066    36.363
ATOM     16  C   UNL d   1       3.802  -3.116  19.000 -0.07 +0.00    -0.021    36.363
ATOM     17  C   UNL d   1       3.090  -3.352  17.824 -0.17 -0.00    +0.000    36.363
ATOM     18  C   UNL d   1       3.935  -2.903  16.800 -0.20 -0.01    +0.070    36.363
ATOM     19  C   UNL d   1       3.456  -3.430  20.434 -0.04 -0.01    +0.052    36.363
ATOM     20  C   UNL d   1       4.406  -2.525  14.344 -0.25 -0.01    +0.066    36.363
ATOM     21  C   UNL d   1       4.031  -2.536  13.003 -0.40 +0.00    -0.025    36.363
ATOM     22  C   UNL d   1       5.091  -2.012  12.298 -0.39 +0.00    -0.021    36.363
ATOM     23  C   UNL d   1       6.085  -1.717  13.236 -0.28 -0.00    +0.066    36.363
ATOM     24  C   UNL d   1       2.729  -3.025  12.424 -0.53 -0.00    +0.051    36.363
ATOM     25  N   UNL d   1       8.310  -1.179  15.145 -0.09 -0.05    -0.248    36.363
ATOM     26  N   UNL d   1       7.733  -1.605  17.967 -0.06 -0.03    -0.248    36.363
ATOM     27  N   UNL d   1       5.129  -2.488  17.295 -0.06 +0.03    -0.248    36.363
ATOM     28  N   UNL d   1       5.681  -2.072  14.474 -0.14 +0.02    -0.248    36.363
ATOM     29 FE   UNL d   1       6.698  -1.841  16.209 -0.04 +0.00    +0.000    36.363
ATOM     30  O   UNL d   1       7.878  -2.855  16.159 -0.09 +0.00    +0.000    36.363
ATOM     31  O   UNL d   1       6.395  -3.375  16.039 -0.14 +0.00    +0.000    36.363
ATOM     32  C   UNL d   1      10.249  -0.347  12.083 -0.22 +0.02    +0.052    36.363
ATOM     33  C   UNL d   1      10.964  -1.584  11.548 -0.13 +0.06    +0.115    36.363
ATOM     34  C   UNL d   1      10.392  -2.054  10.233 -0.12 +0.16    +0.139    36.363
ATOM     35  O   UNL d   1      10.428  -1.317   9.261 -0.33 -0.75    -0.650    36.363
ATOM     36  O   UNL d   1       9.814  -3.267  10.111 -0.42 -1.26    -0.776    36.363
ATOM     37  H   UNL d   1       9.021  -3.507  10.604 +0.05 +0.15    +0.167    36.363
ATOM     38  C   UNL d   1       5.164  -1.867  10.800 -0.30 +0.00    +0.052    36.363
ATOM     39  C   UNL d   1       4.452  -3.005  10.070 -0.40 +0.01    +0.115    36.363
ATOM     40  C   UNL d   1       3.543  -2.507   8.975 -0.37 +0.03    +0.139    36.363
ATOM     41  O   UNL d   1       2.451  -2.041   9.259 -0.05 -0.06    -0.650    36.363
ATOM     42  O   UNL d   1       3.934  -2.519   7.686 -0.98 -0.30    -0.776    36.363
ATOM     43  H   UNL d   1       3.427  -2.067   7.000 +0.10 +0.04    +0.167    36.363
ATOM     44  C   UNL d   1       8.282  -1.249  21.692 -0.03 -0.00    +0.004    36.363
ATOM     45  C   UNL d   1       7.418  -0.621  22.489 -0.04 -0.00    +0.012    36.363
ATOM     46  C   UNL d   1       1.750  -3.998  17.593 -0.30 -0.00    +0.004    36.363
ATOM     47  C   UNL d   1       0.648  -3.452  17.064 -0.42 -0.00    +0.012    36.363
TER
ENDMDL
MODEL        8
USER    Run = 8
USER    Cluster Rank = 3
USER    Number of conformations in this cluster = 2
USER  
USER    RMSD from reference structure       = 50.495 A
USER  
USER    Estimated Free Energy of Binding    =   -6.86 kcal/mol  [=(1)+(2)+(3)-(4)]
USER    Estimated Inhibition Constant, Ki   =    9.42 uM (micromolar)  [Temperature = 298.15 K]
USER    
USER    (1) Final Intermolecular Energy     =   -9.84 kcal/mol
USER        vdW + Hbond + desolv Energy     =   -6.77 kcal/mol
USER        Electrostatic Energy            =   -3.07 kcal/mol
USER    (2) Final Total Internal Energy     =   -0.65 kcal/mol
USER    (3) Torsional Free Energy           =   +2.98 kcal/mol
USER    (4) Unbound System's Energy  [=(2)] =   -0.65 kcal/mol
USER    
USER    
USER  
USER    DPF = D:/Protein_go_brrr/autodock/final/mut_N102T/heme_O2/dock.dpf
USER    NEWDPF move	heme_O2_opt.pdbqt
USER    NEWDPF about	8.287000 34.468000 -0.670000
USER    NEWDPF tran0	-8.204028 -14.831991 -7.954452
USER    NEWDPF axisangle0	0.581916 0.782470 -0.221620 -140.204868
USER    NEWDPF quaternion0	0.547177 0.735758 -0.208390 -0.340340
USER    NEWDPF dihe0	130.68 -76.45 50.96 -124.67 -128.69 137.60 97.98 -99.56 -120.60 151.12 
USER  
USER                              x       y       z    vdW   Elec        q     RMS 
ATOM      1  C   UNL d   1      -7.535 -15.340  -6.007 -0.07 +0.07    +0.064    50.495
ATOM      2  C   UNL d   1      -9.306 -17.935  -9.569 -0.03 +0.02    +0.064    50.495
ATOM      3  C   UNL d   1      -9.827 -14.010 -12.292 -0.11 +0.01    +0.064    50.495
ATOM      4  C   UNL d   1      -7.563 -11.395  -8.813 -0.17 +0.02    +0.064    50.495
ATOM      5  C   UNL d   1      -7.972 -16.366  -6.754 -0.06 +0.05    +0.066    50.495
ATOM      6  C   UNL d   1      -8.012 -17.693  -6.315 -0.03 -0.01    -0.021    50.495
ATOM      7  C   UNL d   1      -8.484 -18.451  -7.361 -0.01 -0.01    -0.025    50.495
ATOM      8  C   UNL d   1      -8.765 -17.561  -8.393 -0.03 +0.03    +0.066    50.495
ATOM      9  C   UNL d   1      -8.617 -19.959  -7.346 +0.00 +0.01    +0.051    50.495
ATOM     10  C   UNL d   1      -9.644 -17.044 -10.680 -0.06 +0.01    +0.066    50.495
ATOM     11  C   UNL d   1     -10.353 -17.461 -11.812 -0.04 -0.00    -0.021    50.495
ATOM     12  C   UNL d   1     -10.529 -16.339 -12.601 -0.06 +0.00    +0.000    50.495
ATOM     13  C   UNL d   1      -9.892 -15.281 -11.895 -0.09 +0.01    +0.070    50.495
ATOM     14  C   UNL d   1     -10.865 -18.864 -12.115 -0.01 +0.00    +0.052    50.495
ATOM     15  C   UNL d   1      -9.162 -12.917 -11.625 -0.02 +0.01    +0.066    50.495
ATOM     16  C   UNL d   1      -8.989 -11.645 -12.171 -0.16 -0.01    -0.021    50.495
ATOM     17  C   UNL d   1      -8.345 -10.882 -11.197 -0.25 +0.00    +0.000    50.495
ATOM     18  C   UNL d   1      -8.173 -11.757 -10.114 -0.21 +0.02    +0.070    50.495
ATOM     19  C   UNL d   1      -9.399 -11.291 -13.578 -0.17 +0.01    +0.052    50.495
ATOM     20  C   UNL d   1      -7.344 -12.219  -7.770 -0.04 +0.03    +0.066    50.495
ATOM     21  C   UNL d   1      -6.781 -11.817  -6.562 -0.26 -0.02    -0.025    50.495
ATOM     22  C   UNL d   1      -6.790 -12.922  -5.741 -0.21 -0.02    -0.021    50.495
ATOM     23  C   UNL d   1      -7.344 -13.966  -6.487 -0.11 +0.07    +0.066    50.495
ATOM     24  C   UNL d   1      -6.258 -10.449  -6.211 -0.33 +0.03    +0.051    50.495
ATOM     25  N   UNL d   1      -8.388 -16.285  -8.042 -0.04 -0.15    -0.248    50.495
ATOM     26  N   UNL d   1      -9.352 -15.719 -10.730 -0.07 -0.06    -0.248    50.495
ATOM     27  N   UNL d   1      -8.607 -13.006 -10.419 -0.09 -0.07    -0.248    50.495
ATOM     28  N   UNL d   1      -7.638 -13.546  -7.735 -0.09 -0.18    -0.248    50.495
ATOM     29 FE   UNL d   1      -8.488 -14.623  -9.223 -0.03 +0.00    +0.000    50.495
ATOM     30  O   UNL d   1      -7.417 -15.655  -9.681 -0.46 +0.00    +0.000    50.495
ATOM     31  O   UNL d   1      -7.095 -14.114  -9.746 +0.17 +0.00    +0.000    50.495
ATOM     32  C   UNL d   1      -7.499 -18.250  -5.013 -0.04 +0.04    +0.052    50.495
ATOM     33  C   UNL d   1      -6.212 -17.576  -4.546 -0.09 +0.17    +0.115    50.495
ATOM     34  C   UNL d   1      -4.984 -18.180  -5.180 -0.12 +0.21    +0.139    50.495
ATOM     35  O   UNL d   1      -4.667 -17.853  -6.313 -0.41 -1.07    -0.650    50.495
ATOM     36  O   UNL d   1      -4.238 -19.099  -4.533 -0.32 -1.20    -0.776    50.495
ATOM     37  H   UNL d   1      -3.972 -19.927  -4.950 +0.03 +0.16    +0.167    50.495
ATOM     38  C   UNL d   1      -6.237 -12.980  -4.341 -0.23 +0.05    +0.052    50.495
ATOM     39  C   UNL d   1      -4.931 -13.768  -4.263 -0.29 +0.16    +0.115    50.495
ATOM     40  C   UNL d   1      -3.742 -12.961  -4.721 -0.38 +0.17    +0.139    50.495
ATOM     41  O   UNL d   1      -3.544 -12.798  -5.914 -0.44 -1.23    -0.650    50.495
ATOM     42  O   UNL d   1      -2.919 -12.370  -3.833 +0.09 -0.44    -0.776    50.495
ATOM     43  H   UNL d   1      -3.186 -11.582  -3.344 -0.48 +0.03    +0.167    50.495
ATOM     44  C   UNL d   1     -11.268 -16.393 -13.922 -0.03 +0.00    +0.004    50.495
ATOM     45  C   UNL d   1     -10.899 -15.866 -15.088 -0.04 +0.00    +0.012    50.495
ATOM     46  C   UNL d   1      -7.843  -9.463 -11.225 -0.38 +0.00    +0.004    50.495
ATOM     47  C   UNL d   1      -6.643  -9.001 -10.852 -0.49 +0.00    +0.012    50.495
TER
ENDMDL
MODEL       43
USER    Run = 43
USER    Cluster Rank = 4
USER    Number of conformations in this cluster = 3
USER  
USER    RMSD from reference structure       = 30.359 A
USER  
USER    Estimated Free Energy of Binding    =   -6.72 kcal/mol  [=(1)+(2)+(3)-(4)]
USER    Estimated Inhibition Constant, Ki   =   11.82 uM (micromolar)  [Temperature = 298.15 K]
USER    
USER    (1) Final Intermolecular Energy     =   -9.71 kcal/mol
USER        vdW + Hbond + desolv Energy     =   -6.79 kcal/mol
USER        Electrostatic Energy            =   -2.92 kcal/mol
USER    (2) Final Total Internal Energy     =   -1.95 kcal/mol
USER    (3) Torsional Free Energy           =   +2.98 kcal/mol
USER    (4) Unbound System's Energy  [=(2)] =   -1.95 kcal/mol
USER    
USER    
USER  
USER    DPF = D:/Protein_go_brrr/autodock/final/mut_N102T/heme_O2/dock.dpf
USER    NEWDPF move	heme_O2_opt.pdbqt
USER    NEWDPF about	8.287000 34.468000 -0.670000
USER    NEWDPF tran0	14.300634 3.023034 8.318246
USER    NEWDPF axisangle0	0.739934 0.460613 0.490239 -148.610791
USER    NEWDPF quaternion0	0.712347 0.443440 0.471961 -0.270510
USER    NEWDPF dihe0	141.45 -59.01 -41.32 33.86 -110.78 4.50 -79.26 -27.80 -164.41 34.93 
USER  
USER                              x       y       z    vdW   Elec        q     RMS 
ATOM      1  C   UNL d   1      13.496   1.060   8.320 -0.23 +0.02    +0.064    30.359
ATOM      2  C   UNL d   1      16.041   3.481   5.123 -0.18 +0.02    +0.064    30.359
ATOM      3  C   UNL d   1      16.137   7.340   7.985 -0.17 +0.01    +0.064    30.359
ATOM      4  C   UNL d   1      13.930   4.701  11.482 -0.24 +0.02    +0.064    30.359
ATOM      5  C   UNL d   1      14.182   1.403   7.218 -0.21 +0.01    +0.066    30.359
ATOM      6  C   UNL d   1      14.368   0.561   6.118 -0.26 -0.00    -0.021    30.359
ATOM      7  C   UNL d   1      15.142   1.245   5.210 -0.24 -0.01    -0.025    30.359
ATOM      8  C   UNL d   1      15.366   2.505   5.759 -0.19 +0.01    +0.066    30.359
ATOM      9  C   UNL d   1      15.648   0.677   3.902 -0.22 +0.01    +0.051    30.359
ATOM     10  C   UNL d   1      16.288   4.829   5.638 -0.12 +0.01    +0.066    30.359
ATOM     11  C   UNL d   1      16.851   5.854   4.871 -0.11 -0.00    -0.021    30.359
ATOM     12  C   UNL d   1      16.871   6.980   5.673 -0.08 +0.00    +0.000    30.359
ATOM     13  C   UNL d   1      16.318   6.565   6.916 -0.10 +0.01    +0.070    30.359
ATOM     14  C   UNL d   1      17.325   5.771   3.424 -0.13 +0.03    +0.052    30.359
ATOM     15  C   UNL d   1      15.614   6.950   9.272 -0.19 +0.01    +0.066    30.359
ATOM     16  C   UNL d   1      15.603   7.768  10.402 -0.21 -0.00    -0.021    30.359
ATOM     17  C   UNL d   1      14.979   7.036  11.412 -0.28 +0.00    +0.000    30.359
ATOM     18  C   UNL d   1      14.649   5.811  10.814 -0.26 +0.01    +0.070    30.359
ATOM     19  C   UNL d   1      16.232   9.138  10.432 -0.08 +0.01    +0.052    30.359
ATOM     20  C   UNL d   1      13.636   3.498  10.951 -0.21 +0.02    +0.066    30.359
ATOM     21  C   UNL d   1      12.940   2.498  11.624 -0.20 -0.01    -0.025    30.359
ATOM     22  C   UNL d   1      12.783   1.463  10.729 -0.17 -0.01    -0.021    30.359
ATOM     23  C   UNL d   1      13.408   1.865   9.544 -0.18 +0.02    +0.066    30.359
ATOM     24  C   UNL d   1      12.452   2.526  13.049 -0.23 +0.02    +0.051    30.359
ATOM     25  N   UNL d   1      14.829   2.578   7.024 +0.06 -0.05    -0.248    30.359
ATOM     26  N   UNL d   1      15.970   5.254   6.887 -0.04 -0.04    -0.248    30.359
ATOM     27  N   UNL d   1      15.109   5.749   9.538 -0.01 -0.04    -0.248    30.359
ATOM     28  N   UNL d   1      13.964   3.084   9.699 +0.01 -0.06    -0.248    30.359
ATOM     29 FE   UNL d   1      14.960   4.163   8.305 -0.01 +0.00    +0.000    30.359
ATOM     30  O   UNL d   1      16.313   3.430   8.073 -0.11 +0.00    +0.000    30.359
ATOM     31  O   UNL d   1      15.939   3.938   9.516 -0.11 +0.00    +0.000    30.359
ATOM     32  C   UNL d   1      13.954  -0.881   5.980 -0.10 +0.02    +0.052    30.359
ATOM     33  C   UNL d   1      14.925  -1.844   6.658 -0.13 +0.05    +0.115    30.359
ATOM     34  C   UNL d   1      14.450  -2.271   8.024 -0.09 +0.11    +0.139    30.359
ATOM     35  O   UNL d   1      13.879  -3.342   8.157 -0.29 -1.02    -0.650    30.359
ATOM     36  O   UNL d   1      14.618  -1.482   9.106 +0.02 -0.40    -0.776    30.359
ATOM     37  H   UNL d   1      13.947  -1.409   9.794 +0.03 +0.10    +0.167    30.359
ATOM     38  C   UNL d   1      12.125   0.140  11.023 -0.16 +0.02    +0.052    30.359
ATOM     39  C   UNL d   1      11.201  -0.314   9.895 -0.20 +0.08    +0.115    30.359
ATOM     40  C   UNL d   1      11.096  -1.816   9.804 -0.10 +0.17    +0.139    30.359
ATOM     41  O   UNL d   1      10.062  -2.329   9.407 -0.30 -1.10    -0.650    30.359
ATOM     42  O   UNL d   1      12.145  -2.606  10.106 -0.18 -1.22    -0.776    30.359
ATOM     43  H   UNL d   1      12.995  -2.507   9.662 +0.02 +0.25    +0.167    30.359
ATOM     44  C   UNL d   1      17.409   8.308   5.182 -0.05 +0.00    +0.004    30.359
ATOM     45  C   UNL d   1      16.862   9.515   5.322 -0.05 +0.00    +0.012    30.359
ATOM     46  C   UNL d   1      14.729   7.364  12.860 -0.27 +0.00    +0.004    30.359
ATOM     47  C   UNL d   1      14.588   8.571  13.424 -0.26 +0.00    +0.012    30.359
TER
ENDMDL
MODEL       28
USER    Run = 28
USER    Cluster Rank = 5
USER    Number of conformations in this cluster = 4
USER  
USER    RMSD from reference structure       = 39.472 A
USER  
USER    Estimated Free Energy of Binding    =   -6.57 kcal/mol  [=(1)+(2)+(3)-(4)]
USER    Estimated Inhibition Constant, Ki   =   15.25 uM (micromolar)  [Temperature = 298.15 K]
USER    
USER    (1) Final Intermolecular Energy     =   -9.55 kcal/mol
USER        vdW + Hbond + desolv Energy     =   -6.72 kcal/mol
USER        Electrostatic Energy            =   -2.83 kcal/mol
USER    (2) Final Total Internal Energy     =   -1.62 kcal/mol
USER    (3) Torsional Free Energy           =   +2.98 kcal/mol
USER    (4) Unbound System's Energy  [=(2)] =   -1.62 kcal/mol
USER    
USER    
USER  
USER    DPF = D:/Protein_go_brrr/autodock/final/mut_N102T/heme_O2/dock.dpf
USER    NEWDPF move	heme_O2_opt.pdbqt
USER    NEWDPF about	8.287000 34.468000 -0.670000
USER    NEWDPF tran0	7.428496 -5.315035 14.451990
USER    NEWDPF axisangle0	-0.314485 -0.375655 -0.871770 -109.848655
USER    NEWDPF quaternion0	-0.257372 -0.307434 -0.713451 -0.574658
USER    NEWDPF dihe0	-174.20 -42.12 -60.93 -115.14 157.12 -149.06 -75.22 -2.94 -144.45 158.45 
USER  
USER                              x       y       z    vdW   Elec        q     RMS 
ATOM      1  C   UNL d   1       8.393  -4.756  12.648 -0.15 +0.02    +0.064    39.472
ATOM      2  C   UNL d   1       5.534  -2.400  15.620 -0.19 -0.01    +0.064    39.472
ATOM      3  C   UNL d   1       5.101  -6.279  18.424 -0.17 -0.01    +0.064    39.472
ATOM      4  C   UNL d   1       8.423  -8.567  15.633 -0.22 +0.02    +0.064    39.472
ATOM      5  C   UNL d   1       7.653  -3.798  13.228 -0.12 +0.01    +0.066    39.472
ATOM      6  C   UNL d   1       7.491  -2.510  12.709 -0.19 -0.00    -0.021    39.472
ATOM      7  C   UNL d   1       6.699  -1.814  13.591 -0.23 -0.00    -0.025    39.472
ATOM      8  C   UNL d   1       6.358  -2.710  14.600 -0.14 +0.00    +0.066    39.472
ATOM      9  C   UNL d   1       6.331  -0.353  13.456 -0.43 -0.00    +0.051    39.472
ATOM     10  C   UNL d   1       5.122  -3.304  16.695 -0.13 -0.01    +0.066    39.472
ATOM     11  C   UNL d   1       4.138  -2.982  17.636 -0.14 +0.00    -0.021    39.472
ATOM     12  C   UNL d   1       3.986  -4.095  18.443 -0.11 -0.00    +0.000    39.472
ATOM     13  C   UNL d   1       4.916  -5.049  17.945 -0.13 -0.01    +0.070    39.472
ATOM     14  C   UNL d   1       3.356  -1.678  17.744 -0.29 -0.01    +0.052    39.472
ATOM     15  C   UNL d   1       6.056  -7.261  17.971 -0.18 -0.00    +0.066    39.472
ATOM     16  C   UNL d   1       6.315  -8.469  18.619 -0.17 -0.00    -0.021    39.472
ATOM     17  C   UNL d   1       7.260  -9.138  17.841 -0.20 +0.00    +0.000    39.472
ATOM     18  C   UNL d   1       7.508  -8.278  16.762 -0.21 +0.01    +0.070    39.472
ATOM     19  C   UNL d   1       5.686  -8.848  19.936 -0.11 -0.00    +0.052    39.472
ATOM     20  C   UNL d   1       8.717  -7.747  14.605 -0.19 +0.02    +0.066    39.472
ATOM     21  C   UNL d   1       9.573  -8.082  13.560 -0.13 -0.01    -0.025    39.472
ATOM     22  C   UNL d   1       9.556  -7.019  12.686 -0.16 -0.01    -0.021    39.472
ATOM     23  C   UNL d   1       8.700  -6.063  13.241 -0.16 +0.02    +0.066    39.472
ATOM     24  C   UNL d   1      10.371  -9.351  13.405 -0.15 +0.03    +0.051    39.472
ATOM     25  N   UNL d   1       6.999  -3.913  14.411 +0.04 -0.02    -0.248    39.472
ATOM     26  N   UNL d   1       5.606  -4.558  16.884 -0.03 +0.01    -0.248    39.472
ATOM     27  N   UNL d   1       6.826  -7.113  16.897 -0.13 -0.01    -0.248    39.472
ATOM     28  N   UNL d   1       8.227  -6.491  14.430 -0.06 -0.05    -0.248    39.472
ATOM     29 FE   UNL d   1       6.926  -5.534  15.650 -0.04 +0.00    +0.000    39.472
ATOM     30  O   UNL d   1       7.701  -4.322  16.246 -0.10 +0.00    +0.000    39.472
ATOM     31  O   UNL d   1       8.246  -5.783  16.469 -0.11 +0.00    +0.000    39.472
ATOM     32  C   UNL d   1       8.165  -1.911  11.502 -0.18 +0.02    +0.052    39.472
ATOM     33  C   UNL d   1       9.685  -1.871  11.631 -0.16 +0.06    +0.115    39.472
ATOM     34  C   UNL d   1      10.359  -2.962  10.838 -0.13 +0.15    +0.139    39.472
ATOM     35  O   UNL d   1       9.692  -3.674  10.104 -0.44 -1.09    -0.650    39.472
ATOM     36  O   UNL d   1      11.685  -3.190  10.940 -0.04 -0.95    -0.776    39.472
ATOM     37  H   UNL d   1      12.139  -3.826  10.376 +0.02 +0.34    +0.167    39.472
ATOM     38  C   UNL d   1      10.369  -6.907  11.422 -0.15 +0.03    +0.052    39.472
ATOM     39  C   UNL d   1      11.620  -6.050  11.608 -0.08 +0.08    +0.115    39.472
ATOM     40  C   UNL d   1      12.485  -6.018  10.374 +0.06 +0.17    +0.139    39.472
ATOM     41  O   UNL d   1      12.189  -6.702   9.408 -0.37 -0.97    -0.650    39.472
ATOM     42  O   UNL d   1      13.557  -5.205  10.297 -0.04 -0.83    -0.776    39.472
ATOM     43  H   UNL d   1      13.537  -4.309  10.653 +0.01 +0.17    +0.167    39.472
ATOM     44  C   UNL d   1       2.992  -4.130  19.585 -0.08 -0.00    +0.004    39.472
ATOM     45  C   UNL d   1       1.910  -4.898  19.704 -0.11 -0.00    +0.012    39.472
ATOM     46  C   UNL d   1       7.966 -10.450  18.056 -0.16 +0.00    +0.004    39.472
ATOM     47  C   UNL d   1       9.284 -10.680  18.130 -0.13 +0.01    +0.012    39.472
TER
ENDMDL
MODEL       67
USER    Run = 67
USER    Cluster Rank = 6
USER    Number of conformations in this cluster = 3
USER  
USER    RMSD from reference structure       = 35.472 A
USER  
USER    Estimated Free Energy of Binding    =   -6.34 kcal/mol  [=(1)+(2)+(3)-(4)]
USER    Estimated Inhibition Constant, Ki   =   22.37 uM (micromolar)  [Temperature = 298.15 K]
USER    
USER    (1) Final Intermolecular Energy     =   -9.33 kcal/mol
USER        vdW + Hbond + desolv Energy     =   -8.12 kcal/mol
USER        Electrostatic Energy            =   -1.21 kcal/mol
USER    (2) Final Total Internal Energy     =   -0.63 kcal/mol
USER    (3) Torsional Free Energy           =   +2.98 kcal/mol
USER    (4) Unbound System's Energy  [=(2)] =   -0.63 kcal/mol
USER    
USER    
USER  
USER    DPF = D:/Protein_go_brrr/autodock/final/mut_N102T/heme_O2/dock.dpf
USER    NEWDPF move	heme_O2_opt.pdbqt
USER    NEWDPF about	8.287000 34.468000 -0.670000
USER    NEWDPF tran0	-11.345266 3.704334 11.888210
USER    NEWDPF axisangle0	-0.576284 0.254051 0.776760 -126.260600
USER    NEWDPF quaternion0	-0.514066 0.226622 0.692898 -0.451963
USER    NEWDPF dihe0	179.86 20.61 -34.67 130.31 167.63 160.20 -62.15 -63.45 -8.70 -3.89 
USER  
USER                              x       y       z    vdW   Elec        q     RMS 
ATOM      1  C   UNL d   1     -11.339   2.052  13.218 -0.20 +0.00    +0.064    35.472
ATOM      2  C   UNL d   1     -10.951   6.733  13.918 -0.17 +0.00    +0.064    35.472
ATOM      3  C   UNL d   1     -11.244   7.557   9.192 -0.30 -0.00    +0.064    35.472
ATOM      4  C   UNL d   1     -12.124   2.782   8.497 -0.22 -0.01    +0.064    35.472
ATOM      5  C   UNL d   1     -11.211   3.258  13.794 -0.14 +0.01    +0.066    35.472
ATOM      6  C   UNL d   1     -11.070   3.457  15.170 -0.12 -0.00    -0.021    35.472
ATOM      7  C   UNL d   1     -11.001   4.815  15.378 -0.11 -0.00    -0.025    35.472
ATOM      8  C   UNL d   1     -11.054   5.405  14.118 -0.09 +0.01    +0.066    35.472
ATOM      9  C   UNL d   1     -10.920   5.480  16.735 -0.07 +0.00    +0.051    35.472
ATOM     10  C   UNL d   1     -10.976   7.409  12.620 -0.21 +0.00    +0.066    35.472
ATOM     11  C   UNL d   1     -10.701   8.771  12.456 -0.19 -0.00    -0.021    35.472
ATOM     12  C   UNL d   1     -10.763   9.024  11.098 -0.20 -0.00    +0.000    35.472
ATOM     13  C   UNL d   1     -11.092   7.777  10.498 -0.23 -0.00    +0.070    35.472
ATOM     14  C   UNL d   1     -10.367   9.783  13.546 -0.14 +0.00    +0.052    35.472
ATOM     15  C   UNL d   1     -11.610   6.319   8.549 -0.25 -0.00    +0.066    35.472
ATOM     16  C   UNL d   1     -11.915   6.192   7.194 -0.18 +0.00    -0.021    35.472
ATOM     17  C   UNL d   1     -12.170   4.838   6.972 -0.18 -0.00    +0.000    35.472
ATOM     18  C   UNL d   1     -11.998   4.233   8.225 -0.23 -0.00    +0.070    35.472
ATOM     19  C   UNL d   1     -11.989   7.368   6.254 -0.19 -0.00    +0.052    35.472
ATOM     20  C   UNL d   1     -12.008   2.174   9.693 -0.21 -0.01    +0.066    35.472
ATOM     21  C   UNL d   1     -12.120   0.799   9.885 -0.21 +0.00    -0.025    35.472
ATOM     22  C   UNL d   1     -11.872   0.570  11.219 -0.22 +0.00    -0.021    35.472
ATOM     23  C   UNL d   1     -11.635   1.820  11.799 -0.19 -0.00    +0.066    35.472
ATOM     24  C   UNL d   1     -12.450  -0.242   8.847 -0.19 -0.01    +0.051    35.472
ATOM     25  N   UNL d   1     -11.249   4.449  13.149 -0.11 -0.02    -0.248    35.472
ATOM     26  N   UNL d   1     -11.224   6.801  11.432 -0.15 -0.01    -0.248    35.472
ATOM     27  N   UNL d   1     -11.732   5.157   9.184 -0.15 +0.00    -0.248    35.472
ATOM     28  N   UNL d   1     -11.763   2.796  10.877 -0.03 +0.03    -0.248    35.472
ATOM     29 FE   UNL d   1     -11.496   4.784  11.149 -0.06 -0.00    +0.000    35.472
ATOM     30  O   UNL d   1     -12.692   5.268  12.020 -0.14 -0.00    +0.000    35.472
ATOM     31  O   UNL d   1     -12.966   4.572  10.634 -0.14 -0.00    +0.000    35.472
ATOM     32  C   UNL d   1     -11.135   2.423  16.264 -0.10 +0.01    +0.052    35.472
ATOM     33  C   UNL d   1      -9.877   1.564  16.343 -0.15 +0.05    +0.115    35.472
ATOM     34  C   UNL d   1      -9.132   1.753  17.641 -0.13 +0.05    +0.139    35.472
ATOM     35  O   UNL d   1      -9.695   2.276  18.589 +0.03 -0.10    -0.650    35.472
ATOM     36  O   UNL d   1      -7.841   1.383  17.771 -0.40 -0.57    -0.776    35.472
ATOM     37  H   UNL d   1      -7.357   1.499  18.596 +0.03 +0.07    +0.167    35.472
ATOM     38  C   UNL d   1     -11.925  -0.770  11.905 -0.16 -0.01    +0.052    35.472
ATOM     39  C   UNL d   1     -10.543  -1.401  12.059 -0.22 -0.06    +0.115    35.472
ATOM     40  C   UNL d   1     -10.134  -1.546  13.504 +0.05 +0.03    +0.139    35.472
ATOM     41  O   UNL d   1     -10.131  -0.569  14.234 -0.09 -0.36    -0.650    35.472
ATOM     42  O   UNL d   1      -9.819  -2.750  14.020 -0.49 -0.20    -0.776    35.472
ATOM     43  H   UNL d   1      -9.522  -3.477  13.460 -0.32 -0.10    +0.167    35.472
ATOM     44  C   UNL d   1     -10.512  10.403  10.525 -0.21 -0.00    +0.004    35.472
ATOM     45  C   UNL d   1      -9.859  10.719   9.407 -0.27 -0.00    +0.012    35.472
ATOM     46  C   UNL d   1     -12.605   4.105   5.732 -0.20 -0.00    +0.004    35.472
ATOM     47  C   UNL d   1     -12.001   3.077   5.122 -0.29 -0.00    +0.012    35.472
TER
ENDMDL
MODEL       19
USER    Run = 19
USER    Cluster Rank = 7
USER    Number of conformations in this cluster = 2
USER  
USER    RMSD from reference structure       = 40.754 A
USER  
USER    Estimated Free Energy of Binding    =   -6.32 kcal/mol  [=(1)+(2)+(3)-(4)]
USER    Estimated Inhibition Constant, Ki   =   23.29 uM (micromolar)  [Temperature = 298.15 K]
USER    
USER    (1) Final Intermolecular Energy     =   -9.30 kcal/mol
USER        vdW + Hbond + desolv Energy     =   -6.05 kcal/mol
USER        Electrostatic Energy            =   -3.25 kcal/mol
USER    (2) Final Total Internal Energy     =   -0.61 kcal/mol
USER    (3) Torsional Free Energy           =   +2.98 kcal/mol
USER    (4) Unbound System's Energy  [=(2)] =   -0.61 kcal/mol
USER    
USER    
USER  
USER    DPF = D:/Protein_go_brrr/autodock/final/mut_N102T/heme_O2/dock.dpf
USER    NEWDPF move	heme_O2_opt.pdbqt
USER    NEWDPF about	8.287000 34.468000 -0.670000
USER    NEWDPF tran0	12.136715 -8.011355 7.038718
USER    NEWDPF axisangle0	0.724245 0.582984 -0.368237 -131.474751
USER    NEWDPF quaternion0	0.660274 0.531490 -0.335711 -0.410920
USER    NEWDPF dihe0	-25.61 53.78 -71.93 113.08 -179.80 96.64 49.01 -118.40 157.18 -46.34 
USER  
USER                              x       y       z    vdW   Elec        q     RMS 
ATOM      1  C   UNL d   1      12.339  -8.147   9.146 -0.08 +0.04    +0.064    40.754
ATOM      2  C   UNL d   1       9.894 -10.715   5.986 -0.28 +0.01    +0.064    40.754
ATOM      3  C   UNL d   1      11.430  -7.921   2.389 -0.15 -0.01    +0.064    40.754
ATOM      4  C   UNL d   1      14.328  -5.563   5.568 -0.06 +0.03    +0.064    40.754
ATOM      5  C   UNL d   1      11.550  -9.075   8.580 -0.10 +0.03    +0.066    40.754
ATOM      6  C   UNL d   1      10.879 -10.073   9.292 -0.11 -0.01    -0.021    40.754
ATOM      7  C   UNL d   1      10.206 -10.844   8.374 -0.22 -0.01    -0.025    40.754
ATOM      8  C   UNL d   1      10.445 -10.266   7.130 -0.20 +0.01    +0.066    40.754
ATOM      9  C   UNL d   1       9.407 -12.085   8.705 -0.21 +0.01    +0.051    40.754
ATOM     10  C   UNL d   1      10.089 -10.137   4.655 -0.22 +0.01    +0.066    40.754
ATOM     11  C   UNL d   1       9.366 -10.541   3.527 -0.30 -0.00    -0.021    40.754
ATOM     12  C   UNL d   1       9.782  -9.735   2.484 -0.25 -0.00    +0.000    40.754
ATOM     13  C   UNL d   1      10.765  -8.874   3.044 -0.13 -0.00    +0.070    40.754
ATOM     14  C   UNL d   1       8.304 -11.632   3.454 -0.06 +0.01    +0.052    40.754
ATOM     15  C   UNL d   1      12.457  -7.053   2.911 -0.09 -0.00    +0.066    40.754
ATOM     16  C   UNL d   1      13.230  -6.189   2.137 -0.10 +0.00    -0.021    40.754
ATOM     17  C   UNL d   1      14.065  -5.506   3.021 -0.09 +0.00    +0.000    40.754
ATOM     18  C   UNL d   1      13.732  -6.010   4.287 -0.08 +0.02    +0.070    40.754
ATOM     19  C   UNL d   1      13.143  -6.132   0.632 -0.18 -0.03    +0.052    40.754
ATOM     20  C   UNL d   1      14.064  -6.055   6.793 -0.05 +0.05    +0.066    40.754
ATOM     21  C   UNL d   1      14.644  -5.581   7.967 -0.08 -0.02    -0.025    40.754
ATOM     22  C   UNL d   1      14.068  -6.287   8.999 -0.05 -0.02    -0.021    40.754
ATOM     23  C   UNL d   1      13.168  -7.183   8.414 -0.03 +0.06    +0.066    40.754
ATOM     24  C   UNL d   1      15.696  -4.511   8.096 -0.06 +0.03    +0.051    40.754
ATOM     25  N   UNL d   1      11.325  -9.215   7.250 -0.07 -0.09    -0.248    40.754
ATOM     26  N   UNL d   1      10.949  -9.129   4.364 -0.06 -0.02    -0.248    40.754
ATOM     27  N   UNL d   1      12.809  -7.001   4.193 -0.05 -0.05    -0.248    40.754
ATOM     28  N   UNL d   1      13.201  -7.069   7.070 -0.06 -0.20    -0.248    40.754
ATOM     29 FE   UNL d   1      12.085  -8.090   5.725 -0.02 +0.00    +0.000    40.754
ATOM     30  O   UNL d   1      12.610  -9.555   5.746 -0.06 +0.00    +0.000    40.754
ATOM     31  O   UNL d   1      13.596  -8.377   5.398 -0.04 +0.00    +0.000    40.754
ATOM     32  C   UNL d   1      10.975 -10.378  10.765 -0.14 +0.02    +0.052    40.754
ATOM     33  C   UNL d   1      11.496 -11.785  11.045 -0.10 +0.05    +0.115    40.754
ATOM     34  C   UNL d   1      10.669 -12.509  12.077 -0.09 +0.14    +0.139    40.754
ATOM     35  O   UNL d   1       9.482 -12.247  12.192 -0.58 -0.82    -0.650    40.754
ATOM     36  O   UNL d   1      11.218 -13.426  12.901 -0.13 -1.01    -0.776    40.754
ATOM     37  H   UNL d   1      12.014 -13.915  12.664 +0.01 +0.12    +0.167    40.754
ATOM     38  C   UNL d   1      14.416  -6.149  10.459 -0.04 +0.03    +0.052    40.754
ATOM     39  C   UNL d   1      14.278  -4.712  10.957 -0.04 +0.07    +0.115    40.754
ATOM     40  C   UNL d   1      12.872  -4.185  10.813 -0.01 +0.16    +0.139    40.754
ATOM     41  O   UNL d   1      12.659  -3.214  10.105 -0.28 -1.19    -0.650    40.754
ATOM     42  O   UNL d   1      11.834  -4.799  11.412 +0.02 -0.74    -0.776    40.754
ATOM     43  H   UNL d   1      11.817  -4.948  12.365 +0.02 +0.09    +0.167    40.754
ATOM     44  C   UNL d   1       9.211  -9.870   1.087 -0.40 -0.00    +0.004    40.754
ATOM     45  C   UNL d   1       8.321  -9.081   0.487 -0.56 -0.00    +0.012    40.754
ATOM     46  C   UNL d   1      15.152  -4.495   2.773 -0.07 +0.00    +0.004    40.754
ATOM     47  C   UNL d   1      15.122  -3.175   2.995 -0.12 +0.00    +0.012    40.754
TER
ENDMDL
MODEL       53
USER    Run = 53
USER    Cluster Rank = 8
USER    Number of conformations in this cluster = 1
USER  
USER    RMSD from reference structure       = 53.337 A
USER  
USER    Estimated Free Energy of Binding    =   -6.29 kcal/mol  [=(1)+(2)+(3)-(4)]
USER    Estimated Inhibition Constant, Ki   =   24.72 uM (micromolar)  [Temperature = 298.15 K]
USER    
USER    (1) Final Intermolecular Energy     =   -9.27 kcal/mol
USER        vdW + Hbond + desolv Energy     =   -5.76 kcal/mol
USER        Electrostatic Energy            =   -3.50 kcal/mol
USER    (2) Final Total Internal Energy     =   -0.43 kcal/mol
USER    (3) Torsional Free Energy           =   +2.98 kcal/mol
USER    (4) Unbound System's Energy  [=(2)] =   -0.43 kcal/mol
USER    
USER    
USER  
USER    DPF = D:/Protein_go_brrr/autodock/final/mut_N102T/heme_O2/dock.dpf
USER    NEWDPF move	heme_O2_opt.pdbqt
USER    NEWDPF about	8.287000 34.468000 -0.670000
USER    NEWDPF tran0	2.313569 -20.569622 -4.016216
USER    NEWDPF axisangle0	0.955269 -0.229326 0.186738 -143.834650
USER    NEWDPF quaternion0	0.908088 -0.218000 0.177515 -0.310389
USER    NEWDPF dihe0	68.94 59.16 -49.24 120.98 -113.65 112.60 67.67 27.44 28.40 179.73 
USER  
USER                              x       y       z    vdW   Elec        q     RMS 
ATOM      1  C   UNL d   1       0.285 -19.951  -3.984 -0.18 +0.02    +0.064    53.337
ATOM      2  C   UNL d   1       3.348 -20.721  -7.531 -0.14 -0.01    +0.064    53.337
ATOM      3  C   UNL d   1       6.823 -21.847  -4.409 -0.07 +0.00    +0.064    53.337
ATOM      4  C   UNL d   1       3.549 -21.521  -0.771 -0.07 +0.00    +0.064    53.337
ATOM      5  C   UNL d   1       0.834 -20.071  -5.204 -0.16 +0.01    +0.066    53.337
ATOM      6  C   UNL d   1       0.156 -19.805  -6.397 -0.17 -0.00    -0.021    53.337
ATOM      7  C   UNL d   1       1.028 -20.070  -7.426 -0.19 -0.00    -0.025    53.337
ATOM      8  C   UNL d   1       2.231 -20.443  -6.832 -0.12 -0.00    +0.066    53.337
ATOM      9  C   UNL d   1       0.682 -19.987  -8.897 -0.13 +0.00    +0.051    53.337
ATOM     10  C   UNL d   1       4.644 -21.096  -6.964 -0.05 -0.01    +0.066    53.337
ATOM     11  C   UNL d   1       5.812 -21.214  -7.725 -0.09 +0.00    -0.021    53.337
ATOM     12  C   UNL d   1       6.829 -21.521  -6.840 -0.07 -0.00    +0.000    53.337
ATOM     13  C   UNL d   1       6.207 -21.585  -5.562 -0.07 -0.00    +0.070    53.337
ATOM     14  C   UNL d   1       5.957 -21.016  -9.229 -0.08 -0.01    +0.052    53.337
ATOM     15  C   UNL d   1       6.225 -21.956  -3.101 -0.05 +0.00    +0.066    53.337
ATOM     16  C   UNL d   1       6.895 -22.394  -1.959 -0.02 -0.00    -0.021    53.337
ATOM     17  C   UNL d   1       5.981 -22.310  -0.909 -0.03 +0.00    +0.000    53.337
ATOM     18  C   UNL d   1       4.806 -21.819  -1.496 -0.05 +0.00    +0.070    53.337
ATOM     19  C   UNL d   1       8.315 -22.899  -1.982 -0.01 -0.00    +0.052    53.337
ATOM     20  C   UNL d   1       2.391 -21.091  -1.310 -0.11 +0.01    +0.066    53.337
ATOM     21  C   UNL d   1       1.244 -20.810  -0.574 -0.14 -0.00    -0.025    53.337
ATOM     22  C   UNL d   1       0.312 -20.336  -1.469 -0.19 -0.01    -0.021    53.337
ATOM     23  C   UNL d   1       0.922 -20.362  -2.727 -0.17 +0.02    +0.066    53.337
ATOM     24  C   UNL d   1       1.046 -20.989   0.909 -0.13 +0.01    +0.051    53.337
ATOM     25  N   UNL d   1       2.091 -20.506  -5.465 -0.07 +0.01    -0.248    53.337
ATOM     26  N   UNL d   1       4.877 -21.330  -5.647 -0.09 +0.01    -0.248    53.337
ATOM     27  N   UNL d   1       4.950 -21.681  -2.839 -0.05 -0.01    -0.248    53.337
ATOM     28  N   UNL d   1       2.170 -20.864  -2.632 -0.09 -0.03    -0.248    53.337
ATOM     29 FE   UNL d   1       3.516 -21.096  -4.127 -0.03 -0.00    +0.000    53.337
ATOM     30  O   UNL d   1       2.977 -22.251  -5.021 -0.07 +0.00    +0.000    53.337
ATOM     31  O   UNL d   1       3.263 -22.514  -3.495 -0.05 +0.00    +0.000    53.337
ATOM     32  C   UNL d   1      -1.298 -19.450  -6.573 -0.17 +0.02    +0.052    53.337
ATOM     33  C   UNL d   1      -1.503 -18.019  -7.061 -0.27 +0.08    +0.115    53.337
ATOM     34  C   UNL d   1      -2.201 -17.157  -6.038 -0.25 +0.19    +0.139    53.337
ATOM     35  O   UNL d   1      -1.540 -16.461  -5.284 -0.09 -0.77    -0.650    53.337
ATOM     36  O   UNL d   1      -3.545 -17.157  -5.918 -0.52 -1.75    -0.776    53.337
ATOM     37  H   UNL d   1      -4.027 -17.919  -5.577 +0.03 +0.27    +0.167    53.337
ATOM     38  C   UNL d   1      -1.104 -19.942  -1.138 -0.12 +0.03    +0.052    53.337
ATOM     39  C   UNL d   1      -2.023 -21.152  -0.982 -0.17 +0.07    +0.115    53.337
ATOM     40  C   UNL d   1      -3.464 -20.823  -1.281 -0.09 +0.16    +0.139    53.337
ATOM     41  O   UNL d   1      -4.254 -20.672  -0.363 -0.71 -0.88    -0.650    53.337
ATOM     42  O   UNL d   1      -3.889 -20.642  -2.546 -0.37 -1.09    -0.776    53.337
ATOM     43  H   UNL d   1      -3.841 -21.348  -3.201 +0.02 +0.13    +0.167    53.337
ATOM     44  C   UNL d   1       8.259 -21.720  -7.296 -0.03 -0.00    +0.004    53.337
ATOM     45  C   UNL d   1       9.356 -21.114  -6.842 -0.03 -0.00    +0.012    53.337
ATOM     46  C   UNL d   1       6.103 -22.697   0.541 -0.02 +0.00    +0.004    53.337
ATOM     47  C   UNL d   1       6.081 -21.899   1.616 -0.04 +0.00    +0.012    53.337
TER
ENDMDL
MODEL       92
USER    Run = 92
USER    Cluster Rank = 9
USER    Number of conformations in this cluster = 1
USER  
USER    RMSD from reference structure       = 16.804 A
USER  
USER    Estimated Free Energy of Binding    =   -6.14 kcal/mol  [=(1)+(2)+(3)-(4)]
USER    Estimated Inhibition Constant, Ki   =   31.80 uM (micromolar)  [Temperature = 298.15 K]
USER    
USER    (1) Final Intermolecular Energy     =   -9.12 kcal/mol
USER        vdW + Hbond + desolv Energy     =   -6.91 kcal/mol
USER        Electrostatic Energy            =   -2.21 kcal/mol
USER    (2) Final Total Internal Energy     =   -0.66 kcal/mol
USER    (3) Torsional Free Energy           =   +2.98 kcal/mol
USER    (4) Unbound System's Energy  [=(2)] =   -0.66 kcal/mol
USER    
USER    
USER  
USER    DPF = D:/Protein_go_brrr/autodock/final/mut_N102T/heme_O2/dock.dpf
USER    NEWDPF move	heme_O2_opt.pdbqt
USER    NEWDPF about	8.287000 34.468000 -0.670000
USER    NEWDPF tran0	9.457260 16.653125 2.757487
USER    NEWDPF axisangle0	-0.242818 -0.135547 0.960555 166.419467
USER    NEWDPF quaternion0	-0.241115 -0.134596 0.953818 0.118235
USER    NEWDPF dihe0	180.00 -30.56 27.95 101.93 86.93 -35.05 116.27 163.83 -165.05 169.11 
USER  
USER                              x       y       z    vdW   Elec        q     RMS 
ATOM      1  C   UNL d   1      11.575  16.641   2.879 -0.05 +0.04    +0.064    16.804
ATOM      2  C   UNL d   1       8.190  17.841   5.987 -0.17 +0.02    +0.064    16.804
ATOM      3  C   UNL d   1       4.758  16.864   2.768 -0.15 -0.00    +0.064    16.804
ATOM      4  C   UNL d   1       8.211  15.171  -0.278 -0.08 -0.02    +0.064    16.804
ATOM      5  C   UNL d   1      10.934  17.046   3.988 -0.05 +0.06    +0.066    16.804
ATOM      6  C   UNL d   1      11.578  17.450   5.160 -0.06 -0.01    -0.021    16.804
ATOM      7  C   UNL d   1      10.599  17.757   6.076 -0.11 -0.01    -0.025    16.804
ATOM      8  C   UNL d   1       9.383  17.577   5.421 -0.11 +0.04    +0.066    16.804
ATOM      9  C   UNL d   1      10.852  18.169   7.509 -0.09 +0.01    +0.051    16.804
ATOM     10  C   UNL d   1       6.884  17.694   5.344 -0.20 +0.00    +0.066    16.804
ATOM     11  C   UNL d   1       5.688  18.137   5.920 -0.28 +0.00    -0.021    16.804
ATOM     12  C   UNL d   1       4.689  17.880   4.999 -0.21 -0.00    +0.000    16.804
ATOM     13  C   UNL d   1       5.345  17.270   3.894 -0.14 -0.00    +0.070    16.804
ATOM     14  C   UNL d   1       5.510  18.802   7.279 -0.29 -0.03    +0.052    16.804
ATOM     15  C   UNL d   1       5.381  16.210   1.642 -0.09 -0.01    +0.066    16.804
ATOM     16  C   UNL d   1       4.687  15.661   0.564 -0.14 +0.01    -0.021    16.804
ATOM     17  C   UNL d   1       5.651  15.172  -0.317 -0.16 -0.00    +0.000    16.804
ATOM     18  C   UNL d   1       6.877  15.465   0.297 -0.07 -0.02    +0.070    16.804
ATOM     19  C   UNL d   1       3.182  15.603   0.499 -0.23 -0.01    +0.052    16.804
ATOM     20  C   UNL d   1       9.405  15.400   0.303 -0.05 -0.00    +0.066    16.804
ATOM     21  C   UNL d   1      10.630  15.118  -0.295 -0.07 +0.00    -0.025    16.804
ATOM     22  C   UNL d   1      11.600  15.555   0.578 -0.03 -0.00    -0.021    16.804
ATOM     23  C   UNL d   1      10.929  16.074   1.690 -0.05 +0.02    +0.066    16.804
ATOM     24  C   UNL d   1      10.864  14.462  -1.631 -0.12 -0.03    +0.051    16.804
ATOM     25  N   UNL d   1       9.589  17.076   4.156 -0.07 -0.20    -0.248    16.804
ATOM     26  N   UNL d   1       6.680  17.157   4.114 -0.11 -0.02    -0.248    16.804
ATOM     27  N   UNL d   1       6.692  16.027   1.518 -0.03 +0.01    -0.248    16.804
ATOM     28  N   UNL d   1       9.595  15.936   1.538 -0.04 -0.07    -0.248    16.804
ATOM     29 FE   UNL d   1       8.146  16.541   2.815 -0.02 +0.00    +0.000    16.804
ATOM     30  O   UNL d   1       8.235  15.599   4.051 -0.60 +0.00    +0.000    16.804
ATOM     31  O   UNL d   1       7.986  14.988   2.620 -0.24 +0.00    +0.000    16.804
ATOM     32  C   UNL d   1      13.055  17.421   5.460 -0.04 +0.02    +0.052    16.804
ATOM     33  C   UNL d   1      13.544  16.042   5.892 -0.08 +0.08    +0.115    16.804
ATOM     34  C   UNL d   1      12.960  15.613   7.215 -0.13 +0.10    +0.139    16.804
ATOM     35  O   UNL d   1      13.227  16.245   8.225 +0.01 -0.20    -0.650    16.804
ATOM     36  O   UNL d   1      12.169  14.525   7.315 -0.31 -1.09    -0.776    16.804
ATOM     37  H   UNL d   1      11.788  14.246   8.156 -0.48 +0.09    +0.167    16.804
ATOM     38  C   UNL d   1      13.088  15.421   0.378 -0.02 +0.00    +0.052    16.804
ATOM     39  C   UNL d   1      13.632  14.104   0.929 -0.03 +0.01    +0.115    16.804
ATOM     40  C   UNL d   1      12.678  13.444   1.893 -0.10 +0.06    +0.139    16.804
ATOM     41  O   UNL d   1      12.100  12.420   1.568 +0.01 -0.19    -0.650    16.804
ATOM     42  O   UNL d   1      12.490  13.937   3.132 -0.55 -1.03    -0.776    16.804
ATOM     43  H   UNL d   1      13.180  14.434   3.589 +0.01 +0.17    +0.167    16.804
ATOM     44  C   UNL d   1       3.241  18.233   5.265 -0.28 -0.00    +0.004    16.804
ATOM     45  C   UNL d   1       2.152  17.693   4.717 -0.29 -0.00    +0.012    16.804
ATOM     46  C   UNL d   1       5.514  14.424  -1.616 -0.22 -0.00    +0.004    16.804
ATOM     47  C   UNL d   1       5.520  14.919  -2.861 -0.30 -0.01    +0.012    16.804
TER
ENDMDL
MODEL       46
USER    Run = 46
USER    Cluster Rank = 10
USER    Number of conformations in this cluster = 1
USER  
USER    RMSD from reference structure       = 35.474 A
USER  
USER    Estimated Free Energy of Binding    =   -6.12 kcal/mol  [=(1)+(2)+(3)-(4)]
USER    Estimated Inhibition Constant, Ki   =   32.76 uM (micromolar)  [Temperature = 298.15 K]
USER    
USER    (1) Final Intermolecular Energy     =   -9.10 kcal/mol
USER        vdW + Hbond + desolv Energy     =   -8.48 kcal/mol
USER        Electrostatic Energy            =   -0.62 kcal/mol
USER    (2) Final Total Internal Energy     =   -0.80 kcal/mol
USER    (3) Torsional Free Energy           =   +2.98 kcal/mol
USER    (4) Unbound System's Energy  [=(2)] =   -0.80 kcal/mol
USER    
USER    
USER  
USER    DPF = D:/Protein_go_brrr/autodock/final/mut_N102T/heme_O2/dock.dpf
USER    NEWDPF move	heme_O2_opt.pdbqt
USER    NEWDPF about	8.287000 34.468000 -0.670000
USER    NEWDPF tran0	-11.582342 3.346737 10.770985
USER    NEWDPF axisangle0	0.462206 0.029454 -0.886283 94.712984
USER    NEWDPF quaternion0	0.339991 0.021666 -0.651935 0.677435
USER    NEWDPF dihe0	16.94 -111.28 24.09 31.78 125.11 142.67 -80.41 146.68 0.87 -180.00 
USER  
USER                              x       y       z    vdW   Elec        q     RMS 
ATOM      1  C   UNL d   1     -12.006   1.273  10.636 -0.21 -0.01    +0.064    35.474
ATOM      2  C   UNL d   1     -11.214   4.152  14.330 -0.13 +0.01    +0.064    35.474
ATOM      3  C   UNL d   1     -10.555   7.895  11.388 -0.32 +0.00    +0.064    35.474
ATOM      4  C   UNL d   1     -11.838   5.045   7.607 -0.17 -0.00    +0.064    35.474
ATOM      5  C   UNL d   1     -11.846   1.751  11.881 -0.20 -0.00    +0.066    35.474
ATOM      6  C   UNL d   1     -11.933   0.970  13.037 -0.16 -0.00    -0.021    35.474
ATOM      7  C   UNL d   1     -11.747   1.810  14.109 -0.14 -0.00    -0.025    35.474
ATOM      8  C   UNL d   1     -11.503   3.074  13.577 -0.15 +0.00    +0.066    35.474
ATOM      9  C   UNL d   1     -11.836   1.394  15.561 -0.08 +0.01    +0.051    35.474
ATOM     10  C   UNL d   1     -10.927   5.497  13.828 -0.03 +0.01    +0.066    35.474
ATOM     11  C   UNL d   1     -10.473   6.541  14.641 -0.18 -0.00    -0.021    35.474
ATOM     12  C   UNL d   1     -10.260   7.624  13.808 -0.25 +0.00    +0.000    35.474
ATOM     13  C   UNL d   1     -10.616   7.172  12.507 -0.27 +0.00    +0.070    35.474
ATOM     14  C   UNL d   1     -10.226   6.499  16.144 -0.12 +0.00    +0.052    35.474
ATOM     15  C   UNL d   1     -10.939   7.486  10.059 -0.29 -0.00    +0.066    35.474
ATOM     16  C   UNL d   1     -11.007   8.340   8.958 -0.26 +0.00    -0.021    35.474
ATOM     17  C   UNL d   1     -11.372   7.549   7.868 -0.28 -0.00    +0.000    35.474
ATOM     18  C   UNL d   1     -11.499   6.255   8.393 -0.24 -0.00    +0.070    35.474
ATOM     19  C   UNL d   1     -10.774   9.827   9.055 -0.22 -0.01    +0.052    35.474
ATOM     20  C   UNL d   1     -12.010   3.798   8.085 -0.24 -0.00    +0.066    35.474
ATOM     21  C   UNL d   1     -12.312   2.693   7.293 -0.22 +0.00    -0.025    35.474
ATOM     22  C   UNL d   1     -12.337   1.605   8.136 -0.21 +0.00    -0.021    35.474
ATOM     23  C   UNL d   1     -12.066   2.090   9.419 -0.21 -0.01    +0.066    35.474
ATOM     24  C   UNL d   1     -12.567   2.678   5.809 -0.22 -0.00    +0.051    35.474
ATOM     25  N   UNL d   1     -11.629   3.049  12.207 -0.09 +0.00    -0.248    35.474
ATOM     26  N   UNL d   1     -11.025   5.878  12.529 -0.10 -0.02    -0.248    35.474
ATOM     27  N   UNL d   1     -11.306   6.249   9.736 -0.17 +0.00    -0.248    35.474
ATOM     28  N   UNL d   1     -11.913   3.430   9.390 -0.16 +0.02    -0.248    35.474
ATOM     29 FE   UNL d   1     -11.472   4.648  10.946 -0.06 -0.00    +0.000    35.474
ATOM     30  O   UNL d   1     -12.742   4.680  11.846 -0.15 -0.00    +0.000    35.474
ATOM     31  O   UNL d   1     -12.840   5.132  10.341 -0.15 -0.00    +0.000    35.474
ATOM     32  C   UNL d   1     -12.313  -0.485  13.142 -0.09 -0.00    +0.052    35.474
ATOM     33  C   UNL d   1     -11.132  -1.423  12.917 -0.20 -0.02    +0.115    35.474
ATOM     34  C   UNL d   1     -10.516  -1.893  14.211 -0.16 +0.04    +0.139    35.474
ATOM     35  O   UNL d   1     -10.622  -1.206  15.215 -0.38 -0.39    -0.650    35.474
ATOM     36  O   UNL d   1      -9.823  -3.048  14.282 -0.54 -0.23    -0.776    35.474
ATOM     37  H   UNL d   1      -9.485  -3.490  13.494 -0.31 -0.09    +0.167    35.474
ATOM     38  C   UNL d   1     -12.667   0.190   7.734 -0.19 -0.02    +0.052    35.474
ATOM     39  C   UNL d   1     -14.168  -0.031   7.565 -0.06 -0.03    +0.115    35.474
ATOM     40  C   UNL d   1     -14.984   0.780   8.540 -0.01 -0.02    +0.139    35.474
ATOM     41  O   UNL d   1     -15.011   0.464   9.719 +0.02 +0.08    -0.650    35.474
ATOM     42  O   UNL d   1     -15.647   1.884   8.143 +0.02 +0.07    -0.776    35.474
ATOM     43  H   UNL d   1     -15.357   2.767   8.400 +0.01 -0.01    +0.167    35.474
ATOM     44  C   UNL d   1      -9.752   8.952  14.330 -0.21 +0.00    +0.004    35.474
ATOM     45  C   UNL d   1      -9.839  10.147  13.748 -0.16 +0.00    +0.012    35.474
ATOM     46  C   UNL d   1     -11.658   7.913   6.436 -0.25 -0.00    +0.004    35.474
ATOM     47  C   UNL d   1     -11.210   8.969   5.744 -0.28 -0.00    +0.012    35.474
TER
ENDMDL
MODEL       57
USER    Run = 57
USER    Cluster Rank = 11
USER    Number of conformations in this cluster = 3
USER  
USER    RMSD from reference structure       = 34.013 A
USER  
USER    Estimated Free Energy of Binding    =   -6.02 kcal/mol  [=(1)+(2)+(3)-(4)]
USER    Estimated Inhibition Constant, Ki   =   38.51 uM (micromolar)  [Temperature = 298.15 K]
USER    
USER    (1) Final Intermolecular Energy     =   -9.01 kcal/mol
USER        vdW + Hbond + desolv Energy     =   -7.97 kcal/mol
USER        Electrostatic Energy            =   -1.03 kcal/mol
USER    (2) Final Total Internal Energy     =   -0.69 kcal/mol
USER    (3) Torsional Free Energy           =   +2.98 kcal/mol
USER    (4) Unbound System's Energy  [=(2)] =   -0.69 kcal/mol
USER    
USER    
USER  
USER    DPF = D:/Protein_go_brrr/autodock/final/mut_N102T/heme_O2/dock.dpf
USER    NEWDPF move	heme_O2_opt.pdbqt
USER    NEWDPF about	8.287000 34.468000 -0.670000
USER    NEWDPF tran0	-12.642392 5.047390 7.035304
USER    NEWDPF axisangle0	0.582364 -0.081158 0.808867 120.406310
USER    NEWDPF quaternion0	0.505372 -0.070428 0.701929 0.496926
USER    NEWDPF dihe0	123.41 -52.47 32.45 -40.89 -91.14 -171.65 -61.75 -56.29 -161.10 -179.05 
USER  
USER                              x       y       z    vdW   Elec        q     RMS 
ATOM      1  C   UNL d   1     -12.898   5.864   5.094 -0.10 +0.00    +0.064    34.013
ATOM      2  C   UNL d   1     -11.711   7.809   9.262 -0.18 -0.00    +0.064    34.013
ATOM      3  C   UNL d   1     -12.080   3.551  11.459 -0.15 -0.00    +0.064    34.013
ATOM      4  C   UNL d   1     -12.834   1.453   7.089 -0.15 -0.01    +0.064    34.013
ATOM      5  C   UNL d   1     -12.543   6.740   6.048 -0.12 -0.00    +0.066    34.013
ATOM      6  C   UNL d   1     -12.355   8.107   5.824 -0.16 +0.00    -0.021    34.013
ATOM      7  C   UNL d   1     -11.969   8.664   7.021 -0.17 +0.00    -0.025    34.013
ATOM      8  C   UNL d   1     -11.979   7.630   7.954 -0.18 -0.00    +0.066    34.013
ATOM      9  C   UNL d   1     -11.587  10.115   7.218 -0.16 -0.01    +0.051    34.013
ATOM     10  C   UNL d   1     -11.728   6.768  10.291 -0.19 -0.00    +0.066    34.013
ATOM     11  C   UNL d   1     -11.603   7.036  11.658 -0.18 -0.00    -0.021    34.013
ATOM     12  C   UNL d   1     -11.725   5.823  12.310 -0.17 +0.00    +0.000    34.013
ATOM     13  C   UNL d   1     -11.909   4.860  11.279 -0.10 -0.00    +0.070    34.013
ATOM     14  C   UNL d   1     -11.404   8.396  12.317 -0.15 +0.00    +0.052    34.013
ATOM     15  C   UNL d   1     -12.234   2.539  10.441 -0.18 -0.01    +0.066    34.013
ATOM     16  C   UNL d   1     -12.244   1.166  10.686 -0.20 +0.00    -0.021    34.013
ATOM     17  C   UNL d   1     -12.457   0.548   9.454 -0.18 -0.00    +0.000    34.013
ATOM     18  C   UNL d   1     -12.564   1.604   8.538 -0.17 -0.01    +0.070    34.013
ATOM     19  C   UNL d   1     -11.996   0.572  12.050 -0.20 -0.00    +0.052    34.013
ATOM     20  C   UNL d   1     -12.901   2.441   6.176 -0.14 -0.01    +0.066    34.013
ATOM     21  C   UNL d   1     -13.176   2.239   4.826 -0.15 +0.00    -0.025    34.013
ATOM     22  C   UNL d   1     -13.225   3.487   4.247 -0.13 -0.00    -0.021    34.013
ATOM     23  C   UNL d   1     -12.959   4.407   5.266 -0.13 +0.00    +0.066    34.013
ATOM     24  C   UNL d   1     -13.379   0.921   4.124 -0.06 -0.01    +0.051    34.013
ATOM     25  N   UNL d   1     -12.269   6.433   7.340 -0.11 +0.01    -0.248    34.013
ATOM     26  N   UNL d   1     -11.905   5.443  10.053 -0.13 +0.01    -0.248    34.013
ATOM     27  N   UNL d   1     -12.352   2.801   9.142 -0.13 +0.02    -0.248    34.013
ATOM     28  N   UNL d   1     -12.718   3.764   6.427 -0.09 +0.01    -0.248    34.013
ATOM     29 FE   UNL d   1     -12.314   4.595   8.228 -0.04 -0.00    +0.000    34.013
ATOM     30  O   UNL d   1     -10.886   5.204   8.116 -0.48 +0.00    +0.000    34.013
ATOM     31  O   UNL d   1     -11.102   3.665   7.855 -0.66 +0.00    +0.000    34.013
ATOM     32  C   UNL d   1     -12.400   8.842   4.510 -0.13 -0.00    +0.052    34.013
ATOM     33  C   UNL d   1     -11.136   8.648   3.679 -0.21 -0.00    +0.115    34.013
ATOM     34  C   UNL d   1     -11.405   7.926   2.382 -0.15 +0.01    +0.139    34.013
ATOM     35  O   UNL d   1     -11.185   8.488   1.321 -0.01 -0.01    -0.650    34.013
ATOM     36  O   UNL d   1     -11.914   6.676   2.365 -0.32 -0.17    -0.776    34.013
ATOM     37  H   UNL d   1     -12.727   6.462   1.893 +0.03 +0.02    +0.167    34.013
ATOM     38  C   UNL d   1     -13.452   3.769   2.784 -0.11 +0.01    +0.052    34.013
ATOM     39  C   UNL d   1     -12.203   3.515   1.943 -0.20 +0.04    +0.115    34.013
ATOM     40  C   UNL d   1     -12.441   2.508   0.846 +0.01 +0.09    +0.139    34.013
ATOM     41  O   UNL d   1     -13.305   1.657   0.982 -0.44 -0.52    -0.650    34.013
ATOM     42  O   UNL d   1     -11.751   2.562  -0.310 -0.35 -0.53    -0.776    34.013
ATOM     43  H   UNL d   1     -11.670   3.382  -0.812 +0.04 +0.06    +0.167    34.013
ATOM     44  C   UNL d   1     -11.651   5.710  13.818 -0.17 +0.00    +0.004    34.013
ATOM     45  C   UNL d   1     -11.246   4.667  14.542 -0.17 +0.00    +0.012    34.013
ATOM     46  C   UNL d   1     -12.507  -0.908   9.075 -0.18 -0.00    +0.004    34.013
ATOM     47  C   UNL d   1     -11.647  -1.881   9.406 -0.28 -0.01    +0.012    34.013
TER
ENDMDL
MODEL       58
USER    Run = 58
USER    Cluster Rank = 12
USER    Number of conformations in this cluster = 2
USER  
USER    RMSD from reference structure       = 33.474 A
USER  
USER    Estimated Free Energy of Binding    =   -6.02 kcal/mol  [=(1)+(2)+(3)-(4)]
USER    Estimated Inhibition Constant, Ki   =   38.99 uM (micromolar)  [Temperature = 298.15 K]
USER    
USER    (1) Final Intermolecular Energy     =   -9.00 kcal/mol
USER        vdW + Hbond + desolv Energy     =   -6.47 kcal/mol
USER        Electrostatic Energy            =   -2.53 kcal/mol
USER    (2) Final Total Internal Energy     =   -2.00 kcal/mol
USER    (3) Torsional Free Energy           =   +2.98 kcal/mol
USER    (4) Unbound System's Energy  [=(2)] =   -2.00 kcal/mol
USER    
USER    
USER  
USER    DPF = D:/Protein_go_brrr/autodock/final/mut_N102T/heme_O2/dock.dpf
USER    NEWDPF move	heme_O2_opt.pdbqt
USER    NEWDPF about	8.287000 34.468000 -0.670000
USER    NEWDPF tran0	11.369434 1.005630 13.997010
USER    NEWDPF axisangle0	-0.434394 -0.657389 0.615745 -52.610851
USER    NEWDPF quaternion0	-0.192505 -0.291326 0.272871 -0.896444
USER    NEWDPF dihe0	102.23 -121.69 51.98 -120.03 -132.05 60.48 105.12 -88.92 22.06 -22.54 
USER  
USER                              x       y       z    vdW   Elec        q     RMS 
ATOM      1  C   UNL d   1      10.370   0.200  12.308 -0.20 +0.02    +0.064    33.474
ATOM      2  C   UNL d   1       9.873  -0.522  16.976 +0.04 +0.02    +0.064    33.474
ATOM      3  C   UNL d   1      13.446   2.549  17.925 -0.09 +0.04    +0.064    33.474
ATOM      4  C   UNL d   1      13.648   3.662  13.152 -0.16 +0.03    +0.064    33.474
ATOM      5  C   UNL d   1       9.942  -0.246  13.501 -0.15 +0.02    +0.066    33.474
ATOM      6  C   UNL d   1       8.919  -1.184  13.664 -0.15 -0.00    -0.021    33.474
ATOM      7  C   UNL d   1       8.745  -1.362  15.017 -0.13 -0.01    -0.025    33.474
ATOM      8  C   UNL d   1       9.700  -0.563  15.641 -0.07 +0.02    +0.066    33.474
ATOM      9  C   UNL d   1       7.685  -2.239  15.646 -0.13 +0.01    +0.051    33.474
ATOM     10  C   UNL d   1      10.872   0.278  17.687 -0.07 +0.02    +0.066    33.474
ATOM     11  C   UNL d   1      11.118   0.159  19.059 -0.07 -0.01    -0.021    33.474
ATOM     12  C   UNL d   1      12.157   1.024  19.349 -0.05 +0.00    +0.000    33.474
ATOM     13  C   UNL d   1      12.485   1.644  18.112 -0.08 +0.03    +0.070    33.474
ATOM     14  C   UNL d   1      10.410  -0.761  20.048 -0.04 +0.01    +0.052    33.474
ATOM     15  C   UNL d   1      13.786   3.226  16.697 -0.08 +0.05    +0.066    33.474
ATOM     16  C   UNL d   1      14.691   4.282  16.601 -0.07 -0.01    -0.021    33.474
ATOM     17  C   UNL d   1      14.764   4.617  15.249 -0.03 +0.00    +0.000    33.474
ATOM     18  C   UNL d   1      13.888   3.726  14.613 -0.10 +0.04    +0.070    33.474
ATOM     19  C   UNL d   1      15.356   4.908  17.801 -0.06 +0.03    +0.052    33.474
ATOM     20  C   UNL d   1      12.783   2.850  12.514 -0.20 +0.02    +0.066    33.474
ATOM     21  C   UNL d   1      12.612   2.822  11.132 -0.29 -0.01    -0.025    33.474
ATOM     22  C   UNL d   1      11.702   1.823  10.872 -0.33 -0.01    -0.021    33.474
ATOM     23  C   UNL d   1      11.335   1.287  12.110 -0.21 +0.02    +0.066    33.474
ATOM     24  C   UNL d   1      13.282   3.707  10.113 -0.04 +0.01    +0.051    33.474
ATOM     25  N   UNL d   1      10.393   0.174  14.709 -0.10 -0.07    -0.248    33.474
ATOM     26  N   UNL d   1      11.695   1.188  17.107 -0.09 -0.11    -0.248    33.474
ATOM     27  N   UNL d   1      13.247   2.940  15.515 -0.10 -0.16    -0.248    33.474
ATOM     28  N   UNL d   1      11.961   1.945  13.108 -0.12 -0.08    -0.248    33.474
ATOM     29 FE   UNL d   1      11.831   1.571  15.093 -0.03 +0.00    +0.000    33.474
ATOM     30  O   UNL d   1      10.400   2.007  15.525 -0.41 +0.00    +0.000    33.474
ATOM     31  O   UNL d   1      11.369   3.057  14.862 -0.42 +0.00    +0.000    33.474
ATOM     32  C   UNL d   1       8.043  -1.790  12.599 -0.22 +0.01    +0.052    33.474
ATOM     33  C   UNL d   1       8.405  -3.239  12.288 -0.15 +0.04    +0.115    33.474
ATOM     34  C   UNL d   1       9.639  -3.352  11.427 -0.14 +0.10    +0.139    33.474
ATOM     35  O   UNL d   1      10.741  -3.195  11.929 +0.02 -0.42    -0.650    33.474
ATOM     36  O   UNL d   1       9.553  -3.596  10.103 -0.42 -1.20    -0.776    33.474
ATOM     37  H   UNL d   1       9.669  -2.900   9.446 +0.04 +0.32    +0.167    33.474
ATOM     38  C   UNL d   1      11.170   1.452   9.511 -0.41 +0.02    +0.052    33.474
ATOM     39  C   UNL d   1      12.149   0.586   8.720 -0.36 +0.05    +0.115    33.474
ATOM     40  C   UNL d   1      11.939  -0.888   8.963 -0.04 +0.12    +0.139    33.474
ATOM     41  O   UNL d   1      12.865  -1.666   8.801 -0.17 -0.76    -0.650    33.474
ATOM     42  O   UNL d   1      10.758  -1.360   9.406 -0.35 -0.90    -0.776    33.474
ATOM     43  H   UNL d   1      10.684  -1.826  10.247 +0.04 +0.17    +0.167    33.474
ATOM     44  C   UNL d   1      12.716   1.169  20.749 -0.02 +0.00    +0.004    33.474
ATOM     45  C   UNL d   1      12.972   2.293  21.416 -0.01 +0.00    +0.012    33.474
ATOM     46  C   UNL d   1      15.522   5.708  14.540 -0.12 +0.00    +0.004    33.474
ATOM     47  C   UNL d   1      15.048   6.631  13.693 -0.16 +0.00    +0.012    33.474
TER
ENDMDL
MODEL       31
USER    Run = 31
USER    Cluster Rank = 13
USER    Number of conformations in this cluster = 1
USER  
USER    RMSD from reference structure       = 30.065 A
USER  
USER    Estimated Free Energy of Binding    =   -5.96 kcal/mol  [=(1)+(2)+(3)-(4)]
USER    Estimated Inhibition Constant, Ki   =   42.65 uM (micromolar)  [Temperature = 298.15 K]
USER    
USER    (1) Final Intermolecular Energy     =   -8.94 kcal/mol
USER        vdW + Hbond + desolv Energy     =   -7.75 kcal/mol
USER        Electrostatic Energy            =   -1.19 kcal/mol
USER    (2) Final Total Internal Energy     =   -1.68 kcal/mol
USER    (3) Torsional Free Energy           =   +2.98 kcal/mol
USER    (4) Unbound System's Energy  [=(2)] =   -1.68 kcal/mol
USER    
USER    
USER  
USER    DPF = D:/Protein_go_brrr/autodock/final/mut_N102T/heme_O2/dock.dpf
USER    NEWDPF move	heme_O2_opt.pdbqt
USER    NEWDPF about	8.287000 34.468000 -0.670000
USER    NEWDPF tran0	15.656777 4.302972 -5.561556
USER    NEWDPF axisangle0	0.536081 -0.534239 -0.653609 177.360474
USER    NEWDPF quaternion0	0.535939 -0.534098 -0.653436 0.023032
USER    NEWDPF dihe0	-167.97 -38.17 -60.85 -73.63 -145.02 -39.37 75.27 -1.67 -14.82 0.20 
USER  
USER                              x       y       z    vdW   Elec        q     RMS 
ATOM      1  C   UNL d   1      16.628   4.481  -3.684 -0.16 -0.02    +0.064    30.065
ATOM      2  C   UNL d   1      15.268   7.691  -6.910 -0.14 -0.01    +0.064    30.065
ATOM      3  C   UNL d   1      13.588   4.226  -9.785 -0.22 -0.02    +0.064    30.065
ATOM      4  C   UNL d   1      14.550   0.950  -6.263 -0.10 -0.01    +0.064    30.065
ATOM      5  C   UNL d   1      16.394   5.637  -4.326 -0.17 -0.02    +0.066    30.065
ATOM      6  C   UNL d   1      16.757   6.894  -3.834 -0.17 +0.01    -0.021    30.065
ATOM      7  C   UNL d   1      16.325   7.827  -4.747 -0.17 +0.01    -0.025    30.065
ATOM      8  C   UNL d   1      15.752   7.112  -5.795 -0.16 -0.02    +0.066    30.065
ATOM      9  C   UNL d   1      16.445   9.326  -4.575 -0.12 -0.01    +0.051    30.065
ATOM     10  C   UNL d   1      14.676   6.992  -8.052 -0.21 -0.01    +0.066    30.065
ATOM     11  C   UNL d   1      14.339   7.627  -9.252 -0.20 +0.00    -0.021    30.065
ATOM     12  C   UNL d   1      13.869   6.642 -10.100 -0.28 -0.00    +0.000    30.065
ATOM     13  C   UNL d   1      13.937   5.436  -9.349 -0.24 -0.02    +0.070    30.065
ATOM     14  C   UNL d   1      14.484   9.108  -9.585 -0.13 -0.01    +0.052    30.065
ATOM     15  C   UNL d   1      13.608   2.988  -9.044 -0.21 -0.02    +0.066    30.065
ATOM     16  C   UNL d   1      13.075   1.783  -9.503 -0.27 +0.01    -0.021    30.065
ATOM     17  C   UNL d   1      13.337   0.835  -8.515 -0.18 -0.00    +0.000    30.065
ATOM     18  C   UNL d   1      14.021   1.540  -7.515 -0.13 -0.01    +0.070    30.065
ATOM     19  C   UNL d   1      12.324   1.659 -10.805 -0.15 -0.01    +0.052    30.065
ATOM     20  C   UNL d   1      15.172   1.606  -5.264 -0.10 -0.01    +0.066    30.065
ATOM     21  C   UNL d   1      15.665   0.992  -4.116 -0.10 +0.00    -0.025    30.065
ATOM     22  C   UNL d   1      16.285   1.979  -3.382 -0.14 +0.00    -0.021    30.065
ATOM     23  C   UNL d   1      16.130   3.166  -4.104 -0.15 -0.01    +0.066    30.065
ATOM     24  C   UNL d   1      15.548  -0.461  -3.736 -0.07 -0.00    +0.051    30.065
ATOM     25  N   UNL d   1      15.736   5.767  -5.505 -0.12 +0.06    -0.248    30.065
ATOM     26  N   UNL d   1      14.425   5.659  -8.102 -0.16 +0.05    -0.248    30.065
ATOM     27  N   UNL d   1      14.110   2.860  -7.819 -0.11 +0.05    -0.248    30.065
ATOM     28  N   UNL d   1      15.414   2.943  -5.226 -0.08 +0.04    -0.248    30.065
ATOM     29 FE   UNL d   1      14.922   4.289  -6.655 -0.04 -0.00    +0.000    30.065
ATOM     30  O   UNL d   1      13.868   5.238  -6.013 -0.81 -0.00    +0.000    30.065
ATOM     31  O   UNL d   1      13.582   3.691  -6.088 -0.72 -0.00    +0.000    30.065
ATOM     32  C   UNL d   1      17.364   7.220  -2.494 -0.00 -0.03    +0.052    30.065
ATOM     33  C   UNL d   1      18.798   6.716  -2.354 -0.07 -0.01    +0.115    30.065
ATOM     34  C   UNL d   1      18.901   5.522  -1.439 -0.05 +0.04    +0.139    30.065
ATOM     35  O   UNL d   1      18.352   4.476  -1.746 -0.30 -0.49    -0.650    30.065
ATOM     36  O   UNL d   1      19.567   5.589  -0.267 -0.01 -0.30    -0.776    30.065
ATOM     37  H   UNL d   1      19.789   4.800   0.240 +0.01 +0.09    +0.167    30.065
ATOM     38  C   UNL d   1      16.930   1.796  -2.033 -0.01 +0.02    +0.052    30.065
ATOM     39  C   UNL d   1      18.453   1.720  -2.121 -0.06 +0.04    +0.115    30.065
ATOM     40  C   UNL d   1      19.104   1.606  -0.766 -0.05 +0.06    +0.139    30.065
ATOM     41  O   UNL d   1      19.562   0.534  -0.402 +0.01 -0.13    -0.650    30.065
ATOM     42  O   UNL d   1      19.237   2.680   0.036 -0.15 -0.62    -0.776    30.065
ATOM     43  H   UNL d   1      19.412   3.559  -0.323 +0.01 +0.14    +0.167    30.065
ATOM     44  C   UNL d   1      13.411   6.947 -11.511 -0.30 -0.00    +0.004    30.065
ATOM     45  C   UNL d   1      13.957   6.539 -12.656 -0.23 -0.00    +0.012    30.065
ATOM     46  C   UNL d   1      12.957  -0.619  -8.415 -0.21 -0.00    +0.004    30.065
ATOM     47  C   UNL d   1      11.787  -1.145  -8.031 -0.34 -0.00    +0.012    30.065
TER
ENDMDL
MODEL       62
USER    Run = 62
USER    Cluster Rank = 14
USER    Number of conformations in this cluster = 1
USER  
USER    RMSD from reference structure       = 36.776 A
USER  
USER    Estimated Free Energy of Binding    =   -5.87 kcal/mol  [=(1)+(2)+(3)-(4)]
USER    Estimated Inhibition Constant, Ki   =   49.39 uM (micromolar)  [Temperature = 298.15 K]
USER    
USER    (1) Final Intermolecular Energy     =   -8.86 kcal/mol
USER        vdW + Hbond + desolv Energy     =   -7.86 kcal/mol
USER        Electrostatic Energy            =   -1.00 kcal/mol
USER    (2) Final Total Internal Energy     =   -0.81 kcal/mol
USER    (3) Torsional Free Energy           =   +2.98 kcal/mol
USER    (4) Unbound System's Energy  [=(2)] =   -0.81 kcal/mol
USER    
USER    
USER  
USER    DPF = D:/Protein_go_brrr/autodock/final/mut_N102T/heme_O2/dock.dpf
USER    NEWDPF move	heme_O2_opt.pdbqt
USER    NEWDPF about	8.287000 34.468000 -0.670000
USER    NEWDPF tran0	7.785625 -1.795953 16.124619
USER    NEWDPF axisangle0	-0.243440 -0.518866 0.819460 156.426378
USER    NEWDPF quaternion0	-0.238307 -0.507925 0.802182 0.204271
USER    NEWDPF dihe0	-36.14 -102.63 82.25 -27.57 47.40 -179.58 -124.77 105.45 -174.50 33.35 
USER  
USER                              x       y       z    vdW   Elec        q     RMS 
ATOM      1  C   UNL d   1       9.770  -1.147  16.499 -0.07 +0.02    +0.064    36.776
ATOM      2  C   UNL d   1       6.625  -3.537  19.136 -0.02 -0.00    +0.064    36.776
ATOM      3  C   UNL d   1       3.355  -3.294  15.622 -0.38 -0.01    +0.064    36.776
ATOM      4  C   UNL d   1       6.744  -1.253  12.721 -0.30 +0.00    +0.064    36.776
ATOM      5  C   UNL d   1       9.182  -1.819  17.503 -0.06 +0.01    +0.066    36.776
ATOM      6  C   UNL d   1       9.794  -2.085  18.731 -0.03 -0.00    -0.021    36.776
ATOM      7  C   UNL d   1       8.900  -2.815  19.479 -0.02 -0.00    -0.025    36.776
ATOM      8  C   UNL d   1       7.748  -2.932  18.705 -0.03 +0.00    +0.066    36.776
ATOM      9  C   UNL d   1       9.181  -3.381  20.853 -0.00 +0.00    +0.051    36.776
ATOM     10  C   UNL d   1       5.379  -3.671  18.380 -0.06 -0.01    +0.066    36.776
ATOM     11  C   UNL d   1       4.192  -4.163  18.933 -0.07 +0.00    -0.021    36.776
ATOM     12  C   UNL d   1       3.232  -4.084  17.941 -0.17 -0.00    +0.000    36.776
ATOM     13  C   UNL d   1       3.907  -3.548  16.809 -0.20 -0.01    +0.070    36.776
ATOM     14  C   UNL d   1       3.974  -4.661  20.357 -0.03 -0.01    +0.052    36.776
ATOM     15  C   UNL d   1       4.011  -2.785  14.442 -0.21 -0.01    +0.066    36.776
ATOM     16  C   UNL d   1       3.416  -2.696  13.184 -0.40 +0.00    -0.021    36.776
ATOM     17  C   UNL d   1       4.364  -2.117  12.340 -0.44 -0.00    +0.000    36.776
ATOM     18  C   UNL d   1       5.481  -1.892  13.158 -0.31 -0.00    +0.070    36.776
ATOM     19  C   UNL d   1       2.032  -3.215  12.890 -0.39 -0.00    +0.052    36.776
ATOM     20  C   UNL d   1       7.849  -1.062  13.468 -0.21 +0.01    +0.066    36.776
ATOM     21  C   UNL d   1       9.004  -0.437  13.007 -0.22 -0.01    -0.025    36.776
ATOM     22  C   UNL d   1       9.867  -0.373  14.078 -0.15 -0.01    -0.021    36.776
ATOM     23  C   UNL d   1       9.211  -0.981  15.153 -0.08 +0.02    +0.066    36.776
ATOM     24  C   UNL d   1       9.272   0.071  11.614 -0.20 +0.02    +0.051    36.776
ATOM     25  N   UNL d   1       7.946  -2.375  17.463 -0.04 -0.02    -0.248    36.776
ATOM     26  N   UNL d   1       5.214  -3.305  17.083 -0.06 +0.02    -0.248    36.776
ATOM     27  N   UNL d   1       5.275  -2.372  14.411 -0.15 +0.02    -0.248    36.776
ATOM     28  N   UNL d   1       8.002  -1.438  14.766 -0.08 -0.04    -0.248    36.776
ATOM     29 FE   UNL d   1       6.616  -2.365  15.914 -0.03 +0.00    +0.000    36.776
ATOM     30  O   UNL d   1       7.192  -3.774  16.238 -0.11 +0.00    +0.000    36.776
ATOM     31  O   UNL d   1       6.984  -3.341  14.737 -0.16 +0.00    +0.000    36.776
ATOM     32  C   UNL d   1      11.214  -1.787  19.139 -0.01 +0.01    +0.052    36.776
ATOM     33  C   UNL d   1      12.171  -2.936  18.835 -0.00 +0.01    +0.115    36.776
ATOM     34  C   UNL d   1      12.094  -3.383  17.396 -0.00 +0.02    +0.139    36.776
ATOM     35  O   UNL d   1      11.502  -4.413  17.115 +0.01 -0.08    -0.650    36.776
ATOM     36  O   UNL d   1      12.692  -2.684  16.410 +0.01 -0.12    -0.776    36.776
ATOM     37  H   UNL d   1      12.737  -1.720  16.421 +0.01 +0.03    +0.167    36.776
ATOM     38  C   UNL d   1      11.267   0.183  14.046 -0.12 +0.01    +0.052    36.776
ATOM     39  C   UNL d   1      11.563   1.085  15.242 -0.15 +0.04    +0.115    36.776
ATOM     40  C   UNL d   1      10.915   2.441  15.114 -0.32 +0.08    +0.139    36.776
ATOM     41  O   UNL d   1      10.815   2.965  14.016 -0.07 -0.34    -0.650    36.776
ATOM     42  O   UNL d   1      10.396   3.068  16.188 -0.46 -0.72    -0.776    36.776
ATOM     43  H   UNL d   1       9.448   3.057  16.370 -0.41 +0.07    +0.167    36.776
ATOM     44  C   UNL d   1       1.801  -4.523  18.169 -0.25 -0.00    +0.004    36.776
ATOM     45  C   UNL d   1       1.219  -5.655  17.776 -0.36 -0.00    +0.012    36.776
ATOM     46  C   UNL d   1       4.325  -1.823  10.864 -0.50 +0.00    +0.004    36.776
ATOM     47  C   UNL d   1       3.726  -2.527   9.895 -0.53 +0.00    +0.012    36.776
TER
ENDMDL
MODEL       20
USER    Run = 20
USER    Cluster Rank = 15
USER    Number of conformations in this cluster = 2
USER  
USER    RMSD from reference structure       = 26.271 A
USER  
USER    Estimated Free Energy of Binding    =   -5.81 kcal/mol  [=(1)+(2)+(3)-(4)]
USER    Estimated Inhibition Constant, Ki   =   54.95 uM (micromolar)  [Temperature = 298.15 K]
USER    
USER    (1) Final Intermolecular Energy     =   -8.79 kcal/mol
USER        vdW + Hbond + desolv Energy     =   -7.51 kcal/mol
USER        Electrostatic Energy            =   -1.28 kcal/mol
USER    (2) Final Total Internal Energy     =   -0.48 kcal/mol
USER    (3) Torsional Free Energy           =   +2.98 kcal/mol
USER    (4) Unbound System's Energy  [=(2)] =   -0.48 kcal/mol
USER    
USER    
USER  
USER    DPF = D:/Protein_go_brrr/autodock/final/mut_N102T/heme_O2/dock.dpf
USER    NEWDPF move	heme_O2_opt.pdbqt
USER    NEWDPF about	8.287000 34.468000 -0.670000
USER    NEWDPF tran0	-4.587734 13.380035 -14.060187
USER    NEWDPF axisangle0	-0.334442 0.232185 -0.913366 -139.791730
USER    NEWDPF quaternion0	-0.314065 0.218038 -0.857715 -0.343727
USER    NEWDPF dihe0	102.83 37.85 83.96 98.26 52.26 112.30 12.74 -44.00 174.89 -11.00 
USER  
USER                              x       y       z    vdW   Elec        q     RMS 
ATOM      1  C   UNL d   1      -3.807  14.463 -15.709 -0.16 +0.01    +0.064    26.271
ATOM      2  C   UNL d   1      -3.154  14.846 -11.020 -0.19 -0.00    +0.064    26.271
ATOM      3  C   UNL d   1      -6.205  11.223 -10.206 -0.13 -0.00    +0.064    26.271
ATOM      4  C   UNL d   1      -6.518  10.506 -15.049 -0.23 -0.01    +0.064    26.271
ATOM      5  C   UNL d   1      -3.379  14.861 -14.500 -0.14 +0.01    +0.066    26.271
ATOM      6  C   UNL d   1      -2.489  15.920 -14.294 -0.17 -0.00    -0.021    26.271
ATOM      7  C   UNL d   1      -2.266  16.004 -12.940 -0.13 -0.00    -0.025    26.271
ATOM      8  C   UNL d   1      -3.063  15.026 -12.352 -0.15 +0.00    +0.066    26.271
ATOM      9  C   UNL d   1      -1.304  16.968 -12.279 -0.11 +0.00    +0.051    26.271
ATOM     10  C   UNL d   1      -3.990  13.853 -10.344 -0.20 -0.01    +0.066    26.271
ATOM     11  C   UNL d   1      -4.173  13.817  -8.957 -0.23 +0.00    -0.021    26.271
ATOM     12  C   UNL d   1      -5.064  12.790  -8.704 -0.20 -0.00    +0.000    26.271
ATOM     13  C   UNL d   1      -5.371  12.238  -9.978 -0.15 -0.00    +0.070    26.271
ATOM     14  C   UNL d   1      -3.546  14.741  -7.919 -0.23 +0.00    +0.052    26.271
ATOM     15  C   UNL d   1      -6.516  10.612 -11.476 -0.15 -0.01    +0.066    26.271
ATOM     16  C   UNL d   1      -7.269   9.449 -11.630 -0.20 +0.00    -0.021    26.271
ATOM     17  C   UNL d   1      -7.371   9.224 -13.003 -0.23 -0.00    +0.000    26.271
ATOM     18  C   UNL d   1      -6.664  10.283 -13.591 -0.19 -0.01    +0.070    26.271
ATOM     19  C   UNL d   1      -7.772   8.634 -10.465 -0.07 -0.01    +0.052    26.271
ATOM     20  C   UNL d   1      -5.811  11.486 -15.646 -0.22 -0.00    +0.066    26.271
ATOM     21  C   UNL d   1      -5.725  11.656 -17.025 -0.24 -0.00    -0.025    26.271
ATOM     22  C   UNL d   1      -4.978  12.794 -17.231 -0.25 -0.00    -0.021    26.271
ATOM     23  C   UNL d   1      -4.621  13.269 -15.965 -0.22 +0.00    +0.066    26.271
ATOM     24  C   UNL d   1      -6.320  10.774 -18.092 -0.25 +0.00    +0.051    26.271
ATOM     25  N   UNL d   1      -3.698  14.280 -13.318 -0.12 -0.01    -0.248    26.271
ATOM     26  N   UNL d   1      -4.710  12.887 -10.970 -0.12 +0.02    -0.248    26.271
ATOM     27  N   UNL d   1      -6.089  11.073 -12.648 -0.08 +0.03    -0.248    26.271
ATOM     28  N   UNL d   1      -5.091  12.445 -15.006 -0.14 +0.02    -0.248    26.271
ATOM     29 FE   UNL d   1      -4.903  12.662 -13.002 -0.04 -0.00    +0.000    26.271
ATOM     30  O   UNL d   1      -3.404  12.402 -12.675 -0.35 -0.00    +0.000    26.271
ATOM     31  O   UNL d   1      -4.253  11.284 -13.390 -0.46 -0.00    +0.000    26.271
ATOM     32  C   UNL d   1      -1.767  16.734 -15.336 -0.19 +0.02    +0.052    26.271
ATOM     33  C   UNL d   1      -0.314  16.308 -15.519 -0.21 +0.04    +0.115    26.271
ATOM     34  C   UNL d   1       0.468  17.279 -16.369 -0.16 +0.06    +0.139    26.271
ATOM     35  O   UNL d   1       0.646  17.038 -17.552 -0.03 -0.43    -0.650    26.271
ATOM     36  O   UNL d   1       1.003  18.400 -15.843 +0.04 -0.19    -0.776    26.271
ATOM     37  H   UNL d   1       1.944  18.474 -15.646 +0.02 +0.02    +0.167    26.271
ATOM     38  C   UNL d   1      -4.581  13.353 -18.572 -0.09 +0.01    +0.052    26.271
ATOM     39  C   UNL d   1      -5.597  14.359 -19.108 -0.12 +0.03    +0.115    26.271
ATOM     40  C   UNL d   1      -4.943  15.599 -19.665 -0.09 +0.08    +0.139    26.271
ATOM     41  O   UNL d   1      -4.946  16.631 -19.014 -0.01 -0.44    -0.650    26.271
ATOM     42  O   UNL d   1      -4.306  15.575 -20.852 -0.01 -0.60    -0.776    26.271
ATOM     43  H   UNL d   1      -4.662  15.091 -21.607 +0.02 +0.08    +0.167    26.271
ATOM     44  C   UNL d   1      -5.517  12.447  -7.300 -0.20 -0.00    +0.004    26.271
ATOM     45  C   UNL d   1      -5.082  11.461  -6.517 -0.33 -0.00    +0.012    26.271
ATOM     46  C   UNL d   1      -8.008   8.100 -13.776 -0.15 -0.00    +0.004    26.271
ATOM     47  C   UNL d   1      -9.259   8.023 -14.246 -0.25 -0.00    +0.012    26.271
TER
ENDMDL
MODEL       89
USER    Run = 89
USER    Cluster Rank = 16
USER    Number of conformations in this cluster = 1
USER  
USER    RMSD from reference structure       = 21.576 A
USER  
USER    Estimated Free Energy of Binding    =   -5.73 kcal/mol  [=(1)+(2)+(3)-(4)]
USER    Estimated Inhibition Constant, Ki   =   63.46 uM (micromolar)  [Temperature = 298.15 K]
USER    
USER    (1) Final Intermolecular Energy     =   -8.71 kcal/mol
USER        vdW + Hbond + desolv Energy     =   -6.95 kcal/mol
USER        Electrostatic Energy            =   -1.76 kcal/mol
USER    (2) Final Total Internal Energy     =   -1.29 kcal/mol
USER    (3) Torsional Free Energy           =   +2.98 kcal/mol
USER    (4) Unbound System's Energy  [=(2)] =   -1.29 kcal/mol
USER    
USER    
USER  
USER    DPF = D:/Protein_go_brrr/autodock/final/mut_N102T/heme_O2/dock.dpf
USER    NEWDPF move	heme_O2_opt.pdbqt
USER    NEWDPF about	8.287000 34.468000 -0.670000
USER    NEWDPF tran0	14.655500 11.814338 5.605094
USER    NEWDPF axisangle0	0.689319 -0.721581 -0.064494 -101.313046
USER    NEWDPF quaternion0	0.533092 -0.558042 -0.049877 -0.633968
USER    NEWDPF dihe0	89.59 85.04 -57.65 -69.32 -92.44 129.56 90.05 116.29 -6.71 174.53 
USER  
USER                              x       y       z    vdW   Elec        q     RMS 
ATOM      1  C   UNL d   1      14.248  13.798   4.975 -0.10 +0.04    +0.064    21.576
ATOM      2  C   UNL d   1      13.315   9.562   3.040 -0.23 +0.01    +0.064    21.576
ATOM      3  C   UNL d   1      15.482   7.313   6.693 -0.21 +0.01    +0.064    21.576
ATOM      4  C   UNL d   1      16.027  11.645   8.930 -0.06 +0.01    +0.064    21.576
ATOM      5  C   UNL d   1      13.816  12.829   4.151 -0.10 +0.04    +0.066    21.576
ATOM      6  C   UNL d   1      13.149  13.066   2.946 -0.11 -0.01    -0.021    21.576
ATOM      7  C   UNL d   1      12.840  11.840   2.406 -0.16 -0.01    -0.025    21.576
ATOM      8  C   UNL d   1      13.370  10.888   3.273 -0.13 +0.02    +0.066    21.576
ATOM      9  C   UNL d   1      12.047  11.629   1.135 -0.25 +0.01    +0.051    21.576
ATOM     10  C   UNL d   1      13.872   8.517   3.900 -0.26 +0.01    +0.066    21.576
ATOM     11  C   UNL d   1      13.933   7.168   3.531 -0.40 -0.00    -0.021    21.576
ATOM     12  C   UNL d   1      14.571   6.506   4.564 -0.31 +0.00    +0.000    21.576
ATOM     13  C   UNL d   1      14.859   7.509   5.531 -0.22 +0.01    +0.070    21.576
ATOM     14  C   UNL d   1      13.428   6.542   2.237 -0.27 -0.01    +0.052    21.576
ATOM     15  C   UNL d   1      15.761   8.295   7.714 -0.18 +0.01    +0.066    21.576
ATOM     16  C   UNL d   1      16.269   7.997   8.978 -0.16 -0.00    -0.021    21.576
ATOM     17  C   UNL d   1      16.432   9.217   9.634 -0.10 +0.00    +0.000    21.576
ATOM     18  C   UNL d   1      16.007  10.180   8.708 -0.07 +0.01    +0.070    21.576
ATOM     19  C   UNL d   1      16.499   6.588   9.461 -0.13 +0.01    +0.052    21.576
ATOM     20  C   UNL d   1      15.587  12.594   8.080 -0.10 +0.01    +0.066    21.576
ATOM     21  C   UNL d   1      15.647  13.961   8.337 -0.07 -0.00    -0.025    21.576
ATOM     22  C   UNL d   1      15.170  14.591   7.210 -0.06 -0.01    -0.021    21.576
ATOM     23  C   UNL d   1      14.817  13.580   6.310 -0.10 +0.03    +0.066    21.576
ATOM     24  C   UNL d   1      16.133  14.631   9.596 -0.05 +0.01    +0.051    21.576
ATOM     25  N   UNL d   1      13.913  11.497   4.380 -0.10 -0.10    -0.248    21.576
ATOM     26  N   UNL d   1      14.426   8.728   5.121 -0.16 -0.03    -0.248    21.576
ATOM     27  N   UNL d   1      15.533   9.598   7.577 -0.12 -0.04    -0.248    21.576
ATOM     28  N   UNL d   1      15.030  12.367   6.860 -0.08 -0.07    -0.248    21.576
ATOM     29 FE   UNL d   1      14.731  10.560   5.999 -0.04 +0.00    +0.000    21.576
ATOM     30  O   UNL d   1      13.189  10.383   5.884 -0.30 +0.00    +0.000    21.576
ATOM     31  O   UNL d   1      13.845  10.617   7.297 -0.38 +0.00    +0.000    21.576
ATOM     32  C   UNL d   1      12.695  14.390   2.387 -0.09 +0.04    +0.052    21.576
ATOM     33  C   UNL d   1      13.836  15.197   1.775 -0.02 +0.03    +0.115    21.576
ATOM     34  C   UNL d   1      14.468  16.142   2.767 -0.01 +0.03    +0.139    21.576
ATOM     35  O   UNL d   1      15.638  15.992   3.082 +0.01 -0.09    -0.650    21.576
ATOM     36  O   UNL d   1      13.761  17.138   3.339 +0.02 -0.21    -0.776    21.576
ATOM     37  H   UNL d   1      13.281  17.014   4.166 +0.01 +0.07    +0.167    21.576
ATOM     38  C   UNL d   1      15.004  16.079   7.039 -0.03 +0.01    +0.052    21.576
ATOM     39  C   UNL d   1      13.691  16.589   7.628 -0.06 +0.03    +0.115    21.576
ATOM     40  C   UNL d   1      12.484  16.040   6.909 -0.08 +0.12    +0.139    21.576
ATOM     41  O   UNL d   1      12.067  16.602   5.909 +0.01 -0.67    -0.650    21.576
ATOM     42  O   UNL d   1      11.885  14.906   7.321 -0.44 -1.16    -0.776    21.576
ATOM     43  H   UNL d   1      11.189  14.917   7.989 -0.50 +0.11    +0.167    21.576
ATOM     44  C   UNL d   1      14.830   5.015   4.524 -0.26 +0.00    +0.004    21.576
ATOM     45  C   UNL d   1      16.006   4.388   4.537 -0.24 +0.00    +0.012    21.576
ATOM     46  C   UNL d   1      16.884   9.533  11.035 -0.12 +0.00    +0.004    21.576
ATOM     47  C   UNL d   1      16.193   9.413  12.176 -0.14 +0.00    +0.012    21.576
TER
ENDMDL
MODEL       69
USER    Run = 69
USER    Cluster Rank = 17
USER    Number of conformations in this cluster = 1
USER  
USER    RMSD from reference structure       = 23.873 A
USER  
USER    Estimated Free Energy of Binding    =   -5.65 kcal/mol  [=(1)+(2)+(3)-(4)]
USER    Estimated Inhibition Constant, Ki   =   71.59 uM (micromolar)  [Temperature = 298.15 K]
USER    
USER    (1) Final Intermolecular Energy     =   -8.64 kcal/mol
USER        vdW + Hbond + desolv Energy     =   -6.64 kcal/mol
USER        Electrostatic Energy            =   -1.99 kcal/mol
USER    (2) Final Total Internal Energy     =   -1.47 kcal/mol
USER    (3) Torsional Free Energy           =   +2.98 kcal/mol
USER    (4) Unbound System's Energy  [=(2)] =   -1.47 kcal/mol
USER    
USER    
USER  
USER    DPF = D:/Protein_go_brrr/autodock/final/mut_N102T/heme_O2/dock.dpf
USER    NEWDPF move	heme_O2_opt.pdbqt
USER    NEWDPF about	8.287000 34.468000 -0.670000
USER    NEWDPF tran0	3.331754 15.284737 -15.509664
USER    NEWDPF axisangle0	-0.776713 0.314639 -0.545637 125.511800
USER    NEWDPF quaternion0	-0.690548 0.279734 -0.485106 0.457782
USER    NEWDPF dihe0	-58.69 150.17 67.75 -21.84 54.43 -9.39 61.25 -74.14 25.63 -36.28 
USER  
USER                              x       y       z    vdW   Elec        q     RMS 
ATOM      1  C   UNL d   1       1.803  15.644 -16.936 -0.22 +0.02    +0.064    23.873
ATOM      2  C   UNL d   1       6.041  13.519 -17.240 -0.04 -0.05    +0.064    23.873
ATOM      3  C   UNL d   1       6.924  14.412 -12.602 -0.11 -0.02    +0.064    23.873
ATOM      4  C   UNL d   1       2.369  16.177 -12.157 -0.19 -0.01    +0.064    23.873
ATOM      5  C   UNL d   1       2.883  14.992 -17.397 -0.20 +0.00    +0.066    23.873
ATOM      6  C   UNL d   1       3.037  14.570 -18.721 -0.19 -0.00    -0.021    23.873
ATOM      7  C   UNL d   1       4.244  13.916 -18.800 -0.14 +0.01    -0.025    23.873
ATOM      8  C   UNL d   1       4.817  13.999 -17.534 -0.11 -0.03    +0.066    23.873
ATOM      9  C   UNL d   1       4.777  13.230 -20.039 -0.11 -0.01    +0.051    23.873
ATOM     10  C   UNL d   1       6.703  13.597 -15.938 -0.09 -0.03    +0.066    23.873
ATOM     11  C   UNL d   1       8.037  13.230 -15.729 -0.07 +0.01    -0.021    23.873
ATOM     12  C   UNL d   1       8.316  13.497 -14.402 -0.06 -0.00    +0.000    23.873
ATOM     13  C   UNL d   1       7.106  14.012 -13.860 -0.08 -0.02    +0.070    23.873
ATOM     14  C   UNL d   1       9.012  12.674 -16.760 -0.07 -0.01    +0.052    23.873
ATOM     15  C   UNL d   1       5.706  14.906 -12.006 -0.06 -0.03    +0.066    23.873
ATOM     16  C   UNL d   1       5.536  15.153 -10.644 -0.12 +0.01    -0.021    23.873
ATOM     17  C   UNL d   1       4.244  15.656 -10.493 -0.22 -0.00    +0.000    23.873
ATOM     18  C   UNL d   1       3.716  15.680 -11.792 -0.18 -0.02    +0.070    23.873
ATOM     19  C   UNL d   1       6.590  14.838  -9.613 -0.20 -0.02    +0.052    23.873
ATOM     20  C   UNL d   1       1.816  16.174 -13.386 -0.17 -0.00    +0.066    23.873
ATOM     21  C   UNL d   1       0.547  16.671 -13.672 -0.14 -0.00    -0.025    23.873
ATOM     22  C   UNL d   1       0.380  16.553 -15.033 -0.20 -0.00    -0.021    23.873
ATOM     23  C   UNL d   1       1.550  15.968 -15.527 -0.21 +0.01    +0.066    23.873
ATOM     24  C   UNL d   1      -0.455  17.228 -12.695 -0.11 +0.00    +0.051    23.873
ATOM     25  N   UNL d   1       3.949  14.605 -16.654 -0.10 +0.06    -0.248    23.873
ATOM     26  N   UNL d   1       6.128  14.065 -14.800 -0.06 +0.09    -0.248    23.873
ATOM     27  N   UNL d   1       4.590  15.152 -12.687 -0.08 +0.09    -0.248    23.873
ATOM     28  N   UNL d   1       2.402  15.698 -14.517 -0.13 +0.01    -0.248    23.873
ATOM     29 FE   UNL d   1       4.252  14.888 -14.654 -0.04 -0.00    +0.000    23.873
ATOM     30  O   UNL d   1       4.045  13.398 -15.054 -0.41 -0.00    +0.000    23.873
ATOM     31  O   UNL d   1       3.393  13.949 -13.730 -0.36 -0.00    +0.000    23.873
ATOM     32  C   UNL d   1       2.030  14.653 -19.839 -0.20 +0.01    +0.052    23.873
ATOM     33  C   UNL d   1       2.409  15.680 -20.901 -0.10 +0.04    +0.115    23.873
ATOM     34  C   UNL d   1       1.358  16.750 -21.068 -0.07 +0.12    +0.139    23.873
ATOM     35  O   UNL d   1       0.527  16.646 -21.955 -0.12 -0.75    -0.650    23.873
ATOM     36  O   UNL d   1       1.332  17.840 -20.273 -0.51 -0.88    -0.776    23.873
ATOM     37  H   UNL d   1       1.253  17.771 -19.314 +0.00 +0.17    +0.167    23.873
ATOM     38  C   UNL d   1      -0.863  16.923 -15.801 -0.16 +0.02    +0.052    23.873
ATOM     39  C   UNL d   1      -1.144  18.423 -15.765 -0.10 +0.04    +0.115    23.873
ATOM     40  C   UNL d   1      -0.800  19.105 -17.066 -0.07 +0.09    +0.139    23.873
ATOM     41  O   UNL d   1      -1.575  19.914 -17.550 -0.03 -0.51    -0.650    23.873
ATOM     42  O   UNL d   1       0.376  18.876 -17.682 -0.01 -0.56    -0.776    23.873
ATOM     43  H   UNL d   1       0.471  18.968 -18.638 +0.00 +0.19    +0.167    23.873
ATOM     44  C   UNL d   1       9.680  13.235 -13.799 -0.04 -0.00    +0.004    23.873
ATOM     45  C   UNL d   1       9.994  12.382 -12.825 -0.08 -0.00    +0.012    23.873
ATOM     46  C   UNL d   1       3.473  16.047  -9.261 -0.31 -0.00    +0.004    23.873
ATOM     47  C   UNL d   1       3.595  15.561  -8.019 -0.40 -0.01    +0.012    23.873
TER
ENDMDL
MODEL       88
USER    Run = 88
USER    Cluster Rank = 18
USER    Number of conformations in this cluster = 1
USER  
USER    RMSD from reference structure       = 52.036 A
USER  
USER    Estimated Free Energy of Binding    =   -5.59 kcal/mol  [=(1)+(2)+(3)-(4)]
USER    Estimated Inhibition Constant, Ki   =   80.31 uM (micromolar)  [Temperature = 298.15 K]
USER    
USER    (1) Final Intermolecular Energy     =   -8.57 kcal/mol
USER        vdW + Hbond + desolv Energy     =   -5.32 kcal/mol
USER        Electrostatic Energy            =   -3.25 kcal/mol
USER    (2) Final Total Internal Energy     =   -0.34 kcal/mol
USER    (3) Torsional Free Energy           =   +2.98 kcal/mol
USER    (4) Unbound System's Energy  [=(2)] =   -0.34 kcal/mol
USER    
USER    
USER  
USER    DPF = D:/Protein_go_brrr/autodock/final/mut_N102T/heme_O2/dock.dpf
USER    NEWDPF move	heme_O2_opt.pdbqt
USER    NEWDPF about	8.287000 34.468000 -0.670000
USER    NEWDPF tran0	-9.484233 -16.457710 2.741057
USER    NEWDPF axisangle0	0.089434 0.726493 -0.681330 139.384967
USER    NEWDPF quaternion0	0.083875 0.681336 -0.638981 0.347059
USER    NEWDPF dihe0	-39.61 63.09 -49.51 123.50 172.83 119.55 1.09 51.56 -180.00 -178.34 
USER  
USER                              x       y       z    vdW   Elec        q     RMS 
ATOM      1  C   UNL d   1      -7.825 -16.749   1.452 -0.18 +0.01    +0.064    52.036
ATOM      2  C   UNL d   1      -9.953 -19.567   4.628 -0.10 -0.04    +0.064    52.036
ATOM      3  C   UNL d   1     -13.070 -16.090   5.763 -0.13 -0.01    +0.064    52.036
ATOM      4  C   UNL d   1     -11.192 -13.342   2.158 -0.11 -0.01    +0.064    52.036
ATOM      5  C   UNL d   1      -8.151 -17.800   2.222 -0.16 +0.00    +0.066    52.036
ATOM      6  C   UNL d   1      -7.465 -19.018   2.215 -0.17 -0.00    -0.021    52.036
ATOM      7  C   UNL d   1      -8.106 -19.849   3.103 -0.12 +0.01    -0.025    52.036
ATOM      8  C   UNL d   1      -9.138 -19.100   3.663 -0.11 -0.03    +0.066    52.036
ATOM      9  C   UNL d   1      -7.740 -21.295   3.354 -0.07 -0.01    +0.051    52.036
ATOM     10  C   UNL d   1     -11.037 -18.822   5.270 -0.09 -0.04    +0.066    52.036
ATOM     11  C   UNL d   1     -11.746 -19.297   6.379 -0.11 +0.01    -0.021    52.036
ATOM     12  C   UNL d   1     -12.638 -18.300   6.732 -0.11 -0.00    +0.000    52.036
ATOM     13  C   UNL d   1     -12.425 -17.256   5.790 -0.14 -0.02    +0.070    52.036
ATOM     14  C   UNL d   1     -11.562 -20.633   7.088 -0.07 -0.03    +0.052    52.036
ATOM     15  C   UNL d   1     -12.909 -15.022   4.806 -0.12 -0.01    +0.066    52.036
ATOM     16  C   UNL d   1     -13.729 -13.896   4.733 -0.08 +0.00    -0.021    52.036
ATOM     17  C   UNL d   1     -13.213 -13.098   3.712 -0.09 -0.00    +0.000    52.036
ATOM     18  C   UNL d   1     -12.102 -13.806   3.233 -0.11 -0.01    +0.070    52.036
ATOM     19  C   UNL d   1     -14.950 -13.709   5.598 -0.03 -0.01    +0.052    52.036
ATOM     20  C   UNL d   1     -10.143 -14.015   1.646 -0.11 -0.00    +0.066    52.036
ATOM     21  C   UNL d   1      -9.311 -13.519   0.646 -0.14 -0.00    -0.025    52.036
ATOM     22  C   UNL d   1      -8.330 -14.465   0.451 -0.16 -0.00    -0.021    52.036
ATOM     23  C   UNL d   1      -8.611 -15.516   1.330 -0.13 +0.01    +0.066    52.036
ATOM     24  C   UNL d   1      -9.448 -12.211  -0.089 -0.15 +0.00    +0.051    52.036
ATOM     25  N   UNL d   1      -9.205 -17.860   3.072 -0.09 +0.04    -0.248    52.036
ATOM     26  N   UNL d   1     -11.453 -17.583   4.901 -0.10 +0.08    -0.248    52.036
ATOM     27  N   UNL d   1     -11.977 -15.005   3.857 -0.13 +0.05    -0.248    52.036
ATOM     28  N   UNL d   1      -9.740 -15.258   2.022 -0.03 +0.01    -0.248    52.036
ATOM     29 FE   UNL d   1     -10.592 -16.410   3.451 -0.05 -0.00    +0.000    52.036
ATOM     30  O   UNL d   1     -11.170 -17.656   2.718 -0.10 -0.00    +0.000    52.036
ATOM     31  O   UNL d   1     -11.654 -16.214   2.308 -0.10 -0.00    +0.000    52.036
ATOM     32  C   UNL d   1      -6.334 -19.435   1.311 -0.15 +0.03    +0.052    52.036
ATOM     33  C   UNL d   1      -6.806 -20.242   0.106 -0.11 +0.07    +0.115    52.036
ATOM     34  C   UNL d   1      -5.669 -20.632  -0.807 -0.10 +0.16    +0.139    52.036
ATOM     35  O   UNL d   1      -4.530 -20.663  -0.371 -0.72 -0.86    -0.650    52.036
ATOM     36  O   UNL d   1      -5.880 -20.921  -2.108 -0.04 -0.78    -0.776    52.036
ATOM     37  H   UNL d   1      -6.650 -21.420  -2.402 +0.01 +0.10    +0.167    52.036
ATOM     38  C   UNL d   1      -7.225 -14.386  -0.570 -0.26 +0.02    +0.052    52.036
ATOM     39  C   UNL d   1      -7.714 -14.699  -1.983 -0.13 +0.07    +0.115    52.036
ATOM     40  C   UNL d   1      -6.859 -15.732  -2.674 -0.00 +0.17    +0.139    52.036
ATOM     41  O   UNL d   1      -5.963 -15.375  -3.421 +0.09 -0.93    -0.650    52.036
ATOM     42  O   UNL d   1      -7.033 -17.047  -2.441 -0.40 -1.47    -0.776    52.036
ATOM     43  H   UNL d   1      -7.842 -17.503  -2.700 +0.02 +0.17    +0.167    52.036
ATOM     44  C   UNL d   1     -13.583 -18.447   7.906 -0.04 -0.00    +0.004    52.036
ATOM     45  C   UNL d   1     -13.739 -17.621   8.940 -0.04 -0.00    +0.012    52.036
ATOM     46  C   UNL d   1     -13.700 -11.797   3.132 -0.04 -0.00    +0.004    52.036
ATOM     47  C   UNL d   1     -13.087 -10.606   3.139 -0.04 -0.00    +0.012    52.036
TER
ENDMDL
MODEL       32
USER    Run = 32
USER    Cluster Rank = 19
USER    Number of conformations in this cluster = 2
USER  
USER    RMSD from reference structure       = 24.817 A
USER  
USER    Estimated Free Energy of Binding    =   -5.50 kcal/mol  [=(1)+(2)+(3)-(4)]
USER    Estimated Inhibition Constant, Ki   =   92.29 uM (micromolar)  [Temperature = 298.15 K]
USER    
USER    (1) Final Intermolecular Energy     =   -8.49 kcal/mol
USER        vdW + Hbond + desolv Energy     =   -6.34 kcal/mol
USER        Electrostatic Energy            =   -2.14 kcal/mol
USER    (2) Final Total Internal Energy     =   -1.59 kcal/mol
USER    (3) Torsional Free Energy           =   +2.98 kcal/mol
USER    (4) Unbound System's Energy  [=(2)] =   -1.59 kcal/mol
USER    
USER    
USER  
USER    DPF = D:/Protein_go_brrr/autodock/final/mut_N102T/heme_O2/dock.dpf
USER    NEWDPF move	heme_O2_opt.pdbqt
USER    NEWDPF about	8.287000 34.468000 -0.670000
USER    NEWDPF tran0	-4.656143 16.585843 -15.649549
USER    NEWDPF axisangle0	-0.514466 0.332454 -0.790442 -116.350039
USER    NEWDPF quaternion0	-0.437123 0.282473 -0.671610 -0.527326
USER    NEWDPF dihe0	-41.48 -27.75 -42.24 -120.77 58.29 121.76 -110.83 40.72 166.92 170.01 
USER  
USER                              x       y       z    vdW   Elec        q     RMS 
ATOM      1  C   UNL d   1      -4.971  18.136 -17.063 -0.07 +0.03    +0.064    24.817
ATOM      2  C   UNL d   1      -3.021  18.091 -12.732 -0.02 +0.00    +0.064    24.817
ATOM      3  C   UNL d   1      -3.893  13.386 -12.287 -0.25 -0.01    +0.064    24.817
ATOM      4  C   UNL d   1      -5.469  13.322 -16.933 -0.16 +0.01    +0.064    24.817
ATOM      5  C   UNL d   1      -4.368  18.507 -15.922 -0.05 +0.02    +0.066    24.817
ATOM      6  C   UNL d   1      -3.968  19.816 -15.638 -0.02 -0.00    -0.021    24.817
ATOM      7  C   UNL d   1      -3.364  19.796 -14.403 -0.01 -0.00    -0.025    24.817
ATOM      8  C   UNL d   1      -3.455  18.485 -13.945 -0.02 +0.01    +0.066    24.817
ATOM      9  C   UNL d   1      -2.714  20.990 -13.738 -0.00 +0.00    +0.051    24.817
ATOM     10  C   UNL d   1      -3.110  16.735 -12.188 -0.05 +0.00    +0.066    24.817
ATOM     11  C   UNL d   1      -2.794  16.416 -10.863 -0.10 +0.00    -0.021    24.817
ATOM     12  C   UNL d   1      -3.056  15.067 -10.710 -0.21 -0.00    +0.000    24.817
ATOM     13  C   UNL d   1      -3.516  14.628 -11.983 -0.16 -0.00    +0.070    24.817
ATOM     14  C   UNL d   1      -2.289  17.363  -9.781 -0.11 -0.00    +0.052    24.817
ATOM     15  C   UNL d   1      -4.331  12.894 -13.571 -0.21 -0.01    +0.066    24.817
ATOM     16  C   UNL d   1      -4.555  11.550 -13.868 -0.24 +0.00    -0.021    24.817
ATOM     17  C   UNL d   1      -5.004  11.507 -15.188 -0.33 -0.00    +0.000    24.817
ATOM     18  C   UNL d   1      -5.023  12.846 -15.602 -0.21 -0.00    +0.070    24.817
ATOM     19  C   UNL d   1      -4.271  10.434 -12.894 -0.47 -0.01    +0.052    24.817
ATOM     20  C   UNL d   1      -5.459  14.594 -17.377 -0.12 +0.01    +0.066    24.817
ATOM     21  C   UNL d   1      -5.909  14.984 -18.636 -0.10 -0.01    -0.025    24.817
ATOM     22  C   UNL d   1      -5.800  16.355 -18.680 -0.09 -0.01    -0.021    24.817
ATOM     23  C   UNL d   1      -5.268  16.751 -17.449 -0.09 +0.03    +0.066    24.817
ATOM     24  C   UNL d   1      -6.414  14.092 -19.741 -0.07 +0.01    +0.051    24.817
ATOM     25  N   UNL d   1      -4.015  17.678 -14.909 -0.03 -0.05    -0.248    24.817
ATOM     26  N   UNL d   1      -3.541  15.648 -12.877 -0.06 -0.01    -0.248    24.817
ATOM     27  N   UNL d   1      -4.540  13.666 -14.634 -0.13 -0.00    -0.248    24.817
ATOM     28  N   UNL d   1      -5.021  15.673 -16.677 -0.09 -0.07    -0.248    24.817
ATOM     29 FE   UNL d   1      -4.286  15.658 -14.791 -0.02 +0.00    +0.000    24.817
ATOM     30  O   UNL d   1      -2.794  16.086 -14.902 -0.23 +0.00    +0.000    24.817
ATOM     31  O   UNL d   1      -3.303  14.818 -15.687 -0.29 +0.00    +0.000    24.817
ATOM     32  C   UNL d   1      -4.024  21.016 -16.548 -0.02 +0.01    +0.052    24.817
ATOM     33  C   UNL d   1      -2.645  21.470 -17.016 -0.02 +0.04    +0.115    24.817
ATOM     34  C   UNL d   1      -1.986  20.462 -17.924 -0.05 +0.11    +0.139    24.817
ATOM     35  O   UNL d   1      -1.242  19.618 -17.450 +0.00 -0.52    -0.650    24.817
ATOM     36  O   UNL d   1      -2.177  20.487 -19.260 -0.33 -1.14    -0.776    24.817
ATOM     37  H   UNL d   1      -3.042  20.658 -19.649 -0.00 +0.21    +0.167    24.817
ATOM     38  C   UNL d   1      -6.129  17.225 -19.867 -0.07 +0.02    +0.052    24.817
ATOM     39  C   UNL d   1      -4.940  17.397 -20.809 -0.05 +0.10    +0.115    24.817
ATOM     40  C   UNL d   1      -4.833  18.800 -21.352 -0.03 +0.12    +0.139    24.817
ATOM     41  O   UNL d   1      -5.346  19.076 -22.424 -0.00 -0.33    -0.650    24.817
ATOM     42  O   UNL d   1      -4.224  19.774 -20.648 -0.31 -0.90    -0.776    24.817
ATOM     43  H   UNL d   1      -4.156  19.735 -19.687 -0.00 +0.19    +0.167    24.817
ATOM     44  C   UNL d   1      -2.841  14.350  -9.393 -0.29 -0.00    +0.004    24.817
ATOM     45  C   UNL d   1      -3.668  13.508  -8.775 -0.32 -0.00    +0.012    24.817
ATOM     46  C   UNL d   1      -5.350  10.342 -16.077 -0.36 -0.00    +0.004    24.817
ATOM     47  C   UNL d   1      -4.894  10.075 -17.307 -0.45 -0.00    +0.012    24.817
TER
ENDMDL
MODEL       95
USER    Run = 95
USER    Cluster Rank = 20
USER    Number of conformations in this cluster = 1
USER  
USER    RMSD from reference structure       = 44.678 A
USER  
USER    Estimated Free Energy of Binding    =   -5.49 kcal/mol  [=(1)+(2)+(3)-(4)]
USER    Estimated Inhibition Constant, Ki   =   94.70 uM (micromolar)  [Temperature = 298.15 K]
USER    
USER    (1) Final Intermolecular Energy     =   -8.47 kcal/mol
USER        vdW + Hbond + desolv Energy     =   -7.22 kcal/mol
USER        Electrostatic Energy            =   -1.26 kcal/mol
USER    (2) Final Total Internal Energy     =   -0.63 kcal/mol
USER    (3) Torsional Free Energy           =   +2.98 kcal/mol
USER    (4) Unbound System's Energy  [=(2)] =   -0.63 kcal/mol
USER    
USER    
USER  
USER    DPF = D:/Protein_go_brrr/autodock/final/mut_N102T/heme_O2/dock.dpf
USER    NEWDPF move	heme_O2_opt.pdbqt
USER    NEWDPF about	8.287000 34.468000 -0.670000
USER    NEWDPF tran0	-9.885396 -6.759157 -13.244794
USER    NEWDPF axisangle0	-0.361149 0.526023 -0.769981 92.194436
USER    NEWDPF quaternion0	-0.260214 0.379009 -0.554785 0.693437
USER    NEWDPF dihe0	-179.90 128.67 67.68 140.82 -121.66 119.98 -135.04 -85.70 0.31 -0.84 
USER  
USER                              x       y       z    vdW   Elec        q     RMS 
ATOM      1  C   UNL d   1     -10.459  -7.054 -15.265 +0.03 +0.04    +0.064    44.678
ATOM      2  C   UNL d   1      -8.587  -9.958 -12.006 -0.23 +0.02    +0.064    44.678
ATOM      3  C   UNL d   1      -8.450  -6.398  -8.780 -0.30 +0.01    +0.064    44.678
ATOM      4  C   UNL d   1     -10.817  -3.523 -11.973 -0.14 +0.01    +0.064    44.678
ATOM      5  C   UNL d   1      -9.963  -8.135 -14.641 -0.05 +0.04    +0.066    44.678
ATOM      6  C   UNL d   1      -9.807  -9.385 -15.246 -0.12 -0.01    -0.021    44.678
ATOM      7  C   UNL d   1      -9.306 -10.238 -14.291 -0.17 -0.01    -0.025    44.678
ATOM      8  C   UNL d   1      -9.124  -9.472 -13.142 -0.19 +0.02    +0.066    44.678
ATOM      9  C   UNL d   1      -9.054 -11.716 -14.496 -0.13 +0.01    +0.051    44.678
ATOM     10  C   UNL d   1      -8.351  -9.198 -10.777 -0.21 +0.02    +0.066    44.678
ATOM     11  C   UNL d   1      -7.642  -9.707  -9.683 -0.28 -0.01    -0.021    44.678
ATOM     12  C   UNL d   1      -7.576  -8.689  -8.749 -0.31 +0.00    +0.000    44.678
ATOM     13  C   UNL d   1      -8.275  -7.597  -9.335 -0.22 +0.02    +0.070    44.678
ATOM     14  C   UNL d   1      -7.030 -11.096  -9.545 -0.28 +0.02    +0.052    44.678
ATOM     15  C   UNL d   1      -9.180  -5.279  -9.325 -0.27 +0.01    +0.066    44.678
ATOM     16  C   UNL d   1      -9.468  -4.107  -8.625 -0.29 -0.00    -0.021    44.678
ATOM     17  C   UNL d   1     -10.143  -3.272  -9.516 -0.22 +0.00    +0.000    44.678
ATOM     18  C   UNL d   1     -10.216  -4.006 -10.708 -0.20 +0.01    +0.070    44.678
ATOM     19  C   UNL d   1      -9.125  -3.912  -7.170 -0.31 +0.01    +0.052    44.678
ATOM     20  C   UNL d   1     -10.943  -4.216 -13.121 -0.11 +0.01    +0.066    44.678
ATOM     21  C   UNL d   1     -11.503  -3.701 -14.287 -0.07 -0.00    -0.025    44.678
ATOM     22  C   UNL d   1     -11.384  -4.684 -15.243 -0.07 -0.00    -0.021    44.678
ATOM     23  C   UNL d   1     -10.771  -5.774 -14.618 -0.01 +0.03    +0.066    44.678
ATOM     24  C   UNL d   1     -12.122  -2.341 -14.477 -0.05 +0.00    +0.051    44.678
ATOM     25  N   UNL d   1      -9.590  -8.193 -13.340 -0.05 -0.13    -0.248    44.678
ATOM     26  N   UNL d   1      -8.747  -7.917 -10.567 -0.10 -0.07    -0.248    44.678
ATOM     27  N   UNL d   1      -9.694  -5.250 -10.551 -0.11 -0.05    -0.248    44.678
ATOM     28  N   UNL d   1     -10.545  -5.501 -13.317 -0.07 -0.09    -0.248    44.678
ATOM     29 FE   UNL d   1      -9.653  -6.698 -11.950 -0.05 +0.00    +0.000    44.678
ATOM     30  O   UNL d   1     -10.652  -7.859 -11.670 -0.10 +0.00    +0.000    44.678
ATOM     31  O   UNL d   1     -11.095  -6.368 -11.418 -0.10 +0.00    +0.000    44.678
ATOM     32  C   UNL d   1     -10.240  -9.802 -16.628 -0.06 +0.01    +0.052    44.678
ATOM     33  C   UNL d   1      -9.221  -9.439 -17.703 -0.09 +0.03    +0.115    44.678
ATOM     34  C   UNL d   1      -7.804  -9.729 -17.274 -0.24 +0.05    +0.139    44.678
ATOM     35  O   UNL d   1      -7.331 -10.839 -17.463 -0.01 -0.10    -0.650    44.678
ATOM     36  O   UNL d   1      -7.051  -8.795 -16.656 -0.11 -0.80    -0.776    44.678
ATOM     37  H   UNL d   1      -6.143  -8.970 -16.383 -0.26 +0.08    +0.167    44.678
ATOM     38  C   UNL d   1     -11.894  -4.598 -16.659 -0.03 +0.01    +0.052    44.678
ATOM     39  C   UNL d   1     -10.783  -4.281 -17.659 -0.05 +0.01    +0.115    44.678
ATOM     40  C   UNL d   1     -10.178  -5.524 -18.261 -0.07 +0.03    +0.139    44.678
ATOM     41  O   UNL d   1      -9.162  -5.999 -17.778 -0.57 -0.43    -0.650    44.678
ATOM     42  O   UNL d   1     -10.768  -6.155 -19.295 +0.03 -0.07    -0.776    44.678
ATOM     43  H   UNL d   1     -10.269  -6.413 -20.079 +0.02 +0.01    +0.167    44.678
ATOM     44  C   UNL d   1      -6.871  -8.862  -7.420 -0.44 +0.00    +0.004    44.678
ATOM     45  C   UNL d   1      -7.402  -8.813  -6.199 -0.31 +0.00    +0.012    44.678
ATOM     46  C   UNL d   1     -10.755  -1.910  -9.323 -0.04 +0.00    +0.004    44.678
ATOM     47  C   UNL d   1     -10.649  -0.835 -10.114 -0.18 +0.00    +0.012    44.678
TER
ENDMDL
MODEL       15
USER    Run = 15
USER    Cluster Rank = 21
USER    Number of conformations in this cluster = 1
USER  
USER    RMSD from reference structure       = 50.973 A
USER  
USER    Estimated Free Energy of Binding    =   -5.47 kcal/mol  [=(1)+(2)+(3)-(4)]
USER    Estimated Inhibition Constant, Ki   =   97.97 uM (micromolar)  [Temperature = 298.15 K]
USER    
USER    (1) Final Intermolecular Energy     =   -8.45 kcal/mol
USER        vdW + Hbond + desolv Energy     =   -6.26 kcal/mol
USER        Electrostatic Energy            =   -2.19 kcal/mol
USER    (2) Final Total Internal Energy     =   -2.05 kcal/mol
USER    (3) Torsional Free Energy           =   +2.98 kcal/mol
USER    (4) Unbound System's Energy  [=(2)] =   -2.05 kcal/mol
USER    
USER    
USER  
USER    DPF = D:/Protein_go_brrr/autodock/final/mut_N102T/heme_O2/dock.dpf
USER    NEWDPF move	heme_O2_opt.pdbqt
USER    NEWDPF about	8.287000 34.468000 -0.670000
USER    NEWDPF tran0	-0.139399 -14.151066 -19.079922
USER    NEWDPF axisangle0	0.097757 0.929095 0.356689 -167.011340
USER    NEWDPF quaternion0	0.097129 0.923133 0.354400 -0.113105
USER    NEWDPF dihe0	-55.82 106.00 63.84 -64.22 -56.09 -69.97 -47.30 96.59 166.26 180.00 
USER  
USER                              x       y       z    vdW   Elec        q     RMS 
ATOM      1  C   UNL d   1       1.485 -14.703 -17.832 -0.03 +0.01    +0.064    50.973
ATOM      2  C   UNL d   1       1.121 -14.044 -22.522 -0.07 +0.00    +0.064    50.973
ATOM      3  C   UNL d   1      -3.557 -13.023 -22.109 -0.13 -0.00    +0.064    50.973
ATOM      4  C   UNL d   1      -3.087 -13.230 -17.230 -0.25 -0.00    +0.064    50.973
ATOM      5  C   UNL d   1       1.768 -14.605 -19.141 -0.03 +0.01    +0.066    50.973
ATOM      6  C   UNL d   1       3.030 -14.852 -19.690 -0.02 -0.00    -0.021    50.973
ATOM      7  C   UNL d   1       2.936 -14.620 -21.042 -0.03 -0.00    -0.025    50.973
ATOM      8  C   UNL d   1       1.608 -14.284 -21.289 -0.06 +0.00    +0.066    50.973
ATOM      9  C   UNL d   1       4.092 -14.695 -22.016 -0.02 +0.00    +0.051    50.973
ATOM     10  C   UNL d   1      -0.267 -13.710 -22.846 -0.08 -0.00    +0.066    50.973
ATOM     11  C   UNL d   1      -0.754 -13.633 -24.155 -0.08 +0.00    -0.021    50.973
ATOM     12  C   UNL d   1      -2.105 -13.357 -24.057 -0.09 -0.00    +0.000    50.973
ATOM     13  C   UNL d   1      -2.369 -13.268 -22.662 -0.10 -0.00    +0.070    50.973
ATOM     14  C   UNL d   1       0.031 -13.840 -25.446 -0.05 -0.00    +0.052    50.973
ATOM     15  C   UNL d   1      -3.858 -12.891 -20.704 -0.16 -0.00    +0.066    50.973
ATOM     16  C   UNL d   1      -5.087 -12.471 -20.195 -0.16 +0.00    -0.021    50.973
ATOM     17  C   UNL d   1      -4.977 -12.522 -18.806 -0.25 -0.00    +0.000    50.973
ATOM     18  C   UNL d   1      -3.672 -12.976 -18.568 -0.23 -0.00    +0.070    50.973
ATOM     19  C   UNL d   1      -6.226 -12.013 -21.071 -0.10 -0.00    +0.052    50.973
ATOM     20  C   UNL d   1      -1.827 -13.624 -16.965 -0.22 -0.00    +0.066    50.973
ATOM     21  C   UNL d   1      -1.338 -13.865 -15.684 -0.31 -0.00    -0.025    50.973
ATOM     22  C   UNL d   1      -0.045 -14.311 -15.838 -0.15 -0.00    -0.021    50.973
ATOM     23  C   UNL d   1       0.215 -14.309 -17.212 -0.07 +0.00    +0.066    50.973
ATOM     24  C   UNL d   1      -2.067 -13.675 -14.379 -0.32 +0.00    +0.051    50.973
ATOM     25  N   UNL d   1       0.904 -14.212 -20.109 -0.03 -0.01    -0.248    50.973
ATOM     26  N   UNL d   1      -1.244 -13.480 -21.933 -0.07 +0.01    -0.248    50.973
ATOM     27  N   UNL d   1      -2.984 -13.122 -19.729 -0.13 +0.02    -0.248    50.973
ATOM     28  N   UNL d   1      -0.856 -13.848 -17.890 -0.07 +0.00    -0.248    50.973
ATOM     29 FE   UNL d   1      -1.051 -13.664 -19.896 -0.03 -0.00    +0.000    50.973
ATOM     30  O   UNL d   1      -0.114 -12.495 -20.319 -0.29 -0.00    +0.000    50.973
ATOM     31  O   UNL d   1      -1.260 -12.237 -19.269 -0.31 -0.00    +0.000    50.973
ATOM     32  C   UNL d   1       4.310 -15.160 -18.958 -0.02 +0.01    +0.052    50.973
ATOM     33  C   UNL d   1       5.321 -14.019 -19.025 -0.04 +0.05    +0.115    50.973
ATOM     34  C   UNL d   1       5.876 -13.662 -17.668 -0.02 +0.12    +0.139    50.973
ATOM     35  O   UNL d   1       6.988 -13.166 -17.583 -0.13 -0.60    -0.650    50.973
ATOM     36  O   UNL d   1       5.181 -13.905 -16.538 +0.03 -0.79    -0.776    50.973
ATOM     37  H   UNL d   1       4.288 -13.566 -16.404 +0.02 +0.21    +0.167    50.973
ATOM     38  C   UNL d   1       0.904 -14.657 -14.719 -0.21 +0.00    +0.052    50.973
ATOM     39  C   UNL d   1       1.515 -13.417 -14.070 -0.29 +0.02    +0.115    50.973
ATOM     40  C   UNL d   1       2.728 -12.916 -14.813 -0.24 +0.10    +0.139    50.973
ATOM     41  O   UNL d   1       2.589 -12.327 -15.872 -0.35 -0.69    -0.650    50.973
ATOM     42  O   UNL d   1       3.966 -13.061 -14.302 -0.33 -0.76    -0.776    50.973
ATOM     43  H   UNL d   1       4.598 -13.684 -14.679 +0.04 +0.12    +0.167    50.973
ATOM     44  C   UNL d   1      -2.986 -13.206 -25.280 -0.06 -0.00    +0.004    50.973
ATOM     45  C   UNL d   1      -3.704 -12.145 -25.645 -0.06 -0.00    +0.012    50.973
ATOM     46  C   UNL d   1      -5.948 -12.134 -17.723 -0.31 +0.00    +0.004    50.973
ATOM     47  C   UNL d   1      -6.341 -10.905 -17.363 -0.36 +0.00    +0.012    50.973
TER
ENDMDL
MODEL       73
USER    Run = 73
USER    Cluster Rank = 22
USER    Number of conformations in this cluster = 2
USER  
USER    RMSD from reference structure       = 53.892 A
USER  
USER    Estimated Free Energy of Binding    =   -5.43 kcal/mol  [=(1)+(2)+(3)-(4)]
USER    Estimated Inhibition Constant, Ki   =  104.62 uM (micromolar)  [Temperature = 298.15 K]
USER    
USER    (1) Final Intermolecular Energy     =   -8.41 kcal/mol
USER        vdW + Hbond + desolv Energy     =   -4.77 kcal/mol
USER        Electrostatic Energy            =   -3.64 kcal/mol
USER    (2) Final Total Internal Energy     =   -2.27 kcal/mol
USER    (3) Torsional Free Energy           =   +2.98 kcal/mol
USER    (4) Unbound System's Energy  [=(2)] =   -2.27 kcal/mol
USER    
USER    
USER  
USER    DPF = D:/Protein_go_brrr/autodock/final/mut_N102T/heme_O2/dock.dpf
USER    NEWDPF move	heme_O2_opt.pdbqt
USER    NEWDPF about	8.287000 34.468000 -0.670000
USER    NEWDPF tran0	-2.932120 -21.284360 -2.700899
USER    NEWDPF axisangle0	0.400005 0.878578 0.260954 48.899998
USER    NEWDPF quaternion0	0.165562 0.363642 0.108009 0.910323
USER    NEWDPF dihe0	8.63 -119.70 57.21 -78.48 65.81 140.85 -170.44 104.88 -171.07 179.95 
USER  
USER                              x       y       z    vdW   Elec        q     RMS 
ATOM      1  C   UNL d   1      -3.572 -20.891  -4.685 -0.06 +0.04    +0.064    53.892
ATOM      2  C   UNL d   1      -5.921 -22.086  -0.733 -0.04 +0.03    +0.064    53.892
ATOM      3  C   UNL d   1      -1.816 -22.287   1.757 -0.06 +0.01    +0.064    53.892
ATOM      4  C   UNL d   1       0.563 -20.592  -2.184 -0.15 +0.02    +0.064    53.892
ATOM      5  C   UNL d   1      -4.546 -21.198  -3.813 -0.06 +0.05    +0.066    53.892
ATOM      6  C   UNL d   1      -5.901 -21.275  -4.148 -0.03 -0.01    -0.021    53.892
ATOM      7  C   UNL d   1      -6.587 -21.578  -2.995 -0.03 -0.01    -0.025    53.892
ATOM      8  C   UNL d   1      -5.627 -21.726  -1.998 -0.06 +0.04    +0.066    53.892
ATOM      9  C   UNL d   1      -8.092 -21.684  -2.886 -0.00 +0.02    +0.051    53.892
ATOM     10  C   UNL d   1      -4.957 -22.278   0.350 -0.07 +0.02    +0.066    53.892
ATOM     11  C   UNL d   1      -5.297 -22.811   1.598 -0.04 -0.00    -0.021    53.892
ATOM     12  C   UNL d   1      -4.124 -22.893   2.325 -0.05 +0.00    +0.000    53.892
ATOM     13  C   UNL d   1      -3.113 -22.384   1.463 -0.05 +0.02    +0.070    53.892
ATOM     14  C   UNL d   1      -6.680 -23.248   2.069 -0.01 +0.00    +0.052    53.892
ATOM     15  C   UNL d   1      -0.768 -21.745   0.927 -0.08 +0.02    +0.066    53.892
ATOM     16  C   UNL d   1       0.541 -21.519   1.353 -0.09 -0.00    -0.021    53.892
ATOM     17  C   UNL d   1       1.238 -21.035   0.246 -0.12 +0.00    +0.000    53.892
ATOM     18  C   UNL d   1       0.290 -21.003  -0.787 -0.13 +0.02    +0.070    53.892
ATOM     19  C   UNL d   1       0.990 -21.731   2.776 -0.10 +0.02    +0.052    53.892
ATOM     20  C   UNL d   1      -0.332 -20.509  -3.188 -0.12 +0.03    +0.066    53.892
ATOM     21  C   UNL d   1      -0.012 -20.132  -4.489 -0.16 -0.01    -0.025    53.892
ATOM     22  C   UNL d   1      -1.173 -20.237  -5.222 -0.11 -0.01    -0.021    53.892
ATOM     23  C   UNL d   1      -2.166 -20.659  -4.333 -0.09 +0.04    +0.066    53.892
ATOM     24  C   UNL d   1       1.332 -19.690  -5.006 -0.22 +0.00    +0.051    53.892
ATOM     25  N   UNL d   1      -4.377 -21.427  -2.487 -0.07 -0.22    -0.248    53.892
ATOM     26  N   UNL d   1      -3.629 -22.008   0.266 -0.07 -0.11    -0.248    53.892
ATOM     27  N   UNL d   1      -0.939 -21.366  -0.336 -0.09 -0.08    -0.248    53.892
ATOM     28  N   UNL d   1      -1.661 -20.779  -3.088 -0.08 -0.15    -0.248    53.892
ATOM     29 FE   UNL d   1      -2.635 -21.389  -1.422 -0.02 +0.00    +0.000    53.892
ATOM     30  O   UNL d   1      -3.623 -20.244  -1.053 -0.45 +0.00    +0.000    53.892
ATOM     31  O   UNL d   1      -2.079 -19.945  -1.141 -0.27 +0.00    +0.000    53.892
ATOM     32  C   UNL d   1      -6.545 -20.942  -5.469 -0.01 +0.02    +0.052    53.892
ATOM     33  C   UNL d   1      -6.913 -19.466  -5.593 -0.03 +0.07    +0.115    53.892
ATOM     34  C   UNL d   1      -6.390 -18.644  -4.442 -0.05 +0.17    +0.139    53.892
ATOM     35  O   UNL d   1      -7.039 -18.567  -3.411 -0.07 -0.86    -0.650    53.892
ATOM     36  O   UNL d   1      -5.227 -17.965  -4.534 +0.01 -1.38    -0.776    53.892
ATOM     37  H   UNL d   1      -4.753 -17.874  -5.368 +0.02 +0.27    +0.167    53.892
ATOM     38  C   UNL d   1      -1.326 -19.888  -6.680 -0.13 +0.02    +0.052    53.892
ATOM     39  C   UNL d   1      -1.436 -18.383  -6.909 -0.25 +0.07    +0.115    53.892
ATOM     40  C   UNL d   1      -2.797 -17.842  -6.548 -0.19 +0.19    +0.139    53.892
ATOM     41  O   UNL d   1      -3.747 -18.053  -7.284 -0.29 -0.95    -0.650    53.892
ATOM     42  O   UNL d   1      -2.996 -17.171  -5.397 -0.31 -1.34    -0.776    53.892
ATOM     43  H   UNL d   1      -3.590 -17.505  -4.714 +0.04 +0.31    +0.167    53.892
ATOM     44  C   UNL d   1      -4.090 -23.435   3.738 -0.03 -0.00    +0.004    53.892
ATOM     45  C   UNL d   1      -3.575 -22.859   4.824 -0.05 -0.00    +0.012    53.892
ATOM     46  C   UNL d   1       2.660 -20.562   0.103 -0.18 +0.00    +0.004    53.892
ATOM     47  C   UNL d   1       3.156 -19.342   0.349 -0.29 +0.00    +0.012    53.892
TER
ENDMDL
MODEL       50
USER    Run = 50
USER    Cluster Rank = 23
USER    Number of conformations in this cluster = 2
USER  
USER    RMSD from reference structure       = 31.876 A
USER  
USER    Estimated Free Energy of Binding    =   -5.43 kcal/mol  [=(1)+(2)+(3)-(4)]
USER    Estimated Inhibition Constant, Ki   =  105.52 uM (micromolar)  [Temperature = 298.15 K]
USER    
USER    (1) Final Intermolecular Energy     =   -8.41 kcal/mol
USER        vdW + Hbond + desolv Energy     =   -6.31 kcal/mol
USER        Electrostatic Energy            =   -2.10 kcal/mol
USER    (2) Final Total Internal Energy     =   -0.80 kcal/mol
USER    (3) Torsional Free Energy           =   +2.98 kcal/mol
USER    (4) Unbound System's Energy  [=(2)] =   -0.80 kcal/mol
USER    
USER    
USER  
USER    DPF = D:/Protein_go_brrr/autodock/final/mut_N102T/heme_O2/dock.dpf
USER    NEWDPF move	heme_O2_opt.pdbqt
USER    NEWDPF about	8.287000 34.468000 -0.670000
USER    NEWDPF tran0	12.655518 2.989288 14.221639
USER    NEWDPF axisangle0	0.876532 0.315762 0.363297 -165.401711
USER    NEWDPF quaternion0	0.869429 0.313204 0.360353 -0.127050
USER    NEWDPF dihe0	-3.86 -100.88 -41.01 125.78 109.66 139.89 64.67 145.26 -155.54 -180.00 
USER  
USER                              x       y       z    vdW   Elec        q     RMS 
ATOM      1  C   UNL d   1      11.346   1.331  14.034 -0.18 +0.02    +0.064    31.876
ATOM      2  C   UNL d   1      13.368   4.201  10.834 -0.28 +0.02    +0.064    31.876
ATOM      3  C   UNL d   1      15.494   6.739  14.317 -0.13 +0.02    +0.064    31.876
ATOM      4  C   UNL d   1      13.805   3.503  17.595 -0.08 +0.05    +0.064    31.876
ATOM      5  C   UNL d   1      11.724   1.904  12.879 -0.21 +0.02    +0.066    31.876
ATOM      6  C   UNL d   1      11.299   1.476  11.618 -0.28 -0.01    -0.021    31.876
ATOM      7  C   UNL d   1      11.918   2.279  10.689 -0.36 -0.01    -0.025    31.876
ATOM      8  C   UNL d   1      12.666   3.205  11.410 -0.27 +0.02    +0.066    31.876
ATOM      9  C   UNL d   1      11.799   2.117   9.189 -0.32 +0.01    +0.051    31.876
ATOM     10  C   UNL d   1      14.152   5.216  11.539 -0.24 +0.02    +0.066    31.876
ATOM     11  C   UNL d   1      14.727   6.322  10.903 -0.29 -0.00    -0.021    31.876
ATOM     12  C   UNL d   1      15.329   7.076  11.894 -0.22 +0.00    +0.000    31.876
ATOM     13  C   UNL d   1      15.093   6.364  13.103 -0.15 +0.02    +0.070    31.876
ATOM     14  C   UNL d   1      14.679   6.660   9.418 -0.13 +0.01    +0.052    31.876
ATOM     15  C   UNL d   1      15.306   6.029  15.560 -0.08 +0.04    +0.066    31.876
ATOM     16  C   UNL d   1      15.891   6.391  16.773 -0.06 -0.01    -0.021    31.876
ATOM     17  C   UNL d   1      15.424   5.482  17.722 -0.06 +0.00    +0.000    31.876
ATOM     18  C   UNL d   1      14.577   4.623  17.008 -0.05 +0.06    +0.070    31.876
ATOM     19  C   UNL d   1      16.876   7.525  16.905 -0.02 +0.01    +0.052    31.876
ATOM     20  C   UNL d   1      13.017   2.634  16.931 -0.12 +0.05    +0.066    31.876
ATOM     21  C   UNL d   1      12.300   1.608  17.541 -0.12 -0.01    -0.025    31.876
ATOM     22  C   UNL d   1      11.572   0.996  16.546 -0.14 -0.01    -0.021    31.876
ATOM     23  C   UNL d   1      11.887   1.662  15.357 -0.17 +0.03    +0.066    31.876
ATOM     24  C   UNL d   1      12.312   1.230  19.000 -0.06 +0.02    +0.051    31.876
ATOM     25  N   UNL d   1      12.597   2.933  12.757 -0.14 -0.09    -0.248    31.876
ATOM     26  N   UNL d   1      14.380   5.231  12.877 -0.09 -0.10    -0.248    31.876
ATOM     27  N   UNL d   1      14.576   4.925  15.684 +0.02 -0.19    -0.248    31.876
ATOM     28  N   UNL d   1      12.800   2.628  15.589 -0.11 -0.16    -0.248    31.876
ATOM     29 FE   UNL d   1      13.586   3.921  14.245 -0.05 +0.00    +0.000    31.876
ATOM     30  O   UNL d   1      14.517   3.079  13.324 -0.11 +0.00    +0.000    31.876
ATOM     31  O   UNL d   1      14.779   3.115  14.877 -0.09 +0.00    +0.000    31.876
ATOM     32  C   UNL d   1      10.453   0.274  11.288 -0.26 +0.02    +0.052    31.876
ATOM     33  C   UNL d   1      11.199  -1.044  11.472 -0.14 +0.06    +0.115    31.876
ATOM     34  C   UNL d   1      11.339  -1.812  10.181 -0.18 +0.15    +0.139    31.876
ATOM     35  O   UNL d   1      10.397  -1.867   9.407 -0.47 -0.91    -0.650    31.876
ATOM     36  O   UNL d   1      12.477  -2.467   9.872 -0.25 -1.23    -0.776    31.876
ATOM     37  H   UNL d   1      13.258  -2.429  10.436 +0.02 +0.15    +0.167    31.876
ATOM     38  C   UNL d   1      10.676  -0.202  16.723 -0.10 +0.02    +0.052    31.876
ATOM     39  C   UNL d   1      11.463  -1.508  16.815 -0.02 +0.02    +0.115    31.876
ATOM     40  C   UNL d   1      12.679  -1.513  15.923 -0.00 +0.03    +0.139    31.876
ATOM     41  O   UNL d   1      12.547  -1.662  14.719 +0.02 -0.14    -0.650    31.876
ATOM     42  O   UNL d   1      13.911  -1.303  16.425 +0.01 -0.13    -0.776    31.876
ATOM     43  H   UNL d   1      14.332  -0.436  16.385 +0.01 +0.03    +0.167    31.876
ATOM     44  C   UNL d   1      16.056   8.369  11.590 -0.18 +0.00    +0.004    31.876
ATOM     45  C   UNL d   1      15.971   9.529  12.240 -0.15 +0.00    +0.012    31.876
ATOM     46  C   UNL d   1      15.747   5.327  19.184 -0.03 +0.00    +0.004    31.876
ATOM     47  C   UNL d   1      14.916   5.418  20.231 -0.03 +0.00    +0.012    31.876
TER
ENDMDL
MODEL       22
USER    Run = 22
USER    Cluster Rank = 24
USER    Number of conformations in this cluster = 2
USER  
USER    RMSD from reference structure       = 33.099 A
USER  
USER    Estimated Free Energy of Binding    =   -5.36 kcal/mol  [=(1)+(2)+(3)-(4)]
USER    Estimated Inhibition Constant, Ki   =  117.92 uM (micromolar)  [Temperature = 298.15 K]
USER    
USER    (1) Final Intermolecular Energy     =   -8.34 kcal/mol
USER        vdW + Hbond + desolv Energy     =   -7.99 kcal/mol
USER        Electrostatic Energy            =   -0.35 kcal/mol
USER    (2) Final Total Internal Energy     =   -0.39 kcal/mol
USER    (3) Torsional Free Energy           =   +2.98 kcal/mol
USER    (4) Unbound System's Energy  [=(2)] =   -0.39 kcal/mol
USER    
USER    
USER  
USER    DPF = D:/Protein_go_brrr/autodock/final/mut_N102T/heme_O2/dock.dpf
USER    NEWDPF move	heme_O2_opt.pdbqt
USER    NEWDPF about	8.287000 34.468000 -0.670000
USER    NEWDPF tran0	-11.391903 6.183803 11.509361
USER    NEWDPF axisangle0	0.799112 0.518557 0.304170 -170.335868
USER    NEWDPF quaternion0	0.796272 0.516714 0.303088 -0.084236
USER    NEWDPF dihe0	148.46 -123.05 88.30 -102.56 84.50 -180.00 54.25 88.69 166.47 -135.33 
USER  
USER                              x       y       z    vdW   Elec        q     RMS 
ATOM      1  C   UNL d   1     -11.911   4.134  11.681 -0.10 -0.00    +0.064    33.099
ATOM      2  C   UNL d   1     -11.572   7.057   7.952 -0.23 -0.00    +0.064    33.099
ATOM      3  C   UNL d   1     -10.361  10.721  10.817 -0.14 -0.00    +0.064    33.099
ATOM      4  C   UNL d   1     -10.240   7.609  14.608 -0.17 +0.00    +0.064    33.099
ATOM      5  C   UNL d   1     -11.916   4.630  10.432 -0.10 -0.00    +0.066    33.099
ATOM      6  C   UNL d   1     -12.245   3.886   9.296 -0.19 +0.00    -0.021    33.099
ATOM      7  C   UNL d   1     -12.105   4.719   8.211 -0.23 +0.00    -0.025    33.099
ATOM      8  C   UNL d   1     -11.741   5.963   8.720 -0.24 -0.00    +0.066    33.099
ATOM      9  C   UNL d   1     -12.289   4.301   6.769 -0.21 -0.00    +0.051    33.099
ATOM     10  C   UNL d   1     -11.213   8.393   8.430 -0.24 -0.01    +0.066    33.099
ATOM     11  C   UNL d   1     -11.211   9.528   7.612 -0.19 +0.00    -0.021    33.099
ATOM     12  C   UNL d   1     -10.882  10.598   8.424 -0.17 -0.00    +0.000    33.099
ATOM     13  C   UNL d   1     -10.686  10.040   9.718 -0.19 -0.01    +0.070    33.099
ATOM     14  C   UNL d   1     -11.536   9.594   6.124 -0.20 -0.01    +0.052    33.099
ATOM     15  C   UNL d   1     -10.119  10.189  12.137 -0.06 +0.00    +0.066    33.099
ATOM     16  C   UNL d   1      -9.623  10.930  13.209 -0.05 +0.00    -0.021    33.099
ATOM     17  C   UNL d   1      -9.579  10.064  14.301 -0.13 +0.00    +0.000    33.099
ATOM     18  C   UNL d   1     -10.060   8.843  13.807 -0.18 +0.00    +0.070    33.099
ATOM     19  C   UNL d   1      -9.187  12.369  13.082 -0.10 -0.00    +0.052    33.099
ATOM     20  C   UNL d   1     -10.658   6.411  14.157 -0.18 +0.00    +0.066    33.099
ATOM     21  C   UNL d   1     -10.825   5.289  14.963 -0.12 -0.00    -0.025    33.099
ATOM     22  C   UNL d   1     -11.327   4.296  14.151 -0.14 -0.00    -0.021    33.099
ATOM     23  C   UNL d   1     -11.431   4.847  12.870 -0.08 +0.00    +0.066    33.099
ATOM     24  C   UNL d   1     -10.519   5.168  16.434 -0.10 +0.00    +0.051    33.099
ATOM     25  N   UNL d   1     -11.561   5.891  10.082 -0.13 +0.00    -0.248    33.099
ATOM     26  N   UNL d   1     -10.885   8.698   9.712 -0.16 +0.02    -0.248    33.099
ATOM     27  N   UNL d   1     -10.312   8.918  12.475 -0.13 -0.01    -0.248    33.099
ATOM     28  N   UNL d   1     -10.981   6.119  12.869 -0.14 -0.02    -0.248    33.099
ATOM     29 FE   UNL d   1     -10.932   7.401  11.304 -0.05 +0.00    +0.000    33.099
ATOM     30  O   UNL d   1      -9.830   6.870  10.341 -0.50 +0.00    +0.000    33.099
ATOM     31  O   UNL d   1      -9.458   7.239  11.827 -0.80 +0.00    +0.000    33.099
ATOM     32  C   UNL d   1     -12.545   2.411   9.213 -0.21 -0.01    +0.052    33.099
ATOM     33  C   UNL d   1     -11.445   1.621   8.511 -0.24 -0.02    +0.115    33.099
ATOM     34  C   UNL d   1     -11.980   0.756   7.397 -0.25 -0.04    +0.139    33.099
ATOM     35  O   UNL d   1     -12.712  -0.185   7.661 +0.01 +0.23    -0.650    33.099
ATOM     36  O   UNL d   1     -11.646   0.981   6.109 +0.02 +0.33    -0.776    33.099
ATOM     37  H   UNL d   1     -11.582   0.266   5.466 -0.41 -0.18    +0.167    33.099
ATOM     38  C   UNL d   1     -11.626   2.882  14.575 -0.14 +0.00    +0.052    33.099
ATOM     39  C   UNL d   1     -10.660   2.378  15.646 -0.15 +0.02    +0.115    33.099
ATOM     40  C   UNL d   1      -9.473   1.658  15.058 -0.23 +0.06    +0.139    33.099
ATOM     41  O   UNL d   1      -9.613   0.975  14.056 -0.06 -0.29    -0.650    33.099
ATOM     42  O   UNL d   1      -8.243   1.795  15.590 +0.06 -0.55    -0.776    33.099
ATOM     43  H   UNL d   1      -7.505   2.142  15.074 -0.12 +0.10    +0.167    33.099
ATOM     44  C   UNL d   1     -10.787  12.012   7.891 -0.15 -0.00    +0.004    33.099
ATOM     45  C   UNL d   1      -9.696  12.664   7.490 -0.20 -0.00    +0.012    33.099
ATOM     46  C   UNL d   1      -9.082  10.270  15.707 -0.10 -0.00    +0.004    33.099
ATOM     47  C   UNL d   1      -7.988   9.757  16.283 -0.13 -0.00    +0.012    33.099
TER
ENDMDL
MODEL       96
USER    Run = 96
USER    Cluster Rank = 25
USER    Number of conformations in this cluster = 4
USER  
USER    RMSD from reference structure       = 34.014 A
USER  
USER    Estimated Free Energy of Binding    =   -5.28 kcal/mol  [=(1)+(2)+(3)-(4)]
USER    Estimated Inhibition Constant, Ki   =  135.44 uM (micromolar)  [Temperature = 298.15 K]
USER    
USER    (1) Final Intermolecular Energy     =   -8.26 kcal/mol
USER        vdW + Hbond + desolv Energy     =   -7.91 kcal/mol
USER        Electrostatic Energy            =   -0.35 kcal/mol
USER    (2) Final Total Internal Energy     =   -0.68 kcal/mol
USER    (3) Torsional Free Energy           =   +2.98 kcal/mol
USER    (4) Unbound System's Energy  [=(2)] =   -0.68 kcal/mol
USER    
USER    
USER  
USER    DPF = D:/Protein_go_brrr/autodock/final/mut_N102T/heme_O2/dock.dpf
USER    NEWDPF move	heme_O2_opt.pdbqt
USER    NEWDPF about	8.287000 34.468000 -0.670000
USER    NEWDPF tran0	-12.099943 5.052764 9.531459
USER    NEWDPF axisangle0	-0.618493 -0.779963 0.095521 131.022205
USER    NEWDPF quaternion0	-0.562854 -0.709799 0.086928 0.414517
USER    NEWDPF dihe0	99.08 101.29 100.50 -53.31 35.80 47.38 40.19 -72.23 178.34 179.22 
USER  
USER                              x       y       z    vdW   Elec        q     RMS 
ATOM      1  C   UNL d   1     -11.925   4.377  11.534 -0.08 -0.00    +0.064    34.014
ATOM      2  C   UNL d   1     -12.509   2.086   7.415 -0.18 -0.01    +0.064    34.014
ATOM      3  C   UNL d   1     -12.594   6.245   5.008 -0.12 +0.00    +0.064    34.014
ATOM      4  C   UNL d   1     -11.515   8.588   9.181 -0.18 -0.01    +0.064    34.014
ATOM      5  C   UNL d   1     -12.075   3.414  10.610 -0.11 -0.01    +0.066    34.014
ATOM      6  C   UNL d   1     -12.130   2.049  10.904 -0.21 +0.00    -0.021    34.014
ATOM      7  C   UNL d   1     -12.255   1.382   9.708 -0.21 +0.00    -0.025    34.014
ATOM      8  C   UNL d   1     -12.323   2.361   8.720 -0.20 -0.01    +0.066    34.014
ATOM      9  C   UNL d   1     -12.275  -0.123   9.554 -0.20 -0.01    +0.051    34.014
ATOM     10  C   UNL d   1     -12.611   3.071   6.337 -0.17 -0.00    +0.066    34.014
ATOM     11  C   UNL d   1     -12.968   2.741   5.025 -0.16 +0.00    -0.021    34.014
ATOM     12  C   UNL d   1     -13.015   3.929   4.319 -0.15 +0.00    +0.000    34.014
ATOM     13  C   UNL d   1     -12.665   4.938   5.260 -0.13 +0.00    +0.070    34.014
ATOM     14  C   UNL d   1     -13.277   1.354   4.474 -0.18 -0.01    +0.052    34.014
ATOM     15  C   UNL d   1     -12.209   7.293   5.922 -0.13 -0.00    +0.066    34.014
ATOM     16  C   UNL d   1     -11.995   8.621   5.556 -0.18 +0.00    -0.021    34.014
ATOM     17  C   UNL d   1     -11.685   9.309   6.730 -0.18 -0.00    +0.000    34.014
ATOM     18  C   UNL d   1     -11.736   8.335   7.738 -0.19 -0.01    +0.070    34.014
ATOM     19  C   UNL d   1     -12.049   9.100   4.127 -0.15 -0.00    +0.052    34.014
ATOM     20  C   UNL d   1     -11.514   7.670  10.168 -0.19 -0.00    +0.066    34.014
ATOM     21  C   UNL d   1     -11.317   7.971  11.512 -0.18 -0.00    -0.025    34.014
ATOM     22  C   UNL d   1     -11.458   6.787  12.201 -0.19 -0.00    -0.021    34.014
ATOM     23  C   UNL d   1     -11.719   5.801  11.245 -0.09 +0.00    +0.066    34.014
ATOM     24  C   UNL d   1     -11.007   9.319  12.110 -0.16 -0.00    +0.051    34.014
ATOM     25  N   UNL d   1     -12.146   3.610   9.271 -0.14 +0.02    -0.248    34.014
ATOM     26  N   UNL d   1     -12.416   4.406   6.483 -0.11 +0.00    -0.248    34.014
ATOM     27  N   UNL d   1     -11.982   7.105   7.219 -0.13 +0.01    -0.248    34.014
ATOM     28  N   UNL d   1     -11.707   6.334  10.006 -0.13 +0.00    -0.248    34.014
ATOM     29 FE   UNL d   1     -12.059   5.380   8.256 -0.05 -0.00    +0.000    34.014
ATOM     30  O   UNL d   1     -10.832   4.454   8.012 -0.79 +0.00    +0.000    34.014
ATOM     31  O   UNL d   1     -10.619   6.007   8.171 -0.25 +0.00    +0.000    34.014
ATOM     32  C   UNL d   1     -11.933   1.384  12.242 -0.22 -0.00    +0.052    34.014
ATOM     33  C   UNL d   1     -10.517   0.848  12.434 -0.20 +0.00    +0.115    34.014
ATOM     34  C   UNL d   1     -10.496  -0.470  13.169 -0.29 +0.01    +0.139    34.014
ATOM     35  O   UNL d   1      -9.975  -0.538  14.271 -0.07 -0.42    -0.650    34.014
ATOM     36  O   UNL d   1     -11.018  -1.588  12.624 +0.02 +0.24    -0.776    34.014
ATOM     37  H   UNL d   1     -10.467  -2.253  12.195 -0.30 -0.17    +0.167    34.014
ATOM     38  C   UNL d   1     -11.285   6.610  13.688 -0.18 +0.00    +0.052    34.014
ATOM     39  C   UNL d   1      -9.816   6.542  14.099 -0.21 +0.01    +0.115    34.014
ATOM     40  C   UNL d   1      -9.353   7.800  14.792 -0.23 +0.01    +0.139    34.014
ATOM     41  O   UNL d   1      -8.162   7.984  14.982 -0.07 -0.03    -0.650    34.014
ATOM     42  O   UNL d   1     -10.230   8.753  15.161 +0.04 -0.00    -0.776    34.014
ATOM     43  H   UNL d   1     -10.498   8.863  16.081 +0.02 -0.00    +0.167    34.014
ATOM     44  C   UNL d   1     -13.379   3.978   2.850 -0.12 +0.00    +0.004    34.014
ATOM     45  C   UNL d   1     -12.580   3.783   1.802 -0.19 +0.00    +0.012    34.014
ATOM     46  C   UNL d   1     -11.301  10.746   6.962 -0.17 -0.00    +0.004    34.014
ATOM     47  C   UNL d   1     -10.249  11.412   6.468 -0.22 -0.00    +0.012    34.014
TER
ENDMDL
MODEL       60
USER    Run = 60
USER    Cluster Rank = 26
USER    Number of conformations in this cluster = 3
USER  
USER    RMSD from reference structure       = 33.202 A
USER  
USER    Estimated Free Energy of Binding    =   -5.26 kcal/mol  [=(1)+(2)+(3)-(4)]
USER    Estimated Inhibition Constant, Ki   =  138.53 uM (micromolar)  [Temperature = 298.15 K]
USER    
USER    (1) Final Intermolecular Energy     =   -8.25 kcal/mol
USER        vdW + Hbond + desolv Energy     =   -5.96 kcal/mol
USER        Electrostatic Energy            =   -2.28 kcal/mol
USER    (2) Final Total Internal Energy     =   -2.39 kcal/mol
USER    (3) Torsional Free Energy           =   +2.98 kcal/mol
USER    (4) Unbound System's Energy  [=(2)] =   -2.39 kcal/mol
USER    
USER    
USER  
USER    DPF = D:/Protein_go_brrr/autodock/final/mut_N102T/heme_O2/dock.dpf
USER    NEWDPF move	heme_O2_opt.pdbqt
USER    NEWDPF about	8.287000 34.468000 -0.670000
USER    NEWDPF tran0	12.684846 1.586268 16.487894
USER    NEWDPF axisangle0	-0.370239 0.782513 0.500595 -168.518183
USER    NEWDPF quaternion0	-0.368382 0.778588 0.498085 -0.100030
USER    NEWDPF dihe0	8.59 -137.44 -62.89 -67.03 75.84 124.79 171.63 120.04 -162.31 -179.96 
USER  
USER                              x       y       z    vdW   Elec        q     RMS 
ATOM      1  C   UNL d   1      13.774   1.933  18.275 -0.03 +0.02    +0.064    33.202
ATOM      2  C   UNL d   1      13.994   3.891  13.953 -0.11 +0.03    +0.064    33.202
ATOM      3  C   UNL d   1      10.503   0.996  12.363 -0.25 +0.02    +0.064    33.202
ATOM      4  C   UNL d   1       9.937  -0.697  16.932 -0.00 +0.02    +0.064    33.202
ATOM      5  C   UNL d   1      14.117   2.703  17.230 -0.07 +0.03    +0.066    33.202
ATOM      6  C   UNL d   1      15.124   3.671  17.268 -0.06 -0.01    -0.021    33.202
ATOM      7  C   UNL d   1      15.160   4.269  16.030 -0.07 -0.01    -0.025    33.202
ATOM      8  C   UNL d   1      14.206   3.616  15.255 -0.08 +0.04    +0.066    33.202
ATOM      9  C   UNL d   1      16.057   5.428  15.654 -0.06 +0.02    +0.051    33.202
ATOM     10  C   UNL d   1      13.024   3.224  13.083 -0.17 +0.03    +0.066    33.202
ATOM     11  C   UNL d   1      12.959   3.435  11.701 -0.26 -0.01    -0.021    33.202
ATOM     12  C   UNL d   1      11.970   2.595  11.221 -0.36 +0.00    +0.000    33.202
ATOM     13  C   UNL d   1      11.469   1.914  12.365 -0.24 +0.02    +0.070    33.202
ATOM     14  C   UNL d   1      13.822   4.376  10.869 -0.29 +0.01    +0.052    33.202
ATOM     15  C   UNL d   1       9.944   0.309  13.502 -0.15 +0.02    +0.066    33.202
ATOM     16  C   UNL d   1       8.823  -0.519  13.454 -0.21 -0.00    -0.021    33.202
ATOM     17  C   UNL d   1       8.642  -1.013  14.746 -0.16 +0.00    +0.000    33.202
ATOM     18  C   UNL d   1       9.681  -0.442  15.495 -0.06 +0.02    +0.070    33.202
ATOM     19  C   UNL d   1       8.002  -0.720  12.205 -0.32 +0.01    +0.052    33.202
ATOM     20  C   UNL d   1      10.897  -0.134  17.691 -0.07 +0.02    +0.066    33.202
ATOM     21  C   UNL d   1      11.101  -0.427  19.036 -0.05 -0.00    -0.025    33.202
ATOM     22  C   UNL d   1      12.207   0.293  19.429 -0.03 -0.00    -0.021    33.202
ATOM     23  C   UNL d   1      12.628   1.016  18.308 -0.04 +0.02    +0.066    33.202
ATOM     24  C   UNL d   1      10.280  -1.344  19.904 -0.03 +0.01    +0.051    33.202
ATOM     25  N   UNL d   1      13.519   2.696  16.013 -0.08 -0.15    -0.248    33.202
ATOM     26  N   UNL d   1      12.113   2.306  13.494 -0.13 -0.10    -0.248    33.202
ATOM     27  N   UNL d   1      10.415   0.416  14.741 -0.11 -0.08    -0.248    33.202
ATOM     28  N   UNL d   1      11.802   0.788  17.266 -0.06 -0.09    -0.248    33.202
ATOM     29 FE   UNL d   1      11.954   1.540  15.393 -0.03 +0.00    +0.000    33.202
ATOM     30  O   UNL d   1      11.612   3.055  15.504 -0.45 +0.00    +0.000    33.202
ATOM     31  O   UNL d   1      10.557   1.980  15.966 -0.37 +0.00    +0.000    33.202
ATOM     32  C   UNL d   1      15.931   4.117  18.461 -0.02 +0.02    +0.052    33.202
ATOM     33  C   UNL d   1      15.166   5.073  19.370 -0.03 +0.05    +0.115    33.202
ATOM     34  C   UNL d   1      13.880   5.555  18.746 +0.23 +0.16    +0.139    33.202
ATOM     35  O   UNL d   1      13.917   6.393  17.859 -0.23 -1.00    -0.650    33.202
ATOM     36  O   UNL d   1      12.681   5.101  19.166 -0.17 -1.25    -0.776    33.202
ATOM     37  H   UNL d   1      12.589   4.553  19.954 +0.02 +0.13    +0.167    33.202
ATOM     38  C   UNL d   1      12.783   0.330  20.821 -0.01 +0.01    +0.052    33.202
ATOM     39  C   UNL d   1      11.984   1.234  21.757 -0.01 +0.02    +0.115    33.202
ATOM     40  C   UNL d   1      11.961   2.669  21.293 -0.03 +0.03    +0.139    33.202
ATOM     41  O   UNL d   1      12.823   3.443  21.676 +0.02 -0.15    -0.650    33.202
ATOM     42  O   UNL d   1      11.033   3.102  20.419 +0.01 -0.33    -0.776    33.202
ATOM     43  H   UNL d   1      11.268   3.656  19.665 +0.00 +0.12    +0.167    33.202
ATOM     44  C   UNL d   1      11.611   2.534   9.751 -0.46 +0.00    +0.004    33.202
ATOM     45  C   UNL d   1      11.792   1.520   8.906 -0.43 +0.00    +0.012    33.202
ATOM     46  C   UNL d   1       7.573  -1.901  15.324 -0.17 +0.00    +0.004    33.202
ATOM     47  C   UNL d   1       6.302  -1.589  15.611 -0.27 -0.00    +0.012    33.202
TER
ENDMDL
MODEL      100
USER    Run = 100
USER    Cluster Rank = 27
USER    Number of conformations in this cluster = 1
USER  
USER    RMSD from reference structure       = 36.265 A
USER  
USER    Estimated Free Energy of Binding    =   -5.21 kcal/mol  [=(1)+(2)+(3)-(4)]
USER    Estimated Inhibition Constant, Ki   =  152.16 uM (micromolar)  [Temperature = 298.15 K]
USER    
USER    (1) Final Intermolecular Energy     =   -8.19 kcal/mol
USER        vdW + Hbond + desolv Energy     =   -5.73 kcal/mol
USER        Electrostatic Energy            =   -2.46 kcal/mol
USER    (2) Final Total Internal Energy     =   -2.25 kcal/mol
USER    (3) Torsional Free Energy           =   +2.98 kcal/mol
USER    (4) Unbound System's Energy  [=(2)] =   -2.25 kcal/mol
USER    
USER    
USER  
USER    DPF = D:/Protein_go_brrr/autodock/final/mut_N102T/heme_O2/dock.dpf
USER    NEWDPF move	heme_O2_opt.pdbqt
USER    NEWDPF about	8.287000 34.468000 -0.670000
USER    NEWDPF tran0	12.574674 -3.291350 11.250262
USER    NEWDPF axisangle0	-0.584195 -0.681478 0.440799 -138.860124
USER    NEWDPF quaternion0	-0.546949 -0.638030 0.412696 -0.351350
USER    NEWDPF dihe0	-3.15 178.34 -95.22 68.92 65.69 123.29 -167.08 116.57 179.98 174.21 
USER  
USER                              x       y       z    vdW   Elec        q     RMS 
ATOM      1  C   UNL d   1      13.830  -4.988  11.038 -0.04 +0.04    +0.064    36.265
ATOM      2  C   UNL d   1       9.200  -4.521  11.989 -0.13 +0.03    +0.064    36.265
ATOM      3  C   UNL d   1       9.561   0.269  11.856 -0.25 +0.02    +0.064    36.265
ATOM      4  C   UNL d   1      14.223  -0.205  10.405 -0.04 +0.02    +0.064    36.265
ATOM      5  C   UNL d   1      12.540  -5.252  11.305 -0.05 +0.06    +0.066    36.265
ATOM      6  C   UNL d   1      12.020  -6.541  11.453 -0.07 -0.01    -0.021    36.265
ATOM      7  C   UNL d   1      10.671  -6.408  11.686 -0.12 -0.01    -0.025    36.265
ATOM      8  C   UNL d   1      10.413  -5.041  11.722 -0.10 +0.05    +0.066    36.265
ATOM      9  C   UNL d   1       9.700  -7.560  11.832 +0.00 +0.02    +0.051    36.265
ATOM     10  C   UNL d   1       8.874  -3.096  12.063 -0.13 +0.03    +0.066    36.265
ATOM     11  C   UNL d   1       7.638  -2.611  12.505 -0.19 -0.00    -0.021    36.265
ATOM     12  C   UNL d   1       7.728  -1.232  12.490 -0.27 +0.00    +0.000    36.265
ATOM     13  C   UNL d   1       9.040  -0.947  12.019 -0.19 +0.02    +0.070    36.265
ATOM     14  C   UNL d   1       6.431  -3.430  12.948 +0.03 +0.01    +0.052    36.265
ATOM     15  C   UNL d   1      10.871   0.600  11.349 -0.23 +0.02    +0.066    36.265
ATOM     16  C   UNL d   1      11.298   1.893  11.047 -0.37 -0.01    -0.021    36.265
ATOM     17  C   UNL d   1      12.624   1.783  10.630 -0.23 +0.00    +0.000    36.265
ATOM     18  C   UNL d   1      12.911   0.413  10.712 -0.10 +0.02    +0.070    36.265
ATOM     19  C   UNL d   1      10.395   3.098  11.129 -0.26 +0.01    +0.052    36.265
ATOM     20  C   UNL d   1      14.520  -1.518  10.431 -0.04 +0.03    +0.066    36.265
ATOM     21  C   UNL d   1      15.780  -2.040  10.149 -0.02 -0.01    -0.025    36.265
ATOM     22  C   UNL d   1      15.693  -3.399  10.351 -0.02 -0.01    -0.021    36.265
ATOM     23  C   UNL d   1      14.374  -3.660  10.733 -0.04 +0.04    +0.066    36.265
ATOM     24  C   UNL d   1      17.003  -1.279   9.706 -0.01 +0.01    +0.051    36.265
ATOM     25  N   UNL d   1      11.553  -4.330  11.422 -0.05 -0.24    -0.248    36.265
ATOM     26  N   UNL d   1       9.728  -2.087  11.757 -0.09 -0.12    -0.248    36.265
ATOM     27  N   UNL d   1      11.814  -0.298  11.077 -0.07 -0.11    -0.248    36.265
ATOM     28  N   UNL d   1      13.653  -2.520  10.736 -0.04 -0.18    -0.248    36.265
ATOM     29 FE   UNL d   1      11.705  -2.302  11.242 -0.02 +0.00    +0.000    36.265
ATOM     30  O   UNL d   1      10.883  -2.974  10.104 -0.12 +0.00    +0.000    36.265
ATOM     31  O   UNL d   1      11.868  -1.793   9.763 -0.31 +0.00    +0.000    36.265
ATOM     32  C   UNL d   1      12.731  -7.853  11.248 -0.04 +0.02    +0.052    36.265
ATOM     33  C   UNL d   1      12.504  -8.439   9.858 -0.06 +0.06    +0.115    36.265
ATOM     34  C   UNL d   1      11.838  -7.461   8.923 -0.03 +0.15    +0.139    36.265
ATOM     35  O   UNL d   1      10.621  -7.364   8.918 -0.36 -0.70    -0.650    36.265
ATOM     36  O   UNL d   1      12.557  -6.705   8.067 -0.25 -1.30    -0.776    36.265
ATOM     37  H   UNL d   1      13.521  -6.731   8.049 +0.00 +0.17    +0.167    36.265
ATOM     38  C   UNL d   1      16.803  -4.393  10.125 -0.00 +0.01    +0.052    36.265
ATOM     39  C   UNL d   1      16.903  -4.831   8.665 -0.01 +0.03    +0.115    36.265
ATOM     40  C   UNL d   1      15.681  -5.586   8.205 -0.04 +0.06    +0.139    36.265
ATOM     41  O   UNL d   1      15.654  -6.803   8.289 +0.01 -0.23    -0.650    36.265
ATOM     42  O   UNL d   1      14.593  -4.936   7.749 -0.04 -0.69    -0.776    36.265
ATOM     43  H   UNL d   1      13.802  -5.411   7.467 +0.00 +0.22    +0.167    36.265
ATOM     44  C   UNL d   1       6.576  -0.346  12.916 -0.39 +0.00    +0.004    36.265
ATOM     45  C   UNL d   1       6.207  -0.023  14.155 -0.49 -0.00    +0.012    36.265
ATOM     46  C   UNL d   1      13.591   2.820  10.124 -0.23 +0.00    +0.004    36.265
ATOM     47  C   UNL d   1      14.066   3.894  10.767 -0.24 +0.00    +0.012    36.265
TER
ENDMDL
MODEL       18
USER    Run = 18
USER    Cluster Rank = 28
USER    Number of conformations in this cluster = 1
USER  
USER    RMSD from reference structure       = 32.476 A
USER  
USER    Estimated Free Energy of Binding    =   -5.19 kcal/mol  [=(1)+(2)+(3)-(4)]
USER    Estimated Inhibition Constant, Ki   =  157.08 uM (micromolar)  [Temperature = 298.15 K]
USER    
USER    (1) Final Intermolecular Energy     =   -8.17 kcal/mol
USER        vdW + Hbond + desolv Energy     =   -7.12 kcal/mol
USER        Electrostatic Energy            =   -1.05 kcal/mol
USER    (2) Final Total Internal Energy     =   -0.86 kcal/mol
USER    (3) Torsional Free Energy           =   +2.98 kcal/mol
USER    (4) Unbound System's Energy  [=(2)] =   -0.86 kcal/mol
USER    
USER    
USER  
USER    DPF = D:/Protein_go_brrr/autodock/final/mut_N102T/heme_O2/dock.dpf
USER    NEWDPF move	heme_O2_opt.pdbqt
USER    NEWDPF about	8.287000 34.468000 -0.670000
USER    NEWDPF tran0	-12.055635 6.351514 4.812217
USER    NEWDPF axisangle0	0.252985 -0.850682 0.460801 -78.481227
USER    NEWDPF quaternion0	0.160033 -0.538123 0.291493 -0.774496
USER    NEWDPF dihe0	-12.10 2.64 29.15 134.95 55.31 113.27 -121.10 -147.96 15.03 148.10 
USER  
USER                              x       y       z    vdW   Elec        q     RMS 
ATOM      1  C   UNL d   1     -12.308   6.747   2.744 -0.08 +0.01    +0.064    32.476
ATOM      2  C   UNL d   1     -13.056   2.870   5.382 -0.13 -0.00    +0.064    32.476
ATOM      3  C   UNL d   1     -11.528   5.148   9.328 -0.14 -0.00    +0.064    32.476
ATOM      4  C   UNL d   1     -11.206   9.287   6.715 -0.20 -0.01    +0.064    32.476
ATOM      5  C   UNL d   1     -12.638   5.507   3.140 -0.13 +0.01    +0.066    32.476
ATOM      6  C   UNL d   1     -13.109   4.511   2.281 -0.10 -0.00    -0.021    32.476
ATOM      7  C   UNL d   1     -13.367   3.401   3.051 -0.11 -0.00    -0.025    32.476
ATOM      8  C   UNL d   1     -13.001   3.735   4.351 -0.13 +0.00    +0.066    32.476
ATOM      9  C   UNL d   1     -13.965   2.110   2.535 -0.07 +0.01    +0.051    32.476
ATOM     10  C   UNL d   1     -12.665   3.155   6.763 -0.16 -0.00    +0.066    32.476
ATOM     11  C   UNL d   1     -12.587   2.176   7.759 -0.18 +0.00    -0.021    32.476
ATOM     12  C   UNL d   1     -12.131   2.809   8.900 -0.23 -0.00    +0.000    32.476
ATOM     13  C   UNL d   1     -11.964   4.173   8.531 -0.23 -0.00    +0.070    32.476
ATOM     14  C   UNL d   1     -12.908   0.692   7.621 -0.17 -0.01    +0.052    32.476
ATOM     15  C   UNL d   1     -11.379   6.545   9.003 -0.28 -0.00    +0.066    32.476
ATOM     16  C   UNL d   1     -11.075   7.545   9.927 -0.29 +0.00    -0.021    32.476
ATOM     17  C   UNL d   1     -10.979   8.734   9.205 -0.25 -0.00    +0.000    32.476
ATOM     18  C   UNL d   1     -11.233   8.366   7.876 -0.24 -0.01    +0.070    32.476
ATOM     19  C   UNL d   1     -10.960   7.287  11.409 -0.29 +0.00    +0.052    32.476
ATOM     20  C   UNL d   1     -11.486   8.976   5.435 -0.21 -0.01    +0.066    32.476
ATOM     21  C   UNL d   1     -11.427   9.883   4.381 -0.16 +0.00    -0.025    32.476
ATOM     22  C   UNL d   1     -11.712   9.171   3.237 -0.14 +0.00    -0.021    32.476
ATOM     23  C   UNL d   1     -11.953   7.854   3.640 -0.16 +0.00    +0.066    32.476
ATOM     24  C   UNL d   1     -11.118  11.356   4.461 -0.12 -0.00    +0.051    32.476
ATOM     25  N   UNL d   1     -12.614   5.053   4.417 -0.11 -0.02    -0.248    32.476
ATOM     26  N   UNL d   1     -12.295   4.375   7.230 -0.13 +0.00    -0.248    32.476
ATOM     27  N   UNL d   1     -11.547   7.049   7.783 -0.16 +0.02    -0.248    32.476
ATOM     28  N   UNL d   1     -11.859   7.750   4.982 -0.11 +0.00    -0.248    32.476
ATOM     29 FE   UNL d   1     -12.075   6.076   6.100 -0.05 +0.00    +0.000    32.476
ATOM     30  O   UNL d   1     -13.587   5.709   6.045 -0.10 -0.00    +0.000    32.476
ATOM     31  O   UNL d   1     -13.145   7.117   6.596 -0.12 -0.00    +0.000    32.476
ATOM     32  C   UNL d   1     -13.436   4.634   0.815 -0.05 +0.01    +0.052    32.476
ATOM     33  C   UNL d   1     -12.316   4.127  -0.087 -0.10 +0.03    +0.115    32.476
ATOM     34  C   UNL d   1     -11.946   2.694   0.205 -0.13 +0.09    +0.139    32.476
ATOM     35  O   UNL d   1     -11.011   2.452   0.951 -0.34 -0.49    -0.650    32.476
ATOM     36  O   UNL d   1     -12.610   1.666  -0.363 -0.45 -0.77    -0.776    32.476
ATOM     37  H   UNL d   1     -13.440   1.794  -0.837 +0.02 +0.09    +0.167    32.476
ATOM     38  C   UNL d   1     -11.809   9.744   1.847 -0.07 -0.00    +0.052    32.476
ATOM     39  C   UNL d   1     -13.242   9.755   1.321 -0.01 -0.00    +0.115    32.476
ATOM     40  C   UNL d   1     -14.259   9.924   2.422 -0.01 -0.00    +0.139    32.476
ATOM     41  O   UNL d   1     -14.881   8.955   2.826 +0.01 +0.00    -0.650    32.476
ATOM     42  O   UNL d   1     -14.459  11.121   3.006 +0.01 +0.02    -0.776    32.476
ATOM     43  H   UNL d   1     -14.017  11.918   2.689 +0.00 -0.00    +0.167    32.476
ATOM     44  C   UNL d   1     -11.909   2.064  10.200 -0.27 -0.00    +0.004    32.476
ATOM     45  C   UNL d   1     -11.921   2.556  11.438 -0.24 -0.00    +0.012    32.476
ATOM     46  C   UNL d   1     -10.734  10.148   9.659 -0.23 -0.00    +0.004    32.476
ATOM     47  C   UNL d   1      -9.819  11.016   9.209 -0.26 -0.00    +0.012    32.476
TER
ENDMDL
MODEL       35
USER    Run = 35
USER    Cluster Rank = 29
USER    Number of conformations in this cluster = 1
USER  
USER    RMSD from reference structure       = 30.764 A
USER  
USER    Estimated Free Energy of Binding    =   -5.19 kcal/mol  [=(1)+(2)+(3)-(4)]
USER    Estimated Inhibition Constant, Ki   =  157.91 uM (micromolar)  [Temperature = 298.15 K]
USER    
USER    (1) Final Intermolecular Energy     =   -8.17 kcal/mol
USER        vdW + Hbond + desolv Energy     =   -5.96 kcal/mol
USER        Electrostatic Energy            =   -2.21 kcal/mol
USER    (2) Final Total Internal Energy     =   -1.43 kcal/mol
USER    (3) Torsional Free Energy           =   +2.98 kcal/mol
USER    (4) Unbound System's Energy  [=(2)] =   -1.43 kcal/mol
USER    
USER    
USER  
USER    DPF = D:/Protein_go_brrr/autodock/final/mut_N102T/heme_O2/dock.dpf
USER    NEWDPF move	heme_O2_opt.pdbqt
USER    NEWDPF about	8.287000 34.468000 -0.670000
USER    NEWDPF tran0	14.107051 4.365168 15.714335
USER    NEWDPF axisangle0	-0.703250 -0.629017 0.331326 131.132414
USER    NEWDPF quaternion0	-0.640267 -0.572682 0.301653 0.413641
USER    NEWDPF dihe0	95.69 45.58 104.94 122.80 -150.48 91.56 179.89 -147.20 -1.03 -21.55 
USER  
USER                              x       y       z    vdW   Elec        q     RMS 
ATOM      1  C   UNL d   1      14.326   4.160  17.814 -0.05 +0.05    +0.064    30.764
ATOM      2  C   UNL d   1      12.160   1.489  14.537 -0.13 +0.02    +0.064    30.764
ATOM      3  C   UNL d   1      13.386   4.584  11.071 -0.29 +0.02    +0.064    30.764
ATOM      4  C   UNL d   1      16.026   7.093  14.358 -0.08 +0.02    +0.064    30.764
ATOM      5  C   UNL d   1      13.638   3.180  17.205 -0.08 +0.05    +0.066    30.764
ATOM      6  C   UNL d   1      13.078   2.086  17.872 -0.09 -0.01    -0.021    30.764
ATOM      7  C   UNL d   1      12.488   1.290  16.919 -0.09 -0.01    -0.025    30.764
ATOM      8  C   UNL d   1      12.662   1.943  15.702 -0.13 +0.03    +0.066    30.764
ATOM      9  C   UNL d   1      11.824  -0.042  17.193 -0.07 +0.01    +0.051    30.764
ATOM     10  C   UNL d   1      12.291   2.142  13.234 -0.18 +0.02    +0.066    30.764
ATOM     11  C   UNL d   1      11.612   1.714  12.088 -0.24 -0.01    -0.021    30.764
ATOM     12  C   UNL d   1      11.939   2.604  11.082 -0.38 +0.00    +0.000    30.764
ATOM     13  C   UNL d   1      12.827   3.539  11.682 -0.25 +0.02    +0.070    30.764
ATOM     14  C   UNL d   1      10.671   0.521  11.964 -0.26 +0.02    +0.052    30.764
ATOM     15  C   UNL d   1      14.317   5.532  11.634 -0.22 +0.02    +0.066    30.764
ATOM     16  C   UNL d   1      14.994   6.506  10.900 -0.26 -0.00    -0.021    30.764
ATOM     17  C   UNL d   1      15.754   7.233  11.816 -0.18 +0.00    +0.000    30.764
ATOM     18  C   UNL d   1      15.478   6.642  13.057 -0.14 +0.02    +0.070    30.764
ATOM     19  C   UNL d   1      14.899   6.619   9.399 -0.16 +0.01    +0.052    30.764
ATOM     20  C   UNL d   1      15.817   6.522  15.560 -0.07 +0.03    +0.066    30.764
ATOM     21  C   UNL d   1      16.346   7.003  16.755 -0.04 -0.01    -0.025    30.764
ATOM     22  C   UNL d   1      15.850   6.196  17.754 -0.05 -0.01    -0.021    30.764
ATOM     23  C   UNL d   1      15.048   5.237  17.127 -0.05 +0.05    +0.066    30.764
ATOM     24  C   UNL d   1      17.280   8.172  16.934 -0.01 +0.01    +0.051    30.764
ATOM     25  N   UNL d   1      13.427   3.074  15.870 -0.09 -0.17    -0.248    30.764
ATOM     26  N   UNL d   1      13.039   3.247  12.990 -0.13 -0.10    -0.248    30.764
ATOM     27  N   UNL d   1      14.664   5.564  12.917 -0.12 -0.09    -0.248    30.764
ATOM     28  N   UNL d   1      15.067   5.412  15.790 -0.01 -0.16    -0.248    30.764
ATOM     29 FE   UNL d   1      14.062   4.339  14.398 -0.04 +0.00    +0.000    30.764
ATOM     30  O   UNL d   1      14.738   2.938  14.357 -0.09 +0.00    +0.000    30.764
ATOM     31  O   UNL d   1      15.594   4.227  14.064 -0.08 +0.00    +0.000    30.764
ATOM     32  C   UNL d   1      13.208   1.728  19.330 -0.03 +0.02    +0.052    30.764
ATOM     33  C   UNL d   1      12.220   2.482  20.215 -0.06 +0.04    +0.115    30.764
ATOM     34  C   UNL d   1      11.375   3.457  19.434 -0.14 +0.11    +0.139    30.764
ATOM     35  O   UNL d   1      10.679   3.052  18.517 -0.08 -0.56    -0.650    30.764
ATOM     36  O   UNL d   1      11.391   4.778  19.706 +0.04 -0.84    -0.776    30.764
ATOM     37  H   UNL d   1      11.949   5.394  19.218 +0.02 +0.32    +0.167    30.764
ATOM     38  C   UNL d   1      16.184   6.305  19.219 -0.01 +0.01    +0.052    30.764
ATOM     39  C   UNL d   1      15.384   7.403  19.918 -0.01 +0.03    +0.115    30.764
ATOM     40  C   UNL d   1      14.015   7.593  19.313 -0.05 +0.09    +0.139    30.764
ATOM     41  O   UNL d   1      13.681   8.692  18.902 -0.00 -0.33    -0.650    30.764
ATOM     42  O   UNL d   1      13.168   6.555  19.171 -0.51 -1.09    -0.776    30.764
ATOM     43  H   UNL d   1      12.991   5.944  19.897 +0.02 +0.16    +0.167    30.764
ATOM     44  C   UNL d   1      11.384   2.471   9.679 -0.44 +0.00    +0.004    30.764
ATOM     45  C   UNL d   1      11.790   1.650   8.712 -0.41 +0.00    +0.012    30.764
ATOM     46  C   UNL d   1      16.728   8.363  11.616 -0.12 +0.00    +0.004    30.764
ATOM     47  C   UNL d   1      16.634   9.625  12.052 -0.12 +0.00    +0.012    30.764
TER
ENDMDL
MODEL       24
USER    Run = 24
USER    Cluster Rank = 30
USER    Number of conformations in this cluster = 3
USER  
USER    RMSD from reference structure       = 30.198 A
USER  
USER    Estimated Free Energy of Binding    =   -5.06 kcal/mol  [=(1)+(2)+(3)-(4)]
USER    Estimated Inhibition Constant, Ki   =  193.80 uM (micromolar)  [Temperature = 298.15 K]
USER    
USER    (1) Final Intermolecular Energy     =   -8.05 kcal/mol
USER        vdW + Hbond + desolv Energy     =   -5.38 kcal/mol
USER        Electrostatic Energy            =   -2.67 kcal/mol
USER    (2) Final Total Internal Energy     =   -0.46 kcal/mol
USER    (3) Torsional Free Energy           =   +2.98 kcal/mol
USER    (4) Unbound System's Energy  [=(2)] =   -0.46 kcal/mol
USER    
USER    
USER  
USER    DPF = D:/Protein_go_brrr/autodock/final/mut_N102T/heme_O2/dock.dpf
USER    NEWDPF move	heme_O2_opt.pdbqt
USER    NEWDPF about	8.287000 34.468000 -0.670000
USER    NEWDPF tran0	1.229856 12.641073 -22.709428
USER    NEWDPF axisangle0	0.838946 -0.367089 -0.401766 -35.457070
USER    NEWDPF quaternion0	0.255465 -0.111781 -0.122341 -0.952510
USER    NEWDPF dihe0	46.47 -93.21 97.33 -104.47 -60.12 160.03 -62.60 -122.03 -178.19 143.73 
USER  
USER                              x       y       z    vdW   Elec        q     RMS 
ATOM      1  C   UNL d   1      -0.211  14.057 -23.357 -0.07 +0.02    +0.064    30.198
ATOM      2  C   UNL d   1      -0.602   9.723 -21.451 -0.18 -0.01    +0.064    30.198
ATOM      3  C   UNL d   1       4.179   9.275 -21.263 -0.15 -0.01    +0.064    30.198
ATOM      4  C   UNL d   1       4.594  13.922 -22.780 -0.01 +0.00    +0.064    30.198
ATOM      5  C   UNL d   1      -0.707  12.915 -22.852 -0.10 +0.01    +0.066    30.198
ATOM      6  C   UNL d   1      -2.073  12.632 -22.752 -0.12 -0.00    -0.021    30.198
ATOM      7  C   UNL d   1      -2.188  11.396 -22.160 -0.16 -0.00    -0.025    30.198
ATOM      8  C   UNL d   1      -0.889  10.937 -21.960 -0.18 +0.00    +0.066    30.198
ATOM      9  C   UNL d   1      -3.496  10.731 -21.792 -0.17 +0.00    +0.051    30.198
ATOM     10  C   UNL d   1       0.740   9.178 -21.239 -0.23 -0.00    +0.066    30.198
ATOM     11  C   UNL d   1       0.981   7.852 -20.862 -0.24 +0.00    -0.021    30.198
ATOM     12  C   UNL d   1       2.354   7.698 -20.820 -0.21 -0.00    +0.000    30.198
ATOM     13  C   UNL d   1       2.885   8.971 -21.170 -0.09 -0.01    +0.070    30.198
ATOM     14  C   UNL d   1      -0.056   6.770 -20.581 -0.30 -0.00    +0.052    30.198
ATOM     15  C   UNL d   1       4.757  10.559 -21.580 -0.10 -0.01    +0.066    30.198
ATOM     16  C   UNL d   1       6.118  10.854 -21.501 -0.09 +0.00    -0.021    30.198
ATOM     17  C   UNL d   1       6.260  12.174 -21.928 -0.03 -0.00    +0.000    30.198
ATOM     18  C   UNL d   1       4.958  12.590 -22.241 -0.03 -0.00    +0.070    30.198
ATOM     19  C   UNL d   1       7.143   9.879 -20.978 -0.12 +0.01    +0.052    30.198
ATOM     20  C   UNL d   1       3.352  14.368 -23.050 -0.01 +0.01    +0.066    30.198
ATOM     21  C   UNL d   1       3.071  15.627 -23.573 -0.01 -0.00    -0.025    30.198
ATOM     22  C   UNL d   1       1.709  15.673 -23.770 -0.03 -0.01    -0.021    30.198
ATOM     23  C   UNL d   1       1.205  14.442 -23.340 -0.04 +0.02    +0.066    30.198
ATOM     24  C   UNL d   1       4.053  16.732 -23.867 -0.00 +0.01    +0.051    30.198
ATOM     25  N   UNL d   1       0.022  11.901 -22.326 -0.09 -0.02    -0.248    30.198
ATOM     26  N   UNL d   1       1.896   9.866 -21.419 -0.13 +0.02    -0.248    30.198
ATOM     27  N   UNL d   1       4.051  11.622 -21.953 -0.04 +0.02    -0.248    30.198
ATOM     28  N   UNL d   1       2.201  13.668 -22.862 -0.02 -0.03    -0.248    30.198
ATOM     29 FE   UNL d   1       2.053  11.781 -22.145 -0.02 +0.00    +0.000    30.198
ATOM     30  O   UNL d   1       1.306  11.891 -20.784 -0.33 +0.00    +0.000    30.198
ATOM     31  O   UNL d   1       2.655  12.675 -21.000 -0.18 -0.00    +0.000    30.198
ATOM     32  C   UNL d   1      -3.230  13.543 -23.071 -0.08 +0.01    +0.052    30.198
ATOM     33  C   UNL d   1      -3.748  14.293 -21.847 -0.12 +0.05    +0.115    30.198
ATOM     34  C   UNL d   1      -3.547  15.784 -21.959 -0.01 +0.14    +0.139    30.198
ATOM     35  O   UNL d   1      -4.342  16.542 -21.425 -0.05 -0.65    -0.650    30.198
ATOM     36  O   UNL d   1      -2.520  16.305 -22.662 -0.52 -1.06    -0.776    30.198
ATOM     37  H   UNL d   1      -2.297  15.994 -23.547 +0.01 +0.12    +0.167    30.198
ATOM     38  C   UNL d   1       0.935  16.861 -24.281 -0.03 +0.02    +0.052    30.198
ATOM     39  C   UNL d   1      -0.014  17.432 -23.230 -0.06 +0.11    +0.115    30.198
ATOM     40  C   UNL d   1       0.700  17.827 -21.962 +0.17 +0.19    +0.139    30.198
ATOM     41  O   UNL d   1       1.382  17.007 -21.370 -0.19 -0.58    -0.650    30.198
ATOM     42  O   UNL d   1       0.640  19.089 -21.494 -0.40 -1.14    -0.776    30.198
ATOM     43  H   UNL d   1       1.290  19.754 -21.751 +0.01 +0.12    +0.167    30.198
ATOM     44  C   UNL d   1       3.004   6.380 -20.455 -0.24 -0.00    +0.004    30.198
ATOM     45  C   UNL d   1       3.308   5.926 -19.239 -0.37 -0.00    +0.012    30.198
ATOM     46  C   UNL d   1       7.473  13.062 -22.006 -0.01 -0.00    +0.004    30.198
ATOM     47  C   UNL d   1       7.755  14.146 -21.271 -0.00 -0.00    +0.012    30.198
TER
ENDMDL
MODEL        1
USER    Run = 1
USER    Cluster Rank = 31
USER    Number of conformations in this cluster = 1
USER  
USER    RMSD from reference structure       = 17.560 A
USER  
USER    Estimated Free Energy of Binding    =   -5.05 kcal/mol  [=(1)+(2)+(3)-(4)]
USER    Estimated Inhibition Constant, Ki   =  199.57 uM (micromolar)  [Temperature = 298.15 K]
USER    
USER    (1) Final Intermolecular Energy     =   -8.03 kcal/mol
USER        vdW + Hbond + desolv Energy     =   -5.44 kcal/mol
USER        Electrostatic Energy            =   -2.59 kcal/mol
USER    (2) Final Total Internal Energy     =   -0.57 kcal/mol
USER    (3) Torsional Free Energy           =   +2.98 kcal/mol
USER    (4) Unbound System's Energy  [=(2)] =   -0.57 kcal/mol
USER    
USER    
USER  
USER    DPF = D:/Protein_go_brrr/autodock/final/mut_N102T/heme_O2/dock.dpf
USER    NEWDPF move	heme_O2_opt.pdbqt
USER    NEWDPF about	8.287000 34.468000 -0.670000
USER    NEWDPF tran0	11.483414 16.710312 8.459987
USER    NEWDPF axisangle0	0.430334 0.534099 0.727702 74.037319
USER    NEWDPF quaternion0	0.259094 0.321568 0.438131 0.798439
USER    NEWDPF dihe0	-24.99 117.28 -94.76 125.81 -123.24 -179.45 137.99 117.65 5.56 6.61 
USER  
USER                              x       y       z    vdW   Elec        q     RMS 
ATOM      1  C   UNL d   1      11.469  17.441   6.469 -0.09 +0.04    +0.064    17.560
ATOM      2  C   UNL d   1       8.525  18.079  10.141 -0.16 -0.00    +0.064    17.560
ATOM      3  C   UNL d   1      11.198  15.194  12.903 -0.18 -0.00    +0.064    17.560
ATOM      4  C   UNL d   1      14.492  14.911   9.279 -0.10 +0.01    +0.064    17.560
ATOM      5  C   UNL d   1      10.451  17.851   7.243 -0.12 +0.02    +0.066    17.560
ATOM      6  C   UNL d   1       9.424  18.693   6.805 -0.08 -0.00    -0.021    17.560
ATOM      7  C   UNL d   1       8.595  18.913   7.880 -0.11 -0.00    -0.025    17.560
ATOM      8  C   UNL d   1       9.111  18.161   8.931 -0.05 +0.00    +0.066    17.560
ATOM      9  C   UNL d   1       7.392  19.831   7.871 -0.14 -0.01    +0.051    17.560
ATOM     10  C   UNL d   1       9.007  17.289  11.275 -0.18 -0.01    +0.066    17.560
ATOM     11  C   UNL d   1       8.274  17.109  12.454 -0.23 +0.00    -0.021    17.560
ATOM     12  C   UNL d   1       9.021  16.265  13.256 -0.19 -0.00    +0.000    17.560
ATOM     13  C   UNL d   1      10.198  15.982  12.510 -0.16 -0.00    +0.070    17.560
ATOM     14  C   UNL d   1       6.908  17.694  12.789 -0.21 -0.01    +0.052    17.560
ATOM     15  C   UNL d   1      12.422  14.910  12.193 -0.16 +0.00    +0.066    17.560
ATOM     16  C   UNL d   1      13.502  14.210  12.728 -0.12 -0.00    -0.021    17.560
ATOM     17  C   UNL d   1      14.454  14.117  11.713 -0.11 +0.00    +0.000    17.560
ATOM     18  C   UNL d   1      13.874  14.775  10.619 -0.14 +0.01    +0.070    17.560
ATOM     19  C   UNL d   1      13.552  13.745  14.162 -0.10 +0.00    +0.052    17.560
ATOM     20  C   UNL d   1      13.983  15.572   8.221 -0.08 +0.02    +0.066    17.560
ATOM     21  C   UNL d   1      14.603  15.650   6.977 -0.05 -0.01    -0.025    17.560
ATOM     22  C   UNL d   1      13.743  16.344   6.156 -0.06 -0.01    -0.021    17.560
ATOM     23  C   UNL d   1      12.633  16.681   6.938 -0.10 +0.04    +0.066    17.560
ATOM     24  C   UNL d   1      15.949  15.094   6.593 -0.02 +0.01    +0.051    17.560
ATOM     25  N   UNL d   1      10.291  17.559   8.557 -0.08 -0.05    -0.248    17.560
ATOM     26  N   UNL d   1      10.183  16.613  11.308 -0.11 +0.01    -0.248    17.560
ATOM     27  N   UNL d   1      12.674  15.315  10.951 -0.12 -0.01    -0.248    17.560
ATOM     28  N   UNL d   1      12.804  16.249   8.204 -0.08 -0.09    -0.248    17.560
ATOM     29 FE   UNL d   1      11.505  16.428   9.746 -0.04 +0.00    +0.000    17.560
ATOM     30  O   UNL d   1      11.485  17.938  10.124 -0.08 +0.00    +0.000    17.560
ATOM     31  O   UNL d   1      12.842  17.139  10.170 -0.07 +0.00    +0.000    17.560
ATOM     32  C   UNL d   1       9.299  19.377   5.468 -0.03 +0.01    +0.052    17.560
ATOM     33  C   UNL d   1       8.560  18.530   4.436 -0.05 +0.02    +0.115    17.560
ATOM     34  C   UNL d   1       9.012  17.090   4.444 -0.12 +0.10    +0.139    17.560
ATOM     35  O   UNL d   1       8.501  16.302   5.223 -0.62 -0.69    -0.650    17.560
ATOM     36  O   UNL d   1       9.992  16.657   3.625 -0.10 -0.78    -0.776    17.560
ATOM     37  H   UNL d   1      10.200  17.103   2.796 +0.02 +0.08    +0.167    17.560
ATOM     38  C   UNL d   1      14.008  16.715   4.720 -0.03 +0.02    +0.052    17.560
ATOM     39  C   UNL d   1      13.156  15.908   3.743 -0.06 +0.08    +0.115    17.560
ATOM     40  C   UNL d   1      13.466  14.432   3.792 -0.00 +0.13    +0.139    17.560
ATOM     41  O   UNL d   1      14.610  14.060   3.996 -0.00 -0.28    -0.650    17.560
ATOM     42  O   UNL d   1      12.491  13.512   3.665 -0.14 -1.38    -0.776    17.560
ATOM     43  H   UNL d   1      12.498  12.863   2.951 +0.03 +0.15    +0.167    17.560
ATOM     44  C   UNL d   1       8.544  15.828  14.625 -0.21 -0.00    +0.004    17.560
ATOM     45  C   UNL d   1       7.676  14.861  14.920 -0.37 -0.00    +0.012    17.560
ATOM     46  C   UNL d   1      15.841  13.531  11.709 -0.10 +0.00    +0.004    17.560
ATOM     47  C   UNL d   1      16.312  12.523  10.963 -0.10 +0.00    +0.012    17.560
TER
ENDMDL
MODEL       44
USER    Run = 44
USER    Cluster Rank = 32
USER    Number of conformations in this cluster = 1
USER  
USER    RMSD from reference structure       = 40.813 A
USER  
USER    Estimated Free Energy of Binding    =   -5.01 kcal/mol  [=(1)+(2)+(3)-(4)]
USER    Estimated Inhibition Constant, Ki   =  213.94 uM (micromolar)  [Temperature = 298.15 K]
USER    
USER    (1) Final Intermolecular Energy     =   -7.99 kcal/mol
USER        vdW + Hbond + desolv Energy     =   -6.85 kcal/mol
USER        Electrostatic Energy            =   -1.14 kcal/mol
USER    (2) Final Total Internal Energy     =   -2.17 kcal/mol
USER    (3) Torsional Free Energy           =   +2.98 kcal/mol
USER    (4) Unbound System's Energy  [=(2)] =   -2.17 kcal/mol
USER    
USER    
USER  
USER    DPF = D:/Protein_go_brrr/autodock/final/mut_N102T/heme_O2/dock.dpf
USER    NEWDPF move	heme_O2_opt.pdbqt
USER    NEWDPF about	8.287000 34.468000 -0.670000
USER    NEWDPF tran0	7.061228 -6.675212 15.842557
USER    NEWDPF axisangle0	-0.451064 -0.646898 -0.614869 156.448283
USER    NEWDPF quaternion0	-0.441570 -0.633283 -0.601928 0.204084
USER    NEWDPF dihe0	104.42 -12.59 -72.63 44.74 -179.98 -111.06 -66.66 -128.69 172.66 125.09 
USER  
USER                              x       y       z    vdW   Elec        q     RMS 
ATOM      1  C   UNL d   1       7.603  -8.715  16.053 -0.24 +0.02    +0.064    40.813
ATOM      2  C   UNL d   1       9.058  -5.299  13.091 -0.12 +0.02    +0.064    40.813
ATOM      3  C   UNL d   1       6.018  -2.152  15.080 -0.23 -0.00    +0.064    40.813
ATOM      4  C   UNL d   1       4.856  -5.527  18.446 -0.12 -0.01    +0.064    40.813
ATOM      5  C   UNL d   1       8.248  -8.042  15.086 -0.24 +0.02    +0.066    40.813
ATOM      6  C   UNL d   1       9.210  -8.610  14.245 -0.14 -0.01    -0.021    40.813
ATOM      7  C   UNL d   1       9.663  -7.611  13.416 -0.15 -0.01    -0.025    40.813
ATOM      8  C   UNL d   1       8.931  -6.472  13.741 -0.16 +0.02    +0.066    40.813
ATOM      9  C   UNL d   1      10.767  -7.769  12.394 -0.12 +0.02    +0.051    40.813
ATOM     10  C   UNL d   1       8.302  -4.077  13.372 -0.11 +0.01    +0.066    40.813
ATOM     11  C   UNL d   1       8.355  -2.937  12.562 -0.14 -0.01    -0.021    40.813
ATOM     12  C   UNL d   1       7.471  -2.025  13.109 -0.20 +0.00    +0.000    40.813
ATOM     13  C   UNL d   1       6.926  -2.670  14.254 -0.14 +0.00    +0.070    40.813
ATOM     14  C   UNL d   1       9.192  -2.736  11.304 -0.19 +0.03    +0.052    40.813
ATOM     15  C   UNL d   1       5.468  -2.759  16.269 -0.15 -0.00    +0.066    40.813
ATOM     16  C   UNL d   1       4.644  -2.102  17.182 -0.19 +0.00    -0.021    40.813
ATOM     17  C   UNL d   1       4.301  -3.045  18.152 -0.11 -0.00    +0.000    40.813
ATOM     18  C   UNL d   1       4.948  -4.222  17.750 -0.10 -0.01    +0.070    40.813
ATOM     19  C   UNL d   1       4.307  -0.636  17.080 -0.40 -0.01    +0.052    40.813
ATOM     20  C   UNL d   1       5.497  -6.664  18.113 -0.17 -0.01    +0.066    40.813
ATOM     21  C   UNL d   1       5.357  -7.868  18.797 -0.12 +0.00    -0.025    40.813
ATOM     22  C   UNL d   1       6.112  -8.795  18.113 -0.20 -0.00    -0.021    40.813
ATOM     23  C   UNL d   1       6.701  -8.114  17.042 -0.25 +0.01    +0.066    40.813
ATOM     24  C   UNL d   1       4.548  -8.121  20.042 -0.12 -0.01    +0.051    40.813
ATOM     25  N   UNL d   1       8.106  -6.722  14.813 -0.03 -0.04    -0.248    40.813
ATOM     26  N   UNL d   1       7.441  -3.917  14.408 -0.03 -0.03    -0.248    40.813
ATOM     27  N   UNL d   1       5.711  -4.010  16.648 -0.05 +0.01    -0.248    40.813
ATOM     28  N   UNL d   1       6.360  -6.809  17.073 -0.15 +0.00    -0.248    40.813
ATOM     29 FE   UNL d   1       6.895  -5.372  15.752 -0.04 +0.00    +0.000    40.813
ATOM     30  O   UNL d   1       8.414  -5.117  15.978 -0.10 +0.00    +0.000    40.813
ATOM     31  O   UNL d   1       7.403  -4.922  17.170 -0.09 +0.00    +0.000    40.813
ATOM     32  C   UNL d   1       9.783 -10.002  14.307 -0.18 +0.04    +0.052    40.813
ATOM     33  C   UNL d   1      11.185 -10.039  14.908 -0.11 +0.08    +0.115    40.813
ATOM     34  C   UNL d   1      11.214 -10.711  16.258 -0.08 +0.11    +0.139    40.813
ATOM     35  O   UNL d   1      10.396 -11.580  16.518 -0.58 -1.05    -0.650    40.813
ATOM     36  O   UNL d   1      12.108 -10.354  17.203 +0.01 -0.29    -0.776    40.813
ATOM     37  H   UNL d   1      11.859  -9.822  17.968 +0.01 +0.04    +0.167    40.813
ATOM     38  C   UNL d   1       6.303 -10.236  18.508 -0.22 +0.01    +0.052    40.813
ATOM     39  C   UNL d   1       7.768 -10.665  18.453 -0.15 +0.04    +0.115    40.813
ATOM     40  C   UNL d   1       8.676  -9.710  19.186 -0.05 +0.03    +0.139    40.813
ATOM     41  O   UNL d   1       8.273  -9.135  20.184 +0.02 -0.05    -0.650    40.813
ATOM     42  O   UNL d   1       9.948  -9.516  18.788 +0.03 -0.17    -0.776    40.813
ATOM     43  H   UNL d   1      10.359 -10.077  18.119 +0.02 +0.06    +0.167    40.813
ATOM     44  C   UNL d   1       7.246  -0.658  12.497 -0.39 +0.00    +0.004    40.813
ATOM     45  C   UNL d   1       6.214  -0.252  11.758 -0.28 +0.00    +0.012    40.813
ATOM     46  C   UNL d   1       3.489  -2.915  19.413 -0.09 -0.00    +0.004    40.813
ATOM     47  C   UNL d   1       2.384  -2.184  19.615 -0.17 -0.01    +0.012    40.813
TER
ENDMDL
MODEL       71
USER    Run = 71
USER    Cluster Rank = 33
USER    Number of conformations in this cluster = 3
USER  
USER    RMSD from reference structure       = 26.396 A
USER  
USER    Estimated Free Energy of Binding    =   -4.85 kcal/mol  [=(1)+(2)+(3)-(4)]
USER    Estimated Inhibition Constant, Ki   =  276.34 uM (micromolar)  [Temperature = 298.15 K]
USER    
USER    (1) Final Intermolecular Energy     =   -7.84 kcal/mol
USER        vdW + Hbond + desolv Energy     =   -4.83 kcal/mol
USER        Electrostatic Energy            =   -3.00 kcal/mol
USER    (2) Final Total Internal Energy     =   -1.55 kcal/mol
USER    (3) Torsional Free Energy           =   +2.98 kcal/mol
USER    (4) Unbound System's Energy  [=(2)] =   -1.55 kcal/mol
USER    
USER    
USER  
USER    DPF = D:/Protein_go_brrr/autodock/final/mut_N102T/heme_O2/dock.dpf
USER    NEWDPF move	heme_O2_opt.pdbqt
USER    NEWDPF about	8.287000 34.468000 -0.670000
USER    NEWDPF tran0	-4.855892 17.271666 -18.761382
USER    NEWDPF axisangle0	0.527471 -0.833149 0.166247 -102.071722
USER    NEWDPF quaternion0	0.410129 -0.647806 0.129264 -0.628834
USER    NEWDPF dihe0	65.75 -173.33 51.17 116.02 -148.81 103.25 140.88 -129.79 23.13 -11.75 
USER  
USER                              x       y       z    vdW   Elec        q     RMS 
ATOM      1  C   UNL d   1      -4.945  18.887 -20.133 -0.06 +0.05    +0.064    26.396
ATOM      2  C   UNL d   1      -5.530  14.203 -20.652 -0.09 +0.02    +0.064    26.396
ATOM      3  C   UNL d   1      -4.649  13.482 -15.983 -0.24 +0.00    +0.064    26.396
ATOM      4  C   UNL d   1      -4.516  18.343 -15.341 -0.04 +0.01    +0.064    26.396
ATOM      5  C   UNL d   1      -5.178  17.672 -20.655 -0.04 +0.05    +0.066    26.396
ATOM      6  C   UNL d   1      -5.453  17.440 -22.006 -0.07 -0.01    -0.021    26.396
ATOM      7  C   UNL d   1      -5.665  16.089 -22.149 -0.05 -0.01    -0.025    26.396
ATOM      8  C   UNL d   1      -5.466  15.527 -20.891 -0.09 +0.03    +0.066    26.396
ATOM      9  C   UNL d   1      -6.068  15.408 -23.439 -0.02 +0.01    +0.051    26.396
ATOM     10  C   UNL d   1      -5.308  13.553 -19.360 -0.14 +0.02    +0.066    26.396
ATOM     11  C   UNL d   1      -5.225  12.165 -19.201 -0.20 -0.00    -0.021    26.396
ATOM     12  C   UNL d   1      -4.953  11.938 -17.864 -0.30 +0.00    +0.000    26.396
ATOM     13  C   UNL d   1      -4.898  13.228 -17.268 -0.20 +0.01    +0.070    26.396
ATOM     14  C   UNL d   1      -5.371  11.102 -20.283 -0.19 +0.00    +0.052    26.396
ATOM     15  C   UNL d   1      -4.619  14.770 -15.334 -0.16 +0.01    +0.066    26.396
ATOM     16  C   UNL d   1      -4.516  14.959 -13.957 -0.12 -0.00    -0.021    26.396
ATOM     17  C   UNL d   1      -4.478  16.338 -13.750 -0.06 +0.00    +0.000    26.396
ATOM     18  C   UNL d   1      -4.558  16.894 -15.034 -0.06 +0.01    +0.070    26.396
ATOM     19  C   UNL d   1      -4.521  13.821 -12.968 -0.18 -0.00    +0.052    26.396
ATOM     20  C   UNL d   1      -4.635  18.912 -16.557 -0.05 +0.02    +0.066    26.396
ATOM     21  C   UNL d   1      -4.569  20.283 -16.787 -0.03 -0.01    -0.025    26.396
ATOM     22  C   UNL d   1      -4.662  20.455 -18.149 -0.04 -0.01    -0.021    26.396
ATOM     23  C   UNL d   1      -4.800  19.178 -18.702 -0.04 +0.05    +0.066    26.396
ATOM     24  C   UNL d   1      -4.429  21.375 -15.757 -0.01 +0.01    +0.051    26.396
ATOM     25  N   UNL d   1      -5.230  16.510 -19.958 -0.06 -0.16    -0.248    26.396
ATOM     26  N   UNL d   1      -5.119  14.205 -18.184 -0.12 -0.07    -0.248    26.396
ATOM     27  N   UNL d   1      -4.719  15.931 -15.977 -0.08 -0.06    -0.248    26.396
ATOM     28  N   UNL d   1      -4.827  18.246 -17.727 -0.05 -0.14    -0.248    26.396
ATOM     29 FE   UNL d   1      -4.972  16.240 -17.951 -0.03 +0.00    +0.000    26.396
ATOM     30  O   UNL d   1      -6.423  15.961 -18.441 -0.07 +0.00    +0.000    26.396
ATOM     31  O   UNL d   1      -6.191  16.706 -17.072 -0.06 +0.00    +0.000    26.396
ATOM     32  C   UNL d   1      -5.645  18.461 -23.097 -0.02 +0.02    +0.052    26.396
ATOM     33  C   UNL d   1      -4.467  18.524 -24.064 -0.02 +0.05    +0.115    26.396
ATOM     34  C   UNL d   1      -3.137  18.437 -23.356 -0.04 +0.14    +0.139    26.396
ATOM     35  O   UNL d   1      -2.871  17.449 -22.691 -0.35 -1.19    -0.650    26.396
ATOM     36  O   UNL d   1      -2.241  19.443 -23.418 -0.04 -0.71    -0.776    26.396
ATOM     37  H   UNL d   1      -2.413  20.306 -23.024 +0.00 +0.14    +0.167    26.396
ATOM     38  C   UNL d   1      -4.683  21.779 -18.869 -0.02 +0.02    +0.052    26.396
ATOM     39  C   UNL d   1      -3.283  22.254 -19.254 -0.02 +0.05    +0.115    26.396
ATOM     40  C   UNL d   1      -2.481  21.180 -19.945 -0.03 +0.14    +0.139    26.396
ATOM     41  O   UNL d   1      -1.508  20.697 -19.388 -0.16 -0.85    -0.650    26.396
ATOM     42  O   UNL d   1      -2.848  20.703 -21.151 -0.34 -1.01    -0.776    26.396
ATOM     43  H   UNL d   1      -2.423  19.929 -21.538 +0.03 +0.37    +0.167    26.396
ATOM     44  C   UNL d   1      -4.782  10.541 -17.305 -0.48 -0.00    +0.004    26.396
ATOM     45  C   UNL d   1      -5.326  10.029 -16.201 -0.34 -0.00    +0.012    26.396
ATOM     46  C   UNL d   1      -4.431  17.146 -12.480 -0.03 +0.00    +0.004    26.396
ATOM     47  C   UNL d   1      -3.410  17.860 -11.989 -0.03 +0.00    +0.012    26.396
TER
ENDMDL
MODEL       87
USER    Run = 87
USER    Cluster Rank = 34
USER    Number of conformations in this cluster = 1
USER  
USER    RMSD from reference structure       = 22.465 A
USER  
USER    Estimated Free Energy of Binding    =   -4.83 kcal/mol  [=(1)+(2)+(3)-(4)]
USER    Estimated Inhibition Constant, Ki   =  288.07 uM (micromolar)  [Temperature = 298.15 K]
USER    
USER    (1) Final Intermolecular Energy     =   -7.81 kcal/mol
USER        vdW + Hbond + desolv Energy     =   -7.40 kcal/mol
USER        Electrostatic Energy            =   -0.42 kcal/mol
USER    (2) Final Total Internal Energy     =   -2.39 kcal/mol
USER    (3) Torsional Free Energy           =   +2.98 kcal/mol
USER    (4) Unbound System's Energy  [=(2)] =   -2.39 kcal/mol
USER    
USER    
USER  
USER    DPF = D:/Protein_go_brrr/autodock/final/mut_N102T/heme_O2/dock.dpf
USER    NEWDPF move	heme_O2_opt.pdbqt
USER    NEWDPF about	8.287000 34.468000 -0.670000
USER    NEWDPF tran0	4.117911 14.829223 -12.401524
USER    NEWDPF axisangle0	-0.747739 0.461016 -0.477860 -70.804044
USER    NEWDPF quaternion0	-0.433173 0.267071 -0.276829 -0.815107
USER    NEWDPF dihe0	153.89 -90.29 -18.29 -29.48 16.93 179.99 -89.30 46.21 -172.22 178.78 
USER  
USER                              x       y       z    vdW   Elec        q     RMS 
ATOM      1  C   UNL d   1       2.394  15.943 -12.936 -0.20 -0.01    +0.064    22.465
ATOM      2  C   UNL d   1       5.124  15.925  -9.049 -0.17 -0.02    +0.064    22.465
ATOM      3  C   UNL d   1       7.898  12.465 -10.902 -0.24 -0.02    +0.064    22.465
ATOM      4  C   UNL d   1       5.383  12.810 -15.100 -0.25 -0.05    +0.064    22.465
ATOM      5  C   UNL d   1       2.911  16.222 -11.728 -0.17 -0.02    +0.066    22.465
ATOM      6  C   UNL d   1       2.376  17.165 -10.846 -0.13 +0.00    -0.021    22.465
ATOM      7  C   UNL d   1       3.191  17.192  -9.739 -0.14 +0.01    -0.025    22.465
ATOM      8  C   UNL d   1       4.174  16.229  -9.954 -0.18 -0.02    +0.066    22.465
ATOM      9  C   UNL d   1       3.024  18.129  -8.563 -0.12 -0.01    +0.051    22.465
ATOM     10  C   UNL d   1       6.166  14.910  -9.209 -0.21 -0.03    +0.066    22.465
ATOM     11  C   UNL d   1       7.026  14.520  -8.176 -0.17 +0.01    -0.021    22.465
ATOM     12  C   UNL d   1       7.821  13.511  -8.685 -0.17 -0.00    +0.000    22.465
ATOM     13  C   UNL d   1       7.401  13.346 -10.034 -0.20 -0.03    +0.070    22.465
ATOM     14  C   UNL d   1       7.068  15.069  -6.754 -0.17 -0.05    +0.052    22.465
ATOM     15  C   UNL d   1       7.524  12.291 -12.285 -0.21 -0.02    +0.066    22.465
ATOM     16  C   UNL d   1       8.194  11.465 -13.187 -0.22 +0.01    -0.021    22.465
ATOM     17  C   UNL d   1       7.495  11.548 -14.391 -0.26 -0.00    +0.000    22.465
ATOM     18  C   UNL d   1       6.436  12.429 -14.130 -0.26 -0.04    +0.070    22.465
ATOM     19  C   UNL d   1       9.459  10.721 -12.838 -0.25 -0.01    +0.052    22.465
ATOM     20  C   UNL d   1       4.379  13.685 -14.896 -0.28 -0.03    +0.066    22.465
ATOM     21  C   UNL d   1       3.406  13.991 -15.843 -0.29 +0.01    -0.025    22.465
ATOM     22  C   UNL d   1       2.530  14.861 -15.234 -0.28 +0.00    -0.021    22.465
ATOM     23  C   UNL d   1       3.013  15.069 -13.939 -0.25 -0.01    +0.066    22.465
ATOM     24  C   UNL d   1       3.318  13.481 -17.258 -0.34 -0.02    +0.051    22.465
ATOM     25  N   UNL d   1       4.038  15.678 -11.207 -0.13 +0.09    -0.248    22.465
ATOM     26  N   UNL d   1       6.397  14.205 -10.346 -0.13 +0.11    -0.248    22.465
ATOM     27  N   UNL d   1       6.513  12.928 -12.870 -0.12 +0.11    -0.248    22.465
ATOM     28  N   UNL d   1       4.162  14.387 -13.752 -0.16 +0.10    -0.248    22.465
ATOM     29 FE   UNL d   1       5.273  14.295 -12.063 -0.05 -0.00    +0.000    22.465
ATOM     30  O   UNL d   1       5.924  15.698 -11.893 -0.12 -0.00    +0.000    22.465
ATOM     31  O   UNL d   1       6.194  14.865 -13.203 -0.13 -0.00    +0.000    22.465
ATOM     32  C   UNL d   1       1.225  18.106 -11.088 -0.07 -0.01    +0.052    22.465
ATOM     33  C   UNL d   1       1.660  19.426 -11.718 -0.01 -0.01    +0.115    22.465
ATOM     34  C   UNL d   1       1.679  19.365 -13.225 -0.01 +0.00    +0.139    22.465
ATOM     35  O   UNL d   1       2.638  19.812 -13.835 +0.01 -0.01    -0.650    22.465
ATOM     36  O   UNL d   1       0.645  18.851 -13.922 +0.04 -0.06    -0.776    22.465
ATOM     37  H   UNL d   1       0.459  19.116 -14.830 +0.02 +0.02    +0.167    22.465
ATOM     38  C   UNL d   1       1.334  15.504 -15.888 -0.25 +0.01    +0.052    22.465
ATOM     39  C   UNL d   1       1.718  16.695 -16.762 -0.16 +0.03    +0.115    22.465
ATOM     40  C   UNL d   1       0.815  17.884 -16.546 -0.11 +0.05    +0.139    22.465
ATOM     41  O   UNL d   1      -0.371  17.710 -16.316 -0.04 -0.31    -0.650    22.465
ATOM     42  O   UNL d   1       1.304  19.139 -16.552 +0.03 -0.22    -0.776    22.465
ATOM     43  H   UNL d   1       1.651  19.549 -15.750 +0.01 +0.03    +0.167    22.465
ATOM     44  C   UNL d   1       8.882  12.824  -7.850 -0.10 -0.00    +0.004    22.465
ATOM     45  C   UNL d   1       9.416  11.617  -8.036 -0.35 -0.01    +0.012    22.465
ATOM     46  C   UNL d   1       7.769  10.931 -15.737 -0.18 -0.00    +0.004    22.465
ATOM     47  C   UNL d   1       8.953  10.719 -16.326 -0.24 -0.00    +0.012    22.465
TER
ENDMDL
MODEL       41
USER    Run = 41
USER    Cluster Rank = 35
USER    Number of conformations in this cluster = 1
USER  
USER    RMSD from reference structure       = 21.674 A
USER  
USER    Estimated Free Energy of Binding    =   -4.73 kcal/mol  [=(1)+(2)+(3)-(4)]
USER    Estimated Inhibition Constant, Ki   =  340.70 uM (micromolar)  [Temperature = 298.15 K]
USER    
USER    (1) Final Intermolecular Energy     =   -7.71 kcal/mol
USER        vdW + Hbond + desolv Energy     =   -8.11 kcal/mol
USER        Electrostatic Energy            =   +0.40 kcal/mol
USER    (2) Final Total Internal Energy     =   -2.09 kcal/mol
USER    (3) Torsional Free Energy           =   +2.98 kcal/mol
USER    (4) Unbound System's Energy  [=(2)] =   -2.09 kcal/mol
USER    
USER    
USER  
USER    DPF = D:/Protein_go_brrr/autodock/final/mut_N102T/heme_O2/dock.dpf
USER    NEWDPF move	heme_O2_opt.pdbqt
USER    NEWDPF about	8.287000 34.468000 -0.670000
USER    NEWDPF tran0	4.450421 14.957201 -10.809152
USER    NEWDPF axisangle0	0.105895 -0.992849 0.055109 107.038133
USER    NEWDPF quaternion0	0.085145 -0.798305 0.044310 0.594555
USER    NEWDPF dihe0	52.85 116.47 70.86 -102.42 11.74 -60.26 39.04 84.66 -42.86 -179.21 
USER  
USER                              x       y       z    vdW   Elec        q     RMS 
ATOM      1  C   UNL d   1       4.156  15.876  -8.920 -0.26 -0.02    +0.064    21.674
ATOM      2  C   UNL d   1       7.602  13.091 -10.630 -0.19 -0.02    +0.064    21.674
ATOM      3  C   UNL d   1       5.342  12.731 -14.855 -0.33 -0.04    +0.064    21.674
ATOM      4  C   UNL d   1       2.030  15.983 -13.269 -0.19 -0.01    +0.064    21.674
ATOM      5  C   UNL d   1       5.278  15.150  -9.041 -0.24 -0.03    +0.066    21.674
ATOM      6  C   UNL d   1       6.212  14.975  -8.015 -0.23 +0.01    -0.021    21.674
ATOM      7  C   UNL d   1       7.232  14.204  -8.522 -0.19 +0.01    -0.025    21.674
ATOM      8  C   UNL d   1       6.870  13.889  -9.829 -0.20 -0.03    +0.066    21.674
ATOM      9  C   UNL d   1       8.491  13.832  -7.771 -0.17 -0.05    +0.051    21.674
ATOM     10  C   UNL d   1       7.263  12.707 -12.000 -0.19 -0.02    +0.066    21.674
ATOM     11  C   UNL d   1       7.974  11.746 -12.729 -0.22 +0.01    -0.021    21.674
ATOM     12  C   UNL d   1       7.327  11.615 -13.943 -0.27 -0.00    +0.000    21.674
ATOM     13  C   UNL d   1       6.241  12.533 -13.891 -0.27 -0.04    +0.070    21.674
ATOM     14  C   UNL d   1       9.202  10.966 -12.274 -0.24 -0.01    +0.052    21.674
ATOM     15  C   UNL d   1       4.250  13.674 -14.855 -0.29 -0.03    +0.066    21.674
ATOM     16  C   UNL d   1       3.444  13.950 -15.959 -0.30 +0.01    -0.021    21.674
ATOM     17  C   UNL d   1       2.492  14.876 -15.531 -0.30 -0.00    +0.000    21.674
ATOM     18  C   UNL d   1       2.792  15.096 -14.179 -0.25 -0.01    +0.070    21.674
ATOM     19  C   UNL d   1       3.685  13.355 -17.323 -0.18 -0.03    +0.052    21.674
ATOM     20  C   UNL d   1       2.315  16.250 -11.980 -0.18 -0.02    +0.066    21.674
ATOM     21  C   UNL d   1       1.549  17.080 -11.166 -0.13 +0.00    -0.025    21.674
ATOM     22  C   UNL d   1       2.125  17.041  -9.916 -0.19 +0.01    -0.021    21.674
ATOM     23  C   UNL d   1       3.236  16.198 -10.018 -0.19 -0.02    +0.066    21.674
ATOM     24  C   UNL d   1       0.332  17.874 -11.563 -0.08 -0.00    +0.051    21.674
ATOM     25  N   UNL d   1       5.698  14.526 -10.169 -0.04 +0.11    -0.248    21.674
ATOM     26  N   UNL d   1       6.213  13.196 -12.707 -0.04 +0.13    -0.248    21.674
ATOM     27  N   UNL d   1       3.907  14.416 -13.806 -0.18 +0.09    -0.248    21.674
ATOM     28  N   UNL d   1       3.374  15.756 -11.285 -0.15 +0.09    -0.248    21.674
ATOM     29 FE   UNL d   1       4.782  14.485 -11.993 -0.06 -0.00    +0.000    21.674
ATOM     30  O   UNL d   1       6.124  15.274 -11.982 -0.13 -0.00    +0.000    21.674
ATOM     31  O   UNL d   1       4.901  15.825 -12.809 -0.13 -0.00    +0.000    21.674
ATOM     32  C   UNL d   1       6.217  15.618  -6.653 -0.21 -0.04    +0.052    21.674
ATOM     33  C   UNL d   1       4.829  15.685  -6.023 -0.26 -0.07    +0.115    21.674
ATOM     34  C   UNL d   1       4.614  16.954  -5.237 -0.09 -0.05    +0.139    21.674
ATOM     35  O   UNL d   1       4.028  16.910  -4.168 -0.36 +0.18    -0.650    21.674
ATOM     36  O   UNL d   1       5.031  18.149  -5.704 +0.05 +0.20    -0.776    21.674
ATOM     37  H   UNL d   1       4.787  18.469  -6.580 +0.03 -0.04    +0.167    21.674
ATOM     38  C   UNL d   1       1.665  17.822  -8.713 -0.14 -0.01    +0.052    21.674
ATOM     39  C   UNL d   1       2.093  19.286  -8.771 -0.06 -0.01    +0.115    21.674
ATOM     40  C   UNL d   1       3.362  19.548  -7.999 -0.04 -0.02    +0.139    21.674
ATOM     41  O   UNL d   1       4.444  19.351  -8.527 +0.02 +0.10    -0.650    21.674
ATOM     42  O   UNL d   1       3.324  20.045  -6.748 +0.02 +0.09    -0.776    21.674
ATOM     43  H   UNL d   1       3.688  19.557  -5.999 +0.02 -0.02    +0.167    21.674
ATOM     44  C   UNL d   1       7.804  10.650 -15.008 -0.35 -0.00    +0.004    21.674
ATOM     45  C   UNL d   1       8.308  10.938 -16.207 -0.25 -0.00    +0.012    21.674
ATOM     46  C   UNL d   1       1.399  15.588 -16.281 -0.30 +0.00    +0.004    21.674
ATOM     47  C   UNL d   1       1.331  16.883 -16.616 -0.19 +0.00    +0.012    21.674
TER
ENDMDL
MODEL        2
USER    Run = 2
USER    Cluster Rank = 36
USER    Number of conformations in this cluster = 1
USER  
USER    RMSD from reference structure       = 33.050 A
USER  
USER    Estimated Free Energy of Binding    =   -4.71 kcal/mol  [=(1)+(2)+(3)-(4)]
USER    Estimated Inhibition Constant, Ki   =  355.29 uM (micromolar)  [Temperature = 298.15 K]
USER    
USER    (1) Final Intermolecular Energy     =   -7.69 kcal/mol
USER        vdW + Hbond + desolv Energy     =   -7.31 kcal/mol
USER        Electrostatic Energy            =   -0.38 kcal/mol
USER    (2) Final Total Internal Energy     =   -1.60 kcal/mol
USER    (3) Torsional Free Energy           =   +2.98 kcal/mol
USER    (4) Unbound System's Energy  [=(2)] =   -1.60 kcal/mol
USER    
USER    
USER  
USER    DPF = D:/Protein_go_brrr/autodock/final/mut_N102T/heme_O2/dock.dpf
USER    NEWDPF move	heme_O2_opt.pdbqt
USER    NEWDPF about	8.287000 34.468000 -0.670000
USER    NEWDPF tran0	-11.732108 6.448771 10.361461
USER    NEWDPF axisangle0	-0.705161 -0.705604 0.069796 135.984641
USER    NEWDPF quaternion0	-0.653778 -0.654189 0.064710 0.374731
USER    NEWDPF dihe0	27.81 57.42 49.89 -93.25 169.24 113.27 46.24 25.87 -119.79 165.44 
USER  
USER                              x       y       z    vdW   Elec        q     RMS 
ATOM      1  C   UNL d   1     -11.766   5.482  12.249 -0.12 +0.00    +0.064    33.050
ATOM      2  C   UNL d   1     -12.568   3.927   7.833 -0.18 -0.00    +0.064    33.050
ATOM      3  C   UNL d   1     -11.812   8.324   6.049 -0.22 -0.01    +0.064    33.050
ATOM      4  C   UNL d   1     -10.517   9.833  10.533 -0.18 -0.00    +0.064    33.050
ATOM      5  C   UNL d   1     -12.044   4.700  11.194 -0.10 -0.00    +0.066    33.050
ATOM      6  C   UNL d   1     -12.351   3.339  11.287 -0.16 +0.00    -0.021    33.050
ATOM      7  C   UNL d   1     -12.541   2.878  10.005 -0.18 +0.00    -0.025    33.050
ATOM      8  C   UNL d   1     -12.392   3.980   9.168 -0.17 -0.00    +0.066    33.050
ATOM      9  C   UNL d   1     -12.820   1.438   9.636 -0.16 -0.01    +0.051    33.050
ATOM     10  C   UNL d   1     -12.448   5.053   6.907 -0.14 -0.00    +0.066    33.050
ATOM     11  C   UNL d   1     -12.800   4.978   5.555 -0.14 -0.00    -0.021    33.050
ATOM     12  C   UNL d   1     -12.607   6.242   5.027 -0.14 +0.00    +0.000    33.050
ATOM     13  C   UNL d   1     -12.124   7.030   6.108 -0.09 -0.00    +0.070    33.050
ATOM     14  C   UNL d   1     -13.326   3.760   4.805 -0.12 +0.00    +0.052    33.050
ATOM     15  C   UNL d   1     -11.288   9.149   7.111 -0.20 -0.01    +0.066    33.050
ATOM     16  C   UNL d   1     -10.827  10.454   6.943 -0.10 +0.00    -0.021    33.050
ATOM     17  C   UNL d   1     -10.451  10.905   8.209 -0.17 -0.00    +0.000    33.050
ATOM     18  C   UNL d   1     -10.717   9.827   9.065 -0.19 -0.01    +0.070    33.050
ATOM     19  C   UNL d   1     -10.734  11.128   5.597 -0.19 -0.01    +0.052    33.050
ATOM     20  C   UNL d   1     -10.721   8.803  11.378 -0.19 +0.00    +0.066    33.050
ATOM     21  C   UNL d   1     -10.532   8.874  12.755 -0.19 -0.00    -0.025    33.050
ATOM     22  C   UNL d   1     -10.909   7.652  13.264 -0.19 -0.00    -0.021    33.050
ATOM     23  C   UNL d   1     -11.299   6.871  12.171 -0.19 +0.00    +0.066    33.050
ATOM     24  C   UNL d   1     -10.014  10.048  13.545 -0.15 +0.00    +0.051    33.050
ATOM     25  N   UNL d   1     -12.022   5.088   9.895 -0.13 +0.01    -0.248    33.050
ATOM     26  N   UNL d   1     -12.026   6.298   7.247 -0.12 +0.01    -0.248    33.050
ATOM     27  N   UNL d   1     -11.154   8.745   8.371 -0.14 +0.04    -0.248    33.050
ATOM     28  N   UNL d   1     -11.140   7.560  11.022 -0.14 -0.00    -0.248    33.050
ATOM     29 FE   UNL d   1     -11.579   6.936   9.147 -0.05 -0.00    +0.000    33.050
ATOM     30  O   UNL d   1     -10.525   5.846   8.794 -0.55 +0.00    +0.000    33.050
ATOM     31  O   UNL d   1     -10.049   7.298   9.178 -0.56 -0.00    +0.000    33.050
ATOM     32  C   UNL d   1     -12.333   2.471  12.518 -0.17 -0.00    +0.052    33.050
ATOM     33  C   UNL d   1     -11.212   2.839  13.485 -0.17 +0.01    +0.115    33.050
ATOM     34  C   UNL d   1     -10.495   1.625  14.023 -0.24 +0.03    +0.139    33.050
ATOM     35  O   UNL d   1     -10.598   0.557  13.441 -0.07 -0.11    -0.650    33.050
ATOM     36  O   UNL d   1      -9.762   1.684  15.154 -0.01 -0.32    -0.776    33.050
ATOM     37  H   UNL d   1      -9.958   2.314  15.857 +0.05 +0.05    +0.167    33.050
ATOM     38  C   UNL d   1     -10.835   7.242  14.712 -0.14 +0.00    +0.052    33.050
ATOM     39  C   UNL d   1      -9.521   6.541  15.052 -0.20 +0.01    +0.115    33.050
ATOM     40  C   UNL d   1      -9.647   5.630  16.247 -0.12 +0.01    +0.139    33.050
ATOM     41  O   UNL d   1      -9.225   5.993  17.333 +0.03 -0.02    -0.650    33.050
ATOM     42  O   UNL d   1     -10.264   4.437  16.150 +0.05 -0.09    -0.776    33.050
ATOM     43  H   UNL d   1      -9.948   3.752  15.548 +0.05 +0.03    +0.167    33.050
ATOM     44  C   UNL d   1     -12.892   6.558   3.574 -0.14 +0.00    +0.004    33.050
ATOM     45  C   UNL d   1     -12.133   7.244   2.721 -0.16 +0.00    +0.012    33.050
ATOM     46  C   UNL d   1      -9.829  12.203   8.651 -0.22 -0.00    +0.004    33.050
ATOM     47  C   UNL d   1      -8.543  12.452   8.930 -0.31 -0.00    +0.012    33.050
TER
ENDMDL
MODEL       83
USER    Run = 83
USER    Cluster Rank = 37
USER    Number of conformations in this cluster = 2
USER  
USER    RMSD from reference structure       = 22.092 A
USER  
USER    Estimated Free Energy of Binding    =   -4.70 kcal/mol  [=(1)+(2)+(3)-(4)]
USER    Estimated Inhibition Constant, Ki   =  360.06 uM (micromolar)  [Temperature = 298.15 K]
USER    
USER    (1) Final Intermolecular Energy     =   -7.68 kcal/mol
USER        vdW + Hbond + desolv Energy     =   -6.37 kcal/mol
USER        Electrostatic Energy            =   -1.32 kcal/mol
USER    (2) Final Total Internal Energy     =   -1.47 kcal/mol
USER    (3) Torsional Free Energy           =   +2.98 kcal/mol
USER    (4) Unbound System's Energy  [=(2)] =   -1.47 kcal/mol
USER    
USER    
USER  
USER    DPF = D:/Protein_go_brrr/autodock/final/mut_N102T/heme_O2/dock.dpf
USER    NEWDPF move	heme_O2_opt.pdbqt
USER    NEWDPF about	8.287000 34.468000 -0.670000
USER    NEWDPF tran0	-4.922169 15.246406 -6.765495
USER    NEWDPF axisangle0	0.775277 0.567383 -0.277527 -102.033543
USER    NEWDPF quaternion0	0.602647 0.441044 -0.215730 -0.629093
USER    NEWDPF dihe0	44.68 96.50 124.68 -105.21 11.67 -52.92 -126.01 111.46 169.78 -166.97 
USER  
USER                              x       y       z    vdW   Elec        q     RMS 
ATOM      1  C   UNL d   1      -5.643  15.627  -4.807 -0.02 +0.01    +0.064    22.092
ATOM      2  C   UNL d   1      -6.131  11.925  -7.741 -0.13 -0.00    +0.064    22.092
ATOM      3  C   UNL d   1      -3.539  14.146 -11.124 -0.24 -0.01    +0.064    22.092
ATOM      4  C   UNL d   1      -2.628  17.762  -7.937 -0.07 +0.00    +0.064    22.092
ATOM      5  C   UNL d   1      -5.986  14.438  -5.329 -0.03 +0.00    +0.066    22.092
ATOM      6  C   UNL d   1      -6.771  13.490  -4.667 -0.03 -0.00    -0.021    22.092
ATOM      7  C   UNL d   1      -6.877  12.400  -5.498 -0.07 -0.00    -0.025    22.092
ATOM      8  C   UNL d   1      -6.194  12.731  -6.665 -0.08 +0.00    +0.066    22.092
ATOM      9  C   UNL d   1      -7.582  11.108  -5.146 -0.09 +0.00    +0.051    22.092
ATOM     10  C   UNL d   1      -5.449  12.227  -9.001 -0.15 -0.00    +0.066    22.092
ATOM     11  C   UNL d   1      -5.553  11.426 -10.143 -0.10 +0.00    -0.021    22.092
ATOM     12  C   UNL d   1      -4.827  12.059 -11.135 -0.21 -0.00    +0.000    22.092
ATOM     13  C   UNL d   1      -4.300  13.230 -10.524 -0.20 -0.01    +0.070    22.092
ATOM     14  C   UNL d   1      -6.335  10.125 -10.291 -0.19 -0.00    +0.052    22.092
ATOM     15  C   UNL d   1      -2.957  15.326 -10.532 -0.18 -0.00    +0.066    22.092
ATOM     16  C   UNL d   1      -2.036  16.157 -11.169 -0.16 +0.00    -0.021    22.092
ATOM     17  C   UNL d   1      -1.761  17.195 -10.279 -0.13 -0.00    +0.000    22.092
ATOM     18  C   UNL d   1      -2.547  16.916  -9.151 -0.11 +0.00    +0.070    22.092
ATOM     19  C   UNL d   1      -1.466  15.861 -12.533 -0.11 +0.00    +0.052    22.092
ATOM     20  C   UNL d   1      -3.337  17.501  -6.821 -0.06 +0.00    +0.066    22.092
ATOM     21  C   UNL d   1      -3.389  18.345  -5.715 -0.06 -0.00    -0.025    22.092
ATOM     22  C   UNL d   1      -4.265  17.766  -4.824 -0.04 -0.00    -0.021    22.092
ATOM     23  C   UNL d   1      -4.703  16.577  -5.415 -0.04 +0.00    +0.066    22.092
ATOM     24  C   UNL d   1      -2.638  19.636  -5.517 -0.04 -0.00    +0.051    22.092
ATOM     25  N   UNL d   1      -5.590  13.961  -6.534 -0.03 -0.01    -0.248    22.092
ATOM     26  N   UNL d   1      -4.679  13.322  -9.224 -0.12 +0.01    -0.248    22.092
ATOM     27  N   UNL d   1      -3.208  15.739  -9.293 -0.11 -0.00    -0.248    22.092
ATOM     28  N   UNL d   1      -4.102  16.397  -6.609 -0.07 -0.02    -0.248    22.092
ATOM     29 FE   UNL d   1      -4.387  14.872  -7.909 -0.03 +0.00    +0.000    22.092
ATOM     30  O   UNL d   1      -3.748  13.615  -7.251 -0.37 +0.00    +0.000    22.092
ATOM     31  O   UNL d   1      -2.861  14.888  -7.526 -0.60 +0.00    +0.000    22.092
ATOM     32  C   UNL d   1      -7.290  13.546  -3.253 -0.03 +0.00    +0.052    22.092
ATOM     33  C   UNL d   1      -6.550  12.599  -2.313 -0.07 +0.02    +0.115    22.092
ATOM     34  C   UNL d   1      -5.053  12.774  -2.381 -0.14 +0.05    +0.139    22.092
ATOM     35  O   UNL d   1      -4.329  11.792  -2.360 -0.01 -0.29    -0.650    22.092
ATOM     36  O   UNL d   1      -4.490  13.999  -2.435 -0.02 -0.44    -0.776    22.092
ATOM     37  H   UNL d   1      -4.778  14.720  -1.863 +0.02 +0.09    +0.167    22.092
ATOM     38  C   UNL d   1      -4.607  18.299  -3.457 -0.01 +0.00    +0.052    22.092
ATOM     39  C   UNL d   1      -3.408  18.290  -2.512 -0.02 +0.01    +0.115    22.092
ATOM     40  C   UNL d   1      -2.996  16.894  -2.116 -0.08 +0.06    +0.139    22.092
ATOM     41  O   UNL d   1      -2.154  16.302  -2.771 -0.58 -0.42    -0.650    22.092
ATOM     42  O   UNL d   1      -3.506  16.304  -1.018 -0.52 -0.49    -0.776    22.092
ATOM     43  H   UNL d   1      -4.230  15.670  -1.075 +0.01 +0.11    +0.167    22.092
ATOM     44  C   UNL d   1      -4.711  11.490 -12.534 -0.37 -0.00    +0.004    22.092
ATOM     45  C   UNL d   1      -4.210  10.311 -12.899 -0.49 -0.00    +0.012    22.092
ATOM     46  C   UNL d   1      -0.807  18.356 -10.378 -0.08 -0.00    +0.004    22.092
ATOM     47  C   UNL d   1       0.305  18.578  -9.666 -0.10 -0.00    +0.012    22.092
TER
ENDMDL
MODEL       72
USER    Run = 72
USER    Cluster Rank = 38
USER    Number of conformations in this cluster = 1
USER  
USER    RMSD from reference structure       = 18.926 A
USER  
USER    Estimated Free Energy of Binding    =   -4.63 kcal/mol  [=(1)+(2)+(3)-(4)]
USER    Estimated Inhibition Constant, Ki   =  400.47 uM (micromolar)  [Temperature = 298.15 K]
USER    
USER    (1) Final Intermolecular Energy     =   -7.62 kcal/mol
USER        vdW + Hbond + desolv Energy     =   -5.69 kcal/mol
USER        Electrostatic Energy            =   -1.93 kcal/mol
USER    (2) Final Total Internal Energy     =   -2.23 kcal/mol
USER    (3) Torsional Free Energy           =   +2.98 kcal/mol
USER    (4) Unbound System's Energy  [=(2)] =   -2.23 kcal/mol
USER    
USER    
USER  
USER    DPF = D:/Protein_go_brrr/autodock/final/mut_N102T/heme_O2/dock.dpf
USER    NEWDPF move	heme_O2_opt.pdbqt
USER    NEWDPF about	8.287000 34.468000 -0.670000
USER    NEWDPF tran0	13.322405 14.267007 3.938477
USER    NEWDPF axisangle0	-0.121016 -0.820897 0.558107 96.941325
USER    NEWDPF quaternion0	-0.090594 -0.614537 0.417808 0.663003
USER    NEWDPF dihe0	180.00 1.89 -56.35 -6.98 -123.17 132.85 130.26 171.37 3.68 0.57 
USER  
USER                              x       y       z    vdW   Elec        q     RMS 
ATOM      1  C   UNL d   1      13.327  15.984   5.184 -0.06 +0.05    +0.064    18.926
ATOM      2  C   UNL d   1      14.130  11.384   6.057 -0.20 +0.03    +0.064    18.926
ATOM      3  C   UNL d   1      13.311  10.273   1.454 -0.25 +0.00    +0.064    18.926
ATOM      4  C   UNL d   1      12.952  15.061   0.447 -0.02 +0.00    +0.064    18.926
ATOM      5  C   UNL d   1      13.614  14.824   5.797 -0.04 +0.06    +0.066    18.926
ATOM      6  C   UNL d   1      13.892  14.707   7.162 -0.14 -0.01    -0.021    18.926
ATOM      7  C   UNL d   1      14.167  13.382   7.408 -0.20 -0.01    -0.025    18.926
ATOM      8  C   UNL d   1      14.002  12.718   6.195 -0.18 +0.04    +0.066    18.926
ATOM      9  C   UNL d   1      14.594  12.820   8.746 -0.11 +0.01    +0.051    18.926
ATOM     10  C   UNL d   1      13.947  10.629   4.817 -0.17 +0.02    +0.066    18.926
ATOM     11  C   UNL d   1      13.930   9.231   4.762 -0.26 -0.00    -0.021    18.926
ATOM     12  C   UNL d   1      13.677   8.891   3.446 -0.27 +0.00    +0.000    18.926
ATOM     13  C   UNL d   1      13.564  10.129   2.754 -0.18 +0.01    +0.070    18.926
ATOM     14  C   UNL d   1      14.119   8.260   5.922 -0.36 +0.01    +0.052    18.926
ATOM     15  C   UNL d   1      13.224  11.506   0.709 -0.14 +0.00    +0.066    18.926
ATOM     16  C   UNL d   1      13.120  11.586  -0.679 -0.21 +0.00    -0.021    18.926
ATOM     17  C   UNL d   1      13.017  12.942  -0.989 -0.13 -0.00    +0.000    18.926
ATOM     18  C   UNL d   1      13.064  13.596   0.250 -0.04 +0.00    +0.070    18.926
ATOM     19  C   UNL d   1      13.184  10.378  -1.579 -0.22 -0.01    +0.052    18.926
ATOM     20  C   UNL d   1      13.036  15.724   1.616 -0.03 +0.02    +0.066    18.926
ATOM     21  C   UNL d   1      12.905  17.105   1.742 -0.01 -0.00    -0.025    18.926
ATOM     22  C   UNL d   1      12.982  17.383   3.088 -0.02 -0.01    -0.021    18.926
ATOM     23  C   UNL d   1      13.176  16.159   3.735 -0.05 +0.04    +0.066    18.926
ATOM     24  C   UNL d   1      12.719  18.108   0.633 +0.00 +0.00    +0.051    18.926
ATOM     25  N   UNL d   1      13.726  13.616   5.190 -0.08 -0.23    -0.248    18.926
ATOM     26  N   UNL d   1      13.734  11.181   3.595 -0.09 -0.08    -0.248    18.926
ATOM     27  N   UNL d   1      13.265  12.715   1.263 -0.04 -0.04    -0.248    18.926
ATOM     28  N   UNL d   1      13.254  15.159   2.833 -0.05 -0.15    -0.248    18.926
ATOM     29 FE   UNL d   1      13.492  13.184   3.208 -0.03 +0.00    +0.000    18.926
ATOM     30  O   UNL d   1      14.952  13.012   3.721 -0.06 +0.00    +0.000    18.926
ATOM     31  O   UNL d   1      14.692  13.640   2.300 -0.04 +0.00    +0.000    18.926
ATOM     32  C   UNL d   1      14.030  15.815   8.174 -0.09 +0.01    +0.052    18.926
ATOM     33  C   UNL d   1      12.699  16.210   8.806 -0.13 +0.03    +0.115    18.926
ATOM     34  C   UNL d   1      11.639  16.510   7.774 -0.15 +0.08    +0.139    18.926
ATOM     35  O   UNL d   1      10.969  15.599   7.315 -0.12 -0.86    -0.650    18.926
ATOM     36  O   UNL d   1      11.432  17.765   7.324 +0.03 -0.27    -0.776    18.926
ATOM     37  H   UNL d   1      10.755  17.967   6.668 +0.03 +0.07    +0.167    18.926
ATOM     38  C   UNL d   1      12.936  18.757   3.705 -0.00 +0.01    +0.052    18.926
ATOM     39  C   UNL d   1      11.575  19.072   4.322 -0.01 +0.02    +0.115    18.926
ATOM     40  C   UNL d   1      10.530  18.043   3.969 -0.04 +0.06    +0.139    18.926
ATOM     41  O   UNL d   1       9.944  18.116   2.900 +0.02 -0.16    -0.650    18.926
ATOM     42  O   UNL d   1      10.264  17.010   4.792 -0.25 -0.84    -0.776    18.926
ATOM     43  H   UNL d   1      10.684  16.933   5.657 +0.02 +0.19    +0.167    18.926
ATOM     44  C   UNL d   1      13.576   7.450   2.993 -0.49 -0.00    +0.004    18.926
ATOM     45  C   UNL d   1      12.530   6.838   2.438 -0.50 -0.00    +0.012    18.926
ATOM     46  C   UNL d   1      12.940  13.649  -2.316 -0.16 -0.00    +0.004    18.926
ATOM     47  C   UNL d   1      13.198  13.156  -3.534 -0.20 -0.01    +0.012    18.926
TER
ENDMDL
MODEL        7
USER    Run = 7
USER    Cluster Rank = 39
USER    Number of conformations in this cluster = 1
USER  
USER    RMSD from reference structure       = 36.445 A
USER  
USER    Estimated Free Energy of Binding    =   -4.49 kcal/mol  [=(1)+(2)+(3)-(4)]
USER    Estimated Inhibition Constant, Ki   =  513.43 uM (micromolar)  [Temperature = 298.15 K]
USER    
USER    (1) Final Intermolecular Energy     =   -7.47 kcal/mol
USER        vdW + Hbond + desolv Energy     =   -4.56 kcal/mol
USER        Electrostatic Energy            =   -2.91 kcal/mol
USER    (2) Final Total Internal Energy     =   -2.28 kcal/mol
USER    (3) Torsional Free Energy           =   +2.98 kcal/mol
USER    (4) Unbound System's Energy  [=(2)] =   -2.28 kcal/mol
USER    
USER    
USER  
USER    DPF = D:/Protein_go_brrr/autodock/final/mut_N102T/heme_O2/dock.dpf
USER    NEWDPF move	heme_O2_opt.pdbqt
USER    NEWDPF about	8.287000 34.468000 -0.670000
USER    NEWDPF tran0	14.375502 -3.791091 6.971349
USER    NEWDPF axisangle0	-0.557624 -0.823053 0.107880 126.488531
USER    NEWDPF quaternion0	-0.497922 -0.734932 0.096330 0.450188
USER    NEWDPF dihe0	149.74 40.29 6.75 -126.69 -113.53 133.88 122.82 161.22 11.42 13.20 
USER  
USER                              x       y       z    vdW   Elec        q     RMS 
ATOM      1  C   UNL d   1      14.600  -4.233   9.034 -0.07 +0.06    +0.064    36.445
ATOM      2  C   UNL d   1      14.349  -6.986   5.171 -0.04 +0.02    +0.064    36.445
ATOM      3  C   UNL d   1      13.808  -3.135   2.348 -0.23 +0.01    +0.064    36.445
ATOM      4  C   UNL d   1      14.544  -0.266   6.259 -0.19 +0.02    +0.064    36.445
ATOM      5  C   UNL d   1      14.578  -5.296   8.213 -0.07 +0.06    +0.066    36.445
ATOM      6  C   UNL d   1      14.682  -6.621   8.646 -0.05 -0.01    -0.021    36.445
ATOM      7  C   UNL d   1      14.653  -7.417   7.525 -0.04 -0.01    -0.025    36.445
ATOM      8  C   UNL d   1      14.484  -6.559   6.442 -0.06 +0.03    +0.066    36.445
ATOM      9  C   UNL d   1      14.813  -8.922   7.527 -0.01 +0.01    +0.051    36.445
ATOM     10  C   UNL d   1      14.147  -6.136   3.998 -0.06 +0.01    +0.066    36.445
ATOM     11  C   UNL d   1      13.850  -6.638   2.726 -0.05 +0.00    -0.021    36.445
ATOM     12  C   UNL d   1      13.672  -5.542   1.901 -0.11 -0.00    +0.000    36.445
ATOM     13  C   UNL d   1      13.888  -4.408   2.733 -0.13 +0.01    +0.070    36.445
ATOM     14  C   UNL d   1      13.714  -8.101   2.320 -0.04 -0.01    +0.052    36.445
ATOM     15  C   UNL d   1      14.053  -1.960   3.150 -0.19 +0.01    +0.066    36.445
ATOM     16  C   UNL d   1      14.114  -0.660   2.650 -0.29 -0.00    -0.021    36.445
ATOM     17  C   UNL d   1      14.324   0.175   3.747 -0.31 +0.00    +0.000    36.445
ATOM     18  C   UNL d   1      14.374  -0.689   4.849 -0.14 +0.02    +0.070    36.445
ATOM     19  C   UNL d   1      14.023  -0.340   1.179 -0.36 +0.01    +0.052    36.445
ATOM     20  C   UNL d   1      14.639  -1.071   7.335 -0.14 +0.03    +0.066    36.445
ATOM     21  C   UNL d   1      14.780  -0.614   8.642 -0.08 -0.01    -0.025    36.445
ATOM     22  C   UNL d   1      14.771  -1.729   9.449 -0.07 -0.01    -0.021    36.445
ATOM     23  C   UNL d   1      14.642  -2.832   8.599 -0.09 +0.05    +0.066    36.445
ATOM     24  C   UNL d   1      14.921   0.816   9.098 -0.09 +0.01    +0.051    36.445
ATOM     25  N   UNL d   1      14.503  -5.249   6.861 -0.06 -0.19    -0.248    36.445
ATOM     26  N   UNL d   1      14.180  -4.779   4.006 -0.07 -0.07    -0.248    36.445
ATOM     27  N   UNL d   1      14.283  -1.987   4.460 -0.08 -0.08    -0.248    36.445
ATOM     28  N   UNL d   1      14.607  -2.430   7.312 -0.10 -0.17    -0.248    36.445
ATOM     29 FE   UNL d   1      14.396  -3.594   5.669 -0.03 +0.00    +0.000    36.445
ATOM     30  O   UNL d   1      15.727  -4.387   5.524 -0.07 +0.00    +0.000    36.445
ATOM     31  O   UNL d   1      15.752  -2.812   5.522 -0.09 +0.00    +0.000    36.445
ATOM     32  C   UNL d   1      14.937  -7.118  10.046 -0.02 +0.02    +0.052    36.445
ATOM     33  C   UNL d   1      13.654  -7.469  10.793 -0.02 +0.05    +0.115    36.445
ATOM     34  C   UNL d   1      12.720  -6.291  10.917 -0.06 +0.11    +0.139    36.445
ATOM     35  O   UNL d   1      11.821  -6.146  10.104 -0.10 -1.00    -0.650    36.445
ATOM     36  O   UNL d   1      12.871  -5.374  11.894 +0.02 -0.45    -0.776    36.445
ATOM     37  H   UNL d   1      12.610  -4.453  11.775 +0.01 +0.12    +0.167    36.445
ATOM     38  C   UNL d   1      14.942  -1.732  10.946 -0.02 +0.02    +0.052    36.445
ATOM     39  C   UNL d   1      13.691  -2.219  11.674 -0.03 +0.05    +0.115    36.445
ATOM     40  C   UNL d   1      12.453  -2.126  10.817 -0.10 +0.12    +0.139    36.445
ATOM     41  O   UNL d   1      11.869  -1.060  10.710 -0.00 -0.41    -0.650    36.445
ATOM     42  O   UNL d   1      12.006  -3.191  10.124 +0.19 -1.63    -0.776    36.445
ATOM     43  H   UNL d   1      11.979  -4.073  10.514 +0.02 +0.32    +0.167    36.445
ATOM     44  C   UNL d   1      13.326  -5.688   0.434 -0.21 -0.00    +0.004    36.445
ATOM     45  C   UNL d   1      13.173  -4.721  -0.470 -0.28 -0.01    +0.012    36.445
ATOM     46  C   UNL d   1      14.533   1.664   3.830 -0.27 +0.00    +0.004    36.445
ATOM     47  C   UNL d   1      15.460   2.333   4.526 -0.28 +0.00    +0.012    36.445
TER
ENDMDL
MODEL       48
USER    Run = 48
USER    Cluster Rank = 40
USER    Number of conformations in this cluster = 1
USER  
USER    RMSD from reference structure       = 44.196 A
USER  
USER    Estimated Free Energy of Binding    =   -4.48 kcal/mol  [=(1)+(2)+(3)-(4)]
USER    Estimated Inhibition Constant, Ki   =  517.71 uM (micromolar)  [Temperature = 298.15 K]
USER    
USER    (1) Final Intermolecular Energy     =   -7.47 kcal/mol
USER        vdW + Hbond + desolv Energy     =   -6.93 kcal/mol
USER        Electrostatic Energy            =   -0.54 kcal/mol
USER    (2) Final Total Internal Energy     =   -2.54 kcal/mol
USER    (3) Torsional Free Energy           =   +2.98 kcal/mol
USER    (4) Unbound System's Energy  [=(2)] =   -2.54 kcal/mol
USER    
USER    
USER  
USER    DPF = D:/Protein_go_brrr/autodock/final/mut_N102T/heme_O2/dock.dpf
USER    NEWDPF move	heme_O2_opt.pdbqt
USER    NEWDPF about	8.287000 34.468000 -0.670000
USER    NEWDPF tran0	-8.494160 -6.915568 13.973847
USER    NEWDPF axisangle0	-0.248446 0.900658 -0.356497 -116.991749
USER    NEWDPF quaternion0	-0.211826 0.767903 -0.303950 -0.522560
USER    NEWDPF dihe0	138.00 135.31 -10.90 -94.25 -78.29 -89.59 79.55 -66.80 25.57 -6.67 
USER  
USER                              x       y       z    vdW   Elec        q     RMS 
ATOM      1  C   UNL d   1      -8.563  -5.080  15.035 -0.15 +0.00    +0.064    44.196
ATOM      2  C   UNL d   1      -5.517  -8.724  15.122 -0.22 -0.01    +0.064    44.196
ATOM      3  C   UNL d   1      -8.111 -11.090  11.841 -0.24 -0.02    +0.064    44.196
ATOM      4  C   UNL d   1     -10.991  -7.144  11.390 -0.11 -0.04    +0.064    44.196
ATOM      5  C   UNL d   1      -7.522  -5.877  15.325 -0.16 -0.00    +0.066    44.196
ATOM      6  C   UNL d   1      -6.534  -5.564  16.263 -0.18 -0.00    -0.021    44.196
ATOM      7  C   UNL d   1      -5.628  -6.599  16.258 -0.19 +0.00    -0.025    44.196
ATOM      8  C   UNL d   1      -6.114  -7.538  15.352 -0.18 -0.01    +0.066    44.196
ATOM      9  C   UNL d   1      -4.354  -6.638  17.073 -0.08 -0.01    +0.051    44.196
ATOM     10  C   UNL d   1      -5.992  -9.758  14.202 -0.23 -0.01    +0.066    44.196
ATOM     11  C   UNL d   1      -5.427 -11.036  14.123 -0.27 +0.00    -0.021    44.196
ATOM     12  C   UNL d   1      -6.172 -11.739  13.195 -0.22 -0.00    +0.000    44.196
ATOM     13  C   UNL d   1      -7.164 -10.826  12.741 -0.17 -0.02    +0.070    44.196
ATOM     14  C   UNL d   1      -4.243 -11.572  14.919 -0.33 -0.01    +0.052    44.196
ATOM     15  C   UNL d   1      -9.111 -10.184  11.330 -0.17 -0.02    +0.066    44.196
ATOM     16  C   UNL d   1      -9.970 -10.472  10.269 -0.18 +0.01    -0.021    44.196
ATOM     17  C   UNL d   1     -10.800  -9.360  10.122 -0.12 -0.00    +0.000    44.196
ATOM     18  C   UNL d   1     -10.381  -8.467  11.118 -0.12 -0.03    +0.070    44.196
ATOM     19  C   UNL d   1      -9.886 -11.744   9.464 -0.29 -0.02    +0.052    44.196
ATOM     20  C   UNL d   1     -10.586  -6.246  12.309 -0.07 -0.05    +0.066    44.196
ATOM     21  C   UNL d   1     -11.212  -5.022  12.532 +0.01 +0.02    -0.025    44.196
ATOM     22  C   UNL d   1     -10.551  -4.432  13.585 -0.06 +0.01    -0.021    44.196
ATOM     23  C   UNL d   1      -9.530  -5.313  13.956 -0.09 -0.03    +0.066    44.196
ATOM     24  C   UNL d   1     -12.380  -4.444  11.775 -0.08 -0.03    +0.051    44.196
ATOM     25  N   UNL d   1      -7.245  -7.063  14.730 -0.09 +0.05    -0.248    44.196
ATOM     26  N   UNL d   1      -7.044  -9.622  13.355 -0.11 +0.06    -0.248    44.196
ATOM     27  N   UNL d   1      -9.307  -8.953  11.792 -0.09 +0.08    -0.248    44.196
ATOM     28  N   UNL d   1      -9.527  -6.394  13.148 -0.09 +0.16    -0.248    44.196
ATOM     29 FE   UNL d   1      -8.296  -7.997  13.249 -0.04 -0.00    +0.000    44.196
ATOM     30  O   UNL d   1      -6.892  -7.496  12.802 -0.47 -0.00    +0.000    44.196
ATOM     31  O   UNL d   1      -8.119  -7.355  11.824 -0.37 -0.00    +0.000    44.196
ATOM     32  C   UNL d   1      -6.369  -4.282  17.036 -0.20 +0.02    +0.052    44.196
ATOM     33  C   UNL d   1      -6.685  -4.440  18.520 -0.07 +0.01    +0.115    44.196
ATOM     34  C   UNL d   1      -8.043  -3.889  18.881 -0.05 +0.02    +0.139    44.196
ATOM     35  O   UNL d   1      -8.815  -4.568  19.538 +0.02 -0.03    -0.650    44.196
ATOM     36  O   UNL d   1      -8.438  -2.667  18.468 +0.01 -0.30    -0.776    44.196
ATOM     37  H   UNL d   1      -9.331  -2.501  18.144 +0.01 +0.07    +0.167    44.196
ATOM     38  C   UNL d   1     -10.847  -3.069  14.156 -0.14 -0.00    +0.052    44.196
ATOM     39  C   UNL d   1     -11.779  -3.135  15.364 -0.04 +0.00    +0.115    44.196
ATOM     40  C   UNL d   1     -11.089  -2.744  16.647 -0.04 +0.03    +0.139    44.196
ATOM     41  O   UNL d   1     -10.521  -1.667  16.726 -0.44 -0.37    -0.650    44.196
ATOM     42  O   UNL d   1     -11.130  -3.544  17.730 +0.02 -0.08    -0.776    44.196
ATOM     43  H   UNL d   1     -10.349  -3.692  18.277 +0.01 +0.02    +0.167    44.196
ATOM     44  C   UNL d   1      -5.865 -13.179  12.841 -0.33 -0.00    +0.004    44.196
ATOM     45  C   UNL d   1      -6.642 -14.048  12.197 -0.32 -0.00    +0.012    44.196
ATOM     46  C   UNL d   1     -11.879  -9.059   9.116 -0.09 -0.00    +0.004    44.196
ATOM     47  C   UNL d   1     -11.805  -8.277   8.031 -0.12 -0.00    +0.012    44.196
TER
ENDMDL
MODEL       78
USER    Run = 78
USER    Cluster Rank = 41
USER    Number of conformations in this cluster = 1
USER  
USER    RMSD from reference structure       = 32.635 A
USER  
USER    Estimated Free Energy of Binding    =   -4.47 kcal/mol  [=(1)+(2)+(3)-(4)]
USER    Estimated Inhibition Constant, Ki   =  530.39 uM (micromolar)  [Temperature = 298.15 K]
USER    
USER    (1) Final Intermolecular Energy     =   -7.45 kcal/mol
USER        vdW + Hbond + desolv Energy     =   -7.28 kcal/mol
USER        Electrostatic Energy            =   -0.17 kcal/mol
USER    (2) Final Total Internal Energy     =   -2.24 kcal/mol
USER    (3) Torsional Free Energy           =   +2.98 kcal/mol
USER    (4) Unbound System's Energy  [=(2)] =   -2.24 kcal/mol
USER    
USER    
USER  
USER    DPF = D:/Protein_go_brrr/autodock/final/mut_N102T/heme_O2/dock.dpf
USER    NEWDPF move	heme_O2_opt.pdbqt
USER    NEWDPF about	8.287000 34.468000 -0.670000
USER    NEWDPF tran0	-12.235645 6.298195 8.535125
USER    NEWDPF axisangle0	-0.803289 -0.365672 -0.470118 -172.238145
USER    NEWDPF quaternion0	-0.801447 -0.364834 -0.469040 -0.067683
USER    NEWDPF dihe0	-15.16 -152.62 70.14 -61.72 -93.19 -8.46 -12.14 94.57 162.77 155.59 
USER  
USER                              x       y       z    vdW   Elec        q     RMS 
ATOM      1  C   UNL d   1     -12.957   4.527   7.618 -0.13 -0.00    +0.064    32.635
ATOM      2  C   UNL d   1     -11.775   8.786   5.880 -0.19 -0.01    +0.064    32.635
ATOM      3  C   UNL d   1     -10.706  10.389  10.283 -0.18 -0.00    +0.064    32.635
ATOM      4  C   UNL d   1     -11.462   5.865  12.024 -0.13 +0.00    +0.064    32.635
ATOM      5  C   UNL d   1     -12.721   5.554   6.786 -0.13 -0.00    +0.066    32.635
ATOM      6  C   UNL d   1     -12.932   5.507   5.405 -0.12 -0.00    -0.021    32.635
ATOM      7  C   UNL d   1     -12.550   6.725   4.895 -0.10 -0.00    -0.025    32.635
ATOM      8  C   UNL d   1     -12.161   7.500   5.985 -0.15 -0.00    +0.066    32.635
ATOM      9  C   UNL d   1     -12.542   7.085   3.425 -0.15 +0.00    +0.051    32.635
ATOM     10  C   UNL d   1     -11.378   9.655   6.989 -0.17 -0.01    +0.066    32.635
ATOM     11  C   UNL d   1     -11.145  11.027   6.846 -0.15 +0.00    -0.021    32.635
ATOM     12  C   UNL d   1     -10.853  11.511   8.108 -0.15 -0.00    +0.000    32.635
ATOM     13  C   UNL d   1     -10.914  10.379   8.966 -0.16 -0.01    +0.070    32.635
ATOM     14  C   UNL d   1     -11.225  11.848   5.564 -0.11 -0.00    +0.052    32.635
ATOM     15  C   UNL d   1     -10.724   9.259  11.181 -0.17 -0.00    +0.066    32.635
ATOM     16  C   UNL d   1     -10.337   9.308  12.520 -0.16 -0.00    -0.021    32.635
ATOM     17  C   UNL d   1     -10.543   8.029  13.037 -0.24 +0.00    +0.000    32.635
ATOM     18  C   UNL d   1     -11.049   7.287  11.961 -0.22 +0.00    +0.070    32.635
ATOM     19  C   UNL d   1      -9.760  10.543  13.165 -0.10 +0.00    +0.052    32.635
ATOM     20  C   UNL d   1     -11.910   5.111  11.002 -0.13 -0.00    +0.066    32.635
ATOM     21  C   UNL d   1     -12.302   3.781  11.126 -0.13 +0.00    -0.025    32.635
ATOM     22  C   UNL d   1     -12.756   3.391   9.886 -0.16 +0.00    -0.021    32.635
ATOM     23  C   UNL d   1     -12.607   4.497   9.043 -0.16 -0.00    +0.066    32.635
ATOM     24  C   UNL d   1     -12.242   2.924  12.364 -0.19 -0.00    +0.051    32.635
ATOM     25  N   UNL d   1     -12.204   6.756   7.141 -0.11 +0.01    -0.248    32.635
ATOM     26  N   UNL d   1     -11.229   9.253   8.277 -0.13 +0.04    -0.248    32.635
ATOM     27  N   UNL d   1     -11.081   8.029  10.825 -0.14 +0.00    -0.248    32.635
ATOM     28  N   UNL d   1     -12.051   5.526   9.715 -0.12 +0.01    -0.248    32.635
ATOM     29 FE   UNL d   1     -11.642   7.377   9.004 -0.04 -0.00    +0.000    32.635
ATOM     30  O   UNL d   1     -10.454   7.209   8.012 -0.44 -0.00    +0.000    32.635
ATOM     31  O   UNL d   1     -10.289   6.757   9.512 -0.52 -0.00    +0.000    32.635
ATOM     32  C   UNL d   1     -13.347   4.320   4.575 -0.12 +0.00    +0.052    32.635
ATOM     33  C   UNL d   1     -12.256   3.859   3.614 -0.19 +0.02    +0.115    32.635
ATOM     34  C   UNL d   1     -12.532   2.489   3.044 -0.11 +0.04    +0.139    32.635
ATOM     35  O   UNL d   1     -12.722   2.361   1.846 -0.53 -0.39    -0.650    32.635
ATOM     36  O   UNL d   1     -12.601   1.399   3.837 +0.10 -0.02    -0.776    32.635
ATOM     37  H   UNL d   1     -12.277   1.406   4.745 -0.01 -0.04    +0.167    32.635
ATOM     38  C   UNL d   1     -13.244   2.012   9.523 -0.12 -0.01    +0.052    32.635
ATOM     39  C   UNL d   1     -12.202   1.213   8.744 -0.22 -0.02    +0.115    32.635
ATOM     40  C   UNL d   1     -12.268   1.471   7.260 -0.22 -0.03    +0.139    32.635
ATOM     41  O   UNL d   1     -11.238   1.640   6.627 -0.06 +0.15    -0.650    32.635
ATOM     42  O   UNL d   1     -13.446   1.469   6.605 +0.07 +0.15    -0.776    32.635
ATOM     43  H   UNL d   1     -13.508   1.206   5.679 +0.04 -0.04    +0.167    32.635
ATOM     44  C   UNL d   1     -10.549  12.973   8.358 -0.10 -0.00    +0.004    32.635
ATOM     45  C   UNL d   1      -9.400  13.513   8.762 -0.14 -0.00    +0.012    32.635
ATOM     46  C   UNL d   1     -10.257   7.457  14.400 -0.23 +0.00    +0.004    32.635
ATOM     47  C   UNL d   1      -9.067   7.220  14.966 -0.29 +0.00    +0.012    32.635
TER
ENDMDL
MODEL        4
USER    Run = 4
USER    Cluster Rank = 42
USER    Number of conformations in this cluster = 1
USER  
USER    RMSD from reference structure       = 18.475 A
USER  
USER    Estimated Free Energy of Binding    =   -4.38 kcal/mol  [=(1)+(2)+(3)-(4)]
USER    Estimated Inhibition Constant, Ki   =  615.05 uM (micromolar)  [Temperature = 298.15 K]
USER    
USER    (1) Final Intermolecular Energy     =   -7.36 kcal/mol
USER        vdW + Hbond + desolv Energy     =   -5.59 kcal/mol
USER        Electrostatic Energy            =   -1.78 kcal/mol
USER    (2) Final Total Internal Energy     =   -2.14 kcal/mol
USER    (3) Torsional Free Energy           =   +2.98 kcal/mol
USER    (4) Unbound System's Energy  [=(2)] =   -2.14 kcal/mol
USER    
USER    
USER  
USER    DPF = D:/Protein_go_brrr/autodock/final/mut_N102T/heme_O2/dock.dpf
USER    NEWDPF move	heme_O2_opt.pdbqt
USER    NEWDPF about	8.287000 34.468000 -0.670000
USER    NEWDPF tran0	10.213474 16.793640 11.601599
USER    NEWDPF axisangle0	0.159121 -0.497661 0.852651 -143.628782
USER    NEWDPF quaternion0	0.151173 -0.472803 0.810062 -0.312096
USER    NEWDPF dihe0	111.25 117.47 58.35 90.61 -97.79 -70.32 -41.00 -57.23 -165.25 14.94 
USER  
USER                              x       y       z    vdW   Elec        q     RMS 
ATOM      1  C   UNL d   1      11.283  16.588   9.782 -0.05 +0.00    +0.064    18.475
ATOM      2  C   UNL d   1      11.974  14.801  14.128 -0.08 +0.00    +0.064    18.475
ATOM      3  C   UNL d   1       8.105  17.116  15.794 -0.11 -0.03    +0.064    18.475
ATOM      4  C   UNL d   1       7.110  18.578  11.218 -0.19 -0.02    +0.064    18.475
ATOM      5  C   UNL d   1      11.786  15.912  10.827 -0.14 +0.00    +0.066    18.475
ATOM      6  C   UNL d   1      12.938  15.123  10.769 -0.18 -0.00    -0.021    18.475
ATOM      7  C   UNL d   1      13.115  14.571  12.016 -0.11 -0.00    -0.025    18.475
ATOM      8  C   UNL d   1      12.092  15.076  12.815 -0.13 +0.00    +0.066    18.475
ATOM      9  C   UNL d   1      14.205  13.586  12.380 +0.03 +0.01    +0.051    18.475
ATOM     10  C   UNL d   1      10.937  15.319  15.022 -0.05 -0.00    +0.066    18.475
ATOM     11  C   UNL d   1      10.954  15.135  16.409 -0.03 +0.00    -0.021    18.475
ATOM     12  C   UNL d   1       9.856  15.810  16.909 -0.05 -0.00    +0.000    18.475
ATOM     13  C   UNL d   1       9.210  16.370  15.772 -0.06 -0.02    +0.070    18.475
ATOM     14  C   UNL d   1      11.990  14.370  17.225 -0.02 -0.00    +0.052    18.475
ATOM     15  C   UNL d   1       7.401  17.672  14.664 -0.12 -0.03    +0.066    18.475
ATOM     16  C   UNL d   1       6.160  18.304  14.738 -0.16 +0.01    -0.021    18.475
ATOM     17  C   UNL d   1       5.856  18.729  13.445 -0.19 -0.00    +0.000    18.475
ATOM     18  C   UNL d   1       6.949  18.320  12.669 -0.19 -0.02    +0.070    18.475
ATOM     19  C   UNL d   1       5.360  18.397  16.013 -0.11 -0.05    +0.052    18.475
ATOM     20  C   UNL d   1       8.125  18.163  10.435 -0.19 -0.01    +0.066    18.475
ATOM     21  C   UNL d   1       8.231  18.452   9.077 -0.18 +0.00    -0.025    18.475
ATOM     22  C   UNL d   1       9.428  17.917   8.657 -0.03 -0.00    -0.021    18.475
ATOM     23  C   UNL d   1      10.001  17.302   9.775 -0.03 +0.01    +0.066    18.475
ATOM     24  C   UNL d   1       7.240  19.200   8.224 -0.21 -0.01    +0.051    18.475
ATOM     25  N   UNL d   1      11.237  15.850  12.065 -0.10 +0.01    -0.248    18.475
ATOM     26  N   UNL d   1       9.871  16.063  14.628 -0.02 +0.03    -0.248    18.475
ATOM     27  N   UNL d   1       7.841  17.615  13.410 -0.09 +0.06    -0.248    18.475
ATOM     28  N   UNL d   1       9.184  17.415  10.842 -0.12 +0.01    -0.248    18.475
ATOM     29 FE   UNL d   1       9.523  16.745  12.722 -0.03 -0.00    +0.000    18.475
ATOM     30  O   UNL d   1       9.434  15.192  12.653 -0.35 -0.00    +0.000    18.475
ATOM     31  O   UNL d   1       8.200  16.066  12.210 -0.43 -0.00    +0.000    18.475
ATOM     32  C   UNL d   1      13.767  14.789   9.556 -0.19 +0.01    +0.052    18.475
ATOM     33  C   UNL d   1      13.178  13.648   8.732 -0.29 +0.04    +0.115    18.475
ATOM     34  C   UNL d   1      13.228  13.923   7.250 -0.23 +0.11    +0.139    18.475
ATOM     35  O   UNL d   1      13.974  13.267   6.539 -0.04 -0.40    -0.650    18.475
ATOM     36  O   UNL d   1      12.485  14.900   6.690 -0.31 -1.30    -0.776    18.475
ATOM     37  H   UNL d   1      12.884  15.696   6.320 +0.02 +0.18    +0.167    18.475
ATOM     38  C   UNL d   1       9.954  17.942   7.246 -0.14 +0.02    +0.052    18.475
ATOM     39  C   UNL d   1      11.255  18.731   7.123 -0.03 +0.02    +0.115    18.475
ATOM     40  C   UNL d   1      12.386  17.897   6.575 -0.04 +0.05    +0.139    18.475
ATOM     41  O   UNL d   1      12.408  17.612   5.388 +0.01 -0.31    -0.650    18.475
ATOM     42  O   UNL d   1      13.405  17.502   7.362 +0.04 -0.19    -0.776    18.475
ATOM     43  H   UNL d   1      13.603  16.568   7.500 +0.03 +0.06    +0.167    18.475
ATOM     44  C   UNL d   1       9.542  15.847  18.390 -0.05 -0.00    +0.004    18.475
ATOM     45  C   UNL d   1       8.403  15.511  18.994 -0.11 -0.00    +0.012    18.475
ATOM     46  C   UNL d   1       4.634  19.413  12.892 -0.28 -0.00    +0.004    18.475
ATOM     47  C   UNL d   1       4.345  20.721  12.893 -0.23 -0.00    +0.012    18.475
TER
ENDMDL
MODEL       64
USER    Run = 64
USER    Cluster Rank = 43
USER    Number of conformations in this cluster = 1
USER  
USER    RMSD from reference structure       = 26.547 A
USER  
USER    Estimated Free Energy of Binding    =   -4.38 kcal/mol  [=(1)+(2)+(3)-(4)]
USER    Estimated Inhibition Constant, Ki   =  616.08 uM (micromolar)  [Temperature = 298.15 K]
USER    
USER    (1) Final Intermolecular Energy     =   -7.36 kcal/mol
USER        vdW + Hbond + desolv Energy     =   -7.32 kcal/mol
USER        Electrostatic Energy            =   -0.04 kcal/mol
USER    (2) Final Total Internal Energy     =   -1.63 kcal/mol
USER    (3) Torsional Free Energy           =   +2.98 kcal/mol
USER    (4) Unbound System's Energy  [=(2)] =   -1.63 kcal/mol
USER    
USER    
USER  
USER    DPF = D:/Protein_go_brrr/autodock/final/mut_N102T/heme_O2/dock.dpf
USER    NEWDPF move	heme_O2_opt.pdbqt
USER    NEWDPF about	8.287000 34.468000 -0.670000
USER    NEWDPF tran0	-5.705212 12.169503 -11.957760
USER    NEWDPF axisangle0	0.877169 0.480089 -0.009445 -138.601407
USER    NEWDPF quaternion0	0.820546 0.449099 -0.008836 -0.353463
USER    NEWDPF dihe0	-37.41 -117.01 122.16 -89.77 99.89 120.16 29.19 -96.38 -18.22 -33.07 
USER  
USER                              x       y       z    vdW   Elec        q     RMS 
ATOM      1  C   UNL d   1      -6.616  11.065 -10.393 -0.11 -0.00    +0.064    26.547
ATOM      2  C   UNL d   1      -6.818  10.689 -15.123 -0.19 -0.01    +0.064    26.547
ATOM      3  C   UNL d   1      -3.900  14.472 -15.641 -0.21 +0.01    +0.064    26.547
ATOM      4  C   UNL d   1      -3.302  14.573 -10.773 -0.20 -0.01    +0.064    26.547
ATOM      5  C   UNL d   1      -6.907  10.653 -11.637 -0.12 -0.01    +0.066    26.547
ATOM      6  C   UNL d   1      -7.757   9.581 -11.928 -0.16 +0.00    -0.021    26.547
ATOM      7  C   UNL d   1      -7.782   9.444 -13.296 -0.21 +0.00    -0.025    26.547
ATOM      8  C   UNL d   1      -6.986  10.466 -13.805 -0.16 -0.01    +0.066    26.547
ATOM      9  C   UNL d   1      -8.520   8.355 -14.043 -0.26 -0.01    +0.051    26.547
ATOM     10  C   UNL d   1      -6.015  11.758 -15.717 -0.18 -0.00    +0.066    26.547
ATOM     11  C   UNL d   1      -6.007  12.045 -17.086 -0.18 -0.00    -0.021    26.547
ATOM     12  C   UNL d   1      -5.185  13.144 -17.253 -0.22 +0.00    +0.000    26.547
ATOM     13  C   UNL d   1      -4.718  13.466 -15.949 -0.21 +0.00    +0.070    26.547
ATOM     14  C   UNL d   1      -6.772  11.318 -18.186 -0.17 +0.00    +0.052    26.547
ATOM     15  C   UNL d   1      -3.377  14.809 -14.339 -0.11 +0.01    +0.066    26.547
ATOM     16  C   UNL d   1      -2.396  15.773 -14.106 -0.16 -0.00    -0.021    26.547
ATOM     17  C   UNL d   1      -2.208  15.819 -12.725 -0.15 +0.00    +0.000    26.547
ATOM     18  C   UNL d   1      -3.102  14.868 -12.211 -0.16 -0.00    +0.070    26.547
ATOM     19  C   UNL d   1      -1.694  16.516 -15.214 -0.20 +0.02    +0.052    26.547
ATOM     20  C   UNL d   1      -4.118  13.639 -10.249 -0.20 -0.01    +0.066    26.547
ATOM     21  C   UNL d   1      -4.277  13.419  -8.883 -0.24 +0.00    -0.025    26.547
ATOM     22  C   UNL d   1      -5.238  12.441  -8.755 -0.19 +0.00    -0.021    26.547
ATOM     23  C   UNL d   1      -5.618  12.086 -10.053 -0.13 -0.00    +0.066    26.547
ATOM     24  C   UNL d   1      -3.547  14.105  -7.758 -0.28 +0.00    +0.051    26.547
ATOM     25  N   UNL d   1      -6.395  11.170 -12.781 -0.06 +0.03    -0.248    26.547
ATOM     26  N   UNL d   1      -5.224  12.615 -15.020 -0.12 +0.01    -0.248    26.547
ATOM     27  N   UNL d   1      -3.748  14.213 -13.209 -0.12 -0.01    -0.248    26.547
ATOM     28  N   UNL d   1      -4.902  12.785 -10.959 -0.11 +0.02    -0.248    26.547
ATOM     29 FE   UNL d   1      -5.060  12.702 -12.975 -0.04 -0.00    +0.000    26.547
ATOM     30  O   UNL d   1      -4.492  11.317 -13.399 -0.42 -0.00    +0.000    26.547
ATOM     31  O   UNL d   1      -3.580  12.324 -12.601 -0.44 -0.00    +0.000    26.547
ATOM     32  C   UNL d   1      -8.412   8.633 -10.957 -0.02 -0.01    +0.052    26.547
ATOM     33  C   UNL d   1      -9.435   9.320 -10.058 -0.09 -0.01    +0.115    26.547
ATOM     34  C   UNL d   1      -9.603   8.615  -8.735 -0.09 +0.00    +0.139    26.547
ATOM     35  O   UNL d   1      -9.815   7.413  -8.714 -0.46 -0.09    -0.650    26.547
ATOM     36  O   UNL d   1      -9.552   9.289  -7.567 +0.03 +0.01    -0.776    26.547
ATOM     37  H   UNL d   1      -8.945  10.026  -7.429 +0.03 -0.00    +0.167    26.547
ATOM     38  C   UNL d   1      -5.713  11.841  -7.458 -0.21 -0.00    +0.052    26.547
ATOM     39  C   UNL d   1      -6.509  12.833  -6.614 -0.06 +0.00    +0.115    26.547
ATOM     40  C   UNL d   1      -7.953  12.925  -7.040 -0.02 +0.00    +0.139    26.547
ATOM     41  O   UNL d   1      -8.301  13.800  -7.817 +0.01 +0.00    -0.650    26.547
ATOM     42  O   UNL d   1      -8.861  12.024  -6.619 +0.02 +0.00    -0.776    26.547
ATOM     43  H   UNL d   1      -9.293  11.418  -7.233 +0.01 -0.00    +0.167    26.547
ATOM     44  C   UNL d   1      -4.932  13.760 -18.614 -0.20 +0.00    +0.004    26.547
ATOM     45  C   UNL d   1      -4.358  13.194 -19.675 -0.19 +0.00    +0.012    26.547
ATOM     46  C   UNL d   1      -1.247  16.616 -11.884 -0.16 -0.00    +0.004    26.547
ATOM     47  C   UNL d   1      -0.061  16.234 -11.394 -0.24 -0.00    +0.012    26.547
TER
ENDMDL
MODEL       79
USER    Run = 79
USER    Cluster Rank = 44
USER    Number of conformations in this cluster = 1
USER  
USER    RMSD from reference structure       = 34.198 A
USER  
USER    Estimated Free Energy of Binding    =   -4.37 kcal/mol  [=(1)+(2)+(3)-(4)]
USER    Estimated Inhibition Constant, Ki   =  621.58 uM (micromolar)  [Temperature = 298.15 K]
USER    
USER    (1) Final Intermolecular Energy     =   -7.36 kcal/mol
USER        vdW + Hbond + desolv Energy     =   -7.54 kcal/mol
USER        Electrostatic Energy            =   +0.18 kcal/mol
USER    (2) Final Total Internal Energy     =   -1.97 kcal/mol
USER    (3) Torsional Free Energy           =   +2.98 kcal/mol
USER    (4) Unbound System's Energy  [=(2)] =   -1.97 kcal/mol
USER    
USER    
USER  
USER    DPF = D:/Protein_go_brrr/autodock/final/mut_N102T/heme_O2/dock.dpf
USER    NEWDPF move	heme_O2_opt.pdbqt
USER    NEWDPF about	8.287000 34.468000 -0.670000
USER    NEWDPF tran0	13.777547 -0.033183 -6.842372
USER    NEWDPF axisangle0	0.534448 -0.844076 -0.043614 -103.756778
USER    NEWDPF quaternion0	0.420451 -0.664036 -0.034311 -0.617333
USER    NEWDPF dihe0	-2.24 23.87 -56.76 -100.45 -109.64 -123.10 170.52 -69.45 9.96 29.77 
USER  
USER                              x       y       z    vdW   Elec        q     RMS 
ATOM      1  C   UNL d   1      13.929   1.857  -7.793 -0.14 -0.01    +0.064    34.198
ATOM      2  C   UNL d   1      12.326  -2.361  -9.277 -0.16 -0.01    +0.064    34.198
ATOM      3  C   UNL d   1      13.386  -4.359  -5.036 -0.25 -0.04    +0.064    34.198
ATOM      4  C   UNL d   1      14.596   0.082  -3.338 -0.15 -0.00    +0.064    34.198
ATOM      5  C   UNL d   1      13.405   0.873  -8.542 -0.15 -0.01    +0.066    34.198
ATOM      6  C   UNL d   1      12.985   1.036  -9.865 -0.24 +0.00    -0.021    34.198
ATOM      7  C   UNL d   1      12.481  -0.174 -10.282 -0.23 +0.00    -0.025    34.198
ATOM      8  C   UNL d   1      12.651  -1.055  -9.217 -0.16 -0.01    +0.066    34.198
ATOM      9  C   UNL d   1      11.847  -0.429 -11.632 -0.24 -0.01    +0.051    34.198
ATOM     10  C   UNL d   1      12.503  -3.338  -8.201 -0.16 -0.01    +0.066    34.198
ATOM     11  C   UNL d   1      12.302  -4.713  -8.370 -0.21 +0.00    -0.021    34.198
ATOM     12  C   UNL d   1      12.620  -5.308  -7.163 -0.27 -0.00    +0.000    34.198
ATOM     13  C   UNL d   1      12.993  -4.238  -6.304 -0.04 -0.03    +0.070    34.198
ATOM     14  C   UNL d   1      11.852  -5.431  -9.637 -0.22 -0.01    +0.052    34.198
ATOM     15  C   UNL d   1      13.738  -3.298  -4.123 -0.19 -0.02    +0.066    34.198
ATOM     16  C   UNL d   1      13.983  -3.476  -2.761 -0.18 +0.01    -0.021    34.198
ATOM     17  C   UNL d   1      14.329  -2.223  -2.256 -0.14 -0.00    +0.000    34.198
ATOM     18  C   UNL d   1      14.271  -1.363  -3.362 -0.14 -0.01    +0.070    34.198
ATOM     19  C   UNL d   1      13.813  -4.801  -2.061 -0.21 -0.04    +0.052    34.198
ATOM     20  C   UNL d   1      14.508   0.944  -4.370 -0.14 -0.01    +0.066    34.198
ATOM     21  C   UNL d   1      14.845   2.292  -4.292 -0.21 +0.00    -0.025    34.198
ATOM     22  C   UNL d   1      14.688   2.808  -5.559 -0.20 +0.00    -0.021    34.198
ATOM     23  C   UNL d   1      14.241   1.755  -6.363 -0.11 -0.01    +0.066    34.198
ATOM     24  C   UNL d   1      15.292   3.051  -3.069 -0.16 -0.02    +0.051    34.198
ATOM     25  N   UNL d   1      13.160  -0.393  -8.124 -0.08 +0.03    -0.248    34.198
ATOM     26  N   UNL d   1      12.914  -3.042  -6.942 -0.01 +0.03    -0.248    34.198
ATOM     27  N   UNL d   1      13.838  -2.018  -4.470 -0.10 +0.04    -0.248    34.198
ATOM     28  N   UNL d   1      14.091   0.634  -5.626 -0.08 +0.02    -0.248    34.198
ATOM     29 FE   UNL d   1      13.507  -1.192  -6.277 -0.04 -0.00    +0.000    34.198
ATOM     30  O   UNL d   1      11.997  -1.064  -6.633 -0.37 +0.00    +0.000    34.198
ATOM     31  O   UNL d   1      12.485  -0.736  -5.172 -0.86 +0.00    +0.000    34.198
ATOM     32  C   UNL d   1      12.931   2.311 -10.667 -0.23 -0.02    +0.052    34.198
ATOM     33  C   UNL d   1      14.186   2.539 -11.503 -0.03 -0.03    +0.115    34.198
ATOM     34  C   UNL d   1      15.305   1.597 -11.130 -0.05 -0.02    +0.139    34.198
ATOM     35  O   UNL d   1      15.508   0.603 -11.809 +0.02 +0.07    -0.650    34.198
ATOM     36  O   UNL d   1      16.073   1.813 -10.042 +0.04 +0.09    -0.776    34.198
ATOM     37  H   UNL d   1      15.956   2.588  -9.480 +0.03 -0.02    +0.167    34.198
ATOM     38  C   UNL d   1      14.894   4.247  -5.953 -0.26 -0.01    +0.052    34.198
ATOM     39  C   UNL d   1      15.759   4.390  -7.204 -0.08 -0.02    +0.115    34.198
ATOM     40  C   UNL d   1      14.968   4.853  -8.402 -0.14 -0.03    +0.139    34.198
ATOM     41  O   UNL d   1      13.907   5.434  -8.240 -0.07 +0.16    -0.650    34.198
ATOM     42  O   UNL d   1      15.437   4.682  -9.653 +0.07 +0.13    -0.776    34.198
ATOM     43  H   UNL d   1      16.051   3.970  -9.869 +0.03 -0.02    +0.167    34.198
ATOM     44  C   UNL d   1      12.533  -6.806  -6.958 -0.28 -0.00    +0.004    34.198
ATOM     45  C   UNL d   1      13.516  -7.647  -6.642 -0.20 -0.01    +0.012    34.198
ATOM     46  C   UNL d   1      14.642  -1.775  -0.853 -0.18 -0.00    +0.004    34.198
ATOM     47  C   UNL d   1      13.887  -1.033  -0.032 -0.36 +0.00    +0.012    34.198
TER
ENDMDL
MODEL        9
USER    Run = 9
USER    Cluster Rank = 45
USER    Number of conformations in this cluster = 1
USER  
USER    RMSD from reference structure       = 36.970 A
USER  
USER    Estimated Free Energy of Binding    =   -4.34 kcal/mol  [=(1)+(2)+(3)-(4)]
USER    Estimated Inhibition Constant, Ki   =  656.23 uM (micromolar)  [Temperature = 298.15 K]
USER    
USER    (1) Final Intermolecular Energy     =   -7.33 kcal/mol
USER        vdW + Hbond + desolv Energy     =   -6.95 kcal/mol
USER        Electrostatic Energy            =   -0.38 kcal/mol
USER    (2) Final Total Internal Energy     =   -1.98 kcal/mol
USER    (3) Torsional Free Energy           =   +2.98 kcal/mol
USER    (4) Unbound System's Energy  [=(2)] =   -1.98 kcal/mol
USER    
USER    
USER  
USER    DPF = D:/Protein_go_brrr/autodock/final/mut_N102T/heme_O2/dock.dpf
USER    NEWDPF move	heme_O2_opt.pdbqt
USER    NEWDPF about	8.287000 34.468000 -0.670000
USER    NEWDPF tran0	-11.419536 2.110543 11.281470
USER    NEWDPF axisangle0	-0.601169 0.248348 0.759552 -138.616296
USER    NEWDPF quaternion0	-0.562390 0.232328 0.710556 -0.353342
USER    NEWDPF dihe0	-0.23 -11.17 -27.36 -111.50 176.58 -14.51 -56.68 143.35 -137.69 -169.40 
USER  
USER                              x       y       z    vdW   Elec        q     RMS 
ATOM      1  C   UNL d   1     -11.151   0.691  12.835 -0.24 +0.00    +0.064    36.970
ATOM      2  C   UNL d   1     -11.561   5.423  12.848 -0.14 +0.00    +0.064    36.970
ATOM      3  C   UNL d   1     -11.936   5.497   8.058 -0.26 -0.00    +0.064    36.970
ATOM      4  C   UNL d   1     -11.994   0.591   8.069 -0.23 -0.02    +0.064    36.970
ATOM      5  C   UNL d   1     -11.234   1.972  13.230 -0.21 +0.00    +0.066    36.970
ATOM      6  C   UNL d   1     -11.143   2.389  14.561 -0.17 -0.00    -0.021    36.970
ATOM      7  C   UNL d   1     -11.306   3.754  14.570 -0.14 -0.00    -0.025    36.970
ATOM      8  C   UNL d   1     -11.442   4.140  13.240 -0.07 +0.00    +0.066    36.970
ATOM      9  C   UNL d   1     -11.352   4.612  15.816 -0.09 +0.00    +0.051    36.970
ATOM     10  C   UNL d   1     -11.685   5.891  11.467 -0.11 +0.00    +0.066    36.970
ATOM     11  C   UNL d   1     -11.641   7.242  11.105 -0.18 +0.00    -0.021    36.970
ATOM     12  C   UNL d   1     -11.729   7.282   9.725 -0.21 -0.00    +0.000    36.970
ATOM     13  C   UNL d   1     -11.837   5.924   9.316 -0.22 -0.00    +0.070    36.970
ATOM     14  C   UNL d   1     -11.493   8.441  12.033 -0.15 -0.00    +0.052    36.970
ATOM     15  C   UNL d   1     -12.082   4.134   7.604 -0.23 -0.00    +0.066    36.970
ATOM     16  C   UNL d   1     -12.346   3.764   6.286 -0.20 +0.00    -0.021    36.970
ATOM     17  C   UNL d   1     -12.368   2.370   6.265 -0.23 -0.00    +0.000    36.970
ATOM     18  C   UNL d   1     -12.110   1.989   7.589 -0.23 -0.01    +0.070    36.970
ATOM     19  C   UNL d   1     -12.605   4.764   5.187 -0.16 +0.00    +0.052    36.970
ATOM     20  C   UNL d   1     -11.791   0.190   9.339 -0.22 -0.02    +0.066    36.970
ATOM     21  C   UNL d   1     -11.673  -1.141   9.727 -0.23 +0.01    -0.025    36.970
ATOM     22  C   UNL d   1     -11.406  -1.131  11.078 -0.23 +0.01    -0.021    36.970
ATOM     23  C   UNL d   1     -11.388   0.212  11.468 -0.24 -0.01    +0.066    36.970
ATOM     24  C   UNL d   1     -11.813  -2.362   8.855 -0.19 -0.03    +0.051    36.970
ATOM     25  N   UNL d   1     -11.463   3.035  12.420 -0.08 -0.00    -0.248    36.970
ATOM     26  N   UNL d   1     -11.814   5.085  10.382 -0.04 +0.01    -0.248    36.970
ATOM     27  N   UNL d   1     -12.014   3.072   8.402 -0.16 +0.02    -0.248    36.970
ATOM     28  N   UNL d   1     -11.668   1.009  10.417 -0.17 +0.04    -0.248    36.970
ATOM     29 FE   UNL d   1     -11.741   3.032  10.397 -0.06 -0.00    +0.000    36.970
ATOM     30  O   UNL d   1     -13.011   3.429  11.205 -0.14 -0.00    +0.000    36.970
ATOM     31  O   UNL d   1     -13.149   2.504   9.937 -0.13 -0.00    +0.000    36.970
ATOM     32  C   UNL d   1     -11.047   1.527  15.793 -0.13 +0.01    +0.052    36.970
ATOM     33  C   UNL d   1     -12.164   0.492  15.881 -0.05 +0.01    +0.115    36.970
ATOM     34  C   UNL d   1     -11.637  -0.921  15.937 -0.06 +0.03    +0.139    36.970
ATOM     35  O   UNL d   1     -10.516  -1.130  16.372 -0.40 -0.45    -0.650    36.970
ATOM     36  O   UNL d   1     -12.368  -1.962  15.489 +0.03 -0.05    -0.776    36.970
ATOM     37  H   UNL d   1     -13.250  -1.845  15.117 +0.01 -0.00    +0.167    36.970
ATOM     38  C   UNL d   1     -11.241  -2.348  11.950 -0.09 -0.04    +0.052    36.970
ATOM     39  C   UNL d   1     -12.543  -3.131  12.109 -0.06 -0.05    +0.115    36.970
ATOM     40  C   UNL d   1     -13.748  -2.230  12.214 -0.02 -0.03    +0.139    36.970
ATOM     41  O   UNL d   1     -14.722  -2.434  11.508 +0.02 +0.11    -0.650    36.970
ATOM     42  O   UNL d   1     -13.791  -1.228  13.114 +0.05 +0.08    -0.776    36.970
ATOM     43  H   UNL d   1     -13.113  -1.130  13.793 +0.02 -0.01    +0.167    36.970
ATOM     44  C   UNL d   1     -11.706   8.587   8.957 -0.21 -0.00    +0.004    36.970
ATOM     45  C   UNL d   1     -11.219   8.810   7.737 -0.27 -0.00    +0.012    36.970
ATOM     46  C   UNL d   1     -12.660   1.403   5.149 -0.25 -0.00    +0.004    36.970
ATOM     47  C   UNL d   1     -13.647   0.501   5.070 -0.15 -0.00    +0.012    36.970
TER
ENDMDL
MODEL       16
USER    Run = 16
USER    Cluster Rank = 46
USER    Number of conformations in this cluster = 1
USER  
USER    RMSD from reference structure       = 28.412 A
USER  
USER    Estimated Free Energy of Binding    =   -4.14 kcal/mol  [=(1)+(2)+(3)-(4)]
USER    Estimated Inhibition Constant, Ki   =  920.17 uM (micromolar)  [Temperature = 298.15 K]
USER    
USER    (1) Final Intermolecular Energy     =   -7.13 kcal/mol
USER        vdW + Hbond + desolv Energy     =   -5.92 kcal/mol
USER        Electrostatic Energy            =   -1.20 kcal/mol
USER    (2) Final Total Internal Energy     =   -2.31 kcal/mol
USER    (3) Torsional Free Energy           =   +2.98 kcal/mol
USER    (4) Unbound System's Energy  [=(2)] =   -2.31 kcal/mol
USER    
USER    
USER  
USER    DPF = D:/Protein_go_brrr/autodock/final/mut_N102T/heme_O2/dock.dpf
USER    NEWDPF move	heme_O2_opt.pdbqt
USER    NEWDPF about	8.287000 34.468000 -0.670000
USER    NEWDPF tran0	9.901385 10.844368 -16.225249
USER    NEWDPF axisangle0	-0.038699 -0.421774 0.905875 -140.579107
USER    NEWDPF quaternion0	-0.036432 -0.397062 0.852799 -0.337267
USER    NEWDPF dihe0	152.06 38.53 -29.41 -62.74 -177.48 -50.54 -84.78 135.05 -172.96 -163.71 
USER  
USER                              x       y       z    vdW   Elec        q     RMS 
ATOM      1  C   UNL d   1      11.276   9.961 -17.578 -0.09 +0.01    +0.064    28.412
ATOM      2  C   UNL d   1      10.638   9.499 -12.894 -0.10 -0.01    +0.064    28.412
ATOM      3  C   UNL d   1       7.045  12.689 -12.975 -0.24 -0.02    +0.064    28.412
ATOM      4  C   UNL d   1       7.376  12.816 -17.868 +0.02 -0.04    +0.064    28.412
ATOM      5  C   UNL d   1      11.395   9.574 -16.298 -0.12 +0.01    +0.066    28.412
ATOM      6  C   UNL d   1      12.351   8.662 -15.841 -0.14 -0.00    -0.021    28.412
ATOM      7  C   UNL d   1      12.139   8.494 -14.493 -0.17 +0.00    -0.025    28.412
ATOM      8  C   UNL d   1      11.090   9.345 -14.154 -0.19 -0.00    +0.066    28.412
ATOM      9  C   UNL d   1      12.904   7.534 -13.609 -0.17 -0.01    +0.051    28.412
ATOM     10  C   UNL d   1       9.558  10.392 -12.474 -0.22 -0.02    +0.066    28.412
ATOM     11  C   UNL d   1       9.238  10.635 -11.134 -0.26 +0.01    -0.021    28.412
ATOM     12  C   UNL d   1       8.216  11.567 -11.136 -0.27 -0.00    +0.000    28.412
ATOM     13  C   UNL d   1       7.956  11.836 -12.508 -0.20 -0.02    +0.070    28.412
ATOM     14  C   UNL d   1       9.897  10.026  -9.902 -0.34 -0.02    +0.052    28.412
ATOM     15  C   UNL d   1       6.728  12.964 -14.356 -0.18 -0.03    +0.066    28.412
ATOM     16  C   UNL d   1       5.653  13.744 -14.780 -0.19 +0.01    -0.021    28.412
ATOM     17  C   UNL d   1       5.726  13.794 -16.172 -0.13 -0.00    +0.000    28.412
ATOM     18  C   UNL d   1       6.857  13.031 -16.497 +0.07 -0.05    +0.070    28.412
ATOM     19  C   UNL d   1       4.631  14.321 -13.833 -0.22 -0.02    +0.052    28.412
ATOM     20  C   UNL d   1       8.432  12.055 -18.219 -0.09 -0.02    +0.066    28.412
ATOM     21  C   UNL d   1       8.885  11.905 -19.526 -0.06 +0.00    -0.025    28.412
ATOM     22  C   UNL d   1      10.012  11.117 -19.460 -0.05 -0.00    -0.021    28.412
ATOM     23  C   UNL d   1      10.195  10.799 -18.110 -0.09 +0.01    +0.066    28.412
ATOM     24  C   UNL d   1       8.272  12.481 -20.776 -0.03 -0.00    +0.051    28.412
ATOM     25  N   UNL d   1      10.590   9.961 -15.278 -0.12 -0.00    -0.248    28.412
ATOM     26  N   UNL d   1       8.774  11.113 -13.316 -0.13 +0.06    -0.248    28.412
ATOM     27  N   UNL d   1       7.408  12.474 -15.389 -0.08 +0.14    -0.248    28.412
ATOM     28  N   UNL d   1       9.206  11.335 -17.365 -0.09 +0.03    -0.248    28.412
ATOM     29 FE   UNL d   1       8.989  11.226 -15.355 -0.03 -0.00    +0.000    28.412
ATOM     30  O   UNL d   1       8.608   9.751 -15.038 -0.29 -0.00    +0.000    28.412
ATOM     31  O   UNL d   1       7.700  10.602 -16.003 -0.31 -0.00    +0.000    28.412
ATOM     32  C   UNL d   1      13.338   7.872 -16.661 -0.10 +0.00    +0.052    28.412
ATOM     33  C   UNL d   1      12.781   6.531 -17.128 -0.14 +0.01    +0.115    28.412
ATOM     34  C   UNL d   1      12.154   6.614 -18.498 -0.10 +0.03    +0.139    28.412
ATOM     35  O   UNL d   1      12.595   7.405 -19.316 +0.01 -0.09    -0.650    28.412
ATOM     36  O   UNL d   1      11.093   5.851 -18.833 +0.04 -0.30    -0.776    28.412
ATOM     37  H   UNL d   1      10.452   6.131 -19.497 +0.03 +0.10    +0.167    28.412
ATOM     38  C   UNL d   1      10.825  10.645 -20.637 -0.02 +0.00    +0.052    28.412
ATOM     39  C   UNL d   1      10.015   9.768 -21.590 -0.02 +0.02    +0.115    28.412
ATOM     40  C   UNL d   1       9.210   8.719 -20.864 -0.04 +0.08    +0.139    28.412
ATOM     41  O   UNL d   1       8.049   8.945 -20.566 -0.03 -0.57    -0.650    28.412
ATOM     42  O   UNL d   1       9.736   7.511 -20.580 -0.05 -0.55    -0.776    28.412
ATOM     43  H   UNL d   1      10.644   7.417 -20.268 +0.02 +0.08    +0.167    28.412
ATOM     44  C   UNL d   1       7.602  12.090  -9.854 -0.33 -0.00    +0.004    28.412
ATOM     45  C   UNL d   1       7.124  13.310  -9.614 -0.26 -0.00    +0.012    28.412
ATOM     46  C   UNL d   1       4.816  14.431 -17.188 -0.15 -0.00    +0.004    28.412
ATOM     47  C   UNL d   1       3.574  14.066 -17.531 -0.28 -0.00    +0.012    28.412
TER
ENDMDL
MODEL       81
USER    Run = 81
USER    Cluster Rank = 47
USER    Number of conformations in this cluster = 1
USER  
USER    RMSD from reference structure       = 38.361 A
USER  
USER    Estimated Free Energy of Binding    =   -4.13 kcal/mol  [=(1)+(2)+(3)-(4)]
USER    Estimated Inhibition Constant, Ki   =  938.05 uM (micromolar)  [Temperature = 298.15 K]
USER    
USER    (1) Final Intermolecular Energy     =   -7.11 kcal/mol
USER        vdW + Hbond + desolv Energy     =   -4.94 kcal/mol
USER        Electrostatic Energy            =   -2.17 kcal/mol
USER    (2) Final Total Internal Energy     =   -2.23 kcal/mol
USER    (3) Torsional Free Energy           =   +2.98 kcal/mol
USER    (4) Unbound System's Energy  [=(2)] =   -2.23 kcal/mol
USER    
USER    
USER  
USER    DPF = D:/Protein_go_brrr/autodock/final/mut_N102T/heme_O2/dock.dpf
USER    NEWDPF move	heme_O2_opt.pdbqt
USER    NEWDPF about	8.287000 34.468000 -0.670000
USER    NEWDPF tran0	12.488521 -5.208337 10.049678
USER    NEWDPF axisangle0	-0.415101 -0.573573 -0.706191 140.224525
USER    NEWDPF quaternion0	-0.390345 -0.539366 -0.664074 0.340178
USER    NEWDPF dihe0	-178.29 24.47 -99.46 68.70 163.16 89.40 -77.05 4.82 -146.46 -180.00 
USER  
USER                              x       y       z    vdW   Elec        q     RMS 
ATOM      1  C   UNL d   1      12.629  -7.314  10.267 -0.06 +0.05    +0.064    38.361
ATOM      2  C   UNL d   1      15.450  -4.108   8.188 -0.07 +0.04    +0.064    38.361
ATOM      3  C   UNL d   1      12.421  -0.559   9.339 -0.23 +0.04    +0.064    38.361
ATOM      4  C   UNL d   1       9.747  -3.781  11.896 -0.10 +0.04    +0.064    38.361
ATOM      5  C   UNL d   1      13.644  -6.731   9.609 -0.05 +0.05    +0.066    38.361
ATOM      6  C   UNL d   1      14.734  -7.426   9.077 -0.02 -0.01    -0.021    38.361
ATOM      7  C   UNL d   1      15.573  -6.494   8.513 -0.02 -0.01    -0.025    38.361
ATOM      8  C   UNL d   1      14.949  -5.260   8.673 -0.06 +0.05    +0.066    38.361
ATOM      9  C   UNL d   1      16.915  -6.804   7.886 -0.00 +0.01    +0.051    38.361
ATOM     10  C   UNL d   1      14.830  -2.787   8.304 -0.09 +0.05    +0.066    38.361
ATOM     11  C   UNL d   1      15.309  -1.651   7.642 -0.09 -0.01    -0.021    38.361
ATOM     12  C   UNL d   1      14.439  -0.621   7.947 -0.14 +0.00    +0.000    38.361
ATOM     13  C   UNL d   1      13.463  -1.197   8.807 -0.12 +0.05    +0.070    38.361
ATOM     14  C   UNL d   1      16.530  -1.558   6.735 -0.05 +0.01    +0.052    38.361
ATOM     15  C   UNL d   1      11.431  -1.097  10.241 -0.20 +0.05    +0.066    38.361
ATOM     16  C   UNL d   1      10.460  -0.338  10.893 -0.14 -0.01    -0.021    38.361
ATOM     17  C   UNL d   1       9.686  -1.235  11.629 -0.21 +0.00    +0.000    38.361
ATOM     18  C   UNL d   1      10.250  -2.492  11.366 -0.14 +0.05    +0.070    38.361
ATOM     19  C   UNL d   1      10.392   1.166  10.800 -0.38 +0.02    +0.052    38.361
ATOM     20  C   UNL d   1      10.290  -4.998  11.699 -0.10 +0.05    +0.066    38.361
ATOM     21  C   UNL d   1       9.761  -6.180  12.210 -0.15 -0.01    -0.025    38.361
ATOM     22  C   UNL d   1      10.554  -7.200  11.734 -0.13 -0.01    -0.021    38.361
ATOM     23  C   UNL d   1      11.552  -6.599  10.961 -0.09 +0.05    +0.066    38.361
ATOM     24  C   UNL d   1       8.562  -6.329  13.111 -0.21 +0.01    +0.051    38.361
ATOM     25  N   UNL d   1      13.793  -5.399   9.406 +0.02 -0.31    -0.248    38.361
ATOM     26  N   UNL d   1      13.712  -2.514   9.023 +0.02 -0.31    -0.248    38.361
ATOM     27  N   UNL d   1      11.353  -2.380  10.583 -0.09 -0.29    -0.248    38.361
ATOM     28  N   UNL d   1      11.414  -5.257  10.979 -0.05 -0.30    -0.248    38.361
ATOM     29 FE   UNL d   1      12.553  -3.893  10.009 -0.01 +0.00    +0.000    38.361
ATOM     30  O   UNL d   1      13.935  -3.894  10.725 -0.15 +0.00    +0.000    38.361
ATOM     31  O   UNL d   1      12.631  -3.566  11.546 -0.08 +0.00    +0.000    38.361
ATOM     32  C   UNL d   1      15.047  -8.894   9.212 -0.00 +0.01    +0.052    38.361
ATOM     33  C   UNL d   1      15.287  -9.318  10.658 +0.00 +0.02    +0.115    38.361
ATOM     34  C   UNL d   1      14.083  -9.994  11.266 -0.00 +0.03    +0.139    38.361
ATOM     35  O   UNL d   1      13.160 -10.343  10.548 +0.02 -0.17    -0.650    38.361
ATOM     36  O   UNL d   1      13.989 -10.198  12.596 +0.02 -0.19    -0.776    38.361
ATOM     37  H   UNL d   1      13.237 -10.654  12.991 +0.01 +0.06    +0.167    38.361
ATOM     38  C   UNL d   1      10.394  -8.663  12.060 -0.12 +0.02    +0.052    38.361
ATOM     39  C   UNL d   1      10.942  -9.015  13.441 -0.11 +0.05    +0.115    38.361
ATOM     40  C   UNL d   1      10.863 -10.492  13.733 -0.14 +0.12    +0.139    38.361
ATOM     41  O   UNL d   1      10.307 -10.880  14.747 -0.17 -0.91    -0.650    38.361
ATOM     42  O   UNL d   1      11.352 -11.400  12.866 -0.11 -0.64    -0.776    38.361
ATOM     43  H   UNL d   1      12.075 -11.185  12.264 +0.02 +0.08    +0.167    38.361
ATOM     44  C   UNL d   1      14.626   0.779   7.400 -0.21 +0.00    +0.004    38.361
ATOM     45  C   UNL d   1      14.364   1.219   6.170 -0.29 +0.00    +0.012    38.361
ATOM     46  C   UNL d   1       8.536  -1.006  12.573 -0.27 +0.00    +0.004    38.361
ATOM     47  C   UNL d   1       7.341  -0.462  12.306 -0.40 +0.00    +0.012    38.361
TER
ENDMDL
MODEL       86
USER    Run = 86
USER    Cluster Rank = 48
USER    Number of conformations in this cluster = 1
USER  
USER    RMSD from reference structure       = 34.463 A
USER  
USER    Estimated Free Energy of Binding    =   -4.11 kcal/mol  [=(1)+(2)+(3)-(4)]
USER    Estimated Inhibition Constant, Ki   =  972.24 uM (micromolar)  [Temperature = 298.15 K]
USER    
USER    (1) Final Intermolecular Energy     =   -7.09 kcal/mol
USER        vdW + Hbond + desolv Energy     =   -4.69 kcal/mol
USER        Electrostatic Energy            =   -2.40 kcal/mol
USER    (2) Final Total Internal Energy     =   -2.35 kcal/mol
USER    (3) Torsional Free Energy           =   +2.98 kcal/mol
USER    (4) Unbound System's Energy  [=(2)] =   -2.35 kcal/mol
USER    
USER    
USER  
USER    DPF = D:/Protein_go_brrr/autodock/final/mut_N102T/heme_O2/dock.dpf
USER    NEWDPF move	heme_O2_opt.pdbqt
USER    NEWDPF about	8.287000 34.468000 -0.670000
USER    NEWDPF tran0	15.818095 -1.647615 7.962349
USER    NEWDPF axisangle0	0.557089 -0.364387 -0.746240 143.201570
USER    NEWDPF quaternion0	0.528611 -0.345760 -0.708092 0.315636
USER    NEWDPF dihe0	-146.79 -39.96 121.65 -41.24 75.63 -51.81 -124.80 -147.52 180.00 147.55 
USER  
USER                              x       y       z    vdW   Elec        q     RMS 
ATOM      1  C   UNL d   1      16.206  -2.797   9.703 -0.01 +0.02    +0.064    34.463
ATOM      2  C   UNL d   1      16.171   1.883   8.890 -0.04 +0.01    +0.064    34.463
ATOM      3  C   UNL d   1      15.089   1.165   4.263 -0.28 +0.02    +0.064    34.463
ATOM      4  C   UNL d   1      14.651  -3.632   5.194 -0.12 +0.03    +0.064    34.463
ATOM      5  C   UNL d   1      16.283  -1.465   9.860 -0.01 +0.02    +0.066    34.463
ATOM      6  C   UNL d   1      16.604  -0.837  11.066 +0.00 -0.00    -0.021    34.463
ATOM      7  C   UNL d   1      16.552   0.519  10.843 -0.01 -0.00    -0.025    34.463
ATOM      8  C   UNL d   1      16.248   0.681   9.494 -0.02 +0.01    +0.066    34.463
ATOM      9  C   UNL d   1      16.759   1.580  11.902 -0.01 +0.01    +0.051    34.463
ATOM     10  C   UNL d   1      15.878   2.114   7.475 -0.09 +0.01    +0.066    34.463
ATOM     11  C   UNL d   1      15.973   3.370   6.865 -0.11 -0.00    -0.021    34.463
ATOM     12  C   UNL d   1      15.682   3.181   5.527 -0.20 +0.00    +0.000    34.463
ATOM     13  C   UNL d   1      15.409   1.791   5.396 -0.20 +0.01    +0.070    34.463
ATOM     14  C   UNL d   1      16.351   4.691   7.526 -0.04 +0.01    +0.052    34.463
ATOM     15  C   UNL d   1      14.771  -0.233   4.095 -0.24 +0.02    +0.066    34.463
ATOM     16  C   UNL d   1      14.284  -0.796   2.916 -0.26 -0.00    -0.021    34.463
ATOM     17  C   UNL d   1      14.151  -2.163   3.158 -0.21 +0.00    +0.000    34.463
ATOM     18  C   UNL d   1      14.574  -2.334   4.483 -0.15 +0.02    +0.070    34.463
ATOM     19  C   UNL d   1      13.941   0.020   1.695 -0.29 +0.01    +0.052    34.463
ATOM     20  C   UNL d   1      15.011  -3.826   6.478 -0.09 +0.04    +0.066    34.463
ATOM     21  C   UNL d   1      15.082  -5.075   7.088 -0.08 -0.01    -0.025    34.463
ATOM     22  C   UNL d   1      15.549  -4.859   8.365 -0.05 -0.01    -0.021    34.463
ATOM     23  C   UNL d   1      15.729  -3.478   8.493 -0.05 +0.03    +0.066    34.463
ATOM     24  C   UNL d   1      14.719  -6.407   6.485 -0.07 +0.02    +0.051    34.463
ATOM     25  N   UNL d   1      16.018  -0.541   8.904 -0.01 -0.06    -0.248    34.463
ATOM     26  N   UNL d   1      15.526   1.151   6.586 -0.07 -0.05    -0.248    34.463
ATOM     27  N   UNL d   1      14.875  -1.142   5.060 -0.11 -0.07    -0.248    34.463
ATOM     28  N   UNL d   1      15.358  -2.850   7.359 -0.07 -0.13    -0.248    34.463
ATOM     29 FE   UNL d   1      15.440  -0.865   6.973 -0.02 +0.00    +0.000    34.463
ATOM     30  O   UNL d   1      14.341  -0.204   7.855 -0.18 +0.00    +0.000    34.463
ATOM     31  O   UNL d   1      13.942  -1.315   6.811 -0.22 +0.00    +0.000    34.463
ATOM     32  C   UNL d   1      16.817  -1.478  12.413 +0.00 +0.01    +0.052    34.463
ATOM     33  C   UNL d   1      15.566  -1.452  13.286 +0.01 +0.02    +0.115    34.463
ATOM     34  C   UNL d   1      14.363  -2.032  12.584 +0.00 +0.04    +0.139    34.463
ATOM     35  O   UNL d   1      13.797  -1.382  11.721 +0.03 -0.24    -0.650    34.463
ATOM     36  O   UNL d   1      13.878  -3.248  12.909 +0.02 -0.25    -0.776    34.463
ATOM     37  H   UNL d   1      13.477  -3.831  12.253 +0.01 +0.08    +0.167    34.463
ATOM     38  C   UNL d   1      15.747  -5.918   9.419 -0.02 +0.02    +0.052    34.463
ATOM     39  C   UNL d   1      14.742  -5.796  10.562 -0.03 +0.06    +0.115    34.463
ATOM     40  C   UNL d   1      13.414  -5.245  10.106 +0.06 +0.17    +0.139    34.463
ATOM     41  O   UNL d   1      12.522  -6.009   9.775 +0.05 -1.10    -0.650    34.463
ATOM     42  O   UNL d   1      13.175  -3.919  10.105 -0.32 -1.29    -0.776    34.463
ATOM     43  H   UNL d   1      13.516  -3.344  10.801 +0.01 +0.14    +0.167    34.463
ATOM     44  C   UNL d   1      15.691   4.323   4.533 -0.26 +0.00    +0.004    34.463
ATOM     45  C   UNL d   1      14.913   5.405   4.522 -0.29 +0.00    +0.012    34.463
ATOM     46  C   UNL d   1      13.620  -3.273   2.290 -0.27 +0.00    +0.004    34.463
ATOM     47  C   UNL d   1      12.485  -3.299   1.580 -0.40 -0.00    +0.012    34.463
TER
ENDMDL
MODEL       34
USER    Run = 34
USER    Cluster Rank = 49
USER    Number of conformations in this cluster = 1
USER  
USER    RMSD from reference structure       = 27.566 A
USER  
USER    Estimated Free Energy of Binding    =   -4.10 kcal/mol  [=(1)+(2)+(3)-(4)]
USER    Estimated Inhibition Constant, Ki   =  981.38 uM (micromolar)  [Temperature = 298.15 K]
USER    
USER    (1) Final Intermolecular Energy     =   -7.09 kcal/mol
USER        vdW + Hbond + desolv Energy     =   -4.02 kcal/mol
USER        Electrostatic Energy            =   -3.07 kcal/mol
USER    (2) Final Total Internal Energy     =   -2.12 kcal/mol
USER    (3) Torsional Free Energy           =   +2.98 kcal/mol
USER    (4) Unbound System's Energy  [=(2)] =   -2.12 kcal/mol
USER    
USER    
USER  
USER    DPF = D:/Protein_go_brrr/autodock/final/mut_N102T/heme_O2/dock.dpf
USER    NEWDPF move	heme_O2_opt.pdbqt
USER    NEWDPF about	8.287000 34.468000 -0.670000
USER    NEWDPF tran0	-5.754799 16.025658 -19.912210
USER    NEWDPF axisangle0	-0.454130 -0.314999 -0.833392 -105.751144
USER    NEWDPF quaternion0	-0.362090 -0.251157 -0.664485 -0.603548
USER    NEWDPF dihe0	-44.05 169.84 48.38 136.56 60.64 151.36 -136.29 94.34 172.58 -178.22 
USER  
USER                              x       y       z    vdW   Elec        q     RMS 
ATOM      1  C   UNL d   1      -5.288  16.481 -21.930 -0.07 +0.03    +0.064    27.566
ATOM      2  C   UNL d   1      -7.322  19.006 -18.460 -0.01 +0.01    +0.064    27.566
ATOM      3  C   UNL d   1      -6.982  15.290 -15.432 -0.03 +0.00    +0.064    27.566
ATOM      4  C   UNL d   1      -4.456  12.841 -18.849 -0.16 +0.01    +0.064    27.566
ATOM      5  C   UNL d   1      -5.867  17.472 -21.233 -0.06 +0.03    +0.066    27.566
ATOM      6  C   UNL d   1      -6.170  18.729 -21.763 -0.03 -0.01    -0.021    27.566
ATOM      7  C   UNL d   1      -6.719  19.476 -20.747 -0.01 -0.01    -0.025    27.566
ATOM      8  C   UNL d   1      -6.781  18.638 -19.637 -0.02 +0.02    +0.066    27.566
ATOM      9  C   UNL d   1      -7.126  20.929 -20.863 +0.00 +0.01    +0.051    27.566
ATOM     10  C   UNL d   1      -7.436  18.165 -17.268 -0.01 +0.01    +0.066    27.566
ATOM     11  C   UNL d   1      -8.152  18.541 -16.126 -0.00 -0.00    -0.021    27.566
ATOM     12  C   UNL d   1      -8.081  17.475 -15.248 -0.00 +0.00    +0.000    27.566
ATOM     13  C   UNL d   1      -7.298  16.492 -15.914 -0.01 +0.01    +0.070    27.566
ATOM     14  C   UNL d   1      -8.895  19.851 -15.893 +0.00 +0.00    +0.052    27.566
ATOM     15  C   UNL d   1      -6.164  14.281 -16.059 -0.07 +0.01    +0.066    27.566
ATOM     16  C   UNL d   1      -5.735  13.110 -15.435 -0.14 -0.00    -0.021    27.566
ATOM     17  C   UNL d   1      -5.011  12.396 -16.390 -0.29 +0.00    +0.000    27.566
ATOM     18  C   UNL d   1      -5.056  13.195 -17.541 -0.20 +0.01    +0.070    27.566
ATOM     19  C   UNL d   1      -6.003  12.807 -13.982 -0.11 -0.00    +0.052    27.566
ATOM     20  C   UNL d   1      -4.443  13.602 -19.961 -0.13 +0.02    +0.066    27.566
ATOM     21  C   UNL d   1      -3.877  13.207 -21.170 -0.16 -0.01    -0.025    27.566
ATOM     22  C   UNL d   1      -4.129  14.221 -22.067 -0.11 -0.01    -0.021    27.566
ATOM     23  C   UNL d   1      -4.826  15.208 -21.365 -0.10 +0.03    +0.066    27.566
ATOM     24  C   UNL d   1      -3.131  11.929 -21.454 -0.21 +0.01    +0.051    27.566
ATOM     25  N   UNL d   1      -6.196  17.425 -19.919 -0.04 -0.10    -0.248    27.566
ATOM     26  N   UNL d   1      -6.906  16.922 -17.141 -0.01 -0.04    -0.248    27.566
ATOM     27  N   UNL d   1      -5.695  14.368 -17.301 -0.07 -0.04    -0.248    27.566
ATOM     28  N   UNL d   1      -4.975  14.848 -20.073 -0.10 -0.11    -0.248    27.566
ATOM     29 FE   UNL d   1      -5.933  15.875 -18.616 -0.02 +0.00    +0.000    27.566
ATOM     30  O   UNL d   1      -5.046  17.116 -18.304 -0.13 +0.00    +0.000    27.566
ATOM     31  O   UNL d   1      -4.446  15.667 -18.148 -0.03 +0.00    +0.000    27.566
ATOM     32  C   UNL d   1      -5.832  19.259 -23.133 -0.01 +0.02    +0.052    27.566
ATOM     33  C   UNL d   1      -4.660  20.236 -23.118 -0.02 +0.05    +0.115    27.566
ATOM     34  C   UNL d   1      -3.548  19.786 -22.204 +0.01 +0.15    +0.139    27.566
ATOM     35  O   UNL d   1      -3.548  20.136 -21.034 -0.34 -0.93    -0.650    27.566
ATOM     36  O   UNL d   1      -2.530  19.024 -22.657 +0.04 -1.28    -0.776    27.566
ATOM     37  H   UNL d   1      -2.677  18.272 -23.241 -0.00 +0.21    +0.167    27.566
ATOM     38  C   UNL d   1      -3.666  14.260 -23.501 -0.06 +0.02    +0.052    27.566
ATOM     39  C   UNL d   1      -2.183  14.605 -23.624 -0.08 +0.05    +0.115    27.566
ATOM     40  C   UNL d   1      -1.939  16.093 -23.660 -0.08 +0.10    +0.139    27.566
ATOM     41  O   UNL d   1      -2.373  16.756 -24.588 -0.02 -0.32    -0.650    27.566
ATOM     42  O   UNL d   1      -1.291  16.716 -22.657 -0.22 -1.38    -0.776    27.566
ATOM     43  H   UNL d   1      -1.038  17.645 -22.719 +0.00 +0.35    +0.167    27.566
ATOM     44  C   UNL d   1      -8.751  17.506 -13.890 +0.00 +0.00    +0.004    27.566
ATOM     45  C   UNL d   1      -8.251  17.107 -12.721 +0.00 +0.00    +0.012    27.566
ATOM     46  C   UNL d   1      -4.259  11.096 -16.291 -0.46 -0.00    +0.004    27.566
ATOM     47  C   UNL d   1      -4.343  10.027 -17.094 -0.43 -0.00    +0.012    27.566
TER
ENDMDL
MODEL       84
USER    Run = 84
USER    Cluster Rank = 50
USER    Number of conformations in this cluster = 1
USER  
USER    RMSD from reference structure       = 25.275 A
USER  
USER    Estimated Free Energy of Binding    =   -4.10 kcal/mol  [=(1)+(2)+(3)-(4)]
USER    Estimated Inhibition Constant, Ki   =  984.95 uM (micromolar)  [Temperature = 298.15 K]
USER    
USER    (1) Final Intermolecular Energy     =   -7.08 kcal/mol
USER        vdW + Hbond + desolv Energy     =   -7.10 kcal/mol
USER        Electrostatic Energy            =   +0.02 kcal/mol
USER    (2) Final Total Internal Energy     =   -2.27 kcal/mol
USER    (3) Torsional Free Energy           =   +2.98 kcal/mol
USER    (4) Unbound System's Energy  [=(2)] =   -2.27 kcal/mol
USER    
USER    
USER  
USER    DPF = D:/Protein_go_brrr/autodock/final/mut_N102T/heme_O2/dock.dpf
USER    NEWDPF move	heme_O2_opt.pdbqt
USER    NEWDPF about	8.287000 34.468000 -0.670000
USER    NEWDPF tran0	-3.974127 14.044726 -12.986943
USER    NEWDPF axisangle0	-0.525824 0.780705 0.337652 155.816980
USER    NEWDPF quaternion0	-0.514158 0.763385 0.330161 0.209474
USER    NEWDPF dihe0	-23.55 -126.88 -93.02 -126.27 62.49 -179.94 -142.06 81.06 177.58 179.89 
USER  
USER                              x       y       z    vdW   Elec        q     RMS 
ATOM      1  C   UNL d   1      -3.119  15.693 -11.962 -0.11 +0.00    +0.064    25.275
ATOM      2  C   UNL d   1      -4.250  14.987 -16.520 -0.10 +0.02    +0.064    25.275
ATOM      3  C   UNL d   1      -5.779  10.536 -15.548 -0.33 -0.01    +0.064    25.275
ATOM      4  C   UNL d   1      -5.064  11.421 -10.776 -0.07 -0.00    +0.064    25.275
ATOM      5  C   UNL d   1      -3.303  15.865 -13.281 -0.11 +0.01    +0.066    25.275
ATOM      6  C   UNL d   1      -2.960  17.029 -13.974 -0.08 -0.00    -0.021    25.275
ATOM      7  C   UNL d   1      -3.327  16.842 -15.286 -0.13 -0.01    -0.025    25.275
ATOM      8  C   UNL d   1      -3.840  15.551 -15.367 -0.17 +0.01    +0.066    25.275
ATOM      9  C   UNL d   1      -3.205  17.885 -16.376 -0.08 +0.03    +0.051    25.275
ATOM     10  C   UNL d   1      -4.776  13.630 -16.672 -0.19 +0.01    +0.066    25.275
ATOM     11  C   UNL d   1      -5.033  13.039 -17.914 -0.22 -0.00    -0.021    25.275
ATOM     12  C   UNL d   1      -5.458  11.748 -17.655 -0.26 +0.00    +0.000    25.275
ATOM     13  C   UNL d   1      -5.447  11.627 -16.238 -0.26 -0.00    +0.070    25.275
ATOM     14  C   UNL d   1      -4.855  13.669 -19.290 -0.16 +0.01    +0.052    25.275
ATOM     15  C   UNL d   1      -5.815  10.384 -14.113 -0.23 -0.01    +0.066    25.275
ATOM     16  C   UNL d   1      -6.329   9.271 -13.449 -0.34 +0.01    -0.021    25.275
ATOM     17  C   UNL d   1      -6.136   9.501 -12.087 -0.32 -0.00    +0.000    25.275
ATOM     18  C   UNL d   1      -5.510  10.753 -12.021 -0.22 -0.01    +0.070    25.275
ATOM     19  C   UNL d   1      -7.000   8.124 -14.163 -0.42 -0.02    +0.052    25.275
ATOM     20  C   UNL d   1      -4.499  12.640 -10.674 -0.19 -0.01    +0.066    25.275
ATOM     21  C   UNL d   1      -4.084  13.209  -9.474 -0.22 +0.00    -0.025    25.275
ATOM     22  C   UNL d   1      -3.502  14.415  -9.795 -0.24 +0.00    -0.021    25.275
ATOM     23  C   UNL d   1      -3.601  14.546 -11.184 -0.17 -0.00    +0.066    25.275
ATOM     24  C   UNL d   1      -4.237  12.634  -8.090 -0.32 -0.00    +0.051    25.275
ATOM     25  N   UNL d   1      -3.886  14.973 -14.120 -0.11 -0.02    -0.248    25.275
ATOM     26  N   UNL d   1      -5.035  12.778 -15.648 -0.15 +0.00    -0.248    25.275
ATOM     27  N   UNL d   1      -5.391  11.307 -13.255 -0.13 +0.04    -0.248    25.275
ATOM     28  N   UNL d   1      -4.248  13.485 -11.709 -0.12 +0.02    -0.248    25.275
ATOM     29 FE   UNL d   1      -4.640  13.131 -13.663 -0.04 -0.00    +0.000    25.275
ATOM     30  O   UNL d   1      -5.723  14.168 -14.084 -0.09 +0.00    +0.000    25.275
ATOM     31  O   UNL d   1      -6.017  13.165 -12.904 -0.09 -0.00    +0.000    25.275
ATOM     32  C   UNL d   1      -2.434  18.321 -13.404 -0.03 +0.01    +0.052    25.275
ATOM     33  C   UNL d   1      -3.522  19.377 -13.227 -0.01 +0.01    +0.115    25.275
ATOM     34  C   UNL d   1      -4.844  18.777 -12.816 -0.00 +0.01    +0.139    25.275
ATOM     35  O   UNL d   1      -5.630  18.405 -13.673 +0.01 -0.05    -0.650    25.275
ATOM     36  O   UNL d   1      -5.192  18.667 -11.518 +0.01 -0.02    -0.776    25.275
ATOM     37  H   UNL d   1      -4.535  18.645 -10.812 +0.01 +0.00    +0.167    25.275
ATOM     38  C   UNL d   1      -2.943  15.411  -8.812 -0.20 +0.00    +0.052    25.275
ATOM     39  C   UNL d   1      -4.035  16.234  -8.132 -0.10 +0.01    +0.115    25.275
ATOM     40  C   UNL d   1      -4.192  17.602  -8.746 -0.04 +0.00    +0.139    25.275
ATOM     41  O   UNL d   1      -3.210  18.197  -9.161 +0.02 +0.00    -0.650    25.275
ATOM     42  O   UNL d   1      -5.407  18.164  -8.893 +0.02 -0.00    -0.776    25.275
ATOM     43  H   UNL d   1      -5.724  18.464  -9.753 +0.00 +0.00    +0.167    25.275
ATOM     44  C   UNL d   1      -5.826  10.786 -18.765 -0.29 +0.00    +0.004    25.275
ATOM     45  C   UNL d   1      -5.009  10.028 -19.495 -0.28 +0.00    +0.012    25.275
ATOM     46  C   UNL d   1      -6.534   8.691 -10.882 -0.25 -0.00    +0.004    25.275
ATOM     47  C   UNL d   1      -7.130   9.113  -9.759 -0.26 -0.00    +0.012    25.275
TER
ENDMDL
MODEL       70
USER    Run = 70
USER    Cluster Rank = 51
USER    Number of conformations in this cluster = 1
USER  
USER    RMSD from reference structure       = 31.069 A
USER  
USER    Estimated Free Energy of Binding    =   -3.96 kcal/mol  [=(1)+(2)+(3)-(4)]
USER    Estimated Inhibition Constant, Ki   =    1.25 mM (millimolar)  [Temperature = 298.15 K]
USER    
USER    (1) Final Intermolecular Energy     =   -6.94 kcal/mol
USER        vdW + Hbond + desolv Energy     =   -7.07 kcal/mol
USER        Electrostatic Energy            =   +0.13 kcal/mol
USER    (2) Final Total Internal Energy     =   -2.22 kcal/mol
USER    (3) Torsional Free Energy           =   +2.98 kcal/mol
USER    (4) Unbound System's Energy  [=(2)] =   -2.22 kcal/mol
USER    
USER    
USER  
USER    DPF = D:/Protein_go_brrr/autodock/final/mut_N102T/heme_O2/dock.dpf
USER    NEWDPF move	heme_O2_opt.pdbqt
USER    NEWDPF about	8.287000 34.468000 -0.670000
USER    NEWDPF tran0	-11.193919 8.344906 9.706303
USER    NEWDPF axisangle0	-0.268778 0.421149 -0.866251 -111.961894
USER    NEWDPF quaternion0	-0.222777 0.349070 -0.717994 -0.559469
USER    NEWDPF dihe0	139.27 -55.91 56.63 -92.70 176.42 -28.17 -60.73 2.35 -141.20 28.17 
USER  
USER                              x       y       z    vdW   Elec        q     RMS 
ATOM      1  C   UNL d   1     -10.859  10.261   8.861 -0.17 -0.01    +0.064    31.069
ATOM      2  C   UNL d   1     -10.314   8.556  13.260 -0.20 +0.00    +0.064    31.069
ATOM      3  C   UNL d   1     -11.912   4.238  11.883 -0.15 -0.00    +0.064    31.069
ATOM      4  C   UNL d   1     -12.024   5.847   7.250 -0.16 -0.00    +0.064    31.069
ATOM      5  C   UNL d   1     -10.578  10.149  10.170 -0.18 -0.01    +0.066    31.069
ATOM      6  C   UNL d   1     -10.107  11.200  10.962 -0.12 +0.00    -0.021    31.069
ATOM      7  C   UNL d   1      -9.908  10.696  12.226 -0.08 +0.00    -0.025    31.069
ATOM      8  C   UNL d   1     -10.309   9.364  12.183 -0.12 +0.00    +0.066    31.069
ATOM      9  C   UNL d   1      -9.330  11.475  13.387 -0.09 -0.00    +0.051    31.069
ATOM     10  C   UNL d   1     -10.745   7.157  13.282 -0.22 +0.00    +0.066    31.069
ATOM     11  C   UNL d   1     -10.886   6.413  14.458 -0.16 -0.00    -0.021    31.069
ATOM     12  C   UNL d   1     -11.363   5.170  14.084 -0.16 +0.00    +0.000    31.069
ATOM     13  C   UNL d   1     -11.477   5.224  12.667 -0.08 +0.00    +0.070    31.069
ATOM     14  C   UNL d   1     -10.603   6.877  15.882 -0.10 +0.00    +0.052    31.069
ATOM     15  C   UNL d   1     -12.010   4.240  10.443 -0.09 -0.00    +0.066    31.069
ATOM     16  C   UNL d   1     -12.316   3.121   9.670 -0.18 +0.00    -0.021    31.069
ATOM     17  C   UNL d   1     -12.353   3.556   8.345 -0.22 -0.00    +0.000    31.069
ATOM     18  C   UNL d   1     -12.064   4.926   8.411 -0.22 -0.00    +0.070    31.069
ATOM     19  C   UNL d   1     -12.490   1.741  10.252 -0.20 -0.01    +0.052    31.069
ATOM     20  C   UNL d   1     -11.708   7.156   7.273 -0.17 -0.00    +0.066    31.069
ATOM     21  C   UNL d   1     -11.705   7.978   6.149 -0.21 +0.00    -0.025    31.069
ATOM     22  C   UNL d   1     -11.402   9.245   6.593 -0.21 +0.00    -0.021    31.069
ATOM     23  C   UNL d   1     -11.213   9.146   7.975 -0.20 -0.01    +0.066    31.069
ATOM     24  C   UNL d   1     -11.974   7.573   4.722 -0.15 +0.00    +0.051    31.069
ATOM     25  N   UNL d   1     -10.660   9.010  10.900 -0.14 +0.00    -0.248    31.069
ATOM     26  N   UNL d   1     -11.095   6.435  12.187 -0.14 -0.01    -0.248    31.069
ATOM     27  N   UNL d   1     -11.785   5.308   9.683 -0.12 +0.01    -0.248    31.069
ATOM     28  N   UNL d   1     -11.356   7.867   8.377 -0.17 +0.03    -0.248    31.069
ATOM     29 FE   UNL d   1     -11.227   7.153  10.267 -0.05 -0.00    +0.000    31.069
ATOM     30  O   UNL d   1      -9.726   7.250  10.667 -0.59 +0.00    +0.000    31.069
ATOM     31  O   UNL d   1     -10.146   6.404   9.405 -0.49 +0.00    +0.000    31.069
ATOM     32  C   UNL d   1      -9.725  12.589  10.521 -0.13 -0.00    +0.052    31.069
ATOM     33  C   UNL d   1      -8.642  12.593   9.446 -0.23 -0.02    +0.115    31.069
ATOM     34  C   UNL d   1      -9.124  13.189   8.147 -0.17 -0.02    +0.139    31.069
ATOM     35  O   UNL d   1     -10.042  13.993   8.155 +0.02 +0.06    -0.650    31.069
ATOM     36  O   UNL d   1      -8.580  12.832   6.965 -0.02 +0.11    -0.776    31.069
ATOM     37  H   UNL d   1      -9.117  12.695   6.176 +0.04 -0.02    +0.167    31.069
ATOM     38  C   UNL d   1     -11.240  10.465   5.724 -0.18 -0.01    +0.052    31.069
ATOM     39  C   UNL d   1     -12.051  11.655   6.234 -0.06 -0.01    +0.115    31.069
ATOM     40  C   UNL d   1     -11.913  12.868   5.349 -0.03 -0.01    +0.139    31.069
ATOM     41  O   UNL d   1     -12.891  13.308   4.767 +0.01 +0.02    -0.650    31.069
ATOM     42  O   UNL d   1     -10.735  13.511   5.228 +0.03 +0.04    -0.776    31.069
ATOM     43  H   UNL d   1     -10.246  13.818   6.000 +0.02 -0.01    +0.167    31.069
ATOM     44  C   UNL d   1     -11.650   4.081  15.096 -0.13 +0.00    +0.004    31.069
ATOM     45  C   UNL d   1     -11.211   2.823  15.092 -0.16 +0.00    +0.012    31.069
ATOM     46  C   UNL d   1     -12.572   2.799   7.062 -0.22 -0.00    +0.004    31.069
ATOM     47  C   UNL d   1     -11.655   2.367   6.187 -0.35 -0.00    +0.012    31.069
TER
ENDMDL
MODEL       37
USER    Run = 37
USER    Cluster Rank = 52
USER    Number of conformations in this cluster = 1
USER  
USER    RMSD from reference structure       = 53.224 A
USER  
USER    Estimated Free Energy of Binding    =   -3.94 kcal/mol  [=(1)+(2)+(3)-(4)]
USER    Estimated Inhibition Constant, Ki   =    1.30 mM (millimolar)  [Temperature = 298.15 K]
USER    
USER    (1) Final Intermolecular Energy     =   -6.92 kcal/mol
USER        vdW + Hbond + desolv Energy     =   -3.70 kcal/mol
USER        Electrostatic Energy            =   -3.22 kcal/mol
USER    (2) Final Total Internal Energy     =   -1.99 kcal/mol
USER    (3) Torsional Free Energy           =   +2.98 kcal/mol
USER    (4) Unbound System's Energy  [=(2)] =   -1.99 kcal/mol
USER    
USER    
USER  
USER    DPF = D:/Protein_go_brrr/autodock/final/mut_N102T/heme_O2/dock.dpf
USER    NEWDPF move	heme_O2_opt.pdbqt
USER    NEWDPF about	8.287000 34.468000 -0.670000
USER    NEWDPF tran0	-7.422666 -16.965140 -10.616677
USER    NEWDPF axisangle0	0.756957 -0.219979 -0.615325 -162.395061
USER    NEWDPF quaternion0	0.748042 -0.217388 -0.608077 -0.153028
USER    NEWDPF dihe0	133.35 -51.64 -45.33 124.93 -47.83 -179.99 65.22 -3.13 -39.19 140.20 
USER  
USER                              x       y       z    vdW   Elec        q     RMS 
ATOM      1  C   UNL d   1      -7.036 -16.554  -8.572 -0.18 +0.07    +0.064    53.224
ATOM      2  C   UNL d   1     -10.080 -14.682 -11.700 -0.08 +0.01    +0.064    53.224
ATOM      3  C   UNL d   1      -8.453 -17.589 -15.164 -0.11 +0.00    +0.064    53.224
ATOM      4  C   UNL d   1      -5.649 -19.852 -11.834 -0.12 +0.01    +0.064    53.224
ATOM      5  C   UNL d   1      -7.998 -15.809  -9.140 -0.17 +0.04    +0.066    53.224
ATOM      6  C   UNL d   1      -8.714 -14.812  -8.470 -0.11 -0.01    -0.021    53.224
ATOM      7  C   UNL d   1      -9.625 -14.299  -9.363 -0.07 -0.01    -0.025    53.224
ATOM      8  C   UNL d   1      -9.408 -14.963 -10.567 -0.09 +0.02    +0.066    53.224
ATOM      9  C   UNL d   1     -10.660 -13.245  -9.034 -0.02 +0.01    +0.051    53.224
ATOM     10  C   UNL d   1      -9.881 -15.328 -12.998 -0.11 +0.01    +0.066    53.224
ATOM     11  C   UNL d   1     -10.489 -14.887 -14.179 -0.08 -0.00    -0.021    53.224
ATOM     12  C   UNL d   1     -10.018 -15.702 -15.192 -0.08 +0.00    +0.000    53.224
ATOM     13  C   UNL d   1      -9.140 -16.622 -14.556 -0.11 +0.00    +0.070    53.224
ATOM     14  C   UNL d   1     -11.456 -13.720 -14.338 -0.03 +0.00    +0.052    53.224
ATOM     15  C   UNL d   1      -7.581 -18.563 -14.551 -0.09 +0.00    +0.066    53.224
ATOM     16  C   UNL d   1      -7.020 -19.652 -15.218 -0.05 -0.00    -0.021    53.224
ATOM     17  C   UNL d   1      -6.217 -20.312 -14.288 -0.06 +0.00    +0.000    53.224
ATOM     18  C   UNL d   1      -6.349 -19.565 -13.109 -0.10 +0.01    +0.070    53.224
ATOM     19  C   UNL d   1      -7.341 -19.992 -16.651 -0.01 +0.00    +0.052    53.224
ATOM     20  C   UNL d   1      -5.785 -19.182 -10.673 -0.16 +0.02    +0.066    53.224
ATOM     21  C   UNL d   1      -5.085 -19.488  -9.509 -0.14 -0.01    -0.025    53.224
ATOM     22  C   UNL d   1      -5.447 -18.542  -8.577 -0.16 -0.02    -0.021    53.224
ATOM     23  C   UNL d   1      -6.373 -17.701  -9.204 -0.19 +0.05    +0.066    53.224
ATOM     24  C   UNL d   1      -4.122 -20.627  -9.297 -0.09 +0.02    +0.051    53.224
ATOM     25  N   UNL d   1      -8.451 -15.939 -10.411 -0.05 -0.10    -0.248    53.224
ATOM     26  N   UNL d   1      -9.066 -16.391 -13.220 -0.06 -0.02    -0.248    53.224
ATOM     27  N   UNL d   1      -7.238 -18.552 -13.266 -0.08 -0.03    -0.248    53.224
ATOM     28  N   UNL d   1      -6.609 -18.121 -10.463 -0.12 -0.12    -0.248    53.224
ATOM     29 FE   UNL d   1      -7.828 -17.264 -11.834 -0.04 +0.00    +0.000    53.224
ATOM     30  O   UNL d   1      -9.282 -17.512 -11.337 -0.13 +0.00    +0.000    53.224
ATOM     31  O   UNL d   1      -8.331 -18.738 -11.611 -0.12 +0.00    +0.000    53.224
ATOM     32  C   UNL d   1      -8.642 -14.447  -7.010 -0.08 +0.03    +0.052    53.224
ATOM     33  C   UNL d   1      -7.210 -14.364  -6.490 -0.07 +0.14    +0.115    53.224
ATOM     34  C   UNL d   1      -6.928 -15.385  -5.416 -0.07 +0.18    +0.139    53.224
ATOM     35  O   UNL d   1      -5.773 -15.677  -5.149 +0.05 -1.25    -0.650    53.224
ATOM     36  O   UNL d   1      -7.928 -16.008  -4.758 +0.06 -0.60    -0.776    53.224
ATOM     37  H   UNL d   1      -7.928 -16.962  -4.614 +0.02 +0.13    +0.167    53.224
ATOM     38  C   UNL d   1      -4.976 -18.493  -7.147 -0.15 +0.06    +0.052    53.224
ATOM     39  C   UNL d   1      -6.124 -18.644  -6.150 -0.08 +0.11    +0.115    53.224
ATOM     40  C   UNL d   1      -5.643 -18.699  -4.722 -0.06 +0.19    +0.139    53.224
ATOM     41  O   UNL d   1      -4.587 -19.252  -4.458 -0.34 -1.01    -0.650    53.224
ATOM     42  O   UNL d   1      -6.334 -18.102  -3.732 +0.14 -1.41    -0.776    53.224
ATOM     43  H   UNL d   1      -6.639 -17.190  -3.808 +0.02 +0.26    +0.167    53.224
ATOM     44  C   UNL d   1     -10.449 -15.523 -16.633 -0.03 +0.00    +0.004    53.224
ATOM     45  C   UNL d   1      -9.676 -15.445 -17.715 -0.03 +0.00    +0.012    53.224
ATOM     46  C   UNL d   1      -5.411 -21.578 -14.401 -0.03 +0.00    +0.004    53.224
ATOM     47  C   UNL d   1      -4.086 -21.731 -14.273 -0.04 +0.00    +0.012    53.224
TER
ENDMDL
MODEL        5
USER    Run = 5
USER    Cluster Rank = 53
USER    Number of conformations in this cluster = 1
USER  
USER    RMSD from reference structure       = 28.806 A
USER  
USER    Estimated Free Energy of Binding    =   -3.90 kcal/mol  [=(1)+(2)+(3)-(4)]
USER    Estimated Inhibition Constant, Ki   =    1.38 mM (millimolar)  [Temperature = 298.15 K]
USER    
USER    (1) Final Intermolecular Energy     =   -6.88 kcal/mol
USER        vdW + Hbond + desolv Energy     =   -6.83 kcal/mol
USER        Electrostatic Energy            =   -0.06 kcal/mol
USER    (2) Final Total Internal Energy     =   -2.51 kcal/mol
USER    (3) Torsional Free Energy           =   +2.98 kcal/mol
USER    (4) Unbound System's Energy  [=(2)] =   -2.51 kcal/mol
USER    
USER    
USER  
USER    DPF = D:/Protein_go_brrr/autodock/final/mut_N102T/heme_O2/dock.dpf
USER    NEWDPF move	heme_O2_opt.pdbqt
USER    NEWDPF about	8.287000 34.468000 -0.670000
USER    NEWDPF tran0	-7.412493 10.235654 -12.496515
USER    NEWDPF axisangle0	-0.683192 -0.025508 -0.729793 178.550789
USER    NEWDPF quaternion0	-0.683137 -0.025506 -0.729735 0.012646
USER    NEWDPF dihe0	176.76 -137.53 14.04 -106.89 31.82 86.70 89.02 -76.81 12.37 -26.95 
USER  
USER                              x       y       z    vdW   Elec        q     RMS 
ATOM      1  C   UNL d   1      -8.077   9.519 -14.379 -0.21 -0.01    +0.064    28.806
ATOM      2  C   UNL d   1      -4.501  12.378 -13.115 -0.24 -0.01    +0.064    28.806
ATOM      3  C   UNL d   1      -5.752  12.048  -8.486 -0.17 -0.00    +0.064    28.806
ATOM      4  C   UNL d   1      -9.142   8.725  -9.724 -0.11 -0.00    +0.064    28.806
ATOM      5  C   UNL d   1      -7.001  10.322 -14.413 -0.19 -0.01    +0.066    28.806
ATOM      6  C   UNL d   1      -6.339  10.696 -15.586 -0.26 +0.00    -0.021    28.806
ATOM      7  C   UNL d   1      -5.278  11.488 -15.218 -0.29 +0.00    -0.025    28.806
ATOM      8  C   UNL d   1      -5.349  11.617 -13.833 -0.21 -0.01    +0.066    28.806
ATOM      9  C   UNL d   1      -4.247  12.053 -16.171 -0.28 -0.00    +0.051    28.806
ATOM     10  C   UNL d   1      -4.540  12.570 -11.664 -0.21 -0.01    +0.066    28.806
ATOM     11  C   UNL d   1      -3.739  13.498 -10.989 -0.24 +0.00    -0.021    28.806
ATOM     12  C   UNL d   1      -4.098  13.431  -9.656 -0.24 -0.00    +0.000    28.806
ATOM     13  C   UNL d   1      -5.111  12.434  -9.590 -0.16 -0.00    +0.070    28.806
ATOM     14  C   UNL d   1      -2.696  14.430 -11.595 -0.22 -0.00    +0.052    28.806
ATOM     15  C   UNL d   1      -6.757  11.019  -8.372 -0.11 -0.00    +0.066    28.806
ATOM     16  C   UNL d   1      -7.272  10.548  -7.164 -0.13 +0.00    -0.021    28.806
ATOM     17  C   UNL d   1      -8.240   9.599  -7.492 -0.11 -0.00    +0.000    28.806
ATOM     18  C   UNL d   1      -8.244   9.563  -8.894 -0.11 -0.00    +0.070    28.806
ATOM     19  C   UNL d   1      -6.761  11.000  -5.820 -0.15 +0.00    +0.052    28.806
ATOM     20  C   UNL d   1      -9.143   8.635 -11.068 -0.10 -0.01    +0.066    28.806
ATOM     21  C   UNL d   1     -10.025   7.840 -11.796 -0.05 +0.00    -0.025    28.806
ATOM     22  C   UNL d   1      -9.754   8.075 -13.125 -0.16 +0.00    -0.021    28.806
ATOM     23  C   UNL d   1      -8.700   8.993 -13.159 -0.15 -0.01    +0.066    28.806
ATOM     24  C   UNL d   1     -11.070   6.902 -11.250 -0.10 -0.00    +0.051    28.806
ATOM     25  N   UNL d   1      -6.372  10.845 -13.332 -0.08 +0.03    -0.248    28.806
ATOM     26  N   UNL d   1      -5.370  11.912 -10.815 -0.10 +0.02    -0.248    28.806
ATOM     27  N   UNL d   1      -7.287  10.376  -9.408 -0.06 +0.01    -0.248    28.806
ATOM     28  N   UNL d   1      -8.302   9.297 -11.906 -0.09 +0.04    -0.248    28.806
ATOM     29 FE   UNL d   1      -6.847  10.594 -11.362 -0.03 -0.00    +0.000    28.806
ATOM     30  O   UNL d   1      -5.499   9.933 -11.772 -0.36 -0.00    +0.000    28.806
ATOM     31  O   UNL d   1      -6.466   9.185 -10.777 -0.33 -0.00    +0.000    28.806
ATOM     32  C   UNL d   1      -6.608  10.217 -16.989 -0.25 +0.00    +0.052    28.806
ATOM     33  C   UNL d   1      -7.508  11.164 -17.776 -0.13 +0.01    +0.115    28.806
ATOM     34  C   UNL d   1      -8.964  10.783 -17.685 -0.09 +0.01    +0.139    28.806
ATOM     35  O   UNL d   1      -9.578  10.496 -18.700 -0.01 -0.05    -0.650    28.806
ATOM     36  O   UNL d   1      -9.617  10.778 -16.504 +0.01 -0.03    -0.776    28.806
ATOM     37  H   UNL d   1     -10.558  10.577 -16.441 +0.02 +0.01    +0.167    28.806
ATOM     38  C   UNL d   1     -10.430   7.401 -14.291 -0.20 -0.00    +0.052    28.806
ATOM     39  C   UNL d   1     -11.841   7.932 -14.532 -0.08 +0.00    +0.115    28.806
ATOM     40  C   UNL d   1     -11.903   8.901 -15.687 -0.07 +0.00    +0.139    28.806
ATOM     41  O   UNL d   1     -12.432   9.990 -15.536 +0.01 -0.01    -0.650    28.806
ATOM     42  O   UNL d   1     -11.338   8.605 -16.873 +0.01 -0.05    -0.776    28.806
ATOM     43  H   UNL d   1     -10.801   9.249 -17.350 +0.02 +0.01    +0.167    28.806
ATOM     44  C   UNL d   1      -3.448  14.304  -8.603 -0.27 +0.00    +0.004    28.806
ATOM     45  C   UNL d   1      -3.569  14.219  -7.279 -0.27 +0.00    +0.012    28.806
ATOM     46  C   UNL d   1      -9.089   8.712  -6.621 -0.11 -0.00    +0.004    28.806
ATOM     47  C   UNL d   1      -9.056   7.377  -6.516 -0.16 -0.00    +0.012    28.806
TER
ENDMDL
MODEL       26
USER    Run = 26
USER    Cluster Rank = 54
USER    Number of conformations in this cluster = 5
USER  
USER    RMSD from reference structure       = 34.404 A
USER  
USER    Estimated Free Energy of Binding    =   -3.88 kcal/mol  [=(1)+(2)+(3)-(4)]
USER    Estimated Inhibition Constant, Ki   =    1.44 mM (millimolar)  [Temperature = 298.15 K]
USER    
USER    (1) Final Intermolecular Energy     =   -6.86 kcal/mol
USER        vdW + Hbond + desolv Energy     =   -6.89 kcal/mol
USER        Electrostatic Energy            =   +0.04 kcal/mol
USER    (2) Final Total Internal Energy     =   -2.38 kcal/mol
USER    (3) Torsional Free Energy           =   +2.98 kcal/mol
USER    (4) Unbound System's Energy  [=(2)] =   -2.38 kcal/mol
USER    
USER    
USER  
USER    DPF = D:/Protein_go_brrr/autodock/final/mut_N102T/heme_O2/dock.dpf
USER    NEWDPF move	heme_O2_opt.pdbqt
USER    NEWDPF about	8.287000 34.468000 -0.670000
USER    NEWDPF tran0	-11.081965 5.473108 11.329817
USER    NEWDPF axisangle0	-0.579899 0.786031 0.214176 139.789935
USER    NEWDPF quaternion0	-0.544563 0.738134 0.201125 0.343742
USER    NEWDPF dihe0	125.24 -6.99 42.33 119.88 171.42 -18.84 -87.64 144.43 -167.03 -162.75 
USER  
USER                              x       y       z    vdW   Elec        q     RMS 
ATOM      1  C   UNL d   1     -10.582   7.493  11.741 -0.29 +0.00    +0.064    34.404
ATOM      2  C   UNL d   1     -11.661   5.210   7.718 -0.09 +0.00    +0.064    34.404
ATOM      3  C   UNL d   1     -12.140   1.060  10.094 -0.23 -0.01    +0.064    34.404
ATOM      4  C   UNL d   1     -11.501   3.491  14.306 -0.13 +0.01    +0.064    34.404
ATOM      5  C   UNL d   1     -10.838   7.211  10.453 -0.30 +0.00    +0.066    34.404
ATOM      6  C   UNL d   1     -10.781   8.151   9.420 -0.32 +0.00    -0.021    34.404
ATOM      7  C   UNL d   1     -11.135   7.500   8.261 -0.29 +0.00    -0.025    34.404
ATOM      8  C   UNL d   1     -11.352   6.170   8.611 -0.28 -0.00    +0.066    34.404
ATOM      9  C   UNL d   1     -11.278   8.160   6.907 -0.28 -0.01    +0.051    34.404
ATOM     10  C   UNL d   1     -11.878   3.795   8.022 -0.25 -0.00    +0.066    34.404
ATOM     11  C   UNL d   1     -12.034   2.812   7.038 -0.27 +0.00    -0.021    34.404
ATOM     12  C   UNL d   1     -12.156   1.606   7.703 -0.25 -0.00    +0.000    34.404
ATOM     13  C   UNL d   1     -12.077   1.930   9.086 -0.21 -0.01    +0.070    34.404
ATOM     14  C   UNL d   1     -12.039   3.011   5.527 -0.28 -0.00    +0.052    34.404
ATOM     15  C   UNL d   1     -12.101   1.352  11.506 -0.19 -0.01    +0.066    34.404
ATOM     16  C   UNL d   1     -12.336   0.416  12.513 -0.12 +0.00    -0.021    34.404
ATOM     17  C   UNL d   1     -12.161   1.087  13.724 -0.11 +0.00    +0.000    34.404
ATOM     18  C   UNL d   1     -11.824   2.398  13.359 -0.16 +0.00    +0.070    34.404
ATOM     19  C   UNL d   1     -12.758  -1.005  12.234 -0.07 -0.01    +0.052    34.404
ATOM     20  C   UNL d   1     -11.217   4.770  13.992 -0.14 +0.01    +0.066    34.404
ATOM     21  C   UNL d   1     -10.903   5.752  14.927 -0.13 -0.00    -0.025    34.404
ATOM     22  C   UNL d   1     -10.612   6.892  14.213 -0.19 -0.00    -0.021    34.404
ATOM     23  C   UNL d   1     -10.777   6.568  12.863 -0.24 +0.01    +0.066    34.404
ATOM     24  C   UNL d   1     -10.885   5.611  16.427 -0.08 +0.00    +0.051    34.404
ATOM     25  N   UNL d   1     -11.233   6.007   9.972 -0.15 +0.00    -0.248    34.404
ATOM     26  N   UNL d   1     -11.913   3.264   9.271 -0.16 +0.02    -0.248    34.404
ATOM     27  N   UNL d   1     -11.866   2.559  12.012 -0.15 +0.01    -0.248    34.404
ATOM     28  N   UNL d   1     -11.189   5.289  12.736 -0.08 -0.02    -0.248    34.404
ATOM     29 FE   UNL d   1     -11.549   4.282  11.017 -0.06 -0.00    +0.000    34.404
ATOM     30  O   UNL d   1     -12.846   4.898  10.416 -0.15 -0.00    +0.000    34.404
ATOM     31  O   UNL d   1     -12.877   4.269  11.860 -0.14 -0.00    +0.000    34.404
ATOM     32  C   UNL d   1     -10.537   9.633   9.533 -0.26 -0.01    +0.052    34.404
ATOM     33  C   UNL d   1     -11.802  10.418   9.868 -0.09 -0.01    +0.115    34.404
ATOM     34  C   UNL d   1     -12.007  10.568  11.355 -0.05 -0.01    +0.139    34.404
ATOM     35  O   UNL d   1     -11.059  10.432  12.112 +0.01 +0.02    -0.650    34.404
ATOM     36  O   UNL d   1     -13.226  10.823  11.875 +0.01 +0.03    -0.776    34.404
ATOM     37  H   UNL d   1     -13.617  10.267  12.558 +0.01 -0.01    +0.167    34.404
ATOM     38  C   UNL d   1     -10.258   8.233  14.803 -0.15 +0.00    +0.052    34.404
ATOM     39  C   UNL d   1     -11.376   8.797  15.678 -0.03 -0.00    +0.115    34.404
ATOM     40  C   UNL d   1     -12.747   8.485  15.132 -0.02 -0.00    +0.139    34.404
ATOM     41  O   UNL d   1     -13.570   7.929  15.843 +0.01 +0.01    -0.650    34.404
ATOM     42  O   UNL d   1     -13.101   8.855  13.886 +0.03 +0.02    -0.776    34.404
ATOM     43  H   UNL d   1     -12.514   9.380  13.330 +0.02 -0.00    +0.167    34.404
ATOM     44  C   UNL d   1     -12.334   0.295   6.965 -0.25 -0.00    +0.004    34.404
ATOM     45  C   UNL d   1     -13.097  -0.741   7.309 -0.16 -0.00    +0.012    34.404
ATOM     46  C   UNL d   1     -12.335   0.623  15.145 -0.07 +0.00    +0.004    34.404
ATOM     47  C   UNL d   1     -11.395   0.462  16.085 -0.10 +0.00    +0.012    34.404
TER
ENDMDL
MODEL       25
USER    Run = 25
USER    Cluster Rank = 55
USER    Number of conformations in this cluster = 1
USER  
USER    RMSD from reference structure       = 26.090 A
USER  
USER    Estimated Free Energy of Binding    =   -3.88 kcal/mol  [=(1)+(2)+(3)-(4)]
USER    Estimated Inhibition Constant, Ki   =    1.44 mM (millimolar)  [Temperature = 298.15 K]
USER    
USER    (1) Final Intermolecular Energy     =   -6.86 kcal/mol
USER        vdW + Hbond + desolv Energy     =   -6.68 kcal/mol
USER        Electrostatic Energy            =   -0.17 kcal/mol
USER    (2) Final Total Internal Energy     =   -2.39 kcal/mol
USER    (3) Torsional Free Energy           =   +2.98 kcal/mol
USER    (4) Unbound System's Energy  [=(2)] =   -2.39 kcal/mol
USER    
USER    
USER  
USER    DPF = D:/Protein_go_brrr/autodock/final/mut_N102T/heme_O2/dock.dpf
USER    NEWDPF move	heme_O2_opt.pdbqt
USER    NEWDPF about	8.287000 34.468000 -0.670000
USER    NEWDPF tran0	-5.442575 11.548561 -9.150607
USER    NEWDPF axisangle0	-0.315490 0.900745 0.298536 155.386660
USER    NEWDPF quaternion0	-0.308241 0.880047 0.291676 0.213144
USER    NEWDPF dihe0	137.60 -10.44 2.57 88.53 179.69 -48.09 -96.15 -176.46 -171.50 170.46 
USER  
USER                              x       y       z    vdW   Elec        q     RMS 
ATOM      1  C   UNL d   1      -3.906  12.875  -8.537 -0.20 -0.00    +0.064    26.090
ATOM      2  C   UNL d   1      -5.667  11.763 -12.805 -0.15 -0.01    +0.064    26.090
ATOM      3  C   UNL d   1      -8.737   8.639 -10.826 -0.09 -0.01    +0.064    26.090
ATOM      4  C   UNL d   1      -7.262  10.126  -6.389 -0.10 -0.00    +0.064    26.090
ATOM      5  C   UNL d   1      -4.136  12.829  -9.859 -0.18 -0.01    +0.066    26.090
ATOM      6  C   UNL d   1      -3.428  13.578 -10.803 -0.18 +0.00    -0.021    26.090
ATOM      7  C   UNL d   1      -3.966  13.289 -12.035 -0.23 +0.00    -0.025    26.090
ATOM      8  C   UNL d   1      -4.956  12.335 -11.815 -0.19 -0.01    +0.066    26.090
ATOM      9  C   UNL d   1      -3.547  13.938 -13.336 -0.17 +0.00    +0.051    26.090
ATOM     10  C   UNL d   1      -6.702  10.741 -12.637 -0.13 -0.01    +0.066    26.090
ATOM     11  C   UNL d   1      -7.294  10.063 -13.708 -0.19 +0.00    -0.021    26.090
ATOM     12  C   UNL d   1      -8.169   9.145 -13.157 -0.19 -0.00    +0.000    26.090
ATOM     13  C   UNL d   1      -8.068   9.328 -11.750 -0.14 -0.01    +0.070    26.090
ATOM     14  C   UNL d   1      -7.017  10.263 -15.194 -0.26 -0.00    +0.052    26.090
ATOM     15  C   UNL d   1      -8.689   8.818  -9.395 -0.12 -0.00    +0.066    26.090
ATOM     16  C   UNL d   1      -9.535   8.178  -8.489 -0.08 -0.00    -0.021    26.090
ATOM     17  C   UNL d   1      -9.134   8.587  -7.218 -0.11 -0.00    +0.000    26.090
ATOM     18  C   UNL d   1      -8.058   9.456  -7.446 -0.12 -0.00    +0.070    26.090
ATOM     19  C   UNL d   1     -10.674   7.286  -8.917 -0.05 +0.00    +0.052    26.090
ATOM     20  C   UNL d   1      -6.253  10.998  -6.574 -0.18 +0.00    +0.066    26.090
ATOM     21  C   UNL d   1      -5.528  11.583  -5.539 -0.20 -0.00    -0.025    26.090
ATOM     22  C   UNL d   1      -4.550  12.349  -6.132 -0.27 -0.00    -0.021    26.090
ATOM     23  C   UNL d   1      -4.725  12.216  -7.513 -0.26 -0.00    +0.066    26.090
ATOM     24  C   UNL d   1      -5.761  11.423  -4.059 -0.16 +0.01    +0.051    26.090
ATOM     25  N   UNL d   1      -5.104  12.101 -10.467 -0.12 +0.02    -0.248    26.090
ATOM     26  N   UNL d   1      -7.177  10.304 -11.443 -0.07 +0.03    -0.248    26.090
ATOM     27  N   UNL d   1      -7.850   9.643  -8.774 -0.07 +0.01    -0.248    26.090
ATOM     28  N   UNL d   1      -5.790  11.430  -7.777 -0.12 +0.00    -0.248    26.090
ATOM     29 FE   UNL d   1      -6.480  10.870  -9.595 -0.04 -0.00    +0.000    26.090
ATOM     30  O   UNL d   1      -7.097  12.146 -10.238 -0.07 -0.00    +0.000    26.090
ATOM     31  O   UNL d   1      -7.648  11.622  -8.858 -0.07 -0.00    +0.000    26.090
ATOM     32  C   UNL d   1      -2.378  14.628 -10.549 -0.29 -0.01    +0.052    26.090
ATOM     33  C   UNL d   1      -2.969  16.021 -10.352 -0.14 -0.00    +0.115    26.090
ATOM     34  C   UNL d   1      -3.473  16.237  -8.946 -0.12 +0.00    +0.139    26.090
ATOM     35  O   UNL d   1      -2.955  15.636  -8.020 -0.59 -0.14    -0.650    26.090
ATOM     36  O   UNL d   1      -4.509  17.064  -8.691 +0.04 -0.01    -0.776    26.090
ATOM     37  H   UNL d   1      -5.203  16.833  -8.063 +0.02 +0.00    +0.167    26.090
ATOM     38  C   UNL d   1      -3.547  13.209  -5.407 -0.32 +0.01    +0.052    26.090
ATOM     39  C   UNL d   1      -4.076  14.615  -5.133 -0.16 +0.01    +0.115    26.090
ATOM     40  C   UNL d   1      -5.499  14.797  -5.601 -0.04 +0.01    +0.139    26.090
ATOM     41  O   UNL d   1      -6.418  14.668  -4.808 +0.04 -0.04    -0.650    26.090
ATOM     42  O   UNL d   1      -5.774  15.150  -6.871 +0.06 -0.02    -0.776    26.090
ATOM     43  H   UNL d   1      -5.075  15.403  -7.487 +0.03 +0.00    +0.167    26.090
ATOM     44  C   UNL d   1      -8.997   8.210 -14.013 -0.25 -0.00    +0.004    26.090
ATOM     45  C   UNL d   1      -9.846   7.265 -13.609 -0.26 -0.00    +0.012    26.090
ATOM     46  C   UNL d   1      -9.700   8.282  -5.857 -0.09 -0.00    +0.004    26.090
ATOM     47  C   UNL d   1      -9.496   7.197  -5.098 -0.09 -0.00    +0.012    26.090
TER
ENDMDL
MODEL       59
USER    Run = 59
USER    Cluster Rank = 56
USER    Number of conformations in this cluster = 1
USER  
USER    RMSD from reference structure       = 38.702 A
USER  
USER    Estimated Free Energy of Binding    =   -3.75 kcal/mol  [=(1)+(2)+(3)-(4)]
USER    Estimated Inhibition Constant, Ki   =    1.78 mM (millimolar)  [Temperature = 298.15 K]
USER    
USER    (1) Final Intermolecular Energy     =   -6.73 kcal/mol
USER        vdW + Hbond + desolv Energy     =   -6.22 kcal/mol
USER        Electrostatic Energy            =   -0.51 kcal/mol
USER    (2) Final Total Internal Energy     =   -2.28 kcal/mol
USER    (3) Torsional Free Energy           =   +2.98 kcal/mol
USER    (4) Unbound System's Energy  [=(2)] =   -2.28 kcal/mol
USER    
USER    
USER  
USER    DPF = D:/Protein_go_brrr/autodock/final/mut_N102T/heme_O2/dock.dpf
USER    NEWDPF move	heme_O2_opt.pdbqt
USER    NEWDPF about	8.287000 34.468000 -0.670000
USER    NEWDPF tran0	-10.501540 -1.109106 -6.695977
USER    NEWDPF axisangle0	-0.768259 0.408833 0.492580 -167.934587
USER    NEWDPF quaternion0	-0.764004 0.406569 0.489852 -0.105096
USER    NEWDPF dihe0	46.17 108.32 -131.08 141.72 61.62 5.45 177.79 99.30 -161.49 179.63 
USER  
USER                              x       y       z    vdW   Elec        q     RMS 
ATOM      1  C   UNL d   1     -10.761  -0.977  -4.595 -0.14 +0.01    +0.064    38.702
ATOM      2  C   UNL d   1     -11.022   2.251  -8.069 -0.13 +0.00    +0.064    38.702
ATOM      3  C   UNL d   1      -9.911  -1.068 -11.362 -0.28 +0.01    +0.064    38.702
ATOM      4  C   UNL d   1     -10.109  -4.494  -7.857 -0.19 +0.01    +0.064    38.702
ATOM      5  C   UNL d   1     -10.925   0.172  -5.271 -0.07 +0.01    +0.066    38.702
ATOM      6  C   UNL d   1     -11.234   1.396  -4.672 -0.17 -0.00    -0.021    38.702
ATOM      7  C   UNL d   1     -11.352   2.323  -5.681 -0.11 -0.00    -0.025    38.702
ATOM      8  C   UNL d   1     -11.064   1.649  -6.865 -0.12 +0.00    +0.066    38.702
ATOM      9  C   UNL d   1     -11.754   3.769  -5.486 -0.05 +0.00    +0.051    38.702
ATOM     10  C   UNL d   1     -10.703   1.602  -9.342 -0.17 +0.00    +0.066    38.702
ATOM     11  C   UNL d   1     -10.512   2.305 -10.537 -0.21 -0.00    -0.021    38.702
ATOM     12  C   UNL d   1     -10.173   1.367 -11.495 -0.28 +0.00    +0.000    38.702
ATOM     13  C   UNL d   1     -10.189   0.116 -10.817 -0.22 +0.01    +0.070    38.702
ATOM     14  C   UNL d   1     -10.622   3.810 -10.750 -0.10 -0.00    +0.052    38.702
ATOM     15  C   UNL d   1      -9.950  -2.359 -10.720 -0.24 +0.01    +0.066    38.702
ATOM     16  C   UNL d   1      -9.808  -3.577 -11.384 -0.28 -0.00    -0.021    38.702
ATOM     17  C   UNL d   1      -9.862  -4.569 -10.404 -0.25 +0.00    +0.000    38.702
ATOM     18  C   UNL d   1     -10.033  -3.872  -9.200 -0.22 +0.01    +0.070    38.702
ATOM     19  C   UNL d   1      -9.690  -3.688 -12.883 -0.24 +0.01    +0.052    38.702
ATOM     20  C   UNL d   1     -10.316  -3.860  -6.687 -0.17 +0.01    +0.066    38.702
ATOM     21  C   UNL d   1     -10.360  -4.497  -5.450 -0.12 -0.00    -0.025    38.702
ATOM     22  C   UNL d   1     -10.518  -3.508  -4.506 -0.16 -0.00    -0.021    38.702
ATOM     23  C   UNL d   1     -10.583  -2.299  -5.206 -0.14 +0.02    +0.066    38.702
ATOM     24  C   UNL d   1     -10.260  -5.977  -5.183 -0.07 +0.01    +0.051    38.702
ATOM     25  N   UNL d   1     -10.865   0.310  -6.619 -0.02 -0.02    -0.248    38.702
ATOM     26  N   UNL d   1     -10.517   0.268  -9.509 -0.09 -0.03    -0.248    38.702
ATOM     27  N   UNL d   1     -10.159  -2.538  -9.418 -0.04 -0.05    -0.248    38.702
ATOM     28  N   UNL d   1     -10.505  -2.522  -6.535 -0.11 -0.05    -0.248    38.702
ATOM     29 FE   UNL d   1     -10.511  -1.139  -8.013 -0.05 +0.00    +0.000    38.702
ATOM     30  O   UNL d   1     -11.955  -0.561  -8.061 -0.11 +0.00    +0.000    38.702
ATOM     31  O   UNL d   1     -11.725  -2.106  -8.266 -0.12 +0.00    +0.000    38.702
ATOM     32  C   UNL d   1     -11.543   1.662  -3.221 -0.14 +0.01    +0.052    38.702
ATOM     33  C   UNL d   1     -12.960   1.251  -2.833 -0.08 +0.04    +0.115    38.702
ATOM     34  C   UNL d   1     -13.765   0.771  -4.016 -0.01 +0.02    +0.139    38.702
ATOM     35  O   UNL d   1     -14.412   1.573  -4.671 +0.03 -0.06    -0.650    38.702
ATOM     36  O   UNL d   1     -13.809  -0.534  -4.353 +0.05 -0.12    -0.776    38.702
ATOM     37  H   UNL d   1     -13.957  -1.226  -3.698 +0.02 +0.03    +0.167    38.702
ATOM     38  C   UNL d   1     -10.663  -3.724  -3.022 -0.17 +0.02    +0.052    38.702
ATOM     39  C   UNL d   1     -12.071  -4.172  -2.634 -0.09 +0.03    +0.115    38.702
ATOM     40  C   UNL d   1     -13.033  -3.015  -2.522 -0.08 +0.04    +0.139    38.702
ATOM     41  O   UNL d   1     -14.216  -3.186  -2.764 +0.03 -0.10    -0.650    38.702
ATOM     42  O   UNL d   1     -12.617  -1.803  -2.108 +0.07 -0.46    -0.776    38.702
ATOM     43  H   UNL d   1     -12.586  -1.048  -2.708 +0.03 +0.08    +0.167    38.702
ATOM     44  C   UNL d   1      -9.879   1.753 -12.929 -0.35 +0.00    +0.004    38.702
ATOM     45  C   UNL d   1      -9.133   2.766 -13.368 -0.43 -0.00    +0.012    38.702
ATOM     46  C   UNL d   1      -9.826  -6.070 -10.515 -0.20 +0.00    +0.004    38.702
ATOM     47  C   UNL d   1      -9.119  -6.938  -9.780 -0.23 +0.00    +0.012    38.702
TER
ENDMDL
MODEL       80
USER    Run = 80
USER    Cluster Rank = 57
USER    Number of conformations in this cluster = 1
USER  
USER    RMSD from reference structure       = 34.904 A
USER  
USER    Estimated Free Energy of Binding    =   -3.69 kcal/mol  [=(1)+(2)+(3)-(4)]
USER    Estimated Inhibition Constant, Ki   =    1.96 mM (millimolar)  [Temperature = 298.15 K]
USER    
USER    (1) Final Intermolecular Energy     =   -6.68 kcal/mol
USER        vdW + Hbond + desolv Energy     =   -6.69 kcal/mol
USER        Electrostatic Energy            =   +0.01 kcal/mol
USER    (2) Final Total Internal Energy     =   -2.42 kcal/mol
USER    (3) Torsional Free Energy           =   +2.98 kcal/mol
USER    (4) Unbound System's Energy  [=(2)] =   -2.42 kcal/mol
USER    
USER    
USER  
USER    DPF = D:/Protein_go_brrr/autodock/final/mut_N102T/heme_O2/dock.dpf
USER    NEWDPF move	heme_O2_opt.pdbqt
USER    NEWDPF about	8.287000 34.468000 -0.670000
USER    NEWDPF tran0	-11.357452 4.300937 9.804326
USER    NEWDPF axisangle0	-0.419871 0.838554 -0.347182 95.915960
USER    NEWDPF quaternion0	-0.311819 0.622755 -0.257836 0.669675
USER    NEWDPF dihe0	127.87 -6.41 20.75 124.20 176.11 -45.22 -86.45 170.95 -173.43 175.30 
USER  
USER                              x       y       z    vdW   Elec        q     RMS 
ATOM      1  C   UNL d   1     -11.431   5.377   7.978 -0.17 +0.00    +0.064    34.904
ATOM      2  C   UNL d   1     -11.819   0.754   8.995 -0.23 -0.01    +0.064    34.904
ATOM      3  C   UNL d   1     -11.162   1.633  13.673 -0.24 +0.01    +0.064    34.904
ATOM      4  C   UNL d   1     -11.239   6.440  12.697 -0.19 +0.00    +0.064    34.904
ATOM      5  C   UNL d   1     -11.592   4.048   7.873 -0.20 +0.00    +0.066    34.904
ATOM      6  C   UNL d   1     -11.787   3.377   6.663 -0.27 +0.00    -0.021    34.904
ATOM      7  C   UNL d   1     -11.942   2.043   6.960 -0.28 +0.00    -0.025    34.904
ATOM      8  C   UNL d   1     -11.790   1.930   8.339 -0.24 -0.01    +0.066    34.904
ATOM      9  C   UNL d   1     -12.251   0.961   5.949 -0.27 -0.02    +0.051    34.904
ATOM     10  C   UNL d   1     -11.643   0.571  10.436 -0.21 -0.01    +0.066    34.904
ATOM     11  C   UNL d   1     -11.518  -0.684  11.043 -0.23 +0.01    -0.021    34.904
ATOM     12  C   UNL d   1     -11.310  -0.451  12.390 -0.24 -0.00    +0.000    34.904
ATOM     13  C   UNL d   1     -11.333   0.964  12.533 -0.23 -0.00    +0.070    34.904
ATOM     14  C   UNL d   1     -11.568  -2.047  10.362 -0.22 -0.03    +0.052    34.904
ATOM     15  C   UNL d   1     -11.213   3.063  13.867 -0.15 +0.01    +0.066    34.904
ATOM     16  C   UNL d   1     -11.191   3.693  15.110 -0.13 -0.00    -0.021    34.904
ATOM     17  C   UNL d   1     -11.212   5.065  14.857 -0.14 +0.00    +0.000    34.904
ATOM     18  C   UNL d   1     -11.245   5.169  13.459 -0.15 +0.01    +0.070    34.904
ATOM     19  C   UNL d   1     -11.206   2.939  16.416 -0.08 +0.01    +0.052    34.904
ATOM     20  C   UNL d   1     -11.313   6.577  11.359 -0.21 +0.00    +0.066    34.904
ATOM     21  C   UNL d   1     -11.285   7.801  10.697 -0.21 +0.00    -0.025    34.904
ATOM     22  C   UNL d   1     -11.311   7.516   9.350 -0.27 +0.00    -0.021    34.904
ATOM     23  C   UNL d   1     -11.373   6.124   9.240 -0.27 -0.00    +0.066    34.904
ATOM     24  C   UNL d   1     -11.239   9.173  11.318 -0.16 -0.00    +0.051    34.904
ATOM     25  N   UNL d   1     -11.640   3.174   8.908 +0.02 +0.01    -0.248    34.904
ATOM     26  N   UNL d   1     -11.541   1.578  11.341 -0.18 +0.03    -0.248    34.904
ATOM     27  N   UNL d   1     -11.321   3.945  12.877 -0.09 -0.02    -0.248    34.904
ATOM     28  N   UNL d   1     -11.419   5.559  10.464 +0.05 +0.00    -0.248    34.904
ATOM     29 FE   UNL d   1     -11.480   3.584  10.902 -0.07 -0.00    +0.000    34.904
ATOM     30  O   UNL d   1     -12.891   3.086  10.475 -0.17 -0.00    +0.000    34.904
ATOM     31  O   UNL d   1     -12.759   4.246  11.533 -0.16 -0.00    +0.000    34.904
ATOM     32  C   UNL d   1     -11.958   3.977   5.291 -0.09 +0.00    +0.052    34.904
ATOM     33  C   UNL d   1     -13.415   4.277   4.954 -0.10 +0.00    +0.115    34.904
ATOM     34  C   UNL d   1     -13.817   5.679   5.339 -0.07 -0.00    +0.139    34.904
ATOM     35  O   UNL d   1     -12.967   6.551   5.417 -0.00 -0.00    -0.650    34.904
ATOM     36  O   UNL d   1     -15.098   5.989   5.630 +0.02 +0.01    -0.776    34.904
ATOM     37  H   UNL d   1     -15.342   6.446   6.443 +0.01 -0.00    +0.167    34.904
ATOM     38  C   UNL d   1     -11.341   8.533   8.238 -0.25 -0.01    +0.052    34.904
ATOM     39  C   UNL d   1     -12.751   9.051   7.961 -0.07 -0.01    +0.115    34.904
ATOM     40  C   UNL d   1     -13.809   8.257   8.684 -0.03 -0.01    +0.139    34.904
ATOM     41  O   UNL d   1     -14.281   8.683   9.726 +0.01 +0.03    -0.650    34.904
ATOM     42  O   UNL d   1     -14.284   7.104   8.174 +0.03 +0.03    -0.776    34.904
ATOM     43  H   UNL d   1     -14.002   6.780   7.311 +0.02 -0.01    +0.167    34.904
ATOM     44  C   UNL d   1     -11.119  -1.580  13.381 -0.22 -0.00    +0.004    34.904
ATOM     45  C   UNL d   1     -11.209  -1.527  14.709 -0.15 +0.00    +0.012    34.904
ATOM     46  C   UNL d   1     -11.263   6.242  15.794 -0.09 +0.00    +0.004    34.904
ATOM     47  C   UNL d   1     -10.354   7.213  15.954 -0.11 +0.00    +0.012    34.904
TER
ENDMDL
MODEL       17
USER    Run = 17
USER    Cluster Rank = 58
USER    Number of conformations in this cluster = 1
USER  
USER    RMSD from reference structure       = 39.416 A
USER  
USER    Estimated Free Energy of Binding    =   -3.66 kcal/mol  [=(1)+(2)+(3)-(4)]
USER    Estimated Inhibition Constant, Ki   =    2.07 mM (millimolar)  [Temperature = 298.15 K]
USER    
USER    (1) Final Intermolecular Energy     =   -6.64 kcal/mol
USER        vdW + Hbond + desolv Energy     =   -6.39 kcal/mol
USER        Electrostatic Energy            =   -0.26 kcal/mol
USER    (2) Final Total Internal Energy     =   -2.29 kcal/mol
USER    (3) Torsional Free Energy           =   +2.98 kcal/mol
USER    (4) Unbound System's Energy  [=(2)] =   -2.29 kcal/mol
USER    
USER    
USER  
USER    DPF = D:/Protein_go_brrr/autodock/final/mut_N102T/heme_O2/dock.dpf
USER    NEWDPF move	heme_O2_opt.pdbqt
USER    NEWDPF about	8.287000 34.468000 -0.670000
USER    NEWDPF tran0	12.596433 -6.611904 4.448480
USER    NEWDPF axisangle0	0.029161 0.528346 -0.848528 -132.442086
USER    NEWDPF quaternion0	0.026686 0.483494 -0.776495 -0.403209
USER    NEWDPF dihe0	-178.38 96.30 155.54 88.67 172.37 11.43 -79.82 48.57 -151.53 -162.85 
USER  
USER                              x       y       z    vdW   Elec        q     RMS 
ATOM      1  C   UNL d   1      13.969  -4.996   4.391 -0.11 +0.02    +0.064    39.416
ATOM      2  C   UNL d   1      12.692  -7.999   7.842 -0.08 +0.04    +0.064    39.416
ATOM      3  C   UNL d   1       9.576 -10.188   4.910 -0.29 +0.01    +0.064    39.416
ATOM      4  C   UNL d   1      11.228  -7.414   1.217 -0.18 -0.04    +0.064    39.416
ATOM      5  C   UNL d   1      13.878  -5.636   5.568 -0.03 +0.04    +0.066    39.416
ATOM      6  C   UNL d   1      14.609  -5.287   6.708 -0.09 -0.01    -0.021    39.416
ATOM      7  C   UNL d   1      14.272  -6.183   7.695 -0.06 -0.02    -0.025    39.416
ATOM      8  C   UNL d   1      13.308  -7.024   7.146 -0.05 +0.05    +0.066    39.416
ATOM      9  C   UNL d   1      14.887  -6.221   9.077 -0.05 +0.03    +0.051    39.416
ATOM     10  C   UNL d   1      11.657  -8.898   7.327 -0.10 +0.03    +0.066    39.416
ATOM     11  C   UNL d   1      10.935  -9.783   8.136 -0.15 -0.01    -0.021    39.416
ATOM     12  C   UNL d   1      10.019 -10.410   7.311 -0.28 +0.00    +0.000    39.416
ATOM     13  C   UNL d   1      10.248  -9.869   6.016 -0.21 +0.01    +0.070    39.416
ATOM     14  C   UNL d   1      11.093 -10.000   9.636 -0.14 +0.02    +0.052    39.416
ATOM     15  C   UNL d   1       9.801  -9.690   3.574 -0.22 +0.00    +0.066    39.416
ATOM     16  C   UNL d   1       9.174 -10.184   2.430 -0.32 +0.00    -0.021    39.416
ATOM     17  C   UNL d   1       9.630  -9.409   1.365 -0.30 -0.00    +0.000    39.416
ATOM     18  C   UNL d   1      10.511  -8.486   1.946 -0.18 -0.02    +0.070    39.416
ATOM     19  C   UNL d   1       8.249 -11.375   2.449 -0.49 -0.00    +0.052    39.416
ATOM     20  C   UNL d   1      12.112  -6.540   1.736 -0.17 -0.02    +0.066    39.416
ATOM     21  C   UNL d   1      12.743  -5.539   1.002 -0.22 +0.01    -0.025    39.416
ATOM     22  C   UNL d   1      13.507  -4.823   1.895 -0.15 +0.00    -0.021    39.416
ATOM     23  C   UNL d   1      13.328  -5.427   3.144 -0.12 +0.01    +0.066    39.416
ATOM     24  C   UNL d   1      12.625  -5.281  -0.478 -0.19 -0.05    +0.051    39.416
ATOM     25  N   UNL d   1      13.113  -6.727   5.817 -0.07 -0.15    -0.248    39.416
ATOM     26  N   UNL d   1      11.249  -8.953   6.034 -0.07 -0.07    -0.248    39.416
ATOM     27  N   UNL d   1      10.660  -8.720   3.275 -0.07 +0.01    -0.248    39.416
ATOM     28  N   UNL d   1      12.515  -6.498   3.034 -0.06 -0.00    -0.248    39.416
ATOM     29 FE   UNL d   1      11.885  -7.718   4.521 -0.02 +0.00    +0.000    39.416
ATOM     30  O   UNL d   1      13.129  -8.543   4.962 -0.05 +0.00    +0.000    39.416
ATOM     31  O   UNL d   1      12.639  -8.609   3.467 -0.06 -0.00    +0.000    39.416
ATOM     32  C   UNL d   1      15.686  -4.241   6.829 -0.07 +0.02    +0.052    39.416
ATOM     33  C   UNL d   1      16.948  -4.597   6.049 -0.02 +0.02    +0.115    39.416
ATOM     34  C   UNL d   1      17.003  -3.919   4.702 -0.02 +0.02    +0.139    39.416
ATOM     35  O   UNL d   1      16.339  -2.914   4.505 +0.02 -0.12    -0.650    39.416
ATOM     36  O   UNL d   1      17.750  -4.416   3.695 +0.01 -0.05    -0.776    39.416
ATOM     37  H   UNL d   1      17.812  -3.975   2.839 +0.01 +0.01    +0.167    39.416
ATOM     38  C   UNL d   1      14.407  -3.665   1.551 -0.14 -0.00    +0.052    39.416
ATOM     39  C   UNL d   1      15.516  -4.059   0.577 -0.04 -0.01    +0.115    39.416
ATOM     40  C   UNL d   1      16.871  -3.561   1.015 -0.01 -0.00    +0.139    39.416
ATOM     41  O   UNL d   1      17.879  -4.129   0.626 +0.01 +0.02    -0.650    39.416
ATOM     42  O   UNL d   1      16.993  -2.466   1.789 +0.04 -0.05    -0.776    39.416
ATOM     43  H   UNL d   1      17.124  -2.534   2.743 +0.02 +0.02    +0.167    39.416
ATOM     44  C   UNL d   1       9.043 -11.443   7.834 -0.32 +0.00    +0.004    39.416
ATOM     45  C   UNL d   1       9.199 -12.268   8.869 -0.25 +0.00    +0.012    39.416
ATOM     46  C   UNL d   1       9.357  -9.502  -0.113 -0.45 -0.00    +0.004    39.416
ATOM     47  C   UNL d   1       8.302  -9.033  -0.792 -0.58 -0.01    +0.012    39.416
TER
ENDMDL
MODEL       21
USER    Run = 21
USER    Cluster Rank = 59
USER    Number of conformations in this cluster = 1
USER  
USER    RMSD from reference structure       = 33.340 A
USER  
USER    Estimated Free Energy of Binding    =   -3.50 kcal/mol  [=(1)+(2)+(3)-(4)]
USER    Estimated Inhibition Constant, Ki   =    2.74 mM (millimolar)  [Temperature = 298.15 K]
USER    
USER    (1) Final Intermolecular Energy     =   -6.48 kcal/mol
USER        vdW + Hbond + desolv Energy     =   -6.52 kcal/mol
USER        Electrostatic Energy            =   +0.04 kcal/mol
USER    (2) Final Total Internal Energy     =   -2.35 kcal/mol
USER    (3) Torsional Free Energy           =   +2.98 kcal/mol
USER    (4) Unbound System's Energy  [=(2)] =   -2.35 kcal/mol
USER    
USER    
USER  
USER    DPF = D:/Protein_go_brrr/autodock/final/mut_N102T/heme_O2/dock.dpf
USER    NEWDPF move	heme_O2_opt.pdbqt
USER    NEWDPF about	8.287000 34.468000 -0.670000
USER    NEWDPF tran0	-11.895118 6.096562 10.114544
USER    NEWDPF axisangle0	-0.602309 -0.774177 0.194612 125.958688
USER    NEWDPF quaternion0	-0.536562 -0.689670 0.173369 0.454312
USER    NEWDPF dihe0	159.78 -5.39 85.50 -119.97 -123.33 143.08 126.33 159.13 10.69 12.27 
USER  
USER                              x       y       z    vdW   Elec        q     RMS 
ATOM      1  C   UNL d   1     -11.686   5.808  12.205 -0.15 +0.00    +0.064    33.340
ATOM      2  C   UNL d   1     -12.514   2.806   8.619 -0.18 -0.01    +0.064    33.340
ATOM      3  C   UNL d   1     -12.483   6.426   5.459 -0.03 +0.00    +0.064    33.340
ATOM      4  C   UNL d   1     -11.156   9.464   9.076 -0.18 -0.01    +0.064    33.340
ATOM      5  C   UNL d   1     -11.912   4.695  11.488 -0.10 -0.00    +0.066    33.340
ATOM      6  C   UNL d   1     -12.020   3.416  12.040 -0.17 +0.00    -0.021    33.340
ATOM      7  C   UNL d   1     -12.217   2.540  10.998 -0.19 +0.00    -0.025    33.340
ATOM      8  C   UNL d   1     -12.271   3.315   9.842 -0.16 -0.01    +0.066    33.340
ATOM      9  C   UNL d   1     -12.313   1.037  11.137 -0.20 -0.01    +0.051    33.340
ATOM     10  C   UNL d   1     -12.605   3.570   7.375 -0.17 -0.00    +0.066    33.340
ATOM     11  C   UNL d   1     -13.021   3.015   6.159 -0.14 +0.00    -0.021    33.340
ATOM     12  C   UNL d   1     -13.036   4.047   5.240 -0.14 +0.00    +0.000    33.340
ATOM     13  C   UNL d   1     -12.607   5.197   5.959 -0.14 +0.00    +0.070    33.340
ATOM     14  C   UNL d   1     -13.414   1.566   5.893 -0.14 -0.01    +0.052    33.340
ATOM     15  C   UNL d   1     -12.019   7.608   6.145 -0.16 -0.00    +0.066    33.340
ATOM     16  C   UNL d   1     -11.755   8.829   5.525 -0.20 +0.00    -0.021    33.340
ATOM     17  C   UNL d   1     -11.374   9.711   6.537 -0.20 -0.00    +0.000    33.340
ATOM     18  C   UNL d   1     -11.438   8.952   7.714 -0.19 -0.01    +0.070    33.340
ATOM     19  C   UNL d   1     -11.835   9.028   4.033 -0.17 -0.00    +0.052    33.340
ATOM     20  C   UNL d   1     -11.166   8.753  10.221 -0.19 -0.00    +0.066    33.340
ATOM     21  C   UNL d   1     -10.910   9.294  11.477 -0.16 +0.00    -0.025    33.340
ATOM     22  C   UNL d   1     -11.083   8.273  12.384 -0.17 -0.00    -0.021    33.340
ATOM     23  C   UNL d   1     -11.422   7.137  11.642 -0.18 +0.00    +0.066    33.340
ATOM     24  C   UNL d   1     -10.517  10.713  11.796 -0.14 -0.00    +0.051    33.340
ATOM     25  N   UNL d   1     -12.018   4.635  10.138 -0.12 +0.01    -0.248    33.340
ATOM     26  N   UNL d   1     -12.343   4.897   7.256 -0.12 +0.00    -0.248    33.340
ATOM     27  N   UNL d   1     -11.758   7.660   7.448 -0.14 +0.02    -0.248    33.340
ATOM     28  N   UNL d   1     -11.427   7.423  10.324 -0.13 +0.01    -0.248    33.340
ATOM     29 FE   UNL d   1     -11.881   6.171   8.800 -0.05 -0.00    +0.000    33.340
ATOM     30  O   UNL d   1     -10.708   5.153   8.709 -0.56 +0.00    +0.000    33.340
ATOM     31  O   UNL d   1     -10.417   6.694   8.561 -0.45 -0.00    +0.000    33.340
ATOM     32  C   UNL d   1     -11.810   3.009  13.476 -0.17 +0.00    +0.052    33.340
ATOM     33  C   UNL d   1     -13.109   2.967  14.275 -0.05 +0.00    +0.115    33.340
ATOM     34  C   UNL d   1     -13.853   4.279  14.233 -0.02 -0.00    +0.139    33.340
ATOM     35  O   UNL d   1     -14.615   4.511  13.308 +0.01 +0.02    -0.650    33.340
ATOM     36  O   UNL d   1     -13.676   5.219  15.184 +0.02 +0.00    -0.776    33.340
ATOM     37  H   UNL d   1     -13.908   6.143  15.038 +0.01 -0.00    +0.167    33.340
ATOM     38  C   UNL d   1     -10.870   8.374  13.873 -0.15 +0.00    +0.052    33.340
ATOM     39  C   UNL d   1     -12.166   8.197  14.660 -0.04 -0.00    +0.115    33.340
ATOM     40  C   UNL d   1     -13.390   8.490  13.828 -0.01 -0.00    +0.139    33.340
ATOM     41  O   UNL d   1     -13.655   9.642  13.524 +0.01 +0.02    -0.650    33.340
ATOM     42  O   UNL d   1     -14.173   7.495  13.368 +0.02 +0.02    -0.776    33.340
ATOM     43  H   UNL d   1     -13.956   6.568  13.524 +0.01 -0.00    +0.167    33.340
ATOM     44  C   UNL d   1     -13.446   3.833   3.798 -0.12 +0.00    +0.004    33.340
ATOM     45  C   UNL d   1     -12.655   3.667   2.738 -0.20 +0.00    +0.012    33.340
ATOM     46  C   UNL d   1     -10.915  11.143   6.478 -0.19 -0.00    +0.004    33.340
ATOM     47  C   UNL d   1      -9.802  11.678   6.995 -0.24 -0.00    +0.012    33.340
TER
ENDMDL
MODEL       12
USER    Run = 12
USER    Cluster Rank = 60
USER    Number of conformations in this cluster = 1
USER  
USER    RMSD from reference structure       = 36.382 A
USER  
USER    Estimated Free Energy of Binding    =   -3.46 kcal/mol  [=(1)+(2)+(3)-(4)]
USER    Estimated Inhibition Constant, Ki   =    2.88 mM (millimolar)  [Temperature = 298.15 K]
USER    
USER    (1) Final Intermolecular Energy     =   -6.45 kcal/mol
USER        vdW + Hbond + desolv Energy     =   -6.41 kcal/mol
USER        Electrostatic Energy            =   -0.04 kcal/mol
USER    (2) Final Total Internal Energy     =   -2.30 kcal/mol
USER    (3) Torsional Free Energy           =   +2.98 kcal/mol
USER    (4) Unbound System's Energy  [=(2)] =   -2.30 kcal/mol
USER    
USER    
USER  
USER    DPF = D:/Protein_go_brrr/autodock/final/mut_N102T/heme_O2/dock.dpf
USER    NEWDPF move	heme_O2_opt.pdbqt
USER    NEWDPF about	8.287000 34.468000 -0.670000
USER    NEWDPF tran0	-2.461614 5.427936 -21.964209
USER    NEWDPF axisangle0	0.968713 0.093944 0.229715 140.055200
USER    NEWDPF quaternion0	0.910452 0.088294 0.215900 0.341567
USER    NEWDPF dihe0	-18.18 -141.04 67.52 42.18 54.54 179.21 -140.12 99.10 165.71 170.33 
USER  
USER                              x       y       z    vdW   Elec        q     RMS 
ATOM      1  C   UNL d   1      -4.209   4.423 -22.625 -0.19 +0.01    +0.064    36.382
ATOM      2  C   UNL d   1      -2.769   8.934 -22.996 -0.07 +0.00    +0.064    36.382
ATOM      3  C   UNL d   1       1.256   7.946 -20.562 -0.27 -0.01    +0.064    36.382
ATOM      4  C   UNL d   1       0.010   3.201 -20.588 -0.17 -0.00    +0.064    36.382
ATOM      5  C   UNL d   1      -4.145   5.730 -22.926 -0.15 +0.01    +0.066    36.382
ATOM      6  C   UNL d   1      -5.142   6.424 -23.616 -0.09 -0.00    -0.021    36.382
ATOM      7  C   UNL d   1      -4.707   7.720 -23.763 -0.06 -0.00    -0.025    36.382
ATOM      8  C   UNL d   1      -3.477   7.794 -23.115 -0.06 +0.00    +0.066    36.382
ATOM      9  C   UNL d   1      -5.447   8.802 -24.519 -0.02 +0.00    +0.051    36.382
ATOM     10  C   UNL d   1      -1.484   9.077 -22.310 -0.11 -0.00    +0.066    36.382
ATOM     11  C   UNL d   1      -0.872  10.313 -22.074 -0.18 +0.00    -0.021    36.382
ATOM     12  C   UNL d   1       0.281  10.051 -21.357 -0.25 -0.00    +0.000    36.382
ATOM     13  C   UNL d   1       0.314   8.637 -21.204 -0.23 -0.00    +0.070    36.382
ATOM     14  C   UNL d   1      -1.379  11.689 -22.491 -0.15 +0.01    +0.052    36.382
ATOM     15  C   UNL d   1       1.343   6.513 -20.414 -0.23 -0.01    +0.066    36.382
ATOM     16  C   UNL d   1       2.438   5.840 -19.874 -0.25 +0.00    -0.021    36.382
ATOM     17  C   UNL d   1       2.106   4.485 -19.872 -0.22 -0.00    +0.000    36.382
ATOM     18  C   UNL d   1       0.816   4.433 -20.417 -0.18 -0.00    +0.070    36.382
ATOM     19  C   UNL d   1       3.712   6.536 -19.464 -0.26 -0.01    +0.052    36.382
ATOM     20  C   UNL d   1      -1.213   3.110 -21.146 -0.19 +0.00    +0.066    36.382
ATOM     21  C   UNL d   1      -1.931   1.924 -21.264 -0.24 -0.00    -0.025    36.382
ATOM     22  C   UNL d   1      -3.147   2.257 -21.818 -0.20 -0.00    -0.021    36.382
ATOM     23  C   UNL d   1      -3.118   3.638 -22.034 -0.21 +0.01    +0.066    36.382
ATOM     24  C   UNL d   1      -1.478   0.541 -20.872 -0.26 -0.00    +0.051    36.382
ATOM     25  N   UNL d   1      -3.101   6.552 -22.657 -0.08 -0.03    -0.248    36.382
ATOM     26  N   UNL d   1      -0.762   8.053 -21.790 -0.10 +0.00    -0.248    36.382
ATOM     27  N   UNL d   1       0.399   5.664 -20.809 -0.13 +0.01    -0.248    36.382
ATOM     28  N   UNL d   1      -1.924   4.146 -21.667 -0.13 -0.03    -0.248    36.382
ATOM     29 FE   UNL d   1      -1.344   6.084 -21.727 -0.04 +0.00    +0.000    36.382
ATOM     30  O   UNL d   1      -1.182   6.443 -23.233 -0.09 +0.00    +0.000    36.382
ATOM     31  O   UNL d   1      -0.339   5.263 -22.615 -0.10 +0.00    +0.000    36.382
ATOM     32  C   UNL d   1      -6.396   5.864 -24.237 -0.06 +0.00    +0.052    36.382
ATOM     33  C   UNL d   1      -6.366   5.894 -25.762 -0.01 +0.00    +0.115    36.382
ATOM     34  C   UNL d   1      -4.998   5.583 -26.317 -0.01 +0.00    +0.139    36.382
ATOM     35  O   UNL d   1      -4.250   6.498 -26.624 +0.00 -0.01    -0.650    36.382
ATOM     36  O   UNL d   1      -4.589   4.312 -26.510 +0.01 -0.00    -0.776    36.382
ATOM     37  H   UNL d   1      -5.023   3.565 -26.082 +0.01 +0.00    +0.167    36.382
ATOM     38  C   UNL d   1      -4.244   1.288 -22.175 -0.03 +0.00    +0.052    36.382
ATOM     39  C   UNL d   1      -4.086   0.724 -23.585 -0.08 -0.00    +0.115    36.382
ATOM     40  C   UNL d   1      -4.621   1.656 -24.643 -0.04 -0.00    +0.139    36.382
ATOM     41  O   UNL d   1      -5.620   2.320 -24.416 +0.00 -0.01    -0.650    36.382
ATOM     42  O   UNL d   1      -3.986   1.810 -25.821 +0.01 +0.02    -0.776    36.382
ATOM     43  H   UNL d   1      -3.883   2.678 -26.229 +0.01 -0.00    +0.167    36.382
ATOM     44  C   UNL d   1       1.216  11.154 -20.906 -0.28 -0.00    +0.004    36.382
ATOM     45  C   UNL d   1       2.485  11.349 -21.262 -0.20 -0.00    +0.012    36.382
ATOM     46  C   UNL d   1       2.902   3.273 -19.467 -0.36 -0.00    +0.004    36.382
ATOM     47  C   UNL d   1       3.793   3.161 -18.473 -0.46 -0.00    +0.012    36.382
TER
ENDMDL
MODEL       42
USER    Run = 42
USER    Cluster Rank = 61
USER    Number of conformations in this cluster = 1
USER  
USER    RMSD from reference structure       = 24.531 A
USER  
USER    Estimated Free Energy of Binding    =   -3.35 kcal/mol  [=(1)+(2)+(3)-(4)]
USER    Estimated Inhibition Constant, Ki   =    3.52 mM (millimolar)  [Temperature = 298.15 K]
USER    
USER    (1) Final Intermolecular Energy     =   -6.33 kcal/mol
USER        vdW + Hbond + desolv Energy     =   -3.57 kcal/mol
USER        Electrostatic Energy            =   -2.76 kcal/mol
USER    (2) Final Total Internal Energy     =   -2.52 kcal/mol
USER    (3) Torsional Free Energy           =   +2.98 kcal/mol
USER    (4) Unbound System's Energy  [=(2)] =   -2.52 kcal/mol
USER    
USER    
USER  
USER    DPF = D:/Protein_go_brrr/autodock/final/mut_N102T/heme_O2/dock.dpf
USER    NEWDPF move	heme_O2_opt.pdbqt
USER    NEWDPF about	8.287000 34.468000 -0.670000
USER    NEWDPF tran0	2.018809 18.199156 -18.823723
USER    NEWDPF axisangle0	0.759201 -0.566817 0.319893 -141.626490
USER    NEWDPF quaternion0	0.717029 -0.535332 0.302124 -0.328648
USER    NEWDPF dihe0	-180.00 -134.74 -27.59 63.84 12.21 147.10 -86.26 63.30 -178.52 -169.29 
USER  
USER                              x       y       z    vdW   Elec        q     RMS 
ATOM      1  C   UNL d   1       0.915  19.772 -19.722 -0.02 +0.06    +0.064    24.531
ATOM      2  C   UNL d   1       4.139  16.732 -21.432 -0.01 +0.01    +0.064    24.531
ATOM      3  C   UNL d   1       4.662  14.709 -17.104 -0.12 -0.02    +0.064    24.531
ATOM      4  C   UNL d   1       0.998  17.514 -15.440 -0.10 +0.01    +0.064    24.531
ATOM      5  C   UNL d   1       1.748  19.109 -20.540 -0.05 +0.05    +0.066    24.531
ATOM      6  C   UNL d   1       1.916  19.408 -21.895 -0.04 -0.01    -0.021    24.531
ATOM      7  C   UNL d   1       2.817  18.501 -22.402 -0.02 -0.01    -0.025    24.531
ATOM      8  C   UNL d   1       3.211  17.703 -21.331 -0.03 +0.02    +0.066    24.531
ATOM      9  C   UNL d   1       3.234  18.413 -23.854 -0.00 +0.01    +0.051    24.531
ATOM     10  C   UNL d   1       4.609  15.879 -20.340 -0.02 +0.00    +0.066    24.531
ATOM     11  C   UNL d   1       5.690  14.998 -20.462 -0.02 +0.00    -0.021    24.531
ATOM     12  C   UNL d   1       5.868  14.419 -19.220 -0.05 -0.00    +0.000    24.531
ATOM     13  C   UNL d   1       4.855  14.982 -18.395 -0.06 -0.01    +0.070    24.531
ATOM     14  C   UNL d   1       6.535  14.742 -21.705 -0.00 -0.00    +0.052    24.531
ATOM     15  C   UNL d   1       3.627  15.230 -16.244 -0.13 -0.01    +0.066    24.531
ATOM     16  C   UNL d   1       3.377  14.782 -14.947 -0.25 +0.00    -0.021    24.531
ATOM     17  C   UNL d   1       2.336  15.567 -14.453 -0.24 -0.00    +0.000    24.531
ATOM     18  C   UNL d   1       2.026  16.448 -15.498 -0.13 +0.01    +0.070    24.531
ATOM     19  C   UNL d   1       4.109  13.621 -14.323 -0.33 -0.02    +0.052    24.531
ATOM     20  C   UNL d   1       0.646  18.348 -16.438 -0.09 +0.02    +0.066    24.531
ATOM     21  C   UNL d   1      -0.318  19.345 -16.318 -0.07 -0.01    -0.025    24.531
ATOM     22  C   UNL d   1      -0.336  20.016 -17.520 -0.07 -0.01    -0.021    24.531
ATOM     23  C   UNL d   1       0.609  19.390 -18.338 -0.07 +0.05    +0.066    24.531
ATOM     24  C   UNL d   1      -1.181  19.640 -15.119 -0.04 +0.01    +0.051    24.531
ATOM     25  N   UNL d   1       2.503  18.036 -20.199 -0.05 -0.12    -0.248    24.531
ATOM     26  N   UNL d   1       4.091  15.865 -19.085 -0.01 -0.01    -0.248    24.531
ATOM     27  N   UNL d   1       2.768  16.180 -16.603 -0.06 -0.02    -0.248    24.531
ATOM     28  N   UNL d   1       1.171  18.348 -17.692 -0.08 -0.14    -0.248    24.531
ATOM     29 FE   UNL d   1       2.620  17.114 -18.381 -0.02 +0.00    +0.000    24.531
ATOM     30  O   UNL d   1       1.959  16.241 -19.487 -0.18 +0.00    +0.000    24.531
ATOM     31  O   UNL d   1       1.374  16.224 -18.024 -0.24 +0.00    +0.000    24.531
ATOM     32  C   UNL d   1       1.159  20.418 -22.719 -0.03 +0.02    +0.052    24.531
ATOM     33  C   UNL d   1      -0.024  19.808 -23.464 -0.04 +0.07    +0.115    24.531
ATOM     34  C   UNL d   1      -1.304  19.881 -22.668 +0.04 +0.17    +0.139    24.531
ATOM     35  O   UNL d   1      -2.064  18.926 -22.660 +0.18 -1.22    -0.650    24.531
ATOM     36  O   UNL d   1      -1.645  20.993 -21.985 -0.03 -0.71    -0.776    24.531
ATOM     37  H   UNL d   1      -2.459  21.047 -21.471 +0.00 +0.17    +0.167    24.531
ATOM     38  C   UNL d   1      -1.258  21.154 -17.878 -0.06 +0.03    +0.052    24.531
ATOM     39  C   UNL d   1      -2.715  20.711 -17.982 -0.06 +0.08    +0.115    24.531
ATOM     40  C   UNL d   1      -3.279  20.907 -19.367 +0.04 +0.13    +0.139    24.531
ATOM     41  O   UNL d   1      -3.456  22.036 -19.795 -0.02 -0.31    -0.650    24.531
ATOM     42  O   UNL d   1      -3.546  19.855 -20.165 -0.32 -1.40    -0.776    24.531
ATOM     43  H   UNL d   1      -3.254  19.832 -21.084 +0.04 +0.35    +0.167    24.531
ATOM     44  C   UNL d   1       6.962  13.405 -18.955 -0.07 -0.00    +0.004    24.531
ATOM     45  C   UNL d   1       7.632  13.201 -17.821 -0.07 -0.01    +0.012    24.531
ATOM     46  C   UNL d   1       1.596  15.516 -13.143 -0.25 -0.00    +0.004    24.531
ATOM     47  C   UNL d   1       2.098  15.605 -11.904 -0.31 -0.00    +0.012    24.531
TER
ENDMDL


AVSFLD: # AVS field file
AVSFLD: #
AVSFLD: # Created by AutoDock
AVSFLD: #
AVSFLD: ndim=2           # number of dimensions in the field
AVSFLD: nspace=1         # number of physical coordinates
AVSFLD: veclen=7         # vector size
AVSFLD: dim1=47          # atoms
AVSFLD: dim2=61          # conformations
AVSFLD: data=Real       # data type (byte,integer,Real,double)
AVSFLD: field=uniform    # field coordinate layout
AVSFLD: label= x y z vdW Elec q RMS
AVSFLD: variable 1 file = D:/Protein_go_brrr/autodock/final/mut_N102T/heme_O2/dock.dlg.pdb filetype = ascii offset = 5 stride = 12
AVSFLD: variable 2 file = D:/Protein_go_brrr/autodock/final/mut_N102T/heme_O2/dock.dlg.pdb filetype = ascii offset = 6 stride = 12
AVSFLD: variable 3 file = D:/Protein_go_brrr/autodock/final/mut_N102T/heme_O2/dock.dlg.pdb filetype = ascii offset = 7 stride = 12
AVSFLD: variable 4 file = D:/Protein_go_brrr/autodock/final/mut_N102T/heme_O2/dock.dlg.pdb filetype = ascii offset = 8 stride = 12
AVSFLD: variable 5 file = D:/Protein_go_brrr/autodock/final/mut_N102T/heme_O2/dock.dlg.pdb filetype = ascii offset = 9 stride = 12
AVSFLD: variable 6 file = D:/Protein_go_brrr/autodock/final/mut_N102T/heme_O2/dock.dlg.pdb filetype = ascii offset = 10 stride = 12
AVSFLD: variable 7 file = D:/Protein_go_brrr/autodock/final/mut_N102T/heme_O2/dock.dlg.pdb filetype = ascii offset = 11 stride = 12
AVSFLD: # end of file

>>> Closing the docking parameter file (DPF)...
This docking finished at:			8:48 00" a.m., 10/18/2025


________________________________________________________________________________

D:/autodockScripts/autodock4.exe: Successful Completion on "ACER"

Real= 7h 10m 51.67s,  CPU= 5m 47.38s,  System= 22.59s
________________________________________________________________________________

