          AutoDock 4.2 Release 4.2.6   
         (C) 1989-2012 The Scripps Research Institute
        AutoDock comes with ABSOLUTELY NO WARRANTY.
        AutoDock is free software, and you are welcome
        to redistribute it under certain conditions;
        for details type 'autodock4 -C'

                     main.cc  $Revision: 1.213 $

                   Compiled on Jul 18 2014 at 15:34:58


This file was created at:			3:30 37" p.m., 10/03/2025
                   on host:		"ACER"
Current Working Directory = "D:\Protein_go_brrr\autodock\final\mut_K82N\heme"

      ________________________________________________________________

                   SETTING UP DEFAULT PARAMETER LIBRARY
      ________________________________________________________________


Random number generator was seeded with values 166260, 1759498237.
Docking parameter file (DPF) used for this docking:		D:/Protein_go_brrr/autodock/final/mut_K82N/heme/dock.dpf
DPF> autodock_parameter_version 4.2       # used by autodock to validate parameter set

	Autodock parameter version 4.2.
DPF> outlev 1                             # diagnostic output level

Output Level = 1  ADT-COMPATIBLE OUTPUT DURING DOCKING.
DPF> intelec                              # calculate internal electrostatics

Electrostatic energies will be calculated for all non-bonds between moving atoms.
DPF> seed pid time                        # seeds for random generator

Random number generator was seeded with values 166260, 1759498237.
DPF> ligand_types A C NA OA N HD          # atoms types in ligand

DPF> fld mut_K82N_m0.maps.fld             # grid_data_file

Opening Grid Map Dimensions file:		mut_K82N_m0.maps.fld
Grid Point Spacing =				0.447 Angstroms

Even Number of User-specified Grid Points =	126 x-points
						124 y-points
						126 z-points

Coordinates of Central Grid Point of Maps =	(0.575, 0.825, 0.156)
Macromolecule file used to create Grid Maps =	mut_K82N_m0.pdbqt
Grid Parameter file used to create Grid Maps =	D:/Protein_go_brrr/autodock/final/mut_K82N/heme/grid.gpf
Minimum coordinates in grid = (-27.586, -26.889, -28.005)
Maximum coordinates in grid = (28.736, 28.539, 28.317)

DPF> map mut_K82N_m0.A.map                # atom-specific affinity map

DPF> map mut_K82N_m0.C.map                # atom-specific affinity map

DPF> map mut_K82N_m0.NA.map               # atom-specific affinity map

DPF> map mut_K82N_m0.OA.map               # atom-specific affinity map

DPF> map mut_K82N_m0.N.map                # atom-specific affinity map

DPF> map mut_K82N_m0.HD.map               # atom-specific affinity map

DPF> elecmap mut_K82N_m0.e.map            # electrostatics map

DPF> desolvmap mut_K82N_m0.d.map          # desolvation map

DPF> move heme_opt.pdbqt                  # small molecule

1,4-interactions will be _ignored_ in the non-bonded internal energy calculation.

Ligand PDBQT file = "heme_opt.pdbqt"

INPUT LIGAND PDBQT FILE:
________________________

INPUT-LIGAND-PDBQT: REMARK  13 active torsions:
INPUT-LIGAND-PDBQT: REMARK  status: ('A' for Active; 'I' for Inactive)
INPUT-LIGAND-PDBQT: REMARK    1  A    between atoms: O_3  and  C_38 
INPUT-LIGAND-PDBQT: REMARK    2  A    between atoms: O_4  and  C_40 
INPUT-LIGAND-PDBQT: REMARK    3  A    between atoms: O_7  and  C_46 
INPUT-LIGAND-PDBQT: REMARK    4  A    between atoms: O_9  and  C_48 
INPUT-LIGAND-PDBQT: REMARK    5  A    between atoms: C_15  and  C_20 
INPUT-LIGAND-PDBQT: REMARK    6  A    between atoms: C_16  and  C_23 
INPUT-LIGAND-PDBQT: REMARK    7  A    between atoms: C_20  and  C_38 
INPUT-LIGAND-PDBQT: REMARK    8  A    between atoms: C_23  and  C_40 
INPUT-LIGAND-PDBQT: REMARK    9  A    between atoms: C_32  and  C_41 
INPUT-LIGAND-PDBQT: REMARK   10  A    between atoms: C_37  and  C_45 
INPUT-LIGAND-PDBQT: REMARK   11  A    between atoms: C_41  and  C_44 
INPUT-LIGAND-PDBQT: REMARK   12  A    between atoms: C_44  and  C_46 
INPUT-LIGAND-PDBQT: REMARK   13  A    between atoms: C_47  and  C_48 
INPUT-LIGAND-PDBQT: ROOT
INPUT-LIGAND-PDBQT: ATOM      1  O   UNL d   1      -5.458   1.707   0.620  0.00  0.00    -0.289 OA
INPUT-LIGAND-PDBQT: ATOM      2  O   UNL d   1      -2.504  -4.828  -1.607  0.00  0.00    -0.289 OA
INPUT-LIGAND-PDBQT: ATOM      3  N   UNL d   1      -2.063   1.218   0.259  0.00  0.00    -0.247 NA
INPUT-LIGAND-PDBQT: ATOM      4  N   UNL d   1      -1.851  -1.684  -0.343  0.00  0.00    -0.247 NA
INPUT-LIGAND-PDBQT: ATOM      5  N   UNL d   1       0.972  -1.489   0.166  0.00  0.00    -0.354 N 
INPUT-LIGAND-PDBQT: ATOM      6  N   UNL d   1       0.740   1.517   0.808  0.00  0.00    -0.354 N 
INPUT-LIGAND-PDBQT: ATOM      7  C   UNL d   1      -3.467   3.037   1.112  0.00  0.00     0.084 A 
INPUT-LIGAND-PDBQT: ATOM      8  C   UNL d   1      -3.784  -2.753  -1.388  0.00  0.00     0.084 A 
INPUT-LIGAND-PDBQT: ATOM      9  C   UNL d   1      -3.156  -1.511  -0.747  0.00  0.00     0.058 A 
INPUT-LIGAND-PDBQT: ATOM     10  C   UNL d   1      -2.069   2.485   0.818  0.00  0.00     0.058 A 
INPUT-LIGAND-PDBQT: ATOM     11  C   UNL d   1      -4.251   1.865   0.603  0.00  0.00     0.193 A 
INPUT-LIGAND-PDBQT: ATOM     12  C   UNL d   1      -3.288   0.840   0.089  0.00  0.00     0.109 A 
INPUT-LIGAND-PDBQT: ATOM     13  C   UNL d   1      -2.606  -3.674  -1.239  0.00  0.00     0.193 A 
INPUT-LIGAND-PDBQT: ATOM     14  C   UNL d   1      -3.721   3.188   2.614  0.00  0.00     0.026 C 
INPUT-LIGAND-PDBQT: ATOM     15  C   UNL d   1      -3.838  -0.372  -0.551  0.00  0.00     0.055 C 
INPUT-LIGAND-PDBQT: ATOM     16  C   UNL d   1      -4.060  -2.544  -2.880  0.00  0.00     0.026 C 
INPUT-LIGAND-PDBQT: ATOM     17  C   UNL d   1      -1.503  -2.907  -0.585  0.00  0.00     0.109 A 
INPUT-LIGAND-PDBQT: ATOM     18  C   UNL d   1      -0.964   3.229   1.013  0.00  0.00     0.050 C 
INPUT-LIGAND-PDBQT: ATOM     19  C   UNL d   1       0.360   2.835   0.692  0.00  0.00     0.045 A 
INPUT-LIGAND-PDBQT: ATOM     20  C   UNL d   1       0.841  -2.851   0.084  0.00  0.00     0.045 A 
INPUT-LIGAND-PDBQT: ATOM     21  C   UNL d   1      -0.229  -3.570  -0.270  0.00  0.00     0.057 C 
INPUT-LIGAND-PDBQT: ATOM     22  C   UNL d   1       2.967  -2.353   0.755  0.00  0.00    -0.019 A 
INPUT-LIGAND-PDBQT: ATOM     23  C   UNL d   1       2.221  -1.093   0.564  0.00  0.00     0.045 A 
INPUT-LIGAND-PDBQT: ATOM     24  C   UNL d   1       2.145  -3.390   0.468  0.00  0.00    -0.022 A 
INPUT-LIGAND-PDBQT: ATOM     25  C   UNL d   1       2.081   1.375   0.536  0.00  0.00     0.049 A 
INPUT-LIGAND-PDBQT: ATOM     26  C   UNL d   1       1.473   3.562   0.299  0.00  0.00    -0.018 A 
INPUT-LIGAND-PDBQT: ATOM     27  C   UNL d   1       2.552   2.632   0.183  0.00  0.00     0.003 A 
INPUT-LIGAND-PDBQT: ATOM     28  C   UNL d   1       2.739   0.132   0.742  0.00  0.00     0.052 C 
INPUT-LIGAND-PDBQT: ATOM     29  C   UNL d   1       2.440  -4.851   0.501  0.00  0.00     0.046 C 
INPUT-LIGAND-PDBQT: ATOM     30  C   UNL d   1       1.533   5.030   0.044  0.00  0.00     0.046 C 
INPUT-LIGAND-PDBQT: ATOM     31  H   UNL d   1       0.223  -0.870  -0.125  0.00  0.00     0.166 HD
INPUT-LIGAND-PDBQT: ATOM     32  H   UNL d   1       0.112   0.776   1.096  0.00  0.00     0.166 HD
INPUT-LIGAND-PDBQT: ENDROOT
INPUT-LIGAND-PDBQT: BRANCH   7  33
INPUT-LIGAND-PDBQT: ATOM     33  C   UNL d   1      -3.845   4.310   0.347  0.00  0.00     0.141 C 
INPUT-LIGAND-PDBQT: BRANCH  33  34
INPUT-LIGAND-PDBQT: ATOM     34  C   UNL d   1      -3.538   4.215  -1.123  0.00  0.00     0.306 C 
INPUT-LIGAND-PDBQT: ATOM     35  O   UNL d   1      -3.917   3.340  -1.883  0.00  0.00    -0.251 OA
INPUT-LIGAND-PDBQT: BRANCH  34  36
INPUT-LIGAND-PDBQT: ATOM     36  O   UNL d   1      -2.771   5.230  -1.559  0.00  0.00    -0.481 OA
INPUT-LIGAND-PDBQT: ATOM     37  H   UNL d   1      -2.612   5.030  -2.506  0.00  0.00     0.295 HD
INPUT-LIGAND-PDBQT: ENDBRANCH  34  36
INPUT-LIGAND-PDBQT: ENDBRANCH  33  34
INPUT-LIGAND-PDBQT: ENDBRANCH   7  33
INPUT-LIGAND-PDBQT: BRANCH  27  38
INPUT-LIGAND-PDBQT: ATOM     38  C   UNL d   1       3.894   2.967  -0.187  0.00  0.00     0.017 C 
INPUT-LIGAND-PDBQT: ATOM     39  C   UNL d   1       4.701   2.208  -0.944  0.00  0.00     0.092 C 
INPUT-LIGAND-PDBQT: BRANCH  39  40
INPUT-LIGAND-PDBQT: ATOM     40  C   UNL d   1       6.052   2.675  -1.266  0.00  0.00     0.330 C 
INPUT-LIGAND-PDBQT: ATOM     41  O   UNL d   1       6.568   3.731  -0.953  0.00  0.00    -0.246 OA
INPUT-LIGAND-PDBQT: BRANCH  40  42
INPUT-LIGAND-PDBQT: ATOM     42  O   UNL d   1       6.703   1.746  -1.983  0.00  0.00    -0.477 OA
INPUT-LIGAND-PDBQT: ATOM     43  H   UNL d   1       7.581   2.148  -2.146  0.00  0.00     0.295 HD
INPUT-LIGAND-PDBQT: ENDBRANCH  40  42
INPUT-LIGAND-PDBQT: ENDBRANCH  39  40
INPUT-LIGAND-PDBQT: ENDBRANCH  27  38
INPUT-LIGAND-PDBQT: BRANCH   8  44
INPUT-LIGAND-PDBQT: ATOM     44  C   UNL d   1      -5.015  -3.316  -0.670  0.00  0.00     0.141 C 
INPUT-LIGAND-PDBQT: BRANCH  44  45
INPUT-LIGAND-PDBQT: ATOM     45  C   UNL d   1      -4.806  -3.504   0.809  0.00  0.00     0.306 C 
INPUT-LIGAND-PDBQT: ATOM     46  O   UNL d   1      -3.825  -3.985   1.349  0.00  0.00    -0.251 OA
INPUT-LIGAND-PDBQT: BRANCH  45  47
INPUT-LIGAND-PDBQT: ATOM     47  O   UNL d   1      -5.864  -3.098   1.534  0.00  0.00    -0.481 OA
INPUT-LIGAND-PDBQT: ATOM     48  H   UNL d   1      -5.613  -3.283   2.464  0.00  0.00     0.295 HD
INPUT-LIGAND-PDBQT: ENDBRANCH  45  47
INPUT-LIGAND-PDBQT: ENDBRANCH  44  45
INPUT-LIGAND-PDBQT: ENDBRANCH   8  44
INPUT-LIGAND-PDBQT: BRANCH  22  49
INPUT-LIGAND-PDBQT: ATOM     49  C   UNL d   1       4.395  -2.426   1.210  0.00  0.00     0.048 C 
INPUT-LIGAND-PDBQT: BRANCH  49  50
INPUT-LIGAND-PDBQT: ATOM     50  C   UNL d   1       5.372  -2.242   0.049  0.00  0.00     0.125 C 
INPUT-LIGAND-PDBQT: BRANCH  50  51
INPUT-LIGAND-PDBQT: ATOM     51  C   UNL d   1       6.794  -2.339   0.524  0.00  0.00     0.305 C 
INPUT-LIGAND-PDBQT: ATOM     52  O   UNL d   1       7.189  -2.431   1.673  0.00  0.00    -0.251 OA
INPUT-LIGAND-PDBQT: BRANCH  51  53
INPUT-LIGAND-PDBQT: ATOM     53  O   UNL d   1       7.671  -2.302  -0.499  0.00  0.00    -0.481 OA
INPUT-LIGAND-PDBQT: ATOM     54  H   UNL d   1       8.547  -2.365  -0.064  0.00  0.00     0.295 HD
INPUT-LIGAND-PDBQT: ENDBRANCH  51  53
INPUT-LIGAND-PDBQT: ENDBRANCH  50  51
INPUT-LIGAND-PDBQT: ENDBRANCH  49  50
INPUT-LIGAND-PDBQT: ENDBRANCH  22  49
INPUT-LIGAND-PDBQT: TORSDOF 13
________________________________________________________________________________

Total charge on ligand                               =	-0.002 e
REMARK  13 active torsions:
REMARK  status: ('A' for Active; 'I' for Inactive)
REMARK    1  A    between atoms: O_3  and  C_38 
REMARK    2  A    between atoms: O_4  and  C_40 
REMARK    3  A    between atoms: O_7  and  C_46 
REMARK    4  A    between atoms: O_9  and  C_48 
REMARK    5  A    between atoms: C_15  and  C_20 
REMARK    6  A    between atoms: C_16  and  C_23 
REMARK    7  A    between atoms: C_20  and  C_38 
REMARK    8  A    between atoms: C_23  and  C_40 
REMARK    9  A    between atoms: C_32  and  C_41 
REMARK   10  A    between atoms: C_37  and  C_45 
REMARK   11  A    between atoms: C_41  and  C_44 
REMARK   12  A    between atoms: C_44  and  C_46 
REMARK   13  A    between atoms: C_47  and  C_48 


Number of Rotatable Bonds in Small Molecule =	13 torsions
Number of atoms in ligand:  54

Number of non-hydrogen atoms in ligand:  48

Number of vibrational degrees of freedom of ligand:  156


Number of torsional degrees of freedom = 13
Estimated loss of torsional free energy upon binding = +3.8779 kcal/mol


DPF> about 0.153 0.018 -0.028            # small molecule center

Small molecule center of rotation =	(+0.153, +0.018, -0.028)

DPF> tran0 random                         # initial coordinates/A or random

Initial translation =			(23.610, 22.594, 7.111) Angstroms
DPF> quaternion0 random                   # initial orientation

Each run will begin with a new, random initial orientation.
Initial quaternion,  (x,y,z,w) =	( -0.187, 0.096, -0.738, 0.642 ),
DPF> dihe0 random                         # initial dihedrals (relative) or random

DPF> torsdof 13                            # torsional degrees of freedom

Number of torsional degrees of freedom = 13
Free energy coefficient for torsional degrees of freedom = 0.2983, the factory default value.

Estimated loss of torsional free energy upon binding = +3.8779 kcal/mol

DPF> rmstol 2.0                           # cluster_tolerance/A

Maximum RMS tolerance for conformational cluster analysis = 2.00 Angstroms
DPF> extnrg 1000.0                        # external grid energy

External grid energy (beyond grid map walls) = 1000.00

DPF> e0max 0.0 10000                      # max initial energy; max number of retries

Using user-specified maximum number of retries for simanneal initialization, 10000 retries.
If the simanneal initial energy is greater than e0max, 0.000,
then a new, random initial state will be created.

DPF> ga_pop_size 150                      # number of individuals in population

A population of 150 individuals will be used
DPF> ga_num_evals 25000000                # maximum number of energy evaluations

There will be at most 25000000 function evaluations used.
DPF> ga_num_generations 27000             # maximum number of generations

The GA will run for at most 27000 generations.
DPF> ga_elitism 1                         # number of top individuals to survive to next generation

The 1 best will be preserved each GA generation.
DPF> ga_mutation_rate 0.02                # rate of gene mutation

The mutation rate is 0.020000.
DPF> ga_crossover_rate 0.8                # rate of crossover

The crossover rate is 0.800000.
DPF> ga_window_size 10                    # 

The GA's selection window is 10 generations.
DPF> ga_cauchy_alpha 0.0                  # Alpha parameter of Cauchy distribution

The alpha parameter (for the Cauchy distribution) is being set to 0.000000.
DPF> ga_cauchy_beta 1.0                   # Beta parameter Cauchy distribution

The beta parameter (for the Cauchy distribution) is being set to 1.000000.
DPF> set_ga                               # set the above parameters for GA or LGA

DPF> sw_max_its 300                       # iterations of Solis & Wets local search

Solis & Wets algorithms will perform at most 300 iterations.
DPF> sw_max_succ 4                        # consecutive successes before changing rho

Solis & Wets algorithms expand rho every 4 in a row successes.
DPF> sw_max_fail 4                        # consecutive failures before changing rho

Solis & Wets algorithms contract rho every 4 in a row failures.
DPF> sw_rho 1.0                           # size of local search space to sample

rho is set to 1.000000.
DPF> sw_lb_rho 0.01                       # lower bound on rho

rho will never get smaller than 0.010000.
DPF> ls_search_freq 0.06                  # probability of performing local search on individual

Local search will be performed with frequency 0.060000.
DPF> set_psw1                             # set the above pseudo-Solis & Wets parameters

Creating a new Local Search object using the pseudo-Solis-Wets algorithm (pSW1) with the current settings.

DPF> unbound_model bound                  # state of unbound ligand

DPF> ga_run 100                           # do this many hybrid GA-LS runs

centering ligand on specified point: 0.153 0.018 -0.028
Furthest true ligand atom from "about" center is 8.726 Angstroms (maxrad).
Number of requested GA dockings = 100 runs
Unbound model to be used is 'same as bound' [AutoDock 4.2 default].

	BEGINNING GENETIC ALGORITHM DOCKING 1 of 100
Run: 1 Seed: 266209638 1125533117 [ Run 1 of 100 GA/GALS ]
Beginning LAMARCKIAN GENETIC ALGORITHM (LGA), with a maximum of 25000000 energy evaluations.

Final-Value: -11.099


	FINAL GENETIC ALGORITHM DOCKED STATE
	_______________________________________________


Detailed state:  trans 12.500 13.822 -2.865 quatxyzw -0.600603 0.163921 -0.635830 -0.456209 center 0.153 0.018 -0.028 ntor 13 145.1122 -136.6781 -95.9366 -24.9524 -137.1119 35.7689 123.0042 -106.6720 20.1218 -34.6781 36.3370 -90.5516 135.5988
State:	 12.500  13.822  -2.865  -0.675  0.184 -0.715 -125.715    145.11 -136.68  -95.94  -24.95 -137.11   35.77  123.00 -106.67   20.12  -34.68   36.34  -90.55  135.60

DOCKED: MODEL        1
DOCKED: USER    Run = 1
DOCKED: USER    DPF = D:/Protein_go_brrr/autodock/final/mut_K82N/heme/dock.dpf
DOCKED: USER  
DOCKED: USER    Estimated Free Energy of Binding    =   -3.19 kcal/mol  [=(1)+(2)+(3)-(4)]
DOCKED: USER    Estimated Inhibition Constant, Ki   =    4.56 mM (millimolar)  [Temperature = 298.15 K]
DOCKED: USER    
DOCKED: USER    (1) Final Intermolecular Energy     =   -7.07 kcal/mol
DOCKED: USER        vdW + Hbond + desolv Energy     =   -7.00 kcal/mol
DOCKED: USER        Electrostatic Energy            =   -0.07 kcal/mol
DOCKED: USER    (2) Final Total Internal Energy     =   -4.03 kcal/mol
DOCKED: USER    (3) Torsional Free Energy           =   +3.88 kcal/mol
DOCKED: USER    (4) Unbound System's Energy  [=(2)] =   -4.03 kcal/mol
DOCKED: USER    
DOCKED: USER    
DOCKED: USER    NEWDPF move heme_opt.pdbqt
DOCKED: USER    NEWDPF about 0.153000 0.018000 -0.028000
DOCKED: USER    NEWDPF tran0 12.499964 13.821670 -2.864902
DOCKED: USER    NEWDPF quaternion0 -0.600603 0.163921 -0.635830 -0.456209
DOCKED: USER    NEWDPF axisangle0 -0.674931 0.184208 -0.714518 -125.714506
DOCKED: USER    NEWDPF quat0 -0.674931 0.184208 -0.714518 -125.714506
DOCKED: USER    NEWDPF dihe0 145.11 -136.68 -95.94 -24.95 -137.11 35.77 123.00 -106.67 20.12 -34.68 36.34 -90.55 135.60 
DOCKED: USER  keepresnum = 1 
DOCKED: USER  
DOCKED: REMARK  13 active torsions:
DOCKED: REMARK  status: ('A' for Active; 'I' for Inactive)
DOCKED: REMARK    1  A    between atoms: O_3  and  C_38 
DOCKED: REMARK    2  A    between atoms: O_4  and  C_40 
DOCKED: REMARK    3  A    between atoms: O_7  and  C_46 
DOCKED: REMARK    4  A    between atoms: O_9  and  C_48 
DOCKED: REMARK    5  A    between atoms: C_15  and  C_20 
DOCKED: REMARK    6  A    between atoms: C_16  and  C_23 
DOCKED: REMARK    7  A    between atoms: C_20  and  C_38 
DOCKED: REMARK    8  A    between atoms: C_23  and  C_40 
DOCKED: REMARK    9  A    between atoms: C_32  and  C_41 
DOCKED: REMARK   10  A    between atoms: C_37  and  C_45 
DOCKED: REMARK   11  A    between atoms: C_41  and  C_44 
DOCKED: REMARK   12  A    between atoms: C_44  and  C_46 
DOCKED: REMARK   13  A    between atoms: C_47  and  C_48 
DOCKED: USER                              x       y       z     vdW  Elec       q    Type
DOCKED: USER                           _______ _______ _______ _____ _____    ______ ____
DOCKED: ROOT
DOCKED: ATOM      1  O   UNL d   1      12.966  17.507  -7.443 -0.04 +0.02    -0.289 OA
DOCKED: ATOM      2  O   UNL d   1       8.835  17.919  -1.186 -0.23 +0.03    -0.289 OA
DOCKED: ATOM      3  N   UNL d   1      12.917  15.005  -5.069 -0.12 +0.02    -0.247 NA
DOCKED: ATOM      4  N   UNL d   1      11.284  16.174  -2.879 -0.17 +0.06    -0.247 NA
DOCKED: ATOM      5  N   UNL d   1      12.212  14.050  -1.178 -0.18 +0.06    -0.354 N 
DOCKED: ATOM      6  N   UNL d   1      13.919  12.855  -3.450 -0.08 +0.07    -0.354 N 
DOCKED: ATOM      7  C   UNL d   1      14.200  15.422  -7.116 -0.07 -0.00    +0.084 A 
DOCKED: ATOM      8  C   UNL d   1       9.654  17.888  -3.493 -0.21 -0.02    +0.084 A 
DOCKED: ATOM      9  C   UNL d   1      10.802  16.959  -3.902 -0.21 -0.01    +0.058 A 
DOCKED: ATOM     10  C   UNL d   1      13.912  14.528  -5.906 -0.13 -0.00    +0.058 A 
DOCKED: ATOM     11  C   UNL d   1      13.178  16.479  -6.825 -0.06 -0.01    +0.193 A 
DOCKED: ATOM     12  C   UNL d   1      12.448  16.100  -5.574 -0.07 -0.01    +0.109 A 
DOCKED: ATOM     13  C   UNL d   1       9.599  17.511  -2.039 -0.18 -0.04    +0.193 A 
DOCKED: ATOM     14  C   UNL d   1      15.594  16.049  -7.048 -0.02 -0.00    +0.026 C 
DOCKED: ATOM     15  C   UNL d   1      11.323  16.952  -5.139 -0.11 -0.00    +0.055 C 
DOCKED: ATOM     16  C   UNL d   1       8.333  17.485  -4.156 -0.42 -0.01    +0.026 C 
DOCKED: ATOM     17  C   UNL d   1      10.642  16.470  -1.795 -0.06 -0.03    +0.109 A 
DOCKED: ATOM     18  C   UNL d   1      14.528  13.341  -5.746 -0.16 -0.00    +0.050 C 
DOCKED: ATOM     19  C   UNL d   1      14.266  12.412  -4.707 -0.20 -0.01    +0.045 A 
DOCKED: ATOM     20  C   UNL d   1      11.597  14.846  -0.247 -0.28 -0.01    +0.045 A 
DOCKED: ATOM     21  C   UNL d   1      10.851  15.938  -0.440 -0.27 -0.01    +0.057 C 
DOCKED: ATOM     22  C   UNL d   1      12.694  13.158   0.833 -0.18 +0.00    -0.019 A 
DOCKED: ATOM     23  C   UNL d   1      12.900  13.005  -0.621 -0.22 -0.00    +0.045 A 
DOCKED: ATOM     24  C   UNL d   1      11.921  14.248   1.048 -0.21 +0.00    -0.022 A 
DOCKED: ATOM     25  C   UNL d   1      13.801  11.796  -2.580 -0.17 -0.01    +0.049 A 
DOCKED: ATOM     26  C   UNL d   1      14.339  11.029  -4.662 -0.26 +0.00    -0.018 A 
DOCKED: ATOM     27  C   UNL d   1      14.025  10.644  -3.321 -0.30 -0.00    +0.003 A 
DOCKED: ATOM     28  C   UNL d   1      13.603  12.013  -1.190 -0.22 -0.01    +0.052 C 
DOCKED: ATOM     29  C   UNL d   1      11.432  14.805   2.342 -0.15 -0.00    +0.046 C 
DOCKED: ATOM     30  C   UNL d   1      14.677  10.117  -5.792 -0.20 -0.00    +0.046 C 
DOCKED: ATOM     31  H   UNL d   1      12.081  14.205  -2.172 +0.02 -0.04    +0.166 HD
DOCKED: ATOM     32  H   UNL d   1      13.811  13.833  -3.211 +0.04 -0.03    +0.166 HD
DOCKED: ENDROOT
DOCKED: BRANCH   7  33
DOCKED: ATOM     33  C   UNL d   1      13.937  14.781  -8.483 -0.10 -0.00    +0.141 C 
DOCKED: BRANCH  33  34
DOCKED: ATOM     34  C   UNL d   1      12.475  14.527  -8.732 -0.13 +0.00    +0.306 C 
DOCKED: ATOM     35  O   UNL d   1      11.834  13.565  -8.343 -0.20 -0.02    -0.251 OA
DOCKED: BRANCH  34  36
DOCKED: ATOM     36  O   UNL d   1      11.895  15.501  -9.456 -0.05 -0.00    -0.481 OA
DOCKED: ATOM     37  H   UNL d   1      12.315  16.328  -9.138 +0.06 -0.01    +0.295 HD
DOCKED: ENDBRANCH  34  36
DOCKED: ENDBRANCH  33  34
DOCKED: ENDBRANCH   7  33
DOCKED: BRANCH  27  38
DOCKED: ATOM     38  C   UNL d   1      14.000   9.298  -2.834 -0.25 -0.00    +0.017 C 
DOCKED: ATOM     39  C   UNL d   1      14.676   8.849  -1.766 -0.20 -0.00    +0.092 C 
DOCKED: BRANCH  39  40
DOCKED: ATOM     40  C   UNL d   1      14.551   7.446  -1.359 -0.10 +0.03    +0.330 C 
DOCKED: ATOM     41  O   UNL d   1      14.395   6.476  -2.075 -0.59 -0.06    -0.246 OA
DOCKED: BRANCH  40  42
DOCKED: ATOM     42  O   UNL d   1      14.642   7.343  -0.024 -0.06 -0.02    -0.477 OA
DOCKED: ATOM     43  H   UNL d   1      14.093   8.083   0.307 +0.06 -0.00    +0.295 HD
DOCKED: ENDBRANCH  40  42
DOCKED: ENDBRANCH  39  40
DOCKED: ENDBRANCH  27  38
DOCKED: BRANCH   8  44
DOCKED: ATOM     44  C   UNL d   1       9.924  19.386  -3.661 -0.10 -0.02    +0.141 C 
DOCKED: BRANCH  44  45
DOCKED: ATOM     45  C   UNL d   1      10.655  19.994  -2.494 -0.05 -0.03    +0.306 C 
DOCKED: ATOM     46  O   UNL d   1      11.850  19.920  -2.266 -0.02 +0.02    -0.251 OA
DOCKED: BRANCH  45  47
DOCKED: ATOM     47  O   UNL d   1       9.831  20.644  -1.653 -0.04 +0.04    -0.481 OA
DOCKED: ATOM     48  H   UNL d   1       9.466  19.943  -1.071 +0.08 -0.01    +0.295 HD
DOCKED: ENDBRANCH  45  47
DOCKED: ENDBRANCH  44  45
DOCKED: ENDBRANCH   8  44
DOCKED: BRANCH  22  49
DOCKED: ATOM     49  C   UNL d   1      13.278  12.241   1.868 -0.13 -0.00    +0.048 C 
DOCKED: BRANCH  49  50
DOCKED: ATOM     50  C   UNL d   1      14.787  12.072   1.691 -0.05 -0.00    +0.125 C 
DOCKED: BRANCH  50  51
DOCKED: ATOM     51  C   UNL d   1      15.209  10.664   2.000 -0.02 -0.01    +0.305 C 
DOCKED: ATOM     52  O   UNL d   1      15.899  10.282   2.928 -0.01 +0.00    -0.251 OA
DOCKED: BRANCH  51  53
DOCKED: ATOM     53  O   UNL d   1      14.737   9.786   1.092 -0.02 +0.01    -0.481 OA
DOCKED: ATOM     54  H   UNL d   1      15.372   9.039   1.131 +0.03 -0.01    +0.295 HD
DOCKED: ENDBRANCH  51  53
DOCKED: ENDBRANCH  50  51
DOCKED: ENDBRANCH  49  50
DOCKED: ENDBRANCH  22  49
DOCKED: TORSDOF 13
DOCKED: TER
DOCKED: ENDMDL
________________________________________________________________________________


	BEGINNING GENETIC ALGORITHM DOCKING 2 of 100
Run: 2 Seed: 1952023169 1917170506 [ Run 2 of 100 GA/GALS ]
Beginning LAMARCKIAN GENETIC ALGORITHM (LGA), with a maximum of 25000000 energy evaluations.

Final-Value: -12.179


	FINAL GENETIC ALGORITHM DOCKED STATE
	_______________________________________________


Detailed state:  trans 11.783 3.538 16.423 quatxyzw 0.415444 -0.477780 -0.225910 -0.740336 center 0.153 0.018 -0.028 ntor 13 -90.4182 -179.7754 114.8535 -127.0539 33.4558 -31.8277 -56.1090 -31.2971 124.0976 -135.3489 60.4964 -49.0982 128.0244
State:	 11.783   3.538  16.423   0.618 -0.711 -0.336 -84.480    -90.42 -179.78  114.85 -127.05   33.46  -31.83  -56.11  -31.30  124.10 -135.35   60.50  -49.10  128.02

DOCKED: MODEL        2
DOCKED: USER    Run = 2
DOCKED: USER    DPF = D:/Protein_go_brrr/autodock/final/mut_K82N/heme/dock.dpf
DOCKED: USER  
DOCKED: USER    Estimated Free Energy of Binding    =   -4.59 kcal/mol  [=(1)+(2)+(3)-(4)]
DOCKED: USER    Estimated Inhibition Constant, Ki   =  430.08 uM (micromolar)  [Temperature = 298.15 K]
DOCKED: USER    
DOCKED: USER    (1) Final Intermolecular Energy     =   -8.47 kcal/mol
DOCKED: USER        vdW + Hbond + desolv Energy     =   -8.33 kcal/mol
DOCKED: USER        Electrostatic Energy            =   -0.14 kcal/mol
DOCKED: USER    (2) Final Total Internal Energy     =   -3.71 kcal/mol
DOCKED: USER    (3) Torsional Free Energy           =   +3.88 kcal/mol
DOCKED: USER    (4) Unbound System's Energy  [=(2)] =   -3.71 kcal/mol
DOCKED: USER    
DOCKED: USER    
DOCKED: USER    NEWDPF move heme_opt.pdbqt
DOCKED: USER    NEWDPF about 0.153000 0.018000 -0.028000
DOCKED: USER    NEWDPF tran0 11.783423 3.538174 16.422775
DOCKED: USER    NEWDPF quaternion0 0.415444 -0.477780 -0.225910 -0.740336
DOCKED: USER    NEWDPF axisangle0 0.618002 -0.710732 -0.336057 -84.479904
DOCKED: USER    NEWDPF quat0 0.618002 -0.710732 -0.336057 -84.479904
DOCKED: USER    NEWDPF dihe0 -90.42 -179.78 114.85 -127.05 33.46 -31.83 -56.11 -31.30 124.10 -135.35 60.50 -49.10 128.02 
DOCKED: USER  keepresnum = 1 
DOCKED: USER  
DOCKED: REMARK  13 active torsions:
DOCKED: REMARK  status: ('A' for Active; 'I' for Inactive)
DOCKED: REMARK    1  A    between atoms: O_3  and  C_38 
DOCKED: REMARK    2  A    between atoms: O_4  and  C_40 
DOCKED: REMARK    3  A    between atoms: O_7  and  C_46 
DOCKED: REMARK    4  A    between atoms: O_9  and  C_48 
DOCKED: REMARK    5  A    between atoms: C_15  and  C_20 
DOCKED: REMARK    6  A    between atoms: C_16  and  C_23 
DOCKED: REMARK    7  A    between atoms: C_20  and  C_38 
DOCKED: REMARK    8  A    between atoms: C_23  and  C_40 
DOCKED: REMARK    9  A    between atoms: C_32  and  C_41 
DOCKED: REMARK   10  A    between atoms: C_37  and  C_45 
DOCKED: REMARK   11  A    between atoms: C_41  and  C_44 
DOCKED: REMARK   12  A    between atoms: C_44  and  C_46 
DOCKED: REMARK   13  A    between atoms: C_47  and  C_48 
DOCKED: USER                              x       y       z     vdW  Elec       q    Type
DOCKED: USER                           _______ _______ _______ _____ _____    ______ ____
DOCKED: ROOT
DOCKED: ATOM      1  O   UNL d   1       8.621   8.317  15.039 -0.24 +0.01    -0.289 OA
DOCKED: ATOM      2  O   UNL d   1      12.327   3.434  10.702 -0.09 +0.01    -0.289 OA
DOCKED: ATOM      3  N   UNL d   1      10.473   5.708  16.325 -0.12 +0.01    -0.247 NA
DOCKED: ATOM      4  N   UNL d   1      11.287   4.189  13.904 -0.13 +0.03    -0.247 NA
DOCKED: ATOM      5  N   UNL d   1      12.065   2.029  15.635 -0.08 +0.05    -0.354 N 
DOCKED: ATOM      6  N   UNL d   1      11.201   3.604  18.139 -0.08 -0.03    -0.354 N 
DOCKED: ATOM      7  C   UNL d   1       8.977   7.400  17.276 -0.16 -0.01    +0.084 A 
DOCKED: ATOM      8  C   UNL d   1      11.436   5.429  11.804 -0.17 -0.00    +0.084 A 
DOCKED: ATOM      9  C   UNL d   1      11.062   5.401  13.290 -0.21 -0.00    +0.058 A 
DOCKED: ATOM     10  C   UNL d   1       9.891   6.189  17.486 -0.15 +0.00    +0.058 A 
DOCKED: ATOM     11  C   UNL d   1       9.159   7.529  15.794 -0.21 -0.02    +0.193 A 
DOCKED: ATOM     12  C   UNL d   1      10.109   6.463  15.341 -0.22 -0.01    +0.109 A 
DOCKED: ATOM     13  C   UNL d   1      11.880   3.999  11.681 -0.06 -0.01    +0.193 A 
DOCKED: ATOM     14  C   UNL d   1       7.510   7.069  17.567 -0.26 -0.01    +0.026 C 
DOCKED: ATOM     15  C   UNL d   1      10.514   6.451  13.921 -0.27 -0.00    +0.055 C 
DOCKED: ATOM     16  C   UNL d   1      12.637   6.342  11.539 -0.07 -0.00    +0.026 C 
DOCKED: ATOM     17  C   UNL d   1      11.734   3.355  13.021 -0.14 -0.01    +0.109 A 
DOCKED: ATOM     18  C   UNL d   1      10.158   5.714  18.717 -0.17 +0.01    +0.050 C 
DOCKED: ATOM     19  C   UNL d   1      11.054   4.656  19.014 -0.19 +0.01    +0.045 A 
DOCKED: ATOM     20  C   UNL d   1      12.166   1.404  14.418 -0.24 -0.01    +0.045 A 
DOCKED: ATOM     21  C   UNL d   1      12.056   1.931  13.195 -0.25 -0.01    +0.057 C 
DOCKED: ATOM     22  C   UNL d   1      12.473  -0.143  16.070 -0.32 +0.00    -0.019 A 
DOCKED: ATOM     23  C   UNL d   1      12.236   1.175  16.692 -0.26 -0.01    +0.045 A 
DOCKED: ATOM     24  C   UNL d   1      12.432  -0.001  14.724 -0.26 +0.01    -0.022 A 
DOCKED: ATOM     25  C   UNL d   1      12.045   2.653  18.664 -0.22 +0.00    +0.049 A 
DOCKED: ATOM     26  C   UNL d   1      11.852   4.401  20.119 -0.17 -0.01    -0.018 A 
DOCKED: ATOM     27  C   UNL d   1      12.490   3.144  19.884 -0.15 +0.00    +0.003 A 
DOCKED: ATOM     28  C   UNL d   1      12.228   1.402  18.014 -0.29 -0.00    +0.052 C 
DOCKED: ATOM     29  C   UNL d   1      12.624  -1.037  13.670 -0.44 -0.01    +0.046 C 
DOCKED: ATOM     30  C   UNL d   1      12.015   5.270  21.319 -0.10 +0.02    +0.046 C 
DOCKED: ATOM     31  H   UNL d   1      11.957   3.035  15.702 +0.06 -0.02    +0.166 HD
DOCKED: ATOM     32  H   UNL d   1      10.712   3.538  17.254 +0.06 +0.01    +0.166 HD
DOCKED: ENDROOT
DOCKED: BRANCH   7  33
DOCKED: ATOM     33  C   UNL d   1       9.415   8.685  17.986 -0.05 -0.01    +0.141 C 
DOCKED: BRANCH  33  34
DOCKED: ATOM     34  C   UNL d   1       8.591   9.879  17.584 -0.04 -0.03    +0.306 C 
DOCKED: ATOM     35  O   UNL d   1       7.545  10.238  18.097 -0.04 +0.03    -0.251 OA
DOCKED: BRANCH  34  36
DOCKED: ATOM     36  O   UNL d   1       9.131  10.558  16.557 -0.04 +0.03    -0.481 OA
DOCKED: ATOM     37  H   UNL d   1       8.783  10.112  15.755 +0.05 -0.02    +0.295 HD
DOCKED: ENDBRANCH  34  36
DOCKED: ENDBRANCH  33  34
DOCKED: ENDBRANCH   7  33
DOCKED: BRANCH  27  38
DOCKED: ATOM     38  C   UNL d   1      13.393   2.495  20.786 -0.14 +0.01    +0.017 C 
DOCKED: ATOM     39  C   UNL d   1      13.808   1.223  20.685 -0.13 +0.02    +0.092 C 
DOCKED: BRANCH  39  40
DOCKED: ATOM     40  C   UNL d   1      14.751   0.683  21.668 -0.04 +0.07    +0.330 C 
DOCKED: ATOM     41  O   UNL d   1      15.649   1.272  22.238 -0.02 -0.05    -0.246 OA
DOCKED: BRANCH  40  42
DOCKED: ATOM     42  O   UNL d   1      14.491  -0.615  21.892 -0.00 -0.08    -0.477 OA
DOCKED: ATOM     43  H   UNL d   1      13.729  -0.805  21.308 +0.06 +0.05    +0.295 HD
DOCKED: ENDBRANCH  40  42
DOCKED: ENDBRANCH  39  40
DOCKED: ENDBRANCH  27  38
DOCKED: BRANCH   8  44
DOCKED: ATOM     44  C   UNL d   1      10.285   5.732  10.839 -0.30 -0.01    +0.141 C 
DOCKED: BRANCH  44  45
DOCKED: ATOM     45  C   UNL d   1      10.730   5.866   9.407 -0.17 +0.00    +0.306 C 
DOCKED: ATOM     46  O   UNL d   1      10.919   6.905   8.799 -0.16 -0.02    -0.251 OA
DOCKED: BRANCH  45  47
DOCKED: ATOM     47  O   UNL d   1      10.889   4.674   8.804 -0.11 -0.02    -0.481 OA
DOCKED: ATOM     48  H   UNL d   1      11.642   4.256   9.274 +0.12 -0.00    +0.295 HD
DOCKED: ENDBRANCH  45  47
DOCKED: ENDBRANCH  44  45
DOCKED: ENDBRANCH   8  44
DOCKED: BRANCH  22  49
DOCKED: ATOM     49  C   UNL d   1      12.700  -1.410  16.842 -0.39 -0.00    +0.048 C 
DOCKED: BRANCH  49  50
DOCKED: ATOM     50  C   UNL d   1      11.715  -1.554  18.002 -0.41 -0.01    +0.125 C 
DOCKED: BRANCH  50  51
DOCKED: ATOM     51  C   UNL d   1      12.439  -1.599  19.318 -0.22 +0.01    +0.305 C 
DOCKED: ATOM     52  O   UNL d   1      13.504  -2.138  19.562 -0.11 -0.02    -0.251 OA
DOCKED: BRANCH  51  53
DOCKED: ATOM     53  O   UNL d   1      11.760  -0.955  20.288 -0.14 -0.04    -0.481 OA
DOCKED: ATOM     54  H   UNL d   1      10.865  -1.352  20.256 -0.45 -0.05    +0.295 HD
DOCKED: ENDBRANCH  51  53
DOCKED: ENDBRANCH  50  51
DOCKED: ENDBRANCH  49  50
DOCKED: ENDBRANCH  22  49
DOCKED: TORSDOF 13
DOCKED: TER
DOCKED: ENDMDL
________________________________________________________________________________


	BEGINNING GENETIC ALGORITHM DOCKING 3 of 100
Run: 3 Seed: 1338910357 1772645969 [ Run 3 of 100 GA/GALS ]
Beginning LAMARCKIAN GENETIC ALGORITHM (LGA), with a maximum of 25000000 energy evaluations.

Final-Value: -10.944


	FINAL GENETIC ALGORITHM DOCKED STATE
	_______________________________________________


Detailed state:  trans -2.971 12.948 -16.583 quatxyzw -0.484143 0.731976 -0.119366 0.464293 center 0.153 0.018 -0.028 ntor 13 -104.3823 -148.8818 123.6917 -1.9407 34.4785 2.6601 -51.0449 -33.4167 133.6643 -138.3537 56.0284 -75.4132 127.0791
State:	 -2.971  12.948 -16.583  -0.547  0.826 -0.135 124.671   -104.38 -148.88  123.69   -1.94   34.48    2.66  -51.04  -33.42  133.66 -138.35   56.03  -75.41  127.08

DOCKED: MODEL        3
DOCKED: USER    Run = 3
DOCKED: USER    DPF = D:/Protein_go_brrr/autodock/final/mut_K82N/heme/dock.dpf
DOCKED: USER  
DOCKED: USER    Estimated Free Energy of Binding    =   -2.98 kcal/mol  [=(1)+(2)+(3)-(4)]
DOCKED: USER    Estimated Inhibition Constant, Ki   =    6.54 mM (millimolar)  [Temperature = 298.15 K]
DOCKED: USER    
DOCKED: USER    (1) Final Intermolecular Energy     =   -6.86 kcal/mol
DOCKED: USER        vdW + Hbond + desolv Energy     =   -6.89 kcal/mol
DOCKED: USER        Electrostatic Energy            =   +0.03 kcal/mol
DOCKED: USER    (2) Final Total Internal Energy     =   -4.09 kcal/mol
DOCKED: USER    (3) Torsional Free Energy           =   +3.88 kcal/mol
DOCKED: USER    (4) Unbound System's Energy  [=(2)] =   -4.09 kcal/mol
DOCKED: USER    
DOCKED: USER    
DOCKED: USER    NEWDPF move heme_opt.pdbqt
DOCKED: USER    NEWDPF about 0.153000 0.018000 -0.028000
DOCKED: USER    NEWDPF tran0 -2.971224 12.948255 -16.583265
DOCKED: USER    NEWDPF quaternion0 -0.484143 0.731976 -0.119366 0.464293
DOCKED: USER    NEWDPF axisangle0 -0.546633 0.826455 -0.134773 124.671042
DOCKED: USER    NEWDPF quat0 -0.546633 0.826455 -0.134773 124.671042
DOCKED: USER    NEWDPF dihe0 -104.38 -148.88 123.69 -1.94 34.48 2.66 -51.04 -33.42 133.66 -138.35 56.03 -75.41 127.08 
DOCKED: USER  keepresnum = 1 
DOCKED: USER  
DOCKED: REMARK  13 active torsions:
DOCKED: REMARK  status: ('A' for Active; 'I' for Inactive)
DOCKED: REMARK    1  A    between atoms: O_3  and  C_38 
DOCKED: REMARK    2  A    between atoms: O_4  and  C_40 
DOCKED: REMARK    3  A    between atoms: O_7  and  C_46 
DOCKED: REMARK    4  A    between atoms: O_9  and  C_48 
DOCKED: REMARK    5  A    between atoms: C_15  and  C_20 
DOCKED: REMARK    6  A    between atoms: C_16  and  C_23 
DOCKED: REMARK    7  A    between atoms: C_20  and  C_38 
DOCKED: REMARK    8  A    between atoms: C_23  and  C_40 
DOCKED: REMARK    9  A    between atoms: C_32  and  C_41 
DOCKED: REMARK   10  A    between atoms: C_37  and  C_45 
DOCKED: REMARK   11  A    between atoms: C_41  and  C_44 
DOCKED: REMARK   12  A    between atoms: C_44  and  C_46 
DOCKED: REMARK   13  A    between atoms: C_47  and  C_48 
DOCKED: USER                              x       y       z     vdW  Elec       q    Type
DOCKED: USER                           _______ _______ _______ _____ _____    ______ ____
DOCKED: ROOT
DOCKED: ATOM      1  O   UNL d   1      -4.160  16.748 -20.932 -0.00 +0.08    -0.289 OA
DOCKED: ATOM      2  O   UNL d   1       2.157  13.087 -19.175 -0.02 +0.09    -0.289 OA
DOCKED: ATOM      3  N   UNL d   1      -3.895  14.697 -18.171 +0.00 +0.29    -0.247 NA
DOCKED: ATOM      4  N   UNL d   1      -1.198  13.488 -18.475 -0.08 +0.26    -0.247 NA
DOCKED: ATOM      5  N   UNL d   1      -1.927  11.580 -16.451 -0.12 +0.28    -0.354 N 
DOCKED: ATOM      6  N   UNL d   1      -4.730  12.829 -16.156 -0.07 +0.24    -0.354 N 
DOCKED: ATOM      7  C   UNL d   1      -5.726  15.919 -19.249 -0.02 -0.03    +0.084 A 
DOCKED: ATOM      8  C   UNL d   1       0.461  14.758 -19.741 -0.04 -0.05    +0.084 A 
DOCKED: ATOM      9  C   UNL d   1      -0.981  14.607 -19.247 -0.08 -0.05    +0.058 A 
DOCKED: ATOM     10  C   UNL d   1      -5.248  14.989 -18.130 -0.06 -0.04    +0.058 A 
DOCKED: ATOM     11  C   UNL d   1      -4.400  16.116 -19.919 -0.02 -0.08    +0.193 A 
DOCKED: ATOM     12  C   UNL d   1      -3.367  15.346 -19.157 -0.05 -0.09    +0.109 A 
DOCKED: ATOM     13  C   UNL d   1       1.014  13.498 -19.138 -0.04 -0.10    +0.193 A 
DOCKED: ATOM     14  C   UNL d   1      -6.672  15.209 -20.221 -0.00 -0.01    +0.026 C 
DOCKED: ATOM     15  C   UNL d   1      -1.957  15.465 -19.582 -0.07 -0.04    +0.055 C 
DOCKED: ATOM     16  C   UNL d   1       1.159  15.960 -19.097 -0.06 -0.02    +0.026 C 
DOCKED: ATOM     17  C   UNL d   1      -0.094  12.816 -18.403 -0.09 -0.08    +0.109 A 
DOCKED: ATOM     18  C   UNL d   1      -6.078  14.580 -17.152 -0.08 -0.02    +0.050 C 
DOCKED: ATOM     19  C   UNL d   1      -5.707  13.791 -16.034 -0.13 -0.02    +0.045 A 
DOCKED: ATOM     20  C   UNL d   1      -0.752  11.025 -16.885 -0.21 -0.03    +0.045 A 
DOCKED: ATOM     21  C   UNL d   1       0.144  11.524 -17.742 -0.17 -0.03    +0.057 C 
DOCKED: ATOM     22  C   UNL d   1      -1.751   9.585 -15.420 -0.36 +0.01    -0.019 A 
DOCKED: ATOM     23  C   UNL d   1      -2.602  10.784 -15.564 -0.27 -0.02    +0.045 A 
DOCKED: ATOM     24  C   UNL d   1      -0.657   9.734 -16.204 -0.31 +0.01    -0.022 A 
DOCKED: ATOM     25  C   UNL d   1      -4.595  12.126 -14.982 -0.24 -0.02    +0.049 A 
DOCKED: ATOM     26  C   UNL d   1      -6.192  13.736 -14.736 -0.24 +0.00    -0.018 A 
DOCKED: ATOM     27  C   UNL d   1      -5.473  12.696 -14.071 -0.33 -0.00    +0.003 A 
DOCKED: ATOM     28  C   UNL d   1      -3.758  10.979 -14.911 -0.31 -0.02    +0.052 C 
DOCKED: ATOM     29  C   UNL d   1       0.492   8.803 -16.388 -0.38 -0.01    +0.046 C 
DOCKED: ATOM     30  C   UNL d   1      -7.258  14.598 -14.147 -0.11 -0.00    +0.046 C 
DOCKED: ATOM     31  H   UNL d   1      -2.196  12.521 -16.719 +0.03 -0.21    +0.166 HD
DOCKED: ATOM     32  H   UNL d   1      -4.222  12.652 -17.015 +0.03 -0.12    +0.166 HD
DOCKED: ENDROOT
DOCKED: BRANCH   7  33
DOCKED: ATOM     33  C   UNL d   1      -6.300  17.262 -18.786 -0.01 -0.04    +0.141 C 
DOCKED: BRANCH  33  34
DOCKED: ATOM     34  C   UNL d   1      -6.780  18.112 -19.931 +0.00 -0.05    +0.306 C 
DOCKED: ATOM     35  O   UNL d   1      -7.896  18.097 -20.422 +0.00 +0.03    -0.251 OA
DOCKED: BRANCH  34  36
DOCKED: ATOM     36  O   UNL d   1      -5.828  18.940 -20.397 +0.00 +0.08    -0.481 OA
DOCKED: ATOM     37  H   UNL d   1      -5.207  18.355 -20.881 +0.00 -0.05    +0.295 HD
DOCKED: ENDBRANCH  34  36
DOCKED: ENDBRANCH  33  34
DOCKED: ENDBRANCH   7  33
DOCKED: BRANCH  27  38
DOCKED: ATOM     38  C   UNL d   1      -5.673  12.293 -12.712 -0.44 -0.00    +0.017 C 
DOCKED: ATOM     39  C   UNL d   1      -5.640  11.028 -12.266 -0.35 -0.02    +0.092 C 
DOCKED: BRANCH  39  40
DOCKED: ATOM     40  C   UNL d   1      -5.844  10.750 -10.842 -0.13 -0.06    +0.330 C 
DOCKED: ATOM     41  O   UNL d   1      -6.062  11.550  -9.952 -0.42 +0.03    -0.246 OA
DOCKED: BRANCH  40  42
DOCKED: ATOM     42  O   UNL d   1      -5.768   9.430 -10.614 -0.09 +0.10    -0.477 OA
DOCKED: ATOM     43  H   UNL d   1      -5.135   9.111 -11.290 -0.25 -0.12    +0.295 HD
DOCKED: ENDBRANCH  40  42
DOCKED: ENDBRANCH  39  40
DOCKED: ENDBRANCH  27  38
DOCKED: BRANCH   8  44
DOCKED: ATOM     44  C   UNL d   1       0.641  14.763 -21.263 -0.00 -0.04    +0.141 C 
DOCKED: BRANCH  44  45
DOCKED: ATOM     45  C   UNL d   1       2.042  15.104 -21.695 +0.00 -0.06    +0.306 C 
DOCKED: ATOM     46  O   UNL d   1       2.457  16.205 -22.013 +0.00 +0.04    -0.251 OA
DOCKED: BRANCH  45  47
DOCKED: ATOM     47  O   UNL d   1       2.846  14.027 -21.730 +0.00 +0.07    -0.481 OA
DOCKED: ATOM     48  H   UNL d   1       2.807  13.658 -20.821 +0.01 -0.05    +0.295 HD
DOCKED: ENDBRANCH  45  47
DOCKED: ENDBRANCH  44  45
DOCKED: ENDBRANCH   8  44
DOCKED: BRANCH  22  49
DOCKED: ATOM     49  C   UNL d   1      -2.091   8.410 -14.550 -0.39 -0.01    +0.048 C 
DOCKED: BRANCH  49  50
DOCKED: ATOM     50  C   UNL d   1      -3.559   8.007 -14.687 -0.39 -0.03    +0.125 C 
DOCKED: BRANCH  50  51
DOCKED: ATOM     51  C   UNL d   1      -4.248   8.030 -13.353 -0.24 -0.06    +0.305 C 
DOCKED: ATOM     52  O   UNL d   1      -3.802   7.666 -12.279 -0.37 +0.05    -0.251 OA
DOCKED: BRANCH  51  53
DOCKED: ATOM     53  O   UNL d   1      -5.504   8.512 -13.442 -0.06 +0.07    -0.481 OA
DOCKED: ATOM     54  H   UNL d   1      -5.853   8.439 -12.529 +0.13 -0.04    +0.295 HD
DOCKED: ENDBRANCH  51  53
DOCKED: ENDBRANCH  50  51
DOCKED: ENDBRANCH  49  50
DOCKED: ENDBRANCH  22  49
DOCKED: TORSDOF 13
DOCKED: TER
DOCKED: ENDMDL
________________________________________________________________________________


	BEGINNING GENETIC ALGORITHM DOCKING 4 of 100
Run: 4 Seed: 2052636263 1855264780 [ Run 4 of 100 GA/GALS ]
Beginning LAMARCKIAN GENETIC ALGORITHM (LGA), with a maximum of 25000000 energy evaluations.

Final-Value: -11.811


	FINAL GENETIC ALGORITHM DOCKED STATE
	_______________________________________________


Detailed state:  trans 12.362 2.910 14.880 quatxyzw 0.709917 0.191918 -0.672661 -0.081928 center 0.153 0.018 -0.028 ntor 13 110.6183 122.0264 177.4190 52.0008 177.8785 -30.4175 145.8508 57.1428 -20.1258 -14.6602 -88.6487 16.4721 -6.5865
State:	 12.362   2.910  14.880   0.712  0.193 -0.675 -170.601    110.62  122.03  177.42   52.00  177.88  -30.42  145.85   57.14  -20.13  -14.66  -88.65   16.47   -6.59

DOCKED: MODEL        4
DOCKED: USER    Run = 4
DOCKED: USER    DPF = D:/Protein_go_brrr/autodock/final/mut_K82N/heme/dock.dpf
DOCKED: USER  
DOCKED: USER    Estimated Free Energy of Binding    =   -3.40 kcal/mol  [=(1)+(2)+(3)-(4)]
DOCKED: USER    Estimated Inhibition Constant, Ki   =    3.22 mM (millimolar)  [Temperature = 298.15 K]
DOCKED: USER    
DOCKED: USER    (1) Final Intermolecular Energy     =   -7.28 kcal/mol
DOCKED: USER        vdW + Hbond + desolv Energy     =   -7.24 kcal/mol
DOCKED: USER        Electrostatic Energy            =   -0.04 kcal/mol
DOCKED: USER    (2) Final Total Internal Energy     =   -4.53 kcal/mol
DOCKED: USER    (3) Torsional Free Energy           =   +3.88 kcal/mol
DOCKED: USER    (4) Unbound System's Energy  [=(2)] =   -4.53 kcal/mol
DOCKED: USER    
DOCKED: USER    
DOCKED: USER    NEWDPF move heme_opt.pdbqt
DOCKED: USER    NEWDPF about 0.153000 0.018000 -0.028000
DOCKED: USER    NEWDPF tran0 12.361927 2.909607 14.879550
DOCKED: USER    NEWDPF quaternion0 0.709917 0.191918 -0.672661 -0.081928
DOCKED: USER    NEWDPF axisangle0 0.712312 0.192565 -0.674930 -170.601154
DOCKED: USER    NEWDPF quat0 0.712312 0.192565 -0.674930 -170.601154
DOCKED: USER    NEWDPF dihe0 110.62 122.03 177.42 52.00 177.88 -30.42 145.85 57.14 -20.13 -14.66 -88.65 16.47 -6.59 
DOCKED: USER  keepresnum = 1 
DOCKED: USER  
DOCKED: REMARK  13 active torsions:
DOCKED: REMARK  status: ('A' for Active; 'I' for Inactive)
DOCKED: REMARK    1  A    between atoms: O_3  and  C_38 
DOCKED: REMARK    2  A    between atoms: O_4  and  C_40 
DOCKED: REMARK    3  A    between atoms: O_7  and  C_46 
DOCKED: REMARK    4  A    between atoms: O_9  and  C_48 
DOCKED: REMARK    5  A    between atoms: C_15  and  C_20 
DOCKED: REMARK    6  A    between atoms: C_16  and  C_23 
DOCKED: REMARK    7  A    between atoms: C_20  and  C_38 
DOCKED: REMARK    8  A    between atoms: C_23  and  C_40 
DOCKED: REMARK    9  A    between atoms: C_32  and  C_41 
DOCKED: REMARK   10  A    between atoms: C_37  and  C_45 
DOCKED: REMARK   11  A    between atoms: C_41  and  C_44 
DOCKED: REMARK   12  A    between atoms: C_44  and  C_46 
DOCKED: REMARK   13  A    between atoms: C_47  and  C_48 
DOCKED: USER                              x       y       z     vdW  Elec       q    Type
DOCKED: USER                           _______ _______ _______ _____ _____    ______ ____
DOCKED: ROOT
DOCKED: ATOM      1  O   UNL d   1      12.290   0.215  20.122 -0.20 -0.05    -0.289 OA
DOCKED: ATOM      2  O   UNL d   1      11.909   7.494  18.317 -0.01 -0.01    -0.289 OA
DOCKED: ATOM      3  N   UNL d   1      12.509   1.347  16.872 -0.13 +0.02    -0.247 NA
DOCKED: ATOM      4  N   UNL d   1      11.959   4.256  17.124 -0.08 -0.00    -0.247 NA
DOCKED: ATOM      5  N   UNL d   1      11.624   4.346  14.270 -0.07 +0.03    -0.354 N 
DOCKED: ATOM      6  N   UNL d   1      12.176   1.323  14.020 -0.09 +0.07    -0.354 N 
DOCKED: ATOM      7  C   UNL d   1      12.387  -0.861  17.929 -0.35 -0.00    +0.084 A 
DOCKED: ATOM      8  C   UNL d   1      12.473   5.310  19.268 -0.07 +0.01    +0.084 A 
DOCKED: ATOM      9  C   UNL d   1      12.370   4.038  18.420 -0.14 +0.01    +0.058 A 
DOCKED: ATOM     10  C   UNL d   1      12.477  -0.020  16.653 -0.31 -0.01    +0.058 A 
DOCKED: ATOM     11  C   UNL d   1      12.392   0.272  18.911 -0.20 +0.01    +0.193 A 
DOCKED: ATOM     12  C   UNL d   1      12.495   1.557  18.148 -0.20 +0.00    +0.109 A 
DOCKED: ATOM     13  C   UNL d   1      12.008   6.286  18.224 -0.02 +0.01    +0.193 A 
DOCKED: ATOM     14  C   UNL d   1      11.052  -1.602  18.036 -0.18 -0.00    +0.026 C 
DOCKED: ATOM     15  C   UNL d   1      12.610   2.814  18.915 -0.21 +0.01    +0.055 C 
DOCKED: ATOM     16  C   UNL d   1      13.925   5.633  19.632 -0.04 +0.00    +0.026 C 
DOCKED: ATOM     17  C   UNL d   1      11.722   5.520  16.974 -0.08 +0.00    +0.109 A 
DOCKED: ATOM     18  C   UNL d   1      12.605  -0.593  15.441 -0.32 -0.01    +0.050 C 
DOCKED: ATOM     19  C   UNL d   1      12.779   0.102  14.217 -0.28 -0.01    +0.045 A 
DOCKED: ATOM     20  C   UNL d   1      11.175   5.598  14.599 -0.17 -0.00    +0.045 A 
DOCKED: ATOM     21  C   UNL d   1      11.204   6.214  15.785 -0.13 -0.00    +0.057 C 
DOCKED: ATOM     22  C   UNL d   1      10.792   5.238  12.376 -0.22 +0.00    -0.019 A 
DOCKED: ATOM     23  C   UNL d   1      11.434   4.038  12.949 -0.15 -0.00    +0.045 A 
DOCKED: ATOM     24  C   UNL d   1      10.642   6.158  13.357 -0.25 +0.00    -0.022 A 
DOCKED: ATOM     25  C   UNL d   1      12.402   1.772  12.739 -0.20 -0.01    +0.049 A 
DOCKED: ATOM     26  C   UNL d   1      13.444  -0.234  13.048 -0.26 +0.00    -0.018 A 
DOCKED: ATOM     27  C   UNL d   1      13.219   0.834  12.125 -0.20 -0.00    +0.003 A 
DOCKED: ATOM     28  C   UNL d   1      11.750   2.937  12.249 -0.08 -0.00    +0.052 C 
DOCKED: ATOM     29  C   UNL d   1      10.059   7.528  13.271 -0.26 +0.00    +0.046 C 
DOCKED: ATOM     30  C   UNL d   1      14.243  -1.469  12.801 -0.29 -0.01    +0.046 C 
DOCKED: ATOM     31  H   UNL d   1      12.113   3.768  14.944 +0.05 -0.01    +0.166 HD
DOCKED: ATOM     32  H   UNL d   1      11.613   1.790  14.721 +0.09 -0.03    +0.166 HD
DOCKED: ENDROOT
DOCKED: BRANCH   7  33
DOCKED: ATOM     33  C   UNL d   1      13.573  -1.798  18.184 -0.22 +0.01    +0.141 C 
DOCKED: BRANCH  33  34
DOCKED: ATOM     34  C   UNL d   1      14.851  -1.295  17.569 -0.08 +0.01    +0.306 C 
DOCKED: ATOM     35  O   UNL d   1      15.591  -1.924  16.832 -0.10 -0.02    -0.251 OA
DOCKED: BRANCH  34  36
DOCKED: ATOM     36  O   UNL d   1      15.126  -0.025  17.912 +0.01 -0.01    -0.481 OA
DOCKED: ATOM     37  H   UNL d   1      14.470   0.512  17.419 +0.07 +0.00    +0.295 HD
DOCKED: ENDBRANCH  34  36
DOCKED: ENDBRANCH  33  34
DOCKED: ENDBRANCH   7  33
DOCKED: BRANCH  27  38
DOCKED: ATOM     38  C   UNL d   1      13.717   0.884  10.784 -0.10 -0.00    +0.017 C 
DOCKED: ATOM     39  C   UNL d   1      14.425   1.896  10.258 -0.10 -0.01    +0.092 C 
DOCKED: BRANCH  39  40
DOCKED: ATOM     40  C   UNL d   1      14.893   1.816   8.872 -0.05 +0.00    +0.330 C 
DOCKED: ATOM     41  O   UNL d   1      15.224   0.822   8.255 -0.42 -0.02    -0.246 OA
DOCKED: BRANCH  40  42
DOCKED: ATOM     42  O   UNL d   1      14.910   3.039   8.320 +0.00 +0.01    -0.477 OA
DOCKED: ATOM     43  H   UNL d   1      13.984   3.347   8.403 +0.05 -0.00    +0.295 HD
DOCKED: ENDBRANCH  40  42
DOCKED: ENDBRANCH  39  40
DOCKED: ENDBRANCH  27  38
DOCKED: BRANCH   8  44
DOCKED: ATOM     44  C   UNL d   1      11.568   5.355  20.503 -0.13 +0.04    +0.141 C 
DOCKED: BRANCH  44  45
DOCKED: ATOM     45  C   UNL d   1      10.101   5.356  20.166 -0.15 +0.08    +0.306 C 
DOCKED: ATOM     46  O   UNL d   1       9.341   4.405  20.226 -0.34 -0.11    -0.251 OA
DOCKED: BRANCH  45  47
DOCKED: ATOM     47  O   UNL d   1       9.672   6.558  19.740 -0.02 -0.06    -0.481 OA
DOCKED: ATOM     48  H   UNL d   1      10.454   7.144  19.821 +0.05 +0.03    +0.295 HD
DOCKED: ENDBRANCH  45  47
DOCKED: ENDBRANCH  44  45
DOCKED: ENDBRANCH   8  44
DOCKED: BRANCH  22  49
DOCKED: ATOM     49  C   UNL d   1      10.374   5.365  10.940 -0.27 -0.00    +0.048 C 
DOCKED: BRANCH  49  50
DOCKED: ATOM     50  C   UNL d   1      11.491   5.945  10.073 -0.18 -0.00    +0.125 C 
DOCKED: BRANCH  50  51
DOCKED: ATOM     51  C   UNL d   1      12.326   4.850   9.471 -0.09 -0.00    +0.305 C 
DOCKED: ATOM     52  O   UNL d   1      11.938   3.873   8.855 -0.17 +0.00    -0.251 OA
DOCKED: BRANCH  51  53
DOCKED: ATOM     53  O   UNL d   1      13.642   5.039   9.694 +0.01 +0.01    -0.481 OA
DOCKED: ATOM     54  H   UNL d   1      14.047   4.962   8.805 +0.04 -0.00    +0.295 HD
DOCKED: ENDBRANCH  51  53
DOCKED: ENDBRANCH  50  51
DOCKED: ENDBRANCH  49  50
DOCKED: ENDBRANCH  22  49
DOCKED: TORSDOF 13
DOCKED: TER
DOCKED: ENDMDL
________________________________________________________________________________


	BEGINNING GENETIC ALGORITHM DOCKING 5 of 100
Run: 5 Seed: 378037333 483269652 [ Run 5 of 100 GA/GALS ]
Beginning LAMARCKIAN GENETIC ALGORITHM (LGA), with a maximum of 25000000 energy evaluations.

Final-Value: -10.884


	FINAL GENETIC ALGORITHM DOCKED STATE
	_______________________________________________


Detailed state:  trans 4.894 15.297 -13.088 quatxyzw -0.839211 0.117338 -0.272457 -0.455767 center 0.153 0.018 -0.028 ntor 13 -177.1092 160.4321 33.6565 26.2030 -167.2110 99.6110 -33.0682 -52.4741 -32.7301 153.4233 53.9129 -158.3205 119.4349
State:	  4.894  15.297 -13.088  -0.943  0.132 -0.306 -125.771   -177.11  160.43   33.66   26.20 -167.21   99.61  -33.07  -52.47  -32.73  153.42   53.91 -158.32  119.43

DOCKED: MODEL        5
DOCKED: USER    Run = 5
DOCKED: USER    DPF = D:/Protein_go_brrr/autodock/final/mut_K82N/heme/dock.dpf
DOCKED: USER  
DOCKED: USER    Estimated Free Energy of Binding    =   -4.72 kcal/mol  [=(1)+(2)+(3)-(4)]
DOCKED: USER    Estimated Inhibition Constant, Ki   =  347.66 uM (micromolar)  [Temperature = 298.15 K]
DOCKED: USER    
DOCKED: USER    (1) Final Intermolecular Energy     =   -8.60 kcal/mol
DOCKED: USER        vdW + Hbond + desolv Energy     =   -8.24 kcal/mol
DOCKED: USER        Electrostatic Energy            =   -0.36 kcal/mol
DOCKED: USER    (2) Final Total Internal Energy     =   -2.29 kcal/mol
DOCKED: USER    (3) Torsional Free Energy           =   +3.88 kcal/mol
DOCKED: USER    (4) Unbound System's Energy  [=(2)] =   -2.29 kcal/mol
DOCKED: USER    
DOCKED: USER    
DOCKED: USER    NEWDPF move heme_opt.pdbqt
DOCKED: USER    NEWDPF about 0.153000 0.018000 -0.028000
DOCKED: USER    NEWDPF tran0 4.894060 15.296660 -13.087840
DOCKED: USER    NEWDPF quaternion0 -0.839211 0.117338 -0.272457 -0.455767
DOCKED: USER    NEWDPF axisangle0 -0.942829 0.131826 -0.306097 -125.771465
DOCKED: USER    NEWDPF quat0 -0.942829 0.131826 -0.306097 -125.771465
DOCKED: USER    NEWDPF dihe0 -177.11 160.43 33.66 26.20 -167.21 99.61 -33.07 -52.47 -32.73 153.42 53.91 -158.32 119.43 
DOCKED: USER  keepresnum = 1 
DOCKED: USER  
DOCKED: REMARK  13 active torsions:
DOCKED: REMARK  status: ('A' for Active; 'I' for Inactive)
DOCKED: REMARK    1  A    between atoms: O_3  and  C_38 
DOCKED: REMARK    2  A    between atoms: O_4  and  C_40 
DOCKED: REMARK    3  A    between atoms: O_7  and  C_46 
DOCKED: REMARK    4  A    between atoms: O_9  and  C_48 
DOCKED: REMARK    5  A    between atoms: C_15  and  C_20 
DOCKED: REMARK    6  A    between atoms: C_16  and  C_23 
DOCKED: REMARK    7  A    between atoms: C_20  and  C_38 
DOCKED: REMARK    8  A    between atoms: C_23  and  C_40 
DOCKED: REMARK    9  A    between atoms: C_32  and  C_41 
DOCKED: REMARK   10  A    between atoms: C_37  and  C_45 
DOCKED: REMARK   11  A    between atoms: C_41  and  C_44 
DOCKED: REMARK   12  A    between atoms: C_44  and  C_46 
DOCKED: REMARK   13  A    between atoms: C_47  and  C_48 
DOCKED: USER                              x       y       z     vdW  Elec       q    Type
DOCKED: USER                           _______ _______ _______ _____ _____    ______ ____
DOCKED: ROOT
DOCKED: ATOM      1  O   UNL d   1       0.723  17.309 -16.736 -0.07 +0.33    -0.289 OA
DOCKED: ATOM      2  O   UNL d   1       1.565  18.072  -9.313 -0.28 +0.11    -0.289 OA
DOCKED: ATOM      3  N   UNL d   1       3.292  15.816 -14.984 -0.10 +0.10    -0.247 NA
DOCKED: ATOM      4  N   UNL d   1       2.978  16.916 -12.242 -0.12 +0.07    -0.247 NA
DOCKED: ATOM      5  N   UNL d   1       5.601  15.907 -11.636 -0.13 +0.05    -0.354 N 
DOCKED: ATOM      6  N   UNL d   1       5.927  14.786 -14.489 -0.04 +0.00    -0.354 N 
DOCKED: ATOM      7  C   UNL d   1       2.710  16.026 -17.356 -0.06 -0.05    +0.084 A 
DOCKED: ATOM      8  C   UNL d   1       0.740  17.640 -11.577 -0.25 -0.03    +0.084 A 
DOCKED: ATOM      9  C   UNL d   1       1.683  17.118 -12.666 -0.24 -0.02    +0.058 A 
DOCKED: ATOM     10  C   UNL d   1       3.667  15.505 -16.280 -0.09 -0.02    +0.058 A 
DOCKED: ATOM     11  C   UNL d   1       1.716  16.671 -16.437 +0.11 -0.20    +0.193 A 
DOCKED: ATOM     12  C   UNL d   1       2.167  16.453 -15.026 -0.11 -0.08    +0.109 A 
DOCKED: ATOM     13  C   UNL d   1       1.748  17.733 -10.466 -0.21 -0.06    +0.193 A 
DOCKED: ATOM     14  C   UNL d   1       3.356  17.108 -18.225 -0.02 -0.01    +0.026 C 
DOCKED: ATOM     15  C   UNL d   1       1.290  16.924 -13.935 -0.19 -0.04    +0.055 C 
DOCKED: ATOM     16  C   UNL d   1      -0.318  16.600 -11.196 -0.38 -0.01    +0.026 C 
DOCKED: ATOM     17  C   UNL d   1       3.065  17.273 -11.001 -0.22 -0.03    +0.109 A 
DOCKED: ATOM     18  C   UNL d   1       4.726  14.735 -16.595 -0.09 -0.01    +0.050 C 
DOCKED: ATOM     19  C   UNL d   1       5.616  14.140 -15.664 -0.12 +0.00    +0.045 A 
DOCKED: ATOM     20  C   UNL d   1       5.377  16.667 -10.518 -0.30 -0.01    +0.045 A 
DOCKED: ATOM     21  C   UNL d   1       4.258  17.296 -10.142 -0.19 -0.02    +0.057 C 
DOCKED: ATOM     22  C   UNL d   1       7.533  15.913 -10.478 -0.24 +0.00    -0.019 A 
DOCKED: ATOM     23  C   UNL d   1       6.875  15.410 -11.701 -0.27 -0.00    +0.045 A 
DOCKED: ATOM     24  C   UNL d   1       6.640  16.656  -9.781 -0.28 +0.00    -0.022 A 
DOCKED: ATOM     25  C   UNL d   1       6.871  14.078 -13.783 -0.21 +0.00    +0.049 A 
DOCKED: ATOM     26  C   UNL d   1       6.348  12.964 -15.706 -0.17 -0.00    -0.018 A 
DOCKED: ATOM     27  C   UNL d   1       7.124  12.920 -14.506 -0.26 +0.00    +0.003 A 
DOCKED: ATOM     28  C   UNL d   1       7.465  14.621 -12.612 -0.26 +0.00    +0.052 C 
DOCKED: ATOM     29  C   UNL d   1       6.827  17.361  -8.481 -0.21 -0.01    +0.046 C 
DOCKED: ATOM     30  C   UNL d   1       6.329  11.941 -16.790 -0.14 +0.02    +0.046 C 
DOCKED: ATOM     31  H   UNL d   1       4.851  15.692 -12.285 +0.07 -0.02    +0.166 HD
DOCKED: ATOM     32  H   UNL d   1       5.533  15.681 -14.221 +0.05 -0.01    +0.166 HD
DOCKED: ENDROOT
DOCKED: BRANCH   7  33
DOCKED: ATOM     33  C   UNL d   1       2.032  14.949 -18.210 -0.07 -0.09    +0.141 C 
DOCKED: BRANCH  33  34
DOCKED: ATOM     34  C   UNL d   1       2.152  13.574 -17.610 -0.09 -0.17    +0.306 C 
DOCKED: ATOM     35  O   UNL d   1       2.787  12.641 -18.071 -0.06 +0.06    -0.251 OA
DOCKED: BRANCH  34  36
DOCKED: ATOM     36  O   UNL d   1       1.468  13.449 -16.460 -0.06 +0.54    -0.481 OA
DOCKED: ATOM     37  H   UNL d   1       1.054  14.327 -16.322 -0.41 -0.75    +0.295 HD
DOCKED: ENDBRANCH  34  36
DOCKED: ENDBRANCH  33  34
DOCKED: ENDBRANCH   7  33
DOCKED: BRANCH  27  38
DOCKED: ATOM     38  C   UNL d   1       8.039  11.877 -14.152 -0.28 +0.01    +0.017 C 
DOCKED: ATOM     39  C   UNL d   1       9.100  11.497 -14.881 -0.17 +0.03    +0.092 C 
DOCKED: BRANCH  39  40
DOCKED: ATOM     40  C   UNL d   1       9.970  10.422 -14.396 -0.11 +0.10    +0.330 C 
DOCKED: ATOM     41  O   UNL d   1       9.944   9.247 -14.707 -0.18 -0.09    -0.246 OA
DOCKED: BRANCH  40  42
DOCKED: ATOM     42  O   UNL d   1      10.864  10.911 -13.523 -0.06 -0.07    -0.477 OA
DOCKED: ATOM     43  H   UNL d   1      10.876  11.872 -13.711 +0.08 +0.03    +0.295 HD
DOCKED: ENDBRANCH  40  42
DOCKED: ENDBRANCH  39  40
DOCKED: ENDBRANCH  27  38
DOCKED: BRANCH   8  44
DOCKED: ATOM     44  C   UNL d   1       0.102  19.005 -11.855 -0.14 -0.04    +0.141 C 
DOCKED: BRANCH  44  45
DOCKED: ATOM     45  C   UNL d   1      -1.339  18.912 -12.280 -0.14 -0.10    +0.306 C 
DOCKED: ATOM     46  O   UNL d   1      -1.753  18.593 -13.381 -0.18 +0.11    -0.251 OA
DOCKED: BRANCH  45  47
DOCKED: ATOM     47  O   UNL d   1      -2.189  19.255 -11.295 -0.12 +0.17    -0.481 OA
DOCKED: ATOM     48  H   UNL d   1      -2.979  18.691 -11.441 -0.41 -0.14    +0.295 HD
DOCKED: ENDBRANCH  45  47
DOCKED: ENDBRANCH  44  45
DOCKED: ENDBRANCH   8  44
DOCKED: BRANCH  22  49
DOCKED: ATOM     49  C   UNL d   1       8.962  15.637 -10.116 -0.28 +0.00    +0.048 C 
DOCKED: BRANCH  49  50
DOCKED: ATOM     50  C   UNL d   1       9.865  15.601 -11.349 -0.18 -0.00    +0.125 C 
DOCKED: BRANCH  50  51
DOCKED: ATOM     51  C   UNL d   1      10.631  14.310 -11.415 -0.17 +0.02    +0.305 C 
DOCKED: ATOM     52  O   UNL d   1      11.402  13.860 -10.586 -0.21 -0.01    -0.251 OA
DOCKED: BRANCH  51  53
DOCKED: ATOM     53  O   UNL d   1      10.390  13.639 -12.559 -0.05 -0.04    -0.481 OA
DOCKED: ATOM     54  H   UNL d   1      10.565  12.703 -12.328 +0.10 +0.04    +0.295 HD
DOCKED: ENDBRANCH  51  53
DOCKED: ENDBRANCH  50  51
DOCKED: ENDBRANCH  49  50
DOCKED: ENDBRANCH  22  49
DOCKED: TORSDOF 13
DOCKED: TER
DOCKED: ENDMDL
________________________________________________________________________________


	BEGINNING GENETIC ALGORITHM DOCKING 6 of 100
Run: 6 Seed: 844546387 1092860743 [ Run 6 of 100 GA/GALS ]
Beginning LAMARCKIAN GENETIC ALGORITHM (LGA), with a maximum of 25000000 energy evaluations.

Final-Value: -11.834


	FINAL GENETIC ALGORITHM DOCKED STATE
	_______________________________________________


Detailed state:  trans 12.298 9.141 -10.841 quatxyzw -0.589009 -0.683281 -0.243786 0.356040 center 0.153 0.018 -0.028 ntor 13 -95.3438 179.7878 -174.8084 -44.5250 35.9524 -43.8895 146.0698 -93.9127 128.9295 -1.3662 -98.3921 13.8582 -11.9510
State:	 12.298   9.141 -10.841  -0.630 -0.731 -0.261 138.286    -95.34  179.79 -174.81  -44.53   35.95  -43.89  146.07  -93.91  128.93   -1.37  -98.39   13.86  -11.95

DOCKED: MODEL        6
DOCKED: USER    Run = 6
DOCKED: USER    DPF = D:/Protein_go_brrr/autodock/final/mut_K82N/heme/dock.dpf
DOCKED: USER  
DOCKED: USER    Estimated Free Energy of Binding    =   -3.31 kcal/mol  [=(1)+(2)+(3)-(4)]
DOCKED: USER    Estimated Inhibition Constant, Ki   =    3.76 mM (millimolar)  [Temperature = 298.15 K]
DOCKED: USER    
DOCKED: USER    (1) Final Intermolecular Energy     =   -7.19 kcal/mol
DOCKED: USER        vdW + Hbond + desolv Energy     =   -6.86 kcal/mol
DOCKED: USER        Electrostatic Energy            =   -0.32 kcal/mol
DOCKED: USER    (2) Final Total Internal Energy     =   -4.65 kcal/mol
DOCKED: USER    (3) Torsional Free Energy           =   +3.88 kcal/mol
DOCKED: USER    (4) Unbound System's Energy  [=(2)] =   -4.65 kcal/mol
DOCKED: USER    
DOCKED: USER    
DOCKED: USER    NEWDPF move heme_opt.pdbqt
DOCKED: USER    NEWDPF about 0.153000 0.018000 -0.028000
DOCKED: USER    NEWDPF tran0 12.298078 9.140895 -10.840725
DOCKED: USER    NEWDPF quaternion0 -0.589009 -0.683281 -0.243786 0.356040
DOCKED: USER    NEWDPF axisangle0 -0.630312 -0.731196 -0.260882 138.285644
DOCKED: USER    NEWDPF quat0 -0.630312 -0.731196 -0.260882 138.285644
DOCKED: USER    NEWDPF dihe0 -95.34 179.79 -174.81 -44.53 35.95 -43.89 146.07 -93.91 128.93 -1.37 -98.39 13.86 -11.95 
DOCKED: USER  keepresnum = 1 
DOCKED: USER  
DOCKED: REMARK  13 active torsions:
DOCKED: REMARK  status: ('A' for Active; 'I' for Inactive)
DOCKED: REMARK    1  A    between atoms: O_3  and  C_38 
DOCKED: REMARK    2  A    between atoms: O_4  and  C_40 
DOCKED: REMARK    3  A    between atoms: O_7  and  C_46 
DOCKED: REMARK    4  A    between atoms: O_9  and  C_48 
DOCKED: REMARK    5  A    between atoms: C_15  and  C_20 
DOCKED: REMARK    6  A    between atoms: C_16  and  C_23 
DOCKED: REMARK    7  A    between atoms: C_20  and  C_38 
DOCKED: REMARK    8  A    between atoms: C_23  and  C_40 
DOCKED: REMARK    9  A    between atoms: C_32  and  C_41 
DOCKED: REMARK   10  A    between atoms: C_37  and  C_45 
DOCKED: REMARK   11  A    between atoms: C_41  and  C_44 
DOCKED: REMARK   12  A    between atoms: C_44  and  C_46 
DOCKED: REMARK   13  A    between atoms: C_47  and  C_48 
DOCKED: USER                              x       y       z     vdW  Elec       q    Type
DOCKED: USER                           _______ _______ _______ _____ _____    ______ ____
DOCKED: ROOT
DOCKED: ATOM      1  O   UNL d   1      14.161   3.911  -8.858 -0.06 +0.08    -0.289 OA
DOCKED: ATOM      2  O   UNL d   1       8.157   5.770 -12.967 -0.34 +0.05    -0.289 OA
DOCKED: ATOM      3  N   UNL d   1      13.394   7.172  -9.676 -0.15 +0.03    -0.247 NA
DOCKED: ATOM      4  N   UNL d   1      11.085   6.888 -11.524 -0.17 +0.04    -0.247 NA
DOCKED: ATOM      5  N   UNL d   1      11.454   9.643 -12.260 -0.14 -0.02    -0.354 N 
DOCKED: ATOM      6  N   UNL d   1      13.860   9.924 -10.354 -0.11 +0.01    -0.354 N 
DOCKED: ATOM      7  C   UNL d   1      15.277   6.066  -8.562 -0.07 -0.01    +0.084 A 
DOCKED: ATOM      8  C   UNL d   1       9.704   4.887 -11.288 -0.33 -0.04    +0.084 A 
DOCKED: ATOM      9  C   UNL d   1      10.951   5.679 -10.880 -0.26 -0.02    +0.058 A 
DOCKED: ATOM     10  C   UNL d   1      14.627   7.356  -9.072 -0.14 -0.00    +0.058 A 
DOCKED: ATOM     11  C   UNL d   1      14.184   5.123  -8.969 -0.07 -0.03    +0.193 A 
DOCKED: ATOM     12  C   UNL d   1      13.089   5.918  -9.610 -0.17 -0.02    +0.109 A 
DOCKED: ATOM     13  C   UNL d   1       9.175   5.854 -12.309 -0.24 -0.06    +0.193 A 
DOCKED: ATOM     14  C   UNL d   1      16.547   5.716  -9.341 -0.02 -0.00    +0.026 C 
DOCKED: ATOM     15  C   UNL d   1      11.857   5.208 -10.010 -0.28 -0.01    +0.055 C 
DOCKED: ATOM     16  C   UNL d   1       8.696   4.785 -10.139 -0.58 -0.01    +0.026 C 
DOCKED: ATOM     17  C   UNL d   1      10.108   7.021 -12.362 -0.20 -0.01    +0.109 A 
DOCKED: ATOM     18  C   UNL d   1      15.189   8.559  -8.855 -0.15 -0.00    +0.050 C 
DOCKED: ATOM     19  C   UNL d   1      14.623   9.809  -9.214 -0.11 -0.00    +0.045 A 
DOCKED: ATOM     20  C   UNL d   1      10.537   9.267 -13.207 -0.22 +0.01    +0.045 A 
DOCKED: ATOM     21  C   UNL d   1       9.866   8.116 -13.313 -0.28 +0.01    +0.057 C 
DOCKED: ATOM     22  C   UNL d   1      11.259  11.383 -13.678 -0.13 -0.00    -0.019 A 
DOCKED: ATOM     23  C   UNL d   1      11.946  10.905 -12.461 -0.19 +0.00    +0.045 A 
DOCKED: ATOM     24  C   UNL d   1      10.426  10.409 -14.114 -0.17 -0.00    -0.022 A 
DOCKED: ATOM     25  C   UNL d   1      13.490  11.233 -10.558 -0.16 -0.00    +0.049 A 
DOCKED: ATOM     26  C   UNL d   1      14.719  11.068  -8.642 -0.06 +0.00    -0.018 A 
DOCKED: ATOM     27  C   UNL d   1      13.985  11.960  -9.484 -0.14 -0.00    +0.003 A 
DOCKED: ATOM     28  C   UNL d   1      12.830  11.626 -11.754 -0.20 +0.00    +0.052 C 
DOCKED: ATOM     29  C   UNL d   1       9.513  10.421 -15.293 -0.13 +0.02    +0.046 C 
DOCKED: ATOM     30  C   UNL d   1      15.445  11.424  -7.389 -0.13 -0.00    +0.046 C 
DOCKED: ATOM     31  H   UNL d   1      11.659   9.051 -11.462 +0.03 -0.00    +0.166 HD
DOCKED: ATOM     32  H   UNL d   1      13.648   9.146 -10.968 +0.03 -0.01    +0.166 HD
DOCKED: ENDROOT
DOCKED: BRANCH   7  33
DOCKED: ATOM     33  C   UNL d   1      15.508   6.000  -7.049 -0.07 -0.01    +0.141 C 
DOCKED: BRANCH  33  34
DOCKED: ATOM     34  C   UNL d   1      16.072   4.677  -6.606 -0.00 -0.02    +0.306 C 
DOCKED: ATOM     35  O   UNL d   1      17.255   4.392  -6.516 -0.00 +0.01    -0.251 OA
DOCKED: BRANCH  34  36
DOCKED: ATOM     36  O   UNL d   1      15.117   3.784  -6.297 -0.00 +0.02    -0.481 OA
DOCKED: ATOM     37  H   UNL d   1      14.843   3.406  -7.160 +0.07 -0.04    +0.295 HD
DOCKED: ENDBRANCH  34  36
DOCKED: ENDBRANCH  33  34
DOCKED: ENDBRANCH   7  33
DOCKED: BRANCH  27  38
DOCKED: ATOM     38  C   UNL d   1      13.840  13.367  -9.267 -0.17 -0.00    +0.017 C 
DOCKED: ATOM     39  C   UNL d   1      12.676  14.035  -9.270 -0.22 +0.00    +0.092 C 
DOCKED: BRANCH  39  40
DOCKED: ATOM     40  C   UNL d   1      12.662  15.478  -9.017 -0.08 -0.00    +0.330 C 
DOCKED: ATOM     41  O   UNL d   1      13.251  16.086  -8.143 -0.06 +0.01    -0.246 OA
DOCKED: BRANCH  40  42
DOCKED: ATOM     42  O   UNL d   1      11.885  16.098  -9.919 -0.03 +0.01    -0.477 OA
DOCKED: ATOM     43  H   UNL d   1      11.561  15.370 -10.489 +0.08 -0.00    +0.295 HD
DOCKED: ENDBRANCH  40  42
DOCKED: ENDBRANCH  39  40
DOCKED: ENDBRANCH  27  38
DOCKED: BRANCH   8  44
DOCKED: ATOM     44  C   UNL d   1       9.968   3.515 -11.917 -0.15 -0.14    +0.141 C 
DOCKED: BRANCH  44  45
DOCKED: ATOM     45  C   UNL d   1      10.959   3.562 -13.050 -0.06 -0.25    +0.306 C 
DOCKED: ATOM     46  O   UNL d   1      12.133   3.239 -13.002 -0.05 +0.12    -0.251 OA
DOCKED: BRANCH  45  47
DOCKED: ATOM     47  O   UNL d   1      10.420   4.043 -14.184 +0.01 +0.48    -0.481 OA
DOCKED: ATOM     48  H   UNL d   1       9.509   4.307 -13.934 -0.39 -0.50    +0.295 HD
DOCKED: ENDBRANCH  45  47
DOCKED: ENDBRANCH  44  45
DOCKED: ENDBRANCH   8  44
DOCKED: BRANCH  22  49
DOCKED: ATOM     49  C   UNL d   1      11.490  12.727 -14.303 -0.06 +0.00    +0.048 C 
DOCKED: BRANCH  49  50
DOCKED: ATOM     50  C   UNL d   1      10.457  13.755 -13.839 -0.08 +0.01    +0.125 C 
DOCKED: BRANCH  50  51
DOCKED: ATOM     51  C   UNL d   1      10.841  14.339 -12.510 -0.08 +0.01    +0.305 C 
DOCKED: ATOM     52  O   UNL d   1      10.406  14.038 -11.412 -0.20 -0.02    -0.251 OA
DOCKED: BRANCH  51  53
DOCKED: ATOM     53  O   UNL d   1      11.771  15.308 -12.634 +0.01 +0.01    -0.481 OA
DOCKED: ATOM     54  H   UNL d   1      11.446  16.025 -12.050 +0.04 -0.01    +0.295 HD
DOCKED: ENDBRANCH  51  53
DOCKED: ENDBRANCH  50  51
DOCKED: ENDBRANCH  49  50
DOCKED: ENDBRANCH  22  49
DOCKED: TORSDOF 13
DOCKED: TER
DOCKED: ENDMDL
________________________________________________________________________________


	BEGINNING GENETIC ALGORITHM DOCKING 7 of 100
Run: 7 Seed: 2085403055 1331247365 [ Run 7 of 100 GA/GALS ]
Beginning LAMARCKIAN GENETIC ALGORITHM (LGA), with a maximum of 25000000 energy evaluations.

Final-Value: -10.608


	FINAL GENETIC ALGORITHM DOCKED STATE
	_______________________________________________


Detailed state:  trans 13.389 8.078 -8.865 quatxyzw 0.306781 -0.799104 0.362911 0.368258 center 0.153 0.018 -0.028 ntor 13 -109.2604 -53.5405 -124.6870 120.0658 38.7658 177.9358 121.9159 -109.5658 133.1574 -24.2481 -95.7399 28.8780 170.1423
State:	 13.389   8.078  -8.865   0.330 -0.860  0.390 136.784   -109.26  -53.54 -124.69  120.07   38.77  177.94  121.92 -109.57  133.16  -24.25  -95.74   28.88  170.14

DOCKED: MODEL        7
DOCKED: USER    Run = 7
DOCKED: USER    DPF = D:/Protein_go_brrr/autodock/final/mut_K82N/heme/dock.dpf
DOCKED: USER  
DOCKED: USER    Estimated Free Energy of Binding    =   -4.20 kcal/mol  [=(1)+(2)+(3)-(4)]
DOCKED: USER    Estimated Inhibition Constant, Ki   =  835.12 uM (micromolar)  [Temperature = 298.15 K]
DOCKED: USER    
DOCKED: USER    (1) Final Intermolecular Energy     =   -8.08 kcal/mol
DOCKED: USER        vdW + Hbond + desolv Energy     =   -7.31 kcal/mol
DOCKED: USER        Electrostatic Energy            =   -0.76 kcal/mol
DOCKED: USER    (2) Final Total Internal Energy     =   -2.53 kcal/mol
DOCKED: USER    (3) Torsional Free Energy           =   +3.88 kcal/mol
DOCKED: USER    (4) Unbound System's Energy  [=(2)] =   -2.53 kcal/mol
DOCKED: USER    
DOCKED: USER    
DOCKED: USER    NEWDPF move heme_opt.pdbqt
DOCKED: USER    NEWDPF about 0.153000 0.018000 -0.028000
DOCKED: USER    NEWDPF tran0 13.388632 8.077609 -8.865353
DOCKED: USER    NEWDPF quaternion0 0.306781 -0.799104 0.362911 0.368258
DOCKED: USER    NEWDPF axisangle0 0.329970 -0.859507 0.390343 136.783608
DOCKED: USER    NEWDPF quat0 0.329970 -0.859507 0.390343 136.783608
DOCKED: USER    NEWDPF dihe0 -109.26 -53.54 -124.69 120.07 38.77 177.94 121.92 -109.57 133.16 -24.25 -95.74 28.88 170.14 
DOCKED: USER  keepresnum = 1 
DOCKED: USER  
DOCKED: REMARK  13 active torsions:
DOCKED: REMARK  status: ('A' for Active; 'I' for Inactive)
DOCKED: REMARK    1  A    between atoms: O_3  and  C_38 
DOCKED: REMARK    2  A    between atoms: O_4  and  C_40 
DOCKED: REMARK    3  A    between atoms: O_7  and  C_46 
DOCKED: REMARK    4  A    between atoms: O_9  and  C_48 
DOCKED: REMARK    5  A    between atoms: C_15  and  C_20 
DOCKED: REMARK    6  A    between atoms: C_16  and  C_23 
DOCKED: REMARK    7  A    between atoms: C_20  and  C_38 
DOCKED: REMARK    8  A    between atoms: C_23  and  C_40 
DOCKED: REMARK    9  A    between atoms: C_32  and  C_41 
DOCKED: REMARK   10  A    between atoms: C_37  and  C_45 
DOCKED: REMARK   11  A    between atoms: C_41  and  C_44 
DOCKED: REMARK   12  A    between atoms: C_44  and  C_46 
DOCKED: REMARK   13  A    between atoms: C_47  and  C_48 
DOCKED: USER                              x       y       z     vdW  Elec       q    Type
DOCKED: USER                           _______ _______ _______ _____ _____    ______ ____
DOCKED: ROOT
DOCKED: ATOM      1  O   UNL d   1      16.571  13.025  -8.475 -0.01 +0.01    -0.289 OA
DOCKED: ATOM      2  O   UNL d   1      14.625   7.992  -3.253 -0.14 -0.00    -0.289 OA
DOCKED: ATOM      3  N   UNL d   1      14.552  10.313  -9.155 -0.09 +0.01    -0.247 NA
DOCKED: ATOM      4  N   UNL d   1      14.596   8.774  -6.614 +0.01 +0.01    -0.247 NA
DOCKED: ATOM      5  N   UNL d   1      13.439   6.562  -8.041 +0.01 +0.04    -0.354 N 
DOCKED: ATOM      6  N   UNL d   1      13.415   8.159 -10.677 -0.13 +0.03    -0.354 N 
DOCKED: ATOM      7  C   UNL d   1      15.597  12.072 -10.505 -0.05 -0.00    +0.084 A 
DOCKED: ATOM      8  C   UNL d   1      15.031  10.022  -4.559 -0.17 -0.01    +0.084 A 
DOCKED: ATOM      9  C   UNL d   1      14.935  10.001  -6.088 -0.16 -0.00    +0.058 A 
DOCKED: ATOM     10  C   UNL d   1      14.726  10.814 -10.434 -0.12 -0.00    +0.058 A 
DOCKED: ATOM     11  C   UNL d   1      15.869  12.203  -9.036 -0.04 -0.01    +0.193 A 
DOCKED: ATOM     12  C   UNL d   1      15.160  11.094  -8.323 -0.10 -0.01    +0.109 A 
DOCKED: ATOM     13  C   UNL d   1      14.721   8.572  -4.317 -0.15 -0.01    +0.193 A 
DOCKED: ATOM     14  C   UNL d   1      16.919  11.815 -11.232 -0.02 -0.00    +0.026 C 
DOCKED: ATOM     15  C   UNL d   1      15.209  11.072  -6.847 -0.15 -0.00    +0.055 C 
DOCKED: ATOM     16  C   UNL d   1      13.924  10.874  -3.932 -0.33 -0.00    +0.026 C 
DOCKED: ATOM     17  C   UNL d   1      14.484   7.925  -5.643 -0.17 -0.00    +0.109 A 
DOCKED: ATOM     18  C   UNL d   1      14.121  10.316 -11.529 -0.13 -0.00    +0.050 C 
DOCKED: ATOM     19  C   UNL d   1      13.233   9.211 -11.547 -0.20 -0.00    +0.045 A 
DOCKED: ATOM     20  C   UNL d   1      13.747   5.943  -6.857 -0.23 -0.00    +0.045 A 
DOCKED: ATOM     21  C   UNL d   1      14.199   6.485  -5.721 -0.25 -0.00    +0.057 C 
DOCKED: ATOM     22  C   UNL d   1      13.031   4.368  -8.348 -0.25 +0.01    -0.019 A 
DOCKED: ATOM     23  C   UNL d   1      12.999   5.692  -9.002 -0.20 -0.01    +0.045 A 
DOCKED: ATOM     24  C   UNL d   1      13.474   4.524  -7.078 -0.25 +0.00    -0.022 A 
DOCKED: ATOM     25  C   UNL d   1      12.501   7.161 -10.927 -0.22 -0.01    +0.049 A 
DOCKED: ATOM     26  C   UNL d   1      12.150   8.905 -12.357 -0.21 +0.00    -0.018 A 
DOCKED: ATOM     27  C   UNL d   1      11.680   7.619 -11.948 -0.24 -0.00    +0.003 A 
DOCKED: ATOM     28  C   UNL d   1      12.590   5.908 -10.262 -0.23 -0.01    +0.052 C 
DOCKED: ATOM     29  C   UNL d   1      13.667   3.488  -6.024 -0.24 -0.00    +0.046 C 
DOCKED: ATOM     30  C   UNL d   1      11.583   9.755 -13.443 -0.17 +0.00    +0.046 C 
DOCKED: ATOM     31  H   UNL d   1      13.470   7.572  -8.130 +0.08 -0.01    +0.166 HD
DOCKED: ATOM     32  H   UNL d   1      14.154   8.126  -9.984 +0.03 -0.01    +0.166 HD
DOCKED: ENDROOT
DOCKED: BRANCH   7  33
DOCKED: ATOM     33  C   UNL d   1      14.897  13.327 -11.036 -0.04 -0.00    +0.141 C 
DOCKED: BRANCH  33  34
DOCKED: ATOM     34  C   UNL d   1      15.813  14.519 -11.098 -0.00 -0.01    +0.306 C 
DOCKED: ATOM     35  O   UNL d   1      16.471  14.874 -12.061 -0.00 +0.01    -0.251 OA
DOCKED: BRANCH  34  36
DOCKED: ATOM     36  O   UNL d   1      15.850  15.204  -9.941 +0.00 +0.02    -0.481 OA
DOCKED: ATOM     37  H   UNL d   1      16.299  14.601  -9.311 +0.01 -0.01    +0.295 HD
DOCKED: ENDBRANCH  34  36
DOCKED: ENDBRANCH  33  34
DOCKED: ENDBRANCH   7  33
DOCKED: BRANCH  27  38
DOCKED: ATOM     38  C   UNL d   1      10.580   6.917 -12.537 -0.26 -0.00    +0.017 C 
DOCKED: ATOM     39  C   UNL d   1       9.425   6.628 -11.918 -0.13 -0.01    +0.092 C 
DOCKED: BRANCH  39  40
DOCKED: ATOM     40  C   UNL d   1       8.367   5.917 -12.640 -0.23 -0.06    +0.330 C 
DOCKED: ATOM     41  O   UNL d   1       7.302   5.525 -12.203 -0.79 +0.02    -0.246 OA
DOCKED: BRANCH  40  42
DOCKED: ATOM     42  O   UNL d   1       8.722   5.742 -13.923 -0.36 +0.11    -0.477 OA
DOCKED: ATOM     43  H   UNL d   1       8.621   4.778 -14.065 -0.40 -0.48    +0.295 HD
DOCKED: ENDBRANCH  40  42
DOCKED: ENDBRANCH  39  40
DOCKED: ENDBRANCH  27  38
DOCKED: BRANCH   8  44
DOCKED: ATOM     44  C   UNL d   1      16.405  10.392  -3.989 -0.05 -0.01    +0.141 C 
DOCKED: BRANCH  44  45
DOCKED: ATOM     45  C   UNL d   1      17.422   9.291  -4.127 -0.01 -0.01    +0.306 C 
DOCKED: ATOM     46  O   UNL d   1      18.031   8.987  -5.138 -0.01 +0.01    -0.251 OA
DOCKED: BRANCH  45  47
DOCKED: ATOM     47  O   UNL d   1      17.599   8.606  -2.983 +0.00 +0.02    -0.481 OA
DOCKED: ATOM     48  H   UNL d   1      16.699   8.310  -2.729 +0.03 -0.01    +0.295 HD
DOCKED: ENDBRANCH  45  47
DOCKED: ENDBRANCH  44  45
DOCKED: ENDBRANCH   8  44
DOCKED: BRANCH  22  49
DOCKED: ATOM     49  C   UNL d   1      12.645   3.085  -9.024 -0.03 -0.03    +0.048 C 
DOCKED: BRANCH  49  50
DOCKED: ATOM     50  C   UNL d   1      13.820   2.463  -9.777 -0.11 -0.06    +0.125 C 
DOCKED: BRANCH  50  51
DOCKED: ATOM     51  C   UNL d   1      14.661   1.622  -8.859 -0.08 -0.12    +0.305 C 
DOCKED: ATOM     52  O   UNL d   1      15.822   1.808  -8.537 -0.02 +0.04    -0.251 OA
DOCKED: BRANCH  51  53
DOCKED: ATOM     53  O   UNL d   1      13.984   0.556  -8.389 -0.14 +0.33    -0.481 OA
DOCKED: ATOM     54  H   UNL d   1      13.228   0.948  -7.905 -0.19 -0.51    +0.295 HD
DOCKED: ENDBRANCH  51  53
DOCKED: ENDBRANCH  50  51
DOCKED: ENDBRANCH  49  50
DOCKED: ENDBRANCH  22  49
DOCKED: TORSDOF 13
DOCKED: TER
DOCKED: ENDMDL
________________________________________________________________________________


	BEGINNING GENETIC ALGORITHM DOCKING 8 of 100
Run: 8 Seed: 938449629 1308902252 [ Run 8 of 100 GA/GALS ]
Beginning LAMARCKIAN GENETIC ALGORITHM (LGA), with a maximum of 25000000 energy evaluations.

Final-Value: -12.610


	FINAL GENETIC ALGORITHM DOCKED STATE
	_______________________________________________


Detailed state:  trans -6.023 7.166 -18.240 quatxyzw 0.302384 0.483075 -0.441663 -0.692919 center 0.153 0.018 -0.028 ntor 13 -130.6331 -165.0427 -114.7369 -59.9008 -96.1595 96.3535 119.9431 -126.2075 33.6895 -33.5349 -100.6519 -107.4801 3.7426
State:	 -6.023   7.166 -18.240   0.419  0.670 -0.613 -92.277   -130.63 -165.04 -114.74  -59.90  -96.16   96.35  119.94 -126.21   33.69  -33.53 -100.65 -107.48    3.74

DOCKED: MODEL        8
DOCKED: USER    Run = 8
DOCKED: USER    DPF = D:/Protein_go_brrr/autodock/final/mut_K82N/heme/dock.dpf
DOCKED: USER  
DOCKED: USER    Estimated Free Energy of Binding    =   -4.62 kcal/mol  [=(1)+(2)+(3)-(4)]
DOCKED: USER    Estimated Inhibition Constant, Ki   =  408.44 uM (micromolar)  [Temperature = 298.15 K]
DOCKED: USER    
DOCKED: USER    (1) Final Intermolecular Energy     =   -8.50 kcal/mol
DOCKED: USER        vdW + Hbond + desolv Energy     =   -8.33 kcal/mol
DOCKED: USER        Electrostatic Energy            =   -0.17 kcal/mol
DOCKED: USER    (2) Final Total Internal Energy     =   -4.11 kcal/mol
DOCKED: USER    (3) Torsional Free Energy           =   +3.88 kcal/mol
DOCKED: USER    (4) Unbound System's Energy  [=(2)] =   -4.11 kcal/mol
DOCKED: USER    
DOCKED: USER    
DOCKED: USER    NEWDPF move heme_opt.pdbqt
DOCKED: USER    NEWDPF about 0.153000 0.018000 -0.028000
DOCKED: USER    NEWDPF tran0 -6.023431 7.166476 -18.240115
DOCKED: USER    NEWDPF quaternion0 0.302384 0.483075 -0.441663 -0.692919
DOCKED: USER    NEWDPF axisangle0 0.419386 0.669993 -0.612556 -92.276765
DOCKED: USER    NEWDPF quat0 0.419386 0.669993 -0.612556 -92.276765
DOCKED: USER    NEWDPF dihe0 -130.63 -165.04 -114.74 -59.90 -96.16 96.35 119.94 -126.21 33.69 -33.53 -100.65 -107.48 3.74 
DOCKED: USER  keepresnum = 1 
DOCKED: USER  
DOCKED: REMARK  13 active torsions:
DOCKED: REMARK  status: ('A' for Active; 'I' for Inactive)
DOCKED: REMARK    1  A    between atoms: O_3  and  C_38 
DOCKED: REMARK    2  A    between atoms: O_4  and  C_40 
DOCKED: REMARK    3  A    between atoms: O_7  and  C_46 
DOCKED: REMARK    4  A    between atoms: O_9  and  C_48 
DOCKED: REMARK    5  A    between atoms: C_15  and  C_20 
DOCKED: REMARK    6  A    between atoms: C_16  and  C_23 
DOCKED: REMARK    7  A    between atoms: C_20  and  C_38 
DOCKED: REMARK    8  A    between atoms: C_23  and  C_40 
DOCKED: REMARK    9  A    between atoms: C_32  and  C_41 
DOCKED: REMARK   10  A    between atoms: C_37  and  C_45 
DOCKED: REMARK   11  A    between atoms: C_41  and  C_44 
DOCKED: REMARK   12  A    between atoms: C_44  and  C_46 
DOCKED: REMARK   13  A    between atoms: C_47  and  C_48 
DOCKED: USER                              x       y       z     vdW  Elec       q    Type
DOCKED: USER                           _______ _______ _______ _____ _____    ______ ____
DOCKED: ROOT
DOCKED: ATOM      1  O   UNL d   1      -5.039   9.135 -12.771 -0.18 +0.07    -0.289 OA
DOCKED: ATOM      2  O   UNL d   1     -11.421   7.283 -16.268 -0.02 -0.03    -0.289 OA
DOCKED: ATOM      3  N   UNL d   1      -5.140   8.145 -16.073 -0.15 +0.05    -0.247 NA
DOCKED: ATOM      4  N   UNL d   1      -7.976   7.347 -16.461 -0.11 +0.02    -0.247 NA
DOCKED: ATOM      5  N   UNL d   1      -7.191   6.097 -18.928 +0.08 +0.10    -0.354 N 
DOCKED: ATOM      6  N   UNL d   1      -4.248   6.912 -18.508 -0.13 +0.13    -0.354 N 
DOCKED: ATOM      7  C   UNL d   1      -3.353   8.650 -14.473 -0.36 -0.02    +0.084 A 
DOCKED: ATOM      8  C   UNL d   1      -9.640   8.393 -15.008 -0.05 +0.00    +0.084 A 
DOCKED: ATOM      9  C   UNL d   1      -8.169   8.180 -15.381 -0.10 -0.00    +0.058 A 
DOCKED: ATOM     10  C   UNL d   1      -3.770   8.215 -15.882 -0.27 -0.02    +0.058 A 
DOCKED: ATOM     11  C   UNL d   1      -4.730   8.830 -13.909 -0.20 -0.04    +0.193 A 
DOCKED: ATOM     12  C   UNL d   1      -5.726   8.519 -14.983 -0.15 -0.02    +0.109 A 
DOCKED: ATOM     13  C   UNL d   1     -10.244   7.497 -16.052 -0.04 +0.01    +0.193 A 
DOCKED: ATOM     14  C   UNL d   1      -2.649   7.525 -13.710 -0.47 -0.01    +0.026 C 
DOCKED: ATOM     15  C   UNL d   1      -7.158   8.719 -14.683 -0.11 -0.00    +0.055 C 
DOCKED: ATOM     16  C   UNL d   1     -10.091   9.832 -15.274 -0.02 +0.00    +0.026 C 
DOCKED: ATOM     17  C   UNL d   1      -9.129   6.918 -16.862 -0.13 +0.00    +0.109 A 
DOCKED: ATOM     18  C   UNL d   1      -2.861   8.014 -16.854 -0.31 -0.02    +0.050 C 
DOCKED: ATOM     19  C   UNL d   1      -3.157   7.694 -18.203 -0.24 -0.01    +0.045 A 
DOCKED: ATOM     20  C   UNL d   1      -8.474   5.627 -18.823 -0.20 -0.00    +0.045 A 
DOCKED: ATOM     21  C   UNL d   1      -9.420   5.961 -17.940 -0.20 +0.00    +0.057 C 
DOCKED: ATOM     22  C   UNL d   1      -7.449   4.592 -20.583 -0.25 +0.00    -0.019 A 
DOCKED: ATOM     23  C   UNL d   1      -6.494   5.530 -19.961 -0.13 -0.01    +0.045 A 
DOCKED: ATOM     24  C   UNL d   1      -8.620   4.654 -19.906 -0.21 +0.00    -0.022 A 
DOCKED: ATOM     25  C   UNL d   1      -4.293   6.652 -19.859 -0.11 -0.01    +0.049 A 
DOCKED: ATOM     26  C   UNL d   1      -2.498   7.981 -19.389 -0.14 +0.00    -0.018 A 
DOCKED: ATOM     27  C   UNL d   1      -3.231   7.337 -20.433 -0.11 -0.00    +0.003 A 
DOCKED: ATOM     28  C   UNL d   1      -5.240   5.737 -20.393 -0.19 -0.01    +0.052 C 
DOCKED: ATOM     29  C   UNL d   1      -9.886   3.908 -20.159 -0.18 +0.01    +0.046 C 
DOCKED: ATOM     30  C   UNL d   1      -1.265   8.804 -19.546 -0.08 -0.01    +0.046 C 
DOCKED: ATOM     31  H   UNL d   1      -6.855   6.847 -18.333 -0.12 -0.05    +0.166 HD
DOCKED: ATOM     32  H   UNL d   1      -4.892   6.553 -17.814 -0.51 -0.10    +0.166 HD
DOCKED: ENDROOT
DOCKED: BRANCH   7  33
DOCKED: ATOM     33  C   UNL d   1      -2.564   9.961 -14.397 -0.27 -0.05    +0.141 C 
DOCKED: BRANCH  33  34
DOCKED: ATOM     34  C   UNL d   1      -3.452  11.175 -14.443 -0.26 -0.14    +0.306 C 
DOCKED: ATOM     35  O   UNL d   1      -4.418  11.333 -15.170 -0.12 +0.10    -0.251 OA
DOCKED: BRANCH  34  36
DOCKED: ATOM     36  O   UNL d   1      -3.077  12.125 -13.568 -0.66 +0.21    -0.481 OA
DOCKED: ATOM     37  H   UNL d   1      -2.107  12.205 -13.691 -0.32 -0.27    +0.295 HD
DOCKED: ENDBRANCH  34  36
DOCKED: ENDBRANCH  33  34
DOCKED: ENDBRANCH   7  33
DOCKED: BRANCH  27  38
DOCKED: ATOM     38  C   UNL d   1      -2.885   7.363 -21.822 -0.10 -0.00    +0.017 C 
DOCKED: ATOM     39  C   UNL d   1      -2.415   6.321 -22.523 -0.10 -0.01    +0.092 C 
DOCKED: BRANCH  39  40
DOCKED: ATOM     40  C   UNL d   1      -2.114   6.475 -23.949 -0.03 -0.04    +0.330 C 
DOCKED: ATOM     41  O   UNL d   1      -1.043   6.743 -24.458 -0.01 +0.03    -0.246 OA
DOCKED: BRANCH  40  42
DOCKED: ATOM     42  O   UNL d   1      -3.220   6.266 -24.679 -0.00 +0.05    -0.477 OA
DOCKED: ATOM     43  H   UNL d   1      -3.946   6.311 -24.024 +0.03 -0.03    +0.295 HD
DOCKED: ENDBRANCH  40  42
DOCKED: ENDBRANCH  39  40
DOCKED: ENDBRANCH  27  38
DOCKED: BRANCH   8  44
DOCKED: ATOM     44  C   UNL d   1     -10.036   7.939 -13.599 -0.06 +0.01    +0.141 C 
DOCKED: BRANCH  44  45
DOCKED: ATOM     45  C   UNL d   1     -10.340   6.467 -13.513 -0.07 +0.05    +0.306 C 
DOCKED: ATOM     46  O   UNL d   1      -9.529   5.557 -13.505 -0.15 -0.04    -0.251 OA
DOCKED: BRANCH  45  47
DOCKED: ATOM     47  O   UNL d   1     -11.660   6.216 -13.467 +0.00 -0.10    -0.481 OA
DOCKED: ATOM     48  H   UNL d   1     -12.002   6.525 -14.333 +0.04 +0.06    +0.295 HD
DOCKED: ENDBRANCH  45  47
DOCKED: ENDBRANCH  44  45
DOCKED: ENDBRANCH   8  44
DOCKED: BRANCH  22  49
DOCKED: ATOM     49  C   UNL d   1      -7.128   3.719 -21.761 -0.22 -0.01    +0.048 C 
DOCKED: BRANCH  49  50
DOCKED: ATOM     50  C   UNL d   1      -7.200   4.491 -23.078 -0.06 -0.01    +0.125 C 
DOCKED: BRANCH  50  51
DOCKED: ATOM     51  C   UNL d   1      -5.947   5.290 -23.300 -0.04 -0.03    +0.305 C 
DOCKED: ATOM     52  O   UNL d   1      -5.861   6.459 -23.633 -0.02 +0.02    -0.251 OA
DOCKED: BRANCH  51  53
DOCKED: ATOM     53  O   UNL d   1      -4.837   4.554 -23.097 -0.52 +0.02    -0.481 OA
DOCKED: ATOM     54  H   UNL d   1      -4.374   4.577 -23.960 +0.04 -0.03    +0.295 HD
DOCKED: ENDBRANCH  51  53
DOCKED: ENDBRANCH  50  51
DOCKED: ENDBRANCH  49  50
DOCKED: ENDBRANCH  22  49
DOCKED: TORSDOF 13
DOCKED: TER
DOCKED: ENDMDL
________________________________________________________________________________


	BEGINNING GENETIC ALGORITHM DOCKING 9 of 100
Run: 9 Seed: 803975907 2009732168 [ Run 9 of 100 GA/GALS ]
Beginning LAMARCKIAN GENETIC ALGORITHM (LGA), with a maximum of 25000000 energy evaluations.

Final-Value: -9.480


	FINAL GENETIC ALGORITHM DOCKED STATE
	_______________________________________________


Detailed state:  trans -12.976 15.589 -4.065 quatxyzw 0.581885 0.316417 0.722365 -0.198693 center 0.153 0.018 -0.028 ntor 13 -172.7630 1.7234 -31.4112 -156.7183 55.8644 -154.4939 -65.4253 -86.5824 153.5891 -22.7383 -179.4143 -105.7829 168.5242
State:	-12.976  15.589  -4.065   0.594  0.323  0.737 -157.079   -172.76    1.72  -31.41 -156.72   55.86 -154.49  -65.43  -86.58  153.59  -22.74 -179.41 -105.78  168.52

DOCKED: MODEL        9
DOCKED: USER    Run = 9
DOCKED: USER    DPF = D:/Protein_go_brrr/autodock/final/mut_K82N/heme/dock.dpf
DOCKED: USER  
DOCKED: USER    Estimated Free Energy of Binding    =   -3.66 kcal/mol  [=(1)+(2)+(3)-(4)]
DOCKED: USER    Estimated Inhibition Constant, Ki   =    2.06 mM (millimolar)  [Temperature = 298.15 K]
DOCKED: USER    
DOCKED: USER    (1) Final Intermolecular Energy     =   -7.54 kcal/mol
DOCKED: USER        vdW + Hbond + desolv Energy     =   -7.14 kcal/mol
DOCKED: USER        Electrostatic Energy            =   -0.40 kcal/mol
DOCKED: USER    (2) Final Total Internal Energy     =   -1.94 kcal/mol
DOCKED: USER    (3) Torsional Free Energy           =   +3.88 kcal/mol
DOCKED: USER    (4) Unbound System's Energy  [=(2)] =   -1.94 kcal/mol
DOCKED: USER    
DOCKED: USER    
DOCKED: USER    NEWDPF move heme_opt.pdbqt
DOCKED: USER    NEWDPF about 0.153000 0.018000 -0.028000
DOCKED: USER    NEWDPF tran0 -12.975814 15.589209 -4.064576
DOCKED: USER    NEWDPF quaternion0 0.581885 0.316417 0.722365 -0.198693
DOCKED: USER    NEWDPF axisangle0 0.593722 0.322854 0.737061 -157.078863
DOCKED: USER    NEWDPF quat0 0.593722 0.322854 0.737061 -157.078863
DOCKED: USER    NEWDPF dihe0 -172.76 1.72 -31.41 -156.72 55.86 -154.49 -65.43 -86.58 153.59 -22.74 -179.41 -105.78 168.52 
DOCKED: USER  keepresnum = 1 
DOCKED: USER  
DOCKED: REMARK  13 active torsions:
DOCKED: REMARK  status: ('A' for Active; 'I' for Inactive)
DOCKED: REMARK    1  A    between atoms: O_3  and  C_38 
DOCKED: REMARK    2  A    between atoms: O_4  and  C_40 
DOCKED: REMARK    3  A    between atoms: O_7  and  C_46 
DOCKED: REMARK    4  A    between atoms: O_9  and  C_48 
DOCKED: REMARK    5  A    between atoms: C_15  and  C_20 
DOCKED: REMARK    6  A    between atoms: C_16  and  C_23 
DOCKED: REMARK    7  A    between atoms: C_20  and  C_38 
DOCKED: REMARK    8  A    between atoms: C_23  and  C_40 
DOCKED: REMARK    9  A    between atoms: C_32  and  C_41 
DOCKED: REMARK   10  A    between atoms: C_37  and  C_45 
DOCKED: REMARK   11  A    between atoms: C_41  and  C_44 
DOCKED: REMARK   12  A    between atoms: C_44  and  C_46 
DOCKED: REMARK   13  A    between atoms: C_47  and  C_48 
DOCKED: USER                              x       y       z     vdW  Elec       q    Type
DOCKED: USER                           _______ _______ _______ _____ _____    ______ ____
DOCKED: ROOT
DOCKED: ATOM      1  O   UNL d   1     -10.844  10.841  -6.834 -0.07 -0.08    -0.289 OA
DOCKED: ATOM      2  O   UNL d   1     -14.247  16.984  -9.494 -0.01 -0.10    -0.289 OA
DOCKED: ATOM      3  N   UNL d   1     -12.061  13.337  -4.788 -0.12 -0.09    -0.247 NA
DOCKED: ATOM      4  N   UNL d   1     -12.930  15.432  -6.708 -0.03 -0.19    -0.247 NA
DOCKED: ATOM      5  N   UNL d   1     -13.110  17.256  -4.493 -0.01 -0.20    -0.354 N 
DOCKED: ATOM      6  N   UNL d   1     -12.189  15.082  -2.511 -0.12 -0.11    -0.354 N 
DOCKED: ATOM      7  C   UNL d   1     -10.746  11.298  -4.435 -0.28 +0.02    +0.084 A 
DOCKED: ATOM      8  C   UNL d   1     -13.555  14.699  -8.953 -0.04 +0.03    +0.084 A 
DOCKED: ATOM      9  C   UNL d   1     -12.988  14.361  -7.571 -0.10 +0.03    +0.058 A 
DOCKED: ATOM     10  C   UNL d   1     -11.416  12.546  -3.851 -0.25 +0.02    +0.058 A 
DOCKED: ATOM     11  C   UNL d   1     -11.142  11.515  -5.864 -0.12 +0.06    +0.193 A 
DOCKED: ATOM     12  C   UNL d   1     -11.957  12.768  -5.944 -0.13 +0.04    +0.109 A 
DOCKED: ATOM     13  C   UNL d   1     -13.773  16.169  -8.727 -0.04 +0.10    +0.193 A 
DOCKED: ATOM     14  C   UNL d   1      -9.221  11.362  -4.328 -0.54 +0.01    +0.026 C 
DOCKED: ATOM     15  C   UNL d   1     -12.540  13.137  -7.250 -0.11 +0.02    +0.055 C 
DOCKED: ATOM     16  C   UNL d   1     -14.913  14.031  -9.190 -0.01 +0.01    +0.026 C 
DOCKED: ATOM     17  C   UNL d   1     -13.348  16.487  -7.330 -0.05 +0.09    +0.109 A 
DOCKED: ATOM     18  C   UNL d   1     -11.437  12.778  -2.525 -0.33 +0.01    +0.050 C 
DOCKED: ATOM     19  C   UNL d   1     -12.102  13.857  -1.889 -0.28 +0.01    +0.045 A 
DOCKED: ATOM     20  C   UNL d   1     -13.268  18.133  -5.534 -0.03 +0.03    +0.045 A 
DOCKED: ATOM     21  C   UNL d   1     -13.408  17.870  -6.837 -0.05 +0.05    +0.057 C 
DOCKED: ATOM     22  C   UNL d   1     -13.098  19.319  -3.589 -0.08 -0.01    -0.019 A 
DOCKED: ATOM     23  C   UNL d   1     -12.998  17.879  -3.278 -0.12 +0.02    +0.045 A 
DOCKED: ATOM     24  C   UNL d   1     -13.259  19.463  -4.926 -0.07 -0.01    -0.022 A 
DOCKED: ATOM     25  C   UNL d   1     -12.791  16.002  -1.683 -0.19 +0.01    +0.049 A 
DOCKED: ATOM     26  C   UNL d   1     -12.694  13.974  -0.641 -0.22 -0.00    -0.018 A 
DOCKED: ATOM     27  C   UNL d   1     -13.145  15.325  -0.524 -0.17 +0.00    +0.003 A 
DOCKED: ATOM     28  C   UNL d   1     -12.853  17.376  -2.043 -0.18 +0.01    +0.052 C 
DOCKED: ATOM     29  C   UNL d   1     -13.418  20.717  -5.716 -0.03 +0.01    +0.046 C 
DOCKED: ATOM     30  C   UNL d   1     -12.836  12.897   0.381 -0.04 +0.01    +0.046 C 
DOCKED: ATOM     31  H   UNL d   1     -13.159  16.253  -4.638 +0.03 +0.09    +0.166 HD
DOCKED: ATOM     32  H   UNL d   1     -11.818  15.270  -3.434 +0.06 +0.08    +0.166 HD
DOCKED: ENDROOT
DOCKED: BRANCH   7  33
DOCKED: ATOM     33  C   UNL d   1     -11.290   9.960  -3.922 -0.22 +0.04    +0.141 C 
DOCKED: BRANCH  33  34
DOCKED: ATOM     34  C   UNL d   1     -10.314   8.830  -4.106 -0.24 +0.12    +0.306 C 
DOCKED: ATOM     35  O   UNL d   1      -9.709   8.249  -3.220 -0.42 -0.10    -0.251 OA
DOCKED: BRANCH  34  36
DOCKED: ATOM     36  O   UNL d   1     -10.152   8.489  -5.397 -0.66 -0.27    -0.481 OA
DOCKED: ATOM     37  H   UNL d   1     -10.682   9.148  -5.894 +0.11 +0.12    +0.295 HD
DOCKED: ENDBRANCH  34  36
DOCKED: ENDBRANCH  33  34
DOCKED: ENDBRANCH   7  33
DOCKED: BRANCH  27  38
DOCKED: ATOM     38  C   UNL d   1     -13.802  15.879   0.620 -0.11 +0.00    +0.017 C 
DOCKED: ATOM     39  C   UNL d   1     -13.275  16.793   1.450 -0.11 +0.01    +0.092 C 
DOCKED: BRANCH  39  40
DOCKED: ATOM     40  C   UNL d   1     -14.062  17.294   2.579 -0.03 +0.03    +0.330 C 
DOCKED: ATOM     41  O   UNL d   1     -13.928  18.349   3.169 -0.02 -0.02    -0.246 OA
DOCKED: BRANCH  40  42
DOCKED: ATOM     42  O   UNL d   1     -15.015  16.408   2.907 +0.00 -0.03    -0.477 OA
DOCKED: ATOM     43  H   UNL d   1     -15.495  16.841   3.643 +0.01 +0.01    +0.295 HD
DOCKED: ENDBRANCH  40  42
DOCKED: ENDBRANCH  39  40
DOCKED: ENDBRANCH  27  38
DOCKED: BRANCH   8  44
DOCKED: ATOM     44  C   UNL d   1     -12.607  14.461 -10.133 -0.06 +0.05    +0.141 C 
DOCKED: BRANCH  44  45
DOCKED: ATOM     45  C   UNL d   1     -11.489  15.467 -10.210 -0.13 +0.20    +0.306 C 
DOCKED: ATOM     46  O   UNL d   1     -11.358  16.344 -11.045 -0.12 -0.13    -0.251 OA
DOCKED: BRANCH  45  47
DOCKED: ATOM     47  O   UNL d   1     -10.574  15.295  -9.239 -0.59 -0.59    -0.481 OA
DOCKED: ATOM     48  H   UNL d   1      -9.726  15.573  -9.645 -0.36 +0.28    +0.295 HD
DOCKED: ENDBRANCH  45  47
DOCKED: ENDBRANCH  44  45
DOCKED: ENDBRANCH   8  44
DOCKED: BRANCH  22  49
DOCKED: ATOM     49  C   UNL d   1     -13.012  20.410  -2.562 -0.05 +0.01    +0.048 C 
DOCKED: BRANCH  49  50
DOCKED: ATOM     50  C   UNL d   1     -11.564  20.798  -2.264 -0.08 +0.02    +0.125 C 
DOCKED: BRANCH  50  51
DOCKED: ATOM     51  C   UNL d   1     -10.611  20.002  -3.108 -0.11 +0.10    +0.305 C 
DOCKED: ATOM     52  O   UNL d   1     -10.062  18.952  -2.821 -0.24 -0.10    -0.251 OA
DOCKED: BRANCH  51  53
DOCKED: ATOM     53  O   UNL d   1     -10.380  20.589  -4.300 -0.02 -0.18    -0.481 OA
DOCKED: ATOM     54  H   UNL d   1     -10.595  21.533  -4.145 +0.06 +0.07    +0.295 HD
DOCKED: ENDBRANCH  51  53
DOCKED: ENDBRANCH  50  51
DOCKED: ENDBRANCH  49  50
DOCKED: ENDBRANCH  22  49
DOCKED: TORSDOF 13
DOCKED: TER
DOCKED: ENDMDL
________________________________________________________________________________


	BEGINNING GENETIC ALGORITHM DOCKING 10 of 100
Run: 10 Seed: 2076337102 499511879 [ Run 10 of 100 GA/GALS ]
Beginning LAMARCKIAN GENETIC ALGORITHM (LGA), with a maximum of 25000000 energy evaluations.

Final-Value: -10.741


	FINAL GENETIC ALGORITHM DOCKED STATE
	_______________________________________________


Detailed state:  trans 11.430 15.980 -4.606 quatxyzw -0.043225 0.595015 0.612684 -0.518369 center 0.153 0.018 -0.028 ntor 13 -102.7795 55.8516 106.1164 119.3909 39.3458 134.4526 -43.1972 35.7137 134.0190 -127.6164 115.7739 8.3034 46.4371
State:	 11.430  15.980  -4.606  -0.051  0.696  0.716 -117.554   -102.78   55.85  106.12  119.39   39.35  134.45  -43.20   35.71  134.02 -127.62  115.77    8.30   46.44

DOCKED: MODEL       10
DOCKED: USER    Run = 10
DOCKED: USER    DPF = D:/Protein_go_brrr/autodock/final/mut_K82N/heme/dock.dpf
DOCKED: USER  
DOCKED: USER    Estimated Free Energy of Binding    =   -3.79 kcal/mol  [=(1)+(2)+(3)-(4)]
DOCKED: USER    Estimated Inhibition Constant, Ki   =    1.66 mM (millimolar)  [Temperature = 298.15 K]
DOCKED: USER    
DOCKED: USER    (1) Final Intermolecular Energy     =   -7.67 kcal/mol
DOCKED: USER        vdW + Hbond + desolv Energy     =   -7.53 kcal/mol
DOCKED: USER        Electrostatic Energy            =   -0.14 kcal/mol
DOCKED: USER    (2) Final Total Internal Energy     =   -3.07 kcal/mol
DOCKED: USER    (3) Torsional Free Energy           =   +3.88 kcal/mol
DOCKED: USER    (4) Unbound System's Energy  [=(2)] =   -3.07 kcal/mol
DOCKED: USER    
DOCKED: USER    
DOCKED: USER    NEWDPF move heme_opt.pdbqt
DOCKED: USER    NEWDPF about 0.153000 0.018000 -0.028000
DOCKED: USER    NEWDPF tran0 11.429771 15.980233 -4.605574
DOCKED: USER    NEWDPF quaternion0 -0.043225 0.595015 0.612684 -0.518369
DOCKED: USER    NEWDPF axisangle0 -0.050546 0.695797 0.716458 -117.554192
DOCKED: USER    NEWDPF quat0 -0.050546 0.695797 0.716458 -117.554192
DOCKED: USER    NEWDPF dihe0 -102.78 55.85 106.12 119.39 39.35 134.45 -43.20 35.71 134.02 -127.62 115.77 8.30 46.44 
DOCKED: USER  keepresnum = 1 
DOCKED: USER  
DOCKED: REMARK  13 active torsions:
DOCKED: REMARK  status: ('A' for Active; 'I' for Inactive)
DOCKED: REMARK    1  A    between atoms: O_3  and  C_38 
DOCKED: REMARK    2  A    between atoms: O_4  and  C_40 
DOCKED: REMARK    3  A    between atoms: O_7  and  C_46 
DOCKED: REMARK    4  A    between atoms: O_9  and  C_48 
DOCKED: REMARK    5  A    between atoms: C_15  and  C_20 
DOCKED: REMARK    6  A    between atoms: C_16  and  C_23 
DOCKED: REMARK    7  A    between atoms: C_20  and  C_38 
DOCKED: REMARK    8  A    between atoms: C_23  and  C_40 
DOCKED: REMARK    9  A    between atoms: C_32  and  C_41 
DOCKED: REMARK   10  A    between atoms: C_37  and  C_45 
DOCKED: REMARK   11  A    between atoms: C_41  and  C_44 
DOCKED: REMARK   12  A    between atoms: C_44  and  C_46 
DOCKED: REMARK   13  A    between atoms: C_47  and  C_48 
DOCKED: USER                              x       y       z     vdW  Elec       q    Type
DOCKED: USER                           _______ _______ _______ _____ _____    ______ ____
DOCKED: ROOT
DOCKED: ATOM      1  O   UNL d   1      13.210  13.621   0.495 -0.10 +0.02    -0.289 OA
DOCKED: ATOM      2  O   UNL d   1      15.086  12.017  -6.597 -0.08 +0.02    -0.289 OA
DOCKED: ATOM      3  N   UNL d   1      11.784  15.203  -2.217 -0.20 +0.06    -0.247 NA
DOCKED: ATOM      4  N   UNL d   1      13.340  14.149  -4.519 -0.14 +0.04    -0.247 NA
DOCKED: ATOM      5  N   UNL d   1      12.198  16.239  -6.130 +0.00 +0.01    -0.354 N 
DOCKED: ATOM      6  N   UNL d   1      10.603  17.338  -3.732 -0.09 +0.06    -0.354 N 
DOCKED: ATOM      7  C   UNL d   1      11.661  15.490   0.214 -0.20 -0.01    +0.084 A 
DOCKED: ATOM      8  C   UNL d   1      14.372  11.949  -4.257 -0.19 -0.01    +0.084 A 
DOCKED: ATOM      9  C   UNL d   1      13.593  13.117  -3.643 -0.19 -0.01    +0.058 A 
DOCKED: ATOM     10  C   UNL d   1      11.232  15.944  -1.185 -0.22 -0.01    +0.058 A 
DOCKED: ATOM     11  C   UNL d   1      12.538  14.351  -0.210 -0.17 -0.02    +0.193 A 
DOCKED: ATOM     12  C   UNL d   1      12.510  14.264  -1.704 -0.24 -0.02    +0.109 A 
DOCKED: ATOM     13  C   UNL d   1      14.548  12.526  -5.633 -0.12 -0.02    +0.193 A 
DOCKED: ATOM     14  C   UNL d   1      12.521  16.542   0.920 -0.08 -0.00    +0.026 C 
DOCKED: ATOM     15  C   UNL d   1      13.234  13.150  -2.350 -0.18 -0.01    +0.055 C 
DOCKED: ATOM     16  C   UNL d   1      13.514  10.685  -4.359 -0.37 -0.01    +0.026 C 
DOCKED: ATOM     17  C   UNL d   1      13.884  13.864  -5.658 -0.16 -0.01    +0.109 A 
DOCKED: ATOM     18  C   UNL d   1      10.325  16.922  -1.360 -0.24 -0.01    +0.050 C 
DOCKED: ATOM     19  C   UNL d   1       9.807  17.350  -2.609 -0.23 -0.01    +0.045 A 
DOCKED: ATOM     20  C   UNL d   1      13.147  15.764  -6.997 -0.11 -0.00    +0.045 A 
DOCKED: ATOM     21  C   UNL d   1      13.932  14.689  -6.875 -0.14 -0.00    +0.057 C 
DOCKED: ATOM     22  C   UNL d   1      12.208  17.647  -7.887 -0.08 +0.00    -0.019 A 
DOCKED: ATOM     23  C   UNL d   1      11.578  17.373  -6.580 -0.05 -0.00    +0.045 A 
DOCKED: ATOM     24  C   UNL d   1      13.135  16.690  -8.129 -0.08 +0.00    -0.022 A 
DOCKED: ATOM     25  C   UNL d   1       9.931  17.875  -4.806 -0.18 -0.01    +0.049 A 
DOCKED: ATOM     26  C   UNL d   1       8.575  17.874  -2.970 -0.35 +0.00    -0.018 A 
DOCKED: ATOM     27  C   UNL d   1       8.653  18.186  -4.363 -0.28 -0.00    +0.003 A 
DOCKED: ATOM     28  C   UNL d   1      10.599  18.114  -6.038 -0.12 -0.00    +0.052 C 
DOCKED: ATOM     29  C   UNL d   1      14.022  16.529  -9.317 -0.04 -0.00    +0.046 C 
DOCKED: ATOM     30  C   UNL d   1       7.396  18.072  -2.079 -0.48 -0.01    +0.046 C 
DOCKED: ATOM     31  H   UNL d   1      11.953  15.728  -5.288 +0.05 -0.01    +0.166 HD
DOCKED: ATOM     32  H   UNL d   1      11.562  17.012  -3.736 +0.05 -0.02    +0.166 HD
DOCKED: ENDROOT
DOCKED: BRANCH   7  33
DOCKED: ATOM     33  C   UNL d   1      10.529  14.990   1.118 -0.18 -0.01    +0.141 C 
DOCKED: BRANCH  33  34
DOCKED: ATOM     34  C   UNL d   1      11.012  14.600   2.488 -0.11 -0.00    +0.306 C 
DOCKED: ATOM     35  O   UNL d   1      11.033  15.315   3.475 -0.05 -0.00    -0.251 OA
DOCKED: BRANCH  34  36
DOCKED: ATOM     36  O   UNL d   1      11.440  13.326   2.543 -0.05 -0.01    -0.481 OA
DOCKED: ATOM     37  H   UNL d   1      12.311  13.339   2.091 +0.06 -0.00    +0.295 HD
DOCKED: ENDBRANCH  34  36
DOCKED: ENDBRANCH  33  34
DOCKED: ENDBRANCH   7  33
DOCKED: BRANCH  27  38
DOCKED: ATOM     38  C   UNL d   1       7.599  18.765  -5.139 -0.35 -0.00    +0.017 C 
DOCKED: ATOM     39  C   UNL d   1       7.221  18.356  -6.360 -0.29 -0.02    +0.092 C 
DOCKED: BRANCH  39  40
DOCKED: ATOM     40  C   UNL d   1       6.111  19.025  -7.044 -0.20 -0.11    +0.330 C 
DOCKED: ATOM     41  O   UNL d   1       6.077  19.424  -8.192 -0.16 +0.07    -0.246 OA
DOCKED: BRANCH  40  42
DOCKED: ATOM     42  O   UNL d   1       5.065  19.151  -6.212 -0.47 +0.25    -0.477 OA
DOCKED: ATOM     43  H   UNL d   1       4.330  18.717  -6.692 -0.40 -0.27    +0.295 HD
DOCKED: ENDBRANCH  40  42
DOCKED: ENDBRANCH  39  40
DOCKED: ENDBRANCH  27  38
DOCKED: BRANCH   8  44
DOCKED: ATOM     44  C   UNL d   1      15.728  11.648  -3.610 -0.07 -0.01    +0.141 C 
DOCKED: BRANCH  44  45
DOCKED: ATOM     45  C   UNL d   1      16.478  10.536  -4.294 -0.02 -0.02    +0.306 C 
DOCKED: ATOM     46  O   UNL d   1      16.380   9.343  -4.062 -0.03 +0.01    -0.251 OA
DOCKED: BRANCH  45  47
DOCKED: ATOM     47  O   UNL d   1      17.340  10.990  -5.222 +0.00 +0.03    -0.481 OA
DOCKED: ATOM     48  H   UNL d   1      16.773  11.256  -5.977 +0.03 -0.02    +0.295 HD
DOCKED: ENDBRANCH  45  47
DOCKED: ENDBRANCH  44  45
DOCKED: ENDBRANCH   8  44
DOCKED: BRANCH  22  49
DOCKED: ATOM     49  C   UNL d   1      11.860  18.815  -8.763 -0.04 -0.00    +0.048 C 
DOCKED: BRANCH  49  50
DOCKED: ATOM     50  C   UNL d   1      10.365  19.132  -8.720 -0.05 -0.01    +0.125 C 
DOCKED: BRANCH  50  51
DOCKED: ATOM     51  C   UNL d   1       9.558  17.988  -9.266 -0.07 -0.02    +0.305 C 
DOCKED: ATOM     52  O   UNL d   1       9.839  16.803  -9.243 -0.14 +0.00    -0.251 OA
DOCKED: BRANCH  51  53
DOCKED: ATOM     53  O   UNL d   1       8.413  18.408  -9.840 -0.01 +0.05    -0.481 OA
DOCKED: ATOM     54  H   UNL d   1       7.927  18.845  -9.110 +0.07 -0.04    +0.295 HD
DOCKED: ENDBRANCH  51  53
DOCKED: ENDBRANCH  50  51
DOCKED: ENDBRANCH  49  50
DOCKED: ENDBRANCH  22  49
DOCKED: TORSDOF 13
DOCKED: TER
DOCKED: ENDMDL
________________________________________________________________________________


	BEGINNING GENETIC ALGORITHM DOCKING 11 of 100
Run: 11 Seed: 1288160083 1926319523 [ Run 11 of 100 GA/GALS ]
Beginning LAMARCKIAN GENETIC ALGORITHM (LGA), with a maximum of 25000000 energy evaluations.

Final-Value: -11.158


	FINAL GENETIC ALGORITHM DOCKED STATE
	_______________________________________________


Detailed state:  trans 13.771 1.284 10.849 quatxyzw 0.134123 0.801174 -0.347465 0.468401 center 0.153 0.018 -0.028 ntor 13 143.6729 -125.1151 -117.6058 -129.1121 -139.4684 55.1607 120.1256 -14.9171 14.0743 -31.8476 121.4214 -60.6944 36.7403
State:	 13.771   1.284  10.849   0.152  0.907 -0.393 124.139    143.67 -125.12 -117.61 -129.11 -139.47   55.16  120.13  -14.92   14.07  -31.85  121.42  -60.69   36.74

DOCKED: MODEL       11
DOCKED: USER    Run = 11
DOCKED: USER    DPF = D:/Protein_go_brrr/autodock/final/mut_K82N/heme/dock.dpf
DOCKED: USER  
DOCKED: USER    Estimated Free Energy of Binding    =   -3.14 kcal/mol  [=(1)+(2)+(3)-(4)]
DOCKED: USER    Estimated Inhibition Constant, Ki   =    5.00 mM (millimolar)  [Temperature = 298.15 K]
DOCKED: USER    
DOCKED: USER    (1) Final Intermolecular Energy     =   -7.02 kcal/mol
DOCKED: USER        vdW + Hbond + desolv Energy     =   -6.98 kcal/mol
DOCKED: USER        Electrostatic Energy            =   -0.03 kcal/mol
DOCKED: USER    (2) Final Total Internal Energy     =   -4.14 kcal/mol
DOCKED: USER    (3) Torsional Free Energy           =   +3.88 kcal/mol
DOCKED: USER    (4) Unbound System's Energy  [=(2)] =   -4.14 kcal/mol
DOCKED: USER    
DOCKED: USER    
DOCKED: USER    NEWDPF move heme_opt.pdbqt
DOCKED: USER    NEWDPF about 0.153000 0.018000 -0.028000
DOCKED: USER    NEWDPF tran0 13.770508 1.284053 10.849282
DOCKED: USER    NEWDPF quaternion0 0.134123 0.801174 -0.347465 0.468401
DOCKED: USER    NEWDPF axisangle0 0.151806 0.906802 -0.393275 124.138860
DOCKED: USER    NEWDPF quat0 0.151806 0.906802 -0.393275 124.138860
DOCKED: USER    NEWDPF dihe0 143.67 -125.12 -117.61 -129.11 -139.47 55.16 120.13 -14.92 14.07 -31.85 121.42 -60.69 36.74 
DOCKED: USER  keepresnum = 1 
DOCKED: USER  
DOCKED: REMARK  13 active torsions:
DOCKED: REMARK  status: ('A' for Active; 'I' for Inactive)
DOCKED: REMARK    1  A    between atoms: O_3  and  C_38 
DOCKED: REMARK    2  A    between atoms: O_4  and  C_40 
DOCKED: REMARK    3  A    between atoms: O_7  and  C_46 
DOCKED: REMARK    4  A    between atoms: O_9  and  C_48 
DOCKED: REMARK    5  A    between atoms: C_15  and  C_20 
DOCKED: REMARK    6  A    between atoms: C_16  and  C_23 
DOCKED: REMARK    7  A    between atoms: C_20  and  C_38 
DOCKED: REMARK    8  A    between atoms: C_23  and  C_40 
DOCKED: REMARK    9  A    between atoms: C_32  and  C_41 
DOCKED: REMARK   10  A    between atoms: C_37  and  C_45 
DOCKED: REMARK   11  A    between atoms: C_41  and  C_44 
DOCKED: REMARK   12  A    between atoms: C_44  and  C_46 
DOCKED: REMARK   13  A    between atoms: C_47  and  C_48 
DOCKED: USER                              x       y       z     vdW  Elec       q    Type
DOCKED: USER                           _______ _______ _______ _____ _____    ______ ____
DOCKED: ROOT
DOCKED: ATOM      1  O   UNL d   1      15.984  -0.807   5.801 -0.02 -0.01    -0.289 OA
DOCKED: ATOM      2  O   UNL d   1      17.034  -2.973  12.915 -0.09 -0.01    -0.289 OA
DOCKED: ATOM      3  N   UNL d   1      14.560   0.830   8.482 -0.63 -0.03    -0.247 NA
DOCKED: ATOM      4  N   UNL d   1      15.277  -0.893  10.794 -0.08 +0.04    -0.247 NA
DOCKED: ATOM      5  N   UNL d   1      13.343   0.554  12.354 -0.08 +0.08    -0.354 N 
DOCKED: ATOM      6  N   UNL d   1      12.591   2.324   9.945 -0.09 +0.02    -0.354 N 
DOCKED: ATOM      7  C   UNL d   1      14.376   1.018   6.045 -0.09 +0.01    +0.084 A 
DOCKED: ATOM      8  C   UNL d   1      17.292  -2.259  10.587 -0.06 -0.00    +0.084 A 
DOCKED: ATOM      9  C   UNL d   1      16.284  -1.299   9.947 -0.10 -0.00    +0.058 A 
DOCKED: ATOM     10  C   UNL d   1      13.951   1.501   7.435 -0.07 +0.00    +0.058 A 
DOCKED: ATOM     11  C   UNL d   1      15.347  -0.033   6.492 -0.05 +0.01    +0.193 A 
DOCKED: ATOM     12  C   UNL d   1      15.388  -0.032   7.989 +0.01 +0.01    +0.109 A 
DOCKED: ATOM     13  C   UNL d   1      16.650  -2.353  11.942 -0.10 -0.00    +0.193 A 
DOCKED: ATOM     14  C   UNL d   1      13.225   0.342   5.295 -0.23 +0.00    +0.026 C 
DOCKED: ATOM     15  C   UNL d   1      16.351  -0.929   8.659 -0.09 -0.00    +0.055 C 
DOCKED: ATOM     16  C   UNL d   1      18.673  -1.614  10.740 -0.02 -0.00    +0.026 C 
DOCKED: ATOM     17  C   UNL d   1      15.434  -1.484  11.935 -0.17 -0.01    +0.109 A 
DOCKED: ATOM     18  C   UNL d   1      13.124   2.552   7.591 -0.18 -0.00    +0.050 C 
DOCKED: ATOM     19  C   UNL d   1      12.743   3.121   8.833 -0.17 -0.00    +0.045 A 
DOCKED: ATOM     20  C   UNL d   1      13.632  -0.465  13.224 -0.27 -0.01    +0.045 A 
DOCKED: ATOM     21  C   UNL d   1      14.572  -1.411  13.124 -0.28 -0.01    +0.057 C 
DOCKED: ATOM     22  C   UNL d   1      11.894   0.754  14.067 -0.32 +0.01    -0.019 A 
DOCKED: ATOM     23  C   UNL d   1      12.308   1.344  12.778 -0.24 -0.01    +0.045 A 
DOCKED: ATOM     24  C   UNL d   1      12.683  -0.316  14.326 -0.32 +0.01    -0.022 A 
DOCKED: ATOM     25  C   UNL d   1      12.132   3.063  11.010 -0.12 -0.00    +0.049 A 
DOCKED: ATOM     26  C   UNL d   1      12.409   4.417   9.194 -0.16 +0.00    -0.018 A 
DOCKED: ATOM     27  C   UNL d   1      12.043   4.378  10.575 -0.17 -0.00    +0.003 A 
DOCKED: ATOM     28  C   UNL d   1      11.750   2.432  12.225 -0.11 -0.00    +0.052 C 
DOCKED: ATOM     29  C   UNL d   1      12.661  -1.226  15.506 -0.29 -0.01    +0.046 C 
DOCKED: ATOM     30  C   UNL d   1      12.431   5.620   8.313 -0.14 +0.00    +0.046 C 
DOCKED: ATOM     31  H   UNL d   1      13.914   0.722  11.532 -0.01 -0.03    +0.166 HD
DOCKED: ATOM     32  H   UNL d   1      12.760   1.325   9.946 +0.02 -0.02    +0.166 HD
DOCKED: ENDROOT
DOCKED: BRANCH   7  33
DOCKED: ATOM     33  C   UNL d   1      15.079   2.063   5.172 -0.03 +0.00    +0.141 C 
DOCKED: BRANCH  33  34
DOCKED: ATOM     34  C   UNL d   1      16.368   2.551   5.778 +0.00 -0.00    +0.306 C 
DOCKED: ATOM     35  O   UNL d   1      16.485   3.449   6.594 -0.00 +0.00    -0.251 OA
DOCKED: BRANCH  34  36
DOCKED: ATOM     36  O   UNL d   1      17.440   1.878   5.325 +0.01 +0.00    -0.481 OA
DOCKED: ATOM     37  H   UNL d   1      17.138   0.947   5.259 +0.01 +0.00    +0.295 HD
DOCKED: ENDBRANCH  34  36
DOCKED: ENDBRANCH  33  34
DOCKED: ENDBRANCH   7  33
DOCKED: BRANCH  27  38
DOCKED: ATOM     38  C   UNL d   1      11.614   5.505  11.347 -0.20 -0.00    +0.017 C 
DOCKED: ATOM     39  C   UNL d   1      10.856   5.443  12.453 -0.25 -0.01    +0.092 C 
DOCKED: BRANCH  39  40
DOCKED: ATOM     40  C   UNL d   1      10.499   6.674  13.163 -0.17 -0.01    +0.330 C 
DOCKED: ATOM     41  O   UNL d   1       9.978   7.672  12.704 -0.45 -0.02    -0.246 OA
DOCKED: BRANCH  40  42
DOCKED: ATOM     42  O   UNL d   1      10.822   6.568  14.461 -0.06 +0.03    -0.477 OA
DOCKED: ATOM     43  H   UNL d   1      11.773   6.335  14.448 +0.07 -0.01    +0.295 HD
DOCKED: ENDBRANCH  40  42
DOCKED: ENDBRANCH  39  40
DOCKED: ENDBRANCH  27  38
DOCKED: BRANCH   8  44
DOCKED: ATOM     44  C   UNL d   1      17.395  -3.641   9.933 -0.05 -0.00    +0.141 C 
DOCKED: BRANCH  44  45
DOCKED: ATOM     45  C   UNL d   1      16.316  -4.591  10.378 -0.11 +0.00    +0.306 C 
DOCKED: ATOM     46  O   UNL d   1      15.151  -4.586  10.021 -0.22 +0.00    -0.251 OA
DOCKED: BRANCH  45  47
DOCKED: ATOM     47  O   UNL d   1      16.759  -5.489  11.277 -0.05 -0.02    -0.481 OA
DOCKED: ATOM     48  H   UNL d   1      17.050  -4.949  12.043 +0.06 +0.02    +0.295 HD
DOCKED: ENDBRANCH  45  47
DOCKED: ENDBRANCH  44  45
DOCKED: ENDBRANCH   8  44
DOCKED: BRANCH  22  49
DOCKED: ATOM     49  C   UNL d   1      10.768   1.277  14.910 -0.44 -0.02    +0.048 C 
DOCKED: BRANCH  49  50
DOCKED: ATOM     50  C   UNL d   1      10.836   2.795  15.070 -0.33 -0.02    +0.125 C 
DOCKED: BRANCH  50  51
DOCKED: ATOM     51  C   UNL d   1      12.145   3.213  15.678 -0.09 -0.02    +0.305 C 
DOCKED: ATOM     52  O   UNL d   1      12.911   2.530  16.334 -0.07 +0.01    -0.251 OA
DOCKED: BRANCH  51  53
DOCKED: ATOM     53  O   UNL d   1      12.425   4.508  15.431 +0.00 +0.02    -0.481 OA
DOCKED: ATOM     54  H   UNL d   1      11.609   4.983  15.695 +0.09 -0.02    +0.295 HD
DOCKED: ENDBRANCH  51  53
DOCKED: ENDBRANCH  50  51
DOCKED: ENDBRANCH  49  50
DOCKED: ENDBRANCH  22  49
DOCKED: TORSDOF 13
DOCKED: TER
DOCKED: ENDMDL
________________________________________________________________________________


	BEGINNING GENETIC ALGORITHM DOCKING 12 of 100
Run: 12 Seed: 1500811952 495207186 [ Run 12 of 100 GA/GALS ]
Beginning LAMARCKIAN GENETIC ALGORITHM (LGA), with a maximum of 25000000 energy evaluations.

Final-Value: -11.623


	FINAL GENETIC ALGORITHM DOCKED STATE
	_______________________________________________


Detailed state:  trans 11.147 -9.247 -0.577 quatxyzw 0.234300 -0.590020 -0.404751 -0.658147 center 0.153 0.018 -0.028 ntor 13 163.0693 161.5973 45.4279 30.6202 -159.5244 -52.3332 156.8695 79.9309 68.6095 -3.1479 -80.5240 13.2917 -13.9807
State:	 11.147  -9.247  -0.577   0.311 -0.784 -0.538 -97.683    163.07  161.60   45.43   30.62 -159.52  -52.33  156.87   79.93   68.61   -3.15  -80.52   13.29  -13.98

DOCKED: MODEL       12
DOCKED: USER    Run = 12
DOCKED: USER    DPF = D:/Protein_go_brrr/autodock/final/mut_K82N/heme/dock.dpf
DOCKED: USER  
DOCKED: USER    Estimated Free Energy of Binding    =   -4.07 kcal/mol  [=(1)+(2)+(3)-(4)]
DOCKED: USER    Estimated Inhibition Constant, Ki   =    1.03 mM (millimolar)  [Temperature = 298.15 K]
DOCKED: USER    
DOCKED: USER    (1) Final Intermolecular Energy     =   -7.95 kcal/mol
DOCKED: USER        vdW + Hbond + desolv Energy     =   -7.43 kcal/mol
DOCKED: USER        Electrostatic Energy            =   -0.52 kcal/mol
DOCKED: USER    (2) Final Total Internal Energy     =   -3.67 kcal/mol
DOCKED: USER    (3) Torsional Free Energy           =   +3.88 kcal/mol
DOCKED: USER    (4) Unbound System's Energy  [=(2)] =   -3.67 kcal/mol
DOCKED: USER    
DOCKED: USER    
DOCKED: USER    NEWDPF move heme_opt.pdbqt
DOCKED: USER    NEWDPF about 0.153000 0.018000 -0.028000
DOCKED: USER    NEWDPF tran0 11.146778 -9.247167 -0.576768
DOCKED: USER    NEWDPF quaternion0 0.234300 -0.590020 -0.404751 -0.658147
DOCKED: USER    NEWDPF axisangle0 0.311200 -0.783673 -0.537597 -97.682662
DOCKED: USER    NEWDPF quat0 0.311200 -0.783673 -0.537597 -97.682662
DOCKED: USER    NEWDPF dihe0 163.07 161.60 45.43 30.62 -159.52 -52.33 156.87 79.93 68.61 -3.15 -80.52 13.29 -13.98 
DOCKED: USER  keepresnum = 1 
DOCKED: USER  
DOCKED: REMARK  13 active torsions:
DOCKED: REMARK  status: ('A' for Active; 'I' for Inactive)
DOCKED: REMARK    1  A    between atoms: O_3  and  C_38 
DOCKED: REMARK    2  A    between atoms: O_4  and  C_40 
DOCKED: REMARK    3  A    between atoms: O_7  and  C_46 
DOCKED: REMARK    4  A    between atoms: O_9  and  C_48 
DOCKED: REMARK    5  A    between atoms: C_15  and  C_20 
DOCKED: REMARK    6  A    between atoms: C_16  and  C_23 
DOCKED: REMARK    7  A    between atoms: C_20  and  C_38 
DOCKED: REMARK    8  A    between atoms: C_23  and  C_40 
DOCKED: REMARK    9  A    between atoms: C_32  and  C_41 
DOCKED: REMARK   10  A    between atoms: C_37  and  C_45 
DOCKED: REMARK   11  A    between atoms: C_41  and  C_44 
DOCKED: REMARK   12  A    between atoms: C_44  and  C_46 
DOCKED: REMARK   13  A    between atoms: C_47  and  C_48 
DOCKED: USER                              x       y       z     vdW  Elec       q    Type
DOCKED: USER                           _______ _______ _______ _____ _____    ______ ____
DOCKED: ROOT
DOCKED: ATOM      1  O   UNL d   1      11.088  -3.647  -2.417 -0.60 -0.14    -0.289 OA
DOCKED: ATOM      2  O   UNL d   1      11.494 -10.090  -6.252 -0.01 +0.00    -0.289 OA
DOCKED: ATOM      3  N   UNL d   1      11.230  -6.730  -0.879 -0.07 -0.00    -0.247 NA
DOCKED: ATOM      4  N   UNL d   1      11.063  -8.636  -3.152 -0.04 -0.01    -0.247 NA
DOCKED: ATOM      5  N   UNL d   1      10.554 -10.725  -1.243 -0.01 -0.02    -0.354 N 
DOCKED: ATOM      6  N   UNL d   1      10.709  -8.737   1.108 -0.15 -0.01    -0.354 N 
DOCKED: ATOM      7  C   UNL d   1      10.905  -4.426  -0.107 -0.28 -0.01    +0.084 A 
DOCKED: ATOM      8  C   UNL d   1      11.845  -7.850  -5.330 -0.03 -0.00    +0.084 A 
DOCKED: ATOM      9  C   UNL d   1      11.529  -7.551  -3.860 -0.05 +0.00    +0.058 A 
DOCKED: ATOM     10  C   UNL d   1      11.015  -5.918   0.222 -0.25 -0.00    +0.058 A 
DOCKED: ATOM     11  C   UNL d   1      11.116  -4.537  -1.588 -0.16 +0.03    +0.193 A 
DOCKED: ATOM     12  C   UNL d   1      11.327  -5.980  -1.928 -0.10 +0.01    +0.109 A 
DOCKED: ATOM     13  C   UNL d   1      11.437  -9.296  -5.333 -0.02 -0.00    +0.193 A 
DOCKED: ATOM     14  C   UNL d   1       9.499  -3.882   0.153 -0.44 -0.01    +0.026 C 
DOCKED: ATOM     15  C   UNL d   1      11.648  -6.325  -3.327 -0.10 +0.00    +0.055 C 
DOCKED: ATOM     16  C   UNL d   1      13.347  -7.762  -5.617 -0.01 -0.00    +0.026 C 
DOCKED: ATOM     17  C   UNL d   1      10.975  -9.647  -3.956 -0.05 +0.00    +0.109 A 
DOCKED: ATOM     18  C   UNL d   1      10.990  -6.361   1.493 -0.28 -0.00    +0.050 C 
DOCKED: ATOM     19  C   UNL d   1      11.168  -7.708   1.899 -0.28 +0.00    +0.045 A 
DOCKED: ATOM     20  C   UNL d   1      10.287 -11.399  -2.406 -0.05 +0.00    +0.045 A 
DOCKED: ATOM     21  C   UNL d   1      10.470 -10.997  -3.668 -0.06 +0.00    +0.057 C 
DOCKED: ATOM     22  C   UNL d   1       9.715 -12.726  -0.637 -0.09 -0.00    -0.019 A 
DOCKED: ATOM     23  C   UNL d   1      10.241 -11.446  -0.121 -0.13 +0.00    +0.045 A 
DOCKED: ATOM     24  C   UNL d   1       9.746 -12.692  -1.990 -0.05 -0.00    -0.022 A 
DOCKED: ATOM     25  C   UNL d   1      10.903  -9.949   1.731 -0.23 +0.01    +0.049 A 
DOCKED: ATOM     26  C   UNL d   1      11.708  -8.266   3.047 -0.29 -0.00    -0.018 A 
DOCKED: ATOM     27  C   UNL d   1      11.556  -9.682   2.927 -0.25 +0.00    +0.003 A 
DOCKED: ATOM     28  C   UNL d   1      10.370 -11.145   1.180 -0.21 +0.01    +0.052 C 
DOCKED: ATOM     29  C   UNL d   1       9.333 -13.748  -2.959 -0.05 +0.00    +0.046 C 
DOCKED: ATOM     30  C   UNL d   1      12.329  -7.532   4.187 -0.10 +0.00    +0.046 C 
DOCKED: ATOM     31  H   UNL d   1      11.011  -9.820  -1.252 +0.04 +0.01    +0.166 HD
DOCKED: ATOM     32  H   UNL d   1      10.256  -8.597   0.213 +0.06 +0.00    +0.166 HD
DOCKED: ENDROOT
DOCKED: BRANCH   7  33
DOCKED: ATOM     33  C   UNL d   1      11.980  -3.534   0.523 -0.22 -0.02    +0.141 C 
DOCKED: BRANCH  33  34
DOCKED: ATOM     34  C   UNL d   1      12.858  -2.871  -0.504 -0.14 +0.06    +0.306 C 
DOCKED: ATOM     35  O   UNL d   1      14.007  -3.176  -0.774 -0.06 -0.05    -0.251 OA
DOCKED: BRANCH  34  36
DOCKED: ATOM     36  O   UNL d   1      12.240  -1.860  -1.139 -0.45 -0.35    -0.481 OA
DOCKED: ATOM     37  H   UNL d   1      11.284  -2.022  -0.991 -0.27 +0.11    +0.295 HD
DOCKED: ENDBRANCH  34  36
DOCKED: ENDBRANCH  33  34
DOCKED: ENDBRANCH   7  33
DOCKED: BRANCH  27  38
DOCKED: ATOM     38  C   UNL d   1      11.967 -10.643   3.906 -0.19 +0.00    +0.017 C 
DOCKED: ATOM     39  C   UNL d   1      12.708 -11.733   3.658 -0.13 +0.02    +0.092 C 
DOCKED: BRANCH  39  40
DOCKED: ATOM     40  C   UNL d   1      13.077 -12.630   4.756 -0.03 +0.12    +0.330 C 
DOCKED: ATOM     41  O   UNL d   1      13.640 -12.342   5.795 -0.07 -0.06    -0.246 OA
DOCKED: BRANCH  40  42
DOCKED: ATOM     42  O   UNL d   1      12.693 -13.885   4.475 -0.04 -0.23    -0.477 OA
DOCKED: ATOM     43  H   UNL d   1      12.024 -13.774   3.769 +0.06 +0.16    +0.295 HD
DOCKED: ENDBRANCH  40  42
DOCKED: ENDBRANCH  39  40
DOCKED: ENDBRANCH  27  38
DOCKED: BRANCH   8  44
DOCKED: ATOM     44  C   UNL d   1      11.036  -7.049  -6.355 -0.06 -0.01    +0.141 C 
DOCKED: BRANCH  44  45
DOCKED: ATOM     45  C   UNL d   1       9.549  -7.135  -6.138 -0.09 -0.05    +0.306 C 
DOCKED: ATOM     46  O   UNL d   1       8.811  -6.228  -5.795 -0.20 +0.05    -0.251 OA
DOCKED: BRANCH  45  47
DOCKED: ATOM     47  O   UNL d   1       9.071  -8.377  -6.339 -0.25 +0.08    -0.481 OA
DOCKED: ATOM     48  H   UNL d   1       8.257  -8.246  -6.871 -0.44 -0.20    +0.295 HD
DOCKED: ENDBRANCH  45  47
DOCKED: ENDBRANCH  44  45
DOCKED: ENDBRANCH   8  44
DOCKED: BRANCH  22  49
DOCKED: ATOM     49  C   UNL d   1       9.223 -13.845   0.232 -0.19 +0.01    +0.048 C 
DOCKED: BRANCH  49  50
DOCKED: ATOM     50  C   UNL d   1      10.294 -14.915   0.444 -0.10 +0.02    +0.125 C 
DOCKED: BRANCH  50  51
DOCKED: ATOM     51  C   UNL d   1      10.960 -14.750   1.780 -0.07 +0.07    +0.305 C 
DOCKED: ATOM     52  O   UNL d   1      10.499 -15.012   2.877 -0.15 -0.11    -0.251 OA
DOCKED: BRANCH  51  53
DOCKED: ATOM     53  O   UNL d   1      12.202 -14.238   1.666 -0.00 -0.08    -0.481 OA
DOCKED: ATOM     54  H   UNL d   1      12.687 -14.619   2.427 +0.04 +0.06    +0.295 HD
DOCKED: ENDBRANCH  51  53
DOCKED: ENDBRANCH  50  51
DOCKED: ENDBRANCH  49  50
DOCKED: ENDBRANCH  22  49
DOCKED: TORSDOF 13
DOCKED: TER
DOCKED: ENDMDL
________________________________________________________________________________


	BEGINNING GENETIC ALGORITHM DOCKING 13 of 100
Run: 13 Seed: 185882763 1192170194 [ Run 13 of 100 GA/GALS ]
Beginning LAMARCKIAN GENETIC ALGORITHM (LGA), with a maximum of 25000000 energy evaluations.

Final-Value: -10.880


	FINAL GENETIC ALGORITHM DOCKED STATE
	_______________________________________________


Detailed state:  trans 14.341 9.830 -5.342 quatxyzw 0.493993 -0.493172 0.541042 0.469069 center 0.153 0.018 -0.028 ntor 13 141.7553 5.2527 -105.8592 -80.6027 -136.5595 -57.3913 121.8986 -16.7103 19.5792 -31.4618 -55.0681 8.0312 20.0899
State:	 14.341   9.830  -5.342   0.559 -0.558  0.613 124.052    141.76    5.25 -105.86  -80.60 -136.56  -57.39  121.90  -16.71   19.58  -31.46  -55.07    8.03   20.09

DOCKED: MODEL       13
DOCKED: USER    Run = 13
DOCKED: USER    DPF = D:/Protein_go_brrr/autodock/final/mut_K82N/heme/dock.dpf
DOCKED: USER  
DOCKED: USER    Estimated Free Energy of Binding    =   -3.21 kcal/mol  [=(1)+(2)+(3)-(4)]
DOCKED: USER    Estimated Inhibition Constant, Ki   =    4.46 mM (millimolar)  [Temperature = 298.15 K]
DOCKED: USER    
DOCKED: USER    (1) Final Intermolecular Energy     =   -7.08 kcal/mol
DOCKED: USER        vdW + Hbond + desolv Energy     =   -6.69 kcal/mol
DOCKED: USER        Electrostatic Energy            =   -0.40 kcal/mol
DOCKED: USER    (2) Final Total Internal Energy     =   -3.80 kcal/mol
DOCKED: USER    (3) Torsional Free Energy           =   +3.88 kcal/mol
DOCKED: USER    (4) Unbound System's Energy  [=(2)] =   -3.80 kcal/mol
DOCKED: USER    
DOCKED: USER    
DOCKED: USER    NEWDPF move heme_opt.pdbqt
DOCKED: USER    NEWDPF about 0.153000 0.018000 -0.028000
DOCKED: USER    NEWDPF tran0 14.340943 9.830248 -5.341976
DOCKED: USER    NEWDPF quaternion0 0.493993 -0.493172 0.541042 0.469069
DOCKED: USER    NEWDPF axisangle0 0.559346 -0.558416 0.612620 124.052217
DOCKED: USER    NEWDPF quat0 0.559346 -0.558416 0.612620 124.052217
DOCKED: USER    NEWDPF dihe0 141.76 5.25 -105.86 -80.60 -136.56 -57.39 121.90 -16.71 19.58 -31.46 -55.07 8.03 20.09 
DOCKED: USER  keepresnum = 1 
DOCKED: USER  
DOCKED: REMARK  13 active torsions:
DOCKED: REMARK  status: ('A' for Active; 'I' for Inactive)
DOCKED: REMARK    1  A    between atoms: O_3  and  C_38 
DOCKED: REMARK    2  A    between atoms: O_4  and  C_40 
DOCKED: REMARK    3  A    between atoms: O_7  and  C_46 
DOCKED: REMARK    4  A    between atoms: O_9  and  C_48 
DOCKED: REMARK    5  A    between atoms: C_15  and  C_20 
DOCKED: REMARK    6  A    between atoms: C_16  and  C_23 
DOCKED: REMARK    7  A    between atoms: C_20  and  C_38 
DOCKED: REMARK    8  A    between atoms: C_23  and  C_40 
DOCKED: REMARK    9  A    between atoms: C_32  and  C_41 
DOCKED: REMARK   10  A    between atoms: C_37  and  C_45 
DOCKED: REMARK   11  A    between atoms: C_41  and  C_44 
DOCKED: REMARK   12  A    between atoms: C_44  and  C_46 
DOCKED: REMARK   13  A    between atoms: C_47  and  C_48 
DOCKED: USER                              x       y       z     vdW  Elec       q    Type
DOCKED: USER                           _______ _______ _______ _____ _____    ______ ____
DOCKED: ROOT
DOCKED: ATOM      1  O   UNL d   1      15.425  15.243  -7.413 -0.01 +0.02    -0.289 OA
DOCKED: ATOM      2  O   UNL d   1      12.859  12.941  -0.741 -0.20 +0.03    -0.289 OA
DOCKED: ATOM      3  N   UNL d   1      14.811  11.926  -6.690 -0.09 +0.02    -0.247 NA
DOCKED: ATOM      4  N   UNL d   1      14.136  11.971  -3.797 -0.14 +0.05    -0.247 NA
DOCKED: ATOM      5  N   UNL d   1      14.445   9.113  -3.776 -0.12 +0.02    -0.354 N 
DOCKED: ATOM      6  N   UNL d   1      15.163   9.077  -6.773 -0.07 +0.02    -0.354 N 
DOCKED: ATOM      7  C   UNL d   1      15.799  13.130  -8.583 -0.04 -0.00    +0.084 A 
DOCKED: ATOM      8  C   UNL d   1      13.211  14.046  -2.897 -0.20 -0.02    +0.084 A 
DOCKED: ATOM      9  C   UNL d   1      13.831  13.285  -4.074 -0.19 -0.01    +0.058 A 
DOCKED: ATOM     10  C   UNL d   1      15.394  11.800  -7.940 -0.10 -0.00    +0.058 A 
DOCKED: ATOM     11  C   UNL d   1      15.324  14.031  -7.484 -0.03 -0.01    +0.193 A 
DOCKED: ATOM     12  C   UNL d   1      14.722  13.185  -6.406 -0.11 -0.01    +0.109 A 
DOCKED: ATOM     13  C   UNL d   1      13.257  12.931  -1.890 -0.14 -0.04    +0.193 A 
DOCKED: ATOM     14  C   UNL d   1      17.318  13.266  -8.714 -0.01 -0.00    +0.026 C 
DOCKED: ATOM     15  C   UNL d   1      14.098  13.866  -5.253 -0.17 -0.01    +0.055 C 
DOCKED: ATOM     16  C   UNL d   1      11.748  14.410  -3.163 -0.25 -0.01    +0.026 C 
DOCKED: ATOM     17  C   UNL d   1      13.845  11.732  -2.559 -0.16 -0.02    +0.109 A 
DOCKED: ATOM     18  C   UNL d   1      15.525  10.632  -8.597 -0.13 -0.00    +0.050 C 
DOCKED: ATOM     19  C   UNL d   1      15.101   9.367  -8.118 -0.11 -0.00    +0.045 A 
DOCKED: ATOM     20  C   UNL d   1      14.345   9.349  -2.429 -0.23 -0.00    +0.045 A 
DOCKED: ATOM     21  C   UNL d   1      14.054  10.491  -1.798 -0.25 -0.01    +0.057 C 
DOCKED: ATOM     22  C   UNL d   1      14.871   7.150  -2.756 -0.17 -0.00    -0.019 A 
DOCKED: ATOM     23  C   UNL d   1      14.760   7.813  -4.070 -0.16 -0.00    +0.045 A 
DOCKED: ATOM     24  C   UNL d   1      14.623   8.064  -1.788 -0.18 -0.00    -0.022 A 
DOCKED: ATOM     25  C   UNL d   1      14.792   7.773  -6.542 -0.14 -0.00    +0.049 A 
DOCKED: ATOM     26  C   UNL d   1      14.644   8.234  -8.772 -0.13 +0.00    -0.018 A 
DOCKED: ATOM     27  C   UNL d   1      14.432   7.237  -7.771 -0.14 -0.00    +0.003 A 
DOCKED: ATOM     28  C   UNL d   1      14.925   7.195  -5.250 -0.20 -0.00    +0.052 C 
DOCKED: ATOM     29  C   UNL d   1      14.605   7.876  -0.309 -0.17 +0.00    +0.046 C 
DOCKED: ATOM     30  C   UNL d   1      14.415   8.084 -10.238 -0.17 -0.00    +0.046 C 
DOCKED: ATOM     31  H   UNL d   1      14.221   9.833  -4.454 +0.05 -0.02    +0.166 HD
DOCKED: ATOM     32  H   UNL d   1      15.480   9.736  -6.072 +0.04 -0.01    +0.166 HD
DOCKED: ENDROOT
DOCKED: BRANCH   7  33
DOCKED: ATOM     33  C   UNL d   1      15.090  13.466  -9.899 -0.05 -0.01    +0.141 C 
DOCKED: BRANCH  33  34
DOCKED: ATOM     34  C   UNL d   1      13.620  13.730  -9.714 -0.09 -0.01    +0.306 C 
DOCKED: ATOM     35  O   UNL d   1      12.741  12.889  -9.637 -0.17 -0.00    -0.251 OA
DOCKED: BRANCH  34  36
DOCKED: ATOM     36  O   UNL d   1      13.336  15.042  -9.632 -0.01 +0.01    -0.481 OA
DOCKED: ATOM     37  H   UNL d   1      14.055  15.416  -9.079 +0.04 -0.01    +0.295 HD
DOCKED: ENDBRANCH  34  36
DOCKED: ENDBRANCH  33  34
DOCKED: ENDBRANCH   7  33
DOCKED: BRANCH  27  38
DOCKED: ATOM     38  C   UNL d   1      13.973   5.903  -8.018 -0.21 -0.00    +0.017 C 
DOCKED: ATOM     39  C   UNL d   1      13.031   5.264  -7.308 -0.30 -0.01    +0.092 C 
DOCKED: BRANCH  39  40
DOCKED: ATOM     40  C   UNL d   1      12.638   3.902  -7.676 -0.17 -0.15    +0.330 C 
DOCKED: ATOM     41  O   UNL d   1      12.175   3.521  -8.735 -0.19 +0.15    -0.246 OA
DOCKED: BRANCH  40  42
DOCKED: ATOM     42  O   UNL d   1      12.867   3.063  -6.654 -0.11 +0.23    -0.477 OA
DOCKED: ATOM     43  H   UNL d   1      12.656   2.181  -7.022 -0.46 -0.46    +0.295 HD
DOCKED: ENDBRANCH  40  42
DOCKED: ENDBRANCH  39  40
DOCKED: ENDBRANCH  27  38
DOCKED: BRANCH   8  44
DOCKED: ATOM     44  C   UNL d   1      14.004  15.262  -2.406 -0.07 -0.02    +0.141 C 
DOCKED: BRANCH  44  45
DOCKED: ATOM     45  C   UNL d   1      15.142  14.898  -1.489 -0.01 -0.02    +0.306 C 
DOCKED: ATOM     46  O   UNL d   1      16.225  14.446  -1.819 -0.01 +0.02    -0.251 OA
DOCKED: BRANCH  45  47
DOCKED: ATOM     47  O   UNL d   1      14.844  15.099  -0.193 +0.00 +0.03    -0.481 OA
DOCKED: ATOM     48  H   UNL d   1      14.222  14.374   0.033 +0.04 -0.02    +0.295 HD
DOCKED: ENDBRANCH  45  47
DOCKED: ENDBRANCH  44  45
DOCKED: ENDBRANCH   8  44
DOCKED: BRANCH  22  49
DOCKED: ATOM     49  C   UNL d   1      15.221   5.703  -2.569 -0.13 +0.00    +0.048 C 
DOCKED: BRANCH  49  50
DOCKED: ATOM     50  C   UNL d   1      14.165   4.780  -3.176 -0.17 +0.02    +0.125 C 
DOCKED: BRANCH  50  51
DOCKED: ATOM     51  C   UNL d   1      14.791   3.810  -4.138 -0.08 +0.05    +0.305 C 
DOCKED: ATOM     52  O   UNL d   1      15.846   3.931  -4.735 -0.02 -0.01    -0.251 OA
DOCKED: BRANCH  51  53
DOCKED: ATOM     53  O   UNL d   1      14.028   2.713  -4.315 -0.46 -0.25    -0.481 OA
DOCKED: ATOM     54  H   UNL d   1      13.551   2.886  -5.154 +0.10 +0.10    +0.295 HD
DOCKED: ENDBRANCH  51  53
DOCKED: ENDBRANCH  50  51
DOCKED: ENDBRANCH  49  50
DOCKED: ENDBRANCH  22  49
DOCKED: TORSDOF 13
DOCKED: TER
DOCKED: ENDMDL
________________________________________________________________________________


	BEGINNING GENETIC ALGORITHM DOCKING 14 of 100
Run: 14 Seed: 1008045585 426780924 [ Run 14 of 100 GA/GALS ]
Beginning LAMARCKIAN GENETIC ALGORITHM (LGA), with a maximum of 25000000 energy evaluations.

Final-Value: -13.937


	FINAL GENETIC ALGORITHM DOCKED STATE
	_______________________________________________


Detailed state:  trans 2.908 6.591 17.589 quatxyzw 0.294797 -0.236437 -0.912321 0.157677 center 0.153 0.018 -0.028 ntor 13 106.9816 84.1836 118.9603 -133.8591 -149.3160 -160.5202 -48.1270 86.3258 67.9585 -135.0187 69.0656 24.0882 -180.0000
State:	  2.908   6.591  17.589   0.299 -0.239 -0.924 161.856    106.98   84.18  118.96 -133.86 -149.32 -160.52  -48.13   86.33   67.96 -135.02   69.07   24.09 -180.00

DOCKED: MODEL       14
DOCKED: USER    Run = 14
DOCKED: USER    DPF = D:/Protein_go_brrr/autodock/final/mut_K82N/heme/dock.dpf
DOCKED: USER  
DOCKED: USER    Estimated Free Energy of Binding    =   -7.69 kcal/mol  [=(1)+(2)+(3)-(4)]
DOCKED: USER    Estimated Inhibition Constant, Ki   =    2.31 uM (micromolar)  [Temperature = 298.15 K]
DOCKED: USER    
DOCKED: USER    (1) Final Intermolecular Energy     =  -11.57 kcal/mol
DOCKED: USER        vdW + Hbond + desolv Energy     =  -10.82 kcal/mol
DOCKED: USER        Electrostatic Energy            =   -0.75 kcal/mol
DOCKED: USER    (2) Final Total Internal Energy     =   -2.37 kcal/mol
DOCKED: USER    (3) Torsional Free Energy           =   +3.88 kcal/mol
DOCKED: USER    (4) Unbound System's Energy  [=(2)] =   -2.37 kcal/mol
DOCKED: USER    
DOCKED: USER    
DOCKED: USER    NEWDPF move heme_opt.pdbqt
DOCKED: USER    NEWDPF about 0.153000 0.018000 -0.028000
DOCKED: USER    NEWDPF tran0 2.907734 6.591456 17.589103
DOCKED: USER    NEWDPF quaternion0 0.294797 -0.236437 -0.912321 0.157677
DOCKED: USER    NEWDPF axisangle0 0.298531 -0.239433 -0.923878 161.855834
DOCKED: USER    NEWDPF quat0 0.298531 -0.239433 -0.923878 161.855834
DOCKED: USER    NEWDPF dihe0 106.98 84.18 118.96 -133.86 -149.32 -160.52 -48.13 86.33 67.96 -135.02 69.07 24.09 -180.00 
DOCKED: USER  keepresnum = 1 
DOCKED: USER  
DOCKED: REMARK  13 active torsions:
DOCKED: REMARK  status: ('A' for Active; 'I' for Inactive)
DOCKED: REMARK    1  A    between atoms: O_3  and  C_38 
DOCKED: REMARK    2  A    between atoms: O_4  and  C_40 
DOCKED: REMARK    3  A    between atoms: O_7  and  C_46 
DOCKED: REMARK    4  A    between atoms: O_9  and  C_48 
DOCKED: REMARK    5  A    between atoms: C_15  and  C_20 
DOCKED: REMARK    6  A    between atoms: C_16  and  C_23 
DOCKED: REMARK    7  A    between atoms: C_20  and  C_38 
DOCKED: REMARK    8  A    between atoms: C_23  and  C_40 
DOCKED: REMARK    9  A    between atoms: C_32  and  C_41 
DOCKED: REMARK   10  A    between atoms: C_37  and  C_45 
DOCKED: REMARK   11  A    between atoms: C_41  and  C_44 
DOCKED: REMARK   12  A    between atoms: C_44  and  C_46 
DOCKED: REMARK   13  A    between atoms: C_47  and  C_48 
DOCKED: USER                              x       y       z     vdW  Elec       q    Type
DOCKED: USER                           _______ _______ _______ _____ _____    ______ ____
DOCKED: ROOT
DOCKED: ATOM      1  O   UNL d   1       6.243   4.683  22.060 -0.09 -0.03    -0.289 OA
DOCKED: ATOM      2  O   UNL d   1       7.772   9.433  16.448 -0.16 +0.06    -0.289 OA
DOCKED: ATOM      3  N   UNL d   1       3.983   5.407  19.557 -0.15 +0.09    -0.247 NA
DOCKED: ATOM      4  N   UNL d   1       5.337   7.556  18.015 -0.16 +0.09    -0.247 NA
DOCKED: ATOM      5  N   UNL d   1       2.826   8.078  16.716 -0.16 +0.16    -0.354 N 
DOCKED: ATOM      6  N   UNL d   1       1.424   5.860  18.334 +0.24 +0.19    -0.354 N 
DOCKED: ATOM      7  C   UNL d   1       3.901   4.121  21.642 -0.11 -0.02    +0.084 A 
DOCKED: ATOM      8  C   UNL d   1       7.778   7.618  18.091 -0.15 -0.01    +0.084 A 
DOCKED: ATOM      9  C   UNL d   1       6.463   7.006  18.585 -0.22 -0.01    +0.058 A 
DOCKED: ATOM     10  C   UNL d   1       3.187   4.637  20.389 -0.18 -0.02    +0.058 A 
DOCKED: ATOM     11  C   UNL d   1       5.246   4.721  21.362 -0.11 -0.02    +0.193 A 
DOCKED: ATOM     12  C   UNL d   1       5.174   5.453  20.058 -0.20 -0.02    +0.109 A 
DOCKED: ATOM     13  C   UNL d   1       7.188   8.643  17.164 -0.13 -0.05    +0.193 A 
DOCKED: ATOM     14  C   UNL d   1       3.338   4.744  22.922 -0.04 -0.00    +0.026 C 
DOCKED: ATOM     15  C   UNL d   1       6.416   6.052  19.528 -0.25 -0.00    +0.055 C 
DOCKED: ATOM     16  C   UNL d   1       8.595   6.619  17.265 -0.27 -0.00    +0.026 C 
DOCKED: ATOM     17  C   UNL d   1       5.701   8.506  17.215 -0.06 -0.05    +0.109 A 
DOCKED: ATOM     18  C   UNL d   1       1.921   4.279  20.104 -0.21 -0.02    +0.050 C 
DOCKED: ATOM     19  C   UNL d   1       1.210   4.638  18.930 -0.18 -0.02    +0.045 A 
DOCKED: ATOM     20  C   UNL d   1       3.547   9.158  16.277 -0.30 -0.02    +0.045 A 
DOCKED: ATOM     21  C   UNL d   1       4.849   9.416  16.436 -0.28 -0.02    +0.057 C 
DOCKED: ATOM     22  C   UNL d   1       1.373   9.407  15.623 -0.24 +0.01    -0.019 A 
DOCKED: ATOM     23  C   UNL d   1       1.502   8.140  16.369 -0.26 -0.02    +0.045 A 
DOCKED: ATOM     24  C   UNL d   1       2.587  10.004  15.570 -0.26 +0.01    -0.022 A 
DOCKED: ATOM     25  C   UNL d   1       0.570   6.035  17.270 -0.13 -0.02    +0.049 A 
DOCKED: ATOM     26  C   UNL d   1       0.218   3.987  18.214 -0.29 +0.01    -0.018 A 
DOCKED: ATOM     27  C   UNL d   1      -0.169   4.866  17.155 -0.33 -0.00    +0.003 A 
DOCKED: ATOM     28  C   UNL d   1       0.494   7.283  16.594 -0.27 -0.02    +0.052 C 
DOCKED: ATOM     29  C   UNL d   1       2.966  11.291  14.918 -0.17 -0.02    +0.046 C 
DOCKED: ATOM     30  C   UNL d   1      -0.338   2.631  18.492 -0.18 -0.02    +0.046 C 
DOCKED: ATOM     31  H   UNL d   1       3.278   7.296  17.176 -0.28 -0.10    +0.166 HD
DOCKED: ATOM     32  H   UNL d   1       2.095   6.539  18.674 -0.13 -0.08    +0.166 HD
DOCKED: ENDROOT
DOCKED: BRANCH   7  33
DOCKED: ATOM     33  C   UNL d   1       4.005   2.596  21.758 -0.20 -0.08    +0.141 C 
DOCKED: BRANCH  33  34
DOCKED: ATOM     34  C   UNL d   1       5.428   2.108  21.714 -0.28 -0.06    +0.306 C 
DOCKED: ATOM     35  O   UNL d   1       6.023   1.714  20.726 -0.66 +0.02    -0.251 OA
DOCKED: BRANCH  34  36
DOCKED: ATOM     36  O   UNL d   1       6.026   2.145  22.918 -0.10 -0.03    -0.481 OA
DOCKED: ATOM     37  H   UNL d   1       6.226   3.094  23.065 +0.09 +0.05    +0.295 HD
DOCKED: ENDBRANCH  34  36
DOCKED: ENDBRANCH  33  34
DOCKED: ENDBRANCH   7  33
DOCKED: BRANCH  27  38
DOCKED: ATOM     38  C   UNL d   1      -1.183   4.590  16.182 -0.44 -0.01    +0.017 C 
DOCKED: ATOM     39  C   UNL d   1      -0.985   4.518  14.857 -0.49 -0.02    +0.092 C 
DOCKED: BRANCH  39  40
DOCKED: ATOM     40  C   UNL d   1      -2.108   4.210  13.967 -0.33 -0.05    +0.330 C 
DOCKED: ATOM     41  O   UNL d   1      -2.059   3.826  12.814 -0.85 +0.00    -0.246 OA
DOCKED: BRANCH  40  42
DOCKED: ATOM     42  O   UNL d   1      -3.271   4.402  14.608 -0.58 +0.06    -0.477 OA
DOCKED: ATOM     43  H   UNL d   1      -3.509   3.509  14.934 -0.42 -0.15    +0.295 HD
DOCKED: ENDBRANCH  40  42
DOCKED: ENDBRANCH  39  40
DOCKED: ENDBRANCH  27  38
DOCKED: BRANCH   8  44
DOCKED: ATOM     44  C   UNL d   1       8.642   8.284  19.167 -0.04 -0.00    +0.141 C 
DOCKED: BRANCH  44  45
DOCKED: ATOM     45  C   UNL d   1       9.969   8.768  18.648 -0.00 -0.00    +0.306 C 
DOCKED: ATOM     46  O   UNL d   1      11.019   8.149  18.648 -0.01 -0.01    -0.251 OA
DOCKED: BRANCH  45  47
DOCKED: ATOM     47  O   UNL d   1       9.910  10.028  18.179 +0.01 +0.02    -0.481 OA
DOCKED: ATOM     48  H   UNL d   1       9.273   9.984  17.433 +0.04 -0.02    +0.295 HD
DOCKED: ENDBRANCH  45  47
DOCKED: ENDBRANCH  44  45
DOCKED: ENDBRANCH   8  44
DOCKED: BRANCH  22  49
DOCKED: ATOM     49  C   UNL d   1       0.084   9.919  15.048 -0.15 -0.05    +0.048 C 
DOCKED: BRANCH  49  50
DOCKED: ATOM     50  C   UNL d   1      -0.593  10.925  15.978 -0.10 -0.11    +0.125 C 
DOCKED: BRANCH  50  51
DOCKED: ATOM     51  C   UNL d   1      -1.844  10.345  16.576 -0.06 -0.27    +0.305 C 
DOCKED: ATOM     52  O   UNL d   1      -1.930   9.581  17.521 -0.03 +0.14    -0.251 OA
DOCKED: BRANCH  51  53
DOCKED: ATOM     53  O   UNL d   1      -2.951  10.759  15.929 -0.05 +0.65    -0.481 OA
DOCKED: ATOM     54  H   UNL d   1      -2.725  10.658  14.981 -0.47 -0.85    +0.295 HD
DOCKED: ENDBRANCH  51  53
DOCKED: ENDBRANCH  50  51
DOCKED: ENDBRANCH  49  50
DOCKED: ENDBRANCH  22  49
DOCKED: TORSDOF 13
DOCKED: TER
DOCKED: ENDMDL
________________________________________________________________________________


	BEGINNING GENETIC ALGORITHM DOCKING 15 of 100
Run: 15 Seed: 406451590 437583585 [ Run 15 of 100 GA/GALS ]
Beginning LAMARCKIAN GENETIC ALGORITHM (LGA), with a maximum of 25000000 energy evaluations.

Final-Value: -10.885


	FINAL GENETIC ALGORITHM DOCKED STATE
	_______________________________________________


Detailed state:  trans 12.435 15.603 -5.398 quatxyzw 0.545340 -0.429266 -0.159720 -0.702015 center 0.153 0.018 -0.028 ntor 13 -67.6086 -174.2405 -124.8479 13.7574 34.5445 32.3077 123.5125 179.4216 125.5318 -21.5869 64.3776 -92.3451 129.7817
State:	 12.435  15.603  -5.398   0.766 -0.603 -0.224 -90.822    -67.61 -174.24 -124.85   13.76   34.54   32.31  123.51  179.42  125.53  -21.59   64.38  -92.35  129.78

DOCKED: MODEL       15
DOCKED: USER    Run = 15
DOCKED: USER    DPF = D:/Protein_go_brrr/autodock/final/mut_K82N/heme/dock.dpf
DOCKED: USER  
DOCKED: USER    Estimated Free Energy of Binding    =   -2.64 kcal/mol  [=(1)+(2)+(3)-(4)]
DOCKED: USER    Estimated Inhibition Constant, Ki   =   11.61 mM (millimolar)  [Temperature = 298.15 K]
DOCKED: USER    
DOCKED: USER    (1) Final Intermolecular Energy     =   -6.52 kcal/mol
DOCKED: USER        vdW + Hbond + desolv Energy     =   -6.49 kcal/mol
DOCKED: USER        Electrostatic Energy            =   -0.03 kcal/mol
DOCKED: USER    (2) Final Total Internal Energy     =   -4.37 kcal/mol
DOCKED: USER    (3) Torsional Free Energy           =   +3.88 kcal/mol
DOCKED: USER    (4) Unbound System's Energy  [=(2)] =   -4.37 kcal/mol
DOCKED: USER    
DOCKED: USER    
DOCKED: USER    NEWDPF move heme_opt.pdbqt
DOCKED: USER    NEWDPF about 0.153000 0.018000 -0.028000
DOCKED: USER    NEWDPF tran0 12.435355 15.603167 -5.397840
DOCKED: USER    NEWDPF quaternion0 0.545340 -0.429266 -0.159720 -0.702015
DOCKED: USER    NEWDPF axisangle0 0.765752 -0.602764 -0.224275 -90.822204
DOCKED: USER    NEWDPF quat0 0.765752 -0.602764 -0.224275 -90.822204
DOCKED: USER    NEWDPF dihe0 -67.61 -174.24 -124.85 13.76 34.54 32.31 123.51 179.42 125.53 -21.59 64.38 -92.35 129.78 
DOCKED: USER  keepresnum = 1 
DOCKED: USER  
DOCKED: REMARK  13 active torsions:
DOCKED: REMARK  status: ('A' for Active; 'I' for Inactive)
DOCKED: REMARK    1  A    between atoms: O_3  and  C_38 
DOCKED: REMARK    2  A    between atoms: O_4  and  C_40 
DOCKED: REMARK    3  A    between atoms: O_7  and  C_46 
DOCKED: REMARK    4  A    between atoms: O_9  and  C_48 
DOCKED: REMARK    5  A    between atoms: C_15  and  C_20 
DOCKED: REMARK    6  A    between atoms: C_16  and  C_23 
DOCKED: REMARK    7  A    between atoms: C_20  and  C_38 
DOCKED: REMARK    8  A    between atoms: C_23  and  C_40 
DOCKED: REMARK    9  A    between atoms: C_32  and  C_41 
DOCKED: REMARK   10  A    between atoms: C_37  and  C_45 
DOCKED: REMARK   11  A    between atoms: C_41  and  C_44 
DOCKED: REMARK   12  A    between atoms: C_44  and  C_46 
DOCKED: REMARK   13  A    between atoms: C_47  and  C_48 
DOCKED: USER                              x       y       z     vdW  Elec       q    Type
DOCKED: USER                           _______ _______ _______ _____ _____    ______ ____
DOCKED: ROOT
DOCKED: ATOM      1  O   UNL d   1       8.263  19.679  -6.254 -0.08 +0.05    -0.289 OA
DOCKED: ATOM      2  O   UNL d   1      13.302  16.719 -10.969 -0.01 +0.01    -0.289 OA
DOCKED: ATOM      3  N   UNL d   1      10.633  17.382  -5.254 -0.09 +0.02    -0.247 NA
DOCKED: ATOM      4  N   UNL d   1      11.932  16.586  -7.805 -0.03 +0.00    -0.247 NA
DOCKED: ATOM      5  N   UNL d   1      13.128  14.380  -6.400 -0.09 +0.02    -0.354 N 
DOCKED: ATOM      6  N   UNL d   1      11.761  15.202  -3.762 -0.17 +0.08    -0.354 N 
DOCKED: ATOM      7  C   UNL d   1       8.712  18.463  -4.182 -0.22 -0.01    +0.084 A 
DOCKED: ATOM      8  C   UNL d   1      11.883  18.203  -9.636 -0.04 -0.00    +0.084 A 
DOCKED: ATOM      9  C   UNL d   1      11.446  17.805  -8.222 -0.08 -0.00    +0.058 A 
DOCKED: ATOM     10  C   UNL d   1       9.887  17.484  -4.092 -0.22 -0.01    +0.058 A 
DOCKED: ATOM     11  C   UNL d   1       8.938  18.910  -5.594 -0.10 -0.03    +0.193 A 
DOCKED: ATOM     12  C   UNL d   1      10.147  18.203  -6.126 -0.09 -0.01    +0.109 A 
DOCKED: ATOM     13  C   UNL d   1      12.675  16.967  -9.958 -0.03 -0.01    +0.193 A 
DOCKED: ATOM     14  C   UNL d   1       7.361  17.748  -4.099 -0.51 -0.01    +0.026 C 
DOCKED: ATOM     15  C   UNL d   1      10.620  18.557  -7.479 -0.09 -0.00    +0.055 C 
DOCKED: ATOM     16  C   UNL d   1      12.831  19.406  -9.621 -0.01 -0.00    +0.026 C 
DOCKED: ATOM     17  C   UNL d   1      12.620  16.064  -8.769 -0.09 -0.00    +0.109 A 
DOCKED: ATOM     18  C   UNL d   1      10.195  16.860  -2.939 -0.11 -0.01    +0.050 C 
DOCKED: ATOM     19  C   UNL d   1      11.309  16.005  -2.740 -0.24 -0.01    +0.045 A 
DOCKED: ATOM     20  C   UNL d   1      13.448  14.040  -7.689 -0.18 -0.00    +0.045 A 
DOCKED: ATOM     21  C   UNL d   1      13.277  14.749  -8.810 -0.16 -0.00    +0.057 C 
DOCKED: ATOM     22  C   UNL d   1      14.039  12.323  -6.304 -0.20 +0.00    -0.019 A 
DOCKED: ATOM     23  C   UNL d   1      13.447  13.406  -5.493 -0.25 -0.01    +0.045 A 
DOCKED: ATOM     24  C   UNL d   1      14.038  12.705  -7.603 -0.15 +0.00    -0.022 A 
DOCKED: ATOM     25  C   UNL d   1      12.785  14.394  -3.326 -0.25 -0.01    +0.049 A 
DOCKED: ATOM     26  C   UNL d   1      12.083  15.739  -1.621 -0.21 +0.00    -0.018 A 
DOCKED: ATOM     27  C   UNL d   1      13.026  14.735  -2.002 -0.20 -0.00    +0.003 A 
DOCKED: ATOM     28  C   UNL d   1      13.310  13.369  -4.159 -0.25 -0.01    +0.052 C 
DOCKED: ATOM     29  C   UNL d   1      14.540  11.963  -8.794 -0.15 -0.00    +0.046 C 
DOCKED: ATOM     30  C   UNL d   1      11.958  16.378  -0.279 -0.16 -0.01    +0.046 C 
DOCKED: ATOM     31  H   UNL d   1      12.768  15.301  -6.173 +0.04 -0.01    +0.166 HD
DOCKED: ATOM     32  H   UNL d   1      11.353  15.194  -4.690 +0.06 -0.02    +0.166 HD
DOCKED: ENDROOT
DOCKED: BRANCH   7  33
DOCKED: ATOM     33  C   UNL d   1       8.776  19.656  -3.222 -0.20 -0.02    +0.141 C 
DOCKED: BRANCH  33  34
DOCKED: ATOM     34  C   UNL d   1       7.684  20.660  -3.473 -0.18 -0.07    +0.306 C 
DOCKED: ATOM     35  O   UNL d   1       6.570  20.651  -2.976 -0.06 +0.06    -0.251 OA
DOCKED: BRANCH  34  36
DOCKED: ATOM     36  O   UNL d   1       8.053  21.624  -4.334 -0.05 +0.16    -0.481 OA
DOCKED: ATOM     37  H   UNL d   1       7.532  21.443  -5.145 -0.22 -0.14    +0.295 HD
DOCKED: ENDBRANCH  34  36
DOCKED: ENDBRANCH  33  34
DOCKED: ENDBRANCH   7  33
DOCKED: BRANCH  27  38
DOCKED: ATOM     38  C   UNL d   1      14.011  14.157  -1.138 -0.12 -0.00    +0.017 C 
DOCKED: ATOM     39  C   UNL d   1      14.154  12.845  -0.896 -0.15 -0.01    +0.092 C 
DOCKED: BRANCH  39  40
DOCKED: ATOM     40  C   UNL d   1      15.217  12.380  -0.001 -0.03 -0.02    +0.330 C 
DOCKED: ATOM     41  O   UNL d   1      15.699  12.966   0.949 -0.01 +0.01    -0.246 OA
DOCKED: BRANCH  40  42
DOCKED: ATOM     42  O   UNL d   1      15.622  11.153  -0.364 -0.00 +0.02    -0.477 OA
DOCKED: ATOM     43  H   UNL d   1      15.130  10.979  -1.193 +0.06 -0.02    +0.295 HD
DOCKED: ENDBRANCH  40  42
DOCKED: ENDBRANCH  39  40
DOCKED: ENDBRANCH  27  38
DOCKED: BRANCH   8  44
DOCKED: ATOM     44  C   UNL d   1      10.748  18.404 -10.646 -0.03 -0.01    +0.141 C 
DOCKED: BRANCH  44  45
DOCKED: ATOM     45  C   UNL d   1      10.082  17.118 -11.056 -0.05 -0.01    +0.306 C 
DOCKED: ATOM     46  O   UNL d   1       9.245  16.499 -10.422 -0.15 +0.01    -0.251 OA
DOCKED: BRANCH  45  47
DOCKED: ATOM     47  O   UNL d   1      10.529  16.661 -12.240 +0.00 +0.02    -0.481 OA
DOCKED: ATOM     48  H   UNL d   1      11.503  16.611 -12.134 +0.03 -0.01    +0.295 HD
DOCKED: ENDBRANCH  45  47
DOCKED: ENDBRANCH  44  45
DOCKED: ENDBRANCH   8  44
DOCKED: BRANCH  22  49
DOCKED: ATOM     49  C   UNL d   1      14.532  11.022  -5.741 -0.22 -0.00    +0.048 C 
DOCKED: BRANCH  49  50
DOCKED: ATOM     50  C   UNL d   1      13.532  10.411  -4.760 -0.32 -0.02    +0.125 C 
DOCKED: BRANCH  50  51
DOCKED: ATOM     51  C   UNL d   1      14.102  10.368  -3.370 -0.21 -0.04    +0.305 C 
DOCKED: ATOM     52  O   UNL d   1      13.530  10.051  -2.342 -0.27 +0.03    -0.251 OA
DOCKED: BRANCH  51  53
DOCKED: ATOM     53  O   UNL d   1      15.395  10.749  -3.344 -0.01 +0.04    -0.481 OA
DOCKED: ATOM     54  H   UNL d   1      15.705  10.474  -2.456 +0.06 -0.02    +0.295 HD
DOCKED: ENDBRANCH  51  53
DOCKED: ENDBRANCH  50  51
DOCKED: ENDBRANCH  49  50
DOCKED: ENDBRANCH  22  49
DOCKED: TORSDOF 13
DOCKED: TER
DOCKED: ENDMDL
________________________________________________________________________________


	BEGINNING GENETIC ALGORITHM DOCKING 16 of 100
Run: 16 Seed: 900726033 1024443553 [ Run 16 of 100 GA/GALS ]
Beginning LAMARCKIAN GENETIC ALGORITHM (LGA), with a maximum of 25000000 energy evaluations.

Final-Value: -11.291


	FINAL GENETIC ALGORITHM DOCKED STATE
	_______________________________________________


Detailed state:  trans -8.572 7.326 -12.752 quatxyzw -0.586304 0.529430 -0.609617 0.065713 center 0.153 0.018 -0.028 ntor 13 -105.6769 -61.6473 -98.5549 -2.6053 30.5862 135.1414 135.4915 48.0857 131.2878 -42.1749 -16.6269 -31.5012 -166.6455
State:	 -8.572   7.326 -12.752  -0.588  0.531 -0.611 172.464   -105.68  -61.65  -98.55   -2.61   30.59  135.14  135.49   48.09  131.29  -42.17  -16.63  -31.50 -166.65

DOCKED: MODEL       16
DOCKED: USER    Run = 16
DOCKED: USER    DPF = D:/Protein_go_brrr/autodock/final/mut_K82N/heme/dock.dpf
DOCKED: USER  
DOCKED: USER    Estimated Free Energy of Binding    =   -5.09 kcal/mol  [=(1)+(2)+(3)-(4)]
DOCKED: USER    Estimated Inhibition Constant, Ki   =  186.25 uM (micromolar)  [Temperature = 298.15 K]
DOCKED: USER    
DOCKED: USER    (1) Final Intermolecular Energy     =   -8.97 kcal/mol
DOCKED: USER        vdW + Hbond + desolv Energy     =   -8.78 kcal/mol
DOCKED: USER        Electrostatic Energy            =   -0.19 kcal/mol
DOCKED: USER    (2) Final Total Internal Energy     =   -2.33 kcal/mol
DOCKED: USER    (3) Torsional Free Energy           =   +3.88 kcal/mol
DOCKED: USER    (4) Unbound System's Energy  [=(2)] =   -2.33 kcal/mol
DOCKED: USER    
DOCKED: USER    
DOCKED: USER    NEWDPF move heme_opt.pdbqt
DOCKED: USER    NEWDPF about 0.153000 0.018000 -0.028000
DOCKED: USER    NEWDPF tran0 -8.572262 7.326338 -12.751850
DOCKED: USER    NEWDPF quaternion0 -0.586304 0.529430 -0.609617 0.065713
DOCKED: USER    NEWDPF axisangle0 -0.587574 0.530577 -0.610938 172.464430
DOCKED: USER    NEWDPF quat0 -0.587574 0.530577 -0.610938 172.464430
DOCKED: USER    NEWDPF dihe0 -105.68 -61.65 -98.55 -2.61 30.59 135.14 135.49 48.09 131.29 -42.17 -16.63 -31.50 -166.65 
DOCKED: USER  keepresnum = 1 
DOCKED: USER  
DOCKED: REMARK  13 active torsions:
DOCKED: REMARK  status: ('A' for Active; 'I' for Inactive)
DOCKED: REMARK    1  A    between atoms: O_3  and  C_38 
DOCKED: REMARK    2  A    between atoms: O_4  and  C_40 
DOCKED: REMARK    3  A    between atoms: O_7  and  C_46 
DOCKED: REMARK    4  A    between atoms: O_9  and  C_48 
DOCKED: REMARK    5  A    between atoms: C_15  and  C_20 
DOCKED: REMARK    6  A    between atoms: C_16  and  C_23 
DOCKED: REMARK    7  A    between atoms: C_20  and  C_38 
DOCKED: REMARK    8  A    between atoms: C_23  and  C_40 
DOCKED: REMARK    9  A    between atoms: C_32  and  C_41 
DOCKED: REMARK   10  A    between atoms: C_37  and  C_45 
DOCKED: REMARK   11  A    between atoms: C_41  and  C_44 
DOCKED: REMARK   12  A    between atoms: C_44  and  C_46 
DOCKED: REMARK   13  A    between atoms: C_47  and  C_48 
DOCKED: USER                              x       y       z     vdW  Elec       q    Type
DOCKED: USER                           _______ _______ _______ _____ _____    ______ ____
DOCKED: ROOT
DOCKED: ATOM      1  O   UNL d   1      -7.633   9.164 -18.274 -0.01 +0.03    -0.289 OA
DOCKED: ATOM      2  O   UNL d   1      -5.387  11.991 -11.690 -0.78 +0.02    -0.289 OA
DOCKED: ATOM      3  N   UNL d   1      -8.555   7.800 -15.243 -0.07 +0.00    -0.247 NA
DOCKED: ATOM      4  N   UNL d   1      -6.974   9.371 -13.278 -0.06 +0.01    -0.247 NA
DOCKED: ATOM      5  N   UNL d   1      -7.640   7.393 -11.301 -0.02 -0.02    -0.354 N 
DOCKED: ATOM      6  N   UNL d   1      -9.262   5.759 -13.351 -0.03 -0.05    -0.354 N 
DOCKED: ATOM      7  C   UNL d   1      -8.853   7.159 -17.590 -0.11 -0.00    +0.084 A 
DOCKED: ATOM      8  C   UNL d   1      -6.311  11.631 -13.928 -0.17 -0.01    +0.084 A 
DOCKED: ATOM      9  C   UNL d   1      -6.959  10.294 -14.300 -0.08 -0.01    +0.058 A 
DOCKED: ATOM     10  C   UNL d   1      -9.080   6.854 -16.107 -0.16 +0.00    +0.058 A 
DOCKED: ATOM     11  C   UNL d   1      -8.122   8.456 -17.413 -0.04 -0.02    +0.193 A 
DOCKED: ATOM     12  C   UNL d   1      -8.027   8.748 -15.947 -0.07 -0.01    +0.109 A 
DOCKED: ATOM     13  C   UNL d   1      -5.927  11.284 -12.517 -0.26 -0.02    +0.193 A 
DOCKED: ATOM     14  C   UNL d   1      -7.912   6.146 -18.248 -0.17 -0.00    +0.026 C 
DOCKED: ATOM     15  C   UNL d   1      -7.424  10.030 -15.531 -0.06 -0.01    +0.055 C 
DOCKED: ATOM     16  C   UNL d   1      -7.337  12.769 -13.893 -0.16 -0.00    +0.026 C 
DOCKED: ATOM     17  C   UNL d   1      -6.378   9.884 -12.250 -0.19 -0.01    +0.109 A 
DOCKED: ATOM     18  C   UNL d   1      -9.812   5.795 -15.712 -0.24 +0.01    +0.050 C 
DOCKED: ATOM     19  C   UNL d   1     -10.145   5.481 -14.369 -0.21 +0.01    +0.045 A 
DOCKED: ATOM     20  C   UNL d   1      -6.698   8.109 -10.609 -0.23 -0.00    +0.045 A 
DOCKED: ATOM     21  C   UNL d   1      -6.097   9.253 -10.952 -0.30 -0.01    +0.057 C 
DOCKED: ATOM     22  C   UNL d   1      -7.260   6.260  -9.391 -0.24 -0.00    -0.019 A 
DOCKED: ATOM     23  C   UNL d   1      -8.040   6.259 -10.645 -0.13 +0.01    +0.045 A 
DOCKED: ATOM     24  C   UNL d   1      -6.469   7.359  -9.375 -0.30 -0.00    -0.022 A 
DOCKED: ATOM     25  C   UNL d   1      -9.745   5.292 -12.151 -0.20 +0.01    +0.049 A 
DOCKED: ATOM     26  C   UNL d   1     -11.246   4.850 -13.812 -0.17 -0.01    -0.018 A 
DOCKED: ATOM     27  C   UNL d   1     -10.997   4.751 -12.408 -0.16 +0.00    +0.003 A 
DOCKED: ATOM     28  C   UNL d   1      -8.941   5.323 -10.979 -0.22 +0.01    +0.052 C 
DOCKED: ATOM     29  C   UNL d   1      -5.513   7.805  -8.321 -0.35 -0.00    +0.046 C 
DOCKED: ATOM     30  C   UNL d   1     -12.458   4.369 -14.536 -0.15 +0.02    +0.046 C 
DOCKED: ATOM     31  H   UNL d   1      -8.034   7.741 -12.168 +0.04 +0.01    +0.166 HD
DOCKED: ATOM     32  H   UNL d   1      -8.366   6.210 -13.494 +0.12 +0.01    +0.166 HD
DOCKED: ENDROOT
DOCKED: BRANCH   7  33
DOCKED: ATOM     33  C   UNL d   1     -10.124   7.368 -18.421 -0.04 +0.00    +0.141 C 
DOCKED: BRANCH  33  34
DOCKED: ATOM     34  C   UNL d   1      -9.829   7.689 -19.861 -0.01 -0.01    +0.306 C 
DOCKED: ATOM     35  O   UNL d   1      -9.615   6.882 -20.750 -0.01 +0.01    -0.251 OA
DOCKED: BRANCH  34  36
DOCKED: ATOM     36  O   UNL d   1      -9.820   9.011 -20.106 +0.00 +0.02    -0.481 OA
DOCKED: ATOM     37  H   UNL d   1      -8.999   9.336 -19.679 +0.01 -0.02    +0.295 HD
DOCKED: ENDBRANCH  34  36
DOCKED: ENDBRANCH  33  34
DOCKED: ENDBRANCH   7  33
DOCKED: BRANCH  27  38
DOCKED: ATOM     38  C   UNL d   1     -11.879   4.148 -11.454 -0.13 +0.01    +0.017 C 
DOCKED: ATOM     39  C   UNL d   1     -11.693   4.141 -10.125 -0.12 +0.05    +0.092 C 
DOCKED: BRANCH  39  40
DOCKED: ATOM     40  C   UNL d   1     -12.683   3.502  -9.254 -0.06 +0.25    +0.330 C 
DOCKED: ATOM     41  O   UNL d   1     -12.478   2.730  -8.337 -0.50 -0.32    -0.246 OA
DOCKED: BRANCH  40  42
DOCKED: ATOM     42  O   UNL d   1     -13.920   3.895  -9.594 -0.00 -0.23    -0.477 OA
DOCKED: ATOM     43  H   UNL d   1     -14.365   3.065  -9.861 +0.02 +0.12    +0.295 HD
DOCKED: ENDBRANCH  40  42
DOCKED: ENDBRANCH  39  40
DOCKED: ENDBRANCH  27  38
DOCKED: BRANCH   8  44
DOCKED: ATOM     44  C   UNL d   1      -5.079  12.021 -14.751 -0.21 -0.05    +0.141 C 
DOCKED: BRANCH  44  45
DOCKED: ATOM     45  C   UNL d   1      -3.784  11.561 -14.137 -0.29 -0.13    +0.306 C 
DOCKED: ATOM     46  O   UNL d   1      -3.211  10.507 -14.351 -0.28 +0.10    -0.251 OA
DOCKED: BRANCH  45  47
DOCKED: ATOM     47  O   UNL d   1      -3.289  12.449 -13.256 -0.71 +0.13    -0.481 OA
DOCKED: ATOM     48  H   UNL d   1      -3.794  12.288 -12.431 +0.15 -0.02    +0.295 HD
DOCKED: ENDBRANCH  45  47
DOCKED: ENDBRANCH  44  45
DOCKED: ENDBRANCH   8  44
DOCKED: BRANCH  22  49
DOCKED: ATOM     49  C   UNL d   1      -7.349   5.191  -8.342 -0.21 +0.02    +0.048 C 
DOCKED: BRANCH  49  50
DOCKED: ATOM     50  C   UNL d   1      -6.079   4.343  -8.285 -0.30 +0.02    +0.125 C 
DOCKED: BRANCH  50  51
DOCKED: ATOM     51  C   UNL d   1      -6.021   3.548  -7.012 -0.06 +0.09    +0.305 C 
DOCKED: ATOM     52  O   UNL d   1      -6.933   2.952  -6.465 -0.27 -0.09    -0.251 OA
DOCKED: BRANCH  51  53
DOCKED: ATOM     53  O   UNL d   1      -4.787   3.555  -6.469 -0.78 -0.19    -0.481 OA
DOCKED: ATOM     54  H   UNL d   1      -4.892   3.054  -5.633 +0.17 +0.07    +0.295 HD
DOCKED: ENDBRANCH  51  53
DOCKED: ENDBRANCH  50  51
DOCKED: ENDBRANCH  49  50
DOCKED: ENDBRANCH  22  49
DOCKED: TORSDOF 13
DOCKED: TER
DOCKED: ENDMDL
________________________________________________________________________________


	BEGINNING GENETIC ALGORITHM DOCKING 17 of 100
Run: 17 Seed: 1989503776 1647462325 [ Run 17 of 100 GA/GALS ]
Beginning LAMARCKIAN GENETIC ALGORITHM (LGA), with a maximum of 25000000 energy evaluations.

Final-Value: -10.241


	FINAL GENETIC ALGORITHM DOCKED STATE
	_______________________________________________


Detailed state:  trans 12.825 8.595 -10.034 quatxyzw 0.158635 0.924421 -0.043292 -0.344102 center 0.153 0.018 -0.028 ntor 13 131.1831 46.4859 162.9419 -51.3066 -133.6379 36.4473 -64.5309 51.9328 22.4576 -164.2899 -66.6018 -77.0283 -163.3302
State:	 12.825   8.595 -10.034   0.169  0.985 -0.046 -139.746    131.18   46.49  162.94  -51.31 -133.64   36.45  -64.53   51.93   22.46 -164.29  -66.60  -77.03 -163.33

DOCKED: MODEL       17
DOCKED: USER    Run = 17
DOCKED: USER    DPF = D:/Protein_go_brrr/autodock/final/mut_K82N/heme/dock.dpf
DOCKED: USER  
DOCKED: USER    Estimated Free Energy of Binding    =   -3.97 kcal/mol  [=(1)+(2)+(3)-(4)]
DOCKED: USER    Estimated Inhibition Constant, Ki   =    1.22 mM (millimolar)  [Temperature = 298.15 K]
DOCKED: USER    
DOCKED: USER    (1) Final Intermolecular Energy     =   -7.85 kcal/mol
DOCKED: USER        vdW + Hbond + desolv Energy     =   -7.36 kcal/mol
DOCKED: USER        Electrostatic Energy            =   -0.49 kcal/mol
DOCKED: USER    (2) Final Total Internal Energy     =   -2.39 kcal/mol
DOCKED: USER    (3) Torsional Free Energy           =   +3.88 kcal/mol
DOCKED: USER    (4) Unbound System's Energy  [=(2)] =   -2.39 kcal/mol
DOCKED: USER    
DOCKED: USER    
DOCKED: USER    NEWDPF move heme_opt.pdbqt
DOCKED: USER    NEWDPF about 0.153000 0.018000 -0.028000
DOCKED: USER    NEWDPF tran0 12.824576 8.594794 -10.034211
DOCKED: USER    NEWDPF quaternion0 0.158635 0.924421 -0.043292 -0.344102
DOCKED: USER    NEWDPF axisangle0 0.168952 0.984545 -0.046108 -139.746075
DOCKED: USER    NEWDPF quat0 0.168952 0.984545 -0.046108 -139.746075
DOCKED: USER    NEWDPF dihe0 131.18 46.49 162.94 -51.31 -133.64 36.45 -64.53 51.93 22.46 -164.29 -66.60 -77.03 -163.33 
DOCKED: USER  keepresnum = 1 
DOCKED: USER  
DOCKED: REMARK  13 active torsions:
DOCKED: REMARK  status: ('A' for Active; 'I' for Inactive)
DOCKED: REMARK    1  A    between atoms: O_3  and  C_38 
DOCKED: REMARK    2  A    between atoms: O_4  and  C_40 
DOCKED: REMARK    3  A    between atoms: O_7  and  C_46 
DOCKED: REMARK    4  A    between atoms: O_9  and  C_48 
DOCKED: REMARK    5  A    between atoms: C_15  and  C_20 
DOCKED: REMARK    6  A    between atoms: C_16  and  C_23 
DOCKED: REMARK    7  A    between atoms: C_20  and  C_38 
DOCKED: REMARK    8  A    between atoms: C_23  and  C_40 
DOCKED: REMARK    9  A    between atoms: C_32  and  C_41 
DOCKED: REMARK   10  A    between atoms: C_37  and  C_45 
DOCKED: REMARK   11  A    between atoms: C_41  and  C_44 
DOCKED: REMARK   12  A    between atoms: C_44  and  C_46 
DOCKED: REMARK   13  A    between atoms: C_47  and  C_48 
DOCKED: USER                              x       y       z     vdW  Elec       q    Type
DOCKED: USER                           _______ _______ _______ _____ _____    ______ ____
DOCKED: ROOT
DOCKED: ATOM      1  O   UNL d   1      17.773   8.591  -6.830 -0.01 +0.01    -0.289 OA
DOCKED: ATOM      2  O   UNL d   1      12.170   3.610  -7.249 -0.24 +0.18    -0.289 OA
DOCKED: ATOM      3  N   UNL d   1      14.971   9.092  -8.777 -0.11 +0.01    -0.247 NA
DOCKED: ATOM      4  N   UNL d   1      13.507   6.516  -8.542 -0.11 +0.03    -0.247 NA
DOCKED: ATOM      5  N   UNL d   1      11.875   7.348 -10.758 -0.11 +0.05    -0.354 N 
DOCKED: ATOM      6  N   UNL d   1      13.411  10.009 -11.007 -0.12 +0.01    -0.354 N 
DOCKED: ATOM      7  C   UNL d   1      17.090  10.281  -8.459 -0.03 -0.00    +0.084 A 
DOCKED: ATOM      8  C   UNL d   1      13.889   5.194  -6.523 -0.20 -0.01    +0.084 A 
DOCKED: ATOM      9  C   UNL d   1      14.242   6.413  -7.382 -0.17 -0.00    +0.058 A 
DOCKED: ATOM     10  C   UNL d   1      15.732  10.183  -9.161 -0.09 -0.00    +0.058 A 
DOCKED: ATOM     11  C   UNL d   1      16.954   9.062  -7.597 -0.03 -0.01    +0.193 A 
DOCKED: ATOM     12  C   UNL d   1      15.616   8.444  -7.863 -0.10 -0.01    +0.109 A 
DOCKED: ATOM     13  C   UNL d   1      12.845   4.605  -7.429 -0.22 -0.05    +0.193 A 
DOCKED: ATOM     14  C   UNL d   1      18.255  10.073  -9.430 -0.01 -0.00    +0.026 C 
DOCKED: ATOM     15  C   UNL d   1      15.218   7.273  -7.055 -0.15 -0.00    +0.055 C 
DOCKED: ATOM     16  C   UNL d   1      13.225   5.601  -5.205 -0.25 -0.00    +0.026 C 
DOCKED: ATOM     17  C   UNL d   1      12.713   5.497  -8.620 -0.19 -0.02    +0.109 A 
DOCKED: ATOM     18  C   UNL d   1      15.306  11.141 -10.005 -0.10 -0.00    +0.050 C 
DOCKED: ATOM     19  C   UNL d   1      14.035  11.178 -10.633 -0.15 -0.00    +0.045 A 
DOCKED: ATOM     20  C   UNL d   1      11.477   6.041 -10.650 -0.24 -0.01    +0.045 A 
DOCKED: ATOM     21  C   UNL d   1      11.787   5.146  -9.707 -0.31 -0.02    +0.057 C 
DOCKED: ATOM     22  C   UNL d   1      10.540   6.945 -12.527 -0.23 +0.00    -0.019 A 
DOCKED: ATOM     23  C   UNL d   1      11.360   7.977 -11.860 -0.24 -0.00    +0.045 A 
DOCKED: ATOM     24  C   UNL d   1      10.612   5.802 -11.805 -0.24 +0.01    -0.022 A 
DOCKED: ATOM     25  C   UNL d   1      12.240  10.280 -11.676 -0.21 +0.00    +0.049 A 
DOCKED: ATOM     26  C   UNL d   1      13.232  12.233 -11.037 -0.17 +0.00    -0.018 A 
DOCKED: ATOM     27  C   UNL d   1      12.090  11.660 -11.677 -0.21 +0.00    +0.003 A 
DOCKED: ATOM     28  C   UNL d   1      11.497   9.238 -12.296 -0.25 +0.00    +0.052 C 
DOCKED: ATOM     29  C   UNL d   1       9.950   4.492 -12.064 -0.27 -0.03    +0.046 C 
DOCKED: ATOM     30  C   UNL d   1      13.505  13.686 -10.840 -0.12 -0.00    +0.046 C 
DOCKED: ATOM     31  H   UNL d   1      12.427   7.792 -10.032 +0.03 -0.02    +0.166 HD
DOCKED: ATOM     32  H   UNL d   1      13.798   9.088 -10.839 +0.03 -0.01    +0.166 HD
DOCKED: ENDROOT
DOCKED: BRANCH   7  33
DOCKED: ATOM     33  C   UNL d   1      17.295  11.530  -7.596 -0.02 -0.01    +0.141 C 
DOCKED: BRANCH  33  34
DOCKED: ATOM     34  C   UNL d   1      16.451  11.518  -6.350 -0.03 -0.02    +0.306 C 
DOCKED: ATOM     35  O   UNL d   1      15.267  11.799  -6.279 -0.08 +0.02    -0.251 OA
DOCKED: BRANCH  34  36
DOCKED: ATOM     36  O   UNL d   1      17.144  11.148  -5.258 +0.00 +0.03    -0.481 OA
DOCKED: ATOM     37  H   UNL d   1      17.582  10.309  -5.516 +0.02 -0.02    +0.295 HD
DOCKED: ENDBRANCH  34  36
DOCKED: ENDBRANCH  33  34
DOCKED: ENDBRANCH   7  33
DOCKED: BRANCH  27  38
DOCKED: ATOM     38  C   UNL d   1      11.012  12.400 -12.259 -0.15 +0.00    +0.017 C 
DOCKED: ATOM     39  C   UNL d   1      10.398  12.098 -13.413 -0.14 +0.01    +0.092 C 
DOCKED: BRANCH  39  40
DOCKED: ATOM     40  C   UNL d   1       9.291  12.930 -13.892 -0.08 +0.05    +0.330 C 
DOCKED: ATOM     41  O   UNL d   1       9.156  14.132 -13.766 -0.08 -0.02    -0.246 OA
DOCKED: BRANCH  40  42
DOCKED: ATOM     42  O   UNL d   1       8.388  12.173 -14.534 -0.12 -0.16    -0.477 OA
DOCKED: ATOM     43  H   UNL d   1       8.199  12.676 -15.352 +0.07 +0.07    +0.295 HD
DOCKED: ENDBRANCH  40  42
DOCKED: ENDBRANCH  39  40
DOCKED: ENDBRANCH  27  38
DOCKED: BRANCH   8  44
DOCKED: ATOM     44  C   UNL d   1      15.032   4.201  -6.285 -0.08 -0.01    +0.141 C 
DOCKED: BRANCH  44  45
DOCKED: ATOM     45  C   UNL d   1      14.978   3.548  -4.930 -0.06 +0.04    +0.306 C 
DOCKED: ATOM     46  O   UNL d   1      15.732   3.753  -3.994 -0.03 -0.03    -0.251 OA
DOCKED: BRANCH  45  47
DOCKED: ATOM     47  O   UNL d   1      13.987   2.643  -4.833 -0.28 -0.25    -0.481 OA
DOCKED: ATOM     48  H   UNL d   1      13.382   2.858  -5.575 +0.09 +0.05    +0.295 HD
DOCKED: ENDBRANCH  45  47
DOCKED: ENDBRANCH  44  45
DOCKED: ENDBRANCH   8  44
DOCKED: BRANCH  22  49
DOCKED: ATOM     49  C   UNL d   1       9.782   7.166 -13.803 -0.23 +0.01    +0.048 C 
DOCKED: BRANCH  49  50
DOCKED: ATOM     50  C   UNL d   1      10.352   6.339 -14.954 -0.09 -0.01    +0.125 C 
DOCKED: BRANCH  50  51
DOCKED: ATOM     51  C   UNL d   1       9.364   5.302 -15.410 -0.06 -0.12    +0.305 C 
DOCKED: ATOM     52  O   UNL d   1       8.174   5.453 -15.624 -0.71 +0.00    -0.251 OA
DOCKED: BRANCH  51  53
DOCKED: ATOM     53  O   UNL d   1       9.938   4.093 -15.567 -0.01 +0.40    -0.481 OA
DOCKED: ATOM     54  H   UNL d   1       9.366   3.489 -15.048 -0.43 -0.64    +0.295 HD
DOCKED: ENDBRANCH  51  53
DOCKED: ENDBRANCH  50  51
DOCKED: ENDBRANCH  49  50
DOCKED: ENDBRANCH  22  49
DOCKED: TORSDOF 13
DOCKED: TER
DOCKED: ENDMDL
________________________________________________________________________________


	BEGINNING GENETIC ALGORITHM DOCKING 18 of 100
Run: 18 Seed: 1529402669 111320085 [ Run 18 of 100 GA/GALS ]
Beginning LAMARCKIAN GENETIC ALGORITHM (LGA), with a maximum of 25000000 energy evaluations.

Final-Value: -11.447


	FINAL GENETIC ALGORITHM DOCKED STATE
	_______________________________________________


Detailed state:  trans 11.216 -2.322 -10.217 quatxyzw 0.548967 -0.098066 -0.615888 0.556507 center 0.153 0.018 -0.028 ntor 13 163.5646 168.7648 -85.0720 -100.5123 -147.8208 -16.6908 153.7875 -36.2367 6.8234 -93.4235 57.5136 -47.6695 125.5390
State:	 11.216  -2.322 -10.217   0.661 -0.118 -0.741 112.371    163.56  168.76  -85.07 -100.51 -147.82  -16.69  153.79  -36.24    6.82  -93.42   57.51  -47.67  125.54

DOCKED: MODEL       18
DOCKED: USER    Run = 18
DOCKED: USER    DPF = D:/Protein_go_brrr/autodock/final/mut_K82N/heme/dock.dpf
DOCKED: USER  
DOCKED: USER    Estimated Free Energy of Binding    =   -3.83 kcal/mol  [=(1)+(2)+(3)-(4)]
DOCKED: USER    Estimated Inhibition Constant, Ki   =    1.57 mM (millimolar)  [Temperature = 298.15 K]
DOCKED: USER    
DOCKED: USER    (1) Final Intermolecular Energy     =   -7.70 kcal/mol
DOCKED: USER        vdW + Hbond + desolv Energy     =   -7.52 kcal/mol
DOCKED: USER        Electrostatic Energy            =   -0.18 kcal/mol
DOCKED: USER    (2) Final Total Internal Energy     =   -3.74 kcal/mol
DOCKED: USER    (3) Torsional Free Energy           =   +3.88 kcal/mol
DOCKED: USER    (4) Unbound System's Energy  [=(2)] =   -3.74 kcal/mol
DOCKED: USER    
DOCKED: USER    
DOCKED: USER    NEWDPF move heme_opt.pdbqt
DOCKED: USER    NEWDPF about 0.153000 0.018000 -0.028000
DOCKED: USER    NEWDPF tran0 11.215975 -2.322410 -10.216564
DOCKED: USER    NEWDPF quaternion0 0.548967 -0.098066 -0.615888 0.556507
DOCKED: USER    NEWDPF axisangle0 0.660735 -0.118031 -0.741281 112.370836
DOCKED: USER    NEWDPF quat0 0.660735 -0.118031 -0.741281 112.370836
DOCKED: USER    NEWDPF dihe0 163.56 168.76 -85.07 -100.51 -147.82 -16.69 153.79 -36.24 6.82 -93.42 57.51 -47.67 125.54 
DOCKED: USER  keepresnum = 1 
DOCKED: USER  
DOCKED: REMARK  13 active torsions:
DOCKED: REMARK  status: ('A' for Active; 'I' for Inactive)
DOCKED: REMARK    1  A    between atoms: O_3  and  C_38 
DOCKED: REMARK    2  A    between atoms: O_4  and  C_40 
DOCKED: REMARK    3  A    between atoms: O_7  and  C_46 
DOCKED: REMARK    4  A    between atoms: O_9  and  C_48 
DOCKED: REMARK    5  A    between atoms: C_15  and  C_20 
DOCKED: REMARK    6  A    between atoms: C_16  and  C_23 
DOCKED: REMARK    7  A    between atoms: C_20  and  C_38 
DOCKED: REMARK    8  A    between atoms: C_23  and  C_40 
DOCKED: REMARK    9  A    between atoms: C_32  and  C_41 
DOCKED: REMARK   10  A    between atoms: C_37  and  C_45 
DOCKED: REMARK   11  A    between atoms: C_41  and  C_44 
DOCKED: REMARK   12  A    between atoms: C_44  and  C_46 
DOCKED: REMARK   13  A    between atoms: C_47  and  C_48 
DOCKED: USER                              x       y       z     vdW  Elec       q    Type
DOCKED: USER                           _______ _______ _______ _____ _____    ______ ____
DOCKED: ROOT
DOCKED: ATOM      1  O   UNL d   1       8.263  -5.701  -6.393 -0.19 +0.08    -0.289 OA
DOCKED: ATOM      2  O   UNL d   1      15.365  -3.262  -6.351 -0.03 -0.02    -0.289 OA
DOCKED: ATOM      3  N   UNL d   1       9.609  -3.826  -8.956 -0.14 +0.14    -0.247 NA
DOCKED: ATOM      4  N   UNL d   1      12.299  -3.096  -7.927 -0.14 +0.11    -0.247 NA
DOCKED: ATOM      5  N   UNL d   1      12.483  -1.163 -10.048 +0.01 +0.34    -0.354 N 
DOCKED: ATOM      6  N   UNL d   1       9.683  -1.913 -11.096 -0.15 +0.30    -0.354 N 
DOCKED: ATOM      7  C   UNL d   1       7.371  -4.671  -8.423 -0.32 -0.03    +0.084 A 
DOCKED: ATOM      8  C   UNL d   1      13.310  -4.591  -6.280 -0.08 +0.00    +0.084 A 
DOCKED: ATOM      9  C   UNL d   1      12.101  -4.208  -7.140 -0.08 -0.01    +0.058 A 
DOCKED: ATOM     10  C   UNL d   1       8.286  -3.879  -9.361 -0.29 -0.03    +0.058 A 
DOCKED: ATOM     11  C   UNL d   1       8.415  -5.073  -7.425 -0.18 -0.05    +0.193 A 
DOCKED: ATOM     12  C   UNL d   1       9.733  -4.522  -7.873 -0.17 -0.03    +0.109 A 
DOCKED: ATOM     13  C   UNL d   1      14.218  -3.469  -6.698 -0.08 +0.01    +0.193 A 
DOCKED: ATOM     14  C   UNL d   1       6.343  -3.773  -7.729 -0.65 -0.01    +0.026 C 
DOCKED: ATOM     15  C   UNL d   1      10.935  -4.870  -7.089 -0.10 -0.01    +0.055 C 
DOCKED: ATOM     16  C   UNL d   1      13.929  -5.918  -6.730 -0.02 -0.00    +0.026 C 
DOCKED: ATOM     17  C   UNL d   1      13.484  -2.630  -7.693 -0.16 -0.02    +0.109 A 
DOCKED: ATOM     18  C   UNL d   1       7.831  -3.366 -10.520 -0.27 -0.02    +0.050 C 
DOCKED: ATOM     19  C   UNL d   1       8.619  -2.694 -11.488 -0.32 -0.02    +0.045 A 
DOCKED: ATOM     20  C   UNL d   1      13.581  -0.806  -9.308 -0.13 -0.03    +0.045 A 
DOCKED: ATOM     21  C   UNL d   1      14.114  -1.424  -8.249 -0.18 -0.02    +0.057 C 
DOCKED: ATOM     22  C   UNL d   1      13.278   0.733 -10.968 -0.12 +0.01    -0.019 A 
DOCKED: ATOM     23  C   UNL d   1      12.221  -0.293 -11.072 -0.11 -0.03    +0.045 A 
DOCKED: ATOM     24  C   UNL d   1      14.080   0.423  -9.923 -0.11 +0.01    -0.022 A 
DOCKED: ATOM     25  C   UNL d   1      10.248  -1.286 -12.183 -0.21 -0.04    +0.049 A 
DOCKED: ATOM     26  C   UNL d   1       8.513  -2.601 -12.867 -0.28 +0.01    -0.018 A 
DOCKED: ATOM     27  C   UNL d   1       9.556  -1.726 -13.302 -0.22 -0.00    +0.003 A 
DOCKED: ATOM     28  C   UNL d   1      11.263  -0.306 -12.012 -0.18 -0.04    +0.052 C 
DOCKED: ATOM     29  C   UNL d   1      15.286   1.146  -9.426 -0.06 -0.01    +0.046 C 
DOCKED: ATOM     30  C   UNL d   1       7.506  -3.283 -13.730 -0.12 -0.02    +0.046 C 
DOCKED: ATOM     31  H   UNL d   1      11.991  -2.032  -9.873 -0.03 -0.17    +0.166 HD
DOCKED: ATOM     32  H   UNL d   1       9.968  -1.797 -10.131 -0.41 -0.24    +0.166 HD
DOCKED: ENDROOT
DOCKED: BRANCH   7  33
DOCKED: ATOM     33  C   UNL d   1       6.711  -5.909  -9.039 -0.30 -0.04    +0.141 C 
DOCKED: BRANCH  33  34
DOCKED: ATOM     34  C   UNL d   1       7.710  -6.855  -9.648 -0.09 -0.08    +0.306 C 
DOCKED: ATOM     35  O   UNL d   1       8.064  -6.877 -10.814 -0.06 +0.05    -0.251 OA
DOCKED: BRANCH  34  36
DOCKED: ATOM     36  O   UNL d   1       8.214  -7.724  -8.752 -0.02 +0.15    -0.481 OA
DOCKED: ATOM     37  H   UNL d   1       8.028  -7.315  -7.880 -0.40 -0.18    +0.295 HD
DOCKED: ENDBRANCH  34  36
DOCKED: ENDBRANCH  33  34
DOCKED: ENDBRANCH   7  33
DOCKED: BRANCH  27  38
DOCKED: ATOM     38  C   UNL d   1       9.798  -1.343 -14.660 -0.14 -0.01    +0.017 C 
DOCKED: ATOM     39  C   UNL d   1      10.634  -0.369 -15.053 -0.08 -0.05    +0.092 C 
DOCKED: BRANCH  39  40
DOCKED: ATOM     40  C   UNL d   1      10.806  -0.086 -16.480 -0.01 -0.14    +0.330 C 
DOCKED: ATOM     41  O   UNL d   1      10.531  -0.808 -17.420 -0.01 +0.07    -0.246 OA
DOCKED: BRANCH  40  42
DOCKED: ATOM     42  O   UNL d   1      11.324   1.140 -16.648 +0.00 +0.19    -0.477 OA
DOCKED: ATOM     43  H   UNL d   1      11.258   1.547 -15.760 +0.03 -0.16    +0.295 HD
DOCKED: ENDBRANCH  40  42
DOCKED: ENDBRANCH  39  40
DOCKED: ENDBRANCH  27  38
DOCKED: BRANCH   8  44
DOCKED: ATOM     44  C   UNL d   1      13.076  -4.574  -4.766 -0.10 +0.03    +0.141 C 
DOCKED: BRANCH  44  45
DOCKED: ATOM     45  C   UNL d   1      14.267  -4.082  -3.987 -0.06 +0.07    +0.306 C 
DOCKED: ATOM     46  O   UNL d   1      14.358  -3.024  -3.389 -0.08 -0.11    -0.251 OA
DOCKED: BRANCH  45  47
DOCKED: ATOM     47  O   UNL d   1      15.299  -4.945  -4.025 +0.01 -0.04    -0.481 OA
DOCKED: ATOM     48  H   UNL d   1      15.856  -4.632  -4.769 +0.02 +0.02    +0.295 HD
DOCKED: ENDBRANCH  45  47
DOCKED: ENDBRANCH  44  45
DOCKED: ENDBRANCH   8  44
DOCKED: BRANCH  22  49
DOCKED: ATOM     49  C   UNL d   1      13.395   1.918 -11.882 -0.07 -0.02    +0.048 C 
DOCKED: BRANCH  49  50
DOCKED: ATOM     50  C   UNL d   1      12.034   2.553 -12.167 -0.12 -0.07    +0.125 C 
DOCKED: BRANCH  50  51
DOCKED: ATOM     51  C   UNL d   1      11.745   2.563 -13.641 -0.05 -0.19    +0.305 C 
DOCKED: ATOM     52  O   UNL d   1      12.512   2.838 -14.547 -0.02 +0.10    -0.251 OA
DOCKED: BRANCH  51  53
DOCKED: ATOM     53  O   UNL d   1      10.466   2.230 -13.907 -0.01 +0.64    -0.481 OA
DOCKED: ATOM     54  H   UNL d   1       9.963   3.050 -13.722 -0.48 -0.60    +0.295 HD
DOCKED: ENDBRANCH  51  53
DOCKED: ENDBRANCH  50  51
DOCKED: ENDBRANCH  49  50
DOCKED: ENDBRANCH  22  49
DOCKED: TORSDOF 13
DOCKED: TER
DOCKED: ENDMDL
________________________________________________________________________________


	BEGINNING GENETIC ALGORITHM DOCKING 19 of 100
Run: 19 Seed: 414057426 276362441 [ Run 19 of 100 GA/GALS ]
Beginning LAMARCKIAN GENETIC ALGORITHM (LGA), with a maximum of 25000000 energy evaluations.

Final-Value: -11.876


	FINAL GENETIC ALGORITHM DOCKED STATE
	_______________________________________________


Detailed state:  trans 12.213 3.084 15.960 quatxyzw -0.366203 0.508155 0.225264 0.746277 center 0.153 0.018 -0.028 ntor 13 -180.0000 179.6903 126.9753 -83.8854 -151.3687 67.4953 122.9849 -14.5427 17.5374 122.7112 -66.9319 -117.4700 21.2942
State:	 12.213   3.084  15.960  -0.550  0.763  0.338 83.462   -180.00  179.69  126.98  -83.89 -151.37   67.50  122.98  -14.54   17.54  122.71  -66.93 -117.47   21.29

DOCKED: MODEL       19
DOCKED: USER    Run = 19
DOCKED: USER    DPF = D:/Protein_go_brrr/autodock/final/mut_K82N/heme/dock.dpf
DOCKED: USER  
DOCKED: USER    Estimated Free Energy of Binding    =   -4.09 kcal/mol  [=(1)+(2)+(3)-(4)]
DOCKED: USER    Estimated Inhibition Constant, Ki   =    1.01 mM (millimolar)  [Temperature = 298.15 K]
DOCKED: USER    
DOCKED: USER    (1) Final Intermolecular Energy     =   -7.96 kcal/mol
DOCKED: USER        vdW + Hbond + desolv Energy     =   -7.84 kcal/mol
DOCKED: USER        Electrostatic Energy            =   -0.12 kcal/mol
DOCKED: USER    (2) Final Total Internal Energy     =   -3.91 kcal/mol
DOCKED: USER    (3) Torsional Free Energy           =   +3.88 kcal/mol
DOCKED: USER    (4) Unbound System's Energy  [=(2)] =   -3.91 kcal/mol
DOCKED: USER    
DOCKED: USER    
DOCKED: USER    NEWDPF move heme_opt.pdbqt
DOCKED: USER    NEWDPF about 0.153000 0.018000 -0.028000
DOCKED: USER    NEWDPF tran0 12.213048 3.083712 15.960149
DOCKED: USER    NEWDPF quaternion0 -0.366203 0.508155 0.225264 0.746277
DOCKED: USER    NEWDPF axisangle0 -0.550156 0.763414 0.338420 83.462114
DOCKED: USER    NEWDPF quat0 -0.550156 0.763414 0.338420 83.462114
DOCKED: USER    NEWDPF dihe0 -180.00 179.69 126.98 -83.89 -151.37 67.50 122.98 -14.54 17.54 122.71 -66.93 -117.47 21.29 
DOCKED: USER  keepresnum = 1 
DOCKED: USER  
DOCKED: REMARK  13 active torsions:
DOCKED: REMARK  status: ('A' for Active; 'I' for Inactive)
DOCKED: REMARK    1  A    between atoms: O_3  and  C_38 
DOCKED: REMARK    2  A    between atoms: O_4  and  C_40 
DOCKED: REMARK    3  A    between atoms: O_7  and  C_46 
DOCKED: REMARK    4  A    between atoms: O_9  and  C_48 
DOCKED: REMARK    5  A    between atoms: C_15  and  C_20 
DOCKED: REMARK    6  A    between atoms: C_16  and  C_23 
DOCKED: REMARK    7  A    between atoms: C_20  and  C_38 
DOCKED: REMARK    8  A    between atoms: C_23  and  C_40 
DOCKED: REMARK    9  A    between atoms: C_32  and  C_41 
DOCKED: REMARK   10  A    between atoms: C_37  and  C_45 
DOCKED: REMARK   11  A    between atoms: C_41  and  C_44 
DOCKED: REMARK   12  A    between atoms: C_44  and  C_46 
DOCKED: REMARK   13  A    between atoms: C_47  and  C_48 
DOCKED: USER                              x       y       z     vdW  Elec       q    Type
DOCKED: USER                           _______ _______ _______ _____ _____    ______ ____
DOCKED: ROOT
DOCKED: ATOM      1  O   UNL d   1       9.410   7.917  14.080 -0.62 -0.04    -0.289 OA
DOCKED: ATOM      2  O   UNL d   1      12.830   2.413  10.285 -0.11 +0.02    -0.289 OA
DOCKED: ATOM      3  N   UNL d   1      11.058   5.319  15.637 -0.10 +0.02    -0.247 NA
DOCKED: ATOM      4  N   UNL d   1      11.799   3.531  13.383 -0.10 +0.02    -0.247 NA
DOCKED: ATOM      5  N   UNL d   1      12.401   1.492  15.319 -0.07 +0.06    -0.354 N 
DOCKED: ATOM      6  N   UNL d   1      11.611   3.347  17.651 -0.11 -0.01    -0.354 N 
DOCKED: ATOM      7  C   UNL d   1       9.669   7.189  16.399 -0.18 -0.01    +0.084 A 
DOCKED: ATOM      8  C   UNL d   1      12.064   4.558  11.182 -0.12 -0.00    +0.084 A 
DOCKED: ATOM      9  C   UNL d   1      11.668   4.692  12.656 -0.16 -0.00    +0.058 A 
DOCKED: ATOM     10  C   UNL d   1      10.494   5.944  16.737 -0.16 -0.00    +0.058 A 
DOCKED: ATOM     11  C   UNL d   1       9.881   7.167  14.915 -0.21 -0.01    +0.193 A 
DOCKED: ATOM     12  C   UNL d   1      10.761   6.002  14.581 -0.18 -0.01    +0.109 A 
DOCKED: ATOM     13  C   UNL d   1      12.410   3.096  11.199 -0.08 -0.01    +0.193 A 
DOCKED: ATOM     14  C   UNL d   1       8.179   6.987  16.688 -0.27 -0.01    +0.026 C 
DOCKED: ATOM     15  C   UNL d   1      11.185   5.831  13.177 -0.22 -0.00    +0.055 C 
DOCKED: ATOM     16  C   UNL d   1      13.329   5.359  10.859 -0.06 -0.00    +0.026 C 
DOCKED: ATOM     17  C   UNL d   1      12.200   2.590  12.589 -0.14 -0.01    +0.109 A 
DOCKED: ATOM     18  C   UNL d   1      10.710   5.568  18.012 -0.16 +0.00    +0.050 C 
DOCKED: ATOM     19  C   UNL d   1      11.526   4.484  18.423 -0.17 +0.01    +0.045 A 
DOCKED: ATOM     20  C   UNL d   1      12.476   0.752  14.168 -0.25 -0.01    +0.045 A 
DOCKED: ATOM     21  C   UNL d   1      12.420   1.170  12.899 -0.28 -0.01    +0.057 C 
DOCKED: ATOM     22  C   UNL d   1      12.650  -0.653  15.960 -0.34 +0.00    -0.019 A 
DOCKED: ATOM     23  C   UNL d   1      12.496   0.730  16.453 -0.25 -0.01    +0.045 A 
DOCKED: ATOM     24  C   UNL d   1      12.639  -0.633  14.606 -0.30 +0.01    -0.022 A 
DOCKED: ATOM     25  C   UNL d   1      12.380   2.394  18.278 -0.21 +0.00    +0.049 A 
DOCKED: ATOM     26  C   UNL d   1      12.288   4.279  19.562 -0.16 -0.00    -0.018 A 
DOCKED: ATOM     27  C   UNL d   1      12.841   2.965  19.457 -0.17 +0.00    +0.003 A 
DOCKED: ATOM     28  C   UNL d   1      12.486   1.079  17.749 -0.28 -0.00    +0.052 C 
DOCKED: ATOM     29  C   UNL d   1      12.773  -1.773  13.655 -0.41 -0.01    +0.046 C 
DOCKED: ATOM     30  C   UNL d   1      12.494   5.242  20.682 -0.12 +0.01    +0.046 C 
DOCKED: ATOM     31  H   UNL d   1      12.361   2.505  15.292 +0.06 -0.02    +0.166 HD
DOCKED: ATOM     32  H   UNL d   1      11.132   3.233  16.766 +0.05 -0.01    +0.166 HD
DOCKED: ENDROOT
DOCKED: BRANCH   7  33
DOCKED: ATOM     33  C   UNL d   1      10.185   8.502  16.997 -0.06 -0.01    +0.141 C 
DOCKED: BRANCH  33  34
DOCKED: ATOM     34  C   UNL d   1      11.527   8.901  16.446 -0.01 -0.00    +0.306 C 
DOCKED: ATOM     35  O   UNL d   1      12.610   8.694  16.968 -0.00 +0.00    -0.251 OA
DOCKED: BRANCH  34  36
DOCKED: ATOM     36  O   UNL d   1      11.435   9.538  15.266 -0.01 +0.00    -0.481 OA
DOCKED: ATOM     37  H   UNL d   1      10.477   9.533  15.057 +0.05 +0.00    +0.295 HD
DOCKED: ENDBRANCH  34  36
DOCKED: ENDBRANCH  33  34
DOCKED: ENDBRANCH   7  33
DOCKED: BRANCH  27  38
DOCKED: ATOM     38  C   UNL d   1      13.683   2.343  20.433 -0.14 +0.00    +0.017 C 
DOCKED: ATOM     39  C   UNL d   1      13.277   1.456  21.354 -0.09 +0.03    +0.092 C 
DOCKED: BRANCH  39  40
DOCKED: ATOM     40  C   UNL d   1      14.246   0.878  22.289 -0.07 +0.11    +0.330 C 
DOCKED: ATOM     41  O   UNL d   1      14.878   1.452  23.155 -0.05 -0.09    -0.246 OA
DOCKED: BRANCH  40  42
DOCKED: ATOM     42  O   UNL d   1      14.361  -0.442  22.076 -0.01 -0.09    -0.477 OA
DOCKED: ATOM     43  H   UNL d   1      13.737  -0.617  21.343 +0.06 +0.05    +0.295 HD
DOCKED: ENDBRANCH  40  42
DOCKED: ENDBRANCH  39  40
DOCKED: ENDBRANCH  27  38
DOCKED: BRANCH   8  44
DOCKED: ATOM     44  C   UNL d   1      10.951   4.847  10.169 -0.23 -0.00    +0.141 C 
DOCKED: BRANCH  44  45
DOCKED: ATOM     45  C   UNL d   1      10.615   6.310  10.057 -0.19 -0.00    +0.306 C 
DOCKED: ATOM     46  O   UNL d   1      11.241   7.154   9.439 -0.10 -0.01    -0.251 OA
DOCKED: BRANCH  45  47
DOCKED: ATOM     47  O   UNL d   1       9.515   6.641  10.758 -0.19 +0.03    -0.481 OA
DOCKED: ATOM     48  H   UNL d   1       8.823   6.023  10.438 -0.36 -0.10    +0.295 HD
DOCKED: ENDBRANCH  45  47
DOCKED: ENDBRANCH  44  45
DOCKED: ENDBRANCH   8  44
DOCKED: BRANCH  22  49
DOCKED: ATOM     49  C   UNL d   1      12.778  -1.855  16.849 -0.13 +0.00    +0.048 C 
DOCKED: BRANCH  49  50
DOCKED: ATOM     50  C   UNL d   1      14.029  -1.784  17.724 -0.19 +0.01    +0.125 C 
DOCKED: BRANCH  50  51
DOCKED: ATOM     51  C   UNL d   1      13.662  -1.659  19.176 -0.11 +0.02    +0.305 C 
DOCKED: ATOM     52  O   UNL d   1      12.606  -1.271  19.644 -0.19 -0.01    -0.251 OA
DOCKED: BRANCH  51  53
DOCKED: ATOM     53  O   UNL d   1      14.675  -2.026  19.986 +0.00 -0.04    -0.481 OA
DOCKED: ATOM     54  H   UNL d   1      15.121  -1.182  20.208 +0.05 +0.02    +0.295 HD
DOCKED: ENDBRANCH  51  53
DOCKED: ENDBRANCH  50  51
DOCKED: ENDBRANCH  49  50
DOCKED: ENDBRANCH  22  49
DOCKED: TORSDOF 13
DOCKED: TER
DOCKED: ENDMDL
________________________________________________________________________________


	BEGINNING GENETIC ALGORITHM DOCKING 20 of 100
Run: 20 Seed: 1407215792 1731622745 [ Run 20 of 100 GA/GALS ]
Beginning LAMARCKIAN GENETIC ALGORITHM (LGA), with a maximum of 25000000 energy evaluations.

Final-Value: -11.712


	FINAL GENETIC ALGORITHM DOCKED STATE
	_______________________________________________


Detailed state:  trans 8.258 14.011 -12.895 quatxyzw -0.217736 -0.442572 0.867903 -0.058877 center 0.153 0.018 -0.028 ntor 13 161.6467 -67.5876 -58.7376 -29.4978 -144.3472 -25.4132 128.1541 42.3587 19.0730 110.1280 -30.7996 -72.3268 18.3981
State:	  8.258  14.011 -12.895  -0.218 -0.443  0.869 -173.249    161.65  -67.59  -58.74  -29.50 -144.35  -25.41  128.15   42.36   19.07  110.13  -30.80  -72.33   18.40

DOCKED: MODEL       20
DOCKED: USER    Run = 20
DOCKED: USER    DPF = D:/Protein_go_brrr/autodock/final/mut_K82N/heme/dock.dpf
DOCKED: USER  
DOCKED: USER    Estimated Free Energy of Binding    =   -4.48 kcal/mol  [=(1)+(2)+(3)-(4)]
DOCKED: USER    Estimated Inhibition Constant, Ki   =  518.60 uM (micromolar)  [Temperature = 298.15 K]
DOCKED: USER    
DOCKED: USER    (1) Final Intermolecular Energy     =   -8.36 kcal/mol
DOCKED: USER        vdW + Hbond + desolv Energy     =   -8.05 kcal/mol
DOCKED: USER        Electrostatic Energy            =   -0.31 kcal/mol
DOCKED: USER    (2) Final Total Internal Energy     =   -3.35 kcal/mol
DOCKED: USER    (3) Torsional Free Energy           =   +3.88 kcal/mol
DOCKED: USER    (4) Unbound System's Energy  [=(2)] =   -3.35 kcal/mol
DOCKED: USER    
DOCKED: USER    
DOCKED: USER    NEWDPF move heme_opt.pdbqt
DOCKED: USER    NEWDPF about 0.153000 0.018000 -0.028000
DOCKED: USER    NEWDPF tran0 8.258383 14.010790 -12.894953
DOCKED: USER    NEWDPF quaternion0 -0.217736 -0.442572 0.867903 -0.058877
DOCKED: USER    NEWDPF axisangle0 -0.218115 -0.443341 0.869411 -173.249236
DOCKED: USER    NEWDPF quat0 -0.218115 -0.443341 0.869411 -173.249236
DOCKED: USER    NEWDPF dihe0 161.65 -67.59 -58.74 -29.50 -144.35 -25.41 128.15 42.36 19.07 110.13 -30.80 -72.33 18.40 
DOCKED: USER  keepresnum = 1 
DOCKED: USER  
DOCKED: REMARK  13 active torsions:
DOCKED: REMARK  status: ('A' for Active; 'I' for Inactive)
DOCKED: REMARK    1  A    between atoms: O_3  and  C_38 
DOCKED: REMARK    2  A    between atoms: O_4  and  C_40 
DOCKED: REMARK    3  A    between atoms: O_7  and  C_46 
DOCKED: REMARK    4  A    between atoms: O_9  and  C_48 
DOCKED: REMARK    5  A    between atoms: C_15  and  C_20 
DOCKED: REMARK    6  A    between atoms: C_16  and  C_23 
DOCKED: REMARK    7  A    between atoms: C_20  and  C_38 
DOCKED: REMARK    8  A    between atoms: C_23  and  C_40 
DOCKED: REMARK    9  A    between atoms: C_32  and  C_41 
DOCKED: REMARK   10  A    between atoms: C_37  and  C_45 
DOCKED: REMARK   11  A    between atoms: C_41  and  C_44 
DOCKED: REMARK   12  A    between atoms: C_44  and  C_46 
DOCKED: REMARK   13  A    between atoms: C_47  and  C_48 
DOCKED: USER                              x       y       z     vdW  Elec       q    Type
DOCKED: USER                           _______ _______ _______ _____ _____    ______ ____
DOCKED: ROOT
DOCKED: ATOM      1  O   UNL d   1      13.173  10.859 -12.075 -0.10 +0.00    -0.289 OA
DOCKED: ATOM      2  O   UNL d   1      10.885  17.314  -8.993 -0.08 +0.01    -0.289 OA
DOCKED: ATOM      3  N   UNL d   1      10.234  12.423 -12.978 -0.04 -0.04    -0.247 NA
DOCKED: ATOM      4  N   UNL d   1      10.040  14.677 -11.053 -0.19 -0.01    -0.247 NA
DOCKED: ATOM      5  N   UNL d   1       7.303  15.014 -11.866 -0.13 +0.01    -0.354 N 
DOCKED: ATOM      6  N   UNL d   1       7.507  12.662 -13.847 -0.15 -0.11    -0.354 N 
DOCKED: ATOM      7  C   UNL d   1      11.293  10.281 -13.527 -0.14 +0.01    +0.084 A 
DOCKED: ATOM      8  C   UNL d   1      12.129  15.526 -10.111 -0.11 -0.00    +0.084 A 
DOCKED: ATOM      9  C   UNL d   1      11.401  14.488 -10.972 -0.20 +0.00    +0.058 A 
DOCKED: ATOM     10  C   UNL d   1      10.114  11.244 -13.695 -0.14 +0.01    +0.058 A 
DOCKED: ATOM     11  C   UNL d   1      12.110  11.133 -12.602 -0.13 +0.01    +0.193 A 
DOCKED: ATOM     12  C   UNL d   1      11.373  12.415 -12.366 -0.16 +0.01    +0.109 A 
DOCKED: ATOM     13  C   UNL d   1      10.923  16.316  -9.687 -0.11 -0.00    +0.193 A 
DOCKED: ATOM     14  C   UNL d   1      10.889   9.000 -12.793 -0.26 +0.00    +0.026 C 
DOCKED: ATOM     15  C   UNL d   1      12.033  13.457 -11.553 -0.19 +0.00    +0.055 C 
DOCKED: ATOM     16  C   UNL d   1      13.037  16.427 -10.953 -0.04 -0.00    +0.026 C 
DOCKED: ATOM     17  C   UNL d   1       9.721  15.695 -10.319 -0.22 +0.00    +0.109 A 
DOCKED: ATOM     18  C   UNL d   1       9.105  10.977 -14.546 -0.20 +0.02    +0.050 C 
DOCKED: ATOM     19  C   UNL d   1       8.018  11.843 -14.829 -0.14 +0.02    +0.045 A 
DOCKED: ATOM     20  C   UNL d   1       7.332  15.856 -10.784 -0.25 -0.00    +0.045 A 
DOCKED: ATOM     21  C   UNL d   1       8.381  16.235 -10.046 -0.24 -0.00    +0.057 C 
DOCKED: ATOM     22  C   UNL d   1       5.179  15.685 -11.528 -0.37 +0.00    -0.019 A 
DOCKED: ATOM     23  C   UNL d   1       6.046  14.849 -12.383 -0.32 -0.00    +0.045 A 
DOCKED: ATOM     24  C   UNL d   1       5.947  16.279 -10.584 -0.31 +0.00    -0.022 A 
DOCKED: ATOM     25  C   UNL d   1       6.407  13.345 -14.311 -0.26 +0.01    +0.049 A 
DOCKED: ATOM     26  C   UNL d   1       7.253  12.026 -15.971 -0.11 -0.01    -0.018 A 
DOCKED: ATOM     27  C   UNL d   1       6.249  12.990 -15.643 -0.17 +0.00    +0.003 A 
DOCKED: ATOM     28  C   UNL d   1       5.615  14.133 -13.433 -0.33 +0.00    +0.052 C 
DOCKED: ATOM     29  C   UNL d   1       5.536  17.220  -9.503 -0.21 -0.02    +0.046 C 
DOCKED: ATOM     30  C   UNL d   1       7.442  11.350 -17.286 -0.10 +0.02    +0.046 C 
DOCKED: ATOM     31  H   UNL d   1       8.157  14.637 -12.263 +0.06 +0.01    +0.166 HD
DOCKED: ATOM     32  H   UNL d   1       7.880  12.708 -12.906 +0.07 +0.05    +0.166 HD
DOCKED: ENDROOT
DOCKED: BRANCH   7  33
DOCKED: ATOM     33  C   UNL d   1      12.077   9.972 -14.807 -0.04 +0.01    +0.141 C 
DOCKED: BRANCH  33  34
DOCKED: ATOM     34  C   UNL d   1      12.811  11.172 -15.340 -0.00 +0.00    +0.306 C 
DOCKED: ATOM     35  O   UNL d   1      12.378  11.987 -16.137 -0.00 -0.00    -0.251 OA
DOCKED: BRANCH  34  36
DOCKED: ATOM     36  O   UNL d   1      14.054  11.284 -14.838 +0.00 +0.01    -0.481 OA
DOCKED: ATOM     37  H   UNL d   1      14.035  10.756 -14.012 +0.03 -0.01    +0.295 HD
DOCKED: ENDBRANCH  34  36
DOCKED: ENDBRANCH  33  34
DOCKED: ENDBRANCH   7  33
DOCKED: BRANCH  27  38
DOCKED: ATOM     38  C   UNL d   1       5.233  13.459 -16.537 -0.14 +0.00    +0.017 C 
DOCKED: ATOM     39  C   UNL d   1       3.977  13.772 -16.185 -0.11 -0.01    +0.092 C 
DOCKED: BRANCH  39  40
DOCKED: ATOM     40  C   UNL d   1       3.035  14.259 -17.196 -0.07 -0.14    +0.330 C 
DOCKED: ATOM     41  O   UNL d   1       3.292  14.857 -18.224 -0.03 +0.08    -0.246 OA
DOCKED: BRANCH  40  42
DOCKED: ATOM     42  O   UNL d   1       1.778  13.946 -16.845 -0.04 +0.49    -0.477 OA
DOCKED: ATOM     43  H   UNL d   1       1.366  14.813 -16.652 -0.47 -0.57    +0.295 HD
DOCKED: ENDBRANCH  40  42
DOCKED: ENDBRANCH  39  40
DOCKED: ENDBRANCH  27  38
DOCKED: BRANCH   8  44
DOCKED: ATOM     44  C   UNL d   1      12.875  14.968  -8.894 -0.15 -0.00    +0.141 C 
DOCKED: BRANCH  44  45
DOCKED: ATOM     45  C   UNL d   1      13.954  13.984  -9.259 -0.08 -0.01    +0.306 C 
DOCKED: ATOM     46  O   UNL d   1      15.096  14.249  -9.594 -0.02 +0.01    -0.251 OA
DOCKED: BRANCH  45  47
DOCKED: ATOM     47  O   UNL d   1      13.527  12.709  -9.208 -0.07 +0.01    -0.481 OA
DOCKED: ATOM     48  H   UNL d   1      13.659  12.367 -10.117 +0.07 -0.00    +0.295 HD
DOCKED: ENDBRANCH  45  47
DOCKED: ENDBRANCH  44  45
DOCKED: ENDBRANCH   8  44
DOCKED: BRANCH  22  49
DOCKED: ATOM     49  C   UNL d   1       3.694  15.812 -11.701 -0.38 -0.01    +0.048 C 
DOCKED: BRANCH  49  50
DOCKED: ATOM     50  C   UNL d   1       3.332  16.483 -13.026 -0.20 -0.03    +0.125 C 
DOCKED: BRANCH  50  51
DOCKED: ATOM     51  C   UNL d   1       2.007  15.989 -13.533 -0.19 -0.17    +0.305 C 
DOCKED: ATOM     52  O   UNL d   1       1.022  15.697 -12.877 -0.32 +0.14    -0.251 OA
DOCKED: BRANCH  51  53
DOCKED: ATOM     53  O   UNL d   1       1.992  15.872 -14.876 -0.09 +0.46    -0.481 OA
DOCKED: ATOM     54  H   UNL d   1       1.363  15.141 -15.045 -0.48 -0.58    +0.295 HD
DOCKED: ENDBRANCH  51  53
DOCKED: ENDBRANCH  50  51
DOCKED: ENDBRANCH  49  50
DOCKED: ENDBRANCH  22  49
DOCKED: TORSDOF 13
DOCKED: TER
DOCKED: ENDMDL
________________________________________________________________________________


	BEGINNING GENETIC ALGORITHM DOCKING 21 of 100
Run: 21 Seed: 1145938882 67405681 [ Run 21 of 100 GA/GALS ]
Beginning LAMARCKIAN GENETIC ALGORITHM (LGA), with a maximum of 25000000 energy evaluations.

Final-Value: -11.226


	FINAL GENETIC ALGORITHM DOCKED STATE
	_______________________________________________


Detailed state:  trans 8.034 14.078 -12.988 quatxyzw 0.227759 0.450907 -0.862409 0.032541 center 0.153 0.018 -0.028 ntor 13 81.8514 -126.3582 -60.2575 -13.1532 -174.8637 -15.4767 128.2664 -170.9385 104.1786 111.2953 -59.4241 -49.6480 -11.2427
State:	  8.034  14.078 -12.988   0.228  0.451 -0.863 176.270     81.85 -126.36  -60.26  -13.15 -174.86  -15.48  128.27 -170.94  104.18  111.30  -59.42  -49.65  -11.24

DOCKED: MODEL       21
DOCKED: USER    Run = 21
DOCKED: USER    DPF = D:/Protein_go_brrr/autodock/final/mut_K82N/heme/dock.dpf
DOCKED: USER  
DOCKED: USER    Estimated Free Energy of Binding    =   -3.58 kcal/mol  [=(1)+(2)+(3)-(4)]
DOCKED: USER    Estimated Inhibition Constant, Ki   =    2.38 mM (millimolar)  [Temperature = 298.15 K]
DOCKED: USER    
DOCKED: USER    (1) Final Intermolecular Energy     =   -7.46 kcal/mol
DOCKED: USER        vdW + Hbond + desolv Energy     =   -7.39 kcal/mol
DOCKED: USER        Electrostatic Energy            =   -0.07 kcal/mol
DOCKED: USER    (2) Final Total Internal Energy     =   -3.77 kcal/mol
DOCKED: USER    (3) Torsional Free Energy           =   +3.88 kcal/mol
DOCKED: USER    (4) Unbound System's Energy  [=(2)] =   -3.77 kcal/mol
DOCKED: USER    
DOCKED: USER    
DOCKED: USER    NEWDPF move heme_opt.pdbqt
DOCKED: USER    NEWDPF about 0.153000 0.018000 -0.028000
DOCKED: USER    NEWDPF tran0 8.034024 14.077592 -12.988122
DOCKED: USER    NEWDPF quaternion0 0.227759 0.450907 -0.862409 0.032541
DOCKED: USER    NEWDPF axisangle0 0.227879 0.451146 -0.862866 176.270378
DOCKED: USER    NEWDPF quat0 0.227879 0.451146 -0.862866 176.270378
DOCKED: USER    NEWDPF dihe0 81.85 -126.36 -60.26 -13.15 -174.86 -15.48 128.27 -170.94 104.18 111.30 -59.42 -49.65 -11.24 
DOCKED: USER  keepresnum = 1 
DOCKED: USER  
DOCKED: REMARK  13 active torsions:
DOCKED: REMARK  status: ('A' for Active; 'I' for Inactive)
DOCKED: REMARK    1  A    between atoms: O_3  and  C_38 
DOCKED: REMARK    2  A    between atoms: O_4  and  C_40 
DOCKED: REMARK    3  A    between atoms: O_7  and  C_46 
DOCKED: REMARK    4  A    between atoms: O_9  and  C_48 
DOCKED: REMARK    5  A    between atoms: C_15  and  C_20 
DOCKED: REMARK    6  A    between atoms: C_16  and  C_23 
DOCKED: REMARK    7  A    between atoms: C_20  and  C_38 
DOCKED: REMARK    8  A    between atoms: C_23  and  C_40 
DOCKED: REMARK    9  A    between atoms: C_32  and  C_41 
DOCKED: REMARK   10  A    between atoms: C_37  and  C_45 
DOCKED: REMARK   11  A    between atoms: C_41  and  C_44 
DOCKED: REMARK   12  A    between atoms: C_44  and  C_46 
DOCKED: REMARK   13  A    between atoms: C_47  and  C_48 
DOCKED: USER                              x       y       z     vdW  Elec       q    Type
DOCKED: USER                           _______ _______ _______ _____ _____    ______ ____
DOCKED: ROOT
DOCKED: ATOM      1  O   UNL d   1      13.030  11.117 -11.970 -0.11 -0.00    -0.289 OA
DOCKED: ATOM      2  O   UNL d   1      10.353  17.453  -8.955 -0.09 +0.01    -0.289 OA
DOCKED: ATOM      3  N   UNL d   1      10.073  12.570 -12.993 -0.03 -0.04    -0.247 NA
DOCKED: ATOM      4  N   UNL d   1       9.705  14.800 -11.065 -0.19 -0.01    -0.247 NA
DOCKED: ATOM      5  N   UNL d   1       6.995  15.035 -11.996 -0.14 +0.01    -0.354 N 
DOCKED: ATOM      6  N   UNL d   1       7.380  12.707 -13.980 -0.15 -0.11    -0.354 N 
DOCKED: ATOM      7  C   UNL d   1      11.240  10.476 -13.507 -0.14 +0.01    +0.084 A 
DOCKED: ATOM      8  C   UNL d   1      11.715  15.724 -10.027 -0.13 -0.00    +0.084 A 
DOCKED: ATOM      9  C   UNL d   1      11.068  14.665 -10.926 -0.21 +0.00    +0.058 A 
DOCKED: ATOM     10  C   UNL d   1      10.032  11.392 -13.721 -0.14 +0.01    +0.058 A 
DOCKED: ATOM     11  C   UNL d   1      11.981  11.352 -12.542 -0.13 +0.01    +0.193 A 
DOCKED: ATOM     12  C   UNL d   1      11.184  12.602 -12.332 -0.15 +0.01    +0.109 A 
DOCKED: ATOM     13  C   UNL d   1      10.461  16.463  -9.652 -0.11 -0.00    +0.193 A 
DOCKED: ATOM     14  C   UNL d   1      10.856   9.175 -12.799 -0.26 +0.00    +0.026 C 
DOCKED: ATOM     15  C   UNL d   1      11.765  13.663 -11.484 -0.20 +0.00    +0.055 C 
DOCKED: ATOM     16  C   UNL d   1      12.623  16.666 -10.823 -0.05 -0.00    +0.026 C 
DOCKED: ATOM     17  C   UNL d   1       9.313  15.799 -10.341 -0.23 -0.00    +0.109 A 
DOCKED: ATOM     18  C   UNL d   1       9.073  11.093 -14.617 -0.21 +0.02    +0.050 C 
DOCKED: ATOM     19  C   UNL d   1       7.965  11.917 -14.943 -0.14 +0.02    +0.045 A 
DOCKED: ATOM     20  C   UNL d   1       6.943  15.868 -10.910 -0.26 -0.01    +0.045 A 
DOCKED: ATOM     21  C   UNL d   1       7.942  16.284 -10.124 -0.28 -0.00    +0.057 C 
DOCKED: ATOM     22  C   UNL d   1       4.833  15.618 -11.748 -0.37 +0.00    -0.019 A 
DOCKED: ATOM     23  C   UNL d   1       5.769  14.824 -12.569 -0.33 -0.00    +0.045 A 
DOCKED: ATOM     24  C   UNL d   1       5.535  16.235 -10.768 -0.33 +0.00    -0.022 A 
DOCKED: ATOM     25  C   UNL d   1       6.275  13.349 -14.488 -0.24 +0.01    +0.049 A 
DOCKED: ATOM     26  C   UNL d   1       7.245  12.078 -16.117 -0.12 -0.01    -0.018 A 
DOCKED: ATOM     27  C   UNL d   1       6.190  12.998 -15.829 -0.16 +0.00    +0.003 A 
DOCKED: ATOM     28  C   UNL d   1       5.414  14.099 -13.641 -0.26 +0.00    +0.052 C 
DOCKED: ATOM     29  C   UNL d   1       5.039  17.151  -9.701 -0.13 -0.02    +0.046 C 
DOCKED: ATOM     30  C   UNL d   1       7.518  11.420 -17.427 -0.09 +0.02    +0.046 C 
DOCKED: ATOM     31  H   UNL d   1       7.880  14.695 -12.357 +0.06 +0.01    +0.166 HD
DOCKED: ATOM     32  H   UNL d   1       7.709  12.761 -13.024 +0.06 +0.05    +0.166 HD
DOCKED: ENDROOT
DOCKED: BRANCH   7  33
DOCKED: ATOM     33  C   UNL d   1      12.091  10.208 -14.753 -0.04 +0.01    +0.141 C 
DOCKED: BRANCH  33  34
DOCKED: ATOM     34  C   UNL d   1      13.530   9.919 -14.420 -0.01 -0.01    +0.306 C 
DOCKED: ATOM     35  O   UNL d   1      14.499  10.552 -14.805 -0.00 +0.01    -0.251 OA
DOCKED: BRANCH  34  36
DOCKED: ATOM     36  O   UNL d   1      13.672   8.850 -13.618 +0.01 +0.02    -0.481 OA
DOCKED: ATOM     37  H   UNL d   1      13.811   9.229 -12.724 +0.04 -0.01    +0.295 HD
DOCKED: ENDBRANCH  34  36
DOCKED: ENDBRANCH  33  34
DOCKED: ENDBRANCH   7  33
DOCKED: BRANCH  27  38
DOCKED: ATOM     38  C   UNL d   1       5.196  13.434 -16.763 -0.13 +0.00    +0.017 C 
DOCKED: ATOM     39  C   UNL d   1       4.072  14.095 -16.447 -0.13 -0.01    +0.092 C 
DOCKED: BRANCH  39  40
DOCKED: ATOM     40  C   UNL d   1       3.142  14.500 -17.503 -0.05 -0.13    +0.330 C 
DOCKED: ATOM     41  O   UNL d   1       3.362  14.582 -18.697 -0.02 +0.07    -0.246 OA
DOCKED: BRANCH  40  42
DOCKED: ATOM     42  O   UNL d   1       1.940  14.781 -16.977 -0.04 +0.50    -0.477 OA
DOCKED: ATOM     43  H   UNL d   1       2.137  15.436 -16.276 -0.12 -0.31    +0.295 HD
DOCKED: ENDBRANCH  40  42
DOCKED: ENDBRANCH  39  40
DOCKED: ENDBRANCH  27  38
DOCKED: BRANCH   8  44
DOCKED: ATOM     44  C   UNL d   1      12.428  15.187  -8.782 -0.15 -0.00    +0.141 C 
DOCKED: BRANCH  44  45
DOCKED: ATOM     45  C   UNL d   1      13.579  14.271  -9.104 -0.09 -0.01    +0.306 C 
DOCKED: ATOM     46  O   UNL d   1      14.720  14.605  -9.374 -0.03 +0.01    -0.251 OA
DOCKED: BRANCH  45  47
DOCKED: ATOM     47  O   UNL d   1      13.222  12.974  -9.097 -0.08 +0.00    -0.481 OA
DOCKED: ATOM     48  H   UNL d   1      13.397  12.664 -10.011 +0.08 -0.00    +0.295 HD
DOCKED: ENDBRANCH  45  47
DOCKED: ENDBRANCH  44  45
DOCKED: ENDBRANCH   8  44
DOCKED: BRANCH  22  49
DOCKED: ATOM     49  C   UNL d   1       3.354  15.688 -11.987 -0.35 -0.01    +0.048 C 
DOCKED: BRANCH  49  50
DOCKED: ATOM     50  C   UNL d   1       2.971  16.895 -12.842 -0.19 -0.04    +0.125 C 
DOCKED: BRANCH  50  51
DOCKED: ATOM     51  C   UNL d   1       2.262  16.463 -14.094 -0.14 -0.17    +0.305 C 
DOCKED: ATOM     52  O   UNL d   1       1.869  17.168 -15.007 -0.11 +0.18    -0.251 OA
DOCKED: BRANCH  51  53
DOCKED: ATOM     53  O   UNL d   1       2.068  15.130 -14.129 -0.11 +0.33    -0.481 OA
DOCKED: ATOM     54  H   UNL d   1       1.420  15.002 -14.853 -0.47 -0.49    +0.295 HD
DOCKED: ENDBRANCH  51  53
DOCKED: ENDBRANCH  50  51
DOCKED: ENDBRANCH  49  50
DOCKED: ENDBRANCH  22  49
DOCKED: TORSDOF 13
DOCKED: TER
DOCKED: ENDMDL
________________________________________________________________________________


	BEGINNING GENETIC ALGORITHM DOCKING 22 of 100
Run: 22 Seed: 1314059174 1477156422 [ Run 22 of 100 GA/GALS ]
Beginning LAMARCKIAN GENETIC ALGORITHM (LGA), with a maximum of 25000000 energy evaluations.

Final-Value: -11.512


	FINAL GENETIC ALGORITHM DOCKED STATE
	_______________________________________________


Detailed state:  trans 7.240 -8.018 18.945 quatxyzw -0.234698 -0.076344 0.493511 0.833988 center 0.153 0.018 -0.028 ntor 13 -123.4288 -172.6595 167.9848 -24.5359 45.2811 89.8592 -24.0267 -150.8789 140.0116 24.4906 -82.3948 -105.5819 -5.0771
State:	  7.240  -8.018  18.945  -0.425 -0.138  0.894 66.979   -123.43 -172.66  167.98  -24.54   45.28   89.86  -24.03 -150.88  140.01   24.49  -82.39 -105.58   -5.08

DOCKED: MODEL       22
DOCKED: USER    Run = 22
DOCKED: USER    DPF = D:/Protein_go_brrr/autodock/final/mut_K82N/heme/dock.dpf
DOCKED: USER  
DOCKED: USER    Estimated Free Energy of Binding    =   -3.71 kcal/mol  [=(1)+(2)+(3)-(4)]
DOCKED: USER    Estimated Inhibition Constant, Ki   =    1.92 mM (millimolar)  [Temperature = 298.15 K]
DOCKED: USER    
DOCKED: USER    (1) Final Intermolecular Energy     =   -7.59 kcal/mol
DOCKED: USER        vdW + Hbond + desolv Energy     =   -7.31 kcal/mol
DOCKED: USER        Electrostatic Energy            =   -0.27 kcal/mol
DOCKED: USER    (2) Final Total Internal Energy     =   -3.93 kcal/mol
DOCKED: USER    (3) Torsional Free Energy           =   +3.88 kcal/mol
DOCKED: USER    (4) Unbound System's Energy  [=(2)] =   -3.93 kcal/mol
DOCKED: USER    
DOCKED: USER    
DOCKED: USER    NEWDPF move heme_opt.pdbqt
DOCKED: USER    NEWDPF about 0.153000 0.018000 -0.028000
DOCKED: USER    NEWDPF tran0 7.240331 -8.017715 18.944958
DOCKED: USER    NEWDPF quaternion0 -0.234698 -0.076344 0.493511 0.833988
DOCKED: USER    NEWDPF axisangle0 -0.425344 -0.138358 0.894393 66.978826
DOCKED: USER    NEWDPF quat0 -0.425344 -0.138358 0.894393 66.978826
DOCKED: USER    NEWDPF dihe0 -123.43 -172.66 167.98 -24.54 45.28 89.86 -24.03 -150.88 140.01 24.49 -82.39 -105.58 -5.08 
DOCKED: USER  keepresnum = 1 
DOCKED: USER  
DOCKED: REMARK  13 active torsions:
DOCKED: REMARK  status: ('A' for Active; 'I' for Inactive)
DOCKED: REMARK    1  A    between atoms: O_3  and  C_38 
DOCKED: REMARK    2  A    between atoms: O_4  and  C_40 
DOCKED: REMARK    3  A    between atoms: O_7  and  C_46 
DOCKED: REMARK    4  A    between atoms: O_9  and  C_48 
DOCKED: REMARK    5  A    between atoms: C_15  and  C_20 
DOCKED: REMARK    6  A    between atoms: C_16  and  C_23 
DOCKED: REMARK    7  A    between atoms: C_20  and  C_38 
DOCKED: REMARK    8  A    between atoms: C_23  and  C_40 
DOCKED: REMARK    9  A    between atoms: C_32  and  C_41 
DOCKED: REMARK   10  A    between atoms: C_37  and  C_45 
DOCKED: REMARK   11  A    between atoms: C_41  and  C_44 
DOCKED: REMARK   12  A    between atoms: C_44  and  C_46 
DOCKED: REMARK   13  A    between atoms: C_47  and  C_48 
DOCKED: USER                              x       y       z     vdW  Elec       q    Type
DOCKED: USER                           _______ _______ _______ _____ _____    ______ ____
DOCKED: ROOT
DOCKED: ATOM      1  O   UNL d   1       5.811  -3.222  22.062 -0.18 +0.03    -0.289 OA
DOCKED: ATOM      2  O   UNL d   1       1.911  -7.140  16.980 -0.33 +0.01    -0.289 OA
DOCKED: ATOM      3  N   UNL d   1       7.130  -5.924  20.372 -0.12 +0.01    -0.247 NA
DOCKED: ATOM      4  N   UNL d   1       4.807  -6.978  18.850 -0.08 +0.02    -0.247 NA
DOCKED: ATOM      5  N   UNL d   1       6.336  -9.360  18.345 -0.04 +0.01    -0.354 N 
DOCKED: ATOM      6  N   UNL d   1       8.735  -8.266  19.942 -0.05 -0.02    -0.354 N 
DOCKED: ATOM      7  C   UNL d   1       7.900  -4.484  22.200 -0.15 -0.00    +0.084 A 
DOCKED: ATOM      8  C   UNL d   1       3.029  -5.399  18.288 -0.33 -0.00    +0.084 A 
DOCKED: ATOM      9  C   UNL d   1       4.343  -5.693  19.018 -0.24 -0.01    +0.058 A 
DOCKED: ATOM     10  C   UNL d   1       8.157  -5.670  21.265 -0.13 -0.00    +0.058 A 
DOCKED: ATOM     11  C   UNL d   1       6.554  -4.101  21.664 -0.18 -0.02    +0.193 A 
DOCKED: ATOM     12  C   UNL d   1       6.209  -5.032  20.543 -0.22 -0.01    +0.109 A 
DOCKED: ATOM     13  C   UNL d   1       2.812  -6.767  17.705 -0.24 -0.00    +0.193 A 
DOCKED: ATOM     14  C   UNL d   1       7.746  -4.924  23.658 -0.06 -0.00    +0.026 C 
DOCKED: ATOM     15  C   UNL d   1       4.959  -4.788  19.795 -0.27 -0.01    +0.055 C 
DOCKED: ATOM     16  C   UNL d   1       3.225  -4.401  17.143 -0.46 -0.00    +0.026 C 
DOCKED: ATOM     17  C   UNL d   1       3.956  -7.632  18.126 -0.17 -0.00    +0.109 A 
DOCKED: ATOM     18  C   UNL d   1       9.330  -6.331  21.275 -0.09 +0.00    +0.050 C 
DOCKED: ATOM     19  C   UNL d   1       9.689  -7.382  20.393 -0.08 +0.00    +0.045 A 
DOCKED: ATOM     20  C   UNL d   1       5.109  -9.767  17.889 -0.15 -0.00    +0.045 A 
DOCKED: ATOM     21  C   UNL d   1       3.992  -9.049  17.735 -0.21 -0.00    +0.057 C 
DOCKED: ATOM     22  C   UNL d   1       6.532 -11.554  17.873 -0.12 +0.00    -0.019 A 
DOCKED: ATOM     23  C   UNL d   1       7.261 -10.370  18.371 -0.10 -0.00    +0.045 A 
DOCKED: ATOM     24  C   UNL d   1       5.260 -11.190  17.588 -0.19 +0.00    -0.022 A 
DOCKED: ATOM     25  C   UNL d   1       9.314  -9.252  19.177 -0.14 +0.00    +0.049 A 
DOCKED: ATOM     26  C   UNL d   1      10.912  -7.782  19.879 -0.16 -0.00    -0.018 A 
DOCKED: ATOM     27  C   UNL d   1      10.666  -8.952  19.095 -0.20 +0.00    +0.003 A 
DOCKED: ATOM     28  C   UNL d   1       8.554 -10.367  18.729 -0.11 +0.00    +0.052 C 
DOCKED: ATOM     29  C   UNL d   1       4.149 -12.026  17.049 -0.30 -0.01    +0.046 C 
DOCKED: ATOM     30  C   UNL d   1      12.230  -7.119  20.097 -0.16 +0.00    +0.046 C 
DOCKED: ATOM     31  H   UNL d   1       6.523  -8.385  18.554 +0.06 -0.00    +0.166 HD
DOCKED: ATOM     32  H   UNL d   1       7.754  -8.205  20.186 +0.04 +0.00    +0.166 HD
DOCKED: ENDROOT
DOCKED: BRANCH   7  33
DOCKED: ATOM     33  C   UNL d   1       8.884  -3.317  22.066 -0.16 -0.01    +0.141 C 
DOCKED: BRANCH  33  34
DOCKED: ATOM     34  C   UNL d   1       8.690  -2.271  23.131 -0.15 +0.02    +0.306 C 
DOCKED: ATOM     35  O   UNL d   1       9.349  -2.149  24.150 -0.10 -0.04    -0.251 OA
DOCKED: BRANCH  34  36
DOCKED: ATOM     36  O   UNL d   1       7.677  -1.431  22.854 -0.15 -0.03    -0.481 OA
DOCKED: ATOM     37  H   UNL d   1       6.906  -2.017  22.697 +0.09 -0.01    +0.295 HD
DOCKED: ENDBRANCH  34  36
DOCKED: ENDBRANCH  33  34
DOCKED: ENDBRANCH   7  33
DOCKED: BRANCH  27  38
DOCKED: ATOM     38  C   UNL d   1      11.665  -9.701  18.395 -0.12 +0.00    +0.017 C 
DOCKED: ATOM     39  C   UNL d   1      12.071 -10.939  18.714 -0.10 +0.00    +0.092 C 
DOCKED: BRANCH  39  40
DOCKED: ATOM     40  C   UNL d   1      13.093 -11.605  17.902 -0.05 +0.01    +0.330 C 
DOCKED: ATOM     41  O   UNL d   1      14.301 -11.543  18.030 -0.05 -0.00    -0.246 OA
DOCKED: BRANCH  40  42
DOCKED: ATOM     42  O   UNL d   1      12.513 -12.346  16.946 -0.04 -0.00    -0.477 OA
DOCKED: ATOM     43  H   UNL d   1      11.563 -12.116  17.014 +0.05 +0.00    +0.295 HD
DOCKED: ENDBRANCH  40  42
DOCKED: ENDBRANCH  39  40
DOCKED: ENDBRANCH  27  38
DOCKED: BRANCH   8  44
DOCKED: ATOM     44  C   UNL d   1       1.853  -4.992  19.183 -0.29 +0.04    +0.141 C 
DOCKED: BRANCH  44  45
DOCKED: ATOM     45  C   UNL d   1       1.973  -5.505  20.593 -0.11 +0.08    +0.306 C 
DOCKED: ATOM     46  O   UNL d   1       1.905  -6.668  20.951 -0.05 -0.04    -0.251 OA
DOCKED: BRANCH  45  47
DOCKED: ATOM     47  O   UNL d   1       2.148  -4.516  21.487 -0.11 -0.09    -0.481 OA
DOCKED: ATOM     48  H   UNL d   1       2.359  -3.726  20.946 -0.36 -0.18    +0.295 HD
DOCKED: ENDBRANCH  45  47
DOCKED: ENDBRANCH  44  45
DOCKED: ENDBRANCH   8  44
DOCKED: BRANCH  22  49
DOCKED: ATOM     49  C   UNL d   1       7.138 -12.920  17.737 -0.14 -0.00    +0.048 C 
DOCKED: BRANCH  49  50
DOCKED: ATOM     50  C   UNL d   1       7.800 -13.115  16.373 -0.18 -0.01    +0.125 C 
DOCKED: BRANCH  50  51
DOCKED: ATOM     51  C   UNL d   1       9.284 -12.895  16.461 -0.07 -0.02    +0.305 C 
DOCKED: ATOM     52  O   UNL d   1      10.045 -12.594  15.558 -0.11 +0.01    -0.251 OA
DOCKED: BRANCH  51  53
DOCKED: ATOM     53  O   UNL d   1       9.748 -13.084  17.712 +0.00 +0.03    -0.481 OA
DOCKED: ATOM     54  H   UNL d   1      10.691 -13.321  17.583 +0.04 -0.01    +0.295 HD
DOCKED: ENDBRANCH  51  53
DOCKED: ENDBRANCH  50  51
DOCKED: ENDBRANCH  49  50
DOCKED: ENDBRANCH  22  49
DOCKED: TORSDOF 13
DOCKED: TER
DOCKED: ENDMDL
________________________________________________________________________________


	BEGINNING GENETIC ALGORITHM DOCKING 23 of 100
Run: 23 Seed: 1067233477 58050195 [ Run 23 of 100 GA/GALS ]
Beginning LAMARCKIAN GENETIC ALGORITHM (LGA), with a maximum of 25000000 energy evaluations.

Final-Value: -11.042


	FINAL GENETIC ALGORITHM DOCKED STATE
	_______________________________________________


Detailed state:  trans 12.836 9.117 -11.242 quatxyzw 0.122994 -0.251525 -0.552182 -0.785304 center 0.153 0.018 -0.028 ntor 13 163.8174 -176.9990 -123.7192 -7.1556 -144.5925 47.3006 129.6789 -31.4984 17.7205 -61.0806 -56.4948 -101.8029 28.5371
State:	 12.836   9.117 -11.242   0.199 -0.406 -0.892 -76.502    163.82 -177.00 -123.72   -7.16 -144.59   47.30  129.68  -31.50   17.72  -61.08  -56.49 -101.80   28.54

DOCKED: MODEL       23
DOCKED: USER    Run = 23
DOCKED: USER    DPF = D:/Protein_go_brrr/autodock/final/mut_K82N/heme/dock.dpf
DOCKED: USER  
DOCKED: USER    Estimated Free Energy of Binding    =   -2.62 kcal/mol  [=(1)+(2)+(3)-(4)]
DOCKED: USER    Estimated Inhibition Constant, Ki   =   11.96 mM (millimolar)  [Temperature = 298.15 K]
DOCKED: USER    
DOCKED: USER    (1) Final Intermolecular Energy     =   -6.50 kcal/mol
DOCKED: USER        vdW + Hbond + desolv Energy     =   -6.28 kcal/mol
DOCKED: USER        Electrostatic Energy            =   -0.22 kcal/mol
DOCKED: USER    (2) Final Total Internal Energy     =   -4.54 kcal/mol
DOCKED: USER    (3) Torsional Free Energy           =   +3.88 kcal/mol
DOCKED: USER    (4) Unbound System's Energy  [=(2)] =   -4.54 kcal/mol
DOCKED: USER    
DOCKED: USER    
DOCKED: USER    NEWDPF move heme_opt.pdbqt
DOCKED: USER    NEWDPF about 0.153000 0.018000 -0.028000
DOCKED: USER    NEWDPF tran0 12.835525 9.116777 -11.242243
DOCKED: USER    NEWDPF quaternion0 0.122994 -0.251525 -0.552182 -0.785304
DOCKED: USER    NEWDPF axisangle0 0.198662 -0.406268 -0.891896 -76.502333
DOCKED: USER    NEWDPF quat0 0.198662 -0.406268 -0.891896 -76.502333
DOCKED: USER    NEWDPF dihe0 163.82 -177.00 -123.72 -7.16 -144.59 47.30 129.68 -31.50 17.72 -61.08 -56.49 -101.80 28.54 
DOCKED: USER  keepresnum = 1 
DOCKED: USER  
DOCKED: REMARK  13 active torsions:
DOCKED: REMARK  status: ('A' for Active; 'I' for Inactive)
DOCKED: REMARK    1  A    between atoms: O_3  and  C_38 
DOCKED: REMARK    2  A    between atoms: O_4  and  C_40 
DOCKED: REMARK    3  A    between atoms: O_7  and  C_46 
DOCKED: REMARK    4  A    between atoms: O_9  and  C_48 
DOCKED: REMARK    5  A    between atoms: C_15  and  C_20 
DOCKED: REMARK    6  A    between atoms: C_16  and  C_23 
DOCKED: REMARK    7  A    between atoms: C_20  and  C_38 
DOCKED: REMARK    8  A    between atoms: C_23  and  C_40 
DOCKED: REMARK    9  A    between atoms: C_32  and  C_41 
DOCKED: REMARK   10  A    between atoms: C_37  and  C_45 
DOCKED: REMARK   11  A    between atoms: C_41  and  C_44 
DOCKED: REMARK   12  A    between atoms: C_44  and  C_46 
DOCKED: REMARK   13  A    between atoms: C_47  and  C_48 
DOCKED: USER                              x       y       z     vdW  Elec       q    Type
DOCKED: USER                           _______ _______ _______ _____ _____    ______ ____
DOCKED: ROOT
DOCKED: ATOM      1  O   UNL d   1      12.372  14.993 -11.355 -0.04 +0.00    -0.289 OA
DOCKED: ATOM      2  O   UNL d   1       9.070   9.708 -15.545 -0.04 -0.21    -0.289 OA
DOCKED: ATOM      3  N   UNL d   1      13.065  11.632 -11.010 -0.14 -0.00    -0.247 NA
DOCKED: ATOM      4  N   UNL d   1      11.104  10.340 -12.829 -0.15 -0.03    -0.247 NA
DOCKED: ATOM      5  N   UNL d   1      11.735   7.830 -11.576 -0.15 +0.03    -0.354 N 
DOCKED: ATOM      6  N   UNL d   1      13.754   9.182  -9.679 -0.05 +0.02    -0.354 N 
DOCKED: ATOM      7  C   UNL d   1      13.707  13.663  -9.798 -0.12 -0.00    +0.084 A 
DOCKED: ATOM      8  C   UNL d   1      10.288  11.662 -14.715 -0.09 +0.01    +0.084 A 
DOCKED: ATOM      9  C   UNL d   1      11.113  11.580 -13.426 -0.14 +0.01    +0.058 A 
DOCKED: ATOM     10  C   UNL d   1      13.787  12.141  -9.943 -0.14 -0.00    +0.058 A 
DOCKED: ATOM     11  C   UNL d   1      12.827  13.927 -10.982 -0.09 -0.00    +0.193 A 
DOCKED: ATOM     12  C   UNL d   1      12.528  12.620 -11.648 -0.15 +0.00    +0.109 A 
DOCKED: ATOM     13  C   UNL d   1       9.777  10.249 -14.717 -0.11 +0.07    +0.193 A 
DOCKED: ATOM     14  C   UNL d   1      12.965  14.081  -8.526 -0.24 -0.00    +0.026 C 
DOCKED: ATOM     15  C   UNL d   1      11.747  12.640 -12.901 -0.14 +0.00    +0.055 C 
DOCKED: ATOM     16  C   UNL d   1      11.175  11.868 -15.946 -0.03 +0.00    +0.026 C 
DOCKED: ATOM     17  C   UNL d   1      10.339   9.555 -13.519 -0.19 +0.02    +0.109 A 
DOCKED: ATOM     18  C   UNL d   1      14.574  11.398  -9.142 -0.14 -0.00    +0.050 C 
DOCKED: ATOM     19  C   UNL d   1      14.777   9.999  -9.255 -0.13 -0.00    +0.045 A 
DOCKED: ATOM     20  C   UNL d   1      10.647   7.454 -12.321 -0.22 -0.00    +0.045 A 
DOCKED: ATOM     21  C   UNL d   1       9.974   8.160 -13.235 -0.28 +0.01    +0.057 C 
DOCKED: ATOM     22  C   UNL d   1      11.252   5.715 -10.969 -0.26 +0.01    -0.019 A 
DOCKED: ATOM     23  C   UNL d   1      12.172   6.846 -10.730 -0.22 -0.01    +0.045 A 
DOCKED: ATOM     24  C   UNL d   1      10.353   6.081 -11.913 -0.26 +0.01    -0.022 A 
DOCKED: ATOM     25  C   UNL d   1      14.137   7.862  -9.628 -0.17 -0.00    +0.049 A 
DOCKED: ATOM     26  C   UNL d   1      15.864   9.194  -8.955 -0.09 +0.00    -0.018 A 
DOCKED: ATOM     27  C   UNL d   1      15.461   7.847  -9.211 -0.10 -0.00    +0.003 A 
DOCKED: ATOM     28  C   UNL d   1      13.200   6.820  -9.869 -0.21 -0.01    +0.052 C 
DOCKED: ATOM     29  C   UNL d   1       9.236   5.284 -12.496 -0.31 -0.03    +0.046 C 
DOCKED: ATOM     30  C   UNL d   1      17.198   9.645  -8.463 -0.04 -0.00    +0.046 C 
DOCKED: ATOM     31  H   UNL d   1      12.190   8.724 -11.724 +0.04 -0.01    +0.166 HD
DOCKED: ATOM     32  H   UNL d   1      12.838   9.523  -9.948 +0.04 -0.00    +0.166 HD
DOCKED: ENDROOT
DOCKED: BRANCH   7  33
DOCKED: ATOM     33  C   UNL d   1      15.039  14.408  -9.941 -0.03 -0.01    +0.141 C 
DOCKED: BRANCH  33  34
DOCKED: ATOM     34  C   UNL d   1      15.620  14.295 -11.325 -0.01 -0.01    +0.306 C 
DOCKED: ATOM     35  O   UNL d   1      16.387  13.431 -11.716 -0.00 +0.01    -0.251 OA
DOCKED: BRANCH  34  36
DOCKED: ATOM     36  O   UNL d   1      15.201  15.275 -12.144 +0.00 +0.02    -0.481 OA
DOCKED: ATOM     37  H   UNL d   1      14.394  15.630 -11.713 +0.01 -0.01    +0.295 HD
DOCKED: ENDBRANCH  34  36
DOCKED: ENDBRANCH  33  34
DOCKED: ENDBRANCH   7  33
DOCKED: BRANCH  27  38
DOCKED: ATOM     38  C   UNL d   1      16.281   6.689  -9.018 -0.04 -0.00    +0.017 C 
DOCKED: ATOM     39  C   UNL d   1      16.049   5.716  -8.124 -0.04 -0.01    +0.092 C 
DOCKED: BRANCH  39  40
DOCKED: ATOM     40  C   UNL d   1      16.959   4.571  -8.037 +0.01 -0.03    +0.330 C 
DOCKED: ATOM     41  O   UNL d   1      18.175   4.587  -8.029 +0.00 +0.02    -0.246 OA
DOCKED: BRANCH  40  42
DOCKED: ATOM     42  O   UNL d   1      16.259   3.429  -7.955 +0.01 +0.05    -0.477 OA
DOCKED: ATOM     43  H   UNL d   1      15.326   3.720  -8.027 +0.05 -0.04    +0.295 HD
DOCKED: ENDBRANCH  40  42
DOCKED: ENDBRANCH  39  40
DOCKED: ENDBRANCH  27  38
DOCKED: BRANCH   8  44
DOCKED: ATOM     44  C   UNL d   1       9.129  12.664 -14.693 -0.12 +0.03    +0.141 C 
DOCKED: BRANCH  44  45
DOCKED: ATOM     45  C   UNL d   1       7.774  12.006 -14.698 -0.15 +0.15    +0.306 C 
DOCKED: ATOM     46  O   UNL d   1       7.158  11.605 -13.726 -0.49 -0.15    -0.251 OA
DOCKED: BRANCH  45  47
DOCKED: ATOM     47  O   UNL d   1       7.276  11.863 -15.939 -0.49 -0.28    -0.481 OA
DOCKED: ATOM     48  H   UNL d   1       7.966  11.366 -16.428 +0.05 +0.15    +0.295 HD
DOCKED: ENDBRANCH  45  47
DOCKED: ENDBRANCH  44  45
DOCKED: ENDBRANCH   8  44
DOCKED: BRANCH  22  49
DOCKED: ATOM     49  C   UNL d   1      11.328   4.400 -10.250 -0.28 -0.02    +0.048 C 
DOCKED: BRANCH  49  50
DOCKED: ATOM     50  C   UNL d   1      12.713   3.764 -10.373 -0.14 -0.05    +0.125 C 
DOCKED: BRANCH  50  51
DOCKED: ATOM     51  C   UNL d   1      13.292   3.473  -9.018 -0.10 -0.13    +0.305 C 
DOCKED: ATOM     52  O   UNL d   1      13.198   4.149  -8.008 -0.17 +0.08    -0.251 OA
DOCKED: BRANCH  51  53
DOCKED: ATOM     53  O   UNL d   1      13.989   2.319  -9.005 -0.06 +0.24    -0.481 OA
DOCKED: ATOM     54  H   UNL d   1      14.411   2.306  -8.120 +0.05 -0.11    +0.295 HD
DOCKED: ENDBRANCH  51  53
DOCKED: ENDBRANCH  50  51
DOCKED: ENDBRANCH  49  50
DOCKED: ENDBRANCH  22  49
DOCKED: TORSDOF 13
DOCKED: TER
DOCKED: ENDMDL
________________________________________________________________________________


	BEGINNING GENETIC ALGORITHM DOCKING 24 of 100
Run: 24 Seed: 963279896 547353212 [ Run 24 of 100 GA/GALS ]
Beginning LAMARCKIAN GENETIC ALGORITHM (LGA), with a maximum of 25000000 energy evaluations.

Final-Value: -10.294


	FINAL GENETIC ALGORITHM DOCKED STATE
	_______________________________________________


Detailed state:  trans 13.359 9.140 -9.619 quatxyzw -0.502758 0.763980 -0.299017 -0.272318 center 0.153 0.018 -0.028 ntor 13 -104.0668 59.7946 -112.4888 155.9680 38.5434 -79.7749 120.4992 87.0319 133.3876 -30.8883 135.2137 -9.1539 10.0433
State:	 13.359   9.140  -9.619  -0.523  0.794 -0.311 -148.395   -104.07   59.79 -112.49  155.97   38.54  -79.77  120.50   87.03  133.39  -30.89  135.21   -9.15   10.04

DOCKED: MODEL       24
DOCKED: USER    Run = 24
DOCKED: USER    DPF = D:/Protein_go_brrr/autodock/final/mut_K82N/heme/dock.dpf
DOCKED: USER  
DOCKED: USER    Estimated Free Energy of Binding    =   -3.66 kcal/mol  [=(1)+(2)+(3)-(4)]
DOCKED: USER    Estimated Inhibition Constant, Ki   =    2.07 mM (millimolar)  [Temperature = 298.15 K]
DOCKED: USER    
DOCKED: USER    (1) Final Intermolecular Energy     =   -7.54 kcal/mol
DOCKED: USER        vdW + Hbond + desolv Energy     =   -6.84 kcal/mol
DOCKED: USER        Electrostatic Energy            =   -0.70 kcal/mol
DOCKED: USER    (2) Final Total Internal Energy     =   -2.75 kcal/mol
DOCKED: USER    (3) Torsional Free Energy           =   +3.88 kcal/mol
DOCKED: USER    (4) Unbound System's Energy  [=(2)] =   -2.75 kcal/mol
DOCKED: USER    
DOCKED: USER    
DOCKED: USER    NEWDPF move heme_opt.pdbqt
DOCKED: USER    NEWDPF about 0.153000 0.018000 -0.028000
DOCKED: USER    NEWDPF tran0 13.358747 9.139779 -9.618565
DOCKED: USER    NEWDPF quaternion0 -0.502758 0.763980 -0.299017 -0.272318
DOCKED: USER    NEWDPF axisangle0 -0.522505 0.793987 -0.310761 -148.395475
DOCKED: USER    NEWDPF quat0 -0.522505 0.793987 -0.310761 -148.395475
DOCKED: USER    NEWDPF dihe0 -104.07 59.79 -112.49 155.97 38.54 -79.77 120.50 87.03 133.39 -30.89 135.21 -9.15 10.04 
DOCKED: USER  keepresnum = 1 
DOCKED: USER  
DOCKED: REMARK  13 active torsions:
DOCKED: REMARK  status: ('A' for Active; 'I' for Inactive)
DOCKED: REMARK    1  A    between atoms: O_3  and  C_38 
DOCKED: REMARK    2  A    between atoms: O_4  and  C_40 
DOCKED: REMARK    3  A    between atoms: O_7  and  C_46 
DOCKED: REMARK    4  A    between atoms: O_9  and  C_48 
DOCKED: REMARK    5  A    between atoms: C_15  and  C_20 
DOCKED: REMARK    6  A    between atoms: C_16  and  C_23 
DOCKED: REMARK    7  A    between atoms: C_20  and  C_38 
DOCKED: REMARK    8  A    between atoms: C_23  and  C_40 
DOCKED: REMARK    9  A    between atoms: C_32  and  C_41 
DOCKED: REMARK   10  A    between atoms: C_37  and  C_45 
DOCKED: REMARK   11  A    between atoms: C_41  and  C_44 
DOCKED: REMARK   12  A    between atoms: C_44  and  C_46 
DOCKED: REMARK   13  A    between atoms: C_47  and  C_48 
DOCKED: USER                              x       y       z     vdW  Elec       q    Type
DOCKED: USER                           _______ _______ _______ _____ _____    ______ ____
DOCKED: ROOT
DOCKED: ATOM      1  O   UNL d   1      14.743  14.778 -10.641 -0.01 +0.01    -0.289 OA
DOCKED: ATOM      2  O   UNL d   1      16.080  10.373  -4.708 -0.04 +0.02    -0.289 OA
DOCKED: ATOM      3  N   UNL d   1      13.605  11.529 -10.433 -0.12 +0.00    -0.247 NA
DOCKED: ATOM      4  N   UNL d   1      14.857  10.526  -7.932 -0.08 +0.01    -0.247 NA
DOCKED: ATOM      5  N   UNL d   1      14.127   7.866  -8.742 -0.03 +0.02    -0.354 N 
DOCKED: ATOM      6  N   UNL d   1      12.847   8.913 -11.344 -0.15 +0.02    -0.354 N 
DOCKED: ATOM      7  C   UNL d   1      13.601  13.254 -12.174 -0.05 -0.00    +0.084 A 
DOCKED: ATOM      8  C   UNL d   1      15.424  12.180  -6.224 -0.09 -0.01    +0.084 A 
DOCKED: ATOM      9  C   UNL d   1      14.914  11.870  -7.636 -0.13 -0.00    +0.058 A 
DOCKED: ATOM     10  C   UNL d   1      13.241  11.832 -11.734 -0.14 -0.00    +0.058 A 
DOCKED: ATOM     11  C   UNL d   1      14.217  13.708 -10.884 -0.04 -0.01    +0.193 A 
DOCKED: ATOM     12  C   UNL d   1      14.136  12.582  -9.901 -0.12 -0.00    +0.109 A 
DOCKED: ATOM     13  C   UNL d   1      15.681  10.765  -5.788 -0.08 -0.01    +0.193 A 
DOCKED: ATOM     14  C   UNL d   1      14.674  13.264 -13.265 -0.02 -0.00    +0.026 C 
DOCKED: ATOM     15  C   UNL d   1      14.601  12.828  -8.521 -0.14 -0.00    +0.055 C 
DOCKED: ATOM     16  C   UNL d   1      14.324  12.776  -5.341 -0.21 -0.00    +0.026 C 
DOCKED: ATOM     17  C   UNL d   1      15.303   9.860  -6.915 -0.12 -0.01    +0.109 A 
DOCKED: ATOM     18  C   UNL d   1      12.548  11.003 -12.536 -0.17 +0.00    +0.050 C 
DOCKED: ATOM     19  C   UNL d   1      12.098   9.704 -12.185 -0.22 +0.00    +0.045 A 
DOCKED: ATOM     20  C   UNL d   1      14.938   7.573  -7.677 -0.14 -0.00    +0.045 A 
DOCKED: ATOM     21  C   UNL d   1      15.489   8.407  -6.790 -0.15 -0.00    +0.057 C 
DOCKED: ATOM     22  C   UNL d   1      14.381   5.628  -8.738 -0.12 +0.00    -0.019 A 
DOCKED: ATOM     23  C   UNL d   1      13.740   6.755  -9.444 -0.17 -0.01    +0.045 A 
DOCKED: ATOM     24  C   UNL d   1      15.088   6.119  -7.692 -0.11 +0.00    -0.022 A 
DOCKED: ATOM     25  C   UNL d   1      12.274   7.670 -11.212 -0.24 -0.01    +0.049 A 
DOCKED: ATOM     26  C   UNL d   1      10.991   8.970 -12.581 -0.22 -0.00    -0.018 A 
DOCKED: ATOM     27  C   UNL d   1      11.097   7.693 -11.948 -0.25 -0.00    +0.003 A 
DOCKED: ATOM     28  C   UNL d   1      12.946   6.627 -10.518 -0.22 -0.01    +0.052 C 
DOCKED: ATOM     29  C   UNL d   1      15.894   5.377  -6.681 -0.06 -0.00    +0.046 C 
DOCKED: ATOM     30  C   UNL d   1       9.899   9.424 -13.489 -0.26 +0.01    +0.046 C 
DOCKED: ATOM     31  H   UNL d   1      13.803   8.812  -8.913 +0.04 -0.01    +0.166 HD
DOCKED: ATOM     32  H   UNL d   1      13.720   9.211 -10.924 +0.03 -0.01    +0.166 HD
DOCKED: ENDROOT
DOCKED: BRANCH   7  33
DOCKED: ATOM     33  C   UNL d   1      12.413  14.148 -12.546 -0.06 -0.00    +0.141 C 
DOCKED: BRANCH  33  34
DOCKED: ATOM     34  C   UNL d   1      12.839  15.521 -12.992 -0.01 -0.01    +0.306 C 
DOCKED: ATOM     35  O   UNL d   1      13.049  15.872 -14.141 -0.00 +0.01    -0.251 OA
DOCKED: BRANCH  34  36
DOCKED: ATOM     36  O   UNL d   1      12.974  16.380 -11.967 +0.01 +0.02    -0.481 OA
DOCKED: ATOM     37  H   UNL d   1      13.800  16.100 -11.517 +0.02 -0.01    +0.295 HD
DOCKED: ENDBRANCH  34  36
DOCKED: ENDBRANCH  33  34
DOCKED: ENDBRANCH   7  33
DOCKED: BRANCH  27  38
DOCKED: ATOM     38  C   UNL d   1      10.165   6.617 -12.098 -0.29 -0.00    +0.017 C 
DOCKED: ATOM     39  C   UNL d   1       9.931   5.661 -11.186 -0.31 -0.03    +0.092 C 
DOCKED: BRANCH  39  40
DOCKED: ATOM     40  C   UNL d   1       8.934   4.622 -11.456 -0.27 -0.22    +0.330 C 
DOCKED: ATOM     41  O   UNL d   1       7.728   4.695 -11.319 -0.52 +0.14    -0.246 OA
DOCKED: BRANCH  40  42
DOCKED: ATOM     42  O   UNL d   1       9.536   3.511 -11.910 -0.08 +0.58    -0.477 OA
DOCKED: ATOM     43  H   UNL d   1       9.139   3.374 -12.794 -0.15 -0.83    +0.295 HD
DOCKED: ENDBRANCH  40  42
DOCKED: ENDBRANCH  39  40
DOCKED: ENDBRANCH  27  38
DOCKED: BRANCH   8  44
DOCKED: ATOM     44  C   UNL d   1      16.706  13.017  -6.154 -0.02 -0.01    +0.141 C 
DOCKED: BRANCH  44  45
DOCKED: ATOM     45  C   UNL d   1      17.956  12.208  -6.373 -0.00 -0.02    +0.306 C 
DOCKED: ATOM     46  O   UNL d   1      18.376  11.792  -7.439 -0.00 +0.01    -0.251 OA
DOCKED: BRANCH  45  47
DOCKED: ATOM     47  O   UNL d   1      18.603  11.939  -5.224 +0.00 +0.02    -0.481 OA
DOCKED: ATOM     48  H   UNL d   1      17.999  11.343  -4.733 +0.01 -0.02    +0.295 HD
DOCKED: ENDBRANCH  45  47
DOCKED: ENDBRANCH  44  45
DOCKED: ENDBRANCH   8  44
DOCKED: BRANCH  22  49
DOCKED: ATOM     49  C   UNL d   1      14.257   4.192  -9.155 -0.11 -0.01    +0.048 C 
DOCKED: BRANCH  49  50
DOCKED: ATOM     50  C   UNL d   1      12.874   3.625  -8.837 -0.19 -0.06    +0.125 C 
DOCKED: BRANCH  50  51
DOCKED: ATOM     51  C   UNL d   1      12.430   4.034  -7.461 -0.20 -0.13    +0.305 C 
DOCKED: ATOM     52  O   UNL d   1      11.938   5.097  -7.125 -0.28 +0.05    -0.251 OA
DOCKED: BRANCH  51  53
DOCKED: ATOM     53  O   UNL d   1      12.646   3.063  -6.552 -0.10 +0.25    -0.481 OA
DOCKED: ATOM     54  H   UNL d   1      12.657   2.239  -7.082 -0.46 -0.46    +0.295 HD
DOCKED: ENDBRANCH  51  53
DOCKED: ENDBRANCH  50  51
DOCKED: ENDBRANCH  49  50
DOCKED: ENDBRANCH  22  49
DOCKED: TORSDOF 13
DOCKED: TER
DOCKED: ENDMDL
________________________________________________________________________________


	BEGINNING GENETIC ALGORITHM DOCKING 25 of 100
Run: 25 Seed: 52869910 1415812840 [ Run 25 of 100 GA/GALS ]
Beginning LAMARCKIAN GENETIC ALGORITHM (LGA), with a maximum of 25000000 energy evaluations.

Final-Value: -12.621


	FINAL GENETIC ALGORITHM DOCKED STATE
	_______________________________________________


Detailed state:  trans 9.055 16.429 -10.264 quatxyzw -0.324836 -0.350867 0.709867 0.517168 center 0.153 0.018 -0.028 ntor 13 165.0435 162.6948 172.9396 -102.9885 -145.1601 52.4840 148.2540 -41.8640 16.3259 -3.3609 -54.7232 -95.4341 31.1382
State:	  9.055  16.429 -10.264  -0.380 -0.410  0.829 117.715    165.04  162.69  172.94 -102.99 -145.16   52.48  148.25  -41.86   16.33   -3.36  -54.72  -95.43   31.14

DOCKED: MODEL       25
DOCKED: USER    Run = 25
DOCKED: USER    DPF = D:/Protein_go_brrr/autodock/final/mut_K82N/heme/dock.dpf
DOCKED: USER  
DOCKED: USER    Estimated Free Energy of Binding    =   -4.17 kcal/mol  [=(1)+(2)+(3)-(4)]
DOCKED: USER    Estimated Inhibition Constant, Ki   =  876.40 uM (micromolar)  [Temperature = 298.15 K]
DOCKED: USER    
DOCKED: USER    (1) Final Intermolecular Energy     =   -8.05 kcal/mol
DOCKED: USER        vdW + Hbond + desolv Energy     =   -7.80 kcal/mol
DOCKED: USER        Electrostatic Energy            =   -0.24 kcal/mol
DOCKED: USER    (2) Final Total Internal Energy     =   -4.57 kcal/mol
DOCKED: USER    (3) Torsional Free Energy           =   +3.88 kcal/mol
DOCKED: USER    (4) Unbound System's Energy  [=(2)] =   -4.57 kcal/mol
DOCKED: USER    
DOCKED: USER    
DOCKED: USER    NEWDPF move heme_opt.pdbqt
DOCKED: USER    NEWDPF about 0.153000 0.018000 -0.028000
DOCKED: USER    NEWDPF tran0 9.055069 16.429453 -10.264465
DOCKED: USER    NEWDPF quaternion0 -0.324836 -0.350867 0.709867 0.517168
DOCKED: USER    NEWDPF axisangle0 -0.379533 -0.409947 0.829396 117.715048
DOCKED: USER    NEWDPF quat0 -0.379533 -0.409947 0.829396 117.715048
DOCKED: USER    NEWDPF dihe0 165.04 162.69 172.94 -102.99 -145.16 52.48 148.25 -41.86 16.33 -3.36 -54.72 -95.43 31.14 
DOCKED: USER  keepresnum = 1 
DOCKED: USER  
DOCKED: REMARK  13 active torsions:
DOCKED: REMARK  status: ('A' for Active; 'I' for Inactive)
DOCKED: REMARK    1  A    between atoms: O_3  and  C_38 
DOCKED: REMARK    2  A    between atoms: O_4  and  C_40 
DOCKED: REMARK    3  A    between atoms: O_7  and  C_46 
DOCKED: REMARK    4  A    between atoms: O_9  and  C_48 
DOCKED: REMARK    5  A    between atoms: C_15  and  C_20 
DOCKED: REMARK    6  A    between atoms: C_16  and  C_23 
DOCKED: REMARK    7  A    between atoms: C_20  and  C_38 
DOCKED: REMARK    8  A    between atoms: C_23  and  C_40 
DOCKED: REMARK    9  A    between atoms: C_32  and  C_41 
DOCKED: REMARK   10  A    between atoms: C_37  and  C_45 
DOCKED: REMARK   11  A    between atoms: C_41  and  C_44 
DOCKED: REMARK   12  A    between atoms: C_44  and  C_46 
DOCKED: REMARK   13  A    between atoms: C_47  and  C_48 
DOCKED: USER                              x       y       z     vdW  Elec       q    Type
DOCKED: USER                           _______ _______ _______ _____ _____    ______ ____
DOCKED: ROOT
DOCKED: ATOM      1  O   UNL d   1      12.042  18.360  -5.563 -0.04 +0.02    -0.289 OA
DOCKED: ATOM      2  O   UNL d   1       5.222  20.152  -8.146 -0.20 +0.09    -0.289 OA
DOCKED: ATOM      3  N   UNL d   1      10.744  17.049  -8.477 -0.03 +0.00    -0.247 NA
DOCKED: ATOM      4  N   UNL d   1       7.957  18.079  -8.508 -0.11 +0.03    -0.247 NA
DOCKED: ATOM      5  N   UNL d   1       7.378  16.183 -10.590 -0.15 +0.04    -0.354 N 
DOCKED: ATOM      6  N   UNL d   1      10.266  15.107 -10.538 -0.15 -0.01    -0.354 N 
DOCKED: ATOM      7  C   UNL d   1      12.768  16.651  -7.152 -0.09 -0.00    +0.084 A 
DOCKED: ATOM      8  C   UNL d   1       7.523  20.164  -7.309 -0.13 -0.02    +0.084 A 
DOCKED: ATOM      9  C   UNL d   1       8.495  19.039  -7.680 -0.11 -0.01    +0.058 A 
DOCKED: ATOM     10  C   UNL d   1      11.910  16.309  -8.374 -0.02 -0.00    +0.058 A 
DOCKED: ATOM     11  C   UNL d   1      11.889  17.729  -6.592 -0.06 -0.01    +0.193 A 
DOCKED: ATOM     12  C   UNL d   1      10.709  17.894  -7.499 -0.07 -0.01    +0.109 A 
DOCKED: ATOM     13  C   UNL d   1       6.323  19.644  -8.049 -0.16 -0.05    +0.193 A 
DOCKED: ATOM     14  C   UNL d   1      12.830  15.493  -6.152 -0.13 -0.00    +0.026 C 
DOCKED: ATOM     15  C   UNL d   1       9.745  18.972  -7.196 -0.10 -0.01    +0.055 C 
DOCKED: ATOM     16  C   UNL d   1       7.940  21.502  -7.925 -0.08 -0.00    +0.026 C 
DOCKED: ATOM     17  C   UNL d   1       6.716  18.373  -8.728 -0.19 -0.02    +0.109 A 
DOCKED: ATOM     18  C   UNL d   1      12.326  15.424  -9.300 -0.17 -0.00    +0.050 C 
DOCKED: ATOM     19  C   UNL d   1      11.642  15.108 -10.501 -0.16 +0.00    +0.045 A 
DOCKED: ATOM     20  C   UNL d   1       6.109  16.616 -10.305 -0.30 -0.01    +0.045 A 
DOCKED: ATOM     21  C   UNL d   1       5.724  17.610  -9.499 -0.24 -0.02    +0.057 C 
DOCKED: ATOM     22  C   UNL d   1       5.982  14.871 -11.774 -0.37 +0.00    -0.019 A 
DOCKED: ATOM     23  C   UNL d   1       7.403  15.132 -11.467 -0.26 -0.00    +0.045 A 
DOCKED: ATOM     24  C   UNL d   1       5.221  15.753 -11.084 -0.38 +0.00    -0.022 A 
DOCKED: ATOM     25  C   UNL d   1       9.816  14.686 -11.767 -0.21 +0.00    +0.049 A 
DOCKED: ATOM     26  C   UNL d   1      12.098  14.713 -11.749 -0.09 +0.00    -0.018 A 
DOCKED: ATOM     27  C   UNL d   1      10.940  14.467 -12.551 -0.12 +0.00    +0.003 A 
DOCKED: ATOM     28  C   UNL d   1       8.432  14.453 -11.996 -0.15 +0.00    +0.052 C 
DOCKED: ATOM     29  C   UNL d   1       3.737  15.896 -11.073 -0.29 -0.01    +0.046 C 
DOCKED: ATOM     30  C   UNL d   1      13.520  14.574 -12.175 -0.04 -0.00    +0.046 C 
DOCKED: ATOM     31  H   UNL d   1       8.192  16.669 -10.231 +0.05 -0.01    +0.166 HD
DOCKED: ATOM     32  H   UNL d   1       9.684  15.347  -9.744 +0.05 +0.01    +0.166 HD
DOCKED: ENDROOT
DOCKED: BRANCH   7  33
DOCKED: ATOM     33  C   UNL d   1      14.164  17.201  -7.462 -0.03 -0.01    +0.141 C 
DOCKED: BRANCH  33  34
DOCKED: ATOM     34  C   UNL d   1      14.118  18.524  -8.179 -0.01 -0.02    +0.306 C 
DOCKED: ATOM     35  O   UNL d   1      14.106  18.689  -9.387 -0.00 +0.01    -0.251 OA
DOCKED: BRANCH  34  36
DOCKED: ATOM     36  O   UNL d   1      14.088  19.570  -7.334 +0.00 +0.03    -0.481 OA
DOCKED: ATOM     37  H   UNL d   1      13.819  19.185  -6.473 +0.01 -0.02    +0.295 HD
DOCKED: ENDBRANCH  34  36
DOCKED: ENDBRANCH  33  34
DOCKED: ENDBRANCH   7  33
DOCKED: BRANCH  27  38
DOCKED: ATOM     38  C   UNL d   1      10.958  14.023 -13.912 -0.07 +0.00    +0.017 C 
DOCKED: ATOM     39  C   UNL d   1      10.388  12.896 -14.366 -0.09 +0.01    +0.092 C 
DOCKED: BRANCH  39  40
DOCKED: ATOM     40  C   UNL d   1      10.463  12.564 -15.791 -0.01 +0.03    +0.330 C 
DOCKED: ATOM     41  O   UNL d   1      11.453  12.539 -16.498 -0.00 -0.01    -0.246 OA
DOCKED: BRANCH  40  42
DOCKED: ATOM     42  O   UNL d   1       9.243  12.260 -16.260 -0.00 -0.08    -0.477 OA
DOCKED: ATOM     43  H   UNL d   1       8.720  12.078 -15.452 +0.06 +0.09    +0.295 HD
DOCKED: ENDBRANCH  40  42
DOCKED: ENDBRANCH  39  40
DOCKED: ENDBRANCH  27  38
DOCKED: BRANCH   8  44
DOCKED: ATOM     44  C   UNL d   1       7.223  20.311  -5.813 -0.17 -0.04    +0.141 C 
DOCKED: BRANCH  44  45
DOCKED: ATOM     45  C   UNL d   1       6.766  19.029  -5.170 -0.26 -0.07    +0.306 C 
DOCKED: ATOM     46  O   UNL d   1       7.427  18.303  -4.447 -0.28 +0.05    -0.251 OA
DOCKED: BRANCH  45  47
DOCKED: ATOM     47  O   UNL d   1       5.500  18.713  -5.495 -0.63 +0.11    -0.481 OA
DOCKED: ATOM     48  H   UNL d   1       5.165  19.497  -5.981 -0.14 -0.15    +0.295 HD
DOCKED: ENDBRANCH  45  47
DOCKED: ENDBRANCH  44  45
DOCKED: ENDBRANCH   8  44
DOCKED: BRANCH  22  49
DOCKED: ATOM     49  C   UNL d   1       5.504  13.784 -12.692 -0.41 +0.00    +0.048 C 
DOCKED: BRANCH  49  50
DOCKED: ATOM     50  C   UNL d   1       6.201  13.841 -14.052 -0.25 +0.01    +0.125 C 
DOCKED: BRANCH  50  51
DOCKED: ATOM     51  C   UNL d   1       6.825  12.517 -14.390 -0.18 +0.12    +0.305 C 
DOCKED: ATOM     52  O   UNL d   1       7.531  11.824 -13.679 -0.36 -0.13    -0.251 OA
DOCKED: BRANCH  51  53
DOCKED: ATOM     53  O   UNL d   1       6.530  12.128 -15.647 -0.57 -0.27    -0.481 OA
DOCKED: ATOM     54  H   UNL d   1       7.114  12.678 -16.210 +0.06 +0.08    +0.295 HD
DOCKED: ENDBRANCH  51  53
DOCKED: ENDBRANCH  50  51
DOCKED: ENDBRANCH  49  50
DOCKED: ENDBRANCH  22  49
DOCKED: TORSDOF 13
DOCKED: TER
DOCKED: ENDMDL
________________________________________________________________________________


	BEGINNING GENETIC ALGORITHM DOCKING 26 of 100
Run: 26 Seed: 184176250 158086446 [ Run 26 of 100 GA/GALS ]
Beginning LAMARCKIAN GENETIC ALGORITHM (LGA), with a maximum of 25000000 energy evaluations.

Final-Value: -11.390


	FINAL GENETIC ALGORITHM DOCKED STATE
	_______________________________________________


Detailed state:  trans 9.954 16.895 -7.797 quatxyzw 0.775658 -0.304308 0.064764 0.549142 center 0.153 0.018 -0.028 ntor 13 132.2580 -170.4855 -109.9593 -57.7336 -117.0133 -65.5213 126.2772 -103.5783 5.2880 -19.7394 -105.3248 26.8377 -5.7011
State:	  9.954  16.895  -7.797   0.928 -0.364  0.077 113.384    132.26 -170.49 -109.96  -57.73 -117.01  -65.52  126.28 -103.58    5.29  -19.74 -105.32   26.84   -5.70

DOCKED: MODEL       26
DOCKED: USER    Run = 26
DOCKED: USER    DPF = D:/Protein_go_brrr/autodock/final/mut_K82N/heme/dock.dpf
DOCKED: USER  
DOCKED: USER    Estimated Free Energy of Binding    =   -3.09 kcal/mol  [=(1)+(2)+(3)-(4)]
DOCKED: USER    Estimated Inhibition Constant, Ki   =    5.41 mM (millimolar)  [Temperature = 298.15 K]
DOCKED: USER    
DOCKED: USER    (1) Final Intermolecular Energy     =   -6.97 kcal/mol
DOCKED: USER        vdW + Hbond + desolv Energy     =   -6.93 kcal/mol
DOCKED: USER        Electrostatic Energy            =   -0.04 kcal/mol
DOCKED: USER    (2) Final Total Internal Energy     =   -4.42 kcal/mol
DOCKED: USER    (3) Torsional Free Energy           =   +3.88 kcal/mol
DOCKED: USER    (4) Unbound System's Energy  [=(2)] =   -4.42 kcal/mol
DOCKED: USER    
DOCKED: USER    
DOCKED: USER    NEWDPF move heme_opt.pdbqt
DOCKED: USER    NEWDPF about 0.153000 0.018000 -0.028000
DOCKED: USER    NEWDPF tran0 9.954386 16.894704 -7.797083
DOCKED: USER    NEWDPF quaternion0 0.775658 -0.304308 0.064764 0.549142
DOCKED: USER    NEWDPF axisangle0 0.928121 -0.364123 0.077494 113.383620
DOCKED: USER    NEWDPF quat0 0.928121 -0.364123 0.077494 113.383620
DOCKED: USER    NEWDPF dihe0 132.26 -170.49 -109.96 -57.73 -117.01 -65.52 126.28 -103.58 5.29 -19.74 -105.32 26.84 -5.70 
DOCKED: USER  keepresnum = 1 
DOCKED: USER  
DOCKED: REMARK  13 active torsions:
DOCKED: REMARK  status: ('A' for Active; 'I' for Inactive)
DOCKED: REMARK    1  A    between atoms: O_3  and  C_38 
DOCKED: REMARK    2  A    between atoms: O_4  and  C_40 
DOCKED: REMARK    3  A    between atoms: O_7  and  C_46 
DOCKED: REMARK    4  A    between atoms: O_9  and  C_48 
DOCKED: REMARK    5  A    between atoms: C_15  and  C_20 
DOCKED: REMARK    6  A    between atoms: C_16  and  C_23 
DOCKED: REMARK    7  A    between atoms: C_20  and  C_38 
DOCKED: REMARK    8  A    between atoms: C_23  and  C_40 
DOCKED: REMARK    9  A    between atoms: C_32  and  C_41 
DOCKED: REMARK   10  A    between atoms: C_37  and  C_45 
DOCKED: REMARK   11  A    between atoms: C_41  and  C_44 
DOCKED: REMARK   12  A    between atoms: C_44  and  C_46 
DOCKED: REMARK   13  A    between atoms: C_47  and  C_48 
DOCKED: USER                              x       y       z     vdW  Elec       q    Type
DOCKED: USER                           _______ _______ _______ _____ _____    ______ ____
DOCKED: ROOT
DOCKED: ATOM      1  O   UNL d   1       5.034  20.112  -8.243 -0.20 +0.09    -0.289 OA
DOCKED: ATOM      2  O   UNL d   1       9.068  18.081  -2.243 -0.21 +0.05    -0.289 OA
DOCKED: ATOM      3  N   UNL d   1       7.811  18.078  -8.460 -0.11 +0.03    -0.247 NA
DOCKED: ATOM      4  N   UNL d   1       8.884  18.088  -5.689 -0.09 +0.03    -0.247 NA
DOCKED: ATOM      5  N   UNL d   1      11.303  16.926  -6.721 +0.22 +0.01    -0.354 N 
DOCKED: ATOM      6  N   UNL d   1      10.190  16.938  -9.595 -0.07 +0.01    -0.354 N 
DOCKED: ATOM      7  C   UNL d   1       6.320  19.148 -10.085 -0.08 -0.02    +0.084 A 
DOCKED: ATOM      8  C   UNL d   1       7.299  18.515  -3.879 -0.38 -0.02    +0.084 A 
DOCKED: ATOM      9  C   UNL d   1       7.587  18.432  -5.381 -0.29 -0.01    +0.058 A 
DOCKED: ATOM     10  C   UNL d   1       7.541  18.267  -9.805 -0.12 -0.01    +0.058 A 
DOCKED: ATOM     11  C   UNL d   1       5.937  19.409  -8.659 -0.14 -0.05    +0.193 A 
DOCKED: ATOM     12  C   UNL d   1       6.901  18.685  -7.771 -0.21 -0.02    +0.109 A 
DOCKED: ATOM     13  C   UNL d   1       8.683  18.191  -3.391 -0.21 -0.03    +0.193 A 
DOCKED: ATOM     14  C   UNL d   1       6.708  20.475 -10.743 -0.04 -0.00    +0.026 C 
DOCKED: ATOM     15  C   UNL d   1       6.665  18.720  -6.313 -0.35 -0.01    +0.055 C 
DOCKED: ATOM     16  C   UNL d   1       6.345  17.408  -3.421 -0.65 -0.00    +0.026 C 
DOCKED: ATOM     17  C   UNL d   1       9.550  17.961  -4.587 -0.17 -0.02    +0.109 A 
DOCKED: ATOM     18  C   UNL d   1       8.219  17.668 -10.802 -0.12 -0.00    +0.050 C 
DOCKED: ATOM     19  C   UNL d   1       9.305  16.771 -10.636 -0.15 -0.00    +0.045 A 
DOCKED: ATOM     20  C   UNL d   1      11.708  17.219  -5.444 -0.10 -0.00    +0.045 A 
DOCKED: ATOM     21  C   UNL d   1      10.980  17.665  -4.416 -0.16 -0.01    +0.057 C 
DOCKED: ATOM     22  C   UNL d   1      13.515  16.504  -6.646 -0.08 +0.00    -0.019 A 
DOCKED: ATOM     23  C   UNL d   1      12.325  16.488  -7.520 -0.06 -0.00    +0.045 A 
DOCKED: ATOM     24  C   UNL d   1      13.143  16.937  -5.418 -0.08 +0.00    -0.022 A 
DOCKED: ATOM     25  C   UNL d   1      11.210  16.018  -9.676 -0.15 -0.00    +0.049 A 
DOCKED: ATOM     26  C   UNL d   1       9.740  15.693 -11.391 -0.18 +0.00    -0.018 A 
DOCKED: ATOM     27  C   UNL d   1      10.933  15.210 -10.770 -0.20 +0.00    +0.003 A 
DOCKED: ATOM     28  C   UNL d   1      12.329  16.091  -8.802 -0.13 -0.00    +0.052 C 
DOCKED: ATOM     29  C   UNL d   1      13.981  17.113  -4.197 -0.04 -0.00    +0.046 C 
DOCKED: ATOM     30  C   UNL d   1       9.089  15.143 -12.615 -0.17 +0.00    +0.046 C 
DOCKED: ATOM     31  H   UNL d   1      10.325  16.966  -6.984 +0.08 +0.00    +0.166 HD
DOCKED: ATOM     32  H   UNL d   1      10.106  17.670  -8.900 +0.03 -0.01    +0.166 HD
DOCKED: ENDROOT
DOCKED: BRANCH   7  33
DOCKED: ATOM     33  C   UNL d   1       5.173  18.463 -10.834 -0.11 -0.03    +0.141 C 
DOCKED: BRANCH  33  34
DOCKED: ATOM     34  C   UNL d   1       4.734  17.182 -10.175 -0.14 -0.10    +0.306 C 
DOCKED: ATOM     35  O   UNL d   1       5.415  16.182 -10.021 -0.30 +0.08    -0.251 OA
DOCKED: BRANCH  34  36
DOCKED: ATOM     36  O   UNL d   1       3.462  17.231  -9.744 +0.25 +0.23    -0.481 OA
DOCKED: ATOM     37  H   UNL d   1       3.408  18.062  -9.225 -0.41 -0.20    +0.295 HD
DOCKED: ENDBRANCH  34  36
DOCKED: ENDBRANCH  33  34
DOCKED: ENDBRANCH   7  33
DOCKED: BRANCH  27  38
DOCKED: ATOM     38  C   UNL d   1      11.720  14.109 -11.238 -0.21 +0.00    +0.017 C 
DOCKED: ATOM     39  C   UNL d   1      11.921  12.962 -10.572 -0.21 +0.00    +0.092 C 
DOCKED: BRANCH  39  40
DOCKED: ATOM     40  C   UNL d   1      12.736  11.903 -11.172 -0.12 +0.01    +0.330 C 
DOCKED: ATOM     41  O   UNL d   1      12.477  11.228 -12.151 -0.14 -0.01    -0.246 OA
DOCKED: BRANCH  40  42
DOCKED: ATOM     42  O   UNL d   1      13.879  11.754 -10.485 -0.06 +0.01    -0.477 OA
DOCKED: ATOM     43  H   UNL d   1      13.747  12.307  -9.687 +0.08 -0.00    +0.295 HD
DOCKED: ENDBRANCH  40  42
DOCKED: ENDBRANCH  39  40
DOCKED: ENDBRANCH  27  38
DOCKED: BRANCH   8  44
DOCKED: ATOM     44  C   UNL d   1       6.845  19.886  -3.368 -0.36 -0.03    +0.141 C 
DOCKED: BRANCH  44  45
DOCKED: ATOM     45  C   UNL d   1       7.934  20.925  -3.404 -0.18 -0.07    +0.306 C 
DOCKED: ATOM     46  O   UNL d   1       8.279  21.583  -4.371 -0.14 +0.07    -0.251 OA
DOCKED: BRANCH  45  47
DOCKED: ATOM     47  O   UNL d   1       8.554  21.062  -2.219 -0.06 +0.04    -0.481 OA
DOCKED: ATOM     48  H   UNL d   1       9.055  20.227  -2.103 +0.10 -0.02    +0.295 HD
DOCKED: ENDBRANCH  45  47
DOCKED: ENDBRANCH  44  45
DOCKED: ENDBRANCH   8  44
DOCKED: BRANCH  22  49
DOCKED: ATOM     49  C   UNL d   1      14.893  16.114  -7.091 -0.04 -0.00    +0.048 C 
DOCKED: BRANCH  49  50
DOCKED: ATOM     50  C   UNL d   1      15.150  14.619  -6.901 -0.05 -0.01    +0.125 C 
DOCKED: BRANCH  50  51
DOCKED: ATOM     51  C   UNL d   1      14.444  13.815  -7.956 -0.07 -0.01    +0.305 C 
DOCKED: ATOM     52  O   UNL d   1      13.481  13.083  -7.811 -0.17 +0.01    -0.251 OA
DOCKED: BRANCH  51  53
DOCKED: ATOM     53  O   UNL d   1      15.011  13.967  -9.169 -0.00 +0.02    -0.481 OA
DOCKED: ATOM     54  H   UNL d   1      15.261  13.056  -9.431 +0.04 -0.01    +0.295 HD
DOCKED: ENDBRANCH  51  53
DOCKED: ENDBRANCH  50  51
DOCKED: ENDBRANCH  49  50
DOCKED: ENDBRANCH  22  49
DOCKED: TORSDOF 13
DOCKED: TER
DOCKED: ENDMDL
________________________________________________________________________________


	BEGINNING GENETIC ALGORITHM DOCKING 27 of 100
Run: 27 Seed: 1017093698 1103307654 [ Run 27 of 100 GA/GALS ]
Beginning LAMARCKIAN GENETIC ALGORITHM (LGA), with a maximum of 25000000 energy evaluations.

Final-Value: -11.656


	FINAL GENETIC ALGORITHM DOCKED STATE
	_______________________________________________


Detailed state:  trans -10.702 -1.302 6.586 quatxyzw -0.363631 0.253907 0.562535 0.697752 center 0.153 0.018 -0.028 ntor 13 -126.4283 -168.5508 124.6843 -7.5672 28.4262 29.8024 -45.1716 -138.3175 124.5817 -141.1631 54.0468 -61.4756 98.6183
State:	-10.702  -1.302   6.586  -0.508  0.354  0.785 91.506   -126.43 -168.55  124.68   -7.57   28.43   29.80  -45.17 -138.32  124.58 -141.16   54.05  -61.48   98.62

DOCKED: MODEL       27
DOCKED: USER    Run = 27
DOCKED: USER    DPF = D:/Protein_go_brrr/autodock/final/mut_K82N/heme/dock.dpf
DOCKED: USER  
DOCKED: USER    Estimated Free Energy of Binding    =   -4.44 kcal/mol  [=(1)+(2)+(3)-(4)]
DOCKED: USER    Estimated Inhibition Constant, Ki   =  559.74 uM (micromolar)  [Temperature = 298.15 K]
DOCKED: USER    
DOCKED: USER    (1) Final Intermolecular Energy     =   -8.31 kcal/mol
DOCKED: USER        vdW + Hbond + desolv Energy     =   -8.25 kcal/mol
DOCKED: USER        Electrostatic Energy            =   -0.06 kcal/mol
DOCKED: USER    (2) Final Total Internal Energy     =   -3.34 kcal/mol
DOCKED: USER    (3) Torsional Free Energy           =   +3.88 kcal/mol
DOCKED: USER    (4) Unbound System's Energy  [=(2)] =   -3.34 kcal/mol
DOCKED: USER    
DOCKED: USER    
DOCKED: USER    NEWDPF move heme_opt.pdbqt
DOCKED: USER    NEWDPF about 0.153000 0.018000 -0.028000
DOCKED: USER    NEWDPF tran0 -10.701781 -1.301593 6.586365
DOCKED: USER    NEWDPF quaternion0 -0.363631 0.253907 0.562535 0.697752
DOCKED: USER    NEWDPF axisangle0 -0.507624 0.354451 0.785291 91.506106
DOCKED: USER    NEWDPF quat0 -0.507624 0.354451 0.785291 91.506106
DOCKED: USER    NEWDPF dihe0 -126.43 -168.55 124.68 -7.57 28.43 29.80 -45.17 -138.32 124.58 -141.16 54.05 -61.48 98.62 
DOCKED: USER  keepresnum = 1 
DOCKED: USER  
DOCKED: REMARK  13 active torsions:
DOCKED: REMARK  status: ('A' for Active; 'I' for Inactive)
DOCKED: REMARK    1  A    between atoms: O_3  and  C_38 
DOCKED: REMARK    2  A    between atoms: O_4  and  C_40 
DOCKED: REMARK    3  A    between atoms: O_7  and  C_46 
DOCKED: REMARK    4  A    between atoms: O_9  and  C_48 
DOCKED: REMARK    5  A    between atoms: C_15  and  C_20 
DOCKED: REMARK    6  A    between atoms: C_16  and  C_23 
DOCKED: REMARK    7  A    between atoms: C_20  and  C_38 
DOCKED: REMARK    8  A    between atoms: C_23  and  C_40 
DOCKED: REMARK    9  A    between atoms: C_32  and  C_41 
DOCKED: REMARK   10  A    between atoms: C_37  and  C_45 
DOCKED: REMARK   11  A    between atoms: C_41  and  C_44 
DOCKED: REMARK   12  A    between atoms: C_44  and  C_46 
DOCKED: REMARK   13  A    between atoms: C_47  and  C_48 
DOCKED: USER                              x       y       z     vdW  Elec       q    Type
DOCKED: USER                           _______ _______ _______ _____ _____    ______ ____
DOCKED: ROOT
DOCKED: ATOM      1  O   UNL d   1     -11.519   4.169   8.626 -0.11 +0.18    -0.289 OA
DOCKED: ATOM      2  O   UNL d   1     -13.038   1.128   1.931 -0.05 +0.02    -0.289 OA
DOCKED: ATOM      3  N   UNL d   1     -10.728   0.907   7.834 -0.10 +0.03    -0.247 NA
DOCKED: ATOM      4  N   UNL d   1     -11.960   0.537   5.155 -0.06 +0.02    -0.247 NA
DOCKED: ATOM      5  N   UNL d   1     -11.560  -2.293   5.464 -0.06 +0.13    -0.354 N 
DOCKED: ATOM      6  N   UNL d   1     -10.300  -1.902   8.250 -0.05 +0.04    -0.354 N 
DOCKED: ATOM      7  C   UNL d   1     -10.622   2.266   9.871 -0.18 -0.02    +0.084 A 
DOCKED: ATOM      8  C   UNL d   1     -12.265   2.533   3.779 -0.20 +0.01    +0.084 A 
DOCKED: ATOM      9  C   UNL d   1     -11.859   1.910   5.119 -0.20 -0.00    +0.058 A 
DOCKED: ATOM     10  C   UNL d   1     -10.396   0.919   9.178 -0.12 -0.01    +0.058 A 
DOCKED: ATOM     11  C   UNL d   1     -11.124   3.019   8.675 -0.20 -0.06    +0.193 A 
DOCKED: ATOM     12  C   UNL d   1     -11.117   2.093   7.498 -0.19 -0.02    +0.109 A 
DOCKED: ATOM     13  C   UNL d   1     -12.651   1.263   3.075 -0.08 -0.01    +0.193 A 
DOCKED: ATOM     14  C   UNL d   1     -11.738   2.194  10.915 -0.08 -0.00    +0.026 C 
DOCKED: ATOM     15  C   UNL d   1     -11.487   2.644   6.178 -0.28 -0.00    +0.055 C 
DOCKED: ATOM     16  C   UNL d   1     -11.066   3.153   3.055 -0.37 +0.00    +0.026 C 
DOCKED: ATOM     17  C   UNL d   1     -12.427   0.127   4.019 -0.09 -0.02    +0.109 A 
DOCKED: ATOM     18  C   UNL d   1      -9.835  -0.120   9.826 -0.16 -0.01    +0.050 C 
DOCKED: ATOM     19  C   UNL d   1      -9.511  -1.373   9.246 -0.18 -0.01    +0.045 A 
DOCKED: ATOM     20  C   UNL d   1     -12.346  -2.288   4.341 -0.14 -0.02    +0.045 A 
DOCKED: ATOM     21  C   UNL d   1     -12.762  -1.246   3.615 -0.13 -0.02    +0.057 C 
DOCKED: ATOM     22  C   UNL d   1     -12.053  -4.447   5.027 -0.12 +0.02    -0.019 A 
DOCKED: ATOM     23  C   UNL d   1     -11.328  -3.552   5.951 -0.16 -0.02    +0.045 A 
DOCKED: ATOM     24  C   UNL d   1     -12.652  -3.693   4.075 -0.07 +0.02    -0.022 A 
DOCKED: ATOM     25  C   UNL d   1      -9.858  -3.157   7.899 -0.14 -0.01    +0.049 A 
DOCKED: ATOM     26  C   UNL d   1      -8.509  -2.290   9.523 -0.30 +0.00    -0.018 A 
DOCKED: ATOM     27  C   UNL d   1      -8.722  -3.406   8.656 -0.26 -0.00    +0.003 A 
DOCKED: ATOM     28  C   UNL d   1     -10.605  -3.968   7.002 -0.17 -0.01    +0.052 C 
DOCKED: ATOM     29  C   UNL d   1     -13.484  -4.136   2.920 -0.01 -0.05    +0.046 C 
DOCKED: ATOM     30  C   UNL d   1      -7.419  -2.141  10.530 -0.46 -0.01    +0.046 C 
DOCKED: ATOM     31  H   UNL d   1     -11.144  -1.439   5.819 +0.06 -0.03    +0.166 HD
DOCKED: ATOM     32  H   UNL d   1     -11.115  -1.433   7.872 +0.04 -0.02    +0.166 HD
DOCKED: ENDROOT
DOCKED: BRANCH   7  33
DOCKED: ATOM     33  C   UNL d   1      -9.364   2.933  10.437 -0.20 -0.02    +0.141 C 
DOCKED: BRANCH  33  34
DOCKED: ATOM     34  C   UNL d   1      -9.622   4.329  10.936 -0.29 -0.10    +0.306 C 
DOCKED: ATOM     35  O   UNL d   1     -10.078   4.631  12.025 -0.20 +0.07    -0.251 OA
DOCKED: BRANCH  34  36
DOCKED: ATOM     36  O   UNL d   1      -9.291   5.270  10.035 -0.67 +0.29    -0.481 OA
DOCKED: ATOM     37  H   UNL d   1      -9.740   4.991   9.209 -0.11 -0.38    +0.295 HD
DOCKED: ENDBRANCH  34  36
DOCKED: ENDBRANCH  33  34
DOCKED: ENDBRANCH   7  33
DOCKED: BRANCH  27  38
DOCKED: ATOM     38  C   UNL d   1      -7.919  -4.591   8.624 -0.27 -0.00    +0.017 C 
DOCKED: ATOM     39  C   UNL d   1      -8.332  -5.795   8.200 -0.30 -0.02    +0.092 C 
DOCKED: BRANCH  39  40
DOCKED: ATOM     40  C   UNL d   1      -7.402  -6.928   8.201 -0.25 -0.06    +0.330 C 
DOCKED: ATOM     41  O   UNL d   1      -6.445  -7.103   8.930 -0.28 +0.04    -0.246 OA
DOCKED: BRANCH  40  42
DOCKED: ATOM     42  O   UNL d   1      -7.751  -7.813   7.254 -0.16 +0.13    -0.477 OA
DOCKED: ATOM     43  H   UNL d   1      -8.421  -7.336   6.723 +0.02 -0.11    +0.295 HD
DOCKED: ENDBRANCH  40  42
DOCKED: ENDBRANCH  39  40
DOCKED: ENDBRANCH  27  38
DOCKED: BRANCH   8  44
DOCKED: ATOM     44  C   UNL d   1     -13.444   3.510   3.836 -0.07 +0.04    +0.141 C 
DOCKED: BRANCH  44  45
DOCKED: ATOM     45  C   UNL d   1     -13.636   4.284   2.559 -0.09 +0.08    +0.306 C 
DOCKED: ATOM     46  O   UNL d   1     -13.124   5.352   2.273 -0.17 -0.08    -0.251 OA
DOCKED: BRANCH  45  47
DOCKED: ATOM     47  O   UNL d   1     -14.492   3.680   1.715 +0.00 -0.06    -0.481 OA
DOCKED: ATOM     48  H   UNL d   1     -14.116   2.785   1.579 +0.06 +0.02    +0.295 HD
DOCKED: ENDBRANCH  45  47
DOCKED: ENDBRANCH  44  45
DOCKED: ENDBRANCH   8  44
DOCKED: BRANCH  22  49
DOCKED: ATOM     49  C   UNL d   1     -12.104  -5.940   5.167 -0.13 -0.04    +0.048 C 
DOCKED: BRANCH  49  50
DOCKED: ATOM     50  C   UNL d   1     -11.647  -6.398   6.551 -0.10 -0.05    +0.125 C 
DOCKED: BRANCH  50  51
DOCKED: ATOM     51  C   UNL d   1     -10.532  -7.400   6.445 -0.12 -0.11    +0.305 C 
DOCKED: ATOM     52  O   UNL d   1     -10.327  -8.362   7.163 -0.09 +0.05    -0.251 OA
DOCKED: BRANCH  51  53
DOCKED: ATOM     53  O   UNL d   1      -9.703  -7.124   5.418 -0.18 +0.28    -0.481 OA
DOCKED: ATOM     54  H   UNL d   1      -8.962  -7.755   5.534 -0.04 -0.15    +0.295 HD
DOCKED: ENDBRANCH  51  53
DOCKED: ENDBRANCH  50  51
DOCKED: ENDBRANCH  49  50
DOCKED: ENDBRANCH  22  49
DOCKED: TORSDOF 13
DOCKED: TER
DOCKED: ENDMDL
________________________________________________________________________________


	BEGINNING GENETIC ALGORITHM DOCKING 28 of 100
Run: 28 Seed: 535497538 1333643407 [ Run 28 of 100 GA/GALS ]
Beginning LAMARCKIAN GENETIC ALGORITHM (LGA), with a maximum of 25000000 energy evaluations.

Final-Value: -11.839


	FINAL GENETIC ALGORITHM DOCKED STATE
	_______________________________________________


Detailed state:  trans -8.417 8.115 -13.725 quatxyzw -0.518597 0.537427 -0.664736 0.018861 center 0.153 0.018 -0.028 ntor 13 178.3273 111.8818 -87.4293 -78.8504 -152.0448 14.2077 137.8446 0.1845 12.9492 -24.2104 -60.0400 -34.6780 -1.7608
State:	 -8.417   8.115 -13.725  -0.519  0.538 -0.665 177.839    178.33  111.88  -87.43  -78.85 -152.04   14.21  137.84    0.18   12.95  -24.21  -60.04  -34.68   -1.76

DOCKED: MODEL       28
DOCKED: USER    Run = 28
DOCKED: USER    DPF = D:/Protein_go_brrr/autodock/final/mut_K82N/heme/dock.dpf
DOCKED: USER  
DOCKED: USER    Estimated Free Energy of Binding    =   -3.31 kcal/mol  [=(1)+(2)+(3)-(4)]
DOCKED: USER    Estimated Inhibition Constant, Ki   =    3.73 mM (millimolar)  [Temperature = 298.15 K]
DOCKED: USER    
DOCKED: USER    (1) Final Intermolecular Energy     =   -7.19 kcal/mol
DOCKED: USER        vdW + Hbond + desolv Energy     =   -6.78 kcal/mol
DOCKED: USER        Electrostatic Energy            =   -0.41 kcal/mol
DOCKED: USER    (2) Final Total Internal Energy     =   -4.65 kcal/mol
DOCKED: USER    (3) Torsional Free Energy           =   +3.88 kcal/mol
DOCKED: USER    (4) Unbound System's Energy  [=(2)] =   -4.65 kcal/mol
DOCKED: USER    
DOCKED: USER    
DOCKED: USER    NEWDPF move heme_opt.pdbqt
DOCKED: USER    NEWDPF about 0.153000 0.018000 -0.028000
DOCKED: USER    NEWDPF tran0 -8.416556 8.115252 -13.725091
DOCKED: USER    NEWDPF quaternion0 -0.518597 0.537427 -0.664736 0.018861
DOCKED: USER    NEWDPF axisangle0 -0.518689 0.537522 -0.664855 177.838563
DOCKED: USER    NEWDPF quat0 -0.518689 0.537522 -0.664855 177.838563
DOCKED: USER    NEWDPF dihe0 178.33 111.88 -87.43 -78.85 -152.04 14.21 137.84 0.18 12.95 -24.21 -60.04 -34.68 -1.76 
DOCKED: USER  keepresnum = 1 
DOCKED: USER  
DOCKED: REMARK  13 active torsions:
DOCKED: REMARK  status: ('A' for Active; 'I' for Inactive)
DOCKED: REMARK    1  A    between atoms: O_3  and  C_38 
DOCKED: REMARK    2  A    between atoms: O_4  and  C_40 
DOCKED: REMARK    3  A    between atoms: O_7  and  C_46 
DOCKED: REMARK    4  A    between atoms: O_9  and  C_48 
DOCKED: REMARK    5  A    between atoms: C_15  and  C_20 
DOCKED: REMARK    6  A    between atoms: C_16  and  C_23 
DOCKED: REMARK    7  A    between atoms: C_20  and  C_38 
DOCKED: REMARK    8  A    between atoms: C_23  and  C_40 
DOCKED: REMARK    9  A    between atoms: C_32  and  C_41 
DOCKED: REMARK   10  A    between atoms: C_37  and  C_45 
DOCKED: REMARK   11  A    between atoms: C_41  and  C_44 
DOCKED: REMARK   12  A    between atoms: C_44  and  C_46 
DOCKED: REMARK   13  A    between atoms: C_47  and  C_48 
DOCKED: USER                              x       y       z     vdW  Elec       q    Type
DOCKED: USER                           _______ _______ _______ _____ _____    ______ ____
DOCKED: ROOT
DOCKED: ATOM      1  O   UNL d   1      -6.378   9.914 -18.956 -0.01 +0.05    -0.289 OA
DOCKED: ATOM      2  O   UNL d   1      -5.425  12.732 -12.061 -0.81 -0.04    -0.289 OA
DOCKED: ATOM      3  N   UNL d   1      -7.901   8.578 -16.165 -0.05 +0.02    -0.247 NA
DOCKED: ATOM      4  N   UNL d   1      -6.711  10.131 -13.928 -0.05 +0.02    -0.247 NA
DOCKED: ATOM      5  N   UNL d   1      -7.787   8.172 -12.119 -0.03 -0.01    -0.354 N 
DOCKED: ATOM      6  N   UNL d   1      -9.001   6.557 -14.447 -0.01 -0.03    -0.354 N 
DOCKED: ATOM      7  C   UNL d   1      -7.742   7.933 -18.524 -0.07 -0.01    +0.084 A 
DOCKED: ATOM      8  C   UNL d   1      -5.896  12.378 -14.437 -0.19 -0.02    +0.084 A 
DOCKED: ATOM      9  C   UNL d   1      -6.480  11.049 -14.928 -0.07 -0.01    +0.058 A 
DOCKED: ATOM     10  C   UNL d   1      -8.262   7.637 -17.114 -0.12 -0.00    +0.058 A 
DOCKED: ATOM     11  C   UNL d   1      -7.038   9.218 -18.207 -0.02 -0.03    +0.193 A 
DOCKED: ATOM     12  C   UNL d   1      -7.229   9.515 -16.752 -0.03 -0.01    +0.109 A 
DOCKED: ATOM     13  C   UNL d   1      -5.803  12.030 -12.978 -0.28 -0.02    +0.193 A 
DOCKED: ATOM     14  C   UNL d   1      -6.708   6.902 -18.983 -0.11 -0.01    +0.026 C 
DOCKED: ATOM     15  C   UNL d   1      -6.698  10.788 -16.226 -0.04 -0.01    +0.055 C 
DOCKED: ATOM     16  C   UNL d   1      -6.889  13.532 -14.605 -0.21 -0.00    +0.026 C 
DOCKED: ATOM     17  C   UNL d   1      -6.321  10.639 -12.803 -0.20 -0.01    +0.109 A 
DOCKED: ATOM     18  C   UNL d   1      -9.075   6.592 -16.870 -0.20 +0.00    +0.050 C 
DOCKED: ATOM     19  C   UNL d   1      -9.671   6.289 -15.619 -0.18 +0.01    +0.045 A 
DOCKED: ATOM     20  C   UNL d   1      -6.988   8.876 -11.256 -0.19 -0.00    +0.045 A 
DOCKED: ATOM     21  C   UNL d   1      -6.312  10.009 -11.475 -0.31 -0.01    +0.057 C 
DOCKED: ATOM     22  C   UNL d   1      -7.810   7.042 -10.171 -0.18 -0.00    -0.019 A 
DOCKED: ATOM     23  C   UNL d   1      -8.327   7.048 -11.554 -0.04 +0.00    +0.045 A 
DOCKED: ATOM     24  C   UNL d   1      -7.019   8.128 -10.000 -0.23 -0.00    -0.022 A 
DOCKED: ATOM     25  C   UNL d   1      -9.719   6.103 -13.365 -0.15 +0.01    +0.049 A 
DOCKED: ATOM     26  C   UNL d   1     -10.871   5.678 -15.289 -0.15 -0.00    -0.018 A 
DOCKED: ATOM     27  C   UNL d   1     -10.905   5.581 -13.863 -0.15 +0.00    +0.003 A 
DOCKED: ATOM     28  C   UNL d   1      -9.161   6.125 -12.058 -0.10 +0.01    +0.052 C 
DOCKED: ATOM     29  C   UNL d   1      -6.282   8.562  -8.779 -0.43 -0.00    +0.046 C 
DOCKED: ATOM     30  C   UNL d   1     -11.925   5.215 -16.237 -0.13 +0.02    +0.046 C 
DOCKED: ATOM     31  H   UNL d   1      -7.997   8.524 -13.047 +0.04 +0.00    +0.166 HD
DOCKED: ATOM     32  H   UNL d   1      -8.087   6.992 -14.411 +0.06 +0.00    +0.166 HD
DOCKED: ENDROOT
DOCKED: BRANCH   7  33
DOCKED: ATOM     33  C   UNL d   1      -8.821   8.159 -19.589 -0.03 -0.01    +0.141 C 
DOCKED: BRANCH  33  34
DOCKED: ATOM     34  C   UNL d   1      -9.710   9.330 -19.272 -0.00 -0.01    +0.306 C 
DOCKED: ATOM     35  O   UNL d   1     -10.810   9.279 -18.747 -0.00 +0.00    -0.251 OA
DOCKED: BRANCH  34  36
DOCKED: ATOM     36  O   UNL d   1      -9.166  10.506 -19.632 +0.00 +0.03    -0.481 OA
DOCKED: ATOM     37  H   UNL d   1      -8.270  10.274 -19.957 +0.00 -0.03    +0.295 HD
DOCKED: ENDBRANCH  34  36
DOCKED: ENDBRANCH  33  34
DOCKED: ENDBRANCH   7  33
DOCKED: BRANCH  27  38
DOCKED: ATOM     38  C   UNL d   1     -11.967   4.997 -13.101 -0.12 +0.01    +0.017 C 
DOCKED: ATOM     39  C   UNL d   1     -12.017   4.939 -11.761 -0.08 +0.03    +0.092 C 
DOCKED: BRANCH  39  40
DOCKED: ATOM     40  C   UNL d   1     -13.173   4.327 -11.100 -0.02 +0.12    +0.330 C 
DOCKED: ATOM     41  O   UNL d   1     -14.052   3.658 -11.608 -0.01 -0.08    -0.246 OA
DOCKED: BRANCH  40  42
DOCKED: ATOM     42  O   UNL d   1     -13.149   4.597  -9.786 -0.00 -0.25    -0.477 OA
DOCKED: ATOM     43  H   UNL d   1     -12.376   4.093  -9.457 +0.04 +0.21    +0.295 HD
DOCKED: ENDBRANCH  40  42
DOCKED: ENDBRANCH  39  40
DOCKED: ENDBRANCH  27  38
DOCKED: BRANCH   8  44
DOCKED: ATOM     44  C   UNL d   1      -4.520  12.743 -15.002 -0.25 -0.08    +0.141 C 
DOCKED: BRANCH  44  45
DOCKED: ATOM     45  C   UNL d   1      -3.400  11.928 -14.413 -0.29 -0.17    +0.306 C 
DOCKED: ATOM     46  O   UNL d   1      -2.930  10.900 -14.870 -0.26 +0.13    -0.251 OA
DOCKED: BRANCH  45  47
DOCKED: ATOM     47  O   UNL d   1      -2.944  12.440 -13.255 -0.75 +0.15    -0.481 OA
DOCKED: ATOM     48  H   UNL d   1      -3.473  11.991 -12.561 +0.17 -0.05    +0.295 HD
DOCKED: ENDBRANCH  45  47
DOCKED: ENDBRANCH  44  45
DOCKED: ENDBRANCH   8  44
DOCKED: BRANCH  22  49
DOCKED: ATOM     49  C   UNL d   1      -8.122   5.979  -9.159 -0.23 +0.01    +0.048 C 
DOCKED: BRANCH  49  50
DOCKED: ATOM     50  C   UNL d   1      -9.436   6.256  -8.429 -0.16 +0.07    +0.125 C 
DOCKED: BRANCH  50  51
DOCKED: ATOM     51  C   UNL d   1     -10.409   5.129  -8.628 -0.07 +0.31    +0.305 C 
DOCKED: ATOM     52  O   UNL d   1     -10.280   4.156  -9.350 -0.13 -0.18    -0.251 OA
DOCKED: BRANCH  51  53
DOCKED: ATOM     53  O   UNL d   1     -11.530   5.295  -7.898 +0.04 -0.81    -0.481 OA
DOCKED: ATOM     54  H   UNL d   1     -12.184   5.637  -8.542 +0.03 +0.27    +0.295 HD
DOCKED: ENDBRANCH  51  53
DOCKED: ENDBRANCH  50  51
DOCKED: ENDBRANCH  49  50
DOCKED: ENDBRANCH  22  49
DOCKED: TORSDOF 13
DOCKED: TER
DOCKED: ENDMDL
________________________________________________________________________________


	BEGINNING GENETIC ALGORITHM DOCKING 29 of 100
Run: 29 Seed: 1678309640 553968190 [ Run 29 of 100 GA/GALS ]
Beginning LAMARCKIAN GENETIC ALGORITHM (LGA), with a maximum of 25000000 energy evaluations.

Final-Value: -11.226


	FINAL GENETIC ALGORITHM DOCKED STATE
	_______________________________________________


Detailed state:  trans 10.988 16.563 -6.364 quatxyzw 0.634308 0.025080 0.573103 0.518244 center 0.153 0.018 -0.028 ntor 13 -173.9697 -160.2581 -148.6456 41.5120 -159.6617 -7.0455 134.0891 96.9539 5.9541 -3.3041 -28.1019 -21.0419 3.2690
State:	 10.988  16.563  -6.364   0.742  0.029  0.670 117.571   -173.97 -160.26 -148.65   41.51 -159.66   -7.05  134.09   96.95    5.95   -3.30  -28.10  -21.04    3.27

DOCKED: MODEL       29
DOCKED: USER    Run = 29
DOCKED: USER    DPF = D:/Protein_go_brrr/autodock/final/mut_K82N/heme/dock.dpf
DOCKED: USER  
DOCKED: USER    Estimated Free Energy of Binding    =   -3.51 kcal/mol  [=(1)+(2)+(3)-(4)]
DOCKED: USER    Estimated Inhibition Constant, Ki   =    2.68 mM (millimolar)  [Temperature = 298.15 K]
DOCKED: USER    
DOCKED: USER    (1) Final Intermolecular Energy     =   -7.39 kcal/mol
DOCKED: USER        vdW + Hbond + desolv Energy     =   -7.26 kcal/mol
DOCKED: USER        Electrostatic Energy            =   -0.13 kcal/mol
DOCKED: USER    (2) Final Total Internal Energy     =   -3.84 kcal/mol
DOCKED: USER    (3) Torsional Free Energy           =   +3.88 kcal/mol
DOCKED: USER    (4) Unbound System's Energy  [=(2)] =   -3.84 kcal/mol
DOCKED: USER    
DOCKED: USER    
DOCKED: USER    NEWDPF move heme_opt.pdbqt
DOCKED: USER    NEWDPF about 0.153000 0.018000 -0.028000
DOCKED: USER    NEWDPF tran0 10.987609 16.562988 -6.363616
DOCKED: USER    NEWDPF quaternion0 0.634308 0.025080 0.573103 0.518244
DOCKED: USER    NEWDPF axisangle0 0.741679 0.029325 0.670114 117.570863
DOCKED: USER    NEWDPF quat0 0.741679 0.029325 0.670114 117.570863
DOCKED: USER    NEWDPF dihe0 -173.97 -160.26 -148.65 41.51 -159.66 -7.05 134.09 96.95 5.95 -3.30 -28.10 -21.04 3.27 
DOCKED: USER  keepresnum = 1 
DOCKED: USER  
DOCKED: REMARK  13 active torsions:
DOCKED: REMARK  status: ('A' for Active; 'I' for Inactive)
DOCKED: REMARK    1  A    between atoms: O_3  and  C_38 
DOCKED: REMARK    2  A    between atoms: O_4  and  C_40 
DOCKED: REMARK    3  A    between atoms: O_7  and  C_46 
DOCKED: REMARK    4  A    between atoms: O_9  and  C_48 
DOCKED: REMARK    5  A    between atoms: C_15  and  C_20 
DOCKED: REMARK    6  A    between atoms: C_16  and  C_23 
DOCKED: REMARK    7  A    between atoms: C_20  and  C_38 
DOCKED: REMARK    8  A    between atoms: C_23  and  C_40 
DOCKED: REMARK    9  A    between atoms: C_32  and  C_41 
DOCKED: REMARK   10  A    between atoms: C_37  and  C_45 
DOCKED: REMARK   11  A    between atoms: C_41  and  C_44 
DOCKED: REMARK   12  A    between atoms: C_44  and  C_46 
DOCKED: REMARK   13  A    between atoms: C_47  and  C_48 
DOCKED: USER                              x       y       z     vdW  Elec       q    Type
DOCKED: USER                           _______ _______ _______ _____ _____    ______ ____
DOCKED: ROOT
DOCKED: ATOM      1  O   UNL d   1      10.581  19.383 -11.525 -0.00 +0.02    -0.289 OA
DOCKED: ATOM      2  O   UNL d   1       5.940  19.210  -5.624 -0.79 +0.09    -0.289 OA
DOCKED: ATOM      3  N   UNL d   1      11.182  17.452  -8.731 -0.07 +0.01    -0.247 NA
DOCKED: ATOM      4  N   UNL d   1       9.017  18.259  -6.864 -0.08 +0.02    -0.247 NA
DOCKED: ATOM      5  N   UNL d   1      10.460  16.931  -4.762 -0.07 +0.05    -0.354 N 
DOCKED: ATOM      6  N   UNL d   1      12.712  16.115  -6.702 -0.05 +0.01    -0.354 N 
DOCKED: ATOM      7  C   UNL d   1      12.439  17.987 -10.766 -0.02 -0.00    +0.084 A 
DOCKED: ATOM      8  C   UNL d   1       6.954  19.122  -7.850 -0.19 -0.02    +0.084 A 
DOCKED: ATOM      9  C   UNL d   1       8.395  18.636  -8.034 -0.13 -0.01    +0.058 A 
DOCKED: ATOM     10  C   UNL d   1      12.365  17.254  -9.424 -0.06 -0.00    +0.058 A 
DOCKED: ATOM     11  C   UNL d   1      11.080  18.619 -10.719 -0.01 -0.01    +0.193 A 
DOCKED: ATOM     12  C   UNL d   1      10.408  18.198  -9.449 -0.07 -0.01    +0.109 A 
DOCKED: ATOM     13  C   UNL d   1       6.885  18.987  -6.355 -0.23 -0.05    +0.193 A 
DOCKED: ATOM     14  C   UNL d   1      13.499  19.091 -10.761 -0.01 -0.00    +0.026 C 
DOCKED: ATOM     15  C   UNL d   1       9.013  18.628  -9.225 -0.10 -0.01    +0.055 C 
DOCKED: ATOM     16  C   UNL d   1       5.945  18.157  -8.479 -0.18 -0.01    +0.026 C 
DOCKED: ATOM     17  C   UNL d   1       8.200  18.462  -5.880 -0.17 -0.02    +0.109 A 
DOCKED: ATOM     18  C   UNL d   1      13.345  16.423  -9.022 -0.07 -0.00    +0.050 C 
DOCKED: ATOM     19  C   UNL d   1      13.326  15.640  -7.839 -0.11 -0.00    +0.045 A 
DOCKED: ATOM     20  C   UNL d   1       9.506  17.577  -4.020 -0.25 -0.01    +0.045 A 
DOCKED: ATOM     21  C   UNL d   1       8.442  18.268  -4.442 -0.30 -0.01    +0.057 C 
DOCKED: ATOM     22  C   UNL d   1      11.015  16.613  -2.602 -0.21 +0.00    -0.019 A 
DOCKED: ATOM     23  C   UNL d   1      11.414  16.319  -3.993 -0.22 -0.01    +0.045 A 
DOCKED: ATOM     24  C   UNL d   1       9.883  17.357  -2.625 -0.24 +0.01    -0.022 A 
DOCKED: ATOM     25  C   UNL d   1      12.891  15.240  -5.655 -0.14 -0.00    +0.049 A 
DOCKED: ATOM     26  C   UNL d   1      13.886  14.409  -7.534 -0.14 +0.00    -0.018 A 
DOCKED: ATOM     27  C   UNL d   1      13.592  14.152  -6.160 -0.20 -0.00    +0.003 A 
DOCKED: ATOM     28  C   UNL d   1      12.483  15.585  -4.339 -0.22 -0.01    +0.052 C 
DOCKED: ATOM     29  C   UNL d   1       9.093  17.888  -1.478 -0.29 -0.01    +0.046 C 
DOCKED: ATOM     30  C   UNL d   1      14.647  13.523  -8.462 -0.12 -0.00    +0.046 C 
DOCKED: ATOM     31  H   UNL d   1      10.388  16.867  -5.771 +0.07 -0.01    +0.166 HD
DOCKED: ATOM     32  H   UNL d   1      12.236  17.007  -6.653 +0.03 -0.01    +0.166 HD
DOCKED: ENDROOT
DOCKED: BRANCH   7  33
DOCKED: ATOM     33  C   UNL d   1      12.570  17.087 -12.000 -0.01 -0.01    +0.141 C 
DOCKED: BRANCH  33  34
DOCKED: ATOM     34  C   UNL d   1      11.495  16.036 -12.067 -0.02 -0.01    +0.306 C 
DOCKED: ATOM     35  O   UNL d   1      11.634  14.848 -11.831 -0.06 -0.00    -0.251 OA
DOCKED: BRANCH  34  36
DOCKED: ATOM     36  O   UNL d   1      10.300  16.538 -12.426 +0.00 +0.02    -0.481 OA
DOCKED: ATOM     37  H   UNL d   1      10.476  17.486 -12.607 +0.02 -0.01    +0.295 HD
DOCKED: ENDBRANCH  34  36
DOCKED: ENDBRANCH  33  34
DOCKED: ENDBRANCH   7  33
DOCKED: BRANCH  27  38
DOCKED: ATOM     38  C   UNL d   1      14.001  12.989  -5.431 -0.25 -0.00    +0.017 C 
DOCKED: ATOM     39  C   UNL d   1      13.494  12.596  -4.253 -0.19 -0.02    +0.092 C 
DOCKED: BRANCH  39  40
DOCKED: ATOM     40  C   UNL d   1      13.989  11.372  -3.618 -0.18 -0.07    +0.330 C 
DOCKED: ATOM     41  O   UNL d   1      14.733  10.535  -4.094 -0.14 +0.03    -0.246 OA
DOCKED: BRANCH  40  42
DOCKED: ATOM     42  O   UNL d   1      13.509  11.273  -2.369 -0.12 +0.11    -0.477 OA
DOCKED: ATOM     43  H   UNL d   1      12.731  11.868  -2.369 -0.42 -0.14    +0.295 HD
DOCKED: ENDBRANCH  40  42
DOCKED: ENDBRANCH  39  40
DOCKED: ENDBRANCH  27  38
DOCKED: BRANCH   8  44
DOCKED: ATOM     44  C   UNL d   1       6.684  20.567  -8.284 -0.13 -0.03    +0.141 C 
DOCKED: BRANCH  44  45
DOCKED: ATOM     45  C   UNL d   1       7.627  21.561  -7.659 -0.06 -0.06    +0.306 C 
DOCKED: ATOM     46  O   UNL d   1       8.698  21.929  -8.109 -0.02 +0.04    -0.251 OA
DOCKED: BRANCH  45  47
DOCKED: ATOM     47  O   UNL d   1       7.179  22.021  -6.476 +0.01 +0.18    -0.481 OA
DOCKED: ATOM     48  H   UNL d   1       6.658  21.279  -6.102 -0.31 -0.14    +0.295 HD
DOCKED: ENDBRANCH  45  47
DOCKED: ENDBRANCH  44  45
DOCKED: ENDBRANCH   8  44
DOCKED: BRANCH  22  49
DOCKED: ATOM     49  C   UNL d   1      11.776  16.156  -1.392 -0.22 -0.01    +0.048 C 
DOCKED: BRANCH  49  50
DOCKED: ATOM     50  C   UNL d   1      11.471  14.699  -1.045 -0.27 -0.03    +0.125 C 
DOCKED: BRANCH  50  51
DOCKED: ATOM     51  C   UNL d   1      12.630  14.064  -0.331 -0.17 -0.03    +0.305 C 
DOCKED: ATOM     52  O   UNL d   1      12.828  14.018   0.871 -0.10 +0.01    -0.251 OA
DOCKED: BRANCH  51  53
DOCKED: ATOM     53  O   UNL d   1      13.512  13.514  -1.189 -0.07 +0.06    -0.481 OA
DOCKED: ATOM     54  H   UNL d   1      13.763  12.667  -0.763 +0.08 -0.03    +0.295 HD
DOCKED: ENDBRANCH  51  53
DOCKED: ENDBRANCH  50  51
DOCKED: ENDBRANCH  49  50
DOCKED: ENDBRANCH  22  49
DOCKED: TORSDOF 13
DOCKED: TER
DOCKED: ENDMDL
________________________________________________________________________________


	BEGINNING GENETIC ALGORITHM DOCKING 30 of 100
Run: 30 Seed: 1927159798 1745109212 [ Run 30 of 100 GA/GALS ]
Beginning LAMARCKIAN GENETIC ALGORITHM (LGA), with a maximum of 25000000 energy evaluations.

Final-Value: -13.497


	FINAL GENETIC ALGORITHM DOCKED STATE
	_______________________________________________


Detailed state:  trans 2.916 6.900 18.024 quatxyzw 0.180725 -0.182144 -0.944968 0.202970 center 0.153 0.018 -0.028 ntor 13 -133.6867 -161.1176 -126.9729 -58.1703 25.3704 -99.4948 126.4880 -81.8204 126.7924 -19.6519 -99.1807 34.4118 3.9500
State:	  2.916   6.900  18.024   0.185 -0.186 -0.965 156.579   -133.69 -161.12 -126.97  -58.17   25.37  -99.49  126.49  -81.82  126.79  -19.65  -99.18   34.41    3.95

DOCKED: MODEL       30
DOCKED: USER    Run = 30
DOCKED: USER    DPF = D:/Protein_go_brrr/autodock/final/mut_K82N/heme/dock.dpf
DOCKED: USER  
DOCKED: USER    Estimated Free Energy of Binding    =   -5.43 kcal/mol  [=(1)+(2)+(3)-(4)]
DOCKED: USER    Estimated Inhibition Constant, Ki   =  104.20 uM (micromolar)  [Temperature = 298.15 K]
DOCKED: USER    
DOCKED: USER    (1) Final Intermolecular Energy     =   -9.31 kcal/mol
DOCKED: USER        vdW + Hbond + desolv Energy     =   -8.65 kcal/mol
DOCKED: USER        Electrostatic Energy            =   -0.66 kcal/mol
DOCKED: USER    (2) Final Total Internal Energy     =   -4.19 kcal/mol
DOCKED: USER    (3) Torsional Free Energy           =   +3.88 kcal/mol
DOCKED: USER    (4) Unbound System's Energy  [=(2)] =   -4.19 kcal/mol
DOCKED: USER    
DOCKED: USER    
DOCKED: USER    NEWDPF move heme_opt.pdbqt
DOCKED: USER    NEWDPF about 0.153000 0.018000 -0.028000
DOCKED: USER    NEWDPF tran0 2.915672 6.900337 18.024258
DOCKED: USER    NEWDPF quaternion0 0.180725 -0.182144 -0.944968 0.202970
DOCKED: USER    NEWDPF axisangle0 0.184567 -0.186016 -0.965056 156.578677
DOCKED: USER    NEWDPF quat0 0.184567 -0.186016 -0.965056 156.578677
DOCKED: USER    NEWDPF dihe0 -133.69 -161.12 -126.97 -58.17 25.37 -99.49 126.49 -81.82 126.79 -19.65 -99.18 34.41 3.95 
DOCKED: USER  keepresnum = 1 
DOCKED: USER  
DOCKED: REMARK  13 active torsions:
DOCKED: REMARK  status: ('A' for Active; 'I' for Inactive)
DOCKED: REMARK    1  A    between atoms: O_3  and  C_38 
DOCKED: REMARK    2  A    between atoms: O_4  and  C_40 
DOCKED: REMARK    3  A    between atoms: O_7  and  C_46 
DOCKED: REMARK    4  A    between atoms: O_9  and  C_48 
DOCKED: REMARK    5  A    between atoms: C_15  and  C_20 
DOCKED: REMARK    6  A    between atoms: C_16  and  C_23 
DOCKED: REMARK    7  A    between atoms: C_20  and  C_38 
DOCKED: REMARK    8  A    between atoms: C_23  and  C_40 
DOCKED: REMARK    9  A    between atoms: C_32  and  C_41 
DOCKED: REMARK   10  A    between atoms: C_37  and  C_45 
DOCKED: REMARK   11  A    between atoms: C_41  and  C_44 
DOCKED: REMARK   12  A    between atoms: C_44  and  C_46 
DOCKED: REMARK   13  A    between atoms: C_47  and  C_48 
DOCKED: USER                              x       y       z     vdW  Elec       q    Type
DOCKED: USER                           _______ _______ _______ _____ _____    ______ ____
DOCKED: ROOT
DOCKED: ATOM      1  O   UNL d   1       6.765   3.950  21.376 -0.58 -0.06    -0.289 OA
DOCKED: ATOM      2  O   UNL d   1       7.781   9.522  16.444 -0.15 +0.06    -0.289 OA
DOCKED: ATOM      3  N   UNL d   1       4.188   5.295  19.519 -0.18 +0.09    -0.247 NA
DOCKED: ATOM      4  N   UNL d   1       5.473   7.581  18.122 -0.15 +0.09    -0.247 NA
DOCKED: ATOM      5  N   UNL d   1       2.843   8.524  17.444 -0.09 +0.13    -0.354 N 
DOCKED: ATOM      6  N   UNL d   1       1.518   6.160  18.912 -0.05 +0.15    -0.354 N 
DOCKED: ATOM      7  C   UNL d   1       4.339   3.656  21.336 -0.20 -0.03    +0.084 A 
DOCKED: ATOM      8  C   UNL d   1       7.880   7.440  17.729 -0.18 -0.01    +0.084 A 
DOCKED: ATOM      9  C   UNL d   1       6.615   6.850  18.361 -0.24 -0.01    +0.058 A 
DOCKED: ATOM     10  C   UNL d   1       3.474   4.448  20.350 -0.21 -0.02    +0.058 A 
DOCKED: ATOM     11  C   UNL d   1       5.670   4.192  20.902 -0.21 -0.01    +0.193 A 
DOCKED: ATOM     12  C   UNL d   1       5.448   5.156  19.778 -0.25 -0.02    +0.109 A 
DOCKED: ATOM     13  C   UNL d   1       7.251   8.661  17.119 -0.14 -0.05    +0.193 A 
DOCKED: ATOM     14  C   UNL d   1       4.086   4.074  22.787 -0.08 -0.00    +0.026 C 
DOCKED: ATOM     15  C   UNL d   1       6.632   5.746  19.123 -0.22 -0.00    +0.055 C 
DOCKED: ATOM     16  C   UNL d   1       8.421   6.552  16.604 -0.26 -0.01    +0.026 C 
DOCKED: ATOM     17  C   UNL d   1       5.791   8.631  17.436 -0.14 -0.04    +0.109 A 
DOCKED: ATOM     18  C   UNL d   1       2.146   4.247  20.262 -0.21 -0.02    +0.050 C 
DOCKED: ATOM     19  C   UNL d   1       1.281   4.869  19.327 -0.16 -0.02    +0.045 A 
DOCKED: ATOM     20  C   UNL d   1       3.589   9.608  17.058 -0.17 -0.01    +0.045 A 
DOCKED: ATOM     21  C   UNL d   1       4.919   9.732  17.001 -0.22 -0.02    +0.057 C 
DOCKED: ATOM     22  C   UNL d   1       1.373  10.140  16.893 -0.09 +0.01    -0.019 A 
DOCKED: ATOM     23  C   UNL d   1       1.494   8.750  17.378 -0.14 -0.02    +0.045 A 
DOCKED: ATOM     24  C   UNL d   1       2.617  10.642  16.704 -0.09 +0.01    -0.022 A 
DOCKED: ATOM     25  C   UNL d   1       0.512   6.593  18.080 -0.15 -0.02    +0.049 A 
DOCKED: ATOM     26  C   UNL d   1       0.110   4.439  18.720 -0.21 +0.01    -0.018 A 
DOCKED: ATOM     27  C   UNL d   1      -0.360   5.526  17.919 -0.19 -0.00    +0.003 A 
DOCKED: ATOM     28  C   UNL d   1       0.454   7.947  17.649 -0.15 -0.02    +0.052 C 
DOCKED: ATOM     29  C   UNL d   1       3.013  11.993  16.214 -0.09 -0.01    +0.046 C 
DOCKED: ATOM     30  C   UNL d   1      -0.532   3.102  18.871 -0.26 -0.02    +0.046 C 
DOCKED: ATOM     31  H   UNL d   1       3.281   7.638  17.670 -0.05 -0.08    +0.166 HD
DOCKED: ATOM     32  H   UNL d   1       2.309   6.711  19.223 +0.00 -0.06    +0.166 HD
DOCKED: ENDROOT
DOCKED: BRANCH   7  33
DOCKED: ATOM     33  C   UNL d   1       4.294   2.133  21.174 -0.16 -0.10    +0.141 C 
DOCKED: BRANCH  33  34
DOCKED: ATOM     34  C   UNL d   1       5.263   1.425  22.081 -0.15 -0.08    +0.306 C 
DOCKED: ATOM     35  O   UNL d   1       5.100   1.190  23.266 -0.15 +0.04    -0.251 OA
DOCKED: BRANCH  34  36
DOCKED: ATOM     36  O   UNL d   1       6.387   1.047  21.446 -0.12 -0.03    -0.481 OA
DOCKED: ATOM     37  H   UNL d   1       6.632   1.822  20.897 +0.02 +0.05    +0.295 HD
DOCKED: ENDBRANCH  34  36
DOCKED: ENDBRANCH  33  34
DOCKED: ENDBRANCH   7  33
DOCKED: BRANCH  27  38
DOCKED: ATOM     38  C   UNL d   1      -1.556   5.512  17.131 -0.22 -0.01    +0.017 C 
DOCKED: ATOM     39  C   UNL d   1      -1.599   5.474  15.790 -0.35 -0.03    +0.092 C 
DOCKED: BRANCH  39  40
DOCKED: ATOM     40  C   UNL d   1      -2.892   5.447  15.102 -0.25 -0.12    +0.330 C 
DOCKED: ATOM     41  O   UNL d   1      -3.452   4.486  14.610 -0.67 +0.03    -0.246 OA
DOCKED: BRANCH  40  42
DOCKED: ATOM     42  O   UNL d   1      -3.430   6.676  15.081 -0.14 +0.37    -0.477 OA
DOCKED: ATOM     43  H   UNL d   1      -2.670   7.268  15.256 +0.08 -0.29    +0.295 HD
DOCKED: ENDBRANCH  40  42
DOCKED: ENDBRANCH  39  40
DOCKED: ENDBRANCH  27  38
DOCKED: BRANCH   8  44
DOCKED: ATOM     44  C   UNL d   1       8.991   7.828  18.711 -0.07 -0.00    +0.141 C 
DOCKED: BRANCH  44  45
DOCKED: ATOM     45  C   UNL d   1       8.639   9.017  19.566 +0.00 -0.01    +0.306 C 
DOCKED: ATOM     46  O   UNL d   1       7.971   9.007  20.585 -0.01 +0.00    -0.251 OA
DOCKED: BRANCH  45  47
DOCKED: ATOM     47  O   UNL d   1       9.128  10.168  19.072 +0.01 +0.02    -0.481 OA
DOCKED: ATOM     48  H   UNL d   1       8.824  10.188  18.139 +0.04 -0.02    +0.295 HD
DOCKED: ENDBRANCH  45  47
DOCKED: ENDBRANCH  44  45
DOCKED: ENDBRANCH   8  44
DOCKED: BRANCH  22  49
DOCKED: ATOM     49  C   UNL d   1       0.067  10.846  16.675 -0.08 -0.03    +0.048 C 
DOCKED: BRANCH  49  50
DOCKED: ATOM     50  C   UNL d   1      -0.585  10.440  15.353 -0.02 -0.15    +0.125 C 
DOCKED: BRANCH  50  51
DOCKED: ATOM     51  C   UNL d   1      -1.323   9.140  15.496 -0.01 -0.39    +0.305 C 
DOCKED: ATOM     52  O   UNL d   1      -0.881   8.014  15.351 -0.42 +0.18    -0.251 OA
DOCKED: BRANCH  51  53
DOCKED: ATOM     53  O   UNL d   1      -2.621   9.329  15.810 -0.06 +0.72    -0.481 OA
DOCKED: ATOM     54  H   UNL d   1      -3.108   8.893  15.080 -0.42 -0.77    +0.295 HD
DOCKED: ENDBRANCH  51  53
DOCKED: ENDBRANCH  50  51
DOCKED: ENDBRANCH  49  50
DOCKED: ENDBRANCH  22  49
DOCKED: TORSDOF 13
DOCKED: TER
DOCKED: ENDMDL
________________________________________________________________________________


	BEGINNING GENETIC ALGORITHM DOCKING 31 of 100
Run: 31 Seed: 1835694805 1498410397 [ Run 31 of 100 GA/GALS ]
Beginning LAMARCKIAN GENETIC ALGORITHM (LGA), with a maximum of 25000000 energy evaluations.

Final-Value: -13.096


	FINAL GENETIC ALGORITHM DOCKED STATE
	_______________________________________________


Detailed state:  trans 11.681 4.517 12.197 quatxyzw -0.172181 0.709880 0.015488 0.682777 center 0.153 0.018 -0.028 ntor 13 82.0547 -133.4905 -129.1065 53.7374 -137.2757 34.4364 123.4866 -67.7279 52.4442 -34.9379 -84.3669 -74.8019 -10.7864
State:	 11.681   4.517  12.197  -0.236  0.972  0.021 93.878     82.05 -133.49 -129.11   53.74 -137.28   34.44  123.49  -67.73   52.44  -34.94  -84.37  -74.80  -10.79

DOCKED: MODEL       31
DOCKED: USER    Run = 31
DOCKED: USER    DPF = D:/Protein_go_brrr/autodock/final/mut_K82N/heme/dock.dpf
DOCKED: USER  
DOCKED: USER    Estimated Free Energy of Binding    =   -4.48 kcal/mol  [=(1)+(2)+(3)-(4)]
DOCKED: USER    Estimated Inhibition Constant, Ki   =  523.86 uM (micromolar)  [Temperature = 298.15 K]
DOCKED: USER    
DOCKED: USER    (1) Final Intermolecular Energy     =   -8.35 kcal/mol
DOCKED: USER        vdW + Hbond + desolv Energy     =   -8.20 kcal/mol
DOCKED: USER        Electrostatic Energy            =   -0.16 kcal/mol
DOCKED: USER    (2) Final Total Internal Energy     =   -4.74 kcal/mol
DOCKED: USER    (3) Torsional Free Energy           =   +3.88 kcal/mol
DOCKED: USER    (4) Unbound System's Energy  [=(2)] =   -4.74 kcal/mol
DOCKED: USER    
DOCKED: USER    
DOCKED: USER    NEWDPF move heme_opt.pdbqt
DOCKED: USER    NEWDPF about 0.153000 0.018000 -0.028000
DOCKED: USER    NEWDPF tran0 11.680989 4.517043 12.197490
DOCKED: USER    NEWDPF quaternion0 -0.172181 0.709880 0.015488 0.682777
DOCKED: USER    NEWDPF axisangle0 -0.235662 0.971604 0.021198 93.877966
DOCKED: USER    NEWDPF quat0 -0.235662 0.971604 0.021198 93.877966
DOCKED: USER    NEWDPF dihe0 82.05 -133.49 -129.11 53.74 -137.28 34.44 123.49 -67.73 52.44 -34.94 -84.37 -74.80 -10.79 
DOCKED: USER  keepresnum = 1 
DOCKED: USER  
DOCKED: REMARK  13 active torsions:
DOCKED: REMARK  status: ('A' for Active; 'I' for Inactive)
DOCKED: REMARK    1  A    between atoms: O_3  and  C_38 
DOCKED: REMARK    2  A    between atoms: O_4  and  C_40 
DOCKED: REMARK    3  A    between atoms: O_7  and  C_46 
DOCKED: REMARK    4  A    between atoms: O_9  and  C_48 
DOCKED: REMARK    5  A    between atoms: C_15  and  C_20 
DOCKED: REMARK    6  A    between atoms: C_16  and  C_23 
DOCKED: REMARK    7  A    between atoms: C_20  and  C_38 
DOCKED: REMARK    8  A    between atoms: C_23  and  C_40 
DOCKED: REMARK    9  A    between atoms: C_32  and  C_41 
DOCKED: REMARK   10  A    between atoms: C_37  and  C_45 
DOCKED: REMARK   11  A    between atoms: C_41  and  C_44 
DOCKED: REMARK   12  A    between atoms: C_44  and  C_46 
DOCKED: REMARK   13  A    between atoms: C_47  and  C_48 
DOCKED: USER                              x       y       z     vdW  Elec       q    Type
DOCKED: USER                           _______ _______ _______ _____ _____    ______ ____
DOCKED: ROOT
DOCKED: ATOM      1  O   UNL d   1      10.719   7.457   7.179 -0.11 -0.05    -0.289 OA
DOCKED: ATOM      2  O   UNL d   1      14.324   1.003   8.496 -0.60 -0.04    -0.289 OA
DOCKED: ATOM      3  N   UNL d   1      11.152   6.173  10.350 -0.13 +0.00    -0.247 NA
DOCKED: ATOM      4  N   UNL d   1      12.385   3.516   9.849 -0.09 +0.01    -0.247 NA
DOCKED: ATOM      5  N   UNL d   1      11.822   2.841  12.587 -0.05 +0.03    -0.354 N 
DOCKED: ATOM      6  N   UNL d   1      10.526   5.592  13.093 -0.14 +0.03    -0.354 N 
DOCKED: ATOM      7  C   UNL d   1       9.926   8.074   9.407 -0.25 +0.01    +0.084 A 
DOCKED: ATOM      8  C   UNL d   1      13.658   3.247   7.781 -0.09 -0.00    +0.084 A 
DOCKED: ATOM      9  C   UNL d   1      12.751   4.112   8.663 -0.13 -0.00    +0.058 A 
DOCKED: ATOM     10  C   UNL d   1      10.324   7.246  10.633 -0.25 +0.00    +0.058 A 
DOCKED: ATOM     11  C   UNL d   1      10.690   7.289   8.384 -0.13 +0.02    +0.193 A 
DOCKED: ATOM     12  C   UNL d   1      11.412   6.179   9.084 -0.16 +0.00    +0.109 A 
DOCKED: ATOM     13  C   UNL d   1      13.709   2.037   8.670 -0.09 +0.00    +0.193 A 
DOCKED: ATOM     14  C   UNL d   1       8.430   7.963   9.100 -0.45 +0.01    +0.026 C 
DOCKED: ATOM     15  C   UNL d   1      12.311   5.322   8.285 -0.15 +0.00    +0.055 C 
DOCKED: ATOM     16  C   UNL d   1      15.068   3.835   7.669 -0.03 -0.00    +0.026 C 
DOCKED: ATOM     17  C   UNL d   1      12.891   2.325   9.886 -0.16 -0.01    +0.109 A 
DOCKED: ATOM     18  C   UNL d   1       9.959   7.611  11.876 -0.28 +0.00    +0.050 C 
DOCKED: ATOM     19  C   UNL d   1      10.348   6.957  13.073 -0.25 -0.00    +0.045 A 
DOCKED: ATOM     20  C   UNL d   1      12.207   1.613  12.116 -0.24 -0.01    +0.045 A 
DOCKED: ATOM     21  C   UNL d   1      12.721   1.297  10.923 -0.23 -0.01    +0.057 C 
DOCKED: ATOM     22  C   UNL d   1      11.424   1.373  14.248 -0.37 +0.00    -0.019 A 
DOCKED: ATOM     23  C   UNL d   1      11.335   2.797  13.866 -0.25 -0.01    +0.045 A 
DOCKED: ATOM     24  C   UNL d   1      11.942   0.678  13.208 -0.35 +0.01    -0.022 A 
DOCKED: ATOM     25  C   UNL d   1      10.812   5.161  14.367 -0.22 -0.01    +0.049 A 
DOCKED: ATOM     26  C   UNL d   1      10.560   7.429  14.359 -0.20 +0.00    -0.018 A 
DOCKED: ATOM     27  C   UNL d   1      10.872   6.293  15.168 -0.18 -0.00    +0.003 A 
DOCKED: ATOM     28  C   UNL d   1      10.883   3.773  14.668 -0.31 -0.01    +0.052 C 
DOCKED: ATOM     29  C   UNL d   1      12.234  -0.781  13.115 -0.44 -0.02    +0.046 C 
DOCKED: ATOM     30  C   UNL d   1      10.480   8.848  14.812 -0.15 +0.00    +0.046 C 
DOCKED: ATOM     31  H   UNL d   1      11.973   3.684  12.043 +0.06 -0.01    +0.166 HD
DOCKED: ATOM     32  H   UNL d   1      10.416   5.001  12.277 +0.07 -0.01    +0.166 HD
DOCKED: ENDROOT
DOCKED: BRANCH   7  33
DOCKED: ATOM     33  C   UNL d   1      10.390   9.534   9.422 -0.14 +0.04    +0.141 C 
DOCKED: BRANCH  33  34
DOCKED: ATOM     34  C   UNL d   1      11.622   9.759   8.587 -0.02 +0.06    +0.306 C 
DOCKED: ATOM     35  O   UNL d   1      12.774   9.565   8.937 -0.01 -0.02    -0.251 OA
DOCKED: BRANCH  34  36
DOCKED: ATOM     36  O   UNL d   1      11.337  10.213   7.354 -0.03 -0.15    -0.481 OA
DOCKED: ATOM     37  H   UNL d   1      11.402   9.421   6.778 +0.06 +0.07    +0.295 HD
DOCKED: ENDBRANCH  34  36
DOCKED: ENDBRANCH  33  34
DOCKED: ENDBRANCH   7  33
DOCKED: BRANCH  27  38
DOCKED: ATOM     38  C   UNL d   1      11.146   6.330  16.573 -0.12 -0.00    +0.017 C 
DOCKED: ATOM     39  C   UNL d   1      10.750   5.409  17.464 -0.15 +0.00    +0.092 C 
DOCKED: BRANCH  39  40
DOCKED: ATOM     40  C   UNL d   1      11.113   5.555  18.876 -0.08 +0.04    +0.330 C 
DOCKED: ATOM     41  O   UNL d   1      11.256   6.587  19.504 -0.04 -0.03    -0.246 OA
DOCKED: BRANCH  40  42
DOCKED: ATOM     42  O   UNL d   1      11.272   4.348  19.440 -0.12 -0.11    -0.477 OA
DOCKED: ATOM     43  H   UNL d   1      11.822   3.858  18.795 +0.08 +0.04    +0.295 HD
DOCKED: ENDBRANCH  40  42
DOCKED: ENDBRANCH  39  40
DOCKED: ENDBRANCH  27  38
DOCKED: BRANCH   8  44
DOCKED: ATOM     44  C   UNL d   1      13.094   2.892   6.401 -0.09 -0.00    +0.141 C 
DOCKED: BRANCH  44  45
DOCKED: ATOM     45  C   UNL d   1      12.196   1.684   6.420 -0.19 +0.01    +0.306 C 
DOCKED: ATOM     46  O   UNL d   1      11.029   1.652   6.771 -0.34 +0.00    -0.251 OA
DOCKED: BRANCH  45  47
DOCKED: ATOM     47  O   UNL d   1      12.827   0.566   6.018 -0.08 -0.07    -0.481 OA
DOCKED: ATOM     48  H   UNL d   1      13.653   0.544   6.547 +0.08 +0.04    +0.295 HD
DOCKED: ENDBRANCH  45  47
DOCKED: ENDBRANCH  44  45
DOCKED: ENDBRANCH   8  44
DOCKED: BRANCH  22  49
DOCKED: ATOM     49  C   UNL d   1      10.985   0.829  15.575 -0.08 -0.02    +0.048 C 
DOCKED: BRANCH  49  50
DOCKED: ATOM     50  C   UNL d   1      12.144   0.745  16.568 -0.30 -0.02    +0.125 C 
DOCKED: BRANCH  50  51
DOCKED: ATOM     51  C   UNL d   1      12.171   1.951  17.464 -0.16 -0.02    +0.305 C 
DOCKED: ATOM     52  O   UNL d   1      12.520   3.083  17.176 -0.10 +0.00    -0.251 OA
DOCKED: BRANCH  51  53
DOCKED: ATOM     53  O   UNL d   1      11.758   1.661  18.713 -0.14 -0.03    -0.481 OA
DOCKED: ATOM     54  H   UNL d   1      11.049   2.314  18.888 +0.11 +0.03    +0.295 HD
DOCKED: ENDBRANCH  51  53
DOCKED: ENDBRANCH  50  51
DOCKED: ENDBRANCH  49  50
DOCKED: ENDBRANCH  22  49
DOCKED: TORSDOF 13
DOCKED: TER
DOCKED: ENDMDL
________________________________________________________________________________


	BEGINNING GENETIC ALGORITHM DOCKING 32 of 100
Run: 32 Seed: 1955691812 1956185757 [ Run 32 of 100 GA/GALS ]
Beginning LAMARCKIAN GENETIC ALGORITHM (LGA), with a maximum of 25000000 energy evaluations.

Final-Value: -11.421


	FINAL GENETIC ALGORITHM DOCKED STATE
	_______________________________________________


Detailed state:  trans -8.593 7.290 -12.673 quatxyzw 0.598533 -0.529090 0.598895 -0.056092 center 0.153 0.018 -0.028 ntor 13 96.2160 -66.7236 -98.3860 -11.0699 -133.6865 122.7946 131.6824 39.6554 44.2193 -33.1390 -15.2351 -20.9219 -158.6183
State:	 -8.593   7.290 -12.673   0.599 -0.530  0.600 -173.569     96.22  -66.72  -98.39  -11.07 -133.69  122.79  131.68   39.66   44.22  -33.14  -15.24  -20.92 -158.62

DOCKED: MODEL       32
DOCKED: USER    Run = 32
DOCKED: USER    DPF = D:/Protein_go_brrr/autodock/final/mut_K82N/heme/dock.dpf
DOCKED: USER  
DOCKED: USER    Estimated Free Energy of Binding    =   -5.06 kcal/mol  [=(1)+(2)+(3)-(4)]
DOCKED: USER    Estimated Inhibition Constant, Ki   =  196.82 uM (micromolar)  [Temperature = 298.15 K]
DOCKED: USER    
DOCKED: USER    (1) Final Intermolecular Energy     =   -8.93 kcal/mol
DOCKED: USER        vdW + Hbond + desolv Energy     =   -8.75 kcal/mol
DOCKED: USER        Electrostatic Energy            =   -0.19 kcal/mol
DOCKED: USER    (2) Final Total Internal Energy     =   -2.49 kcal/mol
DOCKED: USER    (3) Torsional Free Energy           =   +3.88 kcal/mol
DOCKED: USER    (4) Unbound System's Energy  [=(2)] =   -2.49 kcal/mol
DOCKED: USER    
DOCKED: USER    
DOCKED: USER    NEWDPF move heme_opt.pdbqt
DOCKED: USER    NEWDPF about 0.153000 0.018000 -0.028000
DOCKED: USER    NEWDPF tran0 -8.592650 7.290199 -12.673279
DOCKED: USER    NEWDPF quaternion0 0.598533 -0.529090 0.598895 -0.056092
DOCKED: USER    NEWDPF axisangle0 0.599477 -0.529925 0.599839 -173.569006
DOCKED: USER    NEWDPF quat0 0.599477 -0.529925 0.599839 -173.569006
DOCKED: USER    NEWDPF dihe0 96.22 -66.72 -98.39 -11.07 -133.69 122.79 131.68 39.66 44.22 -33.14 -15.24 -20.92 -158.62 
DOCKED: USER  keepresnum = 1 
DOCKED: USER  
DOCKED: REMARK  13 active torsions:
DOCKED: REMARK  status: ('A' for Active; 'I' for Inactive)
DOCKED: REMARK    1  A    between atoms: O_3  and  C_38 
DOCKED: REMARK    2  A    between atoms: O_4  and  C_40 
DOCKED: REMARK    3  A    between atoms: O_7  and  C_46 
DOCKED: REMARK    4  A    between atoms: O_9  and  C_48 
DOCKED: REMARK    5  A    between atoms: C_15  and  C_20 
DOCKED: REMARK    6  A    between atoms: C_16  and  C_23 
DOCKED: REMARK    7  A    between atoms: C_20  and  C_38 
DOCKED: REMARK    8  A    between atoms: C_23  and  C_40 
DOCKED: REMARK    9  A    between atoms: C_32  and  C_41 
DOCKED: REMARK   10  A    between atoms: C_37  and  C_45 
DOCKED: REMARK   11  A    between atoms: C_41  and  C_44 
DOCKED: REMARK   12  A    between atoms: C_44  and  C_46 
DOCKED: REMARK   13  A    between atoms: C_47  and  C_48 
DOCKED: USER                              x       y       z     vdW  Elec       q    Type
DOCKED: USER                           _______ _______ _______ _____ _____    ______ ____
DOCKED: ROOT
DOCKED: ATOM      1  O   UNL d   1      -7.794   9.280 -18.165 -0.01 +0.03    -0.289 OA
DOCKED: ATOM      2  O   UNL d   1      -5.500  12.004 -11.554 -0.79 +0.02    -0.289 OA
DOCKED: ATOM      3  N   UNL d   1      -8.630   7.823 -15.153 -0.06 +0.00    -0.247 NA
DOCKED: ATOM      4  N   UNL d   1      -7.052   9.384 -13.178 -0.06 +0.01    -0.247 NA
DOCKED: ATOM      5  N   UNL d   1      -7.636   7.344 -11.237 -0.02 -0.02    -0.354 N 
DOCKED: ATOM      6  N   UNL d   1      -9.256   5.722 -13.298 -0.03 -0.05    -0.354 N 
DOCKED: ATOM      7  C   UNL d   1      -8.954   7.231 -17.509 -0.10 -0.00    +0.084 A 
DOCKED: ATOM      8  C   UNL d   1      -6.454  11.675 -13.784 -0.17 -0.01    +0.084 A 
DOCKED: ATOM      9  C   UNL d   1      -7.077  10.331 -14.177 -0.08 -0.00    +0.058 A 
DOCKED: ATOM     10  C   UNL d   1      -9.149   6.885 -16.030 -0.15 +0.00    +0.058 A 
DOCKED: ATOM     11  C   UNL d   1      -8.251   8.540 -17.313 -0.04 -0.01    +0.193 A 
DOCKED: ATOM     12  C   UNL d   1      -8.138   8.800 -15.843 -0.06 -0.01    +0.109 A 
DOCKED: ATOM     13  C   UNL d   1      -6.038  11.303 -12.388 -0.26 -0.02    +0.193 A 
DOCKED: ATOM     14  C   UNL d   1      -8.002   6.257 -18.207 -0.19 -0.00    +0.026 C 
DOCKED: ATOM     15  C   UNL d   1      -7.557  10.086 -15.406 -0.05 -0.00    +0.055 C 
DOCKED: ATOM     16  C   UNL d   1      -7.505  12.786 -13.704 -0.12 +0.00    +0.026 C 
DOCKED: ATOM     17  C   UNL d   1      -6.451   9.887 -12.148 -0.19 -0.01    +0.109 A 
DOCKED: ATOM     18  C   UNL d   1      -9.848   5.800 -15.647 -0.23 +0.01    +0.050 C 
DOCKED: ATOM     19  C   UNL d   1     -10.150   5.446 -14.308 -0.21 +0.01    +0.045 A 
DOCKED: ATOM     20  C   UNL d   1      -6.700   8.067 -10.545 -0.23 -0.00    +0.045 A 
DOCKED: ATOM     21  C   UNL d   1      -6.132   9.233 -10.870 -0.32 -0.01    +0.057 C 
DOCKED: ATOM     22  C   UNL d   1      -7.197   6.177  -9.362 -0.24 -0.00    -0.019 A 
DOCKED: ATOM     23  C   UNL d   1      -7.998   6.186 -10.602 -0.14 +0.01    +0.045 A 
DOCKED: ATOM     24  C   UNL d   1      -6.431   7.293  -9.333 -0.31 -0.00    -0.022 A 
DOCKED: ATOM     25  C   UNL d   1      -9.707   5.215 -12.101 -0.20 +0.01    +0.049 A 
DOCKED: ATOM     26  C   UNL d   1     -11.226   4.776 -13.747 -0.17 -0.01    -0.018 A 
DOCKED: ATOM     27  C   UNL d   1     -10.950   4.650 -12.350 -0.16 +0.00    +0.003 A 
DOCKED: ATOM     28  C   UNL d   1      -8.883   5.237 -10.943 -0.23 +0.01    +0.052 C 
DOCKED: ATOM     29  C   UNL d   1      -5.468   7.737  -8.285 -0.31 -0.00    +0.046 C 
DOCKED: ATOM     30  C   UNL d   1     -12.439   4.284 -14.462 -0.16 +0.02    +0.046 C 
DOCKED: ATOM     31  H   UNL d   1      -8.054   7.704 -12.089 +0.04 +0.01    +0.166 HD
DOCKED: ATOM     32  H   UNL d   1      -8.373   6.197 -13.445 +0.12 +0.01    +0.166 HD
DOCKED: ENDROOT
DOCKED: BRANCH   7  33
DOCKED: ATOM     33  C   UNL d   1     -10.244   7.429 -18.312 -0.04 +0.00    +0.141 C 
DOCKED: BRANCH  33  34
DOCKED: ATOM     34  C   UNL d   1     -10.698   8.864 -18.336 -0.00 +0.00    +0.306 C 
DOCKED: ATOM     35  O   UNL d   1     -11.295   9.445 -17.446 -0.00 -0.00    -0.251 OA
DOCKED: BRANCH  34  36
DOCKED: ATOM     36  O   UNL d   1     -10.371   9.491 -19.480 +0.00 +0.01    -0.481 OA
DOCKED: ATOM     37  H   UNL d   1      -9.460   9.822 -19.328 +0.01 -0.02    +0.295 HD
DOCKED: ENDBRANCH  34  36
DOCKED: ENDBRANCH  33  34
DOCKED: ENDBRANCH   7  33
DOCKED: BRANCH  27  38
DOCKED: ATOM     38  C   UNL d   1     -11.800   4.004 -11.396 -0.14 +0.01    +0.017 C 
DOCKED: ATOM     39  C   UNL d   1     -11.708   4.134 -10.064 -0.12 +0.05    +0.092 C 
DOCKED: BRANCH  39  40
DOCKED: ATOM     40  C   UNL d   1     -12.654   3.430  -9.194 -0.06 +0.26    +0.330 C 
DOCKED: ATOM     41  O   UNL d   1     -12.403   2.614  -8.329 -0.54 -0.32    -0.246 OA
DOCKED: BRANCH  40  42
DOCKED: ATOM     42  O   UNL d   1     -13.910   3.817  -9.469 -0.00 -0.24    -0.477 OA
DOCKED: ATOM     43  H   UNL d   1     -14.326   3.014  -9.844 +0.02 +0.12    +0.295 HD
DOCKED: ENDBRANCH  40  42
DOCKED: ENDBRANCH  39  40
DOCKED: ENDBRANCH  27  38
DOCKED: BRANCH   8  44
DOCKED: ATOM     44  C   UNL d   1      -5.247  12.113 -14.619 -0.22 -0.04    +0.141 C 
DOCKED: BRANCH  44  45
DOCKED: ATOM     45  C   UNL d   1      -3.953  11.493 -14.162 -0.28 -0.12    +0.306 C 
DOCKED: ATOM     46  O   UNL d   1      -3.495  10.421 -14.519 -0.24 +0.09    -0.251 OA
DOCKED: BRANCH  45  47
DOCKED: ATOM     47  O   UNL d   1      -3.312  12.250 -13.254 -0.71 +0.14    -0.481 OA
DOCKED: ATOM     48  H   UNL d   1      -3.760  12.050 -12.404 +0.14 -0.04    +0.295 HD
DOCKED: ENDBRANCH  45  47
DOCKED: ENDBRANCH  44  45
DOCKED: ENDBRANCH   8  44
DOCKED: BRANCH  22  49
DOCKED: ATOM     49  C   UNL d   1      -7.242   5.081  -8.338 -0.22 +0.01    +0.048 C 
DOCKED: BRANCH  49  50
DOCKED: ATOM     50  C   UNL d   1      -5.888   4.389  -8.184 -0.28 +0.02    +0.125 C 
DOCKED: BRANCH  50  51
DOCKED: ATOM     51  C   UNL d   1      -5.852   3.552  -6.937 +0.02 +0.09    +0.305 C 
DOCKED: ATOM     52  O   UNL d   1      -6.773   2.940  -6.426 -0.28 -0.09    -0.251 OA
DOCKED: BRANCH  51  53
DOCKED: ATOM     53  O   UNL d   1      -4.627   3.538  -6.375 -0.84 -0.19    -0.481 OA
DOCKED: ATOM     54  H   UNL d   1      -4.773   3.132  -5.495 +0.17 +0.07    +0.295 HD
DOCKED: ENDBRANCH  51  53
DOCKED: ENDBRANCH  50  51
DOCKED: ENDBRANCH  49  50
DOCKED: ENDBRANCH  22  49
DOCKED: TORSDOF 13
DOCKED: TER
DOCKED: ENDMDL
________________________________________________________________________________


	BEGINNING GENETIC ALGORITHM DOCKING 33 of 100
Run: 33 Seed: 73311045 2063851962 [ Run 33 of 100 GA/GALS ]
Beginning LAMARCKIAN GENETIC ALGORITHM (LGA), with a maximum of 25000000 energy evaluations.

Final-Value: -12.981


	FINAL GENETIC ALGORITHM DOCKED STATE
	_______________________________________________


Detailed state:  trans 2.898 6.564 17.635 quatxyzw -0.248333 0.212441 0.929317 -0.171959 center 0.153 0.018 -0.028 ntor 13 -128.5731 89.8487 -180.0000 -150.9963 39.0459 -173.9081 -64.1514 -77.6763 92.0419 -156.4995 -178.5335 23.4038 170.8710
State:	  2.898   6.564  17.635  -0.252  0.216  0.943 -160.197   -128.57   89.85 -180.00 -151.00   39.05 -173.91  -64.15  -77.68   92.04 -156.50 -178.53   23.40  170.87

DOCKED: MODEL       33
DOCKED: USER    Run = 33
DOCKED: USER    DPF = D:/Protein_go_brrr/autodock/final/mut_K82N/heme/dock.dpf
DOCKED: USER  
DOCKED: USER    Estimated Free Energy of Binding    =   -6.99 kcal/mol  [=(1)+(2)+(3)-(4)]
DOCKED: USER    Estimated Inhibition Constant, Ki   =    7.52 uM (micromolar)  [Temperature = 298.15 K]
DOCKED: USER    
DOCKED: USER    (1) Final Intermolecular Energy     =  -10.87 kcal/mol
DOCKED: USER        vdW + Hbond + desolv Energy     =  -10.38 kcal/mol
DOCKED: USER        Electrostatic Energy            =   -0.49 kcal/mol
DOCKED: USER    (2) Final Total Internal Energy     =   -2.11 kcal/mol
DOCKED: USER    (3) Torsional Free Energy           =   +3.88 kcal/mol
DOCKED: USER    (4) Unbound System's Energy  [=(2)] =   -2.11 kcal/mol
DOCKED: USER    
DOCKED: USER    
DOCKED: USER    NEWDPF move heme_opt.pdbqt
DOCKED: USER    NEWDPF about 0.153000 0.018000 -0.028000
DOCKED: USER    NEWDPF tran0 2.897544 6.563551 17.634709
DOCKED: USER    NEWDPF quaternion0 -0.248333 0.212441 0.929317 -0.171959
DOCKED: USER    NEWDPF axisangle0 -0.252088 0.215653 0.943369 -160.196574
DOCKED: USER    NEWDPF quat0 -0.252088 0.215653 0.943369 -160.196574
DOCKED: USER    NEWDPF dihe0 -128.57 89.85 -180.00 -151.00 39.05 -173.91 -64.15 -77.68 92.04 -156.50 -178.53 23.40 170.87 
DOCKED: USER  keepresnum = 1 
DOCKED: USER  
DOCKED: REMARK  13 active torsions:
DOCKED: REMARK  status: ('A' for Active; 'I' for Inactive)
DOCKED: REMARK    1  A    between atoms: O_3  and  C_38 
DOCKED: REMARK    2  A    between atoms: O_4  and  C_40 
DOCKED: REMARK    3  A    between atoms: O_7  and  C_46 
DOCKED: REMARK    4  A    between atoms: O_9  and  C_48 
DOCKED: REMARK    5  A    between atoms: C_15  and  C_20 
DOCKED: REMARK    6  A    between atoms: C_16  and  C_23 
DOCKED: REMARK    7  A    between atoms: C_20  and  C_38 
DOCKED: REMARK    8  A    between atoms: C_23  and  C_40 
DOCKED: REMARK    9  A    between atoms: C_32  and  C_41 
DOCKED: REMARK   10  A    between atoms: C_37  and  C_45 
DOCKED: REMARK   11  A    between atoms: C_41  and  C_44 
DOCKED: REMARK   12  A    between atoms: C_44  and  C_46 
DOCKED: REMARK   13  A    between atoms: C_47  and  C_48 
DOCKED: USER                              x       y       z     vdW  Elec       q    Type
DOCKED: USER                           _______ _______ _______ _____ _____    ______ ____
DOCKED: ROOT
DOCKED: ATOM      1  O   UNL d   1       6.515   4.237  21.667 -0.25 -0.04    -0.289 OA
DOCKED: ATOM      2  O   UNL d   1       7.743   9.358  16.314 -0.18 +0.07    -0.289 OA
DOCKED: ATOM      3  N   UNL d   1       4.088   5.206  19.416 -0.18 +0.10    -0.247 NA
DOCKED: ATOM      4  N   UNL d   1       5.382   7.431  17.932 -0.17 +0.10    -0.247 NA
DOCKED: ATOM      5  N   UNL d   1       2.793   8.114  16.883 -0.14 +0.15    -0.354 N 
DOCKED: ATOM      6  N   UNL d   1       1.456   5.816  18.442 +0.12 +0.19    -0.354 N 
DOCKED: ATOM      7  C   UNL d   1       4.131   3.768  21.401 -0.17 -0.03    +0.084 A 
DOCKED: ATOM      8  C   UNL d   1       7.822   7.425  17.813 -0.18 -0.01    +0.084 A 
DOCKED: ATOM      9  C   UNL d   1       6.532   6.810  18.365 -0.25 -0.01    +0.058 A 
DOCKED: ATOM     10  C   UNL d   1       3.337   4.396  20.251 -0.22 -0.02    +0.058 A 
DOCKED: ATOM     11  C   UNL d   1       5.468   4.353  21.057 -0.18 -0.02    +0.193 A 
DOCKED: ATOM     12  C   UNL d   1       5.316   5.184  19.821 -0.24 -0.02    +0.109 A 
DOCKED: ATOM     13  C   UNL d   1       7.193   8.532  17.015 -0.09 -0.06    +0.193 A 
DOCKED: ATOM     14  C   UNL d   1       3.691   4.307  22.764 -0.07 -0.00    +0.026 C 
DOCKED: ATOM     15  C   UNL d   1       6.529   5.790  19.236 -0.26 -0.00    +0.055 C 
DOCKED: ATOM     16  C   UNL d   1       8.539   6.471  16.851 -0.23 -0.00    +0.026 C 
DOCKED: ATOM     17  C   UNL d   1       5.711   8.430  17.177 -0.03 -0.05    +0.109 A 
DOCKED: ATOM     18  C   UNL d   1       2.041   4.093  20.044 -0.24 -0.02    +0.050 C 
DOCKED: ATOM     19  C   UNL d   1       1.251   4.558  18.962 -0.18 -0.02    +0.045 A 
DOCKED: ATOM     20  C   UNL d   1       3.511   9.205  16.467 -0.27 -0.02    +0.045 A 
DOCKED: ATOM     21  C   UNL d   1       4.829   9.417  16.538 -0.28 -0.02    +0.057 C 
DOCKED: ATOM     22  C   UNL d   1       1.301   9.559  16.012 -0.20 +0.01    -0.019 A 
DOCKED: ATOM     23  C   UNL d   1       1.449   8.236  16.651 -0.24 -0.02    +0.045 A 
DOCKED: ATOM     24  C   UNL d   1       2.525  10.127  15.905 -0.21 +0.01    -0.022 A 
DOCKED: ATOM     25  C   UNL d   1       0.525   6.093  17.467 -0.16 -0.02    +0.049 A 
DOCKED: ATOM     26  C   UNL d   1       0.185   3.989  18.283 -0.28 +0.01    -0.018 A 
DOCKED: ATOM     27  C   UNL d   1      -0.257   4.955  17.327 -0.30 -0.00    +0.003 A 
DOCKED: ATOM     28  C   UNL d   1       0.436   7.390  16.893 -0.25 -0.02    +0.052 C 
DOCKED: ATOM     29  C   UNL d   1       2.892  11.449  15.321 -0.16 -0.02    +0.046 C 
DOCKED: ATOM     30  C   UNL d   1      -0.389   2.630  18.504 -0.20 -0.02    +0.046 C 
DOCKED: ATOM     31  H   UNL d   1       3.256   7.287  17.246 -0.28 -0.10    +0.166 HD
DOCKED: ATOM     32  H   UNL d   1       2.172   6.450  18.775 -0.13 -0.08    +0.166 HD
DOCKED: ENDROOT
DOCKED: BRANCH   7  33
DOCKED: ATOM     33  C   UNL d   1       4.196   2.237  21.395 -0.20 -0.10    +0.141 C 
DOCKED: BRANCH  33  34
DOCKED: ATOM     34  C   UNL d   1       5.554   1.714  21.777 -0.26 -0.05    +0.306 C 
DOCKED: ATOM     35  O   UNL d   1       5.914   1.396  22.898 -0.22 +0.00    -0.251 OA
DOCKED: BRANCH  34  36
DOCKED: ATOM     36  O   UNL d   1       6.386   1.615  20.726 -0.27 -0.03    -0.481 OA
DOCKED: ATOM     37  H   UNL d   1       6.315   2.483  20.273 -0.28 -0.01    +0.295 HD
DOCKED: ENDBRANCH  34  36
DOCKED: ENDBRANCH  33  34
DOCKED: ENDBRANCH   7  33
DOCKED: BRANCH  27  38
DOCKED: ATOM     38  C   UNL d   1      -1.353   4.780  16.422 -0.38 -0.01    +0.017 C 
DOCKED: ATOM     39  C   UNL d   1      -1.265   4.817  15.084 -0.49 -0.03    +0.092 C 
DOCKED: BRANCH  39  40
DOCKED: ATOM     40  C   UNL d   1      -2.464   4.604  14.268 -0.22 -0.06    +0.330 C 
DOCKED: ATOM     41  O   UNL d   1      -2.536   4.540  13.055 -0.90 -0.01    -0.246 OA
DOCKED: BRANCH  40  42
DOCKED: ATOM     42  O   UNL d   1      -3.541   4.470  15.056 -0.41 +0.13    -0.477 OA
DOCKED: ATOM     43  H   UNL d   1      -3.590   3.507  15.227 -0.41 -0.18    +0.295 HD
DOCKED: ENDBRANCH  40  42
DOCKED: ENDBRANCH  39  40
DOCKED: ENDBRANCH  27  38
DOCKED: BRANCH   8  44
DOCKED: ATOM     44  C   UNL d   1       8.789   7.985  18.861 -0.06 -0.00    +0.141 C 
DOCKED: BRANCH  44  45
DOCKED: ATOM     45  C   UNL d   1      10.223   7.994  18.403 -0.01 +0.00    +0.306 C 
DOCKED: ATOM     46  O   UNL d   1      11.117   7.266  18.798 -0.02 -0.01    -0.251 OA
DOCKED: BRANCH  45  47
DOCKED: ATOM     47  O   UNL d   1      10.463   8.945  17.482 +0.01 +0.01    -0.481 OA
DOCKED: ATOM     48  H   UNL d   1       9.596   9.383  17.346 +0.05 -0.02    +0.295 HD
DOCKED: ENDBRANCH  45  47
DOCKED: ENDBRANCH  44  45
DOCKED: ENDBRANCH   8  44
DOCKED: BRANCH  22  49
DOCKED: ATOM     49  C   UNL d   1      -0.012  10.145  15.584 -0.19 -0.04    +0.048 C 
DOCKED: BRANCH  49  50
DOCKED: ATOM     50  C   UNL d   1      -0.689  10.913  16.719 -0.06 -0.08    +0.125 C 
DOCKED: BRANCH  50  51
DOCKED: ATOM     51  C   UNL d   1       0.172  10.922  17.950 +0.00 -0.11    +0.305 C 
DOCKED: ATOM     52  O   UNL d   1       0.251  10.061  18.808 -0.00 +0.07    -0.251 OA
DOCKED: BRANCH  51  53
DOCKED: ATOM     53  O   UNL d   1       0.902  12.051  18.046 +0.01 +0.13    -0.481 OA
DOCKED: ATOM     54  H   UNL d   1       0.361  12.725  17.583 +0.02 -0.09    +0.295 HD
DOCKED: ENDBRANCH  51  53
DOCKED: ENDBRANCH  50  51
DOCKED: ENDBRANCH  49  50
DOCKED: ENDBRANCH  22  49
DOCKED: TORSDOF 13
DOCKED: TER
DOCKED: ENDMDL
________________________________________________________________________________


	BEGINNING GENETIC ALGORITHM DOCKING 34 of 100
Run: 34 Seed: 846360371 989826029 [ Run 34 of 100 GA/GALS ]
Beginning LAMARCKIAN GENETIC ALGORITHM (LGA), with a maximum of 25000000 energy evaluations.

Final-Value: -12.689


	FINAL GENETIC ALGORITHM DOCKED STATE
	_______________________________________________


Detailed state:  trans -3.552 2.816 18.863 quatxyzw 0.294075 -0.879001 0.365684 -0.084572 center 0.153 0.018 -0.028 ntor 13 107.6593 -136.0102 122.1245 -140.3993 10.2015 -17.5244 -36.1924 -23.0467 -23.1555 -117.2271 136.2020 6.0915 30.8725
State:	 -3.552   2.816  18.863   0.295 -0.882  0.367 -170.297    107.66 -136.01  122.12 -140.40   10.20  -17.52  -36.19  -23.05  -23.16 -117.23  136.20    6.09   30.87

DOCKED: MODEL       34
DOCKED: USER    Run = 34
DOCKED: USER    DPF = D:/Protein_go_brrr/autodock/final/mut_K82N/heme/dock.dpf
DOCKED: USER  
DOCKED: USER    Estimated Free Energy of Binding    =   -5.43 kcal/mol  [=(1)+(2)+(3)-(4)]
DOCKED: USER    Estimated Inhibition Constant, Ki   =  103.83 uM (micromolar)  [Temperature = 298.15 K]
DOCKED: USER    
DOCKED: USER    (1) Final Intermolecular Energy     =   -9.31 kcal/mol
DOCKED: USER        vdW + Hbond + desolv Energy     =   -8.55 kcal/mol
DOCKED: USER        Electrostatic Energy            =   -0.76 kcal/mol
DOCKED: USER    (2) Final Total Internal Energy     =   -3.38 kcal/mol
DOCKED: USER    (3) Torsional Free Energy           =   +3.88 kcal/mol
DOCKED: USER    (4) Unbound System's Energy  [=(2)] =   -3.38 kcal/mol
DOCKED: USER    
DOCKED: USER    
DOCKED: USER    NEWDPF move heme_opt.pdbqt
DOCKED: USER    NEWDPF about 0.153000 0.018000 -0.028000
DOCKED: USER    NEWDPF tran0 -3.551621 2.816354 18.862971
DOCKED: USER    NEWDPF quaternion0 0.294075 -0.879001 0.365684 -0.084572
DOCKED: USER    NEWDPF axisangle0 0.295132 -0.882161 0.366999 -170.297213
DOCKED: USER    NEWDPF quat0 0.295132 -0.882161 0.366999 -170.297213
DOCKED: USER    NEWDPF dihe0 107.66 -136.01 122.12 -140.40 10.20 -17.52 -36.19 -23.05 -23.16 -117.23 136.20 6.09 30.87 
DOCKED: USER  keepresnum = 1 
DOCKED: USER  
DOCKED: REMARK  13 active torsions:
DOCKED: REMARK  status: ('A' for Active; 'I' for Inactive)
DOCKED: REMARK    1  A    between atoms: O_3  and  C_38 
DOCKED: REMARK    2  A    between atoms: O_4  and  C_40 
DOCKED: REMARK    3  A    between atoms: O_7  and  C_46 
DOCKED: REMARK    4  A    between atoms: O_9  and  C_48 
DOCKED: REMARK    5  A    between atoms: C_15  and  C_20 
DOCKED: REMARK    6  A    between atoms: C_16  and  C_23 
DOCKED: REMARK    7  A    between atoms: C_20  and  C_38 
DOCKED: REMARK    8  A    between atoms: C_23  and  C_40 
DOCKED: REMARK    9  A    between atoms: C_32  and  C_41 
DOCKED: REMARK   10  A    between atoms: C_37  and  C_45 
DOCKED: REMARK   11  A    between atoms: C_41  and  C_44 
DOCKED: REMARK   12  A    between atoms: C_44  and  C_46 
DOCKED: REMARK   13  A    between atoms: C_47  and  C_48 
DOCKED: USER                              x       y       z     vdW  Elec       q    Type
DOCKED: USER                           _______ _______ _______ _____ _____    ______ ____
DOCKED: ROOT
DOCKED: ATOM      1  O   UNL d   1       0.074   5.866  15.355 -0.29 +0.06    -0.289 OA
DOCKED: ATOM      2  O   UNL d   1       1.308   2.408  21.905 -0.03 +0.26    -0.289 OA
DOCKED: ATOM      3  N   UNL d   1      -2.426   4.298  17.139 -0.13 +0.08    -0.247 NA
DOCKED: ATOM      4  N   UNL d   1      -0.959   2.994  19.370 -0.11 +0.08    -0.247 NA
DOCKED: ATOM      5  N   UNL d   1      -3.332   1.466  19.915 -0.09 +0.02    -0.354 N 
DOCKED: ATOM      6  N   UNL d   1      -4.841   2.809  17.587 -0.05 +0.11    -0.354 N 
DOCKED: ATOM      7  C   UNL d   1      -2.281   5.364  14.937 -0.40 -0.03    +0.084 A 
DOCKED: ATOM      8  C   UNL d   1       1.162   4.000  20.051 -0.16 -0.04    +0.084 A 
DOCKED: ATOM      9  C   UNL d   1      -0.025   3.965  19.083 -0.19 -0.02    +0.058 A 
DOCKED: ATOM     10  C   UNL d   1      -3.118   4.622  15.984 -0.29 -0.02    +0.058 A 
DOCKED: ATOM     11  C   UNL d   1      -1.000   5.417  15.712 -0.25 -0.06    +0.193 A 
DOCKED: ATOM     12  C   UNL d   1      -1.223   4.761  17.040 -0.23 -0.03    +0.109 A 
DOCKED: ATOM     13  C   UNL d   1       0.747   2.845  20.919 -0.06 -0.13    +0.193 A 
DOCKED: ATOM     14  C   UNL d   1      -2.063   4.524  13.676 -0.61 -0.00    +0.026 C 
DOCKED: ATOM     15  C   UNL d   1      -0.117   4.777  18.018 -0.26 -0.02    +0.055 C 
DOCKED: ATOM     16  C   UNL d   1       1.166   5.275  20.899 -0.07 -0.01    +0.026 C 
DOCKED: ATOM     17  C   UNL d   1      -0.550   2.319  20.396 -0.16 -0.05    +0.109 A 
DOCKED: ATOM     18  C   UNL d   1      -4.433   4.401  15.804 -0.28 -0.02    +0.050 C 
DOCKED: ATOM     19  C   UNL d   1      -5.303   3.800  16.750 -0.16 -0.01    +0.045 A 
DOCKED: ATOM     20  C   UNL d   1      -2.443   0.820  20.734 -0.17 +0.00    +0.045 A 
DOCKED: ATOM     21  C   UNL d   1      -1.180   1.150  21.026 -0.22 -0.01    +0.057 C 
DOCKED: ATOM     22  C   UNL d   1      -4.414  -0.333  20.731 -0.15 -0.00    -0.019 A 
DOCKED: ATOM     23  C   UNL d   1      -4.550   0.843  19.849 -0.17 -0.00    +0.045 A 
DOCKED: ATOM     24  C   UNL d   1      -3.165  -0.341  21.253 -0.11 -0.01    -0.022 A 
DOCKED: ATOM     25  C   UNL d   1      -5.867   2.308  18.354 -0.16 -0.01    +0.049 A 
DOCKED: ATOM     26  C   UNL d   1      -6.654   3.972  17.006 -0.15 +0.00    -0.018 A 
DOCKED: ATOM     27  C   UNL d   1      -7.000   3.041  18.034 -0.09 -0.00    +0.003 A 
DOCKED: ATOM     28  C   UNL d   1      -5.668   1.170  19.183 -0.19 -0.00    +0.052 C 
DOCKED: ATOM     29  C   UNL d   1      -2.557  -1.316  22.203 -0.06 +0.02    +0.046 C 
DOCKED: ATOM     30  C   UNL d   1      -7.570   4.943  16.340 -0.14 -0.01    +0.046 C 
DOCKED: ATOM     31  H   UNL d   1      -3.101   2.355  19.485 +0.04 -0.02    +0.166 HD
DOCKED: ATOM     32  H   UNL d   1      -3.882   2.481  17.591 -0.31 -0.06    +0.166 HD
DOCKED: ENDROOT
DOCKED: BRANCH   7  33
DOCKED: ATOM     33  C   UNL d   1      -2.762   6.778  14.594 -0.25 -0.13    +0.141 C 
DOCKED: BRANCH  33  34
DOCKED: ATOM     34  C   UNL d   1      -3.562   7.403  15.704 -0.07 -0.28    +0.306 C 
DOCKED: ATOM     35  O   UNL d   1      -3.150   7.688  16.816 -0.08 +0.15    -0.251 OA
DOCKED: BRANCH  34  36
DOCKED: ATOM     36  O   UNL d   1      -4.838   7.639  15.354 -0.61 +0.43    -0.481 OA
DOCKED: ATOM     37  H   UNL d   1      -4.792   8.423  14.765 -0.44 -0.65    +0.295 HD
DOCKED: ENDBRANCH  34  36
DOCKED: ENDBRANCH  33  34
DOCKED: ENDBRANCH   7  33
DOCKED: BRANCH  27  38
DOCKED: ATOM     38  C   UNL d   1      -8.310   2.874  18.589 -0.04 -0.00    +0.017 C 
DOCKED: ATOM     39  C   UNL d   1      -8.584   2.721  19.893 -0.01 -0.01    +0.092 C 
DOCKED: BRANCH  39  40
DOCKED: ATOM     40  C   UNL d   1      -9.973   2.577  20.335 -0.00 -0.03    +0.330 C 
DOCKED: ATOM     41  O   UNL d   1     -10.982   2.891  19.732 -0.00 +0.02    -0.246 OA
DOCKED: BRANCH  40  42
DOCKED: ATOM     42  O   UNL d   1     -10.014   2.015  21.553 +0.00 +0.03    -0.477 OA
DOCKED: ATOM     43  H   UNL d   1      -9.312   2.482  22.051 +0.00 -0.02    +0.295 HD
DOCKED: ENDBRANCH  40  42
DOCKED: ENDBRANCH  39  40
DOCKED: ENDBRANCH  27  38
DOCKED: BRANCH   8  44
DOCKED: ATOM     44  C   UNL d   1       2.536   3.747  19.422 -0.30 -0.08    +0.141 C 
DOCKED: BRANCH  44  45
DOCKED: ATOM     45  C   UNL d   1       3.615   3.481  20.437 -0.21 -0.16    +0.306 C 
DOCKED: ATOM     46  O   UNL d   1       4.219   4.314  21.091 -0.11 +0.07    -0.251 OA
DOCKED: BRANCH  45  47
DOCKED: ATOM     47  O   UNL d   1       3.898   2.172  20.556 -0.14 +0.46    -0.481 OA
DOCKED: ATOM     48  H   UNL d   1       3.048   1.757  20.817 -0.44 -0.63    +0.295 HD
DOCKED: ENDBRANCH  45  47
DOCKED: ENDBRANCH  44  45
DOCKED: ENDBRANCH   8  44
DOCKED: BRANCH  22  49
DOCKED: ATOM     49  C   UNL d   1      -5.502  -1.339  20.966 -0.13 +0.00    +0.048 C 
DOCKED: BRANCH  49  50
DOCKED: ATOM     50  C   UNL d   1      -6.809  -0.673  21.398 -0.04 -0.00    +0.125 C 
DOCKED: BRANCH  50  51
DOCKED: ATOM     51  C   UNL d   1      -6.551   0.409  22.407 -0.01 -0.01    +0.305 C 
DOCKED: ATOM     52  O   UNL d   1      -5.643   0.469  23.218 -0.01 +0.00    -0.251 OA
DOCKED: BRANCH  51  53
DOCKED: ATOM     53  O   UNL d   1      -7.483   1.382  22.352 +0.00 +0.02    -0.481 OA
DOCKED: ATOM     54  H   UNL d   1      -8.322   0.900  22.198 +0.01 -0.02    +0.295 HD
DOCKED: ENDBRANCH  51  53
DOCKED: ENDBRANCH  50  51
DOCKED: ENDBRANCH  49  50
DOCKED: ENDBRANCH  22  49
DOCKED: TORSDOF 13
DOCKED: TER
DOCKED: ENDMDL
________________________________________________________________________________


	BEGINNING GENETIC ALGORITHM DOCKING 35 of 100
Run: 35 Seed: 476570787 1201371753 [ Run 35 of 100 GA/GALS ]
Beginning LAMARCKIAN GENETIC ALGORITHM (LGA), with a maximum of 25000000 energy evaluations.

Final-Value: -9.386


	FINAL GENETIC ALGORITHM DOCKED STATE
	_______________________________________________


Detailed state:  trans 10.660 18.575 -0.450 quatxyzw 0.700447 0.091057 -0.684194 -0.181549 center 0.153 0.018 -0.028 ntor 13 -107.2411 -59.5912 124.7627 -139.1876 34.4755 -151.3074 -81.8264 -21.8893 133.7279 -21.0397 113.0995 173.9383 -169.3358
State:	 10.660  18.575  -0.450   0.712  0.093 -0.696 -159.080   -107.24  -59.59  124.76 -139.19   34.48 -151.31  -81.83  -21.89  133.73  -21.04  113.10  173.94 -169.34

DOCKED: MODEL       35
DOCKED: USER    Run = 35
DOCKED: USER    DPF = D:/Protein_go_brrr/autodock/final/mut_K82N/heme/dock.dpf
DOCKED: USER  
DOCKED: USER    Estimated Free Energy of Binding    =   -3.31 kcal/mol  [=(1)+(2)+(3)-(4)]
DOCKED: USER    Estimated Inhibition Constant, Ki   =    3.75 mM (millimolar)  [Temperature = 298.15 K]
DOCKED: USER    
DOCKED: USER    (1) Final Intermolecular Energy     =   -7.19 kcal/mol
DOCKED: USER        vdW + Hbond + desolv Energy     =   -7.19 kcal/mol
DOCKED: USER        Electrostatic Energy            =   +0.00 kcal/mol
DOCKED: USER    (2) Final Total Internal Energy     =   -2.20 kcal/mol
DOCKED: USER    (3) Torsional Free Energy           =   +3.88 kcal/mol
DOCKED: USER    (4) Unbound System's Energy  [=(2)] =   -2.20 kcal/mol
DOCKED: USER    
DOCKED: USER    
DOCKED: USER    NEWDPF move heme_opt.pdbqt
DOCKED: USER    NEWDPF about 0.153000 0.018000 -0.028000
DOCKED: USER    NEWDPF tran0 10.660403 18.574809 -0.450177
DOCKED: USER    NEWDPF quaternion0 0.700447 0.091057 -0.684194 -0.181549
DOCKED: USER    NEWDPF axisangle0 0.712284 0.092596 -0.695757 -159.080031
DOCKED: USER    NEWDPF quat0 0.712284 0.092596 -0.695757 -159.080031
DOCKED: USER    NEWDPF dihe0 -107.24 -59.59 124.76 -139.19 34.48 -151.31 -81.83 -21.89 133.73 -21.04 113.10 173.94 -169.34 
DOCKED: USER  keepresnum = 1 
DOCKED: USER  
DOCKED: REMARK  13 active torsions:
DOCKED: REMARK  status: ('A' for Active; 'I' for Inactive)
DOCKED: REMARK    1  A    between atoms: O_3  and  C_38 
DOCKED: REMARK    2  A    between atoms: O_4  and  C_40 
DOCKED: REMARK    3  A    between atoms: O_7  and  C_46 
DOCKED: REMARK    4  A    between atoms: O_9  and  C_48 
DOCKED: REMARK    5  A    between atoms: C_15  and  C_20 
DOCKED: REMARK    6  A    between atoms: C_16  and  C_23 
DOCKED: REMARK    7  A    between atoms: C_20  and  C_38 
DOCKED: REMARK    8  A    between atoms: C_23  and  C_40 
DOCKED: REMARK    9  A    between atoms: C_32  and  C_41 
DOCKED: REMARK   10  A    between atoms: C_37  and  C_45 
DOCKED: REMARK   11  A    between atoms: C_41  and  C_44 
DOCKED: REMARK   12  A    between atoms: C_44  and  C_46 
DOCKED: REMARK   13  A    between atoms: C_47  and  C_48 
DOCKED: USER                              x       y       z     vdW  Elec       q    Type
DOCKED: USER                           _______ _______ _______ _____ _____    ______ ____
DOCKED: ROOT
DOCKED: ATOM      1  O   UNL d   1      10.431  17.458   5.334 -0.01 +0.01    -0.289 OA
DOCKED: ATOM      2  O   UNL d   1      10.174  23.940   1.552 -0.02 +0.04    -0.289 OA
DOCKED: ATOM      3  N   UNL d   1      10.741  17.633   1.903 -0.08 +0.01    -0.247 NA
DOCKED: ATOM      4  N   UNL d   1      10.217  20.498   1.315 -0.05 +0.02    -0.247 NA
DOCKED: ATOM      5  N   UNL d   1       9.953  19.785  -1.457 -0.06 +0.03    -0.354 N 
DOCKED: ATOM      6  N   UNL d   1      10.478  16.812  -0.836 -0.12 +0.06    -0.354 N 
DOCKED: ATOM      7  C   UNL d   1      10.570  15.810   3.533 -0.08 -0.00    +0.084 A 
DOCKED: ATOM      8  C   UNL d   1      10.691  22.108   3.091 -0.04 -0.01    +0.084 A 
DOCKED: ATOM      9  C   UNL d   1      10.595  20.650   2.631 -0.08 -0.01    +0.058 A 
DOCKED: ATOM     10  C   UNL d   1      10.700  16.259   2.075 -0.13 -0.00    +0.058 A 
DOCKED: ATOM     11  C   UNL d   1      10.563  17.173   4.158 -0.04 -0.01    +0.193 A 
DOCKED: ATOM     12  C   UNL d   1      10.699  18.192   3.069 -0.08 -0.01    +0.109 A 
DOCKED: ATOM     13  C   UNL d   1      10.263  22.755   1.804 -0.05 -0.02    +0.193 A 
DOCKED: ATOM     14  C   UNL d   1       9.225  15.133   3.808 -0.19 +0.00    +0.026 C 
DOCKED: ATOM     15  C   UNL d   1      10.809  19.613   3.455 -0.07 -0.00    +0.055 C 
DOCKED: ATOM     16  C   UNL d   1      12.138  22.515   3.389 -0.01 -0.00    +0.026 C 
DOCKED: ATOM     17  C   UNL d   1       9.998  21.670   0.811 -0.07 -0.01    +0.109 A 
DOCKED: ATOM     18  C   UNL d   1      10.852  15.369   1.076 -0.25 -0.00    +0.050 C 
DOCKED: ATOM     19  C   UNL d   1      11.063  15.692  -0.288 -0.25 -0.01    +0.045 A 
DOCKED: ATOM     20  C   UNL d   1       9.510  21.082  -1.504 -0.12 -0.00    +0.045 A 
DOCKED: ATOM     21  C   UNL d   1       9.517  22.005  -0.537 -0.10 -0.00    +0.057 C 
DOCKED: ATOM     22  C   UNL d   1       9.177  20.113  -3.546 -0.16 +0.00    -0.019 A 
DOCKED: ATOM     23  C   UNL d   1       9.792  19.120  -2.644 -0.16 -0.01    +0.045 A 
DOCKED: ATOM     24  C   UNL d   1       9.014  21.273  -2.866 -0.18 +0.00    -0.022 A 
DOCKED: ATOM     25  C   UNL d   1      10.740  16.883  -2.185 -0.19 -0.01    +0.049 A 
DOCKED: ATOM     26  C   UNL d   1      11.753  15.040  -1.299 -0.29 +0.00    -0.018 A 
DOCKED: ATOM     27  C   UNL d   1      11.561  15.807  -2.489 -0.25 -0.00    +0.003 A 
DOCKED: ATOM     28  C   UNL d   1      10.113  17.866  -2.998 -0.23 -0.01    +0.052 C 
DOCKED: ATOM     29  C   UNL d   1       8.448  22.565  -3.348 -0.21 -0.01    +0.046 C 
DOCKED: ATOM     30  C   UNL d   1      12.543  13.782  -1.168 -0.30 -0.01    +0.046 C 
DOCKED: ATOM     31  H   UNL d   1      10.420  19.418  -0.635 +0.04 -0.01    +0.166 HD
DOCKED: ATOM     32  H   UNL d   1       9.903  17.458  -0.309 +0.05 -0.02    +0.166 HD
DOCKED: ENDROOT
DOCKED: BRANCH   7  33
DOCKED: ATOM     33  C   UNL d   1      11.739  14.978   4.072 -0.04 +0.00    +0.141 C 
DOCKED: BRANCH  33  34
DOCKED: ATOM     34  C   UNL d   1      11.531  14.543   5.497 -0.00 +0.02    +0.306 C 
DOCKED: ATOM     35  O   UNL d   1      10.972  13.523   5.865 -0.03 -0.04    -0.251 OA
DOCKED: BRANCH  34  36
DOCKED: ATOM     36  O   UNL d   1      12.043  15.414   6.385 +0.01 -0.01    -0.481 OA
DOCKED: ATOM     37  H   UNL d   1      11.456  16.198   6.327 +0.01 +0.00    +0.295 HD
DOCKED: ENDBRANCH  34  36
DOCKED: ENDBRANCH  33  34
DOCKED: ENDBRANCH   7  33
DOCKED: BRANCH  27  38
DOCKED: ATOM     38  C   UNL d   1      12.093  15.477  -3.777 -0.29 -0.00    +0.017 C 
DOCKED: ATOM     39  C   UNL d   1      12.322  14.233  -4.226 -0.25 -0.02    +0.092 C 
DOCKED: BRANCH  39  40
DOCKED: ATOM     40  C   UNL d   1      12.854  14.030  -5.576 -0.11 -0.03    +0.330 C 
DOCKED: ATOM     41  O   UNL d   1      12.711  13.059  -6.293 -0.27 +0.02    -0.246 OA
DOCKED: BRANCH  40  42
DOCKED: ATOM     42  O   UNL d   1      13.554  15.108  -5.963 -0.04 +0.03    -0.477 OA
DOCKED: ATOM     43  H   UNL d   1      14.452  14.756  -6.132 +0.06 -0.02    +0.295 HD
DOCKED: ENDBRANCH  40  42
DOCKED: ENDBRANCH  39  40
DOCKED: ENDBRANCH  27  38
DOCKED: BRANCH   8  44
DOCKED: ATOM     44  C   UNL d   1       9.757  22.502   4.240 -0.04 -0.03    +0.141 C 
DOCKED: BRANCH  44  45
DOCKED: ATOM     45  C   UNL d   1       8.309  22.561   3.835 -0.09 -0.11    +0.306 C 
DOCKED: ATOM     46  O   UNL d   1       7.551  23.504   3.982 -0.11 +0.15    -0.251 OA
DOCKED: BRANCH  45  47
DOCKED: ATOM     47  O   UNL d   1       7.880  21.410   3.285 -0.07 +0.14    -0.481 OA
DOCKED: ATOM     48  H   UNL d   1       8.493  21.250   2.536 +0.08 -0.04    +0.295 HD
DOCKED: ENDBRANCH  45  47
DOCKED: ENDBRANCH  44  45
DOCKED: ENDBRANCH   8  44
DOCKED: BRANCH  22  49
DOCKED: ATOM     49  C   UNL d   1       8.796  19.835  -4.971 -0.17 -0.01    +0.048 C 
DOCKED: BRANCH  49  50
DOCKED: ATOM     50  C   UNL d   1       7.281  19.729  -5.144 -0.27 -0.03    +0.125 C 
DOCKED: BRANCH  50  51
DOCKED: ATOM     51  C   UNL d   1       6.741  18.530  -4.419 -0.29 -0.06    +0.305 C 
DOCKED: ATOM     52  O   UNL d   1       7.320  17.487  -4.173 -0.37 +0.05    -0.251 OA
DOCKED: BRANCH  51  53
DOCKED: ATOM     53  O   UNL d   1       5.459  18.705  -4.040 -0.73 +0.14    -0.481 OA
DOCKED: ATOM     54  H   UNL d   1       5.045  19.159  -4.803 -0.39 -0.16    +0.295 HD
DOCKED: ENDBRANCH  51  53
DOCKED: ENDBRANCH  50  51
DOCKED: ENDBRANCH  49  50
DOCKED: ENDBRANCH  22  49
DOCKED: TORSDOF 13
DOCKED: TER
DOCKED: ENDMDL
________________________________________________________________________________


	BEGINNING GENETIC ALGORITHM DOCKING 36 of 100
Run: 36 Seed: 902747924 1633717701 [ Run 36 of 100 GA/GALS ]
Beginning LAMARCKIAN GENETIC ALGORITHM (LGA), with a maximum of 25000000 energy evaluations.

Final-Value: -11.999


	FINAL GENETIC ALGORITHM DOCKED STATE
	_______________________________________________


Detailed state:  trans -5.365 7.789 -18.249 quatxyzw 0.169794 0.584955 -0.630929 -0.480548 center 0.153 0.018 -0.028 ntor 13 -120.5408 -179.9073 4.3644 -147.9225 27.4032 1.2805 -9.2205 -26.7164 127.6312 -177.3527 66.0304 -78.1637 129.7658
State:	 -5.365   7.789 -18.249   0.194  0.667 -0.719 -122.558   -120.54 -179.91    4.36 -147.92   27.40    1.28   -9.22  -26.72  127.63 -177.35   66.03  -78.16  129.77

DOCKED: MODEL       36
DOCKED: USER    Run = 36
DOCKED: USER    DPF = D:/Protein_go_brrr/autodock/final/mut_K82N/heme/dock.dpf
DOCKED: USER  
DOCKED: USER    Estimated Free Energy of Binding    =   -5.32 kcal/mol  [=(1)+(2)+(3)-(4)]
DOCKED: USER    Estimated Inhibition Constant, Ki   =  125.54 uM (micromolar)  [Temperature = 298.15 K]
DOCKED: USER    
DOCKED: USER    (1) Final Intermolecular Energy     =   -9.20 kcal/mol
DOCKED: USER        vdW + Hbond + desolv Energy     =   -8.90 kcal/mol
DOCKED: USER        Electrostatic Energy            =   -0.30 kcal/mol
DOCKED: USER    (2) Final Total Internal Energy     =   -2.80 kcal/mol
DOCKED: USER    (3) Torsional Free Energy           =   +3.88 kcal/mol
DOCKED: USER    (4) Unbound System's Energy  [=(2)] =   -2.80 kcal/mol
DOCKED: USER    
DOCKED: USER    
DOCKED: USER    NEWDPF move heme_opt.pdbqt
DOCKED: USER    NEWDPF about 0.153000 0.018000 -0.028000
DOCKED: USER    NEWDPF tran0 -5.364669 7.789054 -18.249049
DOCKED: USER    NEWDPF quaternion0 0.169794 0.584955 -0.630929 -0.480548
DOCKED: USER    NEWDPF axisangle0 0.193615 0.667019 -0.719444 -122.557639
DOCKED: USER    NEWDPF quat0 0.193615 0.667019 -0.719444 -122.557639
DOCKED: USER    NEWDPF dihe0 -120.54 -179.91 4.36 -147.92 27.40 1.28 -9.22 -26.72 127.63 -177.35 66.03 -78.16 129.77 
DOCKED: USER  keepresnum = 1 
DOCKED: USER  
DOCKED: REMARK  13 active torsions:
DOCKED: REMARK  status: ('A' for Active; 'I' for Inactive)
DOCKED: REMARK    1  A    between atoms: O_3  and  C_38 
DOCKED: REMARK    2  A    between atoms: O_4  and  C_40 
DOCKED: REMARK    3  A    between atoms: O_7  and  C_46 
DOCKED: REMARK    4  A    between atoms: O_9  and  C_48 
DOCKED: REMARK    5  A    between atoms: C_15  and  C_20 
DOCKED: REMARK    6  A    between atoms: C_16  and  C_23 
DOCKED: REMARK    7  A    between atoms: C_20  and  C_38 
DOCKED: REMARK    8  A    between atoms: C_23  and  C_40 
DOCKED: REMARK    9  A    between atoms: C_32  and  C_41 
DOCKED: REMARK   10  A    between atoms: C_37  and  C_45 
DOCKED: REMARK   11  A    between atoms: C_41  and  C_44 
DOCKED: REMARK   12  A    between atoms: C_44  and  C_46 
DOCKED: REMARK   13  A    between atoms: C_47  and  C_48 
DOCKED: USER                              x       y       z     vdW  Elec       q    Type
DOCKED: USER                           _______ _______ _______ _____ _____    ______ ____
DOCKED: ROOT
DOCKED: ATOM      1  O   UNL d   1      -1.083   9.740 -14.696 -0.26 +0.12    -0.289 OA
DOCKED: ATOM      2  O   UNL d   1      -8.539   9.587 -13.807 -0.03 -0.00    -0.289 OA
DOCKED: ATOM      3  N   UNL d   1      -3.234   8.609 -17.144 -0.10 +0.07    -0.247 NA
DOCKED: ATOM      4  N   UNL d   1      -5.882   8.641 -15.796 -0.09 +0.04    -0.247 NA
DOCKED: ATOM      5  N   UNL d   1      -6.904   7.060 -17.968 -0.06 +0.10    -0.354 N 
DOCKED: ATOM      6  N   UNL d   1      -4.149   7.015 -19.351 -0.11 +0.10    -0.354 N 
DOCKED: ATOM      7  C   UNL d   1      -0.798   8.679 -16.880 -0.23 -0.02    +0.084 A 
DOCKED: ATOM      8  C   UNL d   1      -6.177  10.215 -13.950 -0.12 -0.01    +0.084 A 
DOCKED: ATOM      9  C   UNL d   1      -5.256   9.563 -14.986 -0.14 -0.01    +0.058 A 
DOCKED: ATOM     10  C   UNL d   1      -2.017   8.293 -17.724 -0.20 -0.02    +0.058 A 
DOCKED: ATOM     11  C   UNL d   1      -1.542   9.286 -15.729 -0.25 -0.06    +0.193 A 
DOCKED: ATOM     12  C   UNL d   1      -3.009   9.207 -16.020 -0.19 -0.03    +0.109 A 
DOCKED: ATOM     13  C   UNL d   1      -7.433   9.466 -14.297 -0.05 -0.01    +0.193 A 
DOCKED: ATOM     14  C   UNL d   1      -0.032   7.451 -16.382 -0.35 -0.01    +0.026 C 
DOCKED: ATOM     15  C   UNL d   1      -3.943   9.831 -15.061 -0.25 -0.02    +0.055 C 
DOCKED: ATOM     16  C   UNL d   1      -6.395  11.703 -14.241 -0.18 -0.00    +0.026 C 
DOCKED: ATOM     17  C   UNL d   1      -7.117   8.539 -15.425 -0.10 -0.01    +0.109 A 
DOCKED: ATOM     18  C   UNL d   1      -1.881   7.776 -18.959 -0.20 -0.01    +0.050 C 
DOCKED: ATOM     19  C   UNL d   1      -2.946   7.468 -19.844 -0.13 -0.01    +0.045 A 
DOCKED: ATOM     20  C   UNL d   1      -7.966   6.988 -17.105 -0.19 -0.01    +0.045 A 
DOCKED: ATOM     21  C   UNL d   1      -8.154   7.638 -15.952 -0.16 -0.00    +0.057 C 
DOCKED: ATOM     22  C   UNL d   1      -8.353   5.589 -18.869 -0.20 +0.00    -0.019 A 
DOCKED: ATOM     23  C   UNL d   1      -7.047   6.250 -19.063 +0.03 -0.01    +0.045 A 
DOCKED: ATOM     24  C   UNL d   1      -8.893   6.032 -17.708 -0.21 -0.00    -0.022 A 
DOCKED: ATOM     25  C   UNL d   1      -5.002   6.693 -20.381 -0.17 -0.01    +0.049 A 
DOCKED: ATOM     26  C   UNL d   1      -3.032   7.474 -21.227 -0.10 +0.00    -0.018 A 
DOCKED: ATOM     27  C   UNL d   1      -4.340   7.003 -21.560 -0.11 -0.00    +0.003 A 
DOCKED: ATOM     28  C   UNL d   1      -6.248   6.057 -20.124 -0.20 -0.01    +0.052 C 
DOCKED: ATOM     29  C   UNL d   1     -10.199   5.668 -17.089 -0.19 +0.01    +0.046 C 
DOCKED: ATOM     30  C   UNL d   1      -1.968   7.894 -22.184 -0.06 -0.01    +0.046 C 
DOCKED: ATOM     31  H   UNL d   1      -6.147   7.718 -17.818 +0.01 -0.04    +0.166 HD
DOCKED: ATOM     32  H   UNL d   1      -4.344   6.904 -18.363 -0.08 -0.06    +0.166 HD
DOCKED: ENDROOT
DOCKED: BRANCH   7  33
DOCKED: ATOM     33  C   UNL d   1       0.142   9.709 -17.516 -0.15 -0.03    +0.141 C 
DOCKED: BRANCH  33  34
DOCKED: ATOM     34  C   UNL d   1       1.253  10.127 -16.591 -0.20 -0.03    +0.306 C 
DOCKED: ATOM     35  O   UNL d   1       2.291   9.518 -16.391 -0.25 -0.06    -0.251 OA
DOCKED: BRANCH  34  36
DOCKED: ATOM     36  O   UNL d   1       1.000  11.292 -15.969 -0.15 +0.20    -0.481 OA
DOCKED: ATOM     37  H   UNL d   1       0.150  11.143 -15.503 -0.15 -0.21    +0.295 HD
DOCKED: ENDBRANCH  34  36
DOCKED: ENDBRANCH  33  34
DOCKED: ENDBRANCH   7  33
DOCKED: BRANCH  27  38
DOCKED: ATOM     38  C   UNL d   1      -4.843   6.838 -22.890 -0.07 -0.00    +0.017 C 
DOCKED: ATOM     39  C   UNL d   1      -5.583   5.802 -23.316 -0.07 -0.01    +0.092 C 
DOCKED: BRANCH  39  40
DOCKED: ATOM     40  C   UNL d   1      -6.053   5.762 -24.703 -0.00 -0.03    +0.330 C 
DOCKED: ATOM     41  O   UNL d   1      -5.867   6.589 -25.575 -0.00 +0.02    -0.246 OA
DOCKED: BRANCH  40  42
DOCKED: ATOM     42  O   UNL d   1      -6.747   4.634 -24.922 +0.01 +0.05    -0.477 OA
DOCKED: ATOM     43  H   UNL d   1      -6.724   4.173 -24.059 +0.03 -0.03    +0.295 HD
DOCKED: ENDBRANCH  40  42
DOCKED: ENDBRANCH  39  40
DOCKED: ENDBRANCH  27  38
DOCKED: BRANCH   8  44
DOCKED: ATOM     44  C   UNL d   1      -5.789   9.987 -12.485 -0.23 -0.03    +0.141 C 
DOCKED: BRANCH  44  45
DOCKED: ATOM     45  C   UNL d   1      -5.812  11.248 -11.662 -0.25 -0.05    +0.306 C 
DOCKED: ATOM     46  O   UNL d   1      -5.235  12.291 -11.914 -0.97 +0.00    -0.251 OA
DOCKED: BRANCH  45  47
DOCKED: ATOM     47  O   UNL d   1      -6.545  11.116 -10.541 -0.15 +0.03    -0.481 OA
DOCKED: ATOM     48  H   UNL d   1      -6.529  12.007 -10.129 -0.28 -0.08    +0.295 HD
DOCKED: ENDBRANCH  45  47
DOCKED: ENDBRANCH  44  45
DOCKED: ENDBRANCH   8  44
DOCKED: BRANCH  22  49
DOCKED: ATOM     49  C   UNL d   1      -8.940   4.586 -19.818 -0.22 +0.00    +0.048 C 
DOCKED: BRANCH  49  50
DOCKED: ATOM     50  C   UNL d   1      -7.914   3.534 -20.239 -0.21 -0.01    +0.125 C 
DOCKED: BRANCH  50  51
DOCKED: ATOM     51  C   UNL d   1      -7.585   3.660 -21.700 -0.13 -0.04    +0.305 C 
DOCKED: ATOM     52  O   UNL d   1      -8.326   4.013 -22.601 -0.03 +0.02    -0.251 OA
DOCKED: BRANCH  51  53
DOCKED: ATOM     53  O   UNL d   1      -6.308   3.315 -21.961 -0.32 +0.10    -0.481 OA
DOCKED: ATOM     54  H   UNL d   1      -6.108   2.624 -21.294 -0.42 -0.14    +0.295 HD
DOCKED: ENDBRANCH  51  53
DOCKED: ENDBRANCH  50  51
DOCKED: ENDBRANCH  49  50
DOCKED: ENDBRANCH  22  49
DOCKED: TORSDOF 13
DOCKED: TER
DOCKED: ENDMDL
________________________________________________________________________________


	BEGINNING GENETIC ALGORITHM DOCKING 37 of 100
Run: 37 Seed: 851062124 2135919834 [ Run 37 of 100 GA/GALS ]
Beginning LAMARCKIAN GENETIC ALGORITHM (LGA), with a maximum of 25000000 energy evaluations.

Final-Value: -11.152


	FINAL GENETIC ALGORITHM DOCKED STATE
	_______________________________________________


Detailed state:  trans 4.574 -4.419 -19.034 quatxyzw -0.075994 0.341459 -0.400771 0.846766 center 0.153 0.018 -0.028 ntor 13 172.3923 30.1133 -103.5548 -179.7945 -151.5507 -23.8957 128.4201 -74.4724 9.2293 -48.9840 180.0000 21.7849 179.8569
State:	  4.574  -4.419 -19.034  -0.143  0.642 -0.753 64.277    172.39   30.11 -103.55 -179.79 -151.55  -23.90  128.42  -74.47    9.23  -48.98  180.00   21.78  179.86

DOCKED: MODEL       37
DOCKED: USER    Run = 37
DOCKED: USER    DPF = D:/Protein_go_brrr/autodock/final/mut_K82N/heme/dock.dpf
DOCKED: USER  
DOCKED: USER    Estimated Free Energy of Binding    =   -4.60 kcal/mol  [=(1)+(2)+(3)-(4)]
DOCKED: USER    Estimated Inhibition Constant, Ki   =  426.14 uM (micromolar)  [Temperature = 298.15 K]
DOCKED: USER    
DOCKED: USER    (1) Final Intermolecular Energy     =   -8.48 kcal/mol
DOCKED: USER        vdW + Hbond + desolv Energy     =   -8.19 kcal/mol
DOCKED: USER        Electrostatic Energy            =   -0.29 kcal/mol
DOCKED: USER    (2) Final Total Internal Energy     =   -2.68 kcal/mol
DOCKED: USER    (3) Torsional Free Energy           =   +3.88 kcal/mol
DOCKED: USER    (4) Unbound System's Energy  [=(2)] =   -2.68 kcal/mol
DOCKED: USER    
DOCKED: USER    
DOCKED: USER    NEWDPF move heme_opt.pdbqt
DOCKED: USER    NEWDPF about 0.153000 0.018000 -0.028000
DOCKED: USER    NEWDPF tran0 4.574366 -4.419377 -19.033711
DOCKED: USER    NEWDPF quaternion0 -0.075994 0.341459 -0.400771 0.846766
DOCKED: USER    NEWDPF axisangle0 -0.142855 0.641883 -0.753378 64.276716
DOCKED: USER    NEWDPF quat0 -0.142855 0.641883 -0.753378 64.276716
DOCKED: USER    NEWDPF dihe0 172.39 30.11 -103.55 -179.79 -151.55 -23.90 128.42 -74.47 9.23 -48.98 180.00 21.78 179.86 
DOCKED: USER  keepresnum = 1 
DOCKED: USER  
DOCKED: REMARK  13 active torsions:
DOCKED: REMARK  status: ('A' for Active; 'I' for Inactive)
DOCKED: REMARK    1  A    between atoms: O_3  and  C_38 
DOCKED: REMARK    2  A    between atoms: O_4  and  C_40 
DOCKED: REMARK    3  A    between atoms: O_7  and  C_46 
DOCKED: REMARK    4  A    between atoms: O_9  and  C_48 
DOCKED: REMARK    5  A    between atoms: C_15  and  C_20 
DOCKED: REMARK    6  A    between atoms: C_16  and  C_23 
DOCKED: REMARK    7  A    between atoms: C_20  and  C_38 
DOCKED: REMARK    8  A    between atoms: C_23  and  C_40 
DOCKED: REMARK    9  A    between atoms: C_32  and  C_41 
DOCKED: REMARK   10  A    between atoms: C_37  and  C_45 
DOCKED: REMARK   11  A    between atoms: C_41  and  C_44 
DOCKED: REMARK   12  A    between atoms: C_44  and  C_46 
DOCKED: REMARK   13  A    between atoms: C_47  and  C_48 
DOCKED: USER                              x       y       z     vdW  Elec       q    Type
DOCKED: USER                           _______ _______ _______ _____ _____    ______ ____
DOCKED: ROOT
DOCKED: ATOM      1  O   UNL d   1       0.505  -7.070 -22.376 -0.11 +0.32    -0.289 OA
DOCKED: ATOM      2  O   UNL d   1       7.748  -8.683 -21.222 -0.02 +0.08    -0.289 OA
DOCKED: ATOM      3  N   UNL d   1       2.562  -5.123 -20.407 -0.09 +0.19    -0.247 NA
DOCKED: ATOM      4  N   UNL d   1       5.088  -6.684 -20.306 -0.21 +0.16    -0.247 NA
DOCKED: ATOM      5  N   UNL d   1       5.940  -4.990 -18.145 -0.11 +0.16    -0.354 N 
DOCKED: ATOM      6  N   UNL d   1       3.308  -3.388 -18.244 -0.12 +0.16    -0.354 N 
DOCKED: ATOM      7  C   UNL d   1       0.166  -5.133 -20.924 -0.21 -0.07    +0.084 A 
DOCKED: ATOM      8  C   UNL d   1       5.548  -8.189 -22.176 -0.10 -0.05    +0.084 A 
DOCKED: ATOM      9  C   UNL d   1       4.589  -7.224 -21.470 -0.18 -0.04    +0.058 A 
DOCKED: ATOM     10  C   UNL d   1       1.344  -4.507 -20.173 -0.25 -0.04    +0.058 A 
DOCKED: ATOM     11  C   UNL d   1       0.936  -6.201 -21.640 -0.15 -0.19    +0.193 A 
DOCKED: ATOM     12  C   UNL d   1       2.380  -6.075 -21.264 -0.18 -0.10    +0.109 A 
DOCKED: ATOM     13  C   UNL d   1       6.669  -8.125 -21.177 -0.08 -0.07    +0.193 A 
DOCKED: ATOM     14  C   UNL d   1      -0.835  -5.796 -19.974 -0.34 -0.03    +0.026 C 
DOCKED: ATOM     15  C   UNL d   1       3.352  -6.971 -21.923 -0.12 -0.06    +0.055 C 
DOCKED: ATOM     16  C   UNL d   1       6.045  -7.622 -23.509 -0.03 -0.01    +0.026 C 
DOCKED: ATOM     17  C   UNL d   1       6.262  -7.185 -20.089 -0.16 -0.04    +0.109 A 
DOCKED: ATOM     18  C   UNL d   1       1.192  -3.396 -19.427 -0.29 -0.03    +0.050 C 
DOCKED: ATOM     19  C   UNL d   1       2.236  -2.700 -18.766 -0.28 -0.02    +0.045 A 
DOCKED: ATOM     20  C   UNL d   1       6.919  -5.947 -18.093 -0.17 -0.01    +0.045 A 
DOCKED: ATOM     21  C   UNL d   1       7.151  -6.955 -18.940 -0.14 -0.02    +0.057 C 
DOCKED: ATOM     22  C   UNL d   1       7.155  -4.553 -16.300 -0.17 +0.01    -0.019 A 
DOCKED: ATOM     23  C   UNL d   1       6.001  -4.103 -17.104 -0.24 -0.02    +0.045 A 
DOCKED: ATOM     24  C   UNL d   1       7.695  -5.644 -16.892 -0.13 +0.01    -0.022 A 
DOCKED: ATOM     25  C   UNL d   1       4.150  -2.532 -17.572 -0.11 -0.02    +0.049 A 
DOCKED: ATOM     26  C   UNL d   1       2.404  -1.359 -18.457 -0.26 +0.01    -0.018 A 
DOCKED: ATOM     27  C   UNL d   1       3.624  -1.256 -17.720 -0.21 -0.00    +0.003 A 
DOCKED: ATOM     28  C   UNL d   1       5.245  -3.032 -16.816 -0.31 -0.02    +0.052 C 
DOCKED: ATOM     29  C   UNL d   1       8.877  -6.447 -16.466 -0.08 -0.01    +0.046 C 
DOCKED: ATOM     30  C   UNL d   1       1.490  -0.239 -18.824 -0.39 -0.01    +0.046 C 
DOCKED: ATOM     31  H   UNL d   1       5.305  -4.929 -18.933 -0.15 -0.09    +0.166 HD
DOCKED: ATOM     32  H   UNL d   1       3.421  -4.392 -18.321 -0.47 -0.13    +0.166 HD
DOCKED: ENDROOT
DOCKED: BRANCH   7  33
DOCKED: ATOM     33  C   UNL d   1      -0.537  -4.213 -21.928 -0.08 -0.08    +0.141 C 
DOCKED: BRANCH  33  34
DOCKED: ATOM     34  C   UNL d   1       0.403  -3.665 -22.968 +0.00 -0.13    +0.306 C 
DOCKED: ATOM     35  O   UNL d   1       0.944  -2.572 -22.946 -0.01 +0.08    -0.251 OA
DOCKED: BRANCH  34  36
DOCKED: ATOM     36  O   UNL d   1       0.614  -4.524 -23.980 +0.01 +0.19    -0.481 OA
DOCKED: ATOM     37  H   UNL d   1       0.211  -5.366 -23.678 +0.03 -0.14    +0.295 HD
DOCKED: ENDBRANCH  34  36
DOCKED: ENDBRANCH  33  34
DOCKED: ENDBRANCH   7  33
DOCKED: BRANCH  27  38
DOCKED: ATOM     38  C   UNL d   1       4.169  -0.043 -17.190 -0.37 -0.01    +0.017 C 
DOCKED: ATOM     39  C   UNL d   1       5.378   0.458 -17.487 -0.21 -0.03    +0.092 C 
DOCKED: BRANCH  39  40
DOCKED: ATOM     40  C   UNL d   1       5.811   1.723 -16.888 -0.14 -0.15    +0.330 C 
DOCKED: ATOM     41  O   UNL d   1       5.112   2.632 -16.484 -0.24 +0.08    -0.246 OA
DOCKED: BRANCH  40  42
DOCKED: ATOM     42  O   UNL d   1       7.151   1.768 -16.822 -0.08 +0.34    -0.477 OA
DOCKED: ATOM     43  H   UNL d   1       7.329   2.323 -16.035 +0.02 -0.40    +0.295 HD
DOCKED: ENDBRANCH  40  42
DOCKED: ENDBRANCH  39  40
DOCKED: ENDBRANCH  27  38
DOCKED: BRANCH   8  44
DOCKED: ATOM     44  C   UNL d   1       5.040  -9.625 -22.338 -0.10 -0.11    +0.141 C 
DOCKED: BRANCH  44  45
DOCKED: ATOM     45  C   UNL d   1       5.572 -10.566 -21.291 -0.11 -0.18    +0.306 C 
DOCKED: ATOM     46  O   UNL d   1       5.118 -10.743 -20.174 -0.17 +0.16    -0.251 OA
DOCKED: BRANCH  45  47
DOCKED: ATOM     47  O   UNL d   1       6.674 -11.221 -21.700 -0.00 +0.16    -0.481 OA
DOCKED: ATOM     48  H   UNL d   1       7.393 -10.555 -21.644 +0.04 -0.08    +0.295 HD
DOCKED: ENDBRANCH  45  47
DOCKED: ENDBRANCH  44  45
DOCKED: ENDBRANCH   8  44
DOCKED: BRANCH  22  49
DOCKED: ATOM     49  C   UNL d   1       7.610  -3.889 -15.033 -0.19 -0.01    +0.048 C 
DOCKED: BRANCH  49  50
DOCKED: ATOM     50  C   UNL d   1       7.050  -4.587 -13.793 -0.19 -0.03    +0.125 C 
DOCKED: BRANCH  50  51
DOCKED: ATOM     51  C   UNL d   1       6.206  -5.769 -14.178 -0.22 -0.07    +0.305 C 
DOCKED: ATOM     52  O   UNL d   1       5.046  -5.764 -14.552 -0.37 +0.07    -0.251 OA
DOCKED: BRANCH  51  53
DOCKED: ATOM     53  O   UNL d   1       6.880  -6.930 -14.058 -0.04 +0.11    -0.481 OA
DOCKED: ATOM     54  H   UNL d   1       7.768  -6.658 -13.744 +0.08 -0.06    +0.295 HD
DOCKED: ENDBRANCH  51  53
DOCKED: ENDBRANCH  50  51
DOCKED: ENDBRANCH  49  50
DOCKED: ENDBRANCH  22  49
DOCKED: TORSDOF 13
DOCKED: TER
DOCKED: ENDMDL
________________________________________________________________________________


	BEGINNING GENETIC ALGORITHM DOCKING 38 of 100
Run: 38 Seed: 1260087894 608997792 [ Run 38 of 100 GA/GALS ]
Beginning LAMARCKIAN GENETIC ALGORITHM (LGA), with a maximum of 25000000 energy evaluations.

Final-Value: -12.194


	FINAL GENETIC ALGORITHM DOCKED STATE
	_______________________________________________


Detailed state:  trans -7.732 7.844 -13.840 quatxyzw -0.801176 -0.060446 0.377589 -0.460316 center 0.153 0.018 -0.028 ntor 13 -142.0118 -133.2731 120.6880 137.3101 45.3218 -83.4081 -31.8945 52.5400 162.4249 -137.0799 -93.1706 6.7208 -27.1861
State:	 -7.732   7.844 -13.840  -0.902 -0.068  0.425 -125.185   -142.01 -133.27  120.69  137.31   45.32  -83.41  -31.89   52.54  162.42 -137.08  -93.17    6.72  -27.19

DOCKED: MODEL       38
DOCKED: USER    Run = 38
DOCKED: USER    DPF = D:/Protein_go_brrr/autodock/final/mut_K82N/heme/dock.dpf
DOCKED: USER  
DOCKED: USER    Estimated Free Energy of Binding    =   -5.19 kcal/mol  [=(1)+(2)+(3)-(4)]
DOCKED: USER    Estimated Inhibition Constant, Ki   =  155.65 uM (micromolar)  [Temperature = 298.15 K]
DOCKED: USER    
DOCKED: USER    (1) Final Intermolecular Energy     =   -9.07 kcal/mol
DOCKED: USER        vdW + Hbond + desolv Energy     =   -8.58 kcal/mol
DOCKED: USER        Electrostatic Energy            =   -0.50 kcal/mol
DOCKED: USER    (2) Final Total Internal Energy     =   -3.12 kcal/mol
DOCKED: USER    (3) Torsional Free Energy           =   +3.88 kcal/mol
DOCKED: USER    (4) Unbound System's Energy  [=(2)] =   -3.12 kcal/mol
DOCKED: USER    
DOCKED: USER    
DOCKED: USER    NEWDPF move heme_opt.pdbqt
DOCKED: USER    NEWDPF about 0.153000 0.018000 -0.028000
DOCKED: USER    NEWDPF tran0 -7.731544 7.844122 -13.840187
DOCKED: USER    NEWDPF quaternion0 -0.801176 -0.060446 0.377589 -0.460316
DOCKED: USER    NEWDPF axisangle0 -0.902474 -0.068088 0.425330 -125.185037
DOCKED: USER    NEWDPF quat0 -0.902474 -0.068088 0.425330 -125.185037
DOCKED: USER    NEWDPF dihe0 -142.01 -133.27 120.69 137.31 45.32 -83.41 -31.89 52.54 162.42 -137.08 -93.17 6.72 -27.19 
DOCKED: USER  keepresnum = 1 
DOCKED: USER  
DOCKED: REMARK  13 active torsions:
DOCKED: REMARK  status: ('A' for Active; 'I' for Inactive)
DOCKED: REMARK    1  A    between atoms: O_3  and  C_38 
DOCKED: REMARK    2  A    between atoms: O_4  and  C_40 
DOCKED: REMARK    3  A    between atoms: O_7  and  C_46 
DOCKED: REMARK    4  A    between atoms: O_9  and  C_48 
DOCKED: REMARK    5  A    between atoms: C_15  and  C_20 
DOCKED: REMARK    6  A    between atoms: C_16  and  C_23 
DOCKED: REMARK    7  A    between atoms: C_20  and  C_38 
DOCKED: REMARK    8  A    between atoms: C_23  and  C_40 
DOCKED: REMARK    9  A    between atoms: C_32  and  C_41 
DOCKED: REMARK   10  A    between atoms: C_37  and  C_45 
DOCKED: REMARK   11  A    between atoms: C_41  and  C_44 
DOCKED: REMARK   12  A    between atoms: C_44  and  C_46 
DOCKED: REMARK   13  A    between atoms: C_47  and  C_48 
DOCKED: USER                              x       y       z     vdW  Elec       q    Type
DOCKED: USER                           _______ _______ _______ _____ _____    ______ ____
DOCKED: ROOT
DOCKED: ATOM      1  O   UNL d   1     -12.553   4.838 -12.269 -0.03 -0.09    -0.289 OA
DOCKED: ATOM      2  O   UNL d   1      -7.353   8.328  -8.125 -0.22 -0.03    -0.289 OA
DOCKED: ATOM      3  N   UNL d   1      -9.790   6.375 -13.646 -0.09 -0.03    -0.247 NA
DOCKED: ATOM      4  N   UNL d   1      -8.515   7.704 -11.314 -0.06 -0.03    -0.247 NA
DOCKED: ATOM      5  N   UNL d   1      -6.902   9.200 -13.166 -0.04 +0.02    -0.354 N 
DOCKED: ATOM      6  N   UNL d   1      -8.244   7.831 -15.580 -0.05 +0.01    -0.354 N 
DOCKED: ATOM      7  C   UNL d   1     -11.803   5.306 -14.548 -0.10 +0.03    +0.084 A 
DOCKED: ATOM      8  C   UNL d   1      -8.924   6.730  -9.111 -0.13 +0.03    +0.084 A 
DOCKED: ATOM      9  C   UNL d   1      -9.214   6.746 -10.615 -0.11 +0.01    +0.058 A 
DOCKED: ATOM     10  C   UNL d   1     -10.481   6.038 -14.798 -0.14 +0.01    +0.058 A 
DOCKED: ATOM     11  C   UNL d   1     -11.728   5.272 -13.051 -0.07 +0.05    +0.193 A 
DOCKED: ATOM     12  C   UNL d   1     -10.450   5.928 -12.628 -0.11 +0.02    +0.109 A 
DOCKED: ATOM     13  C   UNL d   1      -7.958   7.880  -9.080 -0.13 +0.03    +0.193 A 
DOCKED: ATOM     14  C   UNL d   1     -13.013   6.147 -14.964 -0.04 +0.01    +0.026 C 
DOCKED: ATOM     15  C   UNL d   1     -10.112   5.930 -11.190 -0.14 +0.01    +0.055 C 
DOCKED: ATOM     16  C   UNL d   1      -8.186   5.456  -8.689 -0.26 +0.01    +0.026 C 
DOCKED: ATOM     17  C   UNL d   1      -7.802   8.387 -10.477 -0.12 +0.01    +0.109 A 
DOCKED: ATOM     18  C   UNL d   1     -10.015   6.241 -16.045 -0.18 +0.01    +0.050 C 
DOCKED: ATOM     19  C   UNL d   1      -8.767   6.832 -16.370 -0.18 -0.00    +0.045 A 
DOCKED: ATOM     20  C   UNL d   1      -6.599   9.860 -12.004 -0.22 -0.00    +0.045 A 
DOCKED: ATOM     21  C   UNL d   1      -6.942   9.548 -10.750 -0.28 -0.00    +0.057 C 
DOCKED: ATOM     22  C   UNL d   1      -5.663  10.986 -13.757 -0.22 +0.00    -0.019 A 
DOCKED: ATOM     23  C   UNL d   1      -6.381   9.805 -14.278 -0.11 -0.01    +0.045 A 
DOCKED: ATOM     24  C   UNL d   1      -5.795  11.012 -12.410 -0.34 +0.00    -0.022 A 
DOCKED: ATOM     25  C   UNL d   1      -7.080   8.319 -16.126 -0.13 -0.01    +0.049 A 
DOCKED: ATOM     26  C   UNL d   1      -7.902   6.641 -17.436 -0.20 +0.00    -0.018 A 
DOCKED: ATOM     27  C   UNL d   1      -6.829   7.569 -17.267 -0.19 -0.00    +0.003 A 
DOCKED: ATOM     28  C   UNL d   1      -6.439   9.461 -15.574 -0.10 -0.01    +0.052 C 
DOCKED: ATOM     29  C   UNL d   1      -5.242  11.997 -11.437 -0.40 -0.00    +0.046 C 
DOCKED: ATOM     30  C   UNL d   1      -8.060   5.656 -18.545 -0.14 -0.01    +0.046 C 
DOCKED: ATOM     31  H   UNL d   1      -7.395   8.313 -13.155 +0.04 -0.00    +0.166 HD
DOCKED: ATOM     32  H   UNL d   1      -8.693   8.172 -14.739 +0.03 +0.00    +0.166 HD
DOCKED: ENDROOT
DOCKED: BRANCH   7  33
DOCKED: ATOM     33  C   UNL d   1     -11.884   3.885 -15.115 -0.13 +0.11    +0.141 C 
DOCKED: BRANCH  33  34
DOCKED: ATOM     34  C   UNL d   1     -13.286   3.493 -15.498 -0.03 +0.34    +0.306 C 
DOCKED: ATOM     35  O   UNL d   1     -13.755   3.508 -16.623 -0.67 -0.30    -0.251 OA
DOCKED: BRANCH  34  36
DOCKED: ATOM     36  O   UNL d   1     -14.022   3.101 -14.443 -0.06 -0.37    -0.481 OA
DOCKED: ATOM     37  H   UNL d   1     -13.719   3.672 -13.705 +0.04 +0.15    +0.295 HD
DOCKED: ENDBRANCH  34  36
DOCKED: ENDBRANCH  33  34
DOCKED: ENDBRANCH   7  33
DOCKED: BRANCH  27  38
DOCKED: ATOM     38  C   UNL d   1      -5.719   7.719 -18.159 -0.18 -0.00    +0.017 C 
DOCKED: ATOM     39  C   UNL d   1      -4.438   7.859 -17.785 -0.23 -0.03    +0.092 C 
DOCKED: BRANCH  39  40
DOCKED: ATOM     40  C   UNL d   1      -3.390   7.987 -18.801 -0.10 -0.08    +0.330 C 
DOCKED: ATOM     41  O   UNL d   1      -2.805   7.092 -19.381 -0.16 +0.05    -0.246 OA
DOCKED: BRANCH  40  42
DOCKED: ATOM     42  O   UNL d   1      -3.138   9.282 -19.043 +0.01 +0.11    -0.477 OA
DOCKED: ATOM     43  H   UNL d   1      -3.064   9.678 -18.150 +0.08 -0.08    +0.295 HD
DOCKED: ENDBRANCH  40  42
DOCKED: ENDBRANCH  39  40
DOCKED: ENDBRANCH  27  38
DOCKED: BRANCH   8  44
DOCKED: ATOM     44  C   UNL d   1     -10.128   7.000  -8.203 -0.12 +0.08    +0.141 C 
DOCKED: BRANCH  44  45
DOCKED: ATOM     45  C   UNL d   1      -9.823   6.814  -6.740 -0.09 +0.29    +0.306 C 
DOCKED: ATOM     46  O   UNL d   1      -9.705   5.753  -6.151 -0.58 -0.46    -0.251 OA
DOCKED: BRANCH  45  47
DOCKED: ATOM     47  O   UNL d   1      -9.708   7.984  -6.086 -0.56 -0.33    -0.481 OA
DOCKED: ATOM     48  H   UNL d   1      -8.968   8.446  -6.533 +0.12 +0.14    +0.295 HD
DOCKED: ENDBRANCH  45  47
DOCKED: ENDBRANCH  44  45
DOCKED: ENDBRANCH   8  44
DOCKED: BRANCH  22  49
DOCKED: ATOM     49  C   UNL d   1      -4.935  11.977 -14.617 -0.28 -0.02    +0.048 C 
DOCKED: BRANCH  49  50
DOCKED: ATOM     50  C   UNL d   1      -3.421  11.890 -14.427 -0.40 -0.07    +0.125 C 
DOCKED: BRANCH  50  51
DOCKED: ATOM     51  C   UNL d   1      -2.821  10.870 -15.352 -0.19 -0.16    +0.305 C 
DOCKED: ATOM     52  O   UNL d   1      -3.042  10.725 -16.541 -0.09 +0.12    -0.251 OA
DOCKED: BRANCH  51  53
DOCKED: ATOM     53  O   UNL d   1      -1.961  10.053 -14.712 -0.14 +0.21    -0.481 OA
DOCKED: ATOM     54  H   UNL d   1      -1.441  10.656 -14.140 -0.38 -0.24    +0.295 HD
DOCKED: ENDBRANCH  51  53
DOCKED: ENDBRANCH  50  51
DOCKED: ENDBRANCH  49  50
DOCKED: ENDBRANCH  22  49
DOCKED: TORSDOF 13
DOCKED: TER
DOCKED: ENDMDL
________________________________________________________________________________


	BEGINNING GENETIC ALGORITHM DOCKING 39 of 100
Run: 39 Seed: 907742967 1333910091 [ Run 39 of 100 GA/GALS ]
Beginning LAMARCKIAN GENETIC ALGORITHM (LGA), with a maximum of 25000000 energy evaluations.

Final-Value: -11.286


	FINAL GENETIC ALGORITHM DOCKED STATE
	_______________________________________________


Detailed state:  trans 11.821 3.525 16.392 quatxyzw -0.418497 0.460907 0.228926 0.748344 center 0.153 0.018 -0.028 ntor 13 -92.5970 -172.3858 -38.4119 31.5165 33.3158 -84.6386 159.3319 20.4512 126.0781 143.9748 -76.6225 10.2650 0.8447
State:	 11.821   3.525  16.392  -0.631  0.695  0.345 83.106    -92.60 -172.39  -38.41   31.52   33.32  -84.64  159.33   20.45  126.08  143.97  -76.62   10.26    0.84

DOCKED: MODEL       39
DOCKED: USER    Run = 39
DOCKED: USER    DPF = D:/Protein_go_brrr/autodock/final/mut_K82N/heme/dock.dpf
DOCKED: USER  
DOCKED: USER    Estimated Free Energy of Binding    =   -3.53 kcal/mol  [=(1)+(2)+(3)-(4)]
DOCKED: USER    Estimated Inhibition Constant, Ki   =    2.60 mM (millimolar)  [Temperature = 298.15 K]
DOCKED: USER    
DOCKED: USER    (1) Final Intermolecular Energy     =   -7.40 kcal/mol
DOCKED: USER        vdW + Hbond + desolv Energy     =   -7.38 kcal/mol
DOCKED: USER        Electrostatic Energy            =   -0.02 kcal/mol
DOCKED: USER    (2) Final Total Internal Energy     =   -3.88 kcal/mol
DOCKED: USER    (3) Torsional Free Energy           =   +3.88 kcal/mol
DOCKED: USER    (4) Unbound System's Energy  [=(2)] =   -3.88 kcal/mol
DOCKED: USER    
DOCKED: USER    
DOCKED: USER    NEWDPF move heme_opt.pdbqt
DOCKED: USER    NEWDPF about 0.153000 0.018000 -0.028000
DOCKED: USER    NEWDPF tran0 11.821129 3.525189 16.392432
DOCKED: USER    NEWDPF quaternion0 -0.418497 0.460907 0.228926 0.748344
DOCKED: USER    NEWDPF axisangle0 -0.630921 0.694857 0.345127 83.105767
DOCKED: USER    NEWDPF quat0 -0.630921 0.694857 0.345127 83.105767
DOCKED: USER    NEWDPF dihe0 -92.60 -172.39 -38.41 31.52 33.32 -84.64 159.33 20.45 126.08 143.97 -76.62 10.26 0.84 
DOCKED: USER  keepresnum = 1 
DOCKED: USER  
DOCKED: REMARK  13 active torsions:
DOCKED: REMARK  status: ('A' for Active; 'I' for Inactive)
DOCKED: REMARK    1  A    between atoms: O_3  and  C_38 
DOCKED: REMARK    2  A    between atoms: O_4  and  C_40 
DOCKED: REMARK    3  A    between atoms: O_7  and  C_46 
DOCKED: REMARK    4  A    between atoms: O_9  and  C_48 
DOCKED: REMARK    5  A    between atoms: C_15  and  C_20 
DOCKED: REMARK    6  A    between atoms: C_16  and  C_23 
DOCKED: REMARK    7  A    between atoms: C_20  and  C_38 
DOCKED: REMARK    8  A    between atoms: C_23  and  C_40 
DOCKED: REMARK    9  A    between atoms: C_32  and  C_41 
DOCKED: REMARK   10  A    between atoms: C_37  and  C_45 
DOCKED: REMARK   11  A    between atoms: C_41  and  C_44 
DOCKED: REMARK   12  A    between atoms: C_44  and  C_46 
DOCKED: REMARK   13  A    between atoms: C_47  and  C_48 
DOCKED: USER                              x       y       z     vdW  Elec       q    Type
DOCKED: USER                           _______ _______ _______ _____ _____    ______ ____
DOCKED: ROOT
DOCKED: ATOM      1  O   UNL d   1       8.538   8.263  15.157 -0.23 +0.03    -0.289 OA
DOCKED: ATOM      2  O   UNL d   1      12.172   3.476  10.656 -0.09 +0.01    -0.289 OA
DOCKED: ATOM      3  N   UNL d   1      10.474   5.674  16.358 -0.12 +0.01    -0.247 NA
DOCKED: ATOM      4  N   UNL d   1      11.230   4.188  13.898 -0.14 +0.03    -0.247 NA
DOCKED: ATOM      5  N   UNL d   1      12.100   2.027  15.582 -0.08 +0.05    -0.354 N 
DOCKED: ATOM      6  N   UNL d   1      11.296   3.567  18.128 -0.11 -0.03    -0.354 N 
DOCKED: ATOM      7  C   UNL d   1       8.983   7.334  17.373 -0.16 -0.01    +0.084 A 
DOCKED: ATOM      8  C   UNL d   1      11.288   5.448  11.805 -0.19 -0.00    +0.084 A 
DOCKED: ATOM      9  C   UNL d   1      10.965   5.401  13.302 -0.22 -0.00    +0.058 A 
DOCKED: ATOM     10  C   UNL d   1       9.924   6.137  17.541 -0.14 +0.00    +0.058 A 
DOCKED: ATOM     11  C   UNL d   1       9.114   7.477  15.887 -0.21 -0.03    +0.193 A 
DOCKED: ATOM     12  C   UNL d   1      10.064   6.431  15.393 -0.22 -0.01    +0.109 A 
DOCKED: ATOM     13  C   UNL d   1      11.750   4.026  11.654 -0.06 -0.01    +0.193 A 
DOCKED: ATOM     14  C   UNL d   1       7.534   6.977  17.711 -0.27 -0.01    +0.026 C 
DOCKED: ATOM     15  C   UNL d   1      10.422   6.437  13.960 -0.28 -0.00    +0.055 C 
DOCKED: ATOM     16  C   UNL d   1      12.464   6.382  11.507 -0.08 -0.00    +0.026 C 
DOCKED: ATOM     17  C   UNL d   1      11.659   3.369  12.993 -0.11 -0.01    +0.109 A 
DOCKED: ATOM     18  C   UNL d   1      10.240   5.656  18.759 -0.17 +0.01    +0.050 C 
DOCKED: ATOM     19  C   UNL d   1      11.162   4.610  19.016 -0.19 +0.01    +0.045 A 
DOCKED: ATOM     20  C   UNL d   1      12.170   1.414  14.358 -0.24 -0.01    +0.045 A 
DOCKED: ATOM     21  C   UNL d   1      12.010   1.949  13.143 -0.25 -0.01    +0.057 C 
DOCKED: ATOM     22  C   UNL d   1      12.557  -0.142  15.985 -0.32 +0.00    -0.019 A 
DOCKED: ATOM     23  C   UNL d   1      12.320   1.168  16.626 -0.25 -0.01    +0.045 A 
DOCKED: ATOM     24  C   UNL d   1      12.468   0.011  14.643 -0.27 +0.01    -0.022 A 
DOCKED: ATOM     25  C   UNL d   1      12.172   2.626  18.616 -0.22 +0.00    +0.049 A 
DOCKED: ATOM     26  C   UNL d   1      12.001   4.359  20.091 -0.16 -0.01    -0.018 A 
DOCKED: ATOM     27  C   UNL d   1      12.651   3.114  19.824 -0.18 +0.00    +0.003 A 
DOCKED: ATOM     28  C   UNL d   1      12.354   1.384  17.949 -0.28 -0.00    +0.052 C 
DOCKED: ATOM     29  C   UNL d   1      12.641  -1.014  13.574 -0.47 -0.01    +0.046 C 
DOCKED: ATOM     30  C   UNL d   1      12.190   5.221  21.293 -0.10 +0.02    +0.046 C 
DOCKED: ATOM     31  H   UNL d   1      11.978   3.031  15.662 +0.06 -0.02    +0.166 HD
DOCKED: ATOM     32  H   UNL d   1      10.778   3.501  17.259 +0.06 +0.01    +0.166 HD
DOCKED: ENDROOT
DOCKED: BRANCH   7  33
DOCKED: ATOM     33  C   UNL d   1       9.425   8.620  18.079 -0.05 -0.01    +0.141 C 
DOCKED: BRANCH  33  34
DOCKED: ATOM     34  C   UNL d   1       8.541   9.793  17.752 -0.04 -0.03    +0.306 C 
DOCKED: ATOM     35  O   UNL d   1       7.517  10.108  18.335 -0.03 +0.03    -0.251 OA
DOCKED: BRANCH  34  36
DOCKED: ATOM     36  O   UNL d   1       8.994  10.509  16.708 -0.03 +0.04    -0.481 OA
DOCKED: ATOM     37  H   UNL d   1       8.642  10.045  15.919 +0.05 -0.03    +0.295 HD
DOCKED: ENDBRANCH  34  36
DOCKED: ENDBRANCH  33  34
DOCKED: ENDBRANCH   7  33
DOCKED: BRANCH  27  38
DOCKED: ATOM     38  C   UNL d   1      13.593   2.473  20.690 -0.15 +0.00    +0.017 C 
DOCKED: ATOM     39  C   UNL d   1      14.770   1.955  20.306 -0.06 +0.01    +0.092 C 
DOCKED: BRANCH  39  40
DOCKED: ATOM     40  C   UNL d   1      15.655   1.339  21.298 -0.01 +0.05    +0.330 C 
DOCKED: ATOM     41  O   UNL d   1      16.490   1.887  21.992 -0.01 -0.04    -0.246 OA
DOCKED: BRANCH  40  42
DOCKED: ATOM     42  O   UNL d   1      15.422   0.019  21.367 +0.00 -0.06    -0.477 OA
DOCKED: ATOM     43  H   UNL d   1      14.801  -0.149  20.630 +0.05 +0.04    +0.295 HD
DOCKED: ENDBRANCH  40  42
DOCKED: ENDBRANCH  39  40
DOCKED: ENDBRANCH  27  38
DOCKED: BRANCH   8  44
DOCKED: ATOM     44  C   UNL d   1      10.100   5.740  10.881 -0.30 -0.01    +0.141 C 
DOCKED: BRANCH  44  45
DOCKED: ATOM     45  C   UNL d   1       9.959   7.198  10.538 -0.21 +0.01    +0.306 C 
DOCKED: ATOM     46  O   UNL d   1      10.077   7.700   9.434 -0.19 -0.03    -0.251 OA
DOCKED: BRANCH  45  47
DOCKED: ATOM     47  O   UNL d   1       9.701   7.959  11.618 -0.15 -0.04    -0.481 OA
DOCKED: ATOM     48  H   UNL d   1      10.227   8.775  11.477 +0.09 +0.03    +0.295 HD
DOCKED: ENDBRANCH  45  47
DOCKED: ENDBRANCH  44  45
DOCKED: ENDBRANCH   8  44
DOCKED: BRANCH  22  49
DOCKED: ATOM     49  C   UNL d   1      12.830  -1.411  16.738 -0.36 -0.00    +0.048 C 
DOCKED: BRANCH  49  50
DOCKED: ATOM     50  C   UNL d   1      14.301  -1.530  17.136 -0.16 +0.01    +0.125 C 
DOCKED: BRANCH  50  51
DOCKED: ATOM     51  C   UNL d   1      14.487  -1.237  18.597 -0.07 +0.02    +0.305 C 
DOCKED: ATOM     52  O   UNL d   1      13.627  -1.174  19.458 -0.09 -0.02    -0.251 OA
DOCKED: BRANCH  51  53
DOCKED: ATOM     53  O   UNL d   1      15.781  -1.021  18.908 +0.00 -0.02    -0.481 OA
DOCKED: ATOM     54  H   UNL d   1      15.862  -1.344  19.830 +0.04 +0.02    +0.295 HD
DOCKED: ENDBRANCH  51  53
DOCKED: ENDBRANCH  50  51
DOCKED: ENDBRANCH  49  50
DOCKED: ENDBRANCH  22  49
DOCKED: TORSDOF 13
DOCKED: TER
DOCKED: ENDMDL
________________________________________________________________________________


	BEGINNING GENETIC ALGORITHM DOCKING 40 of 100
Run: 40 Seed: 1949097466 1485180888 [ Run 40 of 100 GA/GALS ]
Beginning LAMARCKIAN GENETIC ALGORITHM (LGA), with a maximum of 25000000 energy evaluations.

Final-Value: -12.099


	FINAL GENETIC ALGORITHM DOCKED STATE
	_______________________________________________


Detailed state:  trans 13.578 8.704 -8.922 quatxyzw -0.829074 0.292574 -0.467581 0.091680 center 0.153 0.018 -0.028 ntor 13 117.7234 -180.0000 -109.8473 -51.6403 -85.3491 36.2602 120.8817 -99.4064 131.1063 -28.8103 -98.7841 -36.2497 -14.7348
State:	 13.578   8.704  -8.922  -0.833  0.294 -0.470 169.480    117.72 -180.00 -109.85  -51.64  -85.35   36.26  120.88  -99.41  131.11  -28.81  -98.78  -36.25  -14.73

DOCKED: MODEL       40
DOCKED: USER    Run = 40
DOCKED: USER    DPF = D:/Protein_go_brrr/autodock/final/mut_K82N/heme/dock.dpf
DOCKED: USER  
DOCKED: USER    Estimated Free Energy of Binding    =   -4.31 kcal/mol  [=(1)+(2)+(3)-(4)]
DOCKED: USER    Estimated Inhibition Constant, Ki   =  692.19 uM (micromolar)  [Temperature = 298.15 K]
DOCKED: USER    
DOCKED: USER    (1) Final Intermolecular Energy     =   -8.19 kcal/mol
DOCKED: USER        vdW + Hbond + desolv Energy     =   -7.66 kcal/mol
DOCKED: USER        Electrostatic Energy            =   -0.52 kcal/mol
DOCKED: USER    (2) Final Total Internal Energy     =   -3.91 kcal/mol
DOCKED: USER    (3) Torsional Free Energy           =   +3.88 kcal/mol
DOCKED: USER    (4) Unbound System's Energy  [=(2)] =   -3.91 kcal/mol
DOCKED: USER    
DOCKED: USER    
DOCKED: USER    NEWDPF move heme_opt.pdbqt
DOCKED: USER    NEWDPF about 0.153000 0.018000 -0.028000
DOCKED: USER    NEWDPF tran0 13.578268 8.704104 -8.921514
DOCKED: USER    NEWDPF quaternion0 -0.829074 0.292574 -0.467581 0.091680
DOCKED: USER    NEWDPF axisangle0 -0.832580 0.293812 -0.469559 169.479524
DOCKED: USER    NEWDPF quat0 -0.832580 0.293812 -0.469559 169.479524
DOCKED: USER    NEWDPF dihe0 117.72 -180.00 -109.85 -51.64 -85.35 36.26 120.88 -99.41 131.11 -28.81 -98.78 -36.25 -14.73 
DOCKED: USER  keepresnum = 1 
DOCKED: USER  
DOCKED: REMARK  13 active torsions:
DOCKED: REMARK  status: ('A' for Active; 'I' for Inactive)
DOCKED: REMARK    1  A    between atoms: O_3  and  C_38 
DOCKED: REMARK    2  A    between atoms: O_4  and  C_40 
DOCKED: REMARK    3  A    between atoms: O_7  and  C_46 
DOCKED: REMARK    4  A    between atoms: O_9  and  C_48 
DOCKED: REMARK    5  A    between atoms: C_15  and  C_20 
DOCKED: REMARK    6  A    between atoms: C_16  and  C_23 
DOCKED: REMARK    7  A    between atoms: C_20  and  C_38 
DOCKED: REMARK    8  A    between atoms: C_23  and  C_40 
DOCKED: REMARK    9  A    between atoms: C_32  and  C_41 
DOCKED: REMARK   10  A    between atoms: C_37  and  C_45 
DOCKED: REMARK   11  A    between atoms: C_41  and  C_44 
DOCKED: REMARK   12  A    between atoms: C_44  and  C_46 
DOCKED: REMARK   13  A    between atoms: C_47  and  C_48 
DOCKED: USER                              x       y       z     vdW  Elec       q    Type
DOCKED: USER                           _______ _______ _______ _____ _____    ______ ____
DOCKED: ROOT
DOCKED: ATOM      1  O   UNL d   1      10.885   9.298 -14.132 -0.08 -0.04    -0.289 OA
DOCKED: ATOM      2  O   UNL d   1      14.165  14.372  -9.673 -0.04 +0.01    -0.289 OA
DOCKED: ATOM      3  N   UNL d   1      12.233   8.493 -11.061 -0.21 +0.02    -0.247 NA
DOCKED: ATOM      4  N   UNL d   1      13.538  11.021 -10.204 -0.12 +0.00    -0.247 NA
DOCKED: ATOM      5  N   UNL d   1      14.899   9.518  -8.165 -0.07 +0.02    -0.354 N 
DOCKED: ATOM      6  N   UNL d   1      13.556   6.897  -9.074 -0.09 +0.04    -0.354 N 
DOCKED: ATOM      7  C   UNL d   1      11.260   7.213 -12.912 -0.14 -0.01    +0.084 A 
DOCKED: ATOM      8  C   UNL d   1      12.637  13.105 -11.106 -0.16 +0.00    +0.084 A 
DOCKED: ATOM      9  C   UNL d   1      12.637  11.573 -11.086 -0.16 +0.00    +0.058 A 
DOCKED: ATOM     10  C   UNL d   1      11.910   7.228 -11.525 -0.22 -0.01    +0.058 A 
DOCKED: ATOM     11  C   UNL d   1      11.255   8.695 -13.141 -0.14 +0.01    +0.193 A 
DOCKED: ATOM     12  C   UNL d   1      11.846   9.361 -11.938 -0.22 +0.00    +0.109 A 
DOCKED: ATOM     13  C   UNL d   1      13.732  13.319 -10.099 -0.09 -0.00    +0.193 A 
DOCKED: ATOM     14  C   UNL d   1      12.158   6.553 -13.961 -0.05 -0.00    +0.026 C 
DOCKED: ATOM     15  C   UNL d   1      11.861  10.837 -11.897 -0.25 +0.00    +0.055 C 
DOCKED: ATOM     16  C   UNL d   1      11.333  13.681 -10.545 -0.33 +0.00    +0.026 C 
DOCKED: ATOM     17  C   UNL d   1      14.198  11.978  -9.635 -0.12 -0.00    +0.109 A 
DOCKED: ATOM     18  C   UNL d   1      12.059   6.100 -10.806 -0.24 -0.01    +0.050 C 
DOCKED: ATOM     19  C   UNL d   1      12.571   6.028  -9.485 -0.16 -0.01    +0.045 A 
DOCKED: ATOM     20  C   UNL d   1      15.566  10.711  -8.063 -0.11 -0.00    +0.045 A 
DOCKED: ATOM     21  C   UNL d   1      15.302  11.873  -8.670 -0.12 -0.00    +0.057 C 
DOCKED: ATOM     22  C   UNL d   1      16.599   9.172  -6.728 -0.06 +0.00    -0.019 A 
DOCKED: ATOM     23  C   UNL d   1      15.449   8.528  -7.395 -0.13 -0.00    +0.045 A 
DOCKED: ATOM     24  C   UNL d   1      16.662  10.465  -7.127 -0.05 +0.00    -0.022 A 
DOCKED: ATOM     25  C   UNL d   1      13.966   6.592  -7.796 -0.15 -0.00    +0.049 A 
DOCKED: ATOM     26  C   UNL d   1      12.308   5.160  -8.437 -0.29 +0.00    -0.018 A 
DOCKED: ATOM     27  C   UNL d   1      13.178   5.534  -7.366 -0.27 -0.00    +0.003 A 
DOCKED: ATOM     28  C   UNL d   1      15.081   7.251  -7.212 -0.16 -0.00    +0.052 C 
DOCKED: ATOM     29  C   UNL d   1      17.635  11.519  -6.722 -0.02 -0.00    +0.046 C 
DOCKED: ATOM     30  C   UNL d   1      11.309   4.053  -8.426 -0.06 -0.02    +0.046 C 
DOCKED: ATOM     31  H   UNL d   1      14.043   9.438  -8.703 +0.04 -0.01    +0.166 HD
DOCKED: ATOM     32  H   UNL d   1      13.941   7.627  -9.661 +0.03 -0.01    +0.166 HD
DOCKED: ENDROOT
DOCKED: BRANCH   7  33
DOCKED: ATOM     33  C   UNL d   1       9.833   6.656 -12.962 -0.24 -0.01    +0.141 C 
DOCKED: BRANCH  33  34
DOCKED: ATOM     34  C   UNL d   1       9.244   6.697 -14.346 -0.10 +0.07    +0.306 C 
DOCKED: ATOM     35  O   UNL d   1       9.489   7.523 -15.209 -0.59 -0.12    -0.251 OA
DOCKED: BRANCH  34  36
DOCKED: ATOM     36  O   UNL d   1       8.379   5.693 -14.571 -0.54 -0.00    -0.481 OA
DOCKED: ATOM     37  H   UNL d   1       8.926   4.881 -14.527 -0.43 -0.33    +0.295 HD
DOCKED: ENDBRANCH  34  36
DOCKED: ENDBRANCH  33  34
DOCKED: ENDBRANCH   7  33
DOCKED: BRANCH  27  38
DOCKED: ATOM     38  C   UNL d   1      13.245   4.883  -6.092 -0.32 -0.00    +0.017 C 
DOCKED: ATOM     39  C   UNL d   1      14.055   5.238  -5.083 -0.23 +0.00    +0.092 C 
DOCKED: BRANCH  39  40
DOCKED: ATOM     40  C   UNL d   1      14.014   4.498  -3.819 -0.13 +0.04    +0.330 C 
DOCKED: ATOM     41  O   UNL d   1      13.806   3.310  -3.659 -0.32 -0.08    -0.246 OA
DOCKED: BRANCH  40  42
DOCKED: ATOM     42  O   UNL d   1      14.256   5.326  -2.791 -0.34 -0.10    -0.477 OA
DOCKED: ATOM     43  H   UNL d   1      14.391   6.197  -3.218 +0.09 +0.04    +0.295 HD
DOCKED: ENDBRANCH  40  42
DOCKED: ENDBRANCH  39  40
DOCKED: ENDBRANCH  27  38
DOCKED: BRANCH   8  44
DOCKED: ATOM     44  C   UNL d   1      12.995  13.749 -12.450 -0.06 -0.00    +0.141 C 
DOCKED: BRANCH  44  45
DOCKED: ATOM     45  C   UNL d   1      14.473  13.751 -12.733 -0.01 -0.01    +0.306 C 
DOCKED: ATOM     46  O   UNL d   1      15.144  12.802 -13.100 -0.01 +0.01    -0.251 OA
DOCKED: BRANCH  45  47
DOCKED: ATOM     47  O   UNL d   1      15.038  14.951 -12.509 +0.00 +0.02    -0.481 OA
DOCKED: ATOM     48  H   UNL d   1      15.005  15.063 -11.535 +0.01 -0.01    +0.295 HD
DOCKED: ENDBRANCH  45  47
DOCKED: ENDBRANCH  44  45
DOCKED: ENDBRANCH   8  44
DOCKED: BRANCH  22  49
DOCKED: ATOM     49  C   UNL d   1      17.528   8.467  -5.784 -0.03 -0.00    +0.048 C 
DOCKED: BRANCH  49  50
DOCKED: ATOM     50  C   UNL d   1      17.160   8.728  -4.323 -0.03 -0.00    +0.125 C 
DOCKED: BRANCH  50  51
DOCKED: ATOM     51  C   UNL d   1      16.050   7.818  -3.879 -0.05 -0.01    +0.305 C 
DOCKED: ATOM     52  O   UNL d   1      14.881   8.108  -3.693 -0.14 +0.00    -0.251 OA
DOCKED: BRANCH  51  53
DOCKED: ATOM     53  O   UNL d   1      16.482   6.558  -3.674 +0.00 +0.00    -0.481 OA
DOCKED: ATOM     54  H   UNL d   1      16.167   6.342  -2.772 +0.04 +0.01    +0.295 HD
DOCKED: ENDBRANCH  51  53
DOCKED: ENDBRANCH  50  51
DOCKED: ENDBRANCH  49  50
DOCKED: ENDBRANCH  22  49
DOCKED: TORSDOF 13
DOCKED: TER
DOCKED: ENDMDL
________________________________________________________________________________


	BEGINNING GENETIC ALGORITHM DOCKING 41 of 100
Run: 41 Seed: 636615545 543695991 [ Run 41 of 100 GA/GALS ]
Beginning LAMARCKIAN GENETIC ALGORITHM (LGA), with a maximum of 25000000 energy evaluations.

Final-Value: -10.819


	FINAL GENETIC ALGORITHM DOCKED STATE
	_______________________________________________


Detailed state:  trans 6.072 18.445 -9.548 quatxyzw -0.365838 0.897818 0.228295 -0.089254 center 0.153 0.018 -0.028 ntor 13 -105.1050 120.6737 97.8791 0.5458 35.9257 -1.6613 -38.6153 72.8968 134.1430 -122.5108 45.5779 177.6833 139.8238
State:	  6.072  18.445  -9.548  -0.367  0.901  0.229 -169.759   -105.11  120.67   97.88    0.55   35.93   -1.66  -38.62   72.90  134.14 -122.51   45.58  177.68  139.82

DOCKED: MODEL       41
DOCKED: USER    Run = 41
DOCKED: USER    DPF = D:/Protein_go_brrr/autodock/final/mut_K82N/heme/dock.dpf
DOCKED: USER  
DOCKED: USER    Estimated Free Energy of Binding    =   -4.62 kcal/mol  [=(1)+(2)+(3)-(4)]
DOCKED: USER    Estimated Inhibition Constant, Ki   =  412.50 uM (micromolar)  [Temperature = 298.15 K]
DOCKED: USER    
DOCKED: USER    (1) Final Intermolecular Energy     =   -8.50 kcal/mol
DOCKED: USER        vdW + Hbond + desolv Energy     =   -8.17 kcal/mol
DOCKED: USER        Electrostatic Energy            =   -0.32 kcal/mol
DOCKED: USER    (2) Final Total Internal Energy     =   -2.32 kcal/mol
DOCKED: USER    (3) Torsional Free Energy           =   +3.88 kcal/mol
DOCKED: USER    (4) Unbound System's Energy  [=(2)] =   -2.32 kcal/mol
DOCKED: USER    
DOCKED: USER    
DOCKED: USER    NEWDPF move heme_opt.pdbqt
DOCKED: USER    NEWDPF about 0.153000 0.018000 -0.028000
DOCKED: USER    NEWDPF tran0 6.072144 18.445000 -9.548163
DOCKED: USER    NEWDPF quaternion0 -0.365838 0.897818 0.228295 -0.089254
DOCKED: USER    NEWDPF axisangle0 -0.367304 0.901416 0.229210 -169.758578
DOCKED: USER    NEWDPF quat0 -0.367304 0.901416 0.229210 -169.758578
DOCKED: USER    NEWDPF dihe0 -105.11 120.67 97.88 0.55 35.93 -1.66 -38.62 72.90 134.14 -122.51 45.58 177.68 139.82 
DOCKED: USER  keepresnum = 1 
DOCKED: USER  
DOCKED: REMARK  13 active torsions:
DOCKED: REMARK  status: ('A' for Active; 'I' for Inactive)
DOCKED: REMARK    1  A    between atoms: O_3  and  C_38 
DOCKED: REMARK    2  A    between atoms: O_4  and  C_40 
DOCKED: REMARK    3  A    between atoms: O_7  and  C_46 
DOCKED: REMARK    4  A    between atoms: O_9  and  C_48 
DOCKED: REMARK    5  A    between atoms: C_15  and  C_20 
DOCKED: REMARK    6  A    between atoms: C_16  and  C_23 
DOCKED: REMARK    7  A    between atoms: C_20  and  C_38 
DOCKED: REMARK    8  A    between atoms: C_23  and  C_40 
DOCKED: REMARK    9  A    between atoms: C_32  and  C_41 
DOCKED: REMARK   10  A    between atoms: C_37  and  C_45 
DOCKED: REMARK   11  A    between atoms: C_41  and  C_44 
DOCKED: REMARK   12  A    between atoms: C_44  and  C_46 
DOCKED: REMARK   13  A    between atoms: C_47  and  C_48 
DOCKED: USER                              x       y       z     vdW  Elec       q    Type
DOCKED: USER                           _______ _______ _______ _____ _____    ______ ____
DOCKED: ROOT
DOCKED: ATOM      1  O   UNL d   1       8.909  23.271  -7.700 -0.01 +0.04    -0.289 OA
DOCKED: ATOM      2  O   UNL d   1      11.367  16.288  -8.959 -0.09 +0.00    -0.289 OA
DOCKED: ATOM      3  N   UNL d   1       6.821  20.701  -8.662 -0.05 +0.05    -0.247 NA
DOCKED: ATOM      4  N   UNL d   1       8.697  18.461  -9.202 -0.06 +0.02    -0.247 NA
DOCKED: ATOM      5  N   UNL d   1       6.535  17.086 -10.506 -0.11 +0.06    -0.354 N 
DOCKED: ATOM      6  N   UNL d   1       4.600  19.422  -9.959 -0.04 +0.10    -0.354 N 
DOCKED: ATOM      7  C   UNL d   1       6.552  23.113  -8.326 -0.10 -0.01    +0.084 A 
DOCKED: ATOM      8  C   UNL d   1      10.835  18.484  -8.018 -0.07 -0.01    +0.084 A 
DOCKED: ATOM      9  C   UNL d   1       9.514  19.182  -8.359 -0.07 -0.01    +0.058 A 
DOCKED: ATOM     10  C   UNL d   1       5.937  21.766  -8.715 -0.12 -0.01    +0.058 A 
DOCKED: ATOM     11  C   UNL d   1       7.934  22.619  -8.025 -0.04 -0.03    +0.193 A 
DOCKED: ATOM     12  C   UNL d   1       7.963  21.137  -8.242 -0.04 -0.02    +0.109 A 
DOCKED: ATOM     13  C   UNL d   1      10.633  17.251  -8.852 -0.06 -0.01    +0.193 A 
DOCKED: ATOM     14  C   UNL d   1       6.618  24.079  -9.512 -0.04 -0.00    +0.026 C 
DOCKED: ATOM     15  C   UNL d   1       9.207  20.411  -7.916 -0.05 -0.01    +0.055 C 
DOCKED: ATOM     16  C   UNL d   1      10.897  18.076  -6.543 -0.11 -0.00    +0.026 C 
DOCKED: ATOM     17  C   UNL d   1       9.303  17.363  -9.524 -0.13 -0.01    +0.109 A 
DOCKED: ATOM     18  C   UNL d   1       4.625  21.645  -8.992 -0.17 -0.01    +0.050 C 
DOCKED: ATOM     19  C   UNL d   1       3.954  20.429  -9.279 -0.20 -0.01    +0.045 A 
DOCKED: ATOM     20  C   UNL d   1       7.580  16.272 -10.861 -0.24 -0.00    +0.045 A 
DOCKED: ATOM     21  C   UNL d   1       8.851  16.312 -10.447 -0.25 -0.00    +0.057 C 
DOCKED: ATOM     22  C   UNL d   1       5.705  15.594 -11.975 -0.31 +0.00    -0.019 A 
DOCKED: ATOM     23  C   UNL d   1       5.362  16.754 -11.129 -0.24 -0.01    +0.045 A 
DOCKED: ATOM     24  C   UNL d   1       7.019  15.313 -11.811 -0.27 +0.00    -0.022 A 
DOCKED: ATOM     25  C   UNL d   1       3.740  18.377 -10.208 -0.17 -0.02    +0.049 A 
DOCKED: ATOM     26  C   UNL d   1       2.652  20.013  -9.047 -0.31 +0.01    -0.018 A 
DOCKED: ATOM     27  C   UNL d   1       2.528  18.709  -9.618 -0.24 -0.00    +0.003 A 
DOCKED: ATOM     28  C   UNL d   1       4.135  17.289 -11.033 -0.25 -0.01    +0.052 C 
DOCKED: ATOM     29  C   UNL d   1       7.827  14.229 -12.440 -0.18 +0.00    +0.046 C 
DOCKED: ATOM     30  C   UNL d   1       1.586  20.777  -8.336 -0.34 -0.01    +0.046 C 
DOCKED: ATOM     31  H   UNL d   1       6.642  17.798  -9.792 +0.06 -0.03    +0.166 HD
DOCKED: ATOM     32  H   UNL d   1       5.565  19.481 -10.262 +0.04 -0.04    +0.166 HD
DOCKED: ENDROOT
DOCKED: BRANCH   7  33
DOCKED: ATOM     33  C   UNL d   1       5.939  23.782  -7.090 -0.01 -0.03    +0.141 C 
DOCKED: BRANCH  33  34
DOCKED: ATOM     34  C   UNL d   1       6.558  25.120  -6.790 -0.09 -0.06    +0.306 C 
DOCKED: ATOM     35  O   UNL d   1       6.182  26.200  -7.214 -0.05 +0.04    -0.251 OA
DOCKED: BRANCH  34  36
DOCKED: ATOM     36  O   UNL d   1       7.618  25.028  -5.967 -0.04 +0.10    -0.481 OA
DOCKED: ATOM     37  H   UNL d   1       8.326  24.633  -6.520 +0.04 -0.05    +0.295 HD
DOCKED: ENDBRANCH  34  36
DOCKED: ENDBRANCH  33  34
DOCKED: ENDBRANCH   7  33
DOCKED: BRANCH  27  38
DOCKED: ATOM     38  C   UNL d   1       1.336  17.917  -9.616 -0.43 -0.01    +0.017 C 
DOCKED: ATOM     39  C   UNL d   1       0.087  18.397  -9.711 -0.40 -0.03    +0.092 C 
DOCKED: BRANCH  39  40
DOCKED: ATOM     40  C   UNL d   1      -1.052  17.475  -9.715 -0.33 -0.11    +0.330 C 
DOCKED: ATOM     41  O   UNL d   1      -1.024  16.259  -9.702 -0.46 +0.09    -0.246 OA
DOCKED: BRANCH  40  42
DOCKED: ATOM     42  O   UNL d   1      -2.204  18.164  -9.726 -0.25 +0.22    -0.477 OA
DOCKED: ATOM     43  H   UNL d   1      -2.163  18.703  -8.909 -0.37 -0.25    +0.295 HD
DOCKED: ENDBRANCH  40  42
DOCKED: ENDBRANCH  39  40
DOCKED: ENDBRANCH  27  38
DOCKED: BRANCH   8  44
DOCKED: ATOM     44  C   UNL d   1      12.105  19.230  -8.441 -0.02 -0.01    +0.141 C 
DOCKED: BRANCH  44  45
DOCKED: ATOM     45  C   UNL d   1      13.360  18.421  -8.252 -0.01 -0.02    +0.306 C 
DOCKED: ATOM     46  O   UNL d   1      13.991  18.289  -7.218 -0.01 +0.02    -0.251 OA
DOCKED: BRANCH  45  47
DOCKED: ATOM     47  O   UNL d   1      13.773  17.838  -9.392 +0.00 +0.03    -0.481 OA
DOCKED: ATOM     48  H   UNL d   1      13.239  17.018  -9.459 +0.03 -0.01    +0.295 HD
DOCKED: ENDBRANCH  45  47
DOCKED: ENDBRANCH  44  45
DOCKED: ENDBRANCH   8  44
DOCKED: BRANCH  22  49
DOCKED: ATOM     49  C   UNL d   1       4.730  14.885 -12.868 -0.33 -0.00    +0.048 C 
DOCKED: BRANCH  49  50
DOCKED: ATOM     50  C   UNL d   1       4.073  15.839 -13.865 -0.16 -0.03    +0.125 C 
DOCKED: BRANCH  50  51
DOCKED: ATOM     51  C   UNL d   1       2.587  15.623 -13.915 -0.15 -0.14    +0.305 C 
DOCKED: ATOM     52  O   UNL d   1       1.775  15.838 -13.032 -0.30 +0.12    -0.251 OA
DOCKED: BRANCH  51  53
DOCKED: ATOM     53  O   UNL d   1       2.190  15.122 -15.102 -0.08 +0.45    -0.481 OA
DOCKED: ATOM     54  H   UNL d   1       1.218  15.030 -15.008 -0.48 -0.66    +0.295 HD
DOCKED: ENDBRANCH  51  53
DOCKED: ENDBRANCH  50  51
DOCKED: ENDBRANCH  49  50
DOCKED: ENDBRANCH  22  49
DOCKED: TORSDOF 13
DOCKED: TER
DOCKED: ENDMDL
________________________________________________________________________________


	BEGINNING GENETIC ALGORITHM DOCKING 42 of 100
Run: 42 Seed: 314584156 1092136552 [ Run 42 of 100 GA/GALS ]
Beginning LAMARCKIAN GENETIC ALGORITHM (LGA), with a maximum of 25000000 energy evaluations.

Final-Value: -11.917


	FINAL GENETIC ALGORITHM DOCKED STATE
	_______________________________________________


Detailed state:  trans 11.695 4.528 12.219 quatxyzw -0.175555 0.707484 0.014611 0.684422 center 0.153 0.018 -0.028 ntor 13 87.6551 -62.3657 -125.8842 153.4216 -134.9391 172.2745 120.8106 148.8965 43.0949 -34.4443 38.1625 -72.1659 -29.6517
State:	 11.695   4.528  12.219  -0.241  0.970  0.020 93.620     87.66  -62.37 -125.88  153.42 -134.94  172.27  120.81  148.90   43.09  -34.44   38.16  -72.17  -29.65

DOCKED: MODEL       42
DOCKED: USER    Run = 42
DOCKED: USER    DPF = D:/Protein_go_brrr/autodock/final/mut_K82N/heme/dock.dpf
DOCKED: USER  
DOCKED: USER    Estimated Free Energy of Binding    =   -5.54 kcal/mol  [=(1)+(2)+(3)-(4)]
DOCKED: USER    Estimated Inhibition Constant, Ki   =   86.54 uM (micromolar)  [Temperature = 298.15 K]
DOCKED: USER    
DOCKED: USER    (1) Final Intermolecular Energy     =   -9.42 kcal/mol
DOCKED: USER        vdW + Hbond + desolv Energy     =   -9.27 kcal/mol
DOCKED: USER        Electrostatic Energy            =   -0.15 kcal/mol
DOCKED: USER    (2) Final Total Internal Energy     =   -2.50 kcal/mol
DOCKED: USER    (3) Torsional Free Energy           =   +3.88 kcal/mol
DOCKED: USER    (4) Unbound System's Energy  [=(2)] =   -2.50 kcal/mol
DOCKED: USER    
DOCKED: USER    
DOCKED: USER    NEWDPF move heme_opt.pdbqt
DOCKED: USER    NEWDPF about 0.153000 0.018000 -0.028000
DOCKED: USER    NEWDPF tran0 11.695210 4.528466 12.219307
DOCKED: USER    NEWDPF quaternion0 -0.175555 0.707484 0.014611 0.684422
DOCKED: USER    NEWDPF axisangle0 -0.240787 0.970371 0.020040 93.619721
DOCKED: USER    NEWDPF quat0 -0.240787 0.970371 0.020040 93.619721
DOCKED: USER    NEWDPF dihe0 87.66 -62.37 -125.88 153.42 -134.94 172.27 120.81 148.90 43.09 -34.44 38.16 -72.17 -29.65 
DOCKED: USER  keepresnum = 1 
DOCKED: USER  
DOCKED: REMARK  13 active torsions:
DOCKED: REMARK  status: ('A' for Active; 'I' for Inactive)
DOCKED: REMARK    1  A    between atoms: O_3  and  C_38 
DOCKED: REMARK    2  A    between atoms: O_4  and  C_40 
DOCKED: REMARK    3  A    between atoms: O_7  and  C_46 
DOCKED: REMARK    4  A    between atoms: O_9  and  C_48 
DOCKED: REMARK    5  A    between atoms: C_15  and  C_20 
DOCKED: REMARK    6  A    between atoms: C_16  and  C_23 
DOCKED: REMARK    7  A    between atoms: C_20  and  C_38 
DOCKED: REMARK    8  A    between atoms: C_23  and  C_40 
DOCKED: REMARK    9  A    between atoms: C_32  and  C_41 
DOCKED: REMARK   10  A    between atoms: C_37  and  C_45 
DOCKED: REMARK   11  A    between atoms: C_41  and  C_44 
DOCKED: REMARK   12  A    between atoms: C_44  and  C_46 
DOCKED: REMARK   13  A    between atoms: C_47  and  C_48 
DOCKED: USER                              x       y       z     vdW  Elec       q    Type
DOCKED: USER                           _______ _______ _______ _____ _____    ______ ____
DOCKED: ROOT
DOCKED: ATOM      1  O   UNL d   1      10.687   7.476   7.214 -0.12 -0.05    -0.289 OA
DOCKED: ATOM      2  O   UNL d   1      14.343   1.043   8.494 -0.60 -0.03    -0.289 OA
DOCKED: ATOM      3  N   UNL d   1      11.145   6.186  10.380 -0.13 +0.00    -0.247 NA
DOCKED: ATOM      4  N   UNL d   1      12.394   3.539   9.864 -0.09 +0.01    -0.247 NA
DOCKED: ATOM      5  N   UNL d   1      11.849   2.853  12.603 -0.05 +0.03    -0.354 N 
DOCKED: ATOM      6  N   UNL d   1      10.538   5.593  13.124 -0.14 +0.03    -0.354 N 
DOCKED: ATOM      7  C   UNL d   1       9.901   8.081   9.449 -0.25 +0.01    +0.084 A 
DOCKED: ATOM      8  C   UNL d   1      13.658   3.285   7.789 -0.09 -0.00    +0.084 A 
DOCKED: ATOM      9  C   UNL d   1      12.749   4.140   8.678 -0.13 -0.00    +0.058 A 
DOCKED: ATOM     10  C   UNL d   1      10.311   7.253  10.670 -0.25 +0.00    +0.058 A 
DOCKED: ATOM     11  C   UNL d   1      10.666   7.304   8.419 -0.13 +0.02    +0.193 A 
DOCKED: ATOM     12  C   UNL d   1      11.399   6.197   9.112 -0.16 +0.00    +0.109 A 
DOCKED: ATOM     13  C   UNL d   1      13.722   2.072   8.674 -0.09 +0.00    +0.193 A 
DOCKED: ATOM     14  C   UNL d   1       8.405   7.961   9.149 -0.43 +0.01    +0.026 C 
DOCKED: ATOM     15  C   UNL d   1      12.299   5.349   8.306 -0.15 +0.00    +0.055 C 
DOCKED: ATOM     16  C   UNL d   1      15.063   3.883   7.671 -0.03 -0.00    +0.026 C 
DOCKED: ATOM     17  C   UNL d   1      12.908   2.352   9.896 -0.15 -0.01    +0.109 A 
DOCKED: ATOM     18  C   UNL d   1       9.950   7.611  11.916 -0.27 +0.00    +0.050 C 
DOCKED: ATOM     19  C   UNL d   1      10.351   6.957  13.109 -0.25 -0.00    +0.045 A 
DOCKED: ATOM     20  C   UNL d   1      12.240   1.628  12.126 -0.23 -0.01    +0.045 A 
DOCKED: ATOM     21  C   UNL d   1      12.751   1.319  10.930 -0.23 -0.01    +0.057 C 
DOCKED: ATOM     22  C   UNL d   1      11.470   1.377  14.262 -0.36 +0.00    -0.019 A 
DOCKED: ATOM     23  C   UNL d   1      11.370   2.801  13.884 -0.25 -0.01    +0.045 A 
DOCKED: ATOM     24  C   UNL d   1      11.988   0.688  13.218 -0.34 +0.01    -0.022 A 
DOCKED: ATOM     25  C   UNL d   1      10.833   5.160  14.395 -0.23 -0.01    +0.049 A 
DOCKED: ATOM     26  C   UNL d   1      10.565   7.426  14.395 -0.20 +0.00    -0.018 A 
DOCKED: ATOM     27  C   UNL d   1      10.889   6.290  15.199 -0.18 -0.00    +0.003 A 
DOCKED: ATOM     28  C   UNL d   1      10.916   3.772  14.692 -0.31 -0.01    +0.052 C 
DOCKED: ATOM     29  C   UNL d   1      12.289  -0.768  13.119 -0.44 -0.02    +0.046 C 
DOCKED: ATOM     30  C   UNL d   1      10.478   8.843  14.852 -0.15 +0.00    +0.046 C 
DOCKED: ATOM     31  H   UNL d   1      11.992   3.698  12.061 +0.06 -0.01    +0.166 HD
DOCKED: ATOM     32  H   UNL d   1      10.428   5.004  12.307 +0.07 -0.01    +0.166 HD
DOCKED: ENDROOT
DOCKED: BRANCH   7  33
DOCKED: ATOM     33  C   UNL d   1      10.356   9.545   9.465 -0.15 +0.04    +0.141 C 
DOCKED: BRANCH  33  34
DOCKED: ATOM     34  C   UNL d   1      11.699   9.741   8.815 -0.02 +0.05    +0.306 C 
DOCKED: ATOM     35  O   UNL d   1      12.785   9.536   9.329 -0.01 -0.02    -0.251 OA
DOCKED: BRANCH  34  36
DOCKED: ATOM     36  O   UNL d   1      11.602  10.185   7.549 -0.01 -0.12    -0.481 OA
DOCKED: ATOM     37  H   UNL d   1      11.644   9.373   6.999 +0.06 +0.06    +0.295 HD
DOCKED: ENDBRANCH  34  36
DOCKED: ENDBRANCH  33  34
DOCKED: ENDBRANCH   7  33
DOCKED: BRANCH  27  38
DOCKED: ATOM     38  C   UNL d   1      11.171   6.325  16.603 -0.12 -0.00    +0.017 C 
DOCKED: ATOM     39  C   UNL d   1      10.829   5.374  17.485 -0.16 +0.00    +0.092 C 
DOCKED: BRANCH  39  40
DOCKED: ATOM     40  C   UNL d   1      11.193   5.523  18.897 -0.08 +0.04    +0.330 C 
DOCKED: ATOM     41  O   UNL d   1      10.823   4.845  19.836 -0.19 -0.07    -0.246 OA
DOCKED: BRANCH  40  42
DOCKED: ATOM     42  O   UNL d   1      12.043   6.551  19.048 +0.01 -0.04    -0.477 OA
DOCKED: ATOM     43  H   UNL d   1      11.553   7.177  19.621 +0.04 +0.03    +0.295 HD
DOCKED: ENDBRANCH  40  42
DOCKED: ENDBRANCH  39  40
DOCKED: ENDBRANCH  27  38
DOCKED: BRANCH   8  44
DOCKED: ATOM     44  C   UNL d   1      13.089   2.930   6.411 -0.09 -0.00    +0.141 C 
DOCKED: BRANCH  44  45
DOCKED: ATOM     45  C   UNL d   1      12.190   1.723   6.433 -0.18 +0.00    +0.306 C 
DOCKED: ATOM     46  O   UNL d   1      11.038   1.682   6.830 -0.34 +0.00    -0.251 OA
DOCKED: BRANCH  45  47
DOCKED: ATOM     47  O   UNL d   1      12.802   0.616   5.975 -0.09 -0.06    -0.481 OA
DOCKED: ATOM     48  H   UNL d   1      13.624   0.549   6.507 +0.08 +0.04    +0.295 HD
DOCKED: ENDBRANCH  45  47
DOCKED: ENDBRANCH  44  45
DOCKED: ENDBRANCH   8  44
DOCKED: BRANCH  22  49
DOCKED: ATOM     49  C   UNL d   1      11.042   0.826  15.590 -0.12 -0.02    +0.048 C 
DOCKED: BRANCH  49  50
DOCKED: ATOM     50  C   UNL d   1      12.231   0.316  16.405 -0.32 -0.02    +0.125 C 
DOCKED: BRANCH  50  51
DOCKED: ATOM     51  C   UNL d   1      11.878  -0.949  17.135 -0.32 -0.05    +0.305 C 
DOCKED: ATOM     52  O   UNL d   1      12.591  -1.917  17.332 -0.32 -0.01    -0.251 OA
DOCKED: BRANCH  51  53
DOCKED: ATOM     53  O   UNL d   1      10.606  -0.935  17.582 -0.30 +0.15    -0.481 OA
DOCKED: ATOM     54  H   UNL d   1      10.406   0.017  17.701 -0.35 -0.13    +0.295 HD
DOCKED: ENDBRANCH  51  53
DOCKED: ENDBRANCH  50  51
DOCKED: ENDBRANCH  49  50
DOCKED: ENDBRANCH  22  49
DOCKED: TORSDOF 13
DOCKED: TER
DOCKED: ENDMDL
________________________________________________________________________________


	BEGINNING GENETIC ALGORITHM DOCKING 43 of 100
Run: 43 Seed: 919501849 165601319 [ Run 43 of 100 GA/GALS ]
Beginning LAMARCKIAN GENETIC ALGORITHM (LGA), with a maximum of 25000000 energy evaluations.

Final-Value: -10.473


	FINAL GENETIC ALGORITHM DOCKED STATE
	_______________________________________________


Detailed state:  trans -8.626 12.167 -11.812 quatxyzw -0.682034 -0.559429 0.411804 0.228662 center 0.153 0.018 -0.028 ntor 13 -147.4797 82.9112 -105.8765 13.0726 -156.4859 -161.0221 174.5686 43.7469 -164.2450 19.9611 -88.1449 3.8838 -1.9980
State:	 -8.626  12.167 -11.812  -0.701 -0.575  0.423 153.563   -147.48   82.91 -105.88   13.07 -156.49 -161.02  174.57   43.75 -164.24   19.96  -88.14    3.88   -2.00

DOCKED: MODEL       43
DOCKED: USER    Run = 43
DOCKED: USER    DPF = D:/Protein_go_brrr/autodock/final/mut_K82N/heme/dock.dpf
DOCKED: USER  
DOCKED: USER    Estimated Free Energy of Binding    =   -4.08 kcal/mol  [=(1)+(2)+(3)-(4)]
DOCKED: USER    Estimated Inhibition Constant, Ki   =    1.03 mM (millimolar)  [Temperature = 298.15 K]
DOCKED: USER    
DOCKED: USER    (1) Final Intermolecular Energy     =   -7.96 kcal/mol
DOCKED: USER        vdW + Hbond + desolv Energy     =   -7.25 kcal/mol
DOCKED: USER        Electrostatic Energy            =   -0.71 kcal/mol
DOCKED: USER    (2) Final Total Internal Energy     =   -2.52 kcal/mol
DOCKED: USER    (3) Torsional Free Energy           =   +3.88 kcal/mol
DOCKED: USER    (4) Unbound System's Energy  [=(2)] =   -2.52 kcal/mol
DOCKED: USER    
DOCKED: USER    
DOCKED: USER    NEWDPF move heme_opt.pdbqt
DOCKED: USER    NEWDPF about 0.153000 0.018000 -0.028000
DOCKED: USER    NEWDPF tran0 -8.625791 12.167483 -11.811964
DOCKED: USER    NEWDPF quaternion0 -0.682034 -0.559429 0.411804 0.228662
DOCKED: USER    NEWDPF axisangle0 -0.700596 -0.574654 0.423011 153.563396
DOCKED: USER    NEWDPF quat0 -0.700596 -0.574654 0.423011 153.563396
DOCKED: USER    NEWDPF dihe0 -147.48 82.91 -105.88 13.07 -156.49 -161.02 174.57 43.75 -164.24 19.96 -88.14 3.88 -2.00 
DOCKED: USER  keepresnum = 1 
DOCKED: USER  
DOCKED: REMARK  13 active torsions:
DOCKED: REMARK  status: ('A' for Active; 'I' for Inactive)
DOCKED: REMARK    1  A    between atoms: O_3  and  C_38 
DOCKED: REMARK    2  A    between atoms: O_4  and  C_40 
DOCKED: REMARK    3  A    between atoms: O_7  and  C_46 
DOCKED: REMARK    4  A    between atoms: O_9  and  C_48 
DOCKED: REMARK    5  A    between atoms: C_15  and  C_20 
DOCKED: REMARK    6  A    between atoms: C_16  and  C_23 
DOCKED: REMARK    7  A    between atoms: C_20  and  C_38 
DOCKED: REMARK    8  A    between atoms: C_23  and  C_40 
DOCKED: REMARK    9  A    between atoms: C_32  and  C_41 
DOCKED: REMARK   10  A    between atoms: C_37  and  C_45 
DOCKED: REMARK   11  A    between atoms: C_41  and  C_44 
DOCKED: REMARK   12  A    between atoms: C_44  and  C_46 
DOCKED: REMARK   13  A    between atoms: C_47  and  C_48 
DOCKED: USER                              x       y       z     vdW  Elec       q    Type
DOCKED: USER                           _______ _______ _______ _____ _____    ______ ____
DOCKED: ROOT
DOCKED: ATOM      1  O   UNL d   1      -7.413   7.987  -7.836 -0.15 -0.04    -0.289 OA
DOCKED: ATOM      2  O   UNL d   1     -12.846  13.166  -8.040 -0.03 -0.10    -0.289 OA
DOCKED: ATOM      3  N   UNL d   1      -7.649  10.349 -10.338 -0.16 -0.03    -0.247 NA
DOCKED: ATOM      4  N   UNL d   1     -10.219  11.718  -9.745 -0.24 -0.08    -0.247 NA
DOCKED: ATOM      5  N   UNL d   1     -10.090  12.894 -12.365 +0.01 -0.10    -0.354 N 
DOCKED: ATOM      6  N   UNL d   1      -7.435  11.455 -12.980 -0.07 -0.01    -0.354 N 
DOCKED: ATOM      7  C   UNL d   1      -6.229   8.392  -9.936 -0.28 -0.00    +0.084 A 
DOCKED: ATOM      8  C   UNL d   1     -10.984  11.702  -7.424 -0.13 +0.02    +0.084 A 
DOCKED: ATOM      9  C   UNL d   1      -9.976  11.233  -8.479 -0.18 +0.02    +0.058 A 
DOCKED: ATOM     10  C   UNL d   1      -6.615   9.572 -10.833 -0.26 -0.00    +0.058 A 
DOCKED: ATOM     11  C   UNL d   1      -7.215   8.651  -8.837 -0.21 +0.01    +0.193 A 
DOCKED: ATOM     12  C   UNL d   1      -8.000   9.878  -9.186 -0.20 +0.01    +0.109 A 
DOCKED: ATOM     13  C   UNL d   1     -11.864  12.512  -8.333 -0.06 +0.06    +0.193 A 
DOCKED: ATOM     14  C   UNL d   1      -6.553   7.045 -10.586 -0.21 +0.00    +0.026 C 
DOCKED: ATOM     15  C   UNL d   1      -8.976  10.383  -8.200 -0.15 +0.01    +0.055 C 
DOCKED: ATOM     16  C   UNL d   1     -10.338  12.640  -6.400 -0.35 +0.01    +0.026 C 
DOCKED: ATOM     17  C   UNL d   1     -11.296  12.434  -9.713 -0.09 +0.03    +0.109 A 
DOCKED: ATOM     18  C   UNL d   1      -5.928   9.856 -11.956 -0.26 -0.01    +0.050 C 
DOCKED: ATOM     19  C   UNL d   1      -6.159  10.971 -12.801 -0.26 -0.01    +0.045 A 
DOCKED: ATOM     20  C   UNL d   1     -11.366  13.250 -12.010 -0.07 +0.01    +0.045 A 
DOCKED: ATOM     21  C   UNL d   1     -11.979  13.102 -10.831 -0.07 +0.01    +0.057 C 
DOCKED: ATOM     22  C   UNL d   1     -11.023  13.819 -14.195 -0.03 -0.00    -0.019 A 
DOCKED: ATOM     23  C   UNL d   1      -9.792  13.198 -13.667 -0.06 +0.01    +0.045 A 
DOCKED: ATOM     24  C   UNL d   1     -11.950  13.848 -13.209 -0.03 -0.00    -0.022 A 
DOCKED: ATOM     25  C   UNL d   1      -7.440  12.474 -13.904 -0.13 -0.00    +0.049 A 
DOCKED: ATOM     26  C   UNL d   1      -5.308  11.718 -13.601 -0.34 +0.00    -0.018 A 
DOCKED: ATOM     27  C   UNL d   1      -6.120  12.679 -14.280 -0.24 -0.00    +0.003 A 
DOCKED: ATOM     28  C   UNL d   1      -8.663  13.028 -14.371 -0.10 +0.00    +0.052 C 
DOCKED: ATOM     29  C   UNL d   1     -13.340  14.385 -13.251 -0.01 +0.00    +0.046 C 
DOCKED: ATOM     30  C   UNL d   1      -3.831  11.554 -13.726 -0.46 -0.02    +0.046 C 
DOCKED: ATOM     31  H   UNL d   1      -9.439  12.522 -11.683 +0.05 +0.10    +0.166 HD
DOCKED: ATOM     32  H   UNL d   1      -8.250  11.071 -12.517 +0.04 +0.02    +0.166 HD
DOCKED: ENDROOT
DOCKED: BRANCH   7  33
DOCKED: ATOM     33  C   UNL d   1      -4.797   8.423  -9.391 -0.26 -0.03    +0.141 C 
DOCKED: BRANCH  33  34
DOCKED: ATOM     34  C   UNL d   1      -3.965   7.270  -9.883 -0.32 -0.04    +0.306 C 
DOCKED: ATOM     35  O   UNL d   1      -3.680   6.266  -9.252 -0.35 +0.00    -0.251 OA
DOCKED: BRANCH  34  36
DOCKED: ATOM     36  O   UNL d   1      -3.537   7.441 -11.147 -0.19 +0.09    -0.481 OA
DOCKED: ATOM     37  H   UNL d   1      -3.451   8.413 -11.248 -0.37 -0.18    +0.295 HD
DOCKED: ENDBRANCH  34  36
DOCKED: ENDBRANCH  33  34
DOCKED: ENDBRANCH   7  33
DOCKED: BRANCH  27  38
DOCKED: ATOM     38  C   UNL d   1      -5.641  13.646 -15.221 -0.24 -0.01    +0.017 C 
DOCKED: ATOM     39  C   UNL d   1      -6.051  14.921 -15.298 -0.21 -0.04    +0.092 C 
DOCKED: BRANCH  39  40
DOCKED: ATOM     40  C   UNL d   1      -5.467  15.817 -16.299 -0.02 -0.27    +0.330 C 
DOCKED: ATOM     41  O   UNL d   1      -5.508  17.032 -16.324 -0.10 +0.15    -0.246 OA
DOCKED: BRANCH  40  42
DOCKED: ATOM     42  O   UNL d   1      -4.833  15.104 -17.243 -0.00 +0.54    -0.477 OA
DOCKED: ATOM     43  H   UNL d   1      -3.896  15.122 -16.961 -0.40 -0.83    +0.295 HD
DOCKED: ENDBRANCH  40  42
DOCKED: ENDBRANCH  39  40
DOCKED: ENDBRANCH  27  38
DOCKED: BRANCH   8  44
DOCKED: ATOM     44  C   UNL d   1     -11.782  10.592  -6.733 -0.06 +0.04    +0.141 C 
DOCKED: BRANCH  44  45
DOCKED: ATOM     45  C   UNL d   1     -11.998   9.384  -7.606 -0.00 +0.09    +0.306 C 
DOCKED: ATOM     46  O   UNL d   1     -11.790   8.222  -7.304 -0.03 -0.12    -0.251 OA
DOCKED: BRANCH  45  47
DOCKED: ATOM     47  O   UNL d   1     -12.444   9.710  -8.833 +0.02 -0.11    -0.481 OA
DOCKED: ATOM     48  H   UNL d   1     -11.664  10.094  -9.287 +0.03 +0.06    +0.295 HD
DOCKED: ENDBRANCH  45  47
DOCKED: ENDBRANCH  44  45
DOCKED: ENDBRANCH   8  44
DOCKED: BRANCH  22  49
DOCKED: ATOM     49  C   UNL d   1     -11.182  14.308 -15.605 -0.01 +0.00    +0.048 C 
DOCKED: BRANCH  49  50
DOCKED: ATOM     50  C   UNL d   1     -10.662  15.735 -15.774 -0.01 +0.00    +0.125 C 
DOCKED: BRANCH  50  51
DOCKED: ATOM     51  C   UNL d   1      -9.225  15.734 -16.214 -0.01 -0.02    +0.305 C 
DOCKED: ATOM     52  O   UNL d   1      -8.686  14.964 -16.988 -0.01 +0.03    -0.251 OA
DOCKED: BRANCH  51  53
DOCKED: ATOM     53  O   UNL d   1      -8.519  16.723 -15.630 +0.00 +0.03    -0.481 OA
DOCKED: ATOM     54  H   UNL d   1      -7.682  16.750 -16.139 +0.04 -0.05    +0.295 HD
DOCKED: ENDBRANCH  51  53
DOCKED: ENDBRANCH  50  51
DOCKED: ENDBRANCH  49  50
DOCKED: ENDBRANCH  22  49
DOCKED: TORSDOF 13
DOCKED: TER
DOCKED: ENDMDL
________________________________________________________________________________


	BEGINNING GENETIC ALGORITHM DOCKING 44 of 100
Run: 44 Seed: 1914861658 805414432 [ Run 44 of 100 GA/GALS ]
Beginning LAMARCKIAN GENETIC ALGORITHM (LGA), with a maximum of 25000000 energy evaluations.

Final-Value: -12.512


	FINAL GENETIC ALGORITHM DOCKED STATE
	_______________________________________________


Detailed state:  trans 7.023 22.368 -6.158 quatxyzw -0.587791 -0.140457 0.785421 -0.133743 center 0.153 0.018 -0.028 ntor 13 177.7442 171.8009 -120.0149 -48.3332 -148.0737 -50.2975 127.6681 -89.2781 25.1082 -32.4975 -105.1891 25.4409 -7.9240
State:	  7.023  22.368  -6.158  -0.593 -0.142  0.793 -164.628    177.74  171.80 -120.01  -48.33 -148.07  -50.30  127.67  -89.28   25.11  -32.50 -105.19   25.44   -7.92

DOCKED: MODEL       44
DOCKED: USER    Run = 44
DOCKED: USER    DPF = D:/Protein_go_brrr/autodock/final/mut_K82N/heme/dock.dpf
DOCKED: USER  
DOCKED: USER    Estimated Free Energy of Binding    =   -3.81 kcal/mol  [=(1)+(2)+(3)-(4)]
DOCKED: USER    Estimated Inhibition Constant, Ki   =    1.62 mM (millimolar)  [Temperature = 298.15 K]
DOCKED: USER    
DOCKED: USER    (1) Final Intermolecular Energy     =   -7.69 kcal/mol
DOCKED: USER        vdW + Hbond + desolv Energy     =   -7.66 kcal/mol
DOCKED: USER        Electrostatic Energy            =   -0.03 kcal/mol
DOCKED: USER    (2) Final Total Internal Energy     =   -4.83 kcal/mol
DOCKED: USER    (3) Torsional Free Energy           =   +3.88 kcal/mol
DOCKED: USER    (4) Unbound System's Energy  [=(2)] =   -4.83 kcal/mol
DOCKED: USER    
DOCKED: USER    
DOCKED: USER    NEWDPF move heme_opt.pdbqt
DOCKED: USER    NEWDPF about 0.153000 0.018000 -0.028000
DOCKED: USER    NEWDPF tran0 7.023117 22.368077 -6.158255
DOCKED: USER    NEWDPF quaternion0 -0.587791 -0.140457 0.785421 -0.133743
DOCKED: USER    NEWDPF axisangle0 -0.593119 -0.141731 0.792541 -164.628100
DOCKED: USER    NEWDPF quat0 -0.593119 -0.141731 0.792541 -164.628100
DOCKED: USER    NEWDPF dihe0 177.74 171.80 -120.01 -48.33 -148.07 -50.30 127.67 -89.28 25.11 -32.50 -105.19 25.44 -7.92 
DOCKED: USER  keepresnum = 1 
DOCKED: USER  
DOCKED: REMARK  13 active torsions:
DOCKED: REMARK  status: ('A' for Active; 'I' for Inactive)
DOCKED: REMARK    1  A    between atoms: O_3  and  C_38 
DOCKED: REMARK    2  A    between atoms: O_4  and  C_40 
DOCKED: REMARK    3  A    between atoms: O_7  and  C_46 
DOCKED: REMARK    4  A    between atoms: O_9  and  C_48 
DOCKED: REMARK    5  A    between atoms: C_15  and  C_20 
DOCKED: REMARK    6  A    between atoms: C_16  and  C_23 
DOCKED: REMARK    7  A    between atoms: C_20  and  C_38 
DOCKED: REMARK    8  A    between atoms: C_23  and  C_40 
DOCKED: REMARK    9  A    between atoms: C_32  and  C_41 
DOCKED: REMARK   10  A    between atoms: C_37  and  C_45 
DOCKED: REMARK   11  A    between atoms: C_41  and  C_44 
DOCKED: REMARK   12  A    between atoms: C_44  and  C_46 
DOCKED: REMARK   13  A    between atoms: C_47  and  C_48 
DOCKED: USER                              x       y       z     vdW  Elec       q    Type
DOCKED: USER                           _______ _______ _______ _____ _____    ______ ____
DOCKED: ROOT
DOCKED: ATOM      1  O   UNL d   1       7.858  18.660  -1.652 -0.20 +0.02    -0.289 OA
DOCKED: ATOM      2  O   UNL d   1       9.484  25.953  -2.399 -0.02 +0.03    -0.289 OA
DOCKED: ATOM      3  N   UNL d   1       7.299  20.409  -4.571 -0.13 +0.09    -0.247 NA
DOCKED: ATOM      4  N   UNL d   1       7.950  23.210  -3.825 -0.10 +0.08    -0.247 NA
DOCKED: ATOM      5  N   UNL d   1       6.681  24.057  -6.262 -0.04 +0.11    -0.354 N 
DOCKED: ATOM      6  N   UNL d   1       5.992  21.149  -7.019 -0.08 +0.11    -0.354 N 
DOCKED: ATOM      7  C   UNL d   1       6.781  18.146  -3.785 -0.47 -0.02    +0.084 A 
DOCKED: ATOM      8  C   UNL d   1       9.530  23.540  -1.991 -0.09 -0.01    +0.084 A 
DOCKED: ATOM      9  C   UNL d   1       8.687  22.586  -2.843 -0.19 -0.01    +0.058 A 
DOCKED: ATOM     10  C   UNL d   1       6.706  19.199  -4.894 -0.37 -0.02    +0.058 A 
DOCKED: ATOM     11  C   UNL d   1       7.537  18.968  -2.785 -0.29 -0.03    +0.193 A 
DOCKED: ATOM     12  C   UNL d   1       7.814  20.309  -3.389 -0.26 -0.02    +0.109 A 
DOCKED: ATOM     13  C   UNL d   1       9.107  24.824  -2.646 -0.06 -0.03    +0.193 A 
DOCKED: ATOM     14  C   UNL d   1       5.400  17.815  -3.213 -0.65 -0.01    +0.026 C 
DOCKED: ATOM     15  C   UNL d   1       8.634  21.264  -2.617 -0.23 -0.01    +0.055 C 
DOCKED: ATOM     16  C   UNL d   1      11.030  23.337  -2.227 -0.04 -0.00    +0.026 C 
DOCKED: ATOM     17  C   UNL d   1       8.142  24.487  -3.736 -0.13 -0.02    +0.109 A 
DOCKED: ATOM     18  C   UNL d   1       6.184  18.914  -6.102 -0.29 -0.01    +0.050 C 
DOCKED: ATOM     19  C   UNL d   1       6.148  19.795  -7.212 -0.28 -0.01    +0.045 A 
DOCKED: ATOM     20  C   UNL d   1       6.857  25.272  -5.653 -0.15 -0.01    +0.045 A 
DOCKED: ATOM     21  C   UNL d   1       7.521  25.558  -4.529 -0.13 -0.01    +0.057 C 
DOCKED: ATOM     22  C   UNL d   1       5.608  25.567  -7.544 -0.11 +0.00    -0.019 A 
DOCKED: ATOM     23  C   UNL d   1       5.939  24.134  -7.411 -0.11 -0.01    +0.045 A 
DOCKED: ATOM     24  C   UNL d   1       6.155  26.236  -6.501 -0.10 +0.00    -0.022 A 
DOCKED: ATOM     25  C   UNL d   1       5.893  21.801  -8.227 -0.15 -0.01    +0.049 A 
DOCKED: ATOM     26  C   UNL d   1       6.189  19.565  -8.578 -0.18 +0.00    -0.018 A 
DOCKED: ATOM     27  C   UNL d   1       6.047  20.837  -9.214 -0.10 -0.00    +0.003 A 
DOCKED: ATOM     28  C   UNL d   1       5.572  23.184  -8.284 -0.12 -0.01    +0.052 C 
DOCKED: ATOM     29  C   UNL d   1       6.109  27.695  -6.202 -0.04 -0.01    +0.046 C 
DOCKED: ATOM     30  C   UNL d   1       6.351  18.246  -9.255 -0.24 -0.01    +0.046 C 
DOCKED: ATOM     31  H   UNL d   1       7.137  23.222  -5.911 -0.35 -0.07    +0.166 HD
DOCKED: ATOM     32  H   UNL d   1       5.920  21.580  -6.105 -0.45 -0.11    +0.166 HD
DOCKED: ENDROOT
DOCKED: BRANCH   7  33
DOCKED: ATOM     33  C   UNL d   1       7.562  16.875  -4.138 -0.41 -0.03    +0.141 C 
DOCKED: BRANCH  33  34
DOCKED: ATOM     34  C   UNL d   1       9.048  17.105  -4.190 -0.17 -0.07    +0.306 C 
DOCKED: ATOM     35  O   UNL d   1       9.701  17.373  -5.184 -0.15 +0.03    -0.251 OA
DOCKED: BRANCH  34  36
DOCKED: ATOM     36  O   UNL d   1       9.634  16.986  -2.985 -0.08 +0.16    -0.481 OA
DOCKED: ATOM     37  H   UNL d   1       8.889  16.851  -2.361 -0.27 -0.12    +0.295 HD
DOCKED: ENDBRANCH  34  36
DOCKED: ENDBRANCH  33  34
DOCKED: ENDBRANCH   7  33
DOCKED: BRANCH  27  38
DOCKED: ATOM     38  C   UNL d   1       6.021  21.055 -10.629 -0.04 -0.00    +0.017 C 
DOCKED: ATOM     39  C   UNL d   1       6.914  21.782 -11.318 -0.01 -0.01    +0.092 C 
DOCKED: BRANCH  39  40
DOCKED: ATOM     40  C   UNL d   1       6.784  21.912 -12.771 +0.00 -0.04    +0.330 C 
DOCKED: ATOM     41  O   UNL d   1       6.669  21.021 -13.590 -0.00 +0.03    -0.246 OA
DOCKED: BRANCH  40  42
DOCKED: ATOM     42  O   UNL d   1       6.798  23.208 -13.122 +0.00 +0.05    -0.477 OA
DOCKED: ATOM     43  H   UNL d   1       6.756  23.683 -12.266 +0.00 -0.03    +0.295 HD
DOCKED: ENDBRANCH  40  42
DOCKED: ENDBRANCH  39  40
DOCKED: ENDBRANCH  27  38
DOCKED: BRANCH   8  44
DOCKED: ATOM     44  C   UNL d   1       9.202  23.553  -0.494 -0.12 -0.01    +0.141 C 
DOCKED: BRANCH  44  45
DOCKED: ATOM     45  C   UNL d   1       8.024  24.426  -0.152 -0.11 -0.04    +0.306 C 
DOCKED: ATOM     46  O   UNL d   1       6.847  24.117  -0.217 -0.14 +0.02    -0.251 OA
DOCKED: BRANCH  45  47
DOCKED: ATOM     47  O   UNL d   1       8.394  25.661   0.232 -0.01 +0.08    -0.481 OA
DOCKED: ATOM     48  H   UNL d   1       8.891  26.020  -0.534 +0.04 -0.04    +0.295 HD
DOCKED: ENDBRANCH  45  47
DOCKED: ENDBRANCH  44  45
DOCKED: ENDBRANCH   8  44
DOCKED: BRANCH  22  49
DOCKED: ATOM     49  C   UNL d   1       4.784  26.141  -8.658 -0.06 -0.01    +0.048 C 
DOCKED: BRANCH  49  50
DOCKED: ATOM     50  C   UNL d   1       5.652  26.591  -9.834 -0.01 -0.01    +0.125 C 
DOCKED: BRANCH  50  51
DOCKED: ATOM     51  C   UNL d   1       6.131  25.411 -10.630 -0.00 -0.04    +0.305 C 
DOCKED: ATOM     52  O   UNL d   1       7.195  24.827 -10.526 -0.00 +0.03    -0.251 OA
DOCKED: BRANCH  51  53
DOCKED: ATOM     53  O   UNL d   1       5.225  25.023 -11.551 +0.00 +0.06    -0.481 OA
DOCKED: ATOM     54  H   UNL d   1       5.747  24.939 -12.376 +0.00 -0.03    +0.295 HD
DOCKED: ENDBRANCH  51  53
DOCKED: ENDBRANCH  50  51
DOCKED: ENDBRANCH  49  50
DOCKED: ENDBRANCH  22  49
DOCKED: TORSDOF 13
DOCKED: TER
DOCKED: ENDMDL
________________________________________________________________________________


	BEGINNING GENETIC ALGORITHM DOCKING 45 of 100
Run: 45 Seed: 856016405 857283108 [ Run 45 of 100 GA/GALS ]
Beginning LAMARCKIAN GENETIC ALGORITHM (LGA), with a maximum of 25000000 energy evaluations.

Final-Value: -11.308


	FINAL GENETIC ALGORITHM DOCKED STATE
	_______________________________________________


Detailed state:  trans -7.664 7.670 -13.742 quatxyzw 0.755732 0.079571 -0.460933 0.458343 center 0.153 0.018 -0.028 ntor 13 -123.8868 -15.0315 -119.6570 108.1993 28.4465 -150.9643 122.4290 106.1454 147.6923 -23.6535 137.7339 36.3901 -2.8964
State:	 -7.664   7.670 -13.742   0.850  0.090 -0.519 125.439   -123.89  -15.03 -119.66  108.20   28.45 -150.96  122.43  106.15  147.69  -23.65  137.73   36.39   -2.90

DOCKED: MODEL       45
DOCKED: USER    Run = 45
DOCKED: USER    DPF = D:/Protein_go_brrr/autodock/final/mut_K82N/heme/dock.dpf
DOCKED: USER  
DOCKED: USER    Estimated Free Energy of Binding    =   -4.83 kcal/mol  [=(1)+(2)+(3)-(4)]
DOCKED: USER    Estimated Inhibition Constant, Ki   =  288.90 uM (micromolar)  [Temperature = 298.15 K]
DOCKED: USER    
DOCKED: USER    (1) Final Intermolecular Energy     =   -8.71 kcal/mol
DOCKED: USER        vdW + Hbond + desolv Energy     =   -8.40 kcal/mol
DOCKED: USER        Electrostatic Energy            =   -0.30 kcal/mol
DOCKED: USER    (2) Final Total Internal Energy     =   -2.60 kcal/mol
DOCKED: USER    (3) Torsional Free Energy           =   +3.88 kcal/mol
DOCKED: USER    (4) Unbound System's Energy  [=(2)] =   -2.60 kcal/mol
DOCKED: USER    
DOCKED: USER    
DOCKED: USER    NEWDPF move heme_opt.pdbqt
DOCKED: USER    NEWDPF about 0.153000 0.018000 -0.028000
DOCKED: USER    NEWDPF tran0 -7.663799 7.669776 -13.741919
DOCKED: USER    NEWDPF quaternion0 0.755732 0.079571 -0.460933 0.458343
DOCKED: USER    NEWDPF axisangle0 0.850307 0.089528 -0.518616 125.439502
DOCKED: USER    NEWDPF quat0 0.850307 0.089528 -0.518616 125.439502
DOCKED: USER    NEWDPF dihe0 -123.89 -15.03 -119.66 108.20 28.45 -150.96 122.43 106.15 147.69 -23.65 137.73 36.39 -2.90 
DOCKED: USER  keepresnum = 1 
DOCKED: USER  
DOCKED: REMARK  13 active torsions:
DOCKED: REMARK  status: ('A' for Active; 'I' for Inactive)
DOCKED: REMARK    1  A    between atoms: O_3  and  C_38 
DOCKED: REMARK    2  A    between atoms: O_4  and  C_40 
DOCKED: REMARK    3  A    between atoms: O_7  and  C_46 
DOCKED: REMARK    4  A    between atoms: O_9  and  C_48 
DOCKED: REMARK    5  A    between atoms: C_15  and  C_20 
DOCKED: REMARK    6  A    between atoms: C_16  and  C_23 
DOCKED: REMARK    7  A    between atoms: C_20  and  C_38 
DOCKED: REMARK    8  A    between atoms: C_23  and  C_40 
DOCKED: REMARK    9  A    between atoms: C_32  and  C_41 
DOCKED: REMARK   10  A    between atoms: C_37  and  C_45 
DOCKED: REMARK   11  A    between atoms: C_41  and  C_44 
DOCKED: REMARK   12  A    between atoms: C_44  and  C_46 
DOCKED: REMARK   13  A    between atoms: C_47  and  C_48 
DOCKED: USER                              x       y       z     vdW  Elec       q    Type
DOCKED: USER                           _______ _______ _______ _____ _____    ______ ____
DOCKED: ROOT
DOCKED: ATOM      1  O   UNL d   1     -11.829   4.068 -11.636 -0.08 -0.10    -0.289 OA
DOCKED: ATOM      2  O   UNL d   1      -6.478   7.998  -8.127 -0.24 -0.01    -0.289 OA
DOCKED: ATOM      3  N   UNL d   1      -9.494   5.964 -13.324 -0.09 -0.04    -0.247 NA
DOCKED: ATOM      4  N   UNL d   1      -8.034   7.352 -11.139 -0.08 -0.02    -0.247 NA
DOCKED: ATOM      5  N   UNL d   1      -6.897   9.089 -13.128 -0.04 +0.02    -0.354 N 
DOCKED: ATOM      6  N   UNL d   1      -8.430   7.656 -15.386 -0.05 +0.01    -0.354 N 
DOCKED: ATOM      7  C   UNL d   1     -11.490   4.699 -13.974 -0.15 +0.03    +0.084 A 
DOCKED: ATOM      8  C   UNL d   1      -7.994   6.262  -8.953 -0.18 +0.02    +0.084 A 
DOCKED: ATOM      9  C   UNL d   1      -8.509   6.296 -10.395 -0.15 +0.01    +0.058 A 
DOCKED: ATOM     10  C   UNL d   1     -10.310   5.588 -14.377 -0.18 +0.01    +0.058 A 
DOCKED: ATOM     11  C   UNL d   1     -11.185   4.623 -12.508 -0.11 +0.06    +0.193 A 
DOCKED: ATOM     12  C   UNL d   1      -9.938   5.408 -12.244 -0.16 +0.02    +0.109 A 
DOCKED: ATOM     13  C   UNL d   1      -7.168   7.516  -9.005 -0.18 +0.02    +0.193 A 
DOCKED: ATOM     14  C   UNL d   1     -12.834   5.406 -14.163 -0.07 +0.01    +0.026 C 
DOCKED: ATOM     15  C   UNL d   1      -9.388   5.401 -10.873 -0.20 +0.01    +0.055 C 
DOCKED: ATOM     16  C   UNL d   1      -7.064   5.070  -8.709 -0.30 +0.01    +0.026 C 
DOCKED: ATOM     17  C   UNL d   1      -7.282   8.085 -10.382 -0.16 +0.01    +0.109 A 
DOCKED: ATOM     18  C   UNL d   1     -10.064   5.887 -15.666 -0.21 +0.01    +0.050 C 
DOCKED: ATOM     19  C   UNL d   1      -8.953   6.630 -16.141 -0.19 +0.00    +0.045 A 
DOCKED: ATOM     20  C   UNL d   1      -6.496   9.740 -11.990 -0.22 -0.00    +0.045 A 
DOCKED: ATOM     21  C   UNL d   1      -6.608   9.348 -10.717 -0.30 -0.00    +0.057 C 
DOCKED: ATOM     22  C   UNL d   1      -5.967  11.027 -13.802 -0.19 +0.00    -0.019 A 
DOCKED: ATOM     23  C   UNL d   1      -6.621   9.789 -14.272 -0.10 -0.00    +0.045 A 
DOCKED: ATOM     24  C   UNL d   1      -5.895  10.991 -12.450 -0.33 +0.00    -0.022 A 
DOCKED: ATOM     25  C   UNL d   1      -7.424   8.296 -16.071 -0.12 -0.00    +0.049 A 
DOCKED: ATOM     26  C   UNL d   1      -8.244   6.579 -17.331 -0.21 +0.00    -0.018 A 
DOCKED: ATOM     27  C   UNL d   1      -7.267   7.620 -17.274 -0.17 -0.00    +0.003 A 
DOCKED: ATOM     28  C   UNL d   1      -6.836   9.486 -15.562 -0.09 -0.01    +0.052 C 
DOCKED: ATOM     29  C   UNL d   1      -5.313  12.000 -11.520 -0.42 -0.00    +0.046 C 
DOCKED: ATOM     30  C   UNL d   1      -8.458   5.621 -18.454 -0.23 -0.00    +0.046 C 
DOCKED: ATOM     31  H   UNL d   1      -7.281   8.151 -13.090 +0.05 -0.00    +0.166 HD
DOCKED: ATOM     32  H   UNL d   1      -8.781   7.914 -14.471 +0.03 +0.00    +0.166 HD
DOCKED: ENDROOT
DOCKED: BRANCH   7  33
DOCKED: ATOM     33  C   UNL d   1     -11.498   3.298 -14.594 +0.00 +0.11    +0.141 C 
DOCKED: BRANCH  33  34
DOCKED: ATOM     34  C   UNL d   1     -12.833   2.616 -14.466 -0.03 +0.38    +0.306 C 
DOCKED: ATOM     35  O   UNL d   1     -13.795   2.771 -15.200 -0.28 -0.34    -0.251 OA
DOCKED: BRANCH  34  36
DOCKED: ATOM     36  O   UNL d   1     -12.886   1.771 -13.421 -0.20 -0.42    -0.481 OA
DOCKED: ATOM     37  H   UNL d   1     -12.610   2.313 -12.652 +0.06 +0.16    +0.295 HD
DOCKED: ENDBRANCH  34  36
DOCKED: ENDBRANCH  33  34
DOCKED: ENDBRANCH   7  33
DOCKED: BRANCH  27  38
DOCKED: ATOM     38  C   UNL d   1      -6.329   7.929 -18.310 -0.15 -0.00    +0.017 C 
DOCKED: ATOM     39  C   UNL d   1      -5.014   7.664 -18.269 -0.19 -0.03    +0.092 C 
DOCKED: BRANCH  39  40
DOCKED: ATOM     40  C   UNL d   1      -4.162   8.017 -19.407 -0.08 -0.07    +0.330 C 
DOCKED: ATOM     41  O   UNL d   1      -3.121   7.489 -19.749 -0.12 +0.05    -0.246 OA
DOCKED: BRANCH  40  42
DOCKED: ATOM     42  O   UNL d   1      -4.696   9.048 -20.081 +0.01 +0.09    -0.477 OA
DOCKED: ATOM     43  H   UNL d   1      -3.961   9.364 -20.646 +0.03 -0.05    +0.295 HD
DOCKED: ENDBRANCH  40  42
DOCKED: ENDBRANCH  39  40
DOCKED: ENDBRANCH  27  38
DOCKED: BRANCH   8  44
DOCKED: ATOM     44  C   UNL d   1      -9.069   6.358  -7.865 -0.16 +0.09    +0.141 C 
DOCKED: BRANCH  44  45
DOCKED: ATOM     45  C   UNL d   1      -9.657   7.737  -7.731 -0.10 +0.14    +0.306 C 
DOCKED: ATOM     46  O   UNL d   1     -10.496   8.243  -8.457 -0.04 -0.09    -0.251 OA
DOCKED: BRANCH  45  47
DOCKED: ATOM     47  O   UNL d   1      -9.135   8.422  -6.698 -0.29 -0.22    -0.481 OA
DOCKED: ATOM     48  H   UNL d   1      -8.174   8.468  -6.892 +0.13 +0.08    +0.295 HD
DOCKED: ENDBRANCH  45  47
DOCKED: ENDBRANCH  44  45
DOCKED: ENDBRANCH   8  44
DOCKED: BRANCH  22  49
DOCKED: ATOM     49  C   UNL d   1      -5.492  12.125 -14.707 -0.22 -0.01    +0.048 C 
DOCKED: BRANCH  49  50
DOCKED: ATOM     50  C   UNL d   1      -4.076  11.866 -15.221 -0.25 -0.07    +0.125 C 
DOCKED: BRANCH  50  51
DOCKED: ATOM     51  C   UNL d   1      -3.199  11.327 -14.128 -0.25 -0.15    +0.305 C 
DOCKED: ATOM     52  O   UNL d   1      -2.886  10.165 -13.931 -0.27 +0.09    -0.251 OA
DOCKED: BRANCH  51  53
DOCKED: ATOM     53  O   UNL d   1      -2.758  12.301 -13.308 -0.63 +0.20    -0.481 OA
DOCKED: ATOM     54  H   UNL d   1      -2.097  12.785 -13.847 -0.24 -0.28    +0.295 HD
DOCKED: ENDBRANCH  51  53
DOCKED: ENDBRANCH  50  51
DOCKED: ENDBRANCH  49  50
DOCKED: ENDBRANCH  22  49
DOCKED: TORSDOF 13
DOCKED: TER
DOCKED: ENDMDL
________________________________________________________________________________


	BEGINNING GENETIC ALGORITHM DOCKING 46 of 100
Run: 46 Seed: 1448595176 101989351 [ Run 46 of 100 GA/GALS ]
Beginning LAMARCKIAN GENETIC ALGORITHM (LGA), with a maximum of 25000000 energy evaluations.

Final-Value: -13.442


	FINAL GENETIC ALGORITHM DOCKED STATE
	_______________________________________________


Detailed state:  trans 2.301 5.648 18.908 quatxyzw -0.811300 0.399513 -0.295104 0.308374 center 0.153 0.018 -0.028 ntor 13 164.5605 -136.6835 30.2943 39.0879 -140.2188 -26.6529 173.6721 134.9689 128.0187 146.7075 -46.1325 -54.5469 21.8212
State:	  2.301   5.648  18.908  -0.853  0.420 -0.310 144.077    164.56 -136.68   30.29   39.09 -140.22  -26.65  173.67  134.97  128.02  146.71  -46.13  -54.55   21.82

DOCKED: MODEL       46
DOCKED: USER    Run = 46
DOCKED: USER    DPF = D:/Protein_go_brrr/autodock/final/mut_K82N/heme/dock.dpf
DOCKED: USER  
DOCKED: USER    Estimated Free Energy of Binding    =   -6.82 kcal/mol  [=(1)+(2)+(3)-(4)]
DOCKED: USER    Estimated Inhibition Constant, Ki   =   10.00 uM (micromolar)  [Temperature = 298.15 K]
DOCKED: USER    
DOCKED: USER    (1) Final Intermolecular Energy     =  -10.70 kcal/mol
DOCKED: USER        vdW + Hbond + desolv Energy     =  -10.35 kcal/mol
DOCKED: USER        Electrostatic Energy            =   -0.35 kcal/mol
DOCKED: USER    (2) Final Total Internal Energy     =   -2.74 kcal/mol
DOCKED: USER    (3) Torsional Free Energy           =   +3.88 kcal/mol
DOCKED: USER    (4) Unbound System's Energy  [=(2)] =   -2.74 kcal/mol
DOCKED: USER    
DOCKED: USER    
DOCKED: USER    NEWDPF move heme_opt.pdbqt
DOCKED: USER    NEWDPF about 0.153000 0.018000 -0.028000
DOCKED: USER    NEWDPF tran0 2.300776 5.647877 18.908109
DOCKED: USER    NEWDPF quaternion0 -0.811300 0.399513 -0.295104 0.308374
DOCKED: USER    NEWDPF axisangle0 -0.852864 0.419981 -0.310223 144.077452
DOCKED: USER    NEWDPF quat0 -0.852864 0.419981 -0.310223 144.077452
DOCKED: USER    NEWDPF dihe0 164.56 -136.68 30.29 39.09 -140.22 -26.65 173.67 134.97 128.02 146.71 -46.13 -54.55 21.82 
DOCKED: USER  keepresnum = 1 
DOCKED: USER  
DOCKED: REMARK  13 active torsions:
DOCKED: REMARK  status: ('A' for Active; 'I' for Inactive)
DOCKED: REMARK    1  A    between atoms: O_3  and  C_38 
DOCKED: REMARK    2  A    between atoms: O_4  and  C_40 
DOCKED: REMARK    3  A    between atoms: O_7  and  C_46 
DOCKED: REMARK    4  A    between atoms: O_9  and  C_48 
DOCKED: REMARK    5  A    between atoms: C_15  and  C_20 
DOCKED: REMARK    6  A    between atoms: C_16  and  C_23 
DOCKED: REMARK    7  A    between atoms: C_20  and  C_38 
DOCKED: REMARK    8  A    between atoms: C_23  and  C_40 
DOCKED: REMARK    9  A    between atoms: C_32  and  C_41 
DOCKED: REMARK   10  A    between atoms: C_37  and  C_45 
DOCKED: REMARK   11  A    between atoms: C_41  and  C_44 
DOCKED: REMARK   12  A    between atoms: C_44  and  C_46 
DOCKED: REMARK   13  A    between atoms: C_47  and  C_48 
DOCKED: USER                              x       y       z     vdW  Elec       q    Type
DOCKED: USER                           _______ _______ _______ _____ _____    ______ ____
DOCKED: ROOT
DOCKED: ATOM      1  O   UNL d   1      -1.793   6.958  14.874 -0.70 +0.18    -0.289 OA
DOCKED: ATOM      2  O   UNL d   1       4.611  10.426  16.703 -0.12 +0.08    -0.289 OA
DOCKED: ATOM      3  N   UNL d   1       0.249   5.881  17.436 -0.15 +0.10    -0.247 NA
DOCKED: ATOM      4  N   UNL d   1       2.625   7.649  17.205 -0.10 +0.12    -0.247 NA
DOCKED: ATOM      5  N   UNL d   1       4.012   5.863  18.980 -0.03 +0.16    -0.354 N 
DOCKED: ATOM      6  N   UNL d   1       1.548   4.023  19.199 -0.13 +0.18    -0.354 N 
DOCKED: ATOM      7  C   UNL d   1      -1.775   5.015  16.357 -0.26 -0.03    +0.084 A 
DOCKED: ATOM      8  C   UNL d   1       2.291   9.844  16.184 -0.18 -0.04    +0.084 A 
DOCKED: ATOM      9  C   UNL d   1       1.727   8.470  16.561 -0.24 -0.03    +0.058 A 
DOCKED: ATOM     10  C   UNL d   1      -0.676   4.851  17.412 -0.25 -0.02    +0.058 A 
DOCKED: ATOM     11  C   UNL d   1      -1.317   6.331  15.802 -0.14 -0.07    +0.193 A 
DOCKED: ATOM     12  C   UNL d   1      -0.098   6.763  16.556 -0.21 -0.04    +0.109 A 
DOCKED: ATOM     13  C   UNL d   1       3.687   9.637  16.700 -0.16 -0.07    +0.193 A 
DOCKED: ATOM     14  C   UNL d   1      -1.680   3.954  15.258 -0.48 -0.01    +0.026 C 
DOCKED: ATOM     15  C   UNL d   1       0.481   8.085  16.243 -0.25 -0.03    +0.055 C 
DOCKED: ATOM     16  C   UNL d   1       1.631  10.969  16.988 -0.06 -0.01    +0.026 C 
DOCKED: ATOM     17  C   UNL d   1       3.761   8.265  17.287 -0.21 -0.05    +0.109 A 
DOCKED: ATOM     18  C   UNL d   1      -0.689   3.827  18.286 -0.26 -0.02    +0.050 C 
DOCKED: ATOM     19  C   UNL d   1       0.234   3.639  19.346 -0.21 -0.02    +0.045 A 
DOCKED: ATOM     20  C   UNL d   1       5.057   6.652  18.577 -0.27 -0.02    +0.045 A 
DOCKED: ATOM     21  C   UNL d   1       5.030   7.764  17.836 -0.23 -0.02    +0.057 C 
DOCKED: ATOM     22  C   UNL d   1       5.877   4.923  19.824 -0.30 +0.00    -0.019 A 
DOCKED: ATOM     23  C   UNL d   1       4.408   4.793  19.738 -0.27 -0.01    +0.045 A 
DOCKED: ATOM     24  C   UNL d   1       6.255   6.026  19.136 -0.26 +0.00    -0.022 A 
DOCKED: ATOM     25  C   UNL d   1       2.282   3.668  20.307 -0.23 -0.03    +0.049 A 
DOCKED: ATOM     26  C   UNL d   1       0.103   3.053  20.595 -0.14 +0.01    -0.018 A 
DOCKED: ATOM     27  C   UNL d   1       1.395   3.092  21.205 -0.12 -0.00    +0.003 A 
DOCKED: ATOM     28  C   UNL d   1       3.695   3.819  20.324 -0.31 -0.02    +0.052 C 
DOCKED: ATOM     29  C   UNL d   1       7.625   6.581  18.942 -0.21 -0.00    +0.046 C 
DOCKED: ATOM     30  C   UNL d   1      -1.145   2.493  21.189 -0.12 -0.01    +0.046 C 
DOCKED: ATOM     31  H   UNL d   1       3.051   6.122  18.786 -0.26 -0.09    +0.166 HD
DOCKED: ATOM     32  H   UNL d   1       1.912   4.468  18.364 -0.45 -0.12    +0.166 HD
DOCKED: ENDROOT
DOCKED: BRANCH   7  33
DOCKED: ATOM     33  C   UNL d   1      -3.201   5.130  16.906 -0.17 -0.05    +0.141 C 
DOCKED: BRANCH  33  34
DOCKED: ATOM     34  C   UNL d   1      -4.217   5.393  15.828 -0.17 -0.10    +0.306 C 
DOCKED: ATOM     35  O   UNL d   1      -4.530   6.484  15.383 -0.29 +0.12    -0.251 OA
DOCKED: BRANCH  34  36
DOCKED: ATOM     36  O   UNL d   1      -4.784   4.265  15.363 -0.13 +0.15    -0.481 OA
DOCKED: ATOM     37  H   UNL d   1      -4.176   3.549  15.646 -0.39 -0.19    +0.295 HD
DOCKED: ENDBRANCH  34  36
DOCKED: ENDBRANCH  33  34
DOCKED: ENDBRANCH   7  33
DOCKED: BRANCH  27  38
DOCKED: ATOM     38  C   UNL d   1       1.711   2.574  22.503 -0.07 -0.01    +0.017 C 
DOCKED: ATOM     39  C   UNL d   1       2.946   2.296  22.946 -0.09 -0.05    +0.092 C 
DOCKED: BRANCH  39  40
DOCKED: ATOM     40  C   UNL d   1       3.136   1.785  24.306 -0.03 -0.09    +0.330 C 
DOCKED: ATOM     41  O   UNL d   1       2.440   1.991  25.281 -0.01 +0.04    -0.246 OA
DOCKED: BRANCH  40  42
DOCKED: ATOM     42  O   UNL d   1       4.229   1.007  24.358 -0.02 +0.09    -0.477 OA
DOCKED: ATOM     43  H   UNL d   1       4.894   1.502  23.837 +0.08 -0.04    +0.295 HD
DOCKED: ENDBRANCH  40  42
DOCKED: ENDBRANCH  39  40
DOCKED: ENDBRANCH  27  38
DOCKED: BRANCH   8  44
DOCKED: ATOM     44  C   UNL d   1       2.301  10.166  14.686 -0.29 -0.09    +0.141 C 
DOCKED: BRANCH  44  45
DOCKED: ATOM     45  C   UNL d   1       1.119  10.987  14.246 -0.14 -0.26    +0.306 C 
DOCKED: ATOM     46  O   UNL d   1       1.151  12.012  13.588 -0.13 +0.20    -0.251 OA
DOCKED: BRANCH  45  47
DOCKED: ATOM     47  O   UNL d   1      -0.049  10.485  14.686 -0.04 +0.63    -0.481 OA
DOCKED: ATOM     48  H   UNL d   1      -0.705  10.751  14.007 -0.38 -0.78    +0.295 HD
DOCKED: ENDBRANCH  45  47
DOCKED: ENDBRANCH  44  45
DOCKED: ENDBRANCH   8  44
DOCKED: BRANCH  22  49
DOCKED: ATOM     49  C   UNL d   1       6.767   3.958  20.551 -0.04 +0.01    +0.048 C 
DOCKED: BRANCH  49  50
DOCKED: ATOM     50  C   UNL d   1       6.445   3.902  22.044 -0.23 +0.02    +0.125 C 
DOCKED: BRANCH  50  51
DOCKED: ATOM     51  C   UNL d   1       6.390   2.480  22.528 -0.19 +0.04    +0.305 C 
DOCKED: ATOM     52  O   UNL d   1       6.971   1.998  23.485 -0.16 -0.08    -0.251 OA
DOCKED: BRANCH  51  53
DOCKED: ATOM     53  O   UNL d   1       5.594   1.715  21.755 -0.25 +0.08    -0.481 OA
DOCKED: ATOM     54  H   UNL d   1       5.137   1.128  22.393 +0.09 -0.09    +0.295 HD
DOCKED: ENDBRANCH  51  53
DOCKED: ENDBRANCH  50  51
DOCKED: ENDBRANCH  49  50
DOCKED: ENDBRANCH  22  49
DOCKED: TORSDOF 13
DOCKED: TER
DOCKED: ENDMDL
________________________________________________________________________________


	BEGINNING GENETIC ALGORITHM DOCKING 47 of 100
Run: 47 Seed: 232452678 927871579 [ Run 47 of 100 GA/GALS ]
Beginning LAMARCKIAN GENETIC ALGORITHM (LGA), with a maximum of 25000000 energy evaluations.

Final-Value: -11.766


	FINAL GENETIC ALGORITHM DOCKED STATE
	_______________________________________________


Detailed state:  trans -8.775 6.466 -13.073 quatxyzw 0.078866 0.568622 0.557014 0.600153 center 0.153 0.018 -0.028 ntor 13 135.5624 155.9983 -176.3352 -159.8178 -14.2560 -62.2330 144.8840 -60.2183 -168.6675 -4.2329 -63.3929 22.2100 3.9423
State:	 -8.775   6.466 -13.073   0.099  0.711  0.696 106.238    135.56  156.00 -176.34 -159.82  -14.26  -62.23  144.88  -60.22 -168.67   -4.23  -63.39   22.21    3.94

DOCKED: MODEL       47
DOCKED: USER    Run = 47
DOCKED: USER    DPF = D:/Protein_go_brrr/autodock/final/mut_K82N/heme/dock.dpf
DOCKED: USER  
DOCKED: USER    Estimated Free Energy of Binding    =   -5.39 kcal/mol  [=(1)+(2)+(3)-(4)]
DOCKED: USER    Estimated Inhibition Constant, Ki   =  111.94 uM (micromolar)  [Temperature = 298.15 K]
DOCKED: USER    
DOCKED: USER    (1) Final Intermolecular Energy     =   -9.27 kcal/mol
DOCKED: USER        vdW + Hbond + desolv Energy     =   -8.73 kcal/mol
DOCKED: USER        Electrostatic Energy            =   -0.54 kcal/mol
DOCKED: USER    (2) Final Total Internal Energy     =   -2.50 kcal/mol
DOCKED: USER    (3) Torsional Free Energy           =   +3.88 kcal/mol
DOCKED: USER    (4) Unbound System's Energy  [=(2)] =   -2.50 kcal/mol
DOCKED: USER    
DOCKED: USER    
DOCKED: USER    NEWDPF move heme_opt.pdbqt
DOCKED: USER    NEWDPF about 0.153000 0.018000 -0.028000
DOCKED: USER    NEWDPF tran0 -8.774818 6.465886 -13.072575
DOCKED: USER    NEWDPF quaternion0 0.078866 0.568622 0.557014 0.600153
DOCKED: USER    NEWDPF axisangle0 0.098597 0.710880 0.696368 106.238229
DOCKED: USER    NEWDPF quat0 0.098597 0.710880 0.696368 106.238229
DOCKED: USER    NEWDPF dihe0 135.56 156.00 -176.34 -159.82 -14.26 -62.23 144.88 -60.22 -168.67 -4.23 -63.39 22.21 3.94 
DOCKED: USER  keepresnum = 1 
DOCKED: USER  
DOCKED: REMARK  13 active torsions:
DOCKED: REMARK  status: ('A' for Active; 'I' for Inactive)
DOCKED: REMARK    1  A    between atoms: O_3  and  C_38 
DOCKED: REMARK    2  A    between atoms: O_4  and  C_40 
DOCKED: REMARK    3  A    between atoms: O_7  and  C_46 
DOCKED: REMARK    4  A    between atoms: O_9  and  C_48 
DOCKED: REMARK    5  A    between atoms: C_15  and  C_20 
DOCKED: REMARK    6  A    between atoms: C_16  and  C_23 
DOCKED: REMARK    7  A    between atoms: C_20  and  C_38 
DOCKED: REMARK    8  A    between atoms: C_23  and  C_40 
DOCKED: REMARK    9  A    between atoms: C_32  and  C_41 
DOCKED: REMARK   10  A    between atoms: C_37  and  C_45 
DOCKED: REMARK   11  A    between atoms: C_41  and  C_44 
DOCKED: REMARK   12  A    between atoms: C_44  and  C_46 
DOCKED: REMARK   13  A    between atoms: C_47  and  C_48 
DOCKED: USER                              x       y       z     vdW  Elec       q    Type
DOCKED: USER                           _______ _______ _______ _____ _____    ______ ____
DOCKED: ROOT
DOCKED: ATOM      1  O   UNL d   1      -6.380  10.806 -16.264 -0.01 +0.05    -0.289 OA
DOCKED: ATOM      2  O   UNL d   1     -10.801   5.076 -18.269 -0.11 -0.08    -0.289 OA
DOCKED: ATOM      3  N   UNL d   1      -7.443   8.398 -14.035 -0.05 +0.01    -0.247 NA
DOCKED: ATOM      4  N   UNL d   1      -9.343   6.772 -15.641 -0.09 -0.01    -0.247 NA
DOCKED: ATOM      5  N   UNL d   1     -10.252   5.580 -13.187 -0.08 -0.07    -0.354 N 
DOCKED: ATOM      6  N   UNL d   1      -8.292   7.285 -11.528 -0.04 -0.03    -0.354 N 
DOCKED: ATOM      7  C   UNL d   1      -6.196  10.500 -13.846 -0.13 -0.01    +0.084 A 
DOCKED: ATOM      8  C   UNL d   1      -9.015   6.738 -18.062 -0.12 -0.00    +0.084 A 
DOCKED: ATOM      9  C   UNL d   1      -8.623   7.297 -16.691 -0.14 -0.00    +0.058 A 
DOCKED: ATOM     10  C   UNL d   1      -6.814   9.274 -13.167 -0.13 -0.00    +0.058 A 
DOCKED: ATOM     11  C   UNL d   1      -6.573  10.153 -15.255 -0.03 -0.03    +0.193 A 
DOCKED: ATOM     12  C   UNL d   1      -7.302   8.845 -15.241 -0.08 -0.01    +0.109 A 
DOCKED: ATOM     13  C   UNL d   1     -10.117   5.826 -17.600 -0.12 +0.03    +0.193 A 
DOCKED: ATOM     14  C   UNL d   1      -6.907  11.796 -13.448 -0.22 -0.00    +0.026 C 
DOCKED: ATOM     15  C   UNL d   1      -7.693   8.252 -16.536 -0.12 -0.01    +0.055 C 
DOCKED: ATOM     16  C   UNL d   1      -7.896   5.888 -18.671 -0.15 -0.00    +0.026 C 
DOCKED: ATOM     17  C   UNL d   1     -10.219   5.945 -16.114 -0.15 +0.02    +0.109 A 
DOCKED: ATOM     18  C   UNL d   1      -6.661   9.049 -11.848 -0.23 -0.00    +0.050 C 
DOCKED: ATOM     19  C   UNL d   1      -7.122   7.904 -11.150 -0.16 +0.00    +0.045 A 
DOCKED: ATOM     20  C   UNL d   1     -11.201   5.096 -14.050 -0.15 +0.01    +0.045 A 
DOCKED: ATOM     21  C   UNL d   1     -11.250   5.194 -15.383 -0.18 +0.02    +0.057 C 
DOCKED: ATOM     22  C   UNL d   1     -11.790   4.537 -11.915 -0.11 -0.01    -0.019 A 
DOCKED: ATOM     23  C   UNL d   1     -10.522   5.292 -11.876 -0.15 +0.01    +0.045 A 
DOCKED: ATOM     24  C   UNL d   1     -12.186   4.423 -13.205 -0.12 -0.01    -0.022 A 
DOCKED: ATOM     25  C   UNL d   1      -8.596   6.258 -10.664 -0.15 +0.01    +0.049 A 
DOCKED: ATOM     26  C   UNL d   1      -6.635   7.241 -10.035 -0.25 -0.00    -0.018 A 
DOCKED: ATOM     27  C   UNL d   1      -7.559   6.190  -9.744 -0.22 +0.00    +0.003 A 
DOCKED: ATOM     28  C   UNL d   1      -9.837   5.571 -10.756 -0.17 +0.02    +0.052 C 
DOCKED: ATOM     29  C   UNL d   1     -13.393   3.740 -13.754 -0.11 +0.02    +0.046 C 
DOCKED: ATOM     30  C   UNL d   1      -5.386   7.559  -9.284 -0.45 -0.00    +0.046 C 
DOCKED: ATOM     31  H   UNL d   1      -9.409   6.029 -13.530 +0.04 +0.02    +0.166 HD
DOCKED: ATOM     32  H   UNL d   1      -8.857   7.586 -12.313 +0.03 +0.01    +0.166 HD
DOCKED: ENDROOT
DOCKED: BRANCH   7  33
DOCKED: ATOM     33  C   UNL d   1      -4.675  10.629 -13.712 -0.27 -0.04    +0.141 C 
DOCKED: BRANCH  33  34
DOCKED: ATOM     34  C   UNL d   1      -4.259  11.909 -13.040 -0.24 -0.07    +0.306 C 
DOCKED: ATOM     35  O   UNL d   1      -4.810  12.434 -12.087 -1.01 +0.00    -0.251 OA
DOCKED: BRANCH  34  36
DOCKED: ATOM     36  O   UNL d   1      -3.169  12.460 -13.603 -0.71 +0.21    -0.481 OA
DOCKED: ATOM     37  H   UNL d   1      -2.538  11.715 -13.700 -0.32 -0.19    +0.295 HD
DOCKED: ENDBRANCH  34  36
DOCKED: ENDBRANCH  33  34
DOCKED: ENDBRANCH   7  33
DOCKED: BRANCH  27  38
DOCKED: ATOM     38  C   UNL d   1      -7.444   5.267  -8.656 -0.28 +0.01    +0.017 C 
DOCKED: ATOM     39  C   UNL d   1      -7.371   3.932  -8.777 -0.32 +0.03    +0.092 C 
DOCKED: BRANCH  39  40
DOCKED: ATOM     40  C   UNL d   1      -7.237   3.097  -7.580 -0.22 +0.12    +0.330 C 
DOCKED: ATOM     41  O   UNL d   1      -6.310   3.068  -6.794 -0.30 -0.07    -0.246 OA
DOCKED: BRANCH  40  42
DOCKED: ATOM     42  O   UNL d   1      -8.324   2.324  -7.433 -0.13 -0.28    -0.477 OA
DOCKED: ATOM     43  H   UNL d   1      -9.025   2.810  -7.914 +0.12 +0.25    +0.295 HD
DOCKED: ENDBRANCH  40  42
DOCKED: ENDBRANCH  39  40
DOCKED: ENDBRANCH  27  38
DOCKED: BRANCH   8  44
DOCKED: ATOM     44  C   UNL d   1      -9.540   7.766 -19.069 -0.03 -0.00    +0.141 C 
DOCKED: BRANCH  44  45
DOCKED: ATOM     45  C   UNL d   1     -10.687   8.586 -18.539 -0.00 +0.00    +0.306 C 
DOCKED: ATOM     46  O   UNL d   1     -10.627   9.721 -18.101 -0.00 +0.00    -0.251 OA
DOCKED: BRANCH  45  47
DOCKED: ATOM     47  O   UNL d   1     -11.853   7.915 -18.563 +0.01 -0.02    -0.481 OA
DOCKED: ATOM     48  H   UNL d   1     -11.618   7.021 -18.893 +0.02 +0.02    +0.295 HD
DOCKED: ENDBRANCH  45  47
DOCKED: ENDBRANCH  44  45
DOCKED: ENDBRANCH   8  44
DOCKED: BRANCH  22  49
DOCKED: ATOM     49  C   UNL d   1     -12.498   4.015 -10.699 -0.09 +0.02    +0.048 C 
DOCKED: BRANCH  49  50
DOCKED: ATOM     50  C   UNL d   1     -11.867   2.720 -10.186 -0.09 +0.06    +0.125 C 
DOCKED: BRANCH  50  51
DOCKED: ATOM     51  C   UNL d   1     -11.317   2.904  -8.800 -0.06 +0.33    +0.305 C 
DOCKED: ATOM     52  O   UNL d   1     -10.383   3.608  -8.459 -0.16 -0.32    -0.251 OA
DOCKED: BRANCH  51  53
DOCKED: ATOM     53  O   UNL d   1     -11.983   2.164  -7.891 -0.56 -0.78    -0.481 OA
DOCKED: ATOM     54  H   UNL d   1     -12.427   1.474  -8.426 +0.06 +0.23    +0.295 HD
DOCKED: ENDBRANCH  51  53
DOCKED: ENDBRANCH  50  51
DOCKED: ENDBRANCH  49  50
DOCKED: ENDBRANCH  22  49
DOCKED: TORSDOF 13
DOCKED: TER
DOCKED: ENDMDL
________________________________________________________________________________


	BEGINNING GENETIC ALGORITHM DOCKING 48 of 100
Run: 48 Seed: 2093003371 1739059627 [ Run 48 of 100 GA/GALS ]
Beginning LAMARCKIAN GENETIC ALGORITHM (LGA), with a maximum of 25000000 energy evaluations.

Final-Value: -11.379


	FINAL GENETIC ALGORITHM DOCKED STATE
	_______________________________________________


Detailed state:  trans 13.557 8.519 -8.964 quatxyzw 0.826200 -0.263222 0.477342 -0.142310 center 0.153 0.018 -0.028 ntor 13 86.0158 126.0665 -175.2945 58.2742 60.3508 122.8902 144.6153 64.8032 -106.6767 -5.8522 -81.7514 -121.6276 7.7849
State:	 13.557   8.519  -8.964   0.835 -0.266  0.482 -163.637     86.02  126.07 -175.29   58.27   60.35  122.89  144.62   64.80 -106.68   -5.85  -81.75 -121.63    7.78

DOCKED: MODEL       48
DOCKED: USER    Run = 48
DOCKED: USER    DPF = D:/Protein_go_brrr/autodock/final/mut_K82N/heme/dock.dpf
DOCKED: USER  
DOCKED: USER    Estimated Free Energy of Binding    =   -3.63 kcal/mol  [=(1)+(2)+(3)-(4)]
DOCKED: USER    Estimated Inhibition Constant, Ki   =    2.17 mM (millimolar)  [Temperature = 298.15 K]
DOCKED: USER    
DOCKED: USER    (1) Final Intermolecular Energy     =   -7.51 kcal/mol
DOCKED: USER        vdW + Hbond + desolv Energy     =   -7.03 kcal/mol
DOCKED: USER        Electrostatic Energy            =   -0.48 kcal/mol
DOCKED: USER    (2) Final Total Internal Energy     =   -3.87 kcal/mol
DOCKED: USER    (3) Torsional Free Energy           =   +3.88 kcal/mol
DOCKED: USER    (4) Unbound System's Energy  [=(2)] =   -3.87 kcal/mol
DOCKED: USER    
DOCKED: USER    
DOCKED: USER    NEWDPF move heme_opt.pdbqt
DOCKED: USER    NEWDPF about 0.153000 0.018000 -0.028000
DOCKED: USER    NEWDPF tran0 13.557321 8.519411 -8.963512
DOCKED: USER    NEWDPF quaternion0 0.826200 -0.263222 0.477342 -0.142310
DOCKED: USER    NEWDPF axisangle0 0.834695 -0.265928 0.482251 -163.636904
DOCKED: USER    NEWDPF quat0 0.834695 -0.265928 0.482251 -163.636904
DOCKED: USER    NEWDPF dihe0 86.02 126.07 -175.29 58.27 60.35 122.89 144.62 64.80 -106.68 -5.85 -81.75 -121.63 7.78 
DOCKED: USER  keepresnum = 1 
DOCKED: USER  
DOCKED: REMARK  13 active torsions:
DOCKED: REMARK  status: ('A' for Active; 'I' for Inactive)
DOCKED: REMARK    1  A    between atoms: O_3  and  C_38 
DOCKED: REMARK    2  A    between atoms: O_4  and  C_40 
DOCKED: REMARK    3  A    between atoms: O_7  and  C_46 
DOCKED: REMARK    4  A    between atoms: O_9  and  C_48 
DOCKED: REMARK    5  A    between atoms: C_15  and  C_20 
DOCKED: REMARK    6  A    between atoms: C_16  and  C_23 
DOCKED: REMARK    7  A    between atoms: C_20  and  C_38 
DOCKED: REMARK    8  A    between atoms: C_23  and  C_40 
DOCKED: REMARK    9  A    between atoms: C_32  and  C_41 
DOCKED: REMARK   10  A    between atoms: C_37  and  C_45 
DOCKED: REMARK   11  A    between atoms: C_41  and  C_44 
DOCKED: REMARK   12  A    between atoms: C_44  and  C_46 
DOCKED: REMARK   13  A    between atoms: C_47  and  C_48 
DOCKED: USER                              x       y       z     vdW  Elec       q    Type
DOCKED: USER                           _______ _______ _______ _____ _____    ______ ____
DOCKED: ROOT
DOCKED: ATOM      1  O   UNL d   1      10.779   8.496 -14.163 -0.08 -0.04    -0.289 OA
DOCKED: ATOM      2  O   UNL d   1      14.118  14.060 -10.385 -0.03 +0.01    -0.289 OA
DOCKED: ATOM      3  N   UNL d   1      12.178   8.057 -11.041 -0.21 +0.02    -0.247 NA
DOCKED: ATOM      4  N   UNL d   1      13.491  10.669 -10.508 -0.14 +0.00    -0.247 NA
DOCKED: ATOM      5  N   UNL d   1      14.888   9.417  -8.330 -0.08 +0.02    -0.354 N 
DOCKED: ATOM      6  N   UNL d   1      13.537   6.707  -8.902 -0.09 +0.04    -0.354 N 
DOCKED: ATOM      7  C   UNL d   1      11.179   6.569 -12.713 -0.13 -0.01    +0.084 A 
DOCKED: ATOM      8  C   UNL d   1      12.571  12.633 -11.634 -0.15 +0.00    +0.084 A 
DOCKED: ATOM      9  C   UNL d   1      12.574  11.114 -11.435 -0.19 +0.00    +0.058 A 
DOCKED: ATOM     10  C   UNL d   1      11.852   6.747 -11.349 -0.21 -0.01    +0.058 A 
DOCKED: ATOM     11  C   UNL d   1      11.167   8.013 -13.115 -0.13 +0.00    +0.193 A 
DOCKED: ATOM     12  C   UNL d   1      11.776   8.817 -12.008 -0.22 -0.00    +0.109 A 
DOCKED: ATOM     13  C   UNL d   1      13.681  12.965 -10.677 -0.09 -0.00    +0.193 A 
DOCKED: ATOM     14  C   UNL d   1      12.062   5.791 -13.692 -0.05 -0.01    +0.026 C 
DOCKED: ATOM     15  C   UNL d   1      11.787  10.288 -12.141 -0.25 +0.00    +0.055 C 
DOCKED: ATOM     16  C   UNL d   1      11.275  13.270 -11.124 -0.30 +0.00    +0.026 C 
DOCKED: ATOM     17  C   UNL d   1      14.157  11.687 -10.066 -0.13 -0.00    +0.109 A 
DOCKED: ATOM     18  C   UNL d   1      12.014   5.711 -10.505 -0.25 -0.01    +0.050 C 
DOCKED: ATOM     19  C   UNL d   1      12.547   5.795  -9.193 -0.18 -0.01    +0.045 A 
DOCKED: ATOM     20  C   UNL d   1      15.554  10.614  -8.379 -0.11 -0.00    +0.045 A 
DOCKED: ATOM     21  C   UNL d   1      15.278  11.697  -9.114 -0.11 -0.00    +0.057 C 
DOCKED: ATOM     22  C   UNL d   1      16.611   9.243  -6.889 -0.06 +0.00    -0.019 A 
DOCKED: ATOM     23  C   UNL d   1      15.453   8.525  -7.458 -0.13 -0.00    +0.045 A 
DOCKED: ATOM     24  C   UNL d   1      16.665  10.480  -7.438 -0.05 +0.00    -0.022 A 
DOCKED: ATOM     25  C   UNL d   1      13.968   6.554  -7.604 -0.16 -0.00    +0.049 A 
DOCKED: ATOM     26  C   UNL d   1      12.303   5.056  -8.045 -0.31 +0.00    -0.018 A 
DOCKED: ATOM     27  C   UNL d   1      13.189   5.553  -7.040 -0.29 -0.00    +0.003 A 
DOCKED: ATOM     28  C   UNL d   1      15.091   7.278  -7.120 -0.16 -0.00    +0.052 C 
DOCKED: ATOM     29  C   UNL d   1      17.642  11.575  -7.176 -0.02 -0.00    +0.046 C 
DOCKED: ATOM     30  C   UNL d   1      11.308   3.957  -7.889 -0.11 -0.02    +0.046 C 
DOCKED: ATOM     31  H   UNL d   1      14.023   9.275  -8.840 +0.03 -0.01    +0.166 HD
DOCKED: ATOM     32  H   UNL d   1      13.910   7.363  -9.577 +0.03 -0.02    +0.166 HD
DOCKED: ENDROOT
DOCKED: BRANCH   7  33
DOCKED: ATOM     33  C   UNL d   1       9.753   6.009 -12.675 -0.24 -0.04    +0.141 C 
DOCKED: BRANCH  33  34
DOCKED: ATOM     34  C   UNL d   1       9.679   4.659 -12.015 -0.15 -0.22    +0.306 C 
DOCKED: ATOM     35  O   UNL d   1       9.106   4.398 -10.971 -0.38 +0.15    -0.251 OA
DOCKED: BRANCH  34  36
DOCKED: ATOM     36  O   UNL d   1      10.328   3.707 -12.709 -0.03 +0.51    -0.481 OA
DOCKED: ATOM     37  H   UNL d   1       9.630   3.269 -13.240 -0.38 -0.72    +0.295 HD
DOCKED: ENDBRANCH  34  36
DOCKED: ENDBRANCH  33  34
DOCKED: ENDBRANCH   7  33
DOCKED: BRANCH  27  38
DOCKED: ATOM     38  C   UNL d   1      13.278   5.057  -5.700 -0.31 -0.00    +0.017 C 
DOCKED: ATOM     39  C   UNL d   1      14.156   4.137  -5.272 -0.19 +0.00    +0.092 C 
DOCKED: BRANCH  39  40
DOCKED: ATOM     40  C   UNL d   1      14.155   3.725  -3.865 -0.12 +0.07    +0.330 C 
DOCKED: ATOM     41  O   UNL d   1      13.985   2.607  -3.418 -0.65 -0.13    -0.246 OA
DOCKED: BRANCH  40  42
DOCKED: ATOM     42  O   UNL d   1      14.385   4.785  -3.074 -0.13 -0.08    -0.477 OA
DOCKED: ATOM     43  H   UNL d   1      15.218   5.163  -3.425 +0.06 +0.02    +0.295 HD
DOCKED: ENDBRANCH  40  42
DOCKED: ENDBRANCH  39  40
DOCKED: ENDBRANCH  27  38
DOCKED: BRANCH   8  44
DOCKED: ATOM     44  C   UNL d   1      12.905  13.114 -13.050 -0.05 -0.00    +0.141 C 
DOCKED: BRANCH  44  45
DOCKED: ATOM     45  C   UNL d   1      14.225  12.596 -13.557 -0.01 -0.01    +0.306 C 
DOCKED: ATOM     46  O   UNL d   1      14.393  11.662 -14.322 -0.01 +0.01    -0.251 OA
DOCKED: BRANCH  45  47
DOCKED: ATOM     47  O   UNL d   1      15.272  13.269 -13.049 +0.00 +0.02    -0.481 OA
DOCKED: ATOM     48  H   UNL d   1      14.875  13.902 -12.412 +0.02 -0.01    +0.295 HD
DOCKED: ENDBRANCH  45  47
DOCKED: ENDBRANCH  44  45
DOCKED: ENDBRANCH   8  44
DOCKED: BRANCH  22  49
DOCKED: ATOM     49  C   UNL d   1      17.557   8.655  -5.884 -0.03 -0.00    +0.048 C 
DOCKED: BRANCH  49  50
DOCKED: ATOM     50  C   UNL d   1      16.941   8.603  -4.486 -0.04 -0.00    +0.125 C 
DOCKED: BRANCH  50  51
DOCKED: ATOM     51  C   UNL d   1      16.410   7.230  -4.185 -0.03 -0.01    +0.305 C 
DOCKED: ATOM     52  O   UNL d   1      17.028   6.180  -4.176 -0.01 +0.00    -0.251 OA
DOCKED: BRANCH  51  53
DOCKED: ATOM     53  O   UNL d   1      15.090   7.248  -3.914 -0.06 -0.00    -0.481 OA
DOCKED: ATOM     54  H   UNL d   1      15.025   6.859  -3.017 +0.07 +0.02    +0.295 HD
DOCKED: ENDBRANCH  51  53
DOCKED: ENDBRANCH  50  51
DOCKED: ENDBRANCH  49  50
DOCKED: ENDBRANCH  22  49
DOCKED: TORSDOF 13
DOCKED: TER
DOCKED: ENDMDL
________________________________________________________________________________


	BEGINNING GENETIC ALGORITHM DOCKING 49 of 100
Run: 49 Seed: 1731761210 1787126985 [ Run 49 of 100 GA/GALS ]
Beginning LAMARCKIAN GENETIC ALGORITHM (LGA), with a maximum of 25000000 energy evaluations.

Final-Value: -10.812


	FINAL GENETIC ALGORITHM DOCKED STATE
	_______________________________________________


Detailed state:  trans -7.310 4.877 -9.195 quatxyzw 0.319311 0.156329 0.313864 0.880393 center 0.153 0.018 -0.028 ntor 13 68.1459 -147.1446 99.0703 15.4843 -136.2338 -44.5039 -45.9429 -111.4055 -120.8149 -127.4598 51.6099 -153.8789 -52.6053
State:	 -7.310   4.877  -9.195   0.673  0.330  0.662 56.620     68.15 -147.14   99.07   15.48 -136.23  -44.50  -45.94 -111.41 -120.81 -127.46   51.61 -153.88  -52.61

DOCKED: MODEL       49
DOCKED: USER    Run = 49
DOCKED: USER    DPF = D:/Protein_go_brrr/autodock/final/mut_K82N/heme/dock.dpf
DOCKED: USER  
DOCKED: USER    Estimated Free Energy of Binding    =   -5.46 kcal/mol  [=(1)+(2)+(3)-(4)]
DOCKED: USER    Estimated Inhibition Constant, Ki   =   98.86 uM (micromolar)  [Temperature = 298.15 K]
DOCKED: USER    
DOCKED: USER    (1) Final Intermolecular Energy     =   -9.34 kcal/mol
DOCKED: USER        vdW + Hbond + desolv Energy     =   -9.30 kcal/mol
DOCKED: USER        Electrostatic Energy            =   -0.04 kcal/mol
DOCKED: USER    (2) Final Total Internal Energy     =   -1.47 kcal/mol
DOCKED: USER    (3) Torsional Free Energy           =   +3.88 kcal/mol
DOCKED: USER    (4) Unbound System's Energy  [=(2)] =   -1.47 kcal/mol
DOCKED: USER    
DOCKED: USER    
DOCKED: USER    NEWDPF move heme_opt.pdbqt
DOCKED: USER    NEWDPF about 0.153000 0.018000 -0.028000
DOCKED: USER    NEWDPF tran0 -7.310073 4.877241 -9.195456
DOCKED: USER    NEWDPF quaternion0 0.319311 0.156329 0.313864 0.880393
DOCKED: USER    NEWDPF axisangle0 0.673304 0.329637 0.661817 56.620480
DOCKED: USER    NEWDPF quat0 0.673304 0.329637 0.661817 56.620480
DOCKED: USER    NEWDPF dihe0 68.15 -147.14 99.07 15.48 -136.23 -44.50 -45.94 -111.41 -120.81 -127.46 51.61 -153.88 -52.61 
DOCKED: USER  keepresnum = 1 
DOCKED: USER  
DOCKED: REMARK  13 active torsions:
DOCKED: REMARK  status: ('A' for Active; 'I' for Inactive)
DOCKED: REMARK    1  A    between atoms: O_3  and  C_38 
DOCKED: REMARK    2  A    between atoms: O_4  and  C_40 
DOCKED: REMARK    3  A    between atoms: O_7  and  C_46 
DOCKED: REMARK    4  A    between atoms: O_9  and  C_48 
DOCKED: REMARK    5  A    between atoms: C_15  and  C_20 
DOCKED: REMARK    6  A    between atoms: C_16  and  C_23 
DOCKED: REMARK    7  A    between atoms: C_20  and  C_38 
DOCKED: REMARK    8  A    between atoms: C_23  and  C_40 
DOCKED: REMARK    9  A    between atoms: C_32  and  C_41 
DOCKED: REMARK   10  A    between atoms: C_37  and  C_45 
DOCKED: REMARK   11  A    between atoms: C_41  and  C_44 
DOCKED: REMARK   12  A    between atoms: C_44  and  C_46 
DOCKED: REMARK   13  A    between atoms: C_47  and  C_48 
DOCKED: USER                              x       y       z     vdW  Elec       q    Type
DOCKED: USER                           _______ _______ _______ _____ _____    ______ ____
DOCKED: ROOT
DOCKED: ATOM      1  O   UNL d   1     -10.488   8.858 -12.164 -0.01 -0.04    -0.289 OA
DOCKED: ATOM      2  O   UNL d   1     -12.358   2.135  -9.390 -0.11 -0.18    -0.289 OA
DOCKED: ATOM      3  N   UNL d   1      -8.220   6.789 -10.592 -0.09 -0.04    -0.247 NA
DOCKED: ATOM      4  N   UNL d   1      -9.908   4.557  -9.594 -0.11 -0.14    -0.247 NA
DOCKED: ATOM      5  N   UNL d   1      -7.690   3.732  -7.961 -0.17 -0.16    -0.354 N 
DOCKED: ATOM      6  N   UNL d   1      -5.952   6.062  -8.987 -0.14 -0.03    -0.354 N 
DOCKED: ATOM      7  C   UNL d   1      -8.155   9.078 -11.467 -0.10 +0.01    +0.084 A 
DOCKED: ATOM      8  C   UNL d   1     -11.985   4.102 -10.798 -0.09 +0.04    +0.084 A 
DOCKED: ATOM      9  C   UNL d   1     -10.749   4.985 -10.597 -0.12 +0.02    +0.058 A 
DOCKED: ATOM     10  C   UNL d   1      -7.439   7.920 -10.765 -0.16 +0.00    +0.058 A 
DOCKED: ATOM     11  C   UNL d   1      -9.473   8.395 -11.676 -0.04 +0.02    +0.193 A 
DOCKED: ATOM     12  C   UNL d   1      -9.377   7.005 -11.126 -0.08 +0.02    +0.109 A 
DOCKED: ATOM     13  C   UNL d   1     -11.709   3.115  -9.699 -0.09 +0.13    +0.193 A 
DOCKED: ATOM     14  C   UNL d   1      -8.361  10.275 -10.535 -0.18 +0.00    +0.026 C 
DOCKED: ATOM     15  C   UNL d   1     -10.535   6.105 -11.304 -0.10 +0.01    +0.055 C 
DOCKED: ATOM     16  C   UNL d   1     -11.945   3.367 -12.142 -0.14 +0.01    +0.026 C 
DOCKED: ATOM     17  C   UNL d   1     -10.426   3.507  -9.042 -0.08 +0.10    +0.109 A 
DOCKED: ATOM     18  C   UNL d   1      -6.135   7.994 -10.439 -0.32 -0.00    +0.050 C 
DOCKED: ATOM     19  C   UNL d   1      -5.370   6.947  -9.866 -0.34 -0.00    +0.045 A 
DOCKED: ATOM     20  C   UNL d   1      -8.672   2.921  -7.453 -0.30 +0.04    +0.045 A 
DOCKED: ATOM     21  C   UNL d   1      -9.921   2.741  -7.893 -0.00 +0.07    +0.057 C 
DOCKED: ATOM     22  C   UNL d   1      -6.794   2.700  -6.171 -0.38 -0.01    -0.019 A 
DOCKED: ATOM     23  C   UNL d   1      -6.520   3.666  -7.254 -0.22 +0.01    +0.045 A 
DOCKED: ATOM     24  C   UNL d   1      -8.069   2.261  -6.296 -0.34 -0.01    -0.022 A 
DOCKED: ATOM     25  C   UNL d   1      -5.013   5.190  -8.487 -0.35 +0.01    +0.049 A 
DOCKED: ATOM     26  C   UNL d   1      -4.027   6.619  -9.968 -0.48 +0.00    -0.018 A 
DOCKED: ATOM     27  C   UNL d   1      -3.811   5.496  -9.110 -0.47 +0.00    +0.003 A 
DOCKED: ATOM     28  C   UNL d   1      -5.343   4.283  -7.443 +0.03 +0.02    +0.052 C 
DOCKED: ATOM     29  C   UNL d   1      -8.802   1.274  -5.453 -0.13 +0.03    +0.046 C 
DOCKED: ATOM     30  C   UNL d   1      -3.005   7.302 -10.811 -0.07 -0.01    +0.046 C 
DOCKED: ATOM     31  H   UNL d   1      -7.829   4.250  -8.823 +0.07 +0.06    +0.166 HD
DOCKED: ATOM     32  H   UNL d   1      -6.931   6.092  -8.727 +0.07 +0.03    +0.166 HD
DOCKED: ENDROOT
DOCKED: BRANCH   7  33
DOCKED: ATOM     33  C   UNL d   1      -7.553   9.506 -12.809 -0.11 -0.00    +0.141 C 
DOCKED: BRANCH  33  34
DOCKED: ATOM     34  C   UNL d   1      -6.256  10.252 -12.650 -0.14 -0.04    +0.306 C 
DOCKED: ATOM     35  O   UNL d   1      -6.133  11.437 -12.389 -0.28 +0.02    -0.251 OA
DOCKED: BRANCH  34  36
DOCKED: ATOM     36  O   UNL d   1      -5.180   9.465 -12.824 -0.07 +0.12    -0.481 OA
DOCKED: ATOM     37  H   UNL d   1      -4.745   9.442 -11.945 -0.30 -0.15    +0.295 HD
DOCKED: ENDBRANCH  34  36
DOCKED: ENDBRANCH  33  34
DOCKED: ENDBRANCH   7  33
DOCKED: BRANCH  27  38
DOCKED: ATOM     38  C   UNL d   1      -2.553   4.845  -8.903 -0.51 +0.00    +0.017 C 
DOCKED: ATOM     39  C   UNL d   1      -1.464   5.417  -8.368 -0.48 +0.00    +0.092 C 
DOCKED: BRANCH  39  40
DOCKED: ATOM     40  C   UNL d   1      -0.238   4.632  -8.194 -0.26 +0.01    +0.330 C 
DOCKED: ATOM     41  O   UNL d   1      -0.131   3.514  -7.729 -0.36 -0.01    -0.246 OA
DOCKED: BRANCH  40  42
DOCKED: ATOM     42  O   UNL d   1       0.821   5.325  -8.643 -0.19 -0.03    -0.477 OA
DOCKED: ATOM     43  H   UNL d   1       0.589   6.257  -8.452 +0.26 +0.01    +0.295 HD
DOCKED: ENDBRANCH  40  42
DOCKED: ENDBRANCH  39  40
DOCKED: ENDBRANCH  27  38
DOCKED: BRANCH   8  44
DOCKED: ATOM     44  C   UNL d   1     -13.335   4.796 -10.586 -0.02 +0.05    +0.141 C 
DOCKED: BRANCH  44  45
DOCKED: ATOM     45  C   UNL d   1     -14.510   3.866 -10.729 +0.00 +0.10    +0.306 C 
DOCKED: ATOM     46  O   UNL d   1     -15.124   3.623 -11.753 -0.00 -0.07    -0.251 OA
DOCKED: BRANCH  45  47
DOCKED: ATOM     47  O   UNL d   1     -14.871   3.310  -9.559 +0.01 -0.18    -0.481 OA
DOCKED: ATOM     48  H   UNL d   1     -14.252   2.558  -9.441 +0.03 +0.13    +0.295 HD
DOCKED: ENDBRANCH  45  47
DOCKED: ENDBRANCH  44  45
DOCKED: ENDBRANCH   8  44
DOCKED: BRANCH  22  49
DOCKED: ATOM     49  C   UNL d   1      -5.798   2.310  -5.118 -0.45 +0.01    +0.048 C 
DOCKED: BRANCH  49  50
DOCKED: ATOM     50  C   UNL d   1      -5.791   0.801  -4.874 -0.40 +0.01    +0.125 C 
DOCKED: BRANCH  50  51
DOCKED: ATOM     51  C   UNL d   1      -5.959   0.493  -3.413 -0.25 +0.02    +0.305 C 
DOCKED: ATOM     52  O   UNL d   1      -5.172  -0.076  -2.678 -0.35 +0.01    -0.251 OA
DOCKED: BRANCH  51  53
DOCKED: ATOM     53  O   UNL d   1      -7.148   0.920  -2.942 -0.21 -0.03    -0.481 OA
DOCKED: ATOM     54  H   UNL d   1      -7.042   0.893  -1.968 -0.14 -0.04    +0.295 HD
DOCKED: ENDBRANCH  51  53
DOCKED: ENDBRANCH  50  51
DOCKED: ENDBRANCH  49  50
DOCKED: ENDBRANCH  22  49
DOCKED: TORSDOF 13
DOCKED: TER
DOCKED: ENDMDL
________________________________________________________________________________


	BEGINNING GENETIC ALGORITHM DOCKING 50 of 100
Run: 50 Seed: 360724257 1773747920 [ Run 50 of 100 GA/GALS ]
Beginning LAMARCKIAN GENETIC ALGORITHM (LGA), with a maximum of 25000000 energy evaluations.

Final-Value: -11.209


	FINAL GENETIC ALGORITHM DOCKED STATE
	_______________________________________________


Detailed state:  trans -8.174 -10.324 7.826 quatxyzw 0.141335 0.158133 -0.756214 0.618998 center 0.153 0.018 -0.028 ntor 13 101.7525 -72.9636 175.0219 170.2710 179.8614 34.0484 153.4575 -75.3277 -15.9931 -0.3603 -176.8666 -1.8099 180.0000
State:	 -8.174 -10.324   7.826   0.180  0.201 -0.963 103.514    101.75  -72.96  175.02  170.27  179.86   34.05  153.46  -75.33  -15.99   -0.36 -176.87   -1.81  180.00

DOCKED: MODEL       50
DOCKED: USER    Run = 50
DOCKED: USER    DPF = D:/Protein_go_brrr/autodock/final/mut_K82N/heme/dock.dpf
DOCKED: USER  
DOCKED: USER    Estimated Free Energy of Binding    =   -5.05 kcal/mol  [=(1)+(2)+(3)-(4)]
DOCKED: USER    Estimated Inhibition Constant, Ki   =  198.24 uM (micromolar)  [Temperature = 298.15 K]
DOCKED: USER    
DOCKED: USER    (1) Final Intermolecular Energy     =   -8.93 kcal/mol
DOCKED: USER        vdW + Hbond + desolv Energy     =   -8.43 kcal/mol
DOCKED: USER        Electrostatic Energy            =   -0.50 kcal/mol
DOCKED: USER    (2) Final Total Internal Energy     =   -2.28 kcal/mol
DOCKED: USER    (3) Torsional Free Energy           =   +3.88 kcal/mol
DOCKED: USER    (4) Unbound System's Energy  [=(2)] =   -2.28 kcal/mol
DOCKED: USER    
DOCKED: USER    
DOCKED: USER    NEWDPF move heme_opt.pdbqt
DOCKED: USER    NEWDPF about 0.153000 0.018000 -0.028000
DOCKED: USER    NEWDPF tran0 -8.174085 -10.324172 7.826449
DOCKED: USER    NEWDPF quaternion0 0.141335 0.158133 -0.756214 0.618998
DOCKED: USER    NEWDPF axisangle0 0.179955 0.201342 -0.962849 103.513941
DOCKED: USER    NEWDPF quat0 0.179955 0.201342 -0.962849 103.513941
DOCKED: USER    NEWDPF dihe0 101.75 -72.96 175.02 170.27 179.86 34.05 153.46 -75.33 -15.99 -0.36 -176.87 -1.81 180.00 
DOCKED: USER  keepresnum = 1 
DOCKED: USER  
DOCKED: REMARK  13 active torsions:
DOCKED: REMARK  status: ('A' for Active; 'I' for Inactive)
DOCKED: REMARK    1  A    between atoms: O_3  and  C_38 
DOCKED: REMARK    2  A    between atoms: O_4  and  C_40 
DOCKED: REMARK    3  A    between atoms: O_7  and  C_46 
DOCKED: REMARK    4  A    between atoms: O_9  and  C_48 
DOCKED: REMARK    5  A    between atoms: C_15  and  C_20 
DOCKED: REMARK    6  A    between atoms: C_16  and  C_23 
DOCKED: REMARK    7  A    between atoms: C_20  and  C_38 
DOCKED: REMARK    8  A    between atoms: C_23  and  C_40 
DOCKED: REMARK    9  A    between atoms: C_32  and  C_41 
DOCKED: REMARK   10  A    between atoms: C_37  and  C_45 
DOCKED: REMARK   11  A    between atoms: C_41  and  C_44 
DOCKED: REMARK   12  A    between atoms: C_44  and  C_46 
DOCKED: REMARK   13  A    between atoms: C_47  and  C_48 
DOCKED: USER                              x       y       z     vdW  Elec       q    Type
DOCKED: USER                           _______ _______ _______ _____ _____    ______ ____
DOCKED: ROOT
DOCKED: ATOM      1  O   UNL d   1      -8.858 -16.180   7.818 -0.01 +0.04    -0.289 OA
DOCKED: ATOM      2  O   UNL d   1      -2.693 -11.939   8.444 -0.32 +0.06    -0.289 OA
DOCKED: ATOM      3  N   UNL d   1      -8.932 -12.737   7.631 -0.11 +0.04    -0.247 NA
DOCKED: ATOM      4  N   UNL d   1      -6.140 -11.957   8.281 -0.19 +0.05    -0.247 NA
DOCKED: ATOM      5  N   UNL d   1      -7.069  -9.256   8.612 -0.13 +0.05    -0.354 N 
DOCKED: ATOM      6  N   UNL d   1      -9.967 -10.077   7.956 +0.00 +0.04    -0.354 N 
DOCKED: ATOM      7  C   UNL d   1     -10.631 -14.503   7.679 -0.04 -0.01    +0.084 A 
DOCKED: ATOM      8  C   UNL d   1      -4.384 -13.590   7.807 -0.26 -0.01    +0.084 A 
DOCKED: ATOM      9  C   UNL d   1      -5.875 -13.243   7.865 -0.23 -0.01    +0.058 A 
DOCKED: ATOM     10  C   UNL d   1     -10.289 -13.011   7.615 -0.10 -0.01    +0.058 A 
DOCKED: ATOM     11  C   UNL d   1      -9.226 -15.024   7.715 -0.04 -0.03    +0.193 A 
DOCKED: ATOM     12  C   UNL d   1      -8.288 -13.858   7.654 -0.11 -0.02    +0.109 A 
DOCKED: ATOM     13  C   UNL d   1      -3.852 -12.275   8.303 -0.24 -0.04    +0.193 A 
DOCKED: ATOM     14  C   UNL d   1     -11.332 -14.876   8.988 -0.01 -0.00    +0.026 C 
DOCKED: ATOM     15  C   UNL d   1      -6.839 -14.134   7.584 -0.18 -0.01    +0.055 C 
DOCKED: ATOM     16  C   UNL d   1      -3.906 -13.803   6.368 -0.46 -0.00    +0.026 C 
DOCKED: ATOM     17  C   UNL d   1      -5.018 -11.376   8.561 -0.24 -0.03    +0.109 A 
DOCKED: ATOM     18  C   UNL d   1     -11.247 -12.076   7.464 -0.10 -0.01    +0.050 C 
DOCKED: ATOM     19  C   UNL d   1     -11.020 -10.685   7.311 -0.07 -0.01    +0.045 A 
DOCKED: ATOM     20  C   UNL d   1      -5.796  -9.130   9.104 -0.38 -0.01    +0.045 A 
DOCKED: ATOM     21  C   UNL d   1      -4.802 -10.024   9.099 -0.40 -0.01    +0.057 C 
DOCKED: ATOM     22  C   UNL d   1      -6.926  -7.179   9.470 -0.30 +0.00    -0.019 A 
DOCKED: ATOM     23  C   UNL d   1      -7.827  -8.130   8.788 -0.23 -0.01    +0.045 A 
DOCKED: ATOM     24  C   UNL d   1      -5.725  -7.776   9.653 -0.42 +0.00    -0.022 A 
DOCKED: ATOM     25  C   UNL d   1      -9.988  -8.718   7.743 -0.07 -0.01    +0.049 A 
DOCKED: ATOM     26  C   UNL d   1     -11.723  -9.701   6.633 -0.08 +0.00    -0.018 A 
DOCKED: ATOM     27  C   UNL d   1     -11.056  -8.465   6.893 -0.10 -0.00    +0.003 A 
DOCKED: ATOM     28  C   UNL d   1      -9.092  -7.858   8.433 -0.18 -0.01    +0.052 C 
DOCKED: ATOM     29  C   UNL d   1      -4.493  -7.221  10.283 -0.47 -0.00    +0.046 C 
DOCKED: ATOM     30  C   UNL d   1     -12.939  -9.896   5.791 -0.09 -0.01    +0.046 C 
DOCKED: ATOM     31  H   UNL d   1      -7.356 -10.086   8.105 +0.06 -0.02    +0.166 HD
DOCKED: ATOM     32  H   UNL d   1      -9.302 -10.576   8.536 +0.04 -0.02    +0.166 HD
DOCKED: ENDROOT
DOCKED: BRANCH   7  33
DOCKED: ATOM     33  C   UNL d   1     -11.379 -15.058   6.462 -0.05 -0.02    +0.141 C 
DOCKED: BRANCH  33  34
DOCKED: ATOM     34  C   UNL d   1     -11.008 -14.357   5.184 -0.13 -0.06    +0.306 C 
DOCKED: ATOM     35  O   UNL d   1     -11.780 -13.833   4.399 -0.15 +0.04    -0.251 OA
DOCKED: BRANCH  34  36
DOCKED: ATOM     36  O   UNL d   1      -9.681 -14.350   4.963 -0.07 +0.19    -0.481 OA
DOCKED: ATOM     37  H   UNL d   1      -9.343 -13.615   5.518 -0.41 -0.16    +0.295 HD
DOCKED: ENDBRANCH  34  36
DOCKED: ENDBRANCH  33  34
DOCKED: ENDBRANCH   7  33
DOCKED: BRANCH  27  38
DOCKED: ATOM     38  C   UNL d   1     -11.463  -7.186   6.393 -0.15 -0.01    +0.017 C 
DOCKED: ATOM     39  C   UNL d   1     -10.633  -6.194   6.036 -0.26 -0.05    +0.092 C 
DOCKED: BRANCH  39  40
DOCKED: ATOM     40  C   UNL d   1     -11.178  -4.935   5.522 -0.13 -0.24    +0.330 C 
DOCKED: ATOM     41  O   UNL d   1     -12.231  -4.404   5.821 -0.07 +0.13    -0.246 OA
DOCKED: BRANCH  40  42
DOCKED: ATOM     42  O   UNL d   1     -10.331  -4.394   4.633 -0.11 +0.53    -0.477 OA
DOCKED: ATOM     43  H   UNL d   1     -10.770  -4.540   3.770 -0.20 -0.82    +0.295 HD
DOCKED: ENDBRANCH  40  42
DOCKED: ENDBRANCH  39  40
DOCKED: ENDBRANCH  27  38
DOCKED: BRANCH   8  44
DOCKED: ATOM     44  C   UNL d   1      -3.938 -14.740   8.716 -0.18 +0.01    +0.141 C 
DOCKED: BRANCH  44  45
DOCKED: ATOM     45  C   UNL d   1      -4.409 -14.591  10.138 -0.08 +0.01    +0.306 C 
DOCKED: ATOM     46  O   UNL d   1      -5.262 -15.260  10.695 -0.03 -0.00    -0.251 OA
DOCKED: BRANCH  45  47
DOCKED: ATOM     47  O   UNL d   1      -3.796 -13.580  10.780 -0.46 -0.08    -0.481 OA
DOCKED: ATOM     48  H   UNL d   1      -3.115 -13.262  10.149 +0.14 +0.03    +0.295 HD
DOCKED: ENDBRANCH  45  47
DOCKED: ENDBRANCH  44  45
DOCKED: ENDBRANCH   8  44
DOCKED: BRANCH  22  49
DOCKED: ATOM     49  C   UNL d   1      -7.324  -5.794   9.889 -0.15 -0.01    +0.048 C 
DOCKED: BRANCH  49  50
DOCKED: ATOM     50  C   UNL d   1      -7.748  -5.743  11.357 -0.22 -0.02    +0.125 C 
DOCKED: BRANCH  50  51
DOCKED: ATOM     51  C   UNL d   1      -7.560  -7.080  12.016 -0.12 -0.03    +0.305 C 
DOCKED: ATOM     52  O   UNL d   1      -8.308  -8.041  11.972 -0.06 +0.02    -0.251 OA
DOCKED: BRANCH  51  53
DOCKED: ATOM     53  O   UNL d   1      -6.416  -7.136  12.726 -0.15 +0.06    -0.481 OA
DOCKED: ATOM     54  H   UNL d   1      -5.938  -6.319  12.472 +0.05 -0.05    +0.295 HD
DOCKED: ENDBRANCH  51  53
DOCKED: ENDBRANCH  50  51
DOCKED: ENDBRANCH  49  50
DOCKED: ENDBRANCH  22  49
DOCKED: TORSDOF 13
DOCKED: TER
DOCKED: ENDMDL
________________________________________________________________________________


	BEGINNING GENETIC ALGORITHM DOCKING 51 of 100
Run: 51 Seed: 156418154 1809478658 [ Run 51 of 100 GA/GALS ]
Beginning LAMARCKIAN GENETIC ALGORITHM (LGA), with a maximum of 25000000 energy evaluations.

Final-Value: -10.126


	FINAL GENETIC ALGORITHM DOCKED STATE
	_______________________________________________


Detailed state:  trans 7.813 16.243 -10.784 quatxyzw -0.311883 -0.798159 -0.466198 -0.219840 center 0.153 0.018 -0.028 ntor 13 82.8468 79.3844 -98.4729 -122.7897 -172.1260 158.4406 122.2291 169.6949 101.9380 -31.1839 43.3167 -168.1451 -180.0000
State:	  7.813  16.243 -10.784  -0.320 -0.818 -0.478 -154.601     82.85   79.38  -98.47 -122.79 -172.13  158.44  122.23  169.69  101.94  -31.18   43.32 -168.15 -180.00

DOCKED: MODEL       51
DOCKED: USER    Run = 51
DOCKED: USER    DPF = D:/Protein_go_brrr/autodock/final/mut_K82N/heme/dock.dpf
DOCKED: USER  
DOCKED: USER    Estimated Free Energy of Binding    =   -4.06 kcal/mol  [=(1)+(2)+(3)-(4)]
DOCKED: USER    Estimated Inhibition Constant, Ki   =    1.06 mM (millimolar)  [Temperature = 298.15 K]
DOCKED: USER    
DOCKED: USER    (1) Final Intermolecular Energy     =   -7.94 kcal/mol
DOCKED: USER        vdW + Hbond + desolv Energy     =   -7.70 kcal/mol
DOCKED: USER        Electrostatic Energy            =   -0.24 kcal/mol
DOCKED: USER    (2) Final Total Internal Energy     =   -2.19 kcal/mol
DOCKED: USER    (3) Torsional Free Energy           =   +3.88 kcal/mol
DOCKED: USER    (4) Unbound System's Energy  [=(2)] =   -2.19 kcal/mol
DOCKED: USER    
DOCKED: USER    
DOCKED: USER    NEWDPF move heme_opt.pdbqt
DOCKED: USER    NEWDPF about 0.153000 0.018000 -0.028000
DOCKED: USER    NEWDPF tran0 7.813443 16.242938 -10.783586
DOCKED: USER    NEWDPF quaternion0 -0.311883 -0.798159 -0.466198 -0.219840
DOCKED: USER    NEWDPF axisangle0 -0.319705 -0.818175 -0.477890 -154.600729
DOCKED: USER    NEWDPF quat0 -0.319705 -0.818175 -0.477890 -154.600729
DOCKED: USER    NEWDPF dihe0 82.85 79.38 -98.47 -122.79 -172.13 158.44 122.23 169.69 101.94 -31.18 43.32 -168.15 -180.00 
DOCKED: USER  keepresnum = 1 
DOCKED: USER  
DOCKED: REMARK  13 active torsions:
DOCKED: REMARK  status: ('A' for Active; 'I' for Inactive)
DOCKED: REMARK    1  A    between atoms: O_3  and  C_38 
DOCKED: REMARK    2  A    between atoms: O_4  and  C_40 
DOCKED: REMARK    3  A    between atoms: O_7  and  C_46 
DOCKED: REMARK    4  A    between atoms: O_9  and  C_48 
DOCKED: REMARK    5  A    between atoms: C_15  and  C_20 
DOCKED: REMARK    6  A    between atoms: C_16  and  C_23 
DOCKED: REMARK    7  A    between atoms: C_20  and  C_38 
DOCKED: REMARK    8  A    between atoms: C_23  and  C_40 
DOCKED: REMARK    9  A    between atoms: C_32  and  C_41 
DOCKED: REMARK   10  A    between atoms: C_37  and  C_45 
DOCKED: REMARK   11  A    between atoms: C_41  and  C_44 
DOCKED: REMARK   12  A    between atoms: C_44  and  C_46 
DOCKED: REMARK   13  A    between atoms: C_47  and  C_48 
DOCKED: USER                              x       y       z     vdW  Elec       q    Type
DOCKED: USER                           _______ _______ _______ _____ _____    ______ ____
DOCKED: ROOT
DOCKED: ATOM      1  O   UNL d   1      12.939  15.797 -13.663 -0.00 +0.01    -0.289 OA
DOCKED: ATOM      2  O   UNL d   1       6.386  12.276 -14.691 -0.50 -0.15    -0.289 OA
DOCKED: ATOM      3  N   UNL d   1      10.210  16.292 -11.612 -0.05 +0.01    -0.247 NA
DOCKED: ATOM      4  N   UNL d   1       8.057  14.747 -12.955 -0.10 -0.01    -0.247 NA
DOCKED: ATOM      5  N   UNL d   1       6.162  16.095 -11.264 -0.13 +0.05    -0.354 N 
DOCKED: ATOM      6  N   UNL d   1       8.401  17.707  -9.889 -0.06 +0.03    -0.354 N 
DOCKED: ATOM      7  C   UNL d   1      12.433  17.307 -11.808 -0.01 -0.00    +0.084 A 
DOCKED: ATOM      8  C   UNL d   1       8.738  12.864 -14.355 -0.14 +0.02    +0.084 A 
DOCKED: ATOM      9  C   UNL d   1       9.127  14.073 -13.498 -0.12 +0.00    +0.058 A 
DOCKED: ATOM     10  C   UNL d   1      11.071  17.252 -11.108 -0.05 -0.00    +0.058 A 
DOCKED: ATOM     11  C   UNL d   1      12.195  16.194 -12.784 -0.01 -0.01    +0.193 A 
DOCKED: ATOM     12  C   UNL d   1      10.823  15.643 -12.548 -0.05 -0.00    +0.109 A 
DOCKED: ATOM     13  C   UNL d   1       7.247  12.999 -14.228 -0.19 +0.05    +0.193 A 
DOCKED: ATOM     14  C   UNL d   1      12.628  18.612 -12.583 -0.00 -0.00    +0.026 C 
DOCKED: ATOM     15  C   UNL d   1      10.400  14.468 -13.336 -0.10 +0.00    +0.055 C 
DOCKED: ATOM     16  C   UNL d   1       9.170  11.546 -13.706 -0.03 +0.01    +0.026 C 
DOCKED: ATOM     17  C   UNL d   1       6.965  14.182 -13.361 -0.21 +0.01    +0.109 A 
DOCKED: ATOM     18  C   UNL d   1      10.799  18.024 -10.039 -0.07 -0.00    +0.050 C 
DOCKED: ATOM     19  C   UNL d   1       9.603  17.983  -9.278 -0.11 -0.00    +0.045 A 
DOCKED: ATOM     20  C   UNL d   1       5.303  15.479 -12.136 -0.31 -0.00    +0.045 A 
DOCKED: ATOM     21  C   UNL d   1       5.577  14.587 -13.093 -0.34 -0.00    +0.057 C 
DOCKED: ATOM     22  C   UNL d   1       4.105  16.878 -10.784 -0.29 +0.00    -0.019 A 
DOCKED: ATOM     23  C   UNL d   1       5.531  16.958 -10.408 -0.27 -0.01    +0.045 A 
DOCKED: ATOM     24  C   UNL d   1       3.976  16.000 -11.807 -0.33 +0.00    -0.022 A 
DOCKED: ATOM     25  C   UNL d   1       7.367  17.808  -8.987 -0.22 -0.01    +0.049 A 
DOCKED: ATOM     26  C   UNL d   1       9.349  18.232  -7.938 -0.11 +0.00    -0.018 A 
DOCKED: ATOM     27  C   UNL d   1       7.938  18.101  -7.756 -0.03 -0.00    +0.003 A 
DOCKED: ATOM     28  C   UNL d   1       6.014  17.721  -9.416 -0.28 -0.01    +0.052 C 
DOCKED: ATOM     29  C   UNL d   1       2.738  15.574 -12.520 -0.25 -0.01    +0.046 C 
DOCKED: ATOM     30  C   UNL d   1      10.354  18.569  -6.889 -0.11 -0.00    +0.046 C 
DOCKED: ATOM     31  H   UNL d   1       7.146  15.849 -11.232 +0.06 -0.02    +0.166 HD
DOCKED: ATOM     32  H   UNL d   1       8.308  17.503 -10.877 +0.04 -0.01    +0.166 HD
DOCKED: ENDROOT
DOCKED: BRANCH   7  33
DOCKED: ATOM     33  C   UNL d   1      13.641  16.994 -10.919 -0.02 -0.01    +0.141 C 
DOCKED: BRANCH  33  34
DOCKED: ATOM     34  C   UNL d   1      14.772  16.358 -11.682 -0.00 -0.01    +0.306 C 
DOCKED: ATOM     35  O   UNL d   1      15.234  15.245 -11.491 -0.00 +0.01    -0.251 OA
DOCKED: BRANCH  34  36
DOCKED: ATOM     36  O   UNL d   1      15.259  17.156 -12.649 -0.00 +0.02    -0.481 OA
DOCKED: ATOM     37  H   UNL d   1      14.841  16.828 -13.473 +0.00 -0.01    +0.295 HD
DOCKED: ENDBRANCH  34  36
DOCKED: ENDBRANCH  33  34
DOCKED: ENDBRANCH   7  33
DOCKED: BRANCH  27  38
DOCKED: ATOM     38  C   UNL d   1       7.244  18.292  -6.518 -0.31 -0.00    +0.017 C 
DOCKED: ATOM     39  C   UNL d   1       7.401  19.341  -5.696 -0.28 -0.02    +0.092 C 
DOCKED: BRANCH  39  40
DOCKED: ATOM     40  C   UNL d   1       6.615  19.426  -4.463 -0.26 -0.10    +0.330 C 
DOCKED: ATOM     41  O   UNL d   1       6.884  20.045  -3.451 -0.34 +0.07    -0.246 OA
DOCKED: BRANCH  40  42
DOCKED: ATOM     42  O   UNL d   1       5.489  18.707  -4.582 -0.78 +0.12    -0.477 OA
DOCKED: ATOM     43  H   UNL d   1       4.801  19.377  -4.774 -0.39 -0.21    +0.295 HD
DOCKED: ENDBRANCH  40  42
DOCKED: ENDBRANCH  39  40
DOCKED: ENDBRANCH  27  38
DOCKED: BRANCH   8  44
DOCKED: ATOM     44  C   UNL d   1       9.172  12.927 -15.823 -0.05 +0.02    +0.141 C 
DOCKED: BRANCH  44  45
DOCKED: ATOM     45  C   UNL d   1       8.252  13.757 -16.679 -0.01 +0.02    +0.306 C 
DOCKED: ATOM     46  O   UNL d   1       8.219  14.974 -16.742 -0.01 +0.00    -0.251 OA
DOCKED: BRANCH  45  47
DOCKED: ATOM     47  O   UNL d   1       7.398  13.004 -17.395 -0.00 -0.05    -0.481 OA
DOCKED: ATOM     48  H   UNL d   1       6.682  12.775 -16.766 +0.05 +0.06    +0.295 HD
DOCKED: ENDBRANCH  45  47
DOCKED: ENDBRANCH  44  45
DOCKED: ENDBRANCH   8  44
DOCKED: BRANCH  22  49
DOCKED: ATOM     49  C   UNL d   1       3.015  17.670 -10.125 -0.22 -0.02    +0.048 C 
DOCKED: BRANCH  49  50
DOCKED: ATOM     50  C   UNL d   1       2.681  18.940 -10.909 -0.13 -0.03    +0.125 C 
DOCKED: BRANCH  50  51
DOCKED: ATOM     51  C   UNL d   1       2.532  20.116  -9.986 -0.11 -0.08    +0.305 C 
DOCKED: ATOM     52  O   UNL d   1       2.546  21.298 -10.281 -0.06 +0.06    -0.251 OA
DOCKED: BRANCH  51  53
DOCKED: ATOM     53  O   UNL d   1       2.383  19.734  -8.702 -0.19 +0.18    -0.481 OA
DOCKED: ATOM     54  H   UNL d   1       3.177  19.189  -8.521 -0.21 -0.17    +0.295 HD
DOCKED: ENDBRANCH  51  53
DOCKED: ENDBRANCH  50  51
DOCKED: ENDBRANCH  49  50
DOCKED: ENDBRANCH  22  49
DOCKED: TORSDOF 13
DOCKED: TER
DOCKED: ENDMDL
________________________________________________________________________________


	BEGINNING GENETIC ALGORITHM DOCKING 52 of 100
Run: 52 Seed: 118184927 1639670979 [ Run 52 of 100 GA/GALS ]
Beginning LAMARCKIAN GENETIC ALGORITHM (LGA), with a maximum of 25000000 energy evaluations.

Final-Value: -11.995


	FINAL GENETIC ALGORITHM DOCKED STATE
	_______________________________________________


Detailed state:  trans 12.232 9.701 -10.892 quatxyzw -0.542162 -0.722457 -0.276439 0.328172 center 0.153 0.018 -0.028 ntor 13 174.9206 180.0000 -143.8272 -40.2882 -154.4772 -15.5348 123.3421 -89.7974 6.3936 -21.1860 -97.1515 -5.2609 -17.4146
State:	 12.232   9.701 -10.892  -0.574 -0.765 -0.293 141.684    174.92  180.00 -143.83  -40.29 -154.48  -15.53  123.34  -89.80    6.39  -21.19  -97.15   -5.26  -17.41

DOCKED: MODEL       52
DOCKED: USER    Run = 52
DOCKED: USER    DPF = D:/Protein_go_brrr/autodock/final/mut_K82N/heme/dock.dpf
DOCKED: USER  
DOCKED: USER    Estimated Free Energy of Binding    =   -3.36 kcal/mol  [=(1)+(2)+(3)-(4)]
DOCKED: USER    Estimated Inhibition Constant, Ki   =    3.46 mM (millimolar)  [Temperature = 298.15 K]
DOCKED: USER    
DOCKED: USER    (1) Final Intermolecular Energy     =   -7.23 kcal/mol
DOCKED: USER        vdW + Hbond + desolv Energy     =   -6.97 kcal/mol
DOCKED: USER        Electrostatic Energy            =   -0.27 kcal/mol
DOCKED: USER    (2) Final Total Internal Energy     =   -4.76 kcal/mol
DOCKED: USER    (3) Torsional Free Energy           =   +3.88 kcal/mol
DOCKED: USER    (4) Unbound System's Energy  [=(2)] =   -4.76 kcal/mol
DOCKED: USER    
DOCKED: USER    
DOCKED: USER    NEWDPF move heme_opt.pdbqt
DOCKED: USER    NEWDPF about 0.153000 0.018000 -0.028000
DOCKED: USER    NEWDPF tran0 12.231682 9.701340 -10.891846
DOCKED: USER    NEWDPF quaternion0 -0.542162 -0.722457 -0.276439 0.328172
DOCKED: USER    NEWDPF axisangle0 -0.573949 -0.764814 -0.292646 141.684242
DOCKED: USER    NEWDPF quat0 -0.573949 -0.764814 -0.292646 141.684242
DOCKED: USER    NEWDPF dihe0 174.92 180.00 -143.83 -40.29 -154.48 -15.53 123.34 -89.80 6.39 -21.19 -97.15 -5.26 -17.41 
DOCKED: USER  keepresnum = 1 
DOCKED: USER  
DOCKED: REMARK  13 active torsions:
DOCKED: REMARK  status: ('A' for Active; 'I' for Inactive)
DOCKED: REMARK    1  A    between atoms: O_3  and  C_38 
DOCKED: REMARK    2  A    between atoms: O_4  and  C_40 
DOCKED: REMARK    3  A    between atoms: O_7  and  C_46 
DOCKED: REMARK    4  A    between atoms: O_9  and  C_48 
DOCKED: REMARK    5  A    between atoms: C_15  and  C_20 
DOCKED: REMARK    6  A    between atoms: C_16  and  C_23 
DOCKED: REMARK    7  A    between atoms: C_20  and  C_38 
DOCKED: REMARK    8  A    between atoms: C_23  and  C_40 
DOCKED: REMARK    9  A    between atoms: C_32  and  C_41 
DOCKED: REMARK   10  A    between atoms: C_37  and  C_45 
DOCKED: REMARK   11  A    between atoms: C_41  and  C_44 
DOCKED: REMARK   12  A    between atoms: C_44  and  C_46 
DOCKED: REMARK   13  A    between atoms: C_47  and  C_48 
DOCKED: USER                              x       y       z     vdW  Elec       q    Type
DOCKED: USER                           _______ _______ _______ _____ _____    ______ ____
DOCKED: ROOT
DOCKED: ATOM      1  O   UNL d   1      14.854   4.754  -9.047 -0.03 +0.05    -0.289 OA
DOCKED: ATOM      2  O   UNL d   1       8.615   5.813 -13.091 -0.29 +0.08    -0.289 OA
DOCKED: ATOM      3  N   UNL d   1      13.612   7.887  -9.780 -0.15 +0.02    -0.247 NA
DOCKED: ATOM      4  N   UNL d   1      11.358   7.313 -11.629 -0.18 +0.03    -0.247 NA
DOCKED: ATOM      5  N   UNL d   1      11.314  10.109 -12.295 -0.14 -0.03    -0.354 N 
DOCKED: ATOM      6  N   UNL d   1      13.666  10.693 -10.390 -0.10 +0.01    -0.354 N 
DOCKED: ATOM      7  C   UNL d   1      15.643   7.041  -8.700 -0.07 -0.01    +0.084 A 
DOCKED: ATOM      8  C   UNL d   1      10.286   5.125 -11.439 -0.26 -0.04    +0.084 A 
DOCKED: ATOM      9  C   UNL d   1      11.406   6.081 -11.015 -0.23 -0.01    +0.058 A 
DOCKED: ATOM     10  C   UNL d   1      14.809   8.234  -9.175 -0.14 -0.00    +0.058 A 
DOCKED: ATOM     11  C   UNL d   1      14.698   5.959  -9.127 -0.07 -0.02    +0.193 A 
DOCKED: ATOM     12  C   UNL d   1      13.494   6.600  -9.745 -0.16 -0.01    +0.109 A 
DOCKED: ATOM     13  C   UNL d   1       9.615   6.029 -12.434 -0.20 -0.05    +0.193 A 
DOCKED: ATOM     14  C   UNL d   1      16.947   6.901  -9.491 -0.02 -0.00    +0.026 C 
DOCKED: ATOM     15  C   UNL d   1      12.377   5.727 -10.160 -0.24 -0.01    +0.055 C 
DOCKED: ATOM     16  C   UNL d   1       9.311   4.848 -10.290 -0.53 -0.01    +0.026 C 
DOCKED: ATOM     17  C   UNL d   1      10.366   7.321 -12.460 -0.20 -0.01    +0.109 A 
DOCKED: ATOM     18  C   UNL d   1      15.190   9.502  -8.929 -0.15 -0.00    +0.050 C 
DOCKED: ATOM     19  C   UNL d   1      14.444  10.663  -9.255 -0.09 -0.00    +0.045 A 
DOCKED: ATOM     20  C   UNL d   1      10.456   9.626 -13.250 -0.21 +0.01    +0.045 A 
DOCKED: ATOM     21  C   UNL d   1       9.960   8.392 -13.382 -0.27 +0.01    +0.057 C 
DOCKED: ATOM     22  C   UNL d   1      10.857  11.836 -13.668 -0.14 -0.00    -0.019 A 
DOCKED: ATOM     23  C   UNL d   1      11.614  11.434 -12.466 -0.19 +0.00    +0.045 A 
DOCKED: ATOM     24  C   UNL d   1      10.172  10.761 -14.127 -0.17 -0.01    -0.022 A 
DOCKED: ATOM     25  C   UNL d   1      13.106  11.938 -10.560 -0.15 +0.00    +0.049 A 
DOCKED: ATOM     26  C   UNL d   1      14.358  11.908  -8.652 -0.08 +0.00    -0.018 A 
DOCKED: ATOM     27  C   UNL d   1      13.497  12.703  -9.469 -0.16 -0.00    +0.003 A 
DOCKED: ATOM     28  C   UNL d   1      12.387  12.259 -11.743 -0.21 +0.00    +0.052 C 
DOCKED: ATOM     29  C   UNL d   1       9.260  10.668 -15.302 -0.10 +0.02    +0.046 C 
DOCKED: ATOM     30  C   UNL d   1      15.033  12.335  -7.393 -0.14 -0.00    +0.046 C 
DOCKED: ATOM     31  H   UNL d   1      11.608   9.534 -11.513 +0.03 +0.00    +0.166 HD
DOCKED: ATOM     32  H   UNL d   1      13.566   9.907 -11.022 +0.03 -0.00    +0.166 HD
DOCKED: ENDROOT
DOCKED: BRANCH   7  33
DOCKED: ATOM     33  C   UNL d   1      15.892   6.973  -7.190 -0.07 -0.01    +0.141 C 
DOCKED: BRANCH  33  34
DOCKED: ATOM     34  C   UNL d   1      14.618   7.027  -6.390 -0.13 -0.01    +0.306 C 
DOCKED: ATOM     35  O   UNL d   1      14.163   8.007  -5.826 -0.15 +0.01    -0.251 OA
DOCKED: BRANCH  34  36
DOCKED: ATOM     36  O   UNL d   1      13.983   5.842  -6.347 -0.08 +0.03    -0.481 OA
DOCKED: ATOM     37  H   UNL d   1      14.480   5.273  -6.972 +0.09 -0.03    +0.295 HD
DOCKED: ENDBRANCH  34  36
DOCKED: ENDBRANCH  33  34
DOCKED: ENDBRANCH   7  33
DOCKED: BRANCH  27  38
DOCKED: ATOM     38  C   UNL d   1      13.148  14.068  -9.217 -0.20 -0.00    +0.017 C 
DOCKED: ATOM     39  C   UNL d   1      11.980  14.643  -9.544 -0.23 +0.00    +0.092 C 
DOCKED: BRANCH  39  40
DOCKED: ATOM     40  C   UNL d   1      11.740  16.050  -9.212 -0.08 -0.00    +0.330 C 
DOCKED: ATOM     41  O   UNL d   1      12.343  16.738  -8.411 -0.07 +0.01    -0.246 OA
DOCKED: BRANCH  40  42
DOCKED: ATOM     42  O   UNL d   1      10.723  16.530  -9.944 -0.05 +0.01    -0.477 OA
DOCKED: ATOM     43  H   UNL d   1      10.448  15.766 -10.493 +0.08 +0.00    +0.295 HD
DOCKED: ENDBRANCH  40  42
DOCKED: ENDBRANCH  39  40
DOCKED: ENDBRANCH  27  38
DOCKED: BRANCH   8  44
DOCKED: ATOM     44  C   UNL d   1      10.745   3.823 -12.103 -0.17 -0.10    +0.141 C 
DOCKED: BRANCH  44  45
DOCKED: ATOM     45  C   UNL d   1      11.304   4.026 -13.486 -0.04 -0.18    +0.306 C 
DOCKED: ATOM     46  O   UNL d   1      12.422   4.423 -13.766 -0.02 +0.08    -0.251 OA
DOCKED: BRANCH  45  47
DOCKED: ATOM     47  O   UNL d   1      10.410   3.742 -14.450 +0.02 +0.52    -0.481 OA
DOCKED: ATOM     48  H   UNL d   1       9.548   4.029 -14.081 -0.43 -0.60    +0.295 HD
DOCKED: ENDBRANCH  45  47
DOCKED: ENDBRANCH  44  45
DOCKED: ENDBRANCH   8  44
DOCKED: BRANCH  22  49
DOCKED: ATOM     49  C   UNL d   1      10.884  13.214 -14.260 -0.07 +0.00    +0.048 C 
DOCKED: BRANCH  49  50
DOCKED: ATOM     50  C   UNL d   1       9.646  14.023 -13.875 -0.09 +0.01    +0.125 C 
DOCKED: BRANCH  50  51
DOCKED: ATOM     51  C   UNL d   1       9.819  14.660 -12.525 -0.09 +0.01    +0.305 C 
DOCKED: ATOM     52  O   UNL d   1       9.434  14.238 -11.449 -0.23 -0.02    -0.251 OA
DOCKED: BRANCH  51  53
DOCKED: ATOM     53  O   UNL d   1      10.477  15.835 -12.603 +0.00 +0.01    -0.481 OA
DOCKED: ATOM     54  H   UNL d   1      10.001  16.416 -11.973 +0.05 -0.01    +0.295 HD
DOCKED: ENDBRANCH  51  53
DOCKED: ENDBRANCH  50  51
DOCKED: ENDBRANCH  49  50
DOCKED: ENDBRANCH  22  49
DOCKED: TORSDOF 13
DOCKED: TER
DOCKED: ENDMDL
________________________________________________________________________________


	BEGINNING GENETIC ALGORITHM DOCKING 53 of 100
Run: 53 Seed: 193771058 2116332862 [ Run 53 of 100 GA/GALS ]
Beginning LAMARCKIAN GENETIC ALGORITHM (LGA), with a maximum of 25000000 energy evaluations.

Final-Value: -10.283


	FINAL GENETIC ALGORITHM DOCKED STATE
	_______________________________________________


Detailed state:  trans -3.455 20.347 -12.498 quatxyzw -0.307384 -0.406989 0.710929 0.484205 center 0.153 0.018 -0.028 ntor 13 -97.2005 172.1933 93.9623 -16.1668 35.2817 110.5274 -44.8678 173.3876 118.3446 -121.9617 76.5066 161.1845 165.5528
State:	 -3.455  20.347 -12.498  -0.351 -0.465  0.813 122.079    -97.20  172.19   93.96  -16.17   35.28  110.53  -44.87  173.39  118.34 -121.96   76.51  161.18  165.55

DOCKED: MODEL       53
DOCKED: USER    Run = 53
DOCKED: USER    DPF = D:/Protein_go_brrr/autodock/final/mut_K82N/heme/dock.dpf
DOCKED: USER  
DOCKED: USER    Estimated Free Energy of Binding    =   -4.23 kcal/mol  [=(1)+(2)+(3)-(4)]
DOCKED: USER    Estimated Inhibition Constant, Ki   =  798.28 uM (micromolar)  [Temperature = 298.15 K]
DOCKED: USER    
DOCKED: USER    (1) Final Intermolecular Energy     =   -8.10 kcal/mol
DOCKED: USER        vdW + Hbond + desolv Energy     =   -7.51 kcal/mol
DOCKED: USER        Electrostatic Energy            =   -0.59 kcal/mol
DOCKED: USER    (2) Final Total Internal Energy     =   -2.18 kcal/mol
DOCKED: USER    (3) Torsional Free Energy           =   +3.88 kcal/mol
DOCKED: USER    (4) Unbound System's Energy  [=(2)] =   -2.18 kcal/mol
DOCKED: USER    
DOCKED: USER    
DOCKED: USER    NEWDPF move heme_opt.pdbqt
DOCKED: USER    NEWDPF about 0.153000 0.018000 -0.028000
DOCKED: USER    NEWDPF tran0 -3.454663 20.347208 -12.498097
DOCKED: USER    NEWDPF quaternion0 -0.307384 -0.406989 0.710929 0.484205
DOCKED: USER    NEWDPF axisangle0 -0.351314 -0.465155 0.812533 122.079156
DOCKED: USER    NEWDPF quat0 -0.351314 -0.465155 0.812533 122.079156
DOCKED: USER    NEWDPF dihe0 -97.20 172.19 93.96 -16.17 35.28 110.53 -44.87 173.39 118.34 -121.96 76.51 161.18 165.55 
DOCKED: USER  keepresnum = 1 
DOCKED: USER  
DOCKED: REMARK  13 active torsions:
DOCKED: REMARK  status: ('A' for Active; 'I' for Inactive)
DOCKED: REMARK    1  A    between atoms: O_3  and  C_38 
DOCKED: REMARK    2  A    between atoms: O_4  and  C_40 
DOCKED: REMARK    3  A    between atoms: O_7  and  C_46 
DOCKED: REMARK    4  A    between atoms: O_9  and  C_48 
DOCKED: REMARK    5  A    between atoms: C_15  and  C_20 
DOCKED: REMARK    6  A    between atoms: C_16  and  C_23 
DOCKED: REMARK    7  A    between atoms: C_20  and  C_38 
DOCKED: REMARK    8  A    between atoms: C_23  and  C_40 
DOCKED: REMARK    9  A    between atoms: C_32  and  C_41 
DOCKED: REMARK   10  A    between atoms: C_37  and  C_45 
DOCKED: REMARK   11  A    between atoms: C_41  and  C_44 
DOCKED: REMARK   12  A    between atoms: C_44  and  C_46 
DOCKED: REMARK   13  A    between atoms: C_47  and  C_48 
DOCKED: USER                              x       y       z     vdW  Elec       q    Type
DOCKED: USER                           _______ _______ _______ _____ _____    ______ ____
DOCKED: ROOT
DOCKED: ATOM      1  O   UNL d   1       0.023  21.901  -7.998 -0.89 +0.13    -0.289 OA
DOCKED: ATOM      2  O   UNL d   1      -7.027  23.864  -9.685 -0.02 -0.00    -0.289 OA
DOCKED: ATOM      3  N   UNL d   1      -1.582  20.827 -10.856 -0.10 +0.08    -0.247 NA
DOCKED: ATOM      4  N   UNL d   1      -4.353  21.842 -10.505 -0.12 +0.03    -0.247 NA
DOCKED: ATOM      5  N   UNL d   1      -5.158  20.119 -12.662 -0.07 +0.08    -0.354 N 
DOCKED: ATOM      6  N   UNL d   1      -2.284  19.058 -13.006 -0.11 +0.13    -0.354 N 
DOCKED: ATOM      7  C   UNL d   1       0.569  20.331  -9.791 -0.23 -0.02    +0.084 A 
DOCKED: ATOM      8  C   UNL d   1      -4.650  23.818  -9.099 -0.13 -0.01    +0.084 A 
DOCKED: ATOM      9  C   UNL d   1      -3.727  22.733  -9.663 -0.15 -0.01    +0.058 A 
DOCKED: ATOM     10  C   UNL d   1      -0.415  20.087 -10.939 -0.15 -0.02    +0.058 A 
DOCKED: ATOM     11  C   UNL d   1      -0.241  21.355  -9.054 -0.25 -0.07    +0.193 A 
DOCKED: ATOM     12  C   UNL d   1      -1.511  21.589  -9.813 -0.16 -0.04    +0.109 A 
DOCKED: ATOM     13  C   UNL d   1      -5.924  23.355  -9.748 -0.06 -0.00    +0.193 A 
DOCKED: ATOM     14  C   UNL d   1       0.733  19.096  -8.901 -0.38 -0.01    +0.026 C 
DOCKED: ATOM     15  C   UNL d   1      -2.433  22.633  -9.322 -0.20 -0.02    +0.055 C 
DOCKED: ATOM     16  C   UNL d   1      -4.296  25.205  -9.645 -0.06 -0.00    +0.026 C 
DOCKED: ATOM     17  C   UNL d   1      -5.610  22.146 -10.567 -0.10 -0.00    +0.109 A 
DOCKED: ATOM     18  C   UNL d   1      -0.103  19.283 -11.973 -0.16 -0.01    +0.050 C 
DOCKED: ATOM     19  C   UNL d   1      -0.912  19.063 -13.116 -0.16 -0.02    +0.045 A 
DOCKED: ATOM     20  C   UNL d   1      -6.388  20.521 -12.210 -0.13 -0.00    +0.045 A 
DOCKED: ATOM     21  C   UNL d   1      -6.682  21.444 -11.288 -0.12 +0.00    +0.057 C 
DOCKED: ATOM     22  C   UNL d   1      -6.677  18.901 -13.795 -0.15 +0.00    -0.019 A 
DOCKED: ATOM     23  C   UNL d   1      -5.230  19.144 -13.621 -0.15 -0.01    +0.045 A 
DOCKED: ATOM     24  C   UNL d   1      -7.356  19.720 -12.958 -0.12 +0.00    -0.022 A 
DOCKED: ATOM     25  C   UNL d   1      -2.865  18.737 -14.211 -0.16 -0.02    +0.049 A 
DOCKED: ATOM     26  C   UNL d   1      -0.594  18.774 -14.434 -0.14 +0.01    -0.018 A 
DOCKED: ATOM     27  C   UNL d   1      -1.831  18.589 -15.125 -0.12 -0.00    +0.003 A 
DOCKED: ATOM     28  C   UNL d   1      -4.265  18.516 -14.310 -0.18 -0.02    +0.052 C 
DOCKED: ATOM     29  C   UNL d   1      -8.830  19.854 -12.777 -0.07 +0.00    +0.046 C 
DOCKED: ATOM     30  C   UNL d   1       0.775  18.678 -15.019 -0.11 -0.02    +0.046 C 
DOCKED: ATOM     31  H   UNL d   1      -4.308  20.579 -12.353 +0.04 -0.04    +0.166 HD
DOCKED: ATOM     32  H   UNL d   1      -2.777  19.229 -12.138 -0.03 -0.06    +0.166 HD
DOCKED: ENDROOT
DOCKED: BRANCH   7  33
DOCKED: ATOM     33  C   UNL d   1       1.926  20.913 -10.201 -0.13 -0.04    +0.141 C 
DOCKED: BRANCH  33  34
DOCKED: ATOM     34  C   UNL d   1       2.709  21.439  -9.029 -0.14 -0.08    +0.306 C 
DOCKED: ATOM     35  O   UNL d   1       3.492  20.805  -8.343 -0.25 +0.07    -0.251 OA
DOCKED: BRANCH  34  36
DOCKED: ATOM     36  O   UNL d   1       2.466  22.739  -8.784 -0.01 +0.11    -0.481 OA
DOCKED: ATOM     37  H   UNL d   1       1.619  22.743  -8.289 +0.10 -0.12    +0.295 HD
DOCKED: ENDBRANCH  34  36
DOCKED: ENDBRANCH  33  34
DOCKED: ENDBRANCH   7  33
DOCKED: BRANCH  27  38
DOCKED: ATOM     38  C   UNL d   1      -1.960  18.258 -16.513 -0.10 -0.02    +0.017 C 
DOCKED: ATOM     39  C   UNL d   1      -0.985  17.748 -17.281 -0.04 -0.10    +0.092 C 
DOCKED: BRANCH  39  40
DOCKED: ATOM     40  C   UNL d   1      -1.252  17.435 -18.687 -0.06 -0.26    +0.330 C 
DOCKED: ATOM     41  O   UNL d   1      -0.844  18.024 -19.670 -0.02 +0.10    -0.246 OA
DOCKED: BRANCH  40  42
DOCKED: ATOM     42  O   UNL d   1      -2.040  16.353 -18.778 -0.06 +0.51    -0.477 OA
DOCKED: ATOM     43  H   UNL d   1      -2.092  16.022 -17.858 -0.44 -0.66    +0.295 HD
DOCKED: ENDBRANCH  40  42
DOCKED: ENDBRANCH  39  40
DOCKED: ENDBRANCH  27  38
DOCKED: BRANCH   8  44
DOCKED: ATOM     44  C   UNL d   1      -4.789  23.841  -7.574 -0.04 -0.01    +0.141 C 
DOCKED: BRANCH  44  45
DOCKED: ATOM     45  C   UNL d   1      -5.854  24.787  -7.087 -0.07 -0.02    +0.306 C 
DOCKED: ATOM     46  O   UNL d   1      -5.710  25.968  -6.820 -0.03 +0.03    -0.251 OA
DOCKED: BRANCH  45  47
DOCKED: ATOM     47  O   UNL d   1      -7.047  24.185  -6.937 -0.02 -0.01    -0.481 OA
DOCKED: ATOM     48  H   UNL d   1      -7.467  24.242  -7.821 +0.04 +0.01    +0.295 HD
DOCKED: ENDBRANCH  45  47
DOCKED: ENDBRANCH  44  45
DOCKED: ENDBRANCH   8  44
DOCKED: BRANCH  22  49
DOCKED: ATOM     49  C   UNL d   1      -7.253  17.891 -14.743 -0.13 -0.01    +0.048 C 
DOCKED: BRANCH  49  50
DOCKED: ATOM     50  C   UNL d   1      -7.250  16.484 -14.147 -0.19 -0.01    +0.125 C 
DOCKED: BRANCH  50  51
DOCKED: ATOM     51  C   UNL d   1      -6.130  15.662 -14.719 -0.17 -0.10    +0.305 C 
DOCKED: ATOM     52  O   UNL d   1      -5.712  14.591 -14.314 -0.26 +0.08    -0.251 OA
DOCKED: BRANCH  51  53
DOCKED: ATOM     53  O   UNL d   1      -5.570  16.251 -15.794 -0.09 +0.32    -0.481 OA
DOCKED: ATOM     54  H   UNL d   1      -4.715  15.785 -15.903 -0.47 -0.45    +0.295 HD
DOCKED: ENDBRANCH  51  53
DOCKED: ENDBRANCH  50  51
DOCKED: ENDBRANCH  49  50
DOCKED: ENDBRANCH  22  49
DOCKED: TORSDOF 13
DOCKED: TER
DOCKED: ENDMDL
________________________________________________________________________________


	BEGINNING GENETIC ALGORITHM DOCKING 54 of 100
Run: 54 Seed: 293263753 619032338 [ Run 54 of 100 GA/GALS ]
Beginning LAMARCKIAN GENETIC ALGORITHM (LGA), with a maximum of 25000000 energy evaluations.

Final-Value: -14.292


	FINAL GENETIC ALGORITHM DOCKED STATE
	_______________________________________________


Detailed state:  trans 3.226 6.460 17.998 quatxyzw 0.197692 -0.186083 -0.950535 0.150909 center 0.153 0.018 -0.028 ntor 13 -147.7883 -116.1701 -175.3781 100.3729 -143.9949 -148.7754 145.8666 20.8623 177.6809 -2.8668 -77.1763 28.9134 16.7003
State:	  3.226   6.460  17.998   0.200 -0.188 -0.962 162.641   -147.79 -116.17 -175.38  100.37 -143.99 -148.78  145.87   20.86  177.68   -2.87  -77.18   28.91   16.70

DOCKED: MODEL       54
DOCKED: USER    Run = 54
DOCKED: USER    DPF = D:/Protein_go_brrr/autodock/final/mut_K82N/heme/dock.dpf
DOCKED: USER  
DOCKED: USER    Estimated Free Energy of Binding    =   -7.60 kcal/mol  [=(1)+(2)+(3)-(4)]
DOCKED: USER    Estimated Inhibition Constant, Ki   =    2.69 uM (micromolar)  [Temperature = 298.15 K]
DOCKED: USER    
DOCKED: USER    (1) Final Intermolecular Energy     =  -11.48 kcal/mol
DOCKED: USER        vdW + Hbond + desolv Energy     =  -10.45 kcal/mol
DOCKED: USER        Electrostatic Energy            =   -1.02 kcal/mol
DOCKED: USER    (2) Final Total Internal Energy     =   -2.82 kcal/mol
DOCKED: USER    (3) Torsional Free Energy           =   +3.88 kcal/mol
DOCKED: USER    (4) Unbound System's Energy  [=(2)] =   -2.82 kcal/mol
DOCKED: USER    
DOCKED: USER    
DOCKED: USER    NEWDPF move heme_opt.pdbqt
DOCKED: USER    NEWDPF about 0.153000 0.018000 -0.028000
DOCKED: USER    NEWDPF tran0 3.226370 6.460031 17.997771
DOCKED: USER    NEWDPF quaternion0 0.197692 -0.186083 -0.950535 0.150909
DOCKED: USER    NEWDPF axisangle0 0.199982 -0.188238 -0.961547 162.640787
DOCKED: USER    NEWDPF quat0 0.199982 -0.188238 -0.961547 162.640787
DOCKED: USER    NEWDPF dihe0 -147.79 -116.17 -175.38 100.37 -143.99 -148.78 145.87 20.86 177.68 -2.87 -77.18 28.91 16.70 
DOCKED: USER  keepresnum = 1 
DOCKED: USER  
DOCKED: REMARK  13 active torsions:
DOCKED: REMARK  status: ('A' for Active; 'I' for Inactive)
DOCKED: REMARK    1  A    between atoms: O_3  and  C_38 
DOCKED: REMARK    2  A    between atoms: O_4  and  C_40 
DOCKED: REMARK    3  A    between atoms: O_7  and  C_46 
DOCKED: REMARK    4  A    between atoms: O_9  and  C_48 
DOCKED: REMARK    5  A    between atoms: C_15  and  C_20 
DOCKED: REMARK    6  A    between atoms: C_16  and  C_23 
DOCKED: REMARK    7  A    between atoms: C_20  and  C_38 
DOCKED: REMARK    8  A    between atoms: C_23  and  C_40 
DOCKED: REMARK    9  A    between atoms: C_32  and  C_41 
DOCKED: REMARK   10  A    between atoms: C_37  and  C_45 
DOCKED: REMARK   11  A    between atoms: C_41  and  C_44 
DOCKED: REMARK   12  A    between atoms: C_44  and  C_46 
DOCKED: REMARK   13  A    between atoms: C_47  and  C_48 
DOCKED: USER                              x       y       z     vdW  Elec       q    Type
DOCKED: USER                           _______ _______ _______ _____ _____    ______ ____
DOCKED: ROOT
DOCKED: ATOM      1  O   UNL d   1       7.327   4.036  21.471 -0.69 -0.10    -0.289 OA
DOCKED: ATOM      2  O   UNL d   1       7.806   9.530  16.374 -0.16 +0.06    -0.289 OA
DOCKED: ATOM      3  N   UNL d   1       4.644   5.044  19.553 -0.21 +0.08    -0.247 NA
DOCKED: ATOM      4  N   UNL d   1       5.697   7.409  18.094 -0.17 +0.09    -0.247 NA
DOCKED: ATOM      5  N   UNL d   1       2.990   8.049  17.366 -0.11 +0.15    -0.354 N 
DOCKED: ATOM      6  N   UNL d   1       1.904   5.604  18.898 +0.08 +0.19    -0.354 N 
DOCKED: ATOM      7  C   UNL d   1       4.946   3.487  21.421 -0.24 -0.02    +0.084 A 
DOCKED: ATOM      8  C   UNL d   1       8.110   7.511  17.724 -0.17 -0.01    +0.084 A 
DOCKED: ATOM      9  C   UNL d   1       6.907   6.810  18.365 -0.23 -0.01    +0.058 A 
DOCKED: ATOM     10  C   UNL d   1       4.014   4.152  20.404 -0.25 -0.02    +0.058 A 
DOCKED: ATOM     11  C   UNL d   1       6.218   4.147  20.981 -0.22 +0.01    +0.193 A 
DOCKED: ATOM     12  C   UNL d   1       5.908   5.047  19.826 -0.25 -0.01    +0.109 A 
DOCKED: ATOM     13  C   UNL d   1       7.362   8.639  17.071 -0.13 -0.05    +0.193 A 
DOCKED: ATOM     14  C   UNL d   1       4.634   3.920  22.856 -0.10 -0.00    +0.026 C 
DOCKED: ATOM     15  C   UNL d   1       7.031   5.738  19.161 -0.12 -0.00    +0.055 C 
DOCKED: ATOM     16  C   UNL d   1       8.753   6.650  16.633 -0.32 -0.00    +0.026 C 
DOCKED: ATOM     17  C   UNL d   1       5.910   8.466  17.378 -0.09 -0.04    +0.109 A 
DOCKED: ATOM     18  C   UNL d   1       2.715   3.810  20.312 -0.27 -0.03    +0.050 C 
DOCKED: ATOM     19  C   UNL d   1       1.799   4.308  19.351 -0.22 -0.02    +0.045 A 
DOCKED: ATOM     20  C   UNL d   1       3.622   9.193  16.952 -0.22 -0.02    +0.045 A 
DOCKED: ATOM     21  C   UNL d   1       4.932   9.455  16.901 -0.25 -0.02    +0.057 C 
DOCKED: ATOM     22  C   UNL d   1       1.365   9.483  16.752 -0.14 +0.01    -0.019 A 
DOCKED: ATOM     23  C   UNL d   1       1.625   8.129  17.282 -0.19 -0.02    +0.045 A 
DOCKED: ATOM     24  C   UNL d   1       2.551  10.107  16.558 -0.14 +0.01    -0.022 A 
DOCKED: ATOM     25  C   UNL d   1       0.867   5.903  18.045 +0.01 -0.02    +0.049 A 
DOCKED: ATOM     26  C   UNL d   1       0.688   3.740  18.749 -0.29 +0.01    -0.018 A 
DOCKED: ATOM     27  C   UNL d   1       0.114   4.745  17.910 -0.27 -0.00    +0.003 A 
DOCKED: ATOM     28  C   UNL d   1       0.673   7.229  17.571 -0.20 -0.02    +0.052 C 
DOCKED: ATOM     29  C   UNL d   1       2.808  11.477  16.029 -0.12 -0.02    +0.046 C 
DOCKED: ATOM     30  C   UNL d   1       0.187   2.348  18.937 -0.28 -0.02    +0.046 C 
DOCKED: ATOM     31  H   UNL d   1       3.516   7.221  17.624 -0.23 -0.09    +0.166 HD
DOCKED: ATOM     32  H   UNL d   1       2.630   6.245  19.197 -0.06 -0.07    +0.166 HD
DOCKED: ENDROOT
DOCKED: BRANCH   7  33
DOCKED: ATOM     33  C   UNL d   1       5.063   1.963  21.307 -0.29 -0.05    +0.141 C 
DOCKED: BRANCH  33  34
DOCKED: ATOM     34  C   UNL d   1       4.972   1.273  22.641 -0.14 -0.09    +0.306 C 
DOCKED: ATOM     35  O   UNL d   1       5.904   1.013  23.383 -0.17 -0.00    -0.251 OA
DOCKED: BRANCH  34  36
DOCKED: ATOM     36  O   UNL d   1       3.709   0.949  22.972 -0.04 +0.35    -0.481 OA
DOCKED: ATOM     37  H   UNL d   1       3.259   0.800  22.113 -0.33 -0.61    +0.295 HD
DOCKED: ENDBRANCH  34  36
DOCKED: ENDBRANCH  33  34
DOCKED: ENDBRANCH   7  33
DOCKED: BRANCH  27  38
DOCKED: ATOM     38  C   UNL d   1      -1.064   4.582  17.113 -0.33 -0.01    +0.017 C 
DOCKED: ATOM     39  C   UNL d   1      -1.101   4.603  15.772 -0.44 -0.03    +0.092 C 
DOCKED: BRANCH  39  40
DOCKED: ATOM     40  C   UNL d   1      -2.374   4.405  15.074 -0.31 -0.10    +0.330 C 
DOCKED: ATOM     41  O   UNL d   1      -2.550   3.922  13.972 -1.01 +0.01    -0.246 OA
DOCKED: BRANCH  40  42
DOCKED: ATOM     42  O   UNL d   1      -3.391   4.835  15.837 -0.12 +0.16    -0.477 OA
DOCKED: ATOM     43  H   UNL d   1      -3.227   5.797  15.926 +0.14 -0.12    +0.295 HD
DOCKED: ENDBRANCH  40  42
DOCKED: ENDBRANCH  39  40
DOCKED: ENDBRANCH  27  38
DOCKED: BRANCH   8  44
DOCKED: ATOM     44  C   UNL d   1       9.162   8.043  18.702 -0.06 -0.00    +0.141 C 
DOCKED: BRANCH  44  45
DOCKED: ATOM     45  C   UNL d   1       8.582   8.922  19.778 +0.00 -0.00    +0.306 C 
DOCKED: ATOM     46  O   UNL d   1       8.354   8.604  20.933 -0.01 -0.01    -0.251 OA
DOCKED: BRANCH  45  47
DOCKED: ATOM     47  O   UNL d   1       8.292  10.158  19.333 +0.01 +0.02    -0.481 OA
DOCKED: ATOM     48  H   UNL d   1       8.491  10.129  18.373 +0.04 -0.02    +0.295 HD
DOCKED: ENDBRANCH  45  47
DOCKED: ENDBRANCH  44  45
DOCKED: ENDBRANCH   8  44
DOCKED: BRANCH  22  49
DOCKED: ATOM     49  C   UNL d   1      -0.006  10.040  16.502 -0.13 -0.03    +0.048 C 
DOCKED: BRANCH  49  50
DOCKED: ATOM     50  C   UNL d   1      -0.721   9.303  15.370 -0.15 -0.14    +0.125 C 
DOCKED: BRANCH  50  51
DOCKED: ATOM     51  C   UNL d   1      -1.759   8.362  15.915 -0.12 -0.28    +0.305 C 
DOCKED: ATOM     52  O   UNL d   1      -2.217   8.334  17.043 -0.06 +0.15    -0.251 OA
DOCKED: BRANCH  51  53
DOCKED: ATOM     53  O   UNL d   1      -2.169   7.474  14.988 -0.47 +0.49    -0.481 OA
DOCKED: ATOM     54  H   UNL d   1      -2.815   7.974  14.448 -0.20 -0.68    +0.295 HD
DOCKED: ENDBRANCH  51  53
DOCKED: ENDBRANCH  50  51
DOCKED: ENDBRANCH  49  50
DOCKED: ENDBRANCH  22  49
DOCKED: TORSDOF 13
DOCKED: TER
DOCKED: ENDMDL
________________________________________________________________________________


	BEGINNING GENETIC ALGORITHM DOCKING 55 of 100
Run: 55 Seed: 1548749152 560044808 [ Run 55 of 100 GA/GALS ]
Beginning LAMARCKIAN GENETIC ALGORITHM (LGA), with a maximum of 25000000 energy evaluations.

Final-Value: -11.251


	FINAL GENETIC ALGORITHM DOCKED STATE
	_______________________________________________


Detailed state:  trans 6.754 -14.863 -4.967 quatxyzw -0.458206 -0.349611 0.811474 0.096586 center 0.153 0.018 -0.028 ntor 13 126.2522 -126.8471 -101.4526 -27.8818 -133.2686 -13.3321 -179.1235 -155.7028 25.9345 16.1122 -68.7584 -44.3519 -13.6200
State:	  6.754 -14.863  -4.967  -0.460 -0.351  0.815 168.915    126.25 -126.85 -101.45  -27.88 -133.27  -13.33 -179.12 -155.70   25.93   16.11  -68.76  -44.35  -13.62

DOCKED: MODEL       55
DOCKED: USER    Run = 55
DOCKED: USER    DPF = D:/Protein_go_brrr/autodock/final/mut_K82N/heme/dock.dpf
DOCKED: USER  
DOCKED: USER    Estimated Free Energy of Binding    =   -2.95 kcal/mol  [=(1)+(2)+(3)-(4)]
DOCKED: USER    Estimated Inhibition Constant, Ki   =    6.90 mM (millimolar)  [Temperature = 298.15 K]
DOCKED: USER    
DOCKED: USER    (1) Final Intermolecular Energy     =   -6.83 kcal/mol
DOCKED: USER        vdW + Hbond + desolv Energy     =   -6.66 kcal/mol
DOCKED: USER        Electrostatic Energy            =   -0.16 kcal/mol
DOCKED: USER    (2) Final Total Internal Energy     =   -4.42 kcal/mol
DOCKED: USER    (3) Torsional Free Energy           =   +3.88 kcal/mol
DOCKED: USER    (4) Unbound System's Energy  [=(2)] =   -4.42 kcal/mol
DOCKED: USER    
DOCKED: USER    
DOCKED: USER    NEWDPF move heme_opt.pdbqt
DOCKED: USER    NEWDPF about 0.153000 0.018000 -0.028000
DOCKED: USER    NEWDPF tran0 6.753792 -14.862769 -4.966770
DOCKED: USER    NEWDPF quaternion0 -0.458206 -0.349611 0.811474 0.096586
DOCKED: USER    NEWDPF axisangle0 -0.460359 -0.351253 0.815286 168.914774
DOCKED: USER    NEWDPF quat0 -0.460359 -0.351253 0.815286 168.914774
DOCKED: USER    NEWDPF dihe0 126.25 -126.85 -101.45 -27.88 -133.27 -13.33 -179.12 -155.70 25.93 16.11 -68.76 -44.35 -13.62 
DOCKED: USER  keepresnum = 1 
DOCKED: USER  
DOCKED: REMARK  13 active torsions:
DOCKED: REMARK  status: ('A' for Active; 'I' for Inactive)
DOCKED: REMARK    1  A    between atoms: O_3  and  C_38 
DOCKED: REMARK    2  A    between atoms: O_4  and  C_40 
DOCKED: REMARK    3  A    between atoms: O_7  and  C_46 
DOCKED: REMARK    4  A    between atoms: O_9  and  C_48 
DOCKED: REMARK    5  A    between atoms: C_15  and  C_20 
DOCKED: REMARK    6  A    between atoms: C_16  and  C_23 
DOCKED: REMARK    7  A    between atoms: C_20  and  C_38 
DOCKED: REMARK    8  A    between atoms: C_23  and  C_40 
DOCKED: REMARK    9  A    between atoms: C_32  and  C_41 
DOCKED: REMARK   10  A    between atoms: C_37  and  C_45 
DOCKED: REMARK   11  A    between atoms: C_41  and  C_44 
DOCKED: REMARK   12  A    between atoms: C_44  and  C_46 
DOCKED: REMARK   13  A    between atoms: C_47  and  C_48 
DOCKED: USER                              x       y       z     vdW  Elec       q    Type
DOCKED: USER                           _______ _______ _______ _____ _____    ______ ____
DOCKED: ROOT
DOCKED: ATOM      1  O   UNL d   1      10.272 -17.451  -1.007 -0.05 -0.02    -0.289 OA
DOCKED: ATOM      2  O   UNL d   1       7.001 -10.691  -1.021 -0.32 -0.02    -0.289 OA
DOCKED: ATOM      3  N   UNL d   1       8.376 -16.298  -3.648 -0.03 -0.04    -0.247 NA
DOCKED: ATOM      4  N   UNL d   1       7.280 -13.730  -2.632 -0.09 -0.05    -0.247 NA
DOCKED: ATOM      5  N   UNL d   1       5.444 -13.746  -4.844 -0.10 -0.26    -0.354 N 
DOCKED: ATOM      6  N   UNL d   1       6.574 -16.420  -5.880 -0.00 -0.12    -0.354 N 
DOCKED: ATOM      7  C   UNL d   1       9.456 -18.428  -3.093 -0.06 +0.01    +0.084 A 
DOCKED: ATOM      8  C   UNL d   1       8.562 -12.573  -0.903 -0.14 +0.01    +0.084 A 
DOCKED: ATOM      9  C   UNL d   1       8.368 -13.806  -1.792 -0.11 +0.01    +0.058 A 
DOCKED: ATOM     10  C   UNL d   1       8.606 -17.599  -4.062 -0.05 +0.01    +0.058 A 
DOCKED: ATOM     11  C   UNL d   1       9.681 -17.358  -2.067 -0.05 +0.02    +0.193 A 
DOCKED: ATOM     12  C   UNL d   1       8.999 -16.108  -2.530 -0.06 +0.01    +0.109 A 
DOCKED: ATOM     13  C   UNL d   1       7.360 -11.799  -1.367 -0.22 +0.03    +0.193 A 
DOCKED: ATOM     14  C   UNL d   1       8.655 -19.566  -2.456 -0.11 +0.00    +0.026 C 
DOCKED: ATOM     15  C   UNL d   1       9.162 -14.885  -1.718 -0.10 +0.01    +0.055 C 
DOCKED: ATOM     16  C   UNL d   1       9.825 -11.794  -1.280 -0.11 +0.00    +0.026 C 
DOCKED: ATOM     17  C   UNL d   1       6.664 -12.613  -2.410 -0.24 +0.03    +0.109 A 
DOCKED: ATOM     18  C   UNL d   1       8.209 -18.094  -5.249 -0.03 +0.01    +0.050 C 
DOCKED: ATOM     19  C   UNL d   1       7.495 -17.377  -6.242 -0.01 +0.01    +0.045 A 
DOCKED: ATOM     20  C   UNL d   1       4.923 -12.710  -4.113 -0.31 +0.03    +0.045 A 
DOCKED: ATOM     21  C   UNL d   1       5.420 -12.123  -3.020 -0.43 +0.03    +0.057 C 
DOCKED: ATOM     22  C   UNL d   1       3.513 -13.169  -5.851 -0.23 -0.02    -0.019 A 
DOCKED: ATOM     23  C   UNL d   1       4.662 -14.094  -5.914 -0.14 +0.04    +0.045 A 
DOCKED: ATOM     24  C   UNL d   1       3.674 -12.351  -4.784 -0.38 -0.02    -0.022 A 
DOCKED: ATOM     25  C   UNL d   1       5.937 -15.917  -6.991 -0.02 +0.02    +0.049 A 
DOCKED: ATOM     26  C   UNL d   1       7.483 -17.473  -7.625 +0.00 -0.00    -0.018 A 
DOCKED: ATOM     27  C   UNL d   1       6.511 -16.535  -8.094 +0.01 +0.00    +0.003 A 
DOCKED: ATOM     28  C   UNL d   1       4.836 -15.029  -6.861 -0.09 +0.03    +0.052 C 
DOCKED: ATOM     29  C   UNL d   1       2.789 -11.248  -4.313 -0.12 +0.02    +0.046 C 
DOCKED: ATOM     30  C   UNL d   1       8.322 -18.377  -8.462 +0.00 +0.00    +0.046 C 
DOCKED: ATOM     31  H   UNL d   1       6.356 -14.133  -4.631 +0.05 +0.08    +0.166 HD
DOCKED: ATOM     32  H   UNL d   1       6.379 -16.165  -4.919 +0.03 +0.08    +0.166 HD
DOCKED: ENDROOT
DOCKED: BRANCH   7  33
DOCKED: ATOM     33  C   UNL d   1      10.793 -18.926  -3.653 -0.01 +0.00    +0.141 C 
DOCKED: BRANCH  33  34
DOCKED: ATOM     34  C   UNL d   1      11.814 -17.828  -3.777 +0.00 +0.01    +0.306 C 
DOCKED: ATOM     35  O   UNL d   1      11.872 -16.995  -4.666 -0.00 -0.00    -0.251 OA
DOCKED: BRANCH  34  36
DOCKED: ATOM     36  O   UNL d   1      12.707 -17.834  -2.772 +0.00 -0.01    -0.481 OA
DOCKED: ATOM     37  H   UNL d   1      12.163 -17.772  -1.958 +0.01 +0.01    +0.295 HD
DOCKED: ENDBRANCH  34  36
DOCKED: ENDBRANCH  33  34
DOCKED: ENDBRANCH   7  33
DOCKED: BRANCH  27  38
DOCKED: ATOM     38  C   UNL d   1       6.168 -16.319  -9.467 +0.01 +0.00    +0.017 C 
DOCKED: ATOM     39  C   UNL d   1       5.159 -15.549  -9.901 -0.00 +0.01    +0.092 C 
DOCKED: BRANCH  39  40
DOCKED: ATOM     40  C   UNL d   1       4.923 -15.397 -11.339 +0.01 +0.01    +0.330 C 
DOCKED: ATOM     41  O   UNL d   1       5.678 -15.678 -12.251 -0.00 +0.00    -0.246 OA
DOCKED: BRANCH  40  42
DOCKED: ATOM     42  O   UNL d   1       3.700 -14.890 -11.555 -0.01 -0.02    -0.477 OA
DOCKED: ATOM     43  H   UNL d   1       3.680 -14.082 -11.003 +0.08 +0.01    +0.295 HD
DOCKED: ENDBRANCH  40  42
DOCKED: ENDBRANCH  39  40
DOCKED: ENDBRANCH  27  38
DOCKED: BRANCH   8  44
DOCKED: ATOM     44  C   UNL d   1       8.499 -12.831   0.607 -0.27 +0.03    +0.141 C 
DOCKED: BRANCH  44  45
DOCKED: ATOM     45  C   UNL d   1       7.537 -13.926   0.983 -0.26 +0.11    +0.306 C 
DOCKED: ATOM     46  O   UNL d   1       7.728 -14.814   1.795 -0.63 -0.09    -0.251 OA
DOCKED: BRANCH  45  47
DOCKED: ATOM     47  O   UNL d   1       6.385 -13.860   0.290 -0.63 -0.23    -0.481 OA
DOCKED: ATOM     48  H   UNL d   1       6.605 -14.229  -0.592 +0.03 +0.08    +0.295 HD
DOCKED: ENDBRANCH  45  47
DOCKED: ENDBRANCH  44  45
DOCKED: ENDBRANCH   8  44
DOCKED: BRANCH  22  49
DOCKED: ATOM     49  C   UNL d   1       2.369 -13.180  -6.822 -0.31 +0.03    +0.048 C 
DOCKED: BRANCH  49  50
DOCKED: ATOM     50  C   UNL d   1       2.550 -12.139  -7.926 -0.36 +0.03    +0.125 C 
DOCKED: BRANCH  50  51
DOCKED: ATOM     51  C   UNL d   1       2.780 -12.801  -9.255 -0.15 +0.06    +0.305 C 
DOCKED: ATOM     52  O   UNL d   1       3.251 -12.302 -10.262 -0.20 -0.01    -0.251 OA
DOCKED: BRANCH  51  53
DOCKED: ATOM     53  O   UNL d   1       2.382 -14.089  -9.252 -0.55 -0.17    -0.481 OA
DOCKED: ATOM     54  H   UNL d   1       2.138 -14.264 -10.185 +0.08 +0.06    +0.295 HD
DOCKED: ENDBRANCH  51  53
DOCKED: ENDBRANCH  50  51
DOCKED: ENDBRANCH  49  50
DOCKED: ENDBRANCH  22  49
DOCKED: TORSDOF 13
DOCKED: TER
DOCKED: ENDMDL
________________________________________________________________________________


	BEGINNING GENETIC ALGORITHM DOCKING 56 of 100
Run: 56 Seed: 790457216 1669686079 [ Run 56 of 100 GA/GALS ]
Beginning LAMARCKIAN GENETIC ALGORITHM (LGA), with a maximum of 25000000 energy evaluations.

Final-Value: -10.433


	FINAL GENETIC ALGORITHM DOCKED STATE
	_______________________________________________


Detailed state:  trans -8.420 -12.078 8.628 quatxyzw -0.122683 -0.024055 -0.670860 0.730970 center 0.153 0.018 -0.028 ntor 13 127.5712 -180.0000 -162.4884 14.2045 -133.4284 36.3626 137.3762 -63.3067 24.6144 -48.6247 113.3383 -32.0669 42.3372
State:	 -8.420 -12.078   8.628  -0.180 -0.035 -0.983 86.065    127.57 -180.00 -162.49   14.20 -133.43   36.36  137.38  -63.31   24.61  -48.62  113.34  -32.07   42.34

DOCKED: MODEL       56
DOCKED: USER    Run = 56
DOCKED: USER    DPF = D:/Protein_go_brrr/autodock/final/mut_K82N/heme/dock.dpf
DOCKED: USER  
DOCKED: USER    Estimated Free Energy of Binding    =   -3.26 kcal/mol  [=(1)+(2)+(3)-(4)]
DOCKED: USER    Estimated Inhibition Constant, Ki   =    4.10 mM (millimolar)  [Temperature = 298.15 K]
DOCKED: USER    
DOCKED: USER    (1) Final Intermolecular Energy     =   -7.13 kcal/mol
DOCKED: USER        vdW + Hbond + desolv Energy     =   -6.53 kcal/mol
DOCKED: USER        Electrostatic Energy            =   -0.61 kcal/mol
DOCKED: USER    (2) Final Total Internal Energy     =   -3.30 kcal/mol
DOCKED: USER    (3) Torsional Free Energy           =   +3.88 kcal/mol
DOCKED: USER    (4) Unbound System's Energy  [=(2)] =   -3.30 kcal/mol
DOCKED: USER    
DOCKED: USER    
DOCKED: USER    NEWDPF move heme_opt.pdbqt
DOCKED: USER    NEWDPF about 0.153000 0.018000 -0.028000
DOCKED: USER    NEWDPF tran0 -8.420440 -12.078305 8.627884
DOCKED: USER    NEWDPF quaternion0 -0.122683 -0.024055 -0.670860 0.730970
DOCKED: USER    NEWDPF axisangle0 -0.179778 -0.035250 -0.983075 86.064517
DOCKED: USER    NEWDPF quat0 -0.179778 -0.035250 -0.983075 86.064517
DOCKED: USER    NEWDPF dihe0 127.57 -180.00 -162.49 14.20 -133.43 36.36 137.38 -63.31 24.61 -48.62 113.34 -32.07 42.34 
DOCKED: USER  keepresnum = 1 
DOCKED: USER  
DOCKED: REMARK  13 active torsions:
DOCKED: REMARK  status: ('A' for Active; 'I' for Inactive)
DOCKED: REMARK    1  A    between atoms: O_3  and  C_38 
DOCKED: REMARK    2  A    between atoms: O_4  and  C_40 
DOCKED: REMARK    3  A    between atoms: O_7  and  C_46 
DOCKED: REMARK    4  A    between atoms: O_9  and  C_48 
DOCKED: REMARK    5  A    between atoms: C_15  and  C_20 
DOCKED: REMARK    6  A    between atoms: C_16  and  C_23 
DOCKED: REMARK    7  A    between atoms: C_20  and  C_38 
DOCKED: REMARK    8  A    between atoms: C_23  and  C_40 
DOCKED: REMARK    9  A    between atoms: C_32  and  C_41 
DOCKED: REMARK   10  A    between atoms: C_37  and  C_45 
DOCKED: REMARK   11  A    between atoms: C_41  and  C_44 
DOCKED: REMARK   12  A    between atoms: C_44  and  C_46 
DOCKED: REMARK   13  A    between atoms: C_47  and  C_48 
DOCKED: USER                              x       y       z     vdW  Elec       q    Type
DOCKED: USER                           _______ _______ _______ _____ _____    ______ ____
DOCKED: ROOT
DOCKED: ATOM      1  O   UNL d   1     -10.492 -17.592   8.887 -0.00 +0.02    -0.289 OA
DOCKED: ATOM      2  O   UNL d   1      -4.274 -14.806   5.729 -0.36 +0.04    -0.289 OA
DOCKED: ATOM      3  N   UNL d   1      -9.752 -14.223   8.873 -0.01 +0.03    -0.247 NA
DOCKED: ATOM      4  N   UNL d   1      -7.022 -14.128   7.703 -0.10 +0.05    -0.247 NA
DOCKED: ATOM      5  N   UNL d   1      -6.832 -11.404   8.603 -0.13 +0.05    -0.354 N 
DOCKED: ATOM      6  N   UNL d   1      -9.657 -11.517   9.831 -0.01 +0.03    -0.354 N 
DOCKED: ATOM      7  C   UNL d   1     -11.493 -15.607   9.903 -0.00 -0.01    +0.084 A 
DOCKED: ATOM      8  C   UNL d   1      -6.380 -15.956   6.214 -0.13 -0.02    +0.084 A 
DOCKED: ATOM      9  C   UNL d   1      -7.400 -15.344   7.179 -0.09 -0.01    +0.058 A 
DOCKED: ATOM     10  C   UNL d   1     -10.876 -14.223   9.682 -0.01 -0.01    +0.058 A 
DOCKED: ATOM     11  C   UNL d   1     -10.530 -16.387   9.060 -0.00 -0.02    +0.193 A 
DOCKED: ATOM     12  C   UNL d   1      -9.538 -15.433   8.470 -0.02 -0.01    +0.109 A 
DOCKED: ATOM     13  C   UNL d   1      -5.336 -14.880   6.316 -0.21 -0.04    +0.193 A 
DOCKED: ATOM     14  C   UNL d   1     -11.365 -16.068  11.357 +0.00 -0.00    +0.026 C 
DOCKED: ATOM     15  C   UNL d   1      -8.539 -15.966   7.522 -0.05 -0.01    +0.055 C 
DOCKED: ATOM     16  C   UNL d   1      -6.909 -15.994   4.778 -0.25 -0.01    +0.026 C 
DOCKED: ATOM     17  C   UNL d   1      -5.844 -13.834   7.255 -0.21 -0.02    +0.109 A 
DOCKED: ATOM     18  C   UNL d   1     -11.453 -13.109  10.171 -0.01 -0.00    +0.050 C 
DOCKED: ATOM     19  C   UNL d   1     -11.002 -11.783   9.948 -0.02 -0.00    +0.045 A 
DOCKED: ATOM     20  C   UNL d   1      -5.533 -11.616   8.218 -0.23 -0.01    +0.045 A 
DOCKED: ATOM     21  C   UNL d   1      -5.009 -12.670   7.585 -0.10 -0.02    +0.057 C 
DOCKED: ATOM     22  C   UNL d   1      -5.675  -9.582   9.249 -0.36 +0.00    -0.019 A 
DOCKED: ATOM     23  C   UNL d   1      -7.015 -10.203   9.234 -0.23 -0.01    +0.045 A 
DOCKED: ATOM     24  C   UNL d   1      -4.802 -10.424   8.645 -0.38 +0.01    -0.022 A 
DOCKED: ATOM     25  C   UNL d   1      -9.440 -10.164   9.711 -0.06 -0.01    +0.049 A 
DOCKED: ATOM     26  C   UNL d   1     -11.680 -10.577   9.866 -0.02 +0.00    -0.018 A 
DOCKED: ATOM     27  C   UNL d   1     -10.690  -9.560   9.696 -0.04 -0.00    +0.003 A 
DOCKED: ATOM     28  C   UNL d   1      -8.122  -9.632   9.733 -0.15 -0.01    +0.052 C 
DOCKED: ATOM     29  C   UNL d   1      -3.342 -10.239   8.406 -0.44 -0.02    +0.046 C 
DOCKED: ATOM     30  C   UNL d   1     -13.156 -10.378   9.937 -0.01 -0.00    +0.046 C 
DOCKED: ATOM     31  H   UNL d   1      -7.567 -12.057   8.355 +0.04 -0.02    +0.166 HD
DOCKED: ATOM     32  H   UNL d   1      -8.939 -12.231   9.872 +0.02 -0.02    +0.166 HD
DOCKED: ENDROOT
DOCKED: BRANCH   7  33
DOCKED: ATOM     33  C   UNL d   1     -12.924 -15.779   9.382 -0.00 -0.01    +0.141 C 
DOCKED: BRANCH  33  34
DOCKED: ATOM     34  C   UNL d   1     -12.991 -15.841   7.880 +0.00 -0.02    +0.306 C 
DOCKED: ATOM     35  O   UNL d   1     -12.942 -14.891   7.117 -0.01 +0.02    -0.251 OA
DOCKED: BRANCH  34  36
DOCKED: ATOM     36  O   UNL d   1     -13.112 -17.098   7.418 +0.00 +0.04    -0.481 OA
DOCKED: ATOM     37  H   UNL d   1     -12.355 -17.580   7.813 +0.00 -0.02    +0.295 HD
DOCKED: ENDBRANCH  34  36
DOCKED: ENDBRANCH  33  34
DOCKED: ENDBRANCH   7  33
DOCKED: BRANCH  27  38
DOCKED: ATOM     38  C   UNL d   1     -10.958  -8.158   9.582 -0.03 -0.00    +0.017 C 
DOCKED: ATOM     39  C   UNL d   1     -10.039  -7.211   9.336 -0.06 -0.01    +0.092 C 
DOCKED: BRANCH  39  40
DOCKED: ATOM     40  C   UNL d   1     -10.448  -5.809   9.226 -0.01 -0.05    +0.330 C 
DOCKED: ATOM     41  O   UNL d   1     -11.334  -5.242   9.837 -0.01 +0.03    -0.246 OA
DOCKED: BRANCH  40  42
DOCKED: ATOM     42  O   UNL d   1      -9.682  -5.174   8.324 -0.02 +0.08    -0.477 OA
DOCKED: ATOM     43  H   UNL d   1      -9.066  -5.868   8.010 +0.13 -0.06    +0.295 HD
DOCKED: ENDBRANCH  40  42
DOCKED: ENDBRANCH  39  40
DOCKED: ENDBRANCH  27  38
DOCKED: BRANCH   8  44
DOCKED: ATOM     44  C   UNL d   1      -5.809 -17.316   6.631 -0.08 -0.03    +0.141 C 
DOCKED: BRANCH  44  45
DOCKED: ATOM     45  C   UNL d   1      -4.463 -17.216   7.299 -0.09 +0.02    +0.306 C 
DOCKED: ATOM     46  O   UNL d   1      -4.250 -17.139   8.497 -0.08 -0.05    -0.251 OA
DOCKED: BRANCH  45  47
DOCKED: ATOM     47  O   UNL d   1      -3.450 -17.189   6.414 -0.64 -0.23    -0.481 OA
DOCKED: ATOM     48  H   UNL d   1      -3.875 -16.971   5.558 -0.29 -0.21    +0.295 HD
DOCKED: ENDBRANCH  45  47
DOCKED: ENDBRANCH  44  45
DOCKED: ENDBRANCH   8  44
DOCKED: BRANCH  22  49
DOCKED: ATOM     49  C   UNL d   1      -5.372  -8.246   9.859 -0.44 -0.01    +0.048 C 
DOCKED: BRANCH  49  50
DOCKED: ATOM     50  C   UNL d   1      -6.464  -7.221   9.555 -0.33 -0.02    +0.125 C 
DOCKED: BRANCH  50  51
DOCKED: ATOM     51  C   UNL d   1      -6.518  -6.913   8.086 -0.32 -0.06    +0.305 C 
DOCKED: ATOM     52  O   UNL d   1      -5.694  -6.306   7.424 -0.28 +0.05    -0.251 OA
DOCKED: BRANCH  51  53
DOCKED: ATOM     53  O   UNL d   1      -7.641  -7.387   7.511 -0.17 +0.13    -0.481 OA
DOCKED: ATOM     54  H   UNL d   1      -7.459  -7.331   6.550 -0.26 -0.16    +0.295 HD
DOCKED: ENDBRANCH  51  53
DOCKED: ENDBRANCH  50  51
DOCKED: ENDBRANCH  49  50
DOCKED: ENDBRANCH  22  49
DOCKED: TORSDOF 13
DOCKED: TER
DOCKED: ENDMDL
________________________________________________________________________________


	BEGINNING GENETIC ALGORITHM DOCKING 57 of 100
Run: 57 Seed: 1327483392 830017733 [ Run 57 of 100 GA/GALS ]
Beginning LAMARCKIAN GENETIC ALGORITHM (LGA), with a maximum of 25000000 energy evaluations.

Final-Value: -14.057


	FINAL GENETIC ALGORITHM DOCKED STATE
	_______________________________________________


Detailed state:  trans 1.070 5.042 18.865 quatxyzw -0.799074 0.479654 -0.321451 0.167578 center 0.153 0.018 -0.028 ntor 13 101.2838 -146.5931 -153.4223 -114.0975 -134.1923 105.7532 135.5186 95.6114 41.0022 -22.4543 -47.7266 -179.5982 -6.1663
State:	  1.070   5.042  18.865  -0.811  0.487 -0.326 160.706    101.28 -146.59 -153.42 -114.10 -134.19  105.75  135.52   95.61   41.00  -22.45  -47.73 -179.60   -6.17

DOCKED: MODEL       57
DOCKED: USER    Run = 57
DOCKED: USER    DPF = D:/Protein_go_brrr/autodock/final/mut_K82N/heme/dock.dpf
DOCKED: USER  
DOCKED: USER    Estimated Free Energy of Binding    =   -7.62 kcal/mol  [=(1)+(2)+(3)-(4)]
DOCKED: USER    Estimated Inhibition Constant, Ki   =    2.59 uM (micromolar)  [Temperature = 298.15 K]
DOCKED: USER    
DOCKED: USER    (1) Final Intermolecular Energy     =  -11.50 kcal/mol
DOCKED: USER        vdW + Hbond + desolv Energy     =  -10.87 kcal/mol
DOCKED: USER        Electrostatic Energy            =   -0.63 kcal/mol
DOCKED: USER    (2) Final Total Internal Energy     =   -2.56 kcal/mol
DOCKED: USER    (3) Torsional Free Energy           =   +3.88 kcal/mol
DOCKED: USER    (4) Unbound System's Energy  [=(2)] =   -2.56 kcal/mol
DOCKED: USER    
DOCKED: USER    
DOCKED: USER    NEWDPF move heme_opt.pdbqt
DOCKED: USER    NEWDPF about 0.153000 0.018000 -0.028000
DOCKED: USER    NEWDPF tran0 1.070290 5.042018 18.865194
DOCKED: USER    NEWDPF quaternion0 -0.799074 0.479654 -0.321451 0.167578
DOCKED: USER    NEWDPF axisangle0 -0.810535 0.486534 -0.326062 160.705966
DOCKED: USER    NEWDPF quat0 -0.810535 0.486534 -0.326062 160.705966
DOCKED: USER    NEWDPF dihe0 101.28 -146.59 -153.42 -114.10 -134.19 105.75 135.52 95.61 41.00 -22.45 -47.73 -179.60 -6.17 
DOCKED: USER  keepresnum = 1 
DOCKED: USER  
DOCKED: REMARK  13 active torsions:
DOCKED: REMARK  status: ('A' for Active; 'I' for Inactive)
DOCKED: REMARK    1  A    between atoms: O_3  and  C_38 
DOCKED: REMARK    2  A    between atoms: O_4  and  C_40 
DOCKED: REMARK    3  A    between atoms: O_7  and  C_46 
DOCKED: REMARK    4  A    between atoms: O_9  and  C_48 
DOCKED: REMARK    5  A    between atoms: C_15  and  C_20 
DOCKED: REMARK    6  A    between atoms: C_16  and  C_23 
DOCKED: REMARK    7  A    between atoms: C_20  and  C_38 
DOCKED: REMARK    8  A    between atoms: C_23  and  C_40 
DOCKED: REMARK    9  A    between atoms: C_32  and  C_41 
DOCKED: REMARK   10  A    between atoms: C_37  and  C_45 
DOCKED: REMARK   11  A    between atoms: C_41  and  C_44 
DOCKED: REMARK   12  A    between atoms: C_44  and  C_46 
DOCKED: REMARK   13  A    between atoms: C_47  and  C_48 
DOCKED: USER                              x       y       z     vdW  Elec       q    Type
DOCKED: USER                           _______ _______ _______ _____ _____    ______ ____
DOCKED: ROOT
DOCKED: ATOM      1  O   UNL d   1      -2.047   7.548  14.534 -0.50 +0.34    -0.289 OA
DOCKED: ATOM      2  O   UNL d   1       3.864  10.046  18.434 -0.02 +0.06    -0.289 OA
DOCKED: ATOM      3  N   UNL d   1      -0.616   5.756  17.110 -0.15 +0.09    -0.247 NA
DOCKED: ATOM      4  N   UNL d   1       1.779   7.367  17.815 -0.09 +0.11    -0.247 NA
DOCKED: ATOM      5  N   UNL d   1       2.729   5.120  19.336 -0.01 +0.18    -0.354 N 
DOCKED: ATOM      6  N   UNL d   1       0.250   3.449  18.584 -0.14 +0.14    -0.354 N 
DOCKED: ATOM      7  C   UNL d   1      -2.373   5.310  15.461 -0.33 -0.03    +0.084 A 
DOCKED: ATOM      8  C   UNL d   1       1.701   9.760  17.325 -0.07 -0.03    +0.084 A 
DOCKED: ATOM      9  C   UNL d   1       1.051   8.376  17.225 -0.17 -0.02    +0.058 A 
DOCKED: ATOM     10  C   UNL d   1      -1.528   4.825  16.643 -0.27 -0.02    +0.058 A 
DOCKED: ATOM     11  C   UNL d   1      -1.789   6.687  15.355 -0.06 -0.10    +0.193 A 
DOCKED: ATOM     12  C   UNL d   1      -0.754   6.844  16.425 -0.19 -0.04    +0.109 A 
DOCKED: ATOM     13  C   UNL d   1       2.951   9.343  18.047 -0.05 -0.06    +0.193 A 
DOCKED: ATOM     14  C   UNL d   1      -2.060   4.539  14.176 -0.63 -0.01    +0.026 C 
DOCKED: ATOM     15  C   UNL d   1      -0.103   8.161  16.575 -0.21 -0.03    +0.055 C 
DOCKED: ATOM     16  C   UNL d   1       0.900  10.700  18.230 -0.02 -0.01    +0.026 C 
DOCKED: ATOM     17  C   UNL d   1       2.879   7.869  18.277 -0.12 -0.04    +0.109 A 
DOCKED: ATOM     18  C   UNL d   1      -1.742   3.625  17.214 -0.31 -0.02    +0.050 C 
DOCKED: ATOM     19  C   UNL d   1      -1.069   3.128  18.360 -0.23 -0.01    +0.045 A 
DOCKED: ATOM     20  C   UNL d   1       3.847   5.912  19.363 -0.16 -0.02    +0.045 A 
DOCKED: ATOM     21  C   UNL d   1       3.995   7.169  18.931 -0.18 -0.02    +0.057 C 
DOCKED: ATOM     22  C   UNL d   1       4.357   3.884  20.282 -0.31 +0.01    -0.019 A 
DOCKED: ATOM     23  C   UNL d   1       2.940   3.876  19.869 -0.29 -0.02    +0.045 A 
DOCKED: ATOM     24  C   UNL d   1       4.889   5.092  19.981 -0.26 +0.01    -0.022 A 
DOCKED: ATOM     25  C   UNL d   1       0.725   2.790  19.695 -0.24 -0.03    +0.049 A 
DOCKED: ATOM     26  C   UNL d   1      -1.473   2.270  19.371 -0.24 +0.00    -0.018 A 
DOCKED: ATOM     27  C   UNL d   1      -0.341   2.076  20.222 -0.23 -0.00    +0.003 A 
DOCKED: ATOM     28  C   UNL d   1       2.104   2.839  20.037 -0.16 -0.05    +0.052 C 
DOCKED: ATOM     29  C   UNL d   1       6.276   5.586  20.215 -0.24 -0.00    +0.046 C 
DOCKED: ATOM     30  C   UNL d   1      -2.826   1.667  19.540 -0.23 -0.00    +0.046 C 
DOCKED: ATOM     31  H   UNL d   1       1.836   5.481  19.020 -0.11 -0.08    +0.166 HD
DOCKED: ATOM     32  H   UNL d   1       0.791   4.055  17.978 -0.01 -0.08    +0.166 HD
DOCKED: ENDROOT
DOCKED: BRANCH   7  33
DOCKED: ATOM     33  C   UNL d   1      -3.882   5.384  15.718 -0.26 -0.05    +0.141 C 
DOCKED: BRANCH  33  34
DOCKED: ATOM     34  C   UNL d   1      -4.309   6.712  16.283 -0.11 -0.15    +0.306 C 
DOCKED: ATOM     35  O   UNL d   1      -4.214   7.063  17.447 -0.04 +0.09    -0.251 OA
DOCKED: BRANCH  34  36
DOCKED: ATOM     36  O   UNL d   1      -4.830   7.529  15.351 -0.62 +0.40    -0.481 OA
DOCKED: ATOM     37  H   UNL d   1      -4.050   7.925  14.907 -0.43 -0.57    +0.295 HD
DOCKED: ENDBRANCH  34  36
DOCKED: ENDBRANCH  33  34
DOCKED: ENDBRANCH   7  33
DOCKED: BRANCH  27  38
DOCKED: ATOM     38  C   UNL d   1      -0.318   1.243  21.386 -0.15 -0.01    +0.017 C 
DOCKED: ATOM     39  C   UNL d   1      -0.951   0.066  21.510 -0.15 +0.01    +0.092 C 
DOCKED: BRANCH  39  40
DOCKED: ATOM     40  C   UNL d   1      -0.832  -0.700  22.753 -0.07 +0.08    +0.330 C 
DOCKED: ATOM     41  O   UNL d   1      -1.656  -0.811  23.640 -0.06 -0.04    -0.246 OA
DOCKED: BRANCH  40  42
DOCKED: ATOM     42  O   UNL d   1       0.361  -1.313  22.805 -0.40 -0.05    -0.477 OA
DOCKED: ATOM     43  H   UNL d   1       0.964  -0.693  22.345 -0.24 -0.31    +0.295 HD
DOCKED: ENDBRANCH  40  42
DOCKED: ENDBRANCH  39  40
DOCKED: ENDBRANCH  27  38
DOCKED: BRANCH   8  44
DOCKED: ATOM     44  C   UNL d   1       2.037  10.429  15.988 -0.14 -0.06    +0.141 C 
DOCKED: BRANCH  44  45
DOCKED: ATOM     45  C   UNL d   1       3.202   9.791  15.280 -0.24 -0.15    +0.306 C 
DOCKED: ATOM     46  O   UNL d   1       3.150   8.890  14.461 -0.43 +0.14    -0.251 OA
DOCKED: BRANCH  45  47
DOCKED: ATOM     47  O   UNL d   1       4.383  10.309  15.663 -0.08 +0.19    -0.481 OA
DOCKED: ATOM     48  H   UNL d   1       4.222  10.649  16.569 +0.08 -0.09    +0.295 HD
DOCKED: ENDBRANCH  45  47
DOCKED: ENDBRANCH  44  45
DOCKED: ENDBRANCH   8  44
DOCKED: BRANCH  22  49
DOCKED: ATOM     49  C   UNL d   1       5.057   2.716  20.913 -0.36 -0.02    +0.048 C 
DOCKED: BRANCH  49  50
DOCKED: ATOM     50  C   UNL d   1       4.938   2.737  22.437 -0.20 -0.02    +0.125 C 
DOCKED: BRANCH  50  51
DOCKED: ATOM     51  C   UNL d   1       4.546   1.385  22.962 -0.11 -0.11    +0.305 C 
DOCKED: ATOM     52  O   UNL d   1       5.284   0.472  23.289 -0.17 +0.04    -0.251 OA
DOCKED: BRANCH  51  53
DOCKED: ATOM     53  O   UNL d   1       3.208   1.244  23.041 -0.01 +0.39    -0.481 OA
DOCKED: ATOM     54  H   UNL d   1       2.910   1.275  22.108 -0.41 -0.58    +0.295 HD
DOCKED: ENDBRANCH  51  53
DOCKED: ENDBRANCH  50  51
DOCKED: ENDBRANCH  49  50
DOCKED: ENDBRANCH  22  49
DOCKED: TORSDOF 13
DOCKED: TER
DOCKED: ENDMDL
________________________________________________________________________________


	BEGINNING GENETIC ALGORITHM DOCKING 58 of 100
Run: 58 Seed: 1164404076 1561805422 [ Run 58 of 100 GA/GALS ]
Beginning LAMARCKIAN GENETIC ALGORITHM (LGA), with a maximum of 25000000 energy evaluations.

Final-Value: -11.759


	FINAL GENETIC ALGORITHM DOCKED STATE
	_______________________________________________


Detailed state:  trans 11.190 16.104 -4.945 quatxyzw 0.627408 -0.150135 0.576460 0.501511 center 0.153 0.018 -0.028 ntor 13 144.4577 -178.4473 -176.6372 -5.4657 -138.6032 80.2512 140.7384 15.0235 16.2066 -36.1195 68.9608 -116.2253 115.8736
State:	 11.190  16.104  -4.945   0.725 -0.174  0.666 119.800    144.46 -178.45 -176.64   -5.47 -138.60   80.25  140.74   15.02   16.21  -36.12   68.96 -116.23  115.87

DOCKED: MODEL       58
DOCKED: USER    Run = 58
DOCKED: USER    DPF = D:/Protein_go_brrr/autodock/final/mut_K82N/heme/dock.dpf
DOCKED: USER  
DOCKED: USER    Estimated Free Energy of Binding    =   -3.65 kcal/mol  [=(1)+(2)+(3)-(4)]
DOCKED: USER    Estimated Inhibition Constant, Ki   =    2.13 mM (millimolar)  [Temperature = 298.15 K]
DOCKED: USER    
DOCKED: USER    (1) Final Intermolecular Energy     =   -7.52 kcal/mol
DOCKED: USER        vdW + Hbond + desolv Energy     =   -7.38 kcal/mol
DOCKED: USER        Electrostatic Energy            =   -0.14 kcal/mol
DOCKED: USER    (2) Final Total Internal Energy     =   -4.23 kcal/mol
DOCKED: USER    (3) Torsional Free Energy           =   +3.88 kcal/mol
DOCKED: USER    (4) Unbound System's Energy  [=(2)] =   -4.23 kcal/mol
DOCKED: USER    
DOCKED: USER    
DOCKED: USER    NEWDPF move heme_opt.pdbqt
DOCKED: USER    NEWDPF about 0.153000 0.018000 -0.028000
DOCKED: USER    NEWDPF tran0 11.190421 16.103535 -4.944776
DOCKED: USER    NEWDPF quaternion0 0.627408 -0.150135 0.576460 0.501511
DOCKED: USER    NEWDPF axisangle0 0.725200 -0.173536 0.666311 119.800010
DOCKED: USER    NEWDPF quat0 0.725200 -0.173536 0.666311 119.800010
DOCKED: USER    NEWDPF dihe0 144.46 -178.45 -176.64 -5.47 -138.60 80.25 140.74 15.02 16.21 -36.12 68.96 -116.23 115.87 
DOCKED: USER  keepresnum = 1 
DOCKED: USER  
DOCKED: REMARK  13 active torsions:
DOCKED: REMARK  status: ('A' for Active; 'I' for Inactive)
DOCKED: REMARK    1  A    between atoms: O_3  and  C_38 
DOCKED: REMARK    2  A    between atoms: O_4  and  C_40 
DOCKED: REMARK    3  A    between atoms: O_7  and  C_46 
DOCKED: REMARK    4  A    between atoms: O_9  and  C_48 
DOCKED: REMARK    5  A    between atoms: C_15  and  C_20 
DOCKED: REMARK    6  A    between atoms: C_16  and  C_23 
DOCKED: REMARK    7  A    between atoms: C_20  and  C_38 
DOCKED: REMARK    8  A    between atoms: C_23  and  C_40 
DOCKED: REMARK    9  A    between atoms: C_32  and  C_41 
DOCKED: REMARK   10  A    between atoms: C_37  and  C_45 
DOCKED: REMARK   11  A    between atoms: C_41  and  C_44 
DOCKED: REMARK   12  A    between atoms: C_44  and  C_46 
DOCKED: REMARK   13  A    between atoms: C_47  and  C_48 
DOCKED: USER                              x       y       z     vdW  Elec       q    Type
DOCKED: USER                           _______ _______ _______ _____ _____    ______ ____
DOCKED: ROOT
DOCKED: ATOM      1  O   UNL d   1      10.786  19.937  -9.405 -0.01 +0.02    -0.289 OA
DOCKED: ATOM      2  O   UNL d   1       7.150  19.610  -2.843 -0.30 +0.05    -0.289 OA
DOCKED: ATOM      3  N   UNL d   1      11.266  17.391  -7.129 -0.05 +0.01    -0.247 NA
DOCKED: ATOM      4  N   UNL d   1       9.670  18.265  -4.780 -0.10 +0.03    -0.247 NA
DOCKED: ATOM      5  N   UNL d   1      11.010  16.245  -3.234 -0.13 +0.10    -0.354 N 
DOCKED: ATOM      6  N   UNL d   1      12.676  15.358  -5.671 -0.07 +0.02    -0.354 N 
DOCKED: ATOM      7  C   UNL d   1      12.313  18.034  -9.250 -0.04 -0.00    +0.084 A 
DOCKED: ATOM      8  C   UNL d   1       7.779  19.753  -5.204 -0.20 -0.02    +0.084 A 
DOCKED: ATOM      9  C   UNL d   1       9.005  19.003  -5.734 -0.14 -0.01    +0.058 A 
DOCKED: ATOM     10  C   UNL d   1      12.246  17.078  -8.055 -0.09 -0.00    +0.058 A 
DOCKED: ATOM     11  C   UNL d   1      11.183  18.933  -8.843 -0.03 -0.01    +0.193 A 
DOCKED: ATOM     12  C   UNL d   1      10.614  18.423  -7.556 -0.08 -0.01    +0.109 A 
DOCKED: ATOM     13  C   UNL d   1       7.892  19.334  -3.766 -0.22 -0.04    +0.193 A 
DOCKED: ATOM     14  C   UNL d   1      13.610  18.846  -9.264 -0.01 -0.00    +0.026 C 
DOCKED: ATOM     15  C   UNL d   1       9.423  19.101  -7.005 -0.11 -0.01    +0.055 C 
DOCKED: ATOM     16  C   UNL d   1       6.476  19.190  -5.780 -0.41 -0.01    +0.026 C 
DOCKED: ATOM     17  C   UNL d   1       9.083  18.441  -3.640 -0.19 -0.02    +0.109 A 
DOCKED: ATOM     18  C   UNL d   1      13.028  15.984  -7.987 -0.12 -0.00    +0.050 C 
DOCKED: ATOM     19  C   UNL d   1      12.978  15.000  -6.966 -0.11 -0.00    +0.045 A 
DOCKED: ATOM     20  C   UNL d   1      10.370  16.924  -2.230 -0.18 -0.01    +0.045 A 
DOCKED: ATOM     21  C   UNL d   1       9.469  17.907  -2.325 -0.29 -0.01    +0.057 C 
DOCKED: ATOM     22  C   UNL d   1      11.767  15.375  -1.299 -0.27 +0.00    -0.019 A 
DOCKED: ATOM     23  C   UNL d   1      11.875  15.290  -2.770 -0.27 -0.01    +0.045 A 
DOCKED: ATOM     24  C   UNL d   1      10.874  16.343  -0.986 -0.23 +0.00    -0.022 A 
DOCKED: ATOM     25  C   UNL d   1      12.772  14.270  -4.835 -0.24 -0.01    +0.049 A 
DOCKED: ATOM     26  C   UNL d   1      13.241  13.639  -6.978 -0.24 +0.00    -0.018 A 
DOCKED: ATOM     27  C   UNL d   1      13.090  13.179  -5.633 -0.32 -0.00    +0.003 A 
DOCKED: ATOM     28  C   UNL d   1      12.659  14.421  -3.426 -0.29 -0.01    +0.052 C 
DOCKED: ATOM     29  C   UNL d   1      10.419  16.792   0.361 -0.14 -0.00    +0.046 C 
DOCKED: ATOM     30  C   UNL d   1      13.608  12.814  -8.164 -0.12 -0.00    +0.046 C 
DOCKED: ATOM     31  H   UNL d   1      10.780  16.407  -4.208 +0.03 -0.03    +0.166 HD
DOCKED: ATOM     32  H   UNL d   1      12.456  16.305  -5.388 +0.04 -0.01    +0.166 HD
DOCKED: ENDROOT
DOCKED: BRANCH   7  33
DOCKED: ATOM     33  C   UNL d   1      12.031  17.400 -10.616 -0.04 -0.01    +0.141 C 
DOCKED: BRANCH  33  34
DOCKED: ATOM     34  C   UNL d   1      10.627  16.869 -10.729 -0.06 -0.01    +0.306 C 
DOCKED: ATOM     35  O   UNL d   1      10.238  15.776 -10.353 -0.16 -0.00    -0.251 OA
DOCKED: BRANCH  34  36
DOCKED: ATOM     36  O   UNL d   1       9.787  17.744 -11.308 +0.00 +0.03    -0.481 OA
DOCKED: ATOM     37  H   UNL d   1      10.065  18.619 -10.963 +0.03 -0.02    +0.295 HD
DOCKED: ENDBRANCH  34  36
DOCKED: ENDBRANCH  33  34
DOCKED: ENDBRANCH   7  33
DOCKED: BRANCH  27  38
DOCKED: ATOM     38  C   UNL d   1      13.287  11.831  -5.195 -0.34 -0.00    +0.017 C 
DOCKED: ATOM     39  C   UNL d   1      14.388  11.368  -4.583 -0.24 -0.01    +0.092 C 
DOCKED: BRANCH  39  40
DOCKED: ATOM     40  C   UNL d   1      14.457   9.964  -4.168 -0.18 -0.03    +0.330 C 
DOCKED: ATOM     41  O   UNL d   1      14.680   8.993  -4.865 -0.18 +0.01    -0.246 OA
DOCKED: BRANCH  40  42
DOCKED: ATOM     42  O   UNL d   1      14.242   9.862  -2.847 -0.12 +0.04    -0.477 OA
DOCKED: ATOM     43  H   UNL d   1      14.077  10.785  -2.564 +0.08 -0.04    +0.295 HD
DOCKED: ENDBRANCH  40  42
DOCKED: ENDBRANCH  39  40
DOCKED: ENDBRANCH  27  38
DOCKED: BRANCH   8  44
DOCKED: ATOM     44  C   UNL d   1       7.829  21.279  -5.337 +0.01 -0.05    +0.141 C 
DOCKED: BRANCH  44  45
DOCKED: ATOM     45  C   UNL d   1       8.532  21.953  -4.189 -0.10 -0.08    +0.306 C 
DOCKED: ATOM     46  O   UNL d   1       9.697  22.309  -4.158 -0.05 +0.04    -0.251 OA
DOCKED: BRANCH  45  47
DOCKED: ATOM     47  O   UNL d   1       7.731  22.119  -3.121 -0.15 +0.12    -0.481 OA
DOCKED: ATOM     48  H   UNL d   1       6.882  21.702  -3.381 -0.42 -0.15    +0.295 HD
DOCKED: ENDBRANCH  45  47
DOCKED: ENDBRANCH  44  45
DOCKED: ENDBRANCH   8  44
DOCKED: BRANCH  22  49
DOCKED: ATOM     49  C   UNL d   1      12.551  14.521  -0.347 -0.23 -0.01    +0.048 C 
DOCKED: BRANCH  49  50
DOCKED: ATOM     50  C   UNL d   1      13.932  14.171  -0.900 -0.10 -0.01    +0.125 C 
DOCKED: BRANCH  50  51
DOCKED: ATOM     51  C   UNL d   1      14.015  12.713  -1.253 -0.12 -0.03    +0.305 C 
DOCKED: ATOM     52  O   UNL d   1      13.107  11.902  -1.280 -0.18 +0.04    -0.251 OA
DOCKED: BRANCH  51  53
DOCKED: ATOM     53  O   UNL d   1      15.275  12.338  -1.551 -0.00 +0.04    -0.481 OA
DOCKED: ATOM     54  H   UNL d   1      15.213  11.366  -1.665 +0.06 -0.02    +0.295 HD
DOCKED: ENDBRANCH  51  53
DOCKED: ENDBRANCH  50  51
DOCKED: ENDBRANCH  49  50
DOCKED: ENDBRANCH  22  49
DOCKED: TORSDOF 13
DOCKED: TER
DOCKED: ENDMDL
________________________________________________________________________________


	BEGINNING GENETIC ALGORITHM DOCKING 59 of 100
Run: 59 Seed: 1340865867 1881974473 [ Run 59 of 100 GA/GALS ]
Beginning LAMARCKIAN GENETIC ALGORITHM (LGA), with a maximum of 25000000 energy evaluations.

Final-Value: -11.514


	FINAL GENETIC ALGORITHM DOCKED STATE
	_______________________________________________


Detailed state:  trans -8.354 -10.214 7.612 quatxyzw 0.187510 0.155795 -0.745614 0.620183 center 0.153 0.018 -0.028 ntor 13 109.4511 78.8381 149.7740 -84.0317 179.8481 -164.1146 -68.0067 -16.8140 -17.1711 -53.2158 -20.9904 -46.5572 41.1126
State:	 -8.354 -10.214   7.612   0.239  0.199 -0.950 103.341    109.45   78.84  149.77  -84.03  179.85 -164.11  -68.01  -16.81  -17.17  -53.22  -20.99  -46.56   41.11

DOCKED: MODEL       59
DOCKED: USER    Run = 59
DOCKED: USER    DPF = D:/Protein_go_brrr/autodock/final/mut_K82N/heme/dock.dpf
DOCKED: USER  
DOCKED: USER    Estimated Free Energy of Binding    =   -5.37 kcal/mol  [=(1)+(2)+(3)-(4)]
DOCKED: USER    Estimated Inhibition Constant, Ki   =  115.47 uM (micromolar)  [Temperature = 298.15 K]
DOCKED: USER    
DOCKED: USER    (1) Final Intermolecular Energy     =   -9.25 kcal/mol
DOCKED: USER        vdW + Hbond + desolv Energy     =   -8.75 kcal/mol
DOCKED: USER        Electrostatic Energy            =   -0.50 kcal/mol
DOCKED: USER    (2) Final Total Internal Energy     =   -2.26 kcal/mol
DOCKED: USER    (3) Torsional Free Energy           =   +3.88 kcal/mol
DOCKED: USER    (4) Unbound System's Energy  [=(2)] =   -2.26 kcal/mol
DOCKED: USER    
DOCKED: USER    
DOCKED: USER    NEWDPF move heme_opt.pdbqt
DOCKED: USER    NEWDPF about 0.153000 0.018000 -0.028000
DOCKED: USER    NEWDPF tran0 -8.354372 -10.213921 7.611867
DOCKED: USER    NEWDPF quaternion0 0.187510 0.155795 -0.745614 0.620183
DOCKED: USER    NEWDPF axisangle0 0.239031 0.198602 -0.950485 103.340935
DOCKED: USER    NEWDPF quat0 0.239031 0.198602 -0.950485 103.340935
DOCKED: USER    NEWDPF dihe0 109.45 78.84 149.77 -84.03 179.85 -164.11 -68.01 -16.81 -17.17 -53.22 -20.99 -46.56 41.11 
DOCKED: USER  keepresnum = 1 
DOCKED: USER  
DOCKED: REMARK  13 active torsions:
DOCKED: REMARK  status: ('A' for Active; 'I' for Inactive)
DOCKED: REMARK    1  A    between atoms: O_3  and  C_38 
DOCKED: REMARK    2  A    between atoms: O_4  and  C_40 
DOCKED: REMARK    3  A    between atoms: O_7  and  C_46 
DOCKED: REMARK    4  A    between atoms: O_9  and  C_48 
DOCKED: REMARK    5  A    between atoms: C_15  and  C_20 
DOCKED: REMARK    6  A    between atoms: C_16  and  C_23 
DOCKED: REMARK    7  A    between atoms: C_20  and  C_38 
DOCKED: REMARK    8  A    between atoms: C_23  and  C_40 
DOCKED: REMARK    9  A    between atoms: C_32  and  C_41 
DOCKED: REMARK   10  A    between atoms: C_37  and  C_45 
DOCKED: REMARK   11  A    between atoms: C_41  and  C_44 
DOCKED: REMARK   12  A    between atoms: C_44  and  C_46 
DOCKED: REMARK   13  A    between atoms: C_47  and  C_48 
DOCKED: USER                              x       y       z     vdW  Elec       q    Type
DOCKED: USER                           _______ _______ _______ _____ _____    ______ ____
DOCKED: ROOT
DOCKED: ATOM      1  O   UNL d   1      -9.224 -16.039   7.882 -0.01 +0.04    -0.289 OA
DOCKED: ATOM      2  O   UNL d   1      -2.983 -11.944   8.703 -0.28 +0.07    -0.289 OA
DOCKED: ATOM      3  N   UNL d   1      -9.174 -12.611   7.498 -0.11 +0.04    -0.247 NA
DOCKED: ATOM      4  N   UNL d   1      -6.409 -11.874   8.299 -0.18 +0.05    -0.247 NA
DOCKED: ATOM      5  N   UNL d   1      -7.272  -9.134   8.413 -0.13 +0.06    -0.354 N 
DOCKED: ATOM      6  N   UNL d   1     -10.143  -9.910   7.601 +0.11 +0.05    -0.354 N 
DOCKED: ATOM      7  C   UNL d   1     -10.928 -14.323   7.525 -0.04 -0.01    +0.084 A 
DOCKED: ATOM      8  C   UNL d   1      -4.679 -13.580   8.042 -0.23 -0.01    +0.084 A 
DOCKED: ATOM      9  C   UNL d   1      -6.159 -13.189   7.975 -0.22 -0.01    +0.058 A 
DOCKED: ATOM     10  C   UNL d   1     -10.535 -12.848   7.402 -0.11 -0.01    +0.058 A 
DOCKED: ATOM     11  C   UNL d   1      -9.546 -14.881   7.690 -0.04 -0.03    +0.193 A 
DOCKED: ATOM     12  C   UNL d   1      -8.570 -13.747   7.630 -0.11 -0.02    +0.109 A 
DOCKED: ATOM     13  C   UNL d   1      -4.140 -12.254   8.500 -0.23 -0.04    +0.193 A 
DOCKED: ATOM     14  C   UNL d   1     -11.729 -14.600   8.801 -0.01 -0.00    +0.026 C 
DOCKED: ATOM     15  C   UNL d   1      -7.129 -14.067   7.677 -0.17 -0.01    +0.055 C 
DOCKED: ATOM     16  C   UNL d   1      -4.110 -13.890   6.654 -0.44 -0.00    +0.026 C 
DOCKED: ATOM     17  C   UNL d   1      -5.291 -11.309   8.624 -0.28 -0.03    +0.109 A 
DOCKED: ATOM     18  C   UNL d   1     -11.449 -11.897   7.133 -0.10 -0.01    +0.050 C 
DOCKED: ATOM     19  C   UNL d   1     -11.169 -10.523   6.919 -0.01 -0.01    +0.045 A 
DOCKED: ATOM     20  C   UNL d   1      -6.032  -9.015   8.985 -0.37 -0.01    +0.045 A 
DOCKED: ATOM     21  C   UNL d   1      -5.070  -9.936   9.100 -0.41 -0.01    +0.057 C 
DOCKED: ATOM     22  C   UNL d   1      -7.122  -7.015   9.161 -0.30 +0.00    -0.019 A 
DOCKED: ATOM     23  C   UNL d   1      -8.003  -7.978   8.471 -0.24 -0.01    +0.045 A 
DOCKED: ATOM     24  C   UNL d   1      -5.956  -7.634   9.461 -0.41 +0.00    -0.022 A 
DOCKED: ATOM     25  C   UNL d   1     -10.106  -8.565   7.311 -0.00 -0.01    +0.049 A 
DOCKED: ATOM     26  C   UNL d   1     -11.791  -9.562   6.138 -0.08 +0.00    -0.018 A 
DOCKED: ATOM     27  C   UNL d   1     -11.104  -8.331   6.375 -0.10 -0.00    +0.003 A 
DOCKED: ATOM     28  C   UNL d   1      -9.232  -7.692   8.014 -0.20 -0.01    +0.052 C 
DOCKED: ATOM     29  C   UNL d   1      -4.753  -7.078  10.144 -0.36 -0.00    +0.046 C 
DOCKED: ATOM     30  C   UNL d   1     -12.952  -9.770   5.226 -0.11 -0.01    +0.046 C 
DOCKED: ATOM     31  H   UNL d   1      -7.550  -9.983   7.933 +0.06 -0.02    +0.166 HD
DOCKED: ATOM     32  H   UNL d   1      -9.536 -10.392   8.253 +0.04 -0.02    +0.166 HD
DOCKED: ENDROOT
DOCKED: BRANCH   7  33
DOCKED: ATOM     33  C   UNL d   1     -11.609 -14.927   6.292 -0.05 -0.02    +0.141 C 
DOCKED: BRANCH  33  34
DOCKED: ATOM     34  C   UNL d   1     -11.149 -14.292   5.008 -0.13 -0.06    +0.306 C 
DOCKED: ATOM     35  O   UNL d   1     -11.864 -13.797   4.153 -0.16 +0.04    -0.251 OA
DOCKED: BRANCH  34  36
DOCKED: ATOM     36  O   UNL d   1      -9.811 -14.312   4.870 -0.10 +0.19    -0.481 OA
DOCKED: ATOM     37  H   UNL d   1      -9.488 -13.639   5.506 -0.33 -0.14    +0.295 HD
DOCKED: ENDBRANCH  34  36
DOCKED: ENDBRANCH  33  34
DOCKED: ENDBRANCH   7  33
DOCKED: BRANCH  27  38
DOCKED: ATOM     38  C   UNL d   1     -11.434  -7.073   5.778 -0.21 -0.01    +0.017 C 
DOCKED: ATOM     39  C   UNL d   1     -10.918  -5.887   6.134 -0.22 -0.05    +0.092 C 
DOCKED: BRANCH  39  40
DOCKED: ATOM     40  C   UNL d   1     -11.329  -4.670   5.429 -0.11 -0.25    +0.330 C 
DOCKED: ATOM     41  O   UNL d   1     -10.800  -3.575   5.465 -0.21 +0.13    -0.246 OA
DOCKED: BRANCH  40  42
DOCKED: ATOM     42  O   UNL d   1     -12.417  -4.914   4.682 -0.03 +0.50    -0.477 OA
DOCKED: ATOM     43  H   UNL d   1     -12.062  -5.014   3.775 -0.47 -0.73    +0.295 HD
DOCKED: ENDBRANCH  40  42
DOCKED: ENDBRANCH  39  40
DOCKED: ENDBRANCH  27  38
DOCKED: BRANCH   8  44
DOCKED: ATOM     44  C   UNL d   1      -4.333 -14.688   9.043 -0.14 +0.00    +0.141 C 
DOCKED: BRANCH  44  45
DOCKED: ATOM     45  C   UNL d   1      -3.700 -14.170  10.307 -0.16 +0.03    +0.306 C 
DOCKED: ATOM     46  O   UNL d   1      -2.551 -14.349  10.670 -0.29 -0.03    -0.251 OA
DOCKED: BRANCH  45  47
DOCKED: ATOM     47  O   UNL d   1      -4.564 -13.473  11.066 -0.53 -0.07    -0.481 OA
DOCKED: ATOM     48  H   UNL d   1      -5.181 -13.060  10.425 +0.10 +0.01    +0.295 HD
DOCKED: ENDBRANCH  45  47
DOCKED: ENDBRANCH  44  45
DOCKED: ENDBRANCH   8  44
DOCKED: BRANCH  22  49
DOCKED: ATOM     49  C   UNL d   1      -7.503  -5.597   9.473 -0.19 -0.01    +0.048 C 
DOCKED: BRANCH  49  50
DOCKED: ATOM     50  C   UNL d   1      -8.231  -4.934   8.304 -0.25 -0.02    +0.125 C 
DOCKED: BRANCH  50  51
DOCKED: ATOM     51  C   UNL d   1      -9.018  -3.742   8.769 -0.14 -0.04    +0.305 C 
DOCKED: ATOM     52  O   UNL d   1      -9.433  -3.518   9.892 -0.08 +0.04    -0.251 OA
DOCKED: BRANCH  51  53
DOCKED: ATOM     53  O   UNL d   1      -9.261  -2.875   7.765 -0.07 +0.01    -0.481 OA
DOCKED: ATOM     54  H   UNL d   1     -10.154  -3.122   7.448 +0.10 -0.04    +0.295 HD
DOCKED: ENDBRANCH  51  53
DOCKED: ENDBRANCH  50  51
DOCKED: ENDBRANCH  49  50
DOCKED: ENDBRANCH  22  49
DOCKED: TORSDOF 13
DOCKED: TER
DOCKED: ENDMDL
________________________________________________________________________________


	BEGINNING GENETIC ALGORITHM DOCKING 60 of 100
Run: 60 Seed: 1450899335 67202405 [ Run 60 of 100 GA/GALS ]
Beginning LAMARCKIAN GENETIC ALGORITHM (LGA), with a maximum of 25000000 energy evaluations.

Final-Value: -12.785


	FINAL GENETIC ALGORITHM DOCKED STATE
	_______________________________________________


Detailed state:  trans -10.841 -1.662 6.815 quatxyzw -0.341842 0.284986 0.572721 0.688417 center 0.153 0.018 -0.028 ntor 13 -116.8841 -136.0329 134.7961 41.0436 33.8611 -75.3476 -44.0326 -80.0791 127.7217 -149.5119 -100.2507 21.7246 -3.0116
State:	-10.841  -1.662   6.815  -0.471  0.393  0.790 92.990   -116.88 -136.03  134.80   41.04   33.86  -75.35  -44.03  -80.08  127.72 -149.51 -100.25   21.72   -3.01

DOCKED: MODEL       60
DOCKED: USER    Run = 60
DOCKED: USER    DPF = D:/Protein_go_brrr/autodock/final/mut_K82N/heme/dock.dpf
DOCKED: USER  
DOCKED: USER    Estimated Free Energy of Binding    =   -4.56 kcal/mol  [=(1)+(2)+(3)-(4)]
DOCKED: USER    Estimated Inhibition Constant, Ki   =  458.23 uM (micromolar)  [Temperature = 298.15 K]
DOCKED: USER    
DOCKED: USER    (1) Final Intermolecular Energy     =   -8.43 kcal/mol
DOCKED: USER        vdW + Hbond + desolv Energy     =   -8.27 kcal/mol
DOCKED: USER        Electrostatic Energy            =   -0.16 kcal/mol
DOCKED: USER    (2) Final Total Internal Energy     =   -4.35 kcal/mol
DOCKED: USER    (3) Torsional Free Energy           =   +3.88 kcal/mol
DOCKED: USER    (4) Unbound System's Energy  [=(2)] =   -4.35 kcal/mol
DOCKED: USER    
DOCKED: USER    
DOCKED: USER    NEWDPF move heme_opt.pdbqt
DOCKED: USER    NEWDPF about 0.153000 0.018000 -0.028000
DOCKED: USER    NEWDPF tran0 -10.841234 -1.661725 6.814617
DOCKED: USER    NEWDPF quaternion0 -0.341842 0.284986 0.572721 0.688417
DOCKED: USER    NEWDPF axisangle0 -0.471302 0.392913 0.789616 92.990176
DOCKED: USER    NEWDPF quat0 -0.471302 0.392913 0.789616 92.990176
DOCKED: USER    NEWDPF dihe0 -116.88 -136.03 134.80 41.04 33.86 -75.35 -44.03 -80.08 127.72 -149.51 -100.25 21.72 -3.01 
DOCKED: USER  keepresnum = 1 
DOCKED: USER  
DOCKED: REMARK  13 active torsions:
DOCKED: REMARK  status: ('A' for Active; 'I' for Inactive)
DOCKED: REMARK    1  A    between atoms: O_3  and  C_38 
DOCKED: REMARK    2  A    between atoms: O_4  and  C_40 
DOCKED: REMARK    3  A    between atoms: O_7  and  C_46 
DOCKED: REMARK    4  A    between atoms: O_9  and  C_48 
DOCKED: REMARK    5  A    between atoms: C_15  and  C_20 
DOCKED: REMARK    6  A    between atoms: C_16  and  C_23 
DOCKED: REMARK    7  A    between atoms: C_20  and  C_38 
DOCKED: REMARK    8  A    between atoms: C_23  and  C_40 
DOCKED: REMARK    9  A    between atoms: C_32  and  C_41 
DOCKED: REMARK   10  A    between atoms: C_37  and  C_45 
DOCKED: REMARK   11  A    between atoms: C_41  and  C_44 
DOCKED: REMARK   12  A    between atoms: C_44  and  C_46 
DOCKED: REMARK   13  A    between atoms: C_47  and  C_48 
DOCKED: USER                              x       y       z     vdW  Elec       q    Type
DOCKED: USER                           _______ _______ _______ _____ _____    ______ ____
DOCKED: ROOT
DOCKED: ATOM      1  O   UNL d   1     -11.365   3.949   8.548 -0.19 +0.16    -0.289 OA
DOCKED: ATOM      2  O   UNL d   1     -12.963   0.644   1.996 -0.06 +0.03    -0.289 OA
DOCKED: ATOM      3  N   UNL d   1     -10.756   0.608   7.943 -0.09 +0.03    -0.247 NA
DOCKED: ATOM      4  N   UNL d   1     -11.969   0.167   5.266 -0.06 +0.03    -0.247 NA
DOCKED: ATOM      5  N   UNL d   1     -11.739  -2.661   5.731 -0.04 +0.13    -0.354 N 
DOCKED: ATOM      6  N   UNL d   1     -10.500  -2.194   8.515 -0.03 +0.04    -0.354 N 
DOCKED: ATOM      7  C   UNL d   1     -10.600   2.067   9.906 -0.17 -0.01    +0.084 A 
DOCKED: ATOM      8  C   UNL d   1     -12.135   2.100   3.781 -0.20 +0.00    +0.084 A 
DOCKED: ATOM      9  C   UNL d   1     -11.786   1.527   5.159 -0.18 -0.00    +0.058 A 
DOCKED: ATOM     10  C   UNL d   1     -10.443   0.673   9.290 -0.12 -0.01    +0.058 A 
DOCKED: ATOM     11  C   UNL d   1     -11.039   2.782   8.664 -0.19 -0.05    +0.193 A 
DOCKED: ATOM     12  C   UNL d   1     -11.070   1.796   7.538 -0.17 -0.01    +0.109 A 
DOCKED: ATOM     13  C   UNL d   1     -12.585   0.819   3.138 -0.07 -0.02    +0.193 A 
DOCKED: ATOM     14  C   UNL d   1     -11.734   2.116  10.934 -0.07 -0.00    +0.026 C 
DOCKED: ATOM     15  C   UNL d   1     -11.387   2.295   6.185 -0.28 -0.00    +0.055 C 
DOCKED: ATOM     16  C   UNL d   1     -10.891   2.610   3.047 -0.41 -0.00    +0.026 C 
DOCKED: ATOM     17  C   UNL d   1     -12.442  -0.275   4.145 -0.09 -0.02    +0.109 A 
DOCKED: ATOM     18  C   UNL d   1      -9.954  -0.359  10.002 -0.16 -0.01    +0.050 C 
DOCKED: ATOM     19  C   UNL d   1      -9.696  -1.658   9.495 -0.15 -0.01    +0.045 A 
DOCKED: ATOM     20  C   UNL d   1     -12.507  -2.671   4.596 -0.12 -0.02    +0.045 A 
DOCKED: ATOM     21  C   UNL d   1     -12.851  -1.647   3.808 -0.12 -0.02    +0.057 C 
DOCKED: ATOM     22  C   UNL d   1     -12.352  -4.803   5.400 -0.11 +0.01    -0.019 A 
DOCKED: ATOM     23  C   UNL d   1     -11.589  -3.903   6.288 -0.12 -0.02    +0.045 A 
DOCKED: ATOM     24  C   UNL d   1     -12.892  -4.068   4.399 -0.09 +0.02    -0.022 A 
DOCKED: ATOM     25  C   UNL d   1     -10.128  -3.489   8.238 -0.13 -0.01    +0.049 A 
DOCKED: ATOM     26  C   UNL d   1      -8.754  -2.616   9.838 -0.25 +0.00    -0.018 A 
DOCKED: ATOM     27  C   UNL d   1      -9.019  -3.763   9.028 -0.22 -0.00    +0.003 A 
DOCKED: ATOM     28  C   UNL d   1     -10.908  -4.303   7.373 -0.13 -0.01    +0.052 C 
DOCKED: ATOM     29  C   UNL d   1     -13.731  -4.524   3.255 -0.08 -0.04    +0.046 C 
DOCKED: ATOM     30  C   UNL d   1      -7.672  -2.477  10.854 -0.42 -0.01    +0.046 C 
DOCKED: ATOM     31  H   UNL d   1     -11.280  -1.814   6.048 +0.06 -0.04    +0.166 HD
DOCKED: ATOM     32  H   UNL d   1     -11.280  -1.700   8.098 +0.04 -0.02    +0.166 HD
DOCKED: ENDROOT
DOCKED: BRANCH   7  33
DOCKED: ATOM     33  C   UNL d   1      -9.313   2.689  10.459 -0.19 -0.01    +0.141 C 
DOCKED: BRANCH  33  34
DOCKED: ATOM     34  C   UNL d   1      -9.514   4.098  10.948 -0.28 -0.08    +0.306 C 
DOCKED: ATOM     35  O   UNL d   1      -9.862   4.428  12.069 -0.22 +0.07    -0.251 OA
DOCKED: BRANCH  34  36
DOCKED: ATOM     36  O   UNL d   1      -9.265   5.017   9.999 -0.74 +0.26    -0.481 OA
DOCKED: ATOM     37  H   UNL d   1      -9.906   4.815   9.285 -0.08 -0.34    +0.295 HD
DOCKED: ENDBRANCH  34  36
DOCKED: ENDBRANCH  33  34
DOCKED: ENDBRANCH   7  33
DOCKED: BRANCH  27  38
DOCKED: ATOM     38  C   UNL d   1      -8.287  -4.992   9.072 -0.29 -0.00    +0.017 C 
DOCKED: ATOM     39  C   UNL d   1      -7.643  -5.549   8.034 -0.32 -0.01    +0.092 C 
DOCKED: BRANCH  39  40
DOCKED: ATOM     40  C   UNL d   1      -6.913  -6.806   8.217 -0.29 -0.06    +0.330 C 
DOCKED: ATOM     41  O   UNL d   1      -5.824  -6.965   8.734 -0.35 +0.04    -0.246 OA
DOCKED: BRANCH  40  42
DOCKED: ATOM     42  O   UNL d   1      -7.628  -7.831   7.728 -0.15 +0.11    -0.477 OA
DOCKED: ATOM     43  H   UNL d   1      -7.965  -7.495   6.872 -0.02 -0.11    +0.295 HD
DOCKED: ENDBRANCH  40  42
DOCKED: ENDBRANCH  39  40
DOCKED: ENDBRANCH  27  38
DOCKED: BRANCH   8  44
DOCKED: ATOM     44  C   UNL d   1     -13.256   3.145   3.765 -0.12 +0.03    +0.141 C 
DOCKED: BRANCH  44  45
DOCKED: ATOM     45  C   UNL d   1     -13.257   3.996   2.523 -0.11 +0.07    +0.306 C 
DOCKED: ATOM     46  O   UNL d   1     -12.640   5.033   2.352 -0.21 -0.08    -0.251 OA
DOCKED: BRANCH  45  47
DOCKED: ATOM     47  O   UNL d   1     -14.063   3.506   1.564 -0.00 -0.06    -0.481 OA
DOCKED: ATOM     48  H   UNL d   1     -13.854   2.548   1.531 +0.07 +0.02    +0.295 HD
DOCKED: ENDBRANCH  45  47
DOCKED: ENDBRANCH  44  45
DOCKED: ENDBRANCH   8  44
DOCKED: BRANCH  22  49
DOCKED: ATOM     49  C   UNL d   1     -12.493  -6.281   5.618 -0.11 -0.03    +0.048 C 
DOCKED: BRANCH  49  50
DOCKED: ATOM     50  C   UNL d   1     -11.332  -7.060   4.999 -0.21 -0.10    +0.125 C 
DOCKED: BRANCH  50  51
DOCKED: ATOM     51  C   UNL d   1     -10.127  -7.030   5.896 -0.19 -0.15    +0.305 C 
DOCKED: ATOM     52  O   UNL d   1      -9.257  -6.178   5.942 -0.17 +0.11    -0.251 OA
DOCKED: BRANCH  51  53
DOCKED: ATOM     53  O   UNL d   1     -10.070  -8.109   6.702 +0.01 +0.13    -0.481 OA
DOCKED: ATOM     54  H   UNL d   1      -9.775  -7.747   7.563 +0.11 -0.07    +0.295 HD
DOCKED: ENDBRANCH  51  53
DOCKED: ENDBRANCH  50  51
DOCKED: ENDBRANCH  49  50
DOCKED: ENDBRANCH  22  49
DOCKED: TORSDOF 13
DOCKED: TER
DOCKED: ENDMDL
________________________________________________________________________________


	BEGINNING GENETIC ALGORITHM DOCKING 61 of 100
Run: 61 Seed: 735452205 451697891 [ Run 61 of 100 GA/GALS ]
Beginning LAMARCKIAN GENETIC ALGORITHM (LGA), with a maximum of 25000000 energy evaluations.

Final-Value: -10.816


	FINAL GENETIC ALGORITHM DOCKED STATE
	_______________________________________________


Detailed state:  trans -10.051 -3.385 8.675 quatxyzw -0.617385 0.645433 -0.234397 -0.383810 center 0.153 0.018 -0.028 ntor 13 100.7734 -52.8700 78.9908 -0.4370 -136.2802 96.5135 -45.4779 -108.5999 47.9040 -121.4500 -79.8427 -95.8154 180.0000
State:	-10.051  -3.385   8.675  -0.669  0.699 -0.254 -134.860    100.77  -52.87   78.99   -0.44 -136.28   96.51  -45.48 -108.60   47.90 -121.45  -79.84  -95.82  180.00

DOCKED: MODEL       61
DOCKED: USER    Run = 61
DOCKED: USER    DPF = D:/Protein_go_brrr/autodock/final/mut_K82N/heme/dock.dpf
DOCKED: USER  
DOCKED: USER    Estimated Free Energy of Binding    =   -4.47 kcal/mol  [=(1)+(2)+(3)-(4)]
DOCKED: USER    Estimated Inhibition Constant, Ki   =  529.25 uM (micromolar)  [Temperature = 298.15 K]
DOCKED: USER    
DOCKED: USER    (1) Final Intermolecular Energy     =   -8.35 kcal/mol
DOCKED: USER        vdW + Hbond + desolv Energy     =   -8.21 kcal/mol
DOCKED: USER        Electrostatic Energy            =   -0.14 kcal/mol
DOCKED: USER    (2) Final Total Internal Energy     =   -2.47 kcal/mol
DOCKED: USER    (3) Torsional Free Energy           =   +3.88 kcal/mol
DOCKED: USER    (4) Unbound System's Energy  [=(2)] =   -2.47 kcal/mol
DOCKED: USER    
DOCKED: USER    
DOCKED: USER    NEWDPF move heme_opt.pdbqt
DOCKED: USER    NEWDPF about 0.153000 0.018000 -0.028000
DOCKED: USER    NEWDPF tran0 -10.050600 -3.385177 8.675271
DOCKED: USER    NEWDPF quaternion0 -0.617385 0.645433 -0.234397 -0.383810
DOCKED: USER    NEWDPF axisangle0 -0.668591 0.698965 -0.253838 -134.860230
DOCKED: USER    NEWDPF quat0 -0.668591 0.698965 -0.253838 -134.860230
DOCKED: USER    NEWDPF dihe0 100.77 -52.87 78.99 -0.44 -136.28 96.51 -45.48 -108.60 47.90 -121.45 -79.84 -95.82 180.00 
DOCKED: USER  keepresnum = 1 
DOCKED: USER  
DOCKED: REMARK  13 active torsions:
DOCKED: REMARK  status: ('A' for Active; 'I' for Inactive)
DOCKED: REMARK    1  A    between atoms: O_3  and  C_38 
DOCKED: REMARK    2  A    between atoms: O_4  and  C_40 
DOCKED: REMARK    3  A    between atoms: O_7  and  C_46 
DOCKED: REMARK    4  A    between atoms: O_9  and  C_48 
DOCKED: REMARK    5  A    between atoms: C_15  and  C_20 
DOCKED: REMARK    6  A    between atoms: C_16  and  C_23 
DOCKED: REMARK    7  A    between atoms: C_20  and  C_38 
DOCKED: REMARK    8  A    between atoms: C_23  and  C_40 
DOCKED: REMARK    9  A    between atoms: C_32  and  C_41 
DOCKED: REMARK   10  A    between atoms: C_37  and  C_45 
DOCKED: REMARK   11  A    between atoms: C_41  and  C_44 
DOCKED: REMARK   12  A    between atoms: C_44  and  C_46 
DOCKED: REMARK   13  A    between atoms: C_47  and  C_48 
DOCKED: USER                              x       y       z     vdW  Elec       q    Type
DOCKED: USER                           _______ _______ _______ _____ _____    ______ ____
DOCKED: ROOT
DOCKED: ATOM      1  O   UNL d   1     -10.904   2.423   8.134 -0.18 +0.06    -0.289 OA
DOCKED: ATOM      2  O   UNL d   1      -8.451  -1.679  13.926 -0.09 +0.11    -0.289 OA
DOCKED: ATOM      3  N   UNL d   1     -10.692  -1.018   8.029 -0.08 +0.03    -0.247 NA
DOCKED: ATOM      4  N   UNL d   1      -9.362  -1.699  10.597 -0.07 +0.04    -0.247 NA
DOCKED: ATOM      5  N   UNL d   1      -8.922  -4.345   9.561 -0.06 +0.05    -0.354 N 
DOCKED: ATOM      6  N   UNL d   1     -10.286  -3.624   6.893 -0.02 +0.07    -0.354 N 
DOCKED: ATOM      7  C   UNL d   1     -11.225   0.732   6.398 -0.16 -0.01    +0.084 A 
DOCKED: ATOM      8  C   UNL d   1      -9.632  -0.126  12.448 -0.12 -0.02    +0.084 A 
DOCKED: ATOM      9  C   UNL d   1      -9.860  -0.471  10.972 -0.12 -0.01    +0.058 A 
DOCKED: ATOM     10  C   UNL d   1     -11.035  -0.754   6.714 -0.15 -0.01    +0.058 A 
DOCKED: ATOM     11  C   UNL d   1     -10.946   1.261   7.773 -0.10 -0.02    +0.193 A 
DOCKED: ATOM     12  C   UNL d   1     -10.662   0.101   8.676 -0.11 -0.01    +0.109 A 
DOCKED: ATOM     13  C   UNL d   1      -8.880  -1.369  12.832 -0.16 -0.05    +0.193 A 
DOCKED: ATOM     14  C   UNL d   1     -10.154   1.257   5.439 -0.19 -0.00    +0.026 C 
DOCKED: ATOM     15  C   UNL d   1     -10.448   0.374  10.112 -0.14 -0.01    +0.055 C 
DOCKED: ATOM     16  C   UNL d   1     -10.948  -0.086  13.231 -0.05 -0.00    +0.026 C 
DOCKED: ATOM     17  C   UNL d   1      -8.777  -2.237  11.619 -0.18 -0.02    +0.109 A 
DOCKED: ATOM     18  C   UNL d   1     -11.278  -1.705   5.792 -0.20 -0.01    +0.050 C 
DOCKED: ATOM     19  C   UNL d   1     -11.212  -3.104   6.016 -0.17 -0.02    +0.045 A 
DOCKED: ATOM     20  C   UNL d   1      -8.153  -4.405  10.695 -0.23 -0.01    +0.045 A 
DOCKED: ATOM     21  C   UNL d   1      -8.048  -3.512  11.684 -0.30 -0.01    +0.057 C 
DOCKED: ATOM     22  C   UNL d   1      -7.813  -6.303   9.470 -0.23 +0.00    -0.019 A 
DOCKED: ATOM     23  C   UNL d   1      -8.783  -5.446   8.759 -0.20 -0.01    +0.045 A 
DOCKED: ATOM     24  C   UNL d   1      -7.445  -5.682  10.616 -0.24 +0.00    -0.022 A 
DOCKED: ATOM     25  C   UNL d   1     -10.335  -4.999   6.889 -0.17 -0.01    +0.049 A 
DOCKED: ATOM     26  C   UNL d   1     -11.906  -4.166   5.457 -0.15 +0.01    -0.018 A 
DOCKED: ATOM     27  C   UNL d   1     -11.361  -5.359   6.026 -0.18 -0.00    +0.003 A 
DOCKED: ATOM     28  C   UNL d   1      -9.369  -5.765   7.595 -0.24 -0.01    +0.052 C 
DOCKED: ATOM     29  C   UNL d   1      -6.501  -6.151  11.670 -0.40 -0.01    +0.046 C 
DOCKED: ATOM     30  C   UNL d   1     -13.008  -4.080   4.456 -0.10 -0.04    +0.046 C 
DOCKED: ATOM     31  H   UNL d   1      -9.575  -3.584   9.408 +0.05 -0.02    +0.166 HD
DOCKED: ATOM     32  H   UNL d   1      -9.638  -3.056   7.426 +0.07 -0.01    +0.166 HD
DOCKED: ENDROOT
DOCKED: BRANCH   7  33
DOCKED: ATOM     33  C   UNL d   1     -12.632   1.133   5.943 -0.08 -0.01    +0.141 C 
DOCKED: BRANCH  33  34
DOCKED: ATOM     34  C   UNL d   1     -13.482   1.646   7.074 -0.02 +0.00    +0.306 C 
DOCKED: ATOM     35  O   UNL d   1     -14.101   0.967   7.875 -0.01 +0.01    -0.251 OA
DOCKED: BRANCH  34  36
DOCKED: ATOM     36  O   UNL d   1     -13.506   2.989   7.136 -0.04 -0.09    -0.481 OA
DOCKED: ATOM     37  H   UNL d   1     -12.680   3.229   7.608 +0.07 +0.02    +0.295 HD
DOCKED: ENDBRANCH  34  36
DOCKED: ENDBRANCH  33  34
DOCKED: ENDBRANCH   7  33
DOCKED: BRANCH  27  38
DOCKED: ATOM     38  C   UNL d   1     -11.782  -6.690   5.709 -0.18 -0.01    +0.017 C 
DOCKED: ATOM     39  C   UNL d   1     -10.993  -7.653   5.210 -0.26 -0.05    +0.092 C 
DOCKED: BRANCH  39  40
DOCKED: ATOM     40  C   UNL d   1     -11.544  -8.985   4.945 -0.04 -0.12    +0.330 C 
DOCKED: ATOM     41  O   UNL d   1     -11.988  -9.411   3.896 -0.15 +0.09    -0.246 OA
DOCKED: BRANCH  40  42
DOCKED: ATOM     42  O   UNL d   1     -11.495  -9.734   6.057 -0.02 +0.10    -0.477 OA
DOCKED: ATOM     43  H   UNL d   1     -12.414 -10.056   6.165 +0.06 -0.06    +0.295 HD
DOCKED: ENDBRANCH  40  42
DOCKED: ENDBRANCH  39  40
DOCKED: ENDBRANCH  27  38
DOCKED: BRANCH   8  44
DOCKED: ATOM     44  C   UNL d   1      -8.792   1.127  12.711 -0.18 -0.05    +0.141 C 
DOCKED: BRANCH  44  45
DOCKED: ATOM     45  C   UNL d   1      -8.421   1.301  14.160 -0.19 -0.10    +0.306 C 
DOCKED: ATOM     46  O   UNL d   1      -9.063   1.897  15.008 -0.09 +0.05    -0.251 OA
DOCKED: BRANCH  45  47
DOCKED: ATOM     47  O   UNL d   1      -7.239   0.734  14.460 -0.23 +0.22    -0.481 OA
DOCKED: ATOM     48  H   UNL d   1      -7.473  -0.107  14.907 -0.19 -0.16    +0.295 HD
DOCKED: ENDBRANCH  45  47
DOCKED: ENDBRANCH  44  45
DOCKED: ENDBRANCH   8  44
DOCKED: BRANCH  22  49
DOCKED: ATOM     49  C   UNL d   1      -7.329  -7.629   8.962 -0.31 -0.01    +0.048 C 
DOCKED: BRANCH  49  50
DOCKED: ATOM     50  C   UNL d   1      -5.994  -7.505   8.229 -0.38 -0.02    +0.125 C 
DOCKED: BRANCH  50  51
DOCKED: ATOM     51  C   UNL d   1      -4.856  -7.935   9.111 -0.36 -0.04    +0.305 C 
DOCKED: ATOM     52  O   UNL d   1      -3.947  -7.247   9.541 -0.52 +0.02    -0.251 OA
DOCKED: BRANCH  51  53
DOCKED: ATOM     53  O   UNL d   1      -4.915  -9.249   9.405 -0.17 +0.09    -0.481 OA
DOCKED: ATOM     54  H   UNL d   1      -4.125  -9.404   9.963 -0.27 -0.10    +0.295 HD
DOCKED: ENDBRANCH  51  53
DOCKED: ENDBRANCH  50  51
DOCKED: ENDBRANCH  49  50
DOCKED: ENDBRANCH  22  49
DOCKED: TORSDOF 13
DOCKED: TER
DOCKED: ENDMDL
________________________________________________________________________________


	BEGINNING GENETIC ALGORITHM DOCKING 62 of 100
Run: 62 Seed: 1768208968 1531268924 [ Run 62 of 100 GA/GALS ]
Beginning LAMARCKIAN GENETIC ALGORITHM (LGA), with a maximum of 25000000 energy evaluations.

Final-Value: -12.827


	FINAL GENETIC ALGORITHM DOCKED STATE
	_______________________________________________


Detailed state:  trans 1.815 17.088 -14.545 quatxyzw 0.638640 -0.074335 -0.391755 -0.658134 center 0.153 0.018 -0.028 ntor 13 144.6155 -156.8206 -162.1505 42.1822 -140.2671 56.4265 140.2100 47.7530 51.3457 -4.6576 -76.7108 -114.1206 12.3033
State:	  1.815  17.088 -14.545   0.848 -0.099 -0.520 -97.685    144.62 -156.82 -162.15   42.18 -140.27   56.43  140.21   47.75   51.35   -4.66  -76.71 -114.12   12.30

DOCKED: MODEL       62
DOCKED: USER    Run = 62
DOCKED: USER    DPF = D:/Protein_go_brrr/autodock/final/mut_K82N/heme/dock.dpf
DOCKED: USER  
DOCKED: USER    Estimated Free Energy of Binding    =   -4.24 kcal/mol  [=(1)+(2)+(3)-(4)]
DOCKED: USER    Estimated Inhibition Constant, Ki   =  781.87 uM (micromolar)  [Temperature = 298.15 K]
DOCKED: USER    
DOCKED: USER    (1) Final Intermolecular Energy     =   -8.12 kcal/mol
DOCKED: USER        vdW + Hbond + desolv Energy     =   -8.09 kcal/mol
DOCKED: USER        Electrostatic Energy            =   -0.03 kcal/mol
DOCKED: USER    (2) Final Total Internal Energy     =   -4.71 kcal/mol
DOCKED: USER    (3) Torsional Free Energy           =   +3.88 kcal/mol
DOCKED: USER    (4) Unbound System's Energy  [=(2)] =   -4.71 kcal/mol
DOCKED: USER    
DOCKED: USER    
DOCKED: USER    NEWDPF move heme_opt.pdbqt
DOCKED: USER    NEWDPF about 0.153000 0.018000 -0.028000
DOCKED: USER    NEWDPF tran0 1.815258 17.087662 -14.544659
DOCKED: USER    NEWDPF quaternion0 0.638640 -0.074335 -0.391755 -0.658134
DOCKED: USER    NEWDPF axisangle0 0.848240 -0.098732 -0.520328 -97.684579
DOCKED: USER    NEWDPF quat0 0.848240 -0.098732 -0.520328 -97.684579
DOCKED: USER    NEWDPF dihe0 144.62 -156.82 -162.15 42.18 -140.27 56.43 140.21 47.75 51.35 -4.66 -76.71 -114.12 12.30 
DOCKED: USER  keepresnum = 1 
DOCKED: USER  
DOCKED: REMARK  13 active torsions:
DOCKED: REMARK  status: ('A' for Active; 'I' for Inactive)
DOCKED: REMARK    1  A    between atoms: O_3  and  C_38 
DOCKED: REMARK    2  A    between atoms: O_4  and  C_40 
DOCKED: REMARK    3  A    between atoms: O_7  and  C_46 
DOCKED: REMARK    4  A    between atoms: O_9  and  C_48 
DOCKED: REMARK    5  A    between atoms: C_15  and  C_20 
DOCKED: REMARK    6  A    between atoms: C_16  and  C_23 
DOCKED: REMARK    7  A    between atoms: C_20  and  C_38 
DOCKED: REMARK    8  A    between atoms: C_23  and  C_40 
DOCKED: REMARK    9  A    between atoms: C_32  and  C_41 
DOCKED: REMARK   10  A    between atoms: C_37  and  C_45 
DOCKED: REMARK   11  A    between atoms: C_41  and  C_44 
DOCKED: REMARK   12  A    between atoms: C_44  and  C_46 
DOCKED: REMARK   13  A    between atoms: C_47  and  C_48 
DOCKED: USER                              x       y       z     vdW  Elec       q    Type
DOCKED: USER                           _______ _______ _______ _____ _____    ______ ____
DOCKED: ROOT
DOCKED: ATOM      1  O   UNL d   1      -1.689  19.800 -10.656 -0.18 +0.11    -0.289 OA
DOCKED: ATOM      2  O   UNL d   1      -1.091  20.540 -18.105 -0.00 +0.08    -0.289 OA
DOCKED: ATOM      3  N   UNL d   1       0.637  18.069 -12.524 -0.11 +0.09    -0.247 NA
DOCKED: ATOM      4  N   UNL d   1      -0.079  18.767 -15.322 -0.09 +0.15    -0.247 NA
DOCKED: ATOM      5  N   UNL d   1       1.624  16.621 -16.195 +0.06 +0.40    -0.354 N 
DOCKED: ATOM      6  N   UNL d   1       2.346  15.891 -13.289 -0.15 +0.15    -0.354 N 
DOCKED: ATOM      7  C   UNL d   1      -0.065  18.036 -10.176 -0.36 -0.03    +0.084 A 
DOCKED: ATOM      8  C   UNL d   1      -1.222  20.896 -15.686 -0.02 -0.02    +0.084 A 
DOCKED: ATOM      9  C   UNL d   1      -0.655  19.858 -14.712 -0.07 -0.02    +0.058 A 
DOCKED: ATOM     10  C   UNL d   1       0.832  17.480 -11.286 -0.30 -0.02    +0.058 A 
DOCKED: ATOM     11  C   UNL d   1      -0.789  19.057 -11.002 -0.18 -0.06    +0.193 A 
DOCKED: ATOM     12  C   UNL d   1      -0.256  18.996 -12.400 -0.13 -0.04    +0.109 A 
DOCKED: ATOM     13  C   UNL d   1      -0.895  20.173 -16.962 -0.01 -0.07    +0.193 A 
DOCKED: ATOM     14  C   UNL d   1      -1.074  16.997  -9.678 -0.54 -0.01    +0.026 C 
DOCKED: ATOM     15  C   UNL d   1      -0.758  19.982 -13.379 -0.09 -0.02    +0.055 C 
DOCKED: ATOM     16  C   UNL d   1      -0.430  22.206 -15.646 -0.01 -0.00    +0.026 C 
DOCKED: ATOM     17  C   UNL d   1      -0.211  18.893 -16.604 -0.08 -0.07    +0.109 A 
DOCKED: ATOM     18  C   UNL d   1       1.782  16.561 -11.028 -0.39 -0.01    +0.050 C 
DOCKED: ATOM     19  C   UNL d   1       2.711  16.052 -11.971 -0.32 -0.01    +0.045 A 
DOCKED: ATOM     20  C   UNL d   1       1.010  16.932 -17.381 -0.03 -0.05    +0.045 A 
DOCKED: ATOM     21  C   UNL d   1       0.190  17.950 -17.658 -0.09 -0.04    +0.057 C 
DOCKED: ATOM     22  C   UNL d   1       2.269  15.048 -17.673 -0.09 +0.01    -0.019 A 
DOCKED: ATOM     23  C   UNL d   1       2.404  15.498 -16.273 -0.09 -0.04    +0.045 A 
DOCKED: ATOM     24  C   UNL d   1       1.443  15.901 -18.324 -0.07 +0.02    -0.022 A 
DOCKED: ATOM     25  C   UNL d   1       3.364  15.303 -14.003 -0.12 -0.01    +0.049 A 
DOCKED: ATOM     26  C   UNL d   1       4.011  15.591 -11.834 -0.37 +0.00    -0.018 A 
DOCKED: ATOM     27  C   UNL d   1       4.425  15.137 -13.124 -0.27 -0.00    +0.003 A 
DOCKED: ATOM     28  C   UNL d   1       3.166  14.892 -15.350 -0.14 -0.02    +0.052 C 
DOCKED: ATOM     29  C   UNL d   1       1.010  15.875 -19.750 -0.04 -0.02    +0.046 C 
DOCKED: ATOM     30  C   UNL d   1       4.822  15.574 -10.583 -0.26 -0.01    +0.046 C 
DOCKED: ATOM     31  H   UNL d   1       1.547  17.230 -15.388 -0.00 -0.14    +0.166 HD
DOCKED: ATOM     32  H   UNL d   1       1.434  16.140 -13.652 +0.01 -0.12    +0.166 HD
DOCKED: ENDROOT
DOCKED: BRANCH   7  33
DOCKED: ATOM     33  C   UNL d   1       0.670  18.709  -9.012 -0.29 -0.04    +0.141 C 
DOCKED: BRANCH  33  34
DOCKED: ATOM     34  C   UNL d   1       0.693  20.209  -9.132 -0.25 -0.09    +0.306 C 
DOCKED: ATOM     35  O   UNL d   1       1.511  20.870  -9.748 -0.14 +0.07    -0.251 OA
DOCKED: BRANCH  34  36
DOCKED: ATOM     36  O   UNL d   1      -0.320  20.797  -8.469 -0.70 +0.13    -0.481 OA
DOCKED: ATOM     37  H   UNL d   1      -1.085  20.199  -8.608 -0.34 -0.18    +0.295 HD
DOCKED: ENDBRANCH  34  36
DOCKED: ENDBRANCH  33  34
DOCKED: ENDBRANCH   7  33
DOCKED: BRANCH  27  38
DOCKED: ATOM     38  C   UNL d   1       5.702  14.566 -13.427 -0.31 +0.00    +0.017 C 
DOCKED: ATOM     39  C   UNL d   1       5.945  13.258 -13.599 -0.31 +0.02    +0.092 C 
DOCKED: BRANCH  39  40
DOCKED: ATOM     40  C   UNL d   1       7.299  12.802 -13.924 -0.18 +0.10    +0.330 C 
DOCKED: ATOM     41  O   UNL d   1       8.327  13.031 -13.315 -0.16 -0.06    -0.246 OA
DOCKED: BRANCH  40  42
DOCKED: ATOM     42  O   UNL d   1       7.279  12.049 -15.035 -0.55 -0.27    -0.477 OA
DOCKED: ATOM     43  H   UNL d   1       6.462  12.332 -15.495 +0.08 +0.14    +0.295 HD
DOCKED: ENDBRANCH  40  42
DOCKED: ENDBRANCH  39  40
DOCKED: ENDBRANCH  27  38
DOCKED: BRANCH   8  44
DOCKED: ATOM     44  C   UNL d   1      -2.728  21.155 -15.572 -0.02 -0.03    +0.141 C 
DOCKED: BRANCH  44  45
DOCKED: ATOM     45  C   UNL d   1      -3.556  19.902 -15.681 -0.04 -0.11    +0.306 C 
DOCKED: ATOM     46  O   UNL d   1      -3.990  19.235 -14.758 -0.11 +0.10    -0.251 OA
DOCKED: BRANCH  45  47
DOCKED: ATOM     47  O   UNL d   1      -3.773  19.538 -16.958 -0.01 +0.18    -0.481 OA
DOCKED: ATOM     48  H   UNL d   1      -3.102  20.033 -17.474 +0.02 -0.10    +0.295 HD
DOCKED: ENDBRANCH  45  47
DOCKED: ENDBRANCH  44  45
DOCKED: ENDBRANCH   8  44
DOCKED: BRANCH  22  49
DOCKED: ATOM     49  C   UNL d   1       2.940  13.829 -18.235 -0.08 -0.02    +0.048 C 
DOCKED: BRANCH  49  50
DOCKED: ATOM     50  C   UNL d   1       4.448  14.027 -18.382 -0.03 -0.02    +0.125 C 
DOCKED: BRANCH  50  51
DOCKED: ATOM     51  C   UNL d   1       5.193  13.300 -17.298 -0.05 +0.01    +0.305 C 
DOCKED: ATOM     52  O   UNL d   1       4.967  12.187 -16.859 -0.15 -0.06    -0.251 OA
DOCKED: BRANCH  51  53
DOCKED: ATOM     53  O   UNL d   1       6.205  14.038 -16.800 -0.00 -0.01    -0.481 OA
DOCKED: ATOM     54  H   UNL d   1       6.940  13.398 -16.700 +0.05 +0.03    +0.295 HD
DOCKED: ENDBRANCH  51  53
DOCKED: ENDBRANCH  50  51
DOCKED: ENDBRANCH  49  50
DOCKED: ENDBRANCH  22  49
DOCKED: TORSDOF 13
DOCKED: TER
DOCKED: ENDMDL
________________________________________________________________________________


	BEGINNING GENETIC ALGORITHM DOCKING 63 of 100
Run: 63 Seed: 741177246 1236194602 [ Run 63 of 100 GA/GALS ]
Beginning LAMARCKIAN GENETIC ALGORITHM (LGA), with a maximum of 25000000 energy evaluations.

Final-Value: -11.376


	FINAL GENETIC ALGORITHM DOCKED STATE
	_______________________________________________


Detailed state:  trans 13.696 8.590 -9.528 quatxyzw 0.865993 -0.225131 0.388291 -0.220458 center 0.153 0.018 -0.028 ntor 13 138.4225 -171.0771 -114.6188 -65.6145 53.0173 -74.9366 132.4106 -102.7784 -95.4382 -34.0032 -104.3277 22.5141 -5.0310
State:	 13.696   8.590  -9.528   0.888 -0.231  0.398 -154.528    138.42 -171.08 -114.62  -65.61   53.02  -74.94  132.41 -102.78  -95.44  -34.00 -104.33   22.51   -5.03

DOCKED: MODEL       63
DOCKED: USER    Run = 63
DOCKED: USER    DPF = D:/Protein_go_brrr/autodock/final/mut_K82N/heme/dock.dpf
DOCKED: USER  
DOCKED: USER    Estimated Free Energy of Binding    =   -3.61 kcal/mol  [=(1)+(2)+(3)-(4)]
DOCKED: USER    Estimated Inhibition Constant, Ki   =    2.28 mM (millimolar)  [Temperature = 298.15 K]
DOCKED: USER    
DOCKED: USER    (1) Final Intermolecular Energy     =   -7.48 kcal/mol
DOCKED: USER        vdW + Hbond + desolv Energy     =   -7.09 kcal/mol
DOCKED: USER        Electrostatic Energy            =   -0.39 kcal/mol
DOCKED: USER    (2) Final Total Internal Energy     =   -3.89 kcal/mol
DOCKED: USER    (3) Torsional Free Energy           =   +3.88 kcal/mol
DOCKED: USER    (4) Unbound System's Energy  [=(2)] =   -3.89 kcal/mol
DOCKED: USER    
DOCKED: USER    
DOCKED: USER    NEWDPF move heme_opt.pdbqt
DOCKED: USER    NEWDPF about 0.153000 0.018000 -0.028000
DOCKED: USER    NEWDPF tran0 13.695519 8.590410 -9.527838
DOCKED: USER    NEWDPF quaternion0 0.865993 -0.225131 0.388291 -0.220458
DOCKED: USER    NEWDPF axisangle0 0.887837 -0.230809 0.398085 -154.528171
DOCKED: USER    NEWDPF quat0 0.887837 -0.230809 0.398085 -154.528171
DOCKED: USER    NEWDPF dihe0 138.42 -171.08 -114.62 -65.61 53.02 -74.94 132.41 -102.78 -95.44 -34.00 -104.33 22.51 -5.03 
DOCKED: USER  keepresnum = 1 
DOCKED: USER  
DOCKED: REMARK  13 active torsions:
DOCKED: REMARK  status: ('A' for Active; 'I' for Inactive)
DOCKED: REMARK    1  A    between atoms: O_3  and  C_38 
DOCKED: REMARK    2  A    between atoms: O_4  and  C_40 
DOCKED: REMARK    3  A    between atoms: O_7  and  C_46 
DOCKED: REMARK    4  A    between atoms: O_9  and  C_48 
DOCKED: REMARK    5  A    between atoms: C_15  and  C_20 
DOCKED: REMARK    6  A    between atoms: C_16  and  C_23 
DOCKED: REMARK    7  A    between atoms: C_20  and  C_38 
DOCKED: REMARK    8  A    between atoms: C_23  and  C_40 
DOCKED: REMARK    9  A    between atoms: C_32  and  C_41 
DOCKED: REMARK   10  A    between atoms: C_37  and  C_45 
DOCKED: REMARK   11  A    between atoms: C_41  and  C_44 
DOCKED: REMARK   12  A    between atoms: C_44  and  C_46 
DOCKED: REMARK   13  A    between atoms: C_47  and  C_48 
DOCKED: USER                              x       y       z     vdW  Elec       q    Type
DOCKED: USER                           _______ _______ _______ _____ _____    ______ ____
DOCKED: ROOT
DOCKED: ATOM      1  O   UNL d   1       9.769   8.103 -13.898 -0.21 -0.09    -0.289 OA
DOCKED: ATOM      2  O   UNL d   1      13.923  13.934 -11.632 -0.02 +0.01    -0.289 OA
DOCKED: ATOM      3  N   UNL d   1      11.864   7.954 -11.162 -0.19 +0.02    -0.247 NA
DOCKED: ATOM      4  N   UNL d   1      13.273  10.568 -11.237 -0.14 +0.00    -0.247 NA
DOCKED: ATOM      5  N   UNL d   1      15.141   9.511  -9.324 -0.07 +0.02    -0.354 N 
DOCKED: ATOM      6  N   UNL d   1      13.684   6.795  -9.267 -0.10 +0.04    -0.354 N 
DOCKED: ATOM      7  C   UNL d   1      10.494   6.328 -12.382 -0.19 -0.02    +0.084 A 
DOCKED: ATOM      8  C   UNL d   1      12.120  12.429 -12.322 -0.15 +0.00    +0.084 A 
DOCKED: ATOM      9  C   UNL d   1      12.166  10.940 -11.966 -0.21 +0.00    +0.058 A 
DOCKED: ATOM     10  C   UNL d   1      11.469   6.628 -11.241 -0.22 -0.01    +0.058 A 
DOCKED: ATOM     11  C   UNL d   1      10.391   7.722 -12.924 -0.17 +0.01    +0.193 A 
DOCKED: ATOM     12  C   UNL d   1      11.247   8.619 -12.084 -0.18 -0.00    +0.109 A 
DOCKED: ATOM     13  C   UNL d   1      13.426  12.827 -11.693 -0.07 -0.00    +0.193 A 
DOCKED: ATOM     14  C   UNL d   1      11.118   5.426 -13.450 -0.11 -0.01    +0.026 C 
DOCKED: ATOM     15  C   UNL d   1      11.232  10.067 -12.374 -0.21 +0.00    +0.055 C 
DOCKED: ATOM     16  C   UNL d   1      10.983  13.153 -11.595 -0.23 +0.00    +0.026 C 
DOCKED: ATOM     17  C   UNL d   1      14.029  11.607 -11.076 -0.11 -0.00    +0.109 A 
DOCKED: ATOM     18  C   UNL d   1      11.824   5.682 -10.351 -0.28 -0.01    +0.050 C 
DOCKED: ATOM     19  C   UNL d   1      12.651   5.887  -9.218 -0.18 -0.01    +0.045 A 
DOCKED: ATOM     20  C   UNL d   1      15.780  10.677  -9.658 -0.08 -0.00    +0.045 A 
DOCKED: ATOM     21  C   UNL d   1      15.342  11.684 -10.420 -0.08 -0.00    +0.057 C 
DOCKED: ATOM     22  C   UNL d   1      17.155   9.439  -8.318 -0.03 +0.00    -0.019 A 
DOCKED: ATOM     23  C   UNL d   1      15.893   8.699  -8.518 -0.09 -0.00    +0.045 A 
DOCKED: ATOM     24  C   UNL d   1      17.082  10.610  -8.994 -0.03 +0.00    -0.022 A 
DOCKED: ATOM     25  C   UNL d   1      14.409   6.767  -8.098 -0.15 -0.00    +0.049 A 
DOCKED: ATOM     26  C   UNL d   1      12.683   5.279  -7.972 -0.29 +0.00    -0.018 A 
DOCKED: ATOM     27  C   UNL d   1      13.782   5.853  -7.262 -0.23 -0.00    +0.003 A 
DOCKED: ATOM     28  C   UNL d   1      15.617   7.505  -7.971 -0.11 -0.00    +0.052 C 
DOCKED: ATOM     29  C   UNL d   1      18.096  11.698  -9.089 -0.01 -0.00    +0.046 C 
DOCKED: ATOM     30  C   UNL d   1      11.748   4.232  -7.469 -0.27 -0.02    +0.046 C 
DOCKED: ATOM     31  H   UNL d   1      14.180   9.341  -9.599 +0.03 -0.01    +0.166 HD
DOCKED: ATOM     32  H   UNL d   1      13.890   7.366 -10.078 +0.03 -0.02    +0.166 HD
DOCKED: ENDROOT
DOCKED: BRANCH   7  33
DOCKED: ATOM     33  C   UNL d   1       9.115   5.816 -11.950 -0.35 -0.05    +0.141 C 
DOCKED: BRANCH  33  34
DOCKED: ATOM     34  C   UNL d   1       9.200   4.710 -10.934 -0.31 -0.15    +0.306 C 
DOCKED: ATOM     35  O   UNL d   1       8.931   4.800  -9.748 -0.84 +0.08    -0.251 OA
DOCKED: BRANCH  34  36
DOCKED: ATOM     36  O   UNL d   1       9.617   3.548 -11.466 -0.11 +0.44    -0.481 OA
DOCKED: ATOM     37  H   UNL d   1       9.114   3.465 -12.304 -0.09 -0.57    +0.295 HD
DOCKED: ENDBRANCH  34  36
DOCKED: ENDBRANCH  33  34
DOCKED: ENDBRANCH   7  33
DOCKED: BRANCH  27  38
DOCKED: ATOM     38  C   UNL d   1      14.183   5.497  -5.935 -0.24 -0.00    +0.017 C 
DOCKED: ATOM     39  C   UNL d   1      14.247   6.340  -4.893 -0.20 +0.00    +0.092 C 
DOCKED: BRANCH  39  40
DOCKED: ATOM     40  C   UNL d   1      14.658   5.844  -3.576 -0.10 +0.03    +0.330 C 
DOCKED: ATOM     41  O   UNL d   1      13.995   5.203  -2.783 -0.41 -0.06    -0.246 OA
DOCKED: BRANCH  40  42
DOCKED: ATOM     42  O   UNL d   1      15.931   6.189  -3.330 -0.01 -0.01    -0.477 OA
DOCKED: ATOM     43  H   UNL d   1      16.154   6.801  -4.061 +0.05 -0.00    +0.295 HD
DOCKED: ENDBRANCH  40  42
DOCKED: ENDBRANCH  39  40
DOCKED: ENDBRANCH  27  38
DOCKED: BRANCH   8  44
DOCKED: ATOM     44  C   UNL d   1      12.113  12.750 -13.821 -0.05 +0.00    +0.141 C 
DOCKED: BRANCH  44  45
DOCKED: ATOM     45  C   UNL d   1      13.488  12.768 -14.431 -0.00 -0.01    +0.306 C 
DOCKED: ATOM     46  O   UNL d   1      14.086  11.816 -14.904 -0.00 +0.01    -0.251 OA
DOCKED: BRANCH  45  47
DOCKED: ATOM     47  O   UNL d   1      14.055  13.987 -14.390 +0.00 +0.02    -0.481 OA
DOCKED: ATOM     48  H   UNL d   1      14.168  14.175 -13.434 +0.01 -0.01    +0.295 HD
DOCKED: ENDBRANCH  45  47
DOCKED: ENDBRANCH  44  45
DOCKED: ENDBRANCH   8  44
DOCKED: BRANCH  22  49
DOCKED: ATOM     49  C   UNL d   1      18.309   8.932  -7.504 -0.01 -0.00    +0.048 C 
DOCKED: BRANCH  49  50
DOCKED: ATOM     50  C   UNL d   1      18.184   9.325  -6.032 -0.01 -0.01    +0.125 C 
DOCKED: BRANCH  50  51
DOCKED: ATOM     51  C   UNL d   1      17.175   8.461  -5.331 -0.01 -0.01    +0.305 C 
DOCKED: ATOM     52  O   UNL d   1      16.070   8.784  -4.930 -0.05 +0.01    -0.251 OA
DOCKED: BRANCH  51  53
DOCKED: ATOM     53  O   UNL d   1      17.625   7.203  -5.153 +0.00 +0.02    -0.481 OA
DOCKED: ATOM     54  H   UNL d   1      17.710   7.115  -4.181 +0.02 -0.01    +0.295 HD
DOCKED: ENDBRANCH  51  53
DOCKED: ENDBRANCH  50  51
DOCKED: ENDBRANCH  49  50
DOCKED: ENDBRANCH  22  49
DOCKED: TORSDOF 13
DOCKED: TER
DOCKED: ENDMDL
________________________________________________________________________________


	BEGINNING GENETIC ALGORITHM DOCKING 64 of 100
Run: 64 Seed: 808885479 2077442231 [ Run 64 of 100 GA/GALS ]
Beginning LAMARCKIAN GENETIC ALGORITHM (LGA), with a maximum of 25000000 energy evaluations.

Final-Value: -10.959


	FINAL GENETIC ALGORITHM DOCKED STATE
	_______________________________________________


Detailed state:  trans 13.715 8.653 -7.750 quatxyzw -0.538399 -0.466394 -0.452553 0.536468 center 0.153 0.018 -0.028 ntor 13 172.2936 -143.6544 -132.9184 -139.7055 70.3061 -31.0217 123.2237 -13.7032 151.4491 -22.7713 131.1547 10.7363 33.8261
State:	 13.715   8.653  -7.750  -0.638 -0.553 -0.536 115.113    172.29 -143.65 -132.92 -139.71   70.31  -31.02  123.22  -13.70  151.45  -22.77  131.15   10.74   33.83

DOCKED: MODEL       64
DOCKED: USER    Run = 64
DOCKED: USER    DPF = D:/Protein_go_brrr/autodock/final/mut_K82N/heme/dock.dpf
DOCKED: USER  
DOCKED: USER    Estimated Free Energy of Binding    =   -3.16 kcal/mol  [=(1)+(2)+(3)-(4)]
DOCKED: USER    Estimated Inhibition Constant, Ki   =    4.85 mM (millimolar)  [Temperature = 298.15 K]
DOCKED: USER    
DOCKED: USER    (1) Final Intermolecular Energy     =   -7.03 kcal/mol
DOCKED: USER        vdW + Hbond + desolv Energy     =   -6.89 kcal/mol
DOCKED: USER        Electrostatic Energy            =   -0.15 kcal/mol
DOCKED: USER    (2) Final Total Internal Energy     =   -3.92 kcal/mol
DOCKED: USER    (3) Torsional Free Energy           =   +3.88 kcal/mol
DOCKED: USER    (4) Unbound System's Energy  [=(2)] =   -3.92 kcal/mol
DOCKED: USER    
DOCKED: USER    
DOCKED: USER    NEWDPF move heme_opt.pdbqt
DOCKED: USER    NEWDPF about 0.153000 0.018000 -0.028000
DOCKED: USER    NEWDPF tran0 13.715228 8.652551 -7.750171
DOCKED: USER    NEWDPF quaternion0 -0.538399 -0.466394 -0.452553 0.536468
DOCKED: USER    NEWDPF axisangle0 -0.637974 -0.552652 -0.536251 115.112906
DOCKED: USER    NEWDPF quat0 -0.637974 -0.552652 -0.536251 115.112906
DOCKED: USER    NEWDPF dihe0 172.29 -143.65 -132.92 -139.71 70.31 -31.02 123.22 -13.70 151.45 -22.77 131.15 10.74 33.83 
DOCKED: USER  keepresnum = 1 
DOCKED: USER  
DOCKED: REMARK  13 active torsions:
DOCKED: REMARK  status: ('A' for Active; 'I' for Inactive)
DOCKED: REMARK    1  A    between atoms: O_3  and  C_38 
DOCKED: REMARK    2  A    between atoms: O_4  and  C_40 
DOCKED: REMARK    3  A    between atoms: O_7  and  C_46 
DOCKED: REMARK    4  A    between atoms: O_9  and  C_48 
DOCKED: REMARK    5  A    between atoms: C_15  and  C_20 
DOCKED: REMARK    6  A    between atoms: C_16  and  C_23 
DOCKED: REMARK    7  A    between atoms: C_20  and  C_38 
DOCKED: REMARK    8  A    between atoms: C_23  and  C_40 
DOCKED: REMARK    9  A    between atoms: C_32  and  C_41 
DOCKED: REMARK   10  A    between atoms: C_37  and  C_45 
DOCKED: REMARK   11  A    between atoms: C_41  and  C_44 
DOCKED: REMARK   12  A    between atoms: C_44  and  C_46 
DOCKED: REMARK   13  A    between atoms: C_47  and  C_48 
DOCKED: USER                              x       y       z     vdW  Elec       q    Type
DOCKED: USER                           _______ _______ _______ _____ _____    ______ ____
DOCKED: ROOT
DOCKED: ATOM      1  O   UNL d   1      13.512   3.027  -5.998 -0.17 +0.01    -0.289 OA
DOCKED: ATOM      2  O   UNL d   1      11.662   6.222 -12.537 -0.06 +0.06    -0.289 OA
DOCKED: ATOM      3  N   UNL d   1      13.674   6.432  -6.526 -0.16 +0.01    -0.247 NA
DOCKED: ATOM      4  N   UNL d   1      13.064   6.704  -9.421 -0.12 +0.03    -0.247 NA
DOCKED: ATOM      5  N   UNL d   1      14.009   9.415  -9.270 +0.02 +0.01    -0.354 N 
DOCKED: ATOM      6  N   UNL d   1      14.657   9.118  -6.272 -0.03 +0.02    -0.354 N 
DOCKED: ATOM      7  C   UNL d   1      14.329   4.932  -4.701 -0.17 +0.00    +0.084 A 
DOCKED: ATOM      8  C   UNL d   1      11.714   4.946 -10.449 -0.21 -0.03    +0.084 A 
DOCKED: ATOM      9  C   UNL d   1      12.466   5.480  -9.225 -0.22 -0.01    +0.058 A 
DOCKED: ATOM     10  C   UNL d   1      14.247   6.352  -5.267 -0.21 -0.00    +0.058 A 
DOCKED: ATOM     11  C   UNL d   1      13.685   4.224  -5.855 -0.17 -0.01    +0.193 A 
DOCKED: ATOM     12  C   UNL d   1      13.310   5.244  -6.885 -0.24 -0.01    +0.109 A 
DOCKED: ATOM     13  C   UNL d   1      12.029   6.076 -11.387 -0.12 -0.04    +0.193 A 
DOCKED: ATOM     14  C   UNL d   1      15.776   4.449  -4.569 -0.06 +0.00    +0.026 C 
DOCKED: ATOM     15  C   UNL d   1      12.572   4.788  -8.080 -0.33 -0.02    +0.055 C 
DOCKED: ATOM     16  C   UNL d   1      10.201   4.907 -10.214 -0.43 -0.01    +0.026 C 
DOCKED: ATOM     17  C   UNL d   1      12.859   7.072 -10.645 -0.19 -0.01    +0.109 A 
DOCKED: ATOM     18  C   UNL d   1      14.623   7.421  -4.541 -0.20 -0.00    +0.050 C 
DOCKED: ATOM     19  C   UNL d   1      14.505   8.775  -4.947 -0.23 -0.00    +0.045 A 
DOCKED: ATOM     20  C   UNL d   1      13.885   9.284 -10.629 -0.19 -0.00    +0.045 A 
DOCKED: ATOM     21  C   UNL d   1      13.357   8.275 -11.329 -0.20 -0.00    +0.057 C 
DOCKED: ATOM     22  C   UNL d   1      14.886  11.285 -10.169 -0.12 +0.00    -0.019 A 
DOCKED: ATOM     23  C   UNL d   1      14.603  10.591  -8.897 -0.02 -0.00    +0.045 A 
DOCKED: ATOM     24  C   UNL d   1      14.458  10.507 -11.191 -0.12 +0.00    -0.022 A 
DOCKED: ATOM     25  C   UNL d   1      14.594  10.484  -6.427 -0.00 -0.00    +0.049 A 
DOCKED: ATOM     26  C   UNL d   1      14.302   9.943  -4.229 -0.28 +0.00    -0.018 A 
DOCKED: ATOM     27  C   UNL d   1      14.340  11.017  -5.171 -0.26 -0.00    +0.003 A 
DOCKED: ATOM     28  C   UNL d   1      14.879  11.088  -7.681 -0.12 -0.00    +0.052 C 
DOCKED: ATOM     29  C   UNL d   1      14.512  10.777 -12.656 -0.05 -0.00    +0.046 C 
DOCKED: ATOM     30  C   UNL d   1      14.084  10.058  -2.758 -0.30 -0.01    +0.046 C 
DOCKED: ATOM     31  H   UNL d   1      13.616   8.727  -8.637 +0.08 -0.01    +0.166 HD
DOCKED: ATOM     32  H   UNL d   1      14.832   8.445  -7.008 +0.04 -0.01    +0.166 HD
DOCKED: ENDROOT
DOCKED: BRANCH   7  33
DOCKED: ATOM     33  C   UNL d   1      13.536   4.691  -3.412 -0.19 +0.02    +0.141 C 
DOCKED: BRANCH  33  34
DOCKED: ATOM     34  C   UNL d   1      14.000   3.469  -2.666 -0.14 +0.08    +0.306 C 
DOCKED: ATOM     35  O   UNL d   1      14.370   3.432  -1.505 -0.08 -0.05    -0.251 OA
DOCKED: BRANCH  34  36
DOCKED: ATOM     36  O   UNL d   1      13.972   2.358  -3.423 -0.57 -0.31    -0.481 OA
DOCKED: ATOM     37  H   UNL d   1      13.488   2.624  -4.233 +0.10 +0.19    +0.295 HD
DOCKED: ENDBRANCH  34  36
DOCKED: ENDBRANCH  33  34
DOCKED: ENDBRANCH   7  33
DOCKED: BRANCH  27  38
DOCKED: ATOM     38  C   UNL d   1      14.188  12.404  -4.848 -0.25 -0.00    +0.017 C 
DOCKED: ATOM     39  C   UNL d   1      13.388  13.266  -5.494 -0.28 -0.01    +0.092 C 
DOCKED: BRANCH  39  40
DOCKED: ATOM     40  C   UNL d   1      13.310  14.661  -5.051 -0.11 -0.03    +0.330 C 
DOCKED: ATOM     41  O   UNL d   1      13.407  15.087  -3.916 -0.10 +0.03    -0.246 OA
DOCKED: BRANCH  40  42
DOCKED: ATOM     42  O   UNL d   1      13.118  15.470  -6.105 -0.04 +0.03    -0.477 OA
DOCKED: ATOM     43  H   UNL d   1      12.531  14.952  -6.693 +0.10 -0.00    +0.295 HD
DOCKED: ENDBRANCH  40  42
DOCKED: ENDBRANCH  39  40
DOCKED: ENDBRANCH  27  38
DOCKED: BRANCH   8  44
DOCKED: ATOM     44  C   UNL d   1      12.223   3.612 -11.006 -0.13 -0.06    +0.141 C 
DOCKED: BRANCH  44  45
DOCKED: ATOM     45  C   UNL d   1      13.544   3.731 -11.718 -0.02 -0.09    +0.306 C 
DOCKED: ATOM     46  O   UNL d   1      14.645   3.800 -11.200 -0.01 +0.05    -0.251 OA
DOCKED: BRANCH  45  47
DOCKED: ATOM     47  O   UNL d   1      13.406   3.784 -13.055 +0.01 +0.13    -0.481 OA
DOCKED: ATOM     48  H   UNL d   1      12.684   4.432 -13.204 +0.05 -0.09    +0.295 HD
DOCKED: ENDBRANCH  45  47
DOCKED: ENDBRANCH  44  45
DOCKED: ENDBRANCH   8  44
DOCKED: BRANCH  22  49
DOCKED: ATOM     49  C   UNL d   1      15.556  12.624 -10.268 -0.05 -0.00    +0.048 C 
DOCKED: BRANCH  49  50
DOCKED: ATOM     50  C   UNL d   1      14.911  13.653  -9.339 -0.07 -0.00    +0.125 C 
DOCKED: BRANCH  50  51
DOCKED: ATOM     51  C   UNL d   1      13.415  13.638  -9.480 -0.11 -0.00    +0.305 C 
DOCKED: ATOM     52  O   UNL d   1      12.760  13.200 -10.410 -0.14 -0.00    -0.251 OA
DOCKED: BRANCH  51  53
DOCKED: ATOM     53  O   UNL d   1      12.803  14.202  -8.419 -0.09 -0.00    -0.481 OA
DOCKED: ATOM     54  H   UNL d   1      13.366  14.975  -8.203 +0.07 -0.01    +0.295 HD
DOCKED: ENDBRANCH  51  53
DOCKED: ENDBRANCH  50  51
DOCKED: ENDBRANCH  49  50
DOCKED: ENDBRANCH  22  49
DOCKED: TORSDOF 13
DOCKED: TER
DOCKED: ENDMDL
________________________________________________________________________________


	BEGINNING GENETIC ALGORITHM DOCKING 65 of 100
Run: 65 Seed: 1919675425 1263092455 [ Run 65 of 100 GA/GALS ]
Beginning LAMARCKIAN GENETIC ALGORITHM (LGA), with a maximum of 25000000 energy evaluations.

Final-Value: -12.426


	FINAL GENETIC ALGORITHM DOCKED STATE
	_______________________________________________


Detailed state:  trans 11.831 5.256 10.681 quatxyzw -0.768563 -0.339387 0.534902 0.089484 center 0.153 0.018 -0.028 ntor 13 -105.7398 170.4296 -179.8979 33.4834 53.1684 44.9906 -54.9197 88.1509 150.7780 -124.1618 -68.7358 -81.4537 -7.8498
State:	 11.831   5.256  10.681  -0.772 -0.341  0.537 169.732   -105.74  170.43 -179.90   33.48   53.17   44.99  -54.92   88.15  150.78 -124.16  -68.74  -81.45   -7.85

DOCKED: MODEL       65
DOCKED: USER    Run = 65
DOCKED: USER    DPF = D:/Protein_go_brrr/autodock/final/mut_K82N/heme/dock.dpf
DOCKED: USER  
DOCKED: USER    Estimated Free Energy of Binding    =   -4.29 kcal/mol  [=(1)+(2)+(3)-(4)]
DOCKED: USER    Estimated Inhibition Constant, Ki   =  722.80 uM (micromolar)  [Temperature = 298.15 K]
DOCKED: USER    
DOCKED: USER    (1) Final Intermolecular Energy     =   -8.16 kcal/mol
DOCKED: USER        vdW + Hbond + desolv Energy     =   -8.06 kcal/mol
DOCKED: USER        Electrostatic Energy            =   -0.11 kcal/mol
DOCKED: USER    (2) Final Total Internal Energy     =   -4.26 kcal/mol
DOCKED: USER    (3) Torsional Free Energy           =   +3.88 kcal/mol
DOCKED: USER    (4) Unbound System's Energy  [=(2)] =   -4.26 kcal/mol
DOCKED: USER    
DOCKED: USER    
DOCKED: USER    NEWDPF move heme_opt.pdbqt
DOCKED: USER    NEWDPF about 0.153000 0.018000 -0.028000
DOCKED: USER    NEWDPF tran0 11.830727 5.256450 10.681414
DOCKED: USER    NEWDPF quaternion0 -0.768563 -0.339387 0.534902 0.089484
DOCKED: USER    NEWDPF axisangle0 -0.771659 -0.340754 0.537057 169.732190
DOCKED: USER    NEWDPF quat0 -0.771659 -0.340754 0.537057 169.732190
DOCKED: USER    NEWDPF dihe0 -105.74 170.43 -179.90 33.48 53.17 44.99 -54.92 88.15 150.78 -124.16 -68.74 -81.45 -7.85 
DOCKED: USER  keepresnum = 1 
DOCKED: USER  
DOCKED: REMARK  13 active torsions:
DOCKED: REMARK  status: ('A' for Active; 'I' for Inactive)
DOCKED: REMARK    1  A    between atoms: O_3  and  C_38 
DOCKED: REMARK    2  A    between atoms: O_4  and  C_40 
DOCKED: REMARK    3  A    between atoms: O_7  and  C_46 
DOCKED: REMARK    4  A    between atoms: O_9  and  C_48 
DOCKED: REMARK    5  A    between atoms: C_15  and  C_20 
DOCKED: REMARK    6  A    between atoms: C_16  and  C_23 
DOCKED: REMARK    7  A    between atoms: C_20  and  C_38 
DOCKED: REMARK    8  A    between atoms: C_23  and  C_40 
DOCKED: REMARK    9  A    between atoms: C_32  and  C_41 
DOCKED: REMARK   10  A    between atoms: C_37  and  C_45 
DOCKED: REMARK   11  A    between atoms: C_41  and  C_44 
DOCKED: REMARK   12  A    between atoms: C_44  and  C_46 
DOCKED: REMARK   13  A    between atoms: C_47  and  C_48 
DOCKED: USER                              x       y       z     vdW  Elec       q    Type
DOCKED: USER                           _______ _______ _______ _____ _____    ______ ____
DOCKED: ROOT
DOCKED: ATOM      1  O   UNL d   1      11.273   1.269  14.988 -0.27 +0.09    -0.289 OA
DOCKED: ATOM      2  O   UNL d   1       9.517   8.567  14.770 -0.60 -0.03    -0.289 OA
DOCKED: ATOM      3  N   UNL d   1      11.916   3.265  12.249 -0.08 +0.01    -0.247 NA
DOCKED: ATOM      4  N   UNL d   1      10.624   5.843  12.964 -0.18 +0.02    -0.247 NA
DOCKED: ATOM      5  N   UNL d   1      10.914   6.644  10.218 -0.09 -0.00    -0.354 N 
DOCKED: ATOM      6  N   UNL d   1      12.236   3.958   9.481 -0.07 +0.01    -0.354 N 
DOCKED: ATOM      7  C   UNL d   1      12.112   0.869  12.727 -0.28 -0.02    +0.084 A 
DOCKED: ATOM      8  C   UNL d   1      10.378   6.349  15.343 -0.20 -0.01    +0.084 A 
DOCKED: ATOM      9  C   UNL d   1      10.781   5.359  14.244 -0.22 -0.01    +0.058 A 
DOCKED: ATOM     10  C   UNL d   1      12.271   2.027  11.739 -0.20 -0.01    +0.058 A 
DOCKED: ATOM     11  C   UNL d   1      11.621   1.673  13.894 -0.22 -0.04    +0.193 A 
DOCKED: ATOM     12  C   UNL d   1      11.570   3.113  13.486 -0.16 -0.01    +0.109 A 
DOCKED: ATOM     13  C   UNL d   1       9.929   7.470  14.449 -0.20 -0.00    +0.193 A 
DOCKED: ATOM     14  C   UNL d   1      11.011  -0.105  12.299 -0.02 -0.01    +0.026 C 
DOCKED: ATOM     15  C   UNL d   1      11.200   4.112  14.509 -0.25 -0.01    +0.055 C 
DOCKED: ATOM     16  C   UNL d   1      11.589   6.820  16.153 -0.08 -0.00    +0.026 C 
DOCKED: ATOM     17  C   UNL d   1      10.122   7.034  13.033 -0.21 +0.00    +0.109 A 
DOCKED: ATOM     18  C   UNL d   1      12.800   1.840  10.515 -0.22 -0.01    +0.050 C 
DOCKED: ATOM     19  C   UNL d   1      13.063   2.861   9.567 -0.14 -0.00    +0.045 A 
DOCKED: ATOM     20  C   UNL d   1      10.110   7.656  10.675 -0.26 +0.00    +0.045 A 
DOCKED: ATOM     21  C   UNL d   1       9.724   7.919  11.928 -0.08 +0.01    +0.057 C 
DOCKED: ATOM     22  C   UNL d   1      10.326   7.850   8.409 -0.23 -0.00    -0.019 A 
DOCKED: ATOM     23  C   UNL d   1      11.102   6.678   8.862 -0.19 +0.00    +0.045 A 
DOCKED: ATOM     24  C   UNL d   1       9.742   8.425   9.487 -0.28 -0.00    -0.022 A 
DOCKED: ATOM     25  C   UNL d   1      12.620   4.773   8.441 -0.12 -0.00    +0.049 A 
DOCKED: ATOM     26  C   UNL d   1      14.030   2.984   8.582 -0.08 +0.00    -0.018 A 
DOCKED: ATOM     27  C   UNL d   1      13.758   4.203   7.887 -0.08 -0.00    +0.003 A 
DOCKED: ATOM     28  C   UNL d   1      11.825   5.887   8.055 -0.11 +0.00    +0.052 C 
DOCKED: ATOM     29  C   UNL d   1       8.873   9.635   9.542 -0.22 +0.03    +0.046 C 
DOCKED: ATOM     30  C   UNL d   1      15.143   2.031   8.303 -0.07 +0.00    +0.046 C 
DOCKED: ATOM     31  H   UNL d   1      11.370   6.004  10.860 +0.06 -0.00    +0.166 HD
DOCKED: ATOM     32  H   UNL d   1      11.435   4.105  10.084 +0.07 -0.00    +0.166 HD
DOCKED: ENDROOT
DOCKED: BRANCH   7  33
DOCKED: ATOM     33  C   UNL d   1      13.406   0.131  13.089 -0.22 -0.03    +0.141 C 
DOCKED: BRANCH  33  34
DOCKED: ATOM     34  C   UNL d   1      13.151  -1.227  13.685 -0.29 -0.07    +0.306 C 
DOCKED: ATOM     35  O   UNL d   1      13.342  -2.300  13.138 -0.38 +0.05    -0.251 OA
DOCKED: BRANCH  34  36
DOCKED: ATOM     36  O   UNL d   1      12.672  -1.161  14.940 -0.18 +0.12    -0.481 OA
DOCKED: ATOM     37  H   UNL d   1      11.753  -0.835  14.836 -0.34 -0.18    +0.295 HD
DOCKED: ENDBRANCH  34  36
DOCKED: ENDBRANCH  33  34
DOCKED: ENDBRANCH   7  33
DOCKED: BRANCH  27  38
DOCKED: ATOM     38  C   UNL d   1      14.511   4.707   6.779 -0.05 -0.00    +0.017 C 
DOCKED: ATOM     39  C   UNL d   1      13.987   5.217   5.654 -0.05 -0.00    +0.092 C 
DOCKED: BRANCH  39  40
DOCKED: ATOM     40  C   UNL d   1      14.871   5.717   4.598 -0.02 -0.00    +0.330 C 
DOCKED: ATOM     41  O   UNL d   1      15.891   5.205   4.177 -0.01 +0.00    -0.246 OA
DOCKED: BRANCH  40  42
DOCKED: ATOM     42  O   UNL d   1      14.396   6.873   4.108 -0.00 +0.00    -0.477 OA
DOCKED: ATOM     43  H   UNL d   1      13.506   6.949   4.507 +0.04 +0.00    +0.295 HD
DOCKED: ENDBRANCH  40  42
DOCKED: ENDBRANCH  39  40
DOCKED: ENDBRANCH  27  38
DOCKED: BRANCH   8  44
DOCKED: ATOM     44  C   UNL d   1       9.241   5.889  16.261 -0.13 -0.02    +0.141 C 
DOCKED: BRANCH  44  45
DOCKED: ATOM     45  C   UNL d   1       8.788   6.954  17.224 -0.15 -0.03    +0.306 C 
DOCKED: ATOM     46  O   UNL d   1       9.112   7.062  18.393 -0.08 +0.00    -0.251 OA
DOCKED: BRANCH  45  47
DOCKED: ATOM     47  O   UNL d   1       7.921   7.818  16.665 -0.10 +0.14    -0.481 OA
DOCKED: ATOM     48  H   UNL d   1       7.827   7.511  15.738 -0.40 -0.14    +0.295 HD
DOCKED: ENDBRANCH  45  47
DOCKED: ENDBRANCH  44  45
DOCKED: ENDBRANCH   8  44
DOCKED: BRANCH  22  49
DOCKED: ATOM     49  C   UNL d   1      10.216   8.285   6.977 -0.24 +0.02    +0.048 C 
DOCKED: BRANCH  49  50
DOCKED: ATOM     50  C   UNL d   1      11.300   9.297   6.606 -0.10 +0.03    +0.125 C 
DOCKED: BRANCH  50  51
DOCKED: ATOM     51  C   UNL d   1      12.275   8.704   5.628 -0.04 +0.03    +0.305 C 
DOCKED: ATOM     52  O   UNL d   1      12.148   8.606   4.420 -0.06 -0.02    -0.251 OA
DOCKED: BRANCH  51  53
DOCKED: ATOM     53  O   UNL d   1      13.384   8.242   6.239 -0.00 -0.02    -0.481 OA
DOCKED: ATOM     54  H   UNL d   1      14.098   8.396   5.585 +0.02 +0.01    +0.295 HD
DOCKED: ENDBRANCH  51  53
DOCKED: ENDBRANCH  50  51
DOCKED: ENDBRANCH  49  50
DOCKED: ENDBRANCH  22  49
DOCKED: TORSDOF 13
DOCKED: TER
DOCKED: ENDMDL
________________________________________________________________________________


	BEGINNING GENETIC ALGORITHM DOCKING 66 of 100
Run: 66 Seed: 450628232 371177203 [ Run 66 of 100 GA/GALS ]
Beginning LAMARCKIAN GENETIC ALGORITHM (LGA), with a maximum of 25000000 energy evaluations.

Final-Value: -11.339


	FINAL GENETIC ALGORITHM DOCKED STATE
	_______________________________________________


Detailed state:  trans 11.401 5.533 14.131 quatxyzw 0.415436 0.690887 -0.498733 0.318359 center 0.153 0.018 -0.028 ntor 13 -99.0840 -180.0000 -31.3051 -126.0975 55.6670 121.0825 108.3303 -74.0378 147.3798 11.3477 -152.9030 -115.2662 3.4439
State:	 11.401   5.533  14.131   0.438  0.729 -0.526 142.873    -99.08 -180.00  -31.31 -126.10   55.67  121.08  108.33  -74.04  147.38   11.35 -152.90 -115.27    3.44

DOCKED: MODEL       66
DOCKED: USER    Run = 66
DOCKED: USER    DPF = D:/Protein_go_brrr/autodock/final/mut_K82N/heme/dock.dpf
DOCKED: USER  
DOCKED: USER    Estimated Free Energy of Binding    =   -4.84 kcal/mol  [=(1)+(2)+(3)-(4)]
DOCKED: USER    Estimated Inhibition Constant, Ki   =  285.46 uM (micromolar)  [Temperature = 298.15 K]
DOCKED: USER    
DOCKED: USER    (1) Final Intermolecular Energy     =   -8.71 kcal/mol
DOCKED: USER        vdW + Hbond + desolv Energy     =   -8.48 kcal/mol
DOCKED: USER        Electrostatic Energy            =   -0.24 kcal/mol
DOCKED: USER    (2) Final Total Internal Energy     =   -2.63 kcal/mol
DOCKED: USER    (3) Torsional Free Energy           =   +3.88 kcal/mol
DOCKED: USER    (4) Unbound System's Energy  [=(2)] =   -2.63 kcal/mol
DOCKED: USER    
DOCKED: USER    
DOCKED: USER    NEWDPF move heme_opt.pdbqt
DOCKED: USER    NEWDPF about 0.153000 0.018000 -0.028000
DOCKED: USER    NEWDPF tran0 11.400548 5.532703 14.131022
DOCKED: USER    NEWDPF quaternion0 0.415436 0.690887 -0.498733 0.318359
DOCKED: USER    NEWDPF axisangle0 0.438238 0.728807 -0.526106 142.872527
DOCKED: USER    NEWDPF quat0 0.438238 0.728807 -0.526106 142.872527
DOCKED: USER    NEWDPF dihe0 -99.08 -180.00 -31.31 -126.10 55.67 121.08 108.33 -74.04 147.38 11.35 -152.90 -115.27 3.44 
DOCKED: USER  keepresnum = 1 
DOCKED: USER  
DOCKED: REMARK  13 active torsions:
DOCKED: REMARK  status: ('A' for Active; 'I' for Inactive)
DOCKED: REMARK    1  A    between atoms: O_3  and  C_38 
DOCKED: REMARK    2  A    between atoms: O_4  and  C_40 
DOCKED: REMARK    3  A    between atoms: O_7  and  C_46 
DOCKED: REMARK    4  A    between atoms: O_9  and  C_48 
DOCKED: REMARK    5  A    between atoms: C_15  and  C_20 
DOCKED: REMARK    6  A    between atoms: C_16  and  C_23 
DOCKED: REMARK    7  A    between atoms: C_20  and  C_38 
DOCKED: REMARK    8  A    between atoms: C_23  and  C_40 
DOCKED: REMARK    9  A    between atoms: C_32  and  C_41 
DOCKED: REMARK   10  A    between atoms: C_37  and  C_45 
DOCKED: REMARK   11  A    between atoms: C_41  and  C_44 
DOCKED: REMARK   12  A    between atoms: C_44  and  C_46 
DOCKED: REMARK   13  A    between atoms: C_47  and  C_48 
DOCKED: USER                              x       y       z     vdW  Elec       q    Type
DOCKED: USER                           _______ _______ _______ _____ _____    ______ ____
DOCKED: ROOT
DOCKED: ATOM      1  O   UNL d   1      13.817   0.521  12.183 -0.11 +0.06    -0.289 OA
DOCKED: ATOM      2  O   UNL d   1      12.708   3.072  19.158 -0.12 -0.04    -0.289 OA
DOCKED: ATOM      3  N   UNL d   1      12.465   3.624  12.844 -0.06 +0.02    -0.247 NA
DOCKED: ATOM      4  N   UNL d   1      12.139   3.612  15.797 -0.07 +0.02    -0.247 NA
DOCKED: ATOM      5  N   UNL d   1      10.478   5.943  15.531 -0.10 +0.03    -0.354 N 
DOCKED: ATOM      6  N   UNL d   1      10.805   5.937  12.466 -0.13 +0.02    -0.354 N 
DOCKED: ATOM      7  C   UNL d   1      12.838   2.296  10.818 -0.16 -0.01    +0.084 A 
DOCKED: ATOM      8  C   UNL d   1      13.632   2.164  17.081 -0.07 -0.00    +0.084 A 
DOCKED: ATOM      9  C   UNL d   1      13.119   2.647  15.720 -0.08 -0.00    +0.058 A 
DOCKED: ATOM     10  C   UNL d   1      12.315   3.581  11.468 -0.12 -0.00    +0.058 A 
DOCKED: ATOM     11  C   UNL d   1      13.326   1.629  12.068 -0.10 -0.03    +0.193 A 
DOCKED: ATOM     12  C   UNL d   1      13.067   2.544  13.224 -0.08 -0.01    +0.109 A 
DOCKED: ATOM     13  C   UNL d   1      12.736   3.006  17.945 -0.11 +0.01    +0.193 A 
DOCKED: ATOM     14  C   UNL d   1      11.708   1.456  10.217 -0.31 -0.00    +0.026 C 
DOCKED: ATOM     15  C   UNL d   1      13.552   2.135  14.558 -0.09 -0.00    +0.055 C 
DOCKED: ATOM     16  C   UNL d   1      15.085   2.584  17.322 -0.03 +0.00    +0.026 C 
DOCKED: ATOM     17  C   UNL d   1      11.875   3.832  17.045 -0.14 +0.00    +0.109 A 
DOCKED: ATOM     18  C   UNL d   1      11.840   4.600  10.728 -0.19 -0.00    +0.050 C 
DOCKED: ATOM     19  C   UNL d   1      11.414   5.855  11.234 -0.18 -0.00    +0.045 A 
DOCKED: ATOM     20  C   UNL d   1      10.258   5.647  16.851 -0.15 -0.00    +0.045 A 
DOCKED: ATOM     21  C   UNL d   1      10.860   4.730  17.616 -0.17 +0.00    +0.057 C 
DOCKED: ATOM     22  C   UNL d   1       8.851   7.336  16.229 -0.28 +0.00    -0.019 A 
DOCKED: ATOM     23  C   UNL d   1       9.675   6.950  15.066 -0.28 -0.00    +0.045 A 
DOCKED: ATOM     24  C   UNL d   1       9.202   6.562  17.283 -0.20 +0.00    -0.022 A 
DOCKED: ATOM     25  C   UNL d   1      10.395   7.226  12.717 -0.24 +0.00    +0.049 A 
DOCKED: ATOM     26  C   UNL d   1      11.433   7.128  10.687 -0.13 -0.00    -0.018 A 
DOCKED: ATOM     27  C   UNL d   1      10.806   7.993  11.636 -0.18 +0.00    +0.003 A 
DOCKED: ATOM     28  C   UNL d   1       9.603   7.529  13.857 -0.11 +0.00    +0.052 C 
DOCKED: ATOM     29  C   UNL d   1       8.666   6.581  18.674 -0.17 +0.00    +0.046 C 
DOCKED: ATOM     30  C   UNL d   1      12.001   7.521   9.365 -0.09 +0.00    +0.046 C 
DOCKED: ATOM     31  H   UNL d   1      11.224   5.497  15.009 +0.06 -0.01    +0.166 HD
DOCKED: ATOM     32  H   UNL d   1      10.653   5.138  13.070 +0.06 -0.02    +0.166 HD
DOCKED: ENDROOT
DOCKED: BRANCH   7  33
DOCKED: ATOM     33  C   UNL d   1      13.989   2.484   9.823 -0.09 -0.01    +0.141 C 
DOCKED: BRANCH  33  34
DOCKED: ATOM     34  C   UNL d   1      14.214   1.271   8.962 -0.00 +0.01    +0.306 C 
DOCKED: ATOM     35  O   UNL d   1      13.978   1.181   7.769 -0.46 -0.03    -0.251 OA
DOCKED: BRANCH  34  36
DOCKED: ATOM     36  O   UNL d   1      14.728   0.236   9.650 -0.42 +0.02    -0.481 OA
DOCKED: ATOM     37  H   UNL d   1      13.962  -0.146  10.129 -0.48 -0.09    +0.295 HD
DOCKED: ENDBRANCH  34  36
DOCKED: ENDBRANCH  33  34
DOCKED: ENDBRANCH   7  33
DOCKED: BRANCH  27  38
DOCKED: ATOM     38  C   UNL d   1      10.601   9.400  11.462 -0.17 +0.00    +0.017 C 
DOCKED: ATOM     39  C   UNL d   1       9.442   9.976  11.109 -0.12 +0.02    +0.092 C 
DOCKED: BRANCH  39  40
DOCKED: ATOM     40  C   UNL d   1       9.360  11.433  10.981 -0.12 +0.09    +0.330 C 
DOCKED: ATOM     41  O   UNL d   1       9.085  12.078   9.987 -0.66 -0.15    -0.246 OA
DOCKED: BRANCH  40  42
DOCKED: ATOM     42  O   UNL d   1       9.631  12.016  12.159 -0.05 -0.03    -0.477 OA
DOCKED: ATOM     43  H   UNL d   1       9.803  11.262  12.760 +0.05 +0.01    +0.295 HD
DOCKED: ENDBRANCH  40  42
DOCKED: ENDBRANCH  39  40
DOCKED: ENDBRANCH  27  38
DOCKED: BRANCH   8  44
DOCKED: ATOM     44  C   UNL d   1      13.430   0.673  17.371 -0.14 -0.00    +0.141 C 
DOCKED: BRANCH  44  45
DOCKED: ATOM     45  C   UNL d   1      12.117   0.140  16.862 -0.25 -0.05    +0.306 C 
DOCKED: ATOM     46  O   UNL d   1      11.764   0.069  15.698 -0.25 +0.09    -0.251 OA
DOCKED: BRANCH  45  47
DOCKED: ATOM     47  O   UNL d   1      11.301  -0.251  17.857 -0.26 +0.09    -0.481 OA
DOCKED: ATOM     48  H   UNL d   1      10.397  -0.069  17.522 -0.37 -0.15    +0.295 HD
DOCKED: ENDBRANCH  45  47
DOCKED: ENDBRANCH  44  45
DOCKED: ENDBRANCH   8  44
DOCKED: BRANCH  22  49
DOCKED: ATOM     49  C   UNL d   1       7.798   8.405  16.199 -0.11 -0.02    +0.048 C 
DOCKED: BRANCH  49  50
DOCKED: ATOM     50  C   UNL d   1       8.404   9.803  16.312 -0.12 -0.02    +0.125 C 
DOCKED: BRANCH  50  51
DOCKED: ATOM     51  C   UNL d   1       9.801   9.829  15.760 -0.07 -0.01    +0.305 C 
DOCKED: ATOM     52  O   UNL d   1      10.825   9.465  16.312 -0.03 +0.01    -0.251 OA
DOCKED: BRANCH  51  53
DOCKED: ATOM     53  O   UNL d   1       9.842  10.337  14.512 -0.23 -0.03    -0.481 OA
DOCKED: ATOM     54  H   UNL d   1       9.389  11.203  14.593 +0.04 -0.00    +0.295 HD
DOCKED: ENDBRANCH  51  53
DOCKED: ENDBRANCH  50  51
DOCKED: ENDBRANCH  49  50
DOCKED: ENDBRANCH  22  49
DOCKED: TORSDOF 13
DOCKED: TER
DOCKED: ENDMDL
________________________________________________________________________________


	BEGINNING GENETIC ALGORITHM DOCKING 67 of 100
Run: 67 Seed: 941974773 1312366016 [ Run 67 of 100 GA/GALS ]
Beginning LAMARCKIAN GENETIC ALGORITHM (LGA), with a maximum of 25000000 energy evaluations.

Final-Value: -12.619


	FINAL GENETIC ALGORITHM DOCKED STATE
	_______________________________________________


Detailed state:  trans 3.019 6.669 17.693 quatxyzw -0.223986 0.207559 0.936389 -0.172991 center 0.153 0.018 -0.028 ntor 13 96.1976 -89.8030 112.3225 105.3558 171.3906 16.2072 -46.9015 -178.1658 112.3449 -131.7757 50.5759 54.8033 154.8769
State:	  3.019   6.669  17.693  -0.227  0.211  0.951 -160.076     96.20  -89.80  112.32  105.36  171.39   16.21  -46.90 -178.17  112.34 -131.78   50.58   54.80  154.88

DOCKED: MODEL       67
DOCKED: USER    Run = 67
DOCKED: USER    DPF = D:/Protein_go_brrr/autodock/final/mut_K82N/heme/dock.dpf
DOCKED: USER  
DOCKED: USER    Estimated Free Energy of Binding    =   -6.58 kcal/mol  [=(1)+(2)+(3)-(4)]
DOCKED: USER    Estimated Inhibition Constant, Ki   =   15.13 uM (micromolar)  [Temperature = 298.15 K]
DOCKED: USER    
DOCKED: USER    (1) Final Intermolecular Energy     =  -10.45 kcal/mol
DOCKED: USER        vdW + Hbond + desolv Energy     =   -9.96 kcal/mol
DOCKED: USER        Electrostatic Energy            =   -0.49 kcal/mol
DOCKED: USER    (2) Final Total Internal Energy     =   -2.16 kcal/mol
DOCKED: USER    (3) Torsional Free Energy           =   +3.88 kcal/mol
DOCKED: USER    (4) Unbound System's Energy  [=(2)] =   -2.16 kcal/mol
DOCKED: USER    
DOCKED: USER    
DOCKED: USER    NEWDPF move heme_opt.pdbqt
DOCKED: USER    NEWDPF about 0.153000 0.018000 -0.028000
DOCKED: USER    NEWDPF tran0 3.019398 6.668635 17.693101
DOCKED: USER    NEWDPF quaternion0 -0.223986 0.207559 0.936389 -0.172991
DOCKED: USER    NEWDPF axisangle0 -0.227415 0.210737 0.950722 -160.076496
DOCKED: USER    NEWDPF quat0 -0.227415 0.210737 0.950722 -160.076496
DOCKED: USER    NEWDPF dihe0 96.20 -89.80 112.32 105.36 171.39 16.21 -46.90 -178.17 112.34 -131.78 50.58 54.80 154.88 
DOCKED: USER  keepresnum = 1 
DOCKED: USER  
DOCKED: REMARK  13 active torsions:
DOCKED: REMARK  status: ('A' for Active; 'I' for Inactive)
DOCKED: REMARK    1  A    between atoms: O_3  and  C_38 
DOCKED: REMARK    2  A    between atoms: O_4  and  C_40 
DOCKED: REMARK    3  A    between atoms: O_7  and  C_46 
DOCKED: REMARK    4  A    between atoms: O_9  and  C_48 
DOCKED: REMARK    5  A    between atoms: C_15  and  C_20 
DOCKED: REMARK    6  A    between atoms: C_16  and  C_23 
DOCKED: REMARK    7  A    between atoms: C_20  and  C_38 
DOCKED: REMARK    8  A    between atoms: C_23  and  C_40 
DOCKED: REMARK    9  A    between atoms: C_32  and  C_41 
DOCKED: REMARK   10  A    between atoms: C_37  and  C_45 
DOCKED: REMARK   11  A    between atoms: C_41  and  C_44 
DOCKED: REMARK   12  A    between atoms: C_44  and  C_46 
DOCKED: REMARK   13  A    between atoms: C_47  and  C_48 
DOCKED: USER                              x       y       z     vdW  Elec       q    Type
DOCKED: USER                           _______ _______ _______ _____ _____    ______ ____
DOCKED: ROOT
DOCKED: ATOM      1  O   UNL d   1       6.802   4.232  21.503 -0.39 -0.06    -0.289 OA
DOCKED: ATOM      2  O   UNL d   1       7.820   9.457  16.206 -0.16 +0.06    -0.289 OA
DOCKED: ATOM      3  N   UNL d   1       4.280   5.266  19.389 -0.19 +0.09    -0.247 NA
DOCKED: ATOM      4  N   UNL d   1       5.522   7.512  17.892 -0.16 +0.10    -0.247 NA
DOCKED: ATOM      5  N   UNL d   1       2.892   8.235  16.980 -0.13 +0.15    -0.354 N 
DOCKED: ATOM      6  N   UNL d   1       1.611   5.914  18.551 +0.16 +0.19    -0.354 N 
DOCKED: ATOM      7  C   UNL d   1       4.404   3.786  21.339 -0.19 -0.02    +0.084 A 
DOCKED: ATOM      8  C   UNL d   1       7.954   7.492  17.659 -0.18 -0.01    +0.084 A 
DOCKED: ATOM      9  C   UNL d   1       6.686   6.875  18.258 -0.24 -0.01    +0.058 A 
DOCKED: ATOM     10  C   UNL d   1       3.563   4.443  20.241 -0.23 -0.02    +0.058 A 
DOCKED: ATOM     11  C   UNL d   1       5.728   4.368  20.945 -0.19 -0.01    +0.193 A 
DOCKED: ATOM     12  C   UNL d   1       5.526   5.226  19.735 -0.25 -0.02    +0.109 A 
DOCKED: ATOM     13  C   UNL d   1       7.297   8.620  16.914 -0.11 -0.06    +0.193 A 
DOCKED: ATOM     14  C   UNL d   1       4.033   4.298  22.732 -0.07 -0.00    +0.026 C 
DOCKED: ATOM     15  C   UNL d   1       6.716   5.836  19.107 -0.21 -0.00    +0.055 C 
DOCKED: ATOM     16  C   UNL d   1       8.617   6.554  16.645 -0.30 -0.00    +0.026 C 
DOCKED: ATOM     17  C   UNL d   1       5.823   8.524  17.143 -0.04 -0.05    +0.109 A 
DOCKED: ATOM     18  C   UNL d   1       2.257   4.154  20.088 -0.24 -0.02    +0.050 C 
DOCKED: ATOM     19  C   UNL d   1       1.421   4.646  19.054 -0.16 -0.02    +0.045 A 
DOCKED: ATOM     20  C   UNL d   1       3.599   9.330  16.553 -0.26 -0.02    +0.045 A 
DOCKED: ATOM     21  C   UNL d   1       4.920   9.532  16.567 -0.27 -0.02    +0.057 C 
DOCKED: ATOM     22  C   UNL d   1       1.373   9.708  16.210 -0.18 +0.01    -0.019 A 
DOCKED: ATOM     23  C   UNL d   1       1.540   8.371  16.813 -0.23 -0.02    +0.045 A 
DOCKED: ATOM     24  C   UNL d   1       2.595  10.270  16.057 -0.18 +0.01    -0.022 A 
DOCKED: ATOM     25  C   UNL d   1       0.638   6.218  17.627 -0.11 -0.02    +0.049 A 
DOCKED: ATOM     26  C   UNL d   1       0.319   4.099  18.414 -0.27 +0.01    -0.018 A 
DOCKED: ATOM     27  C   UNL d   1      -0.159   5.089  17.500 -0.28 -0.00    +0.003 A 
DOCKED: ATOM     28  C   UNL d   1       0.532   7.528  17.085 -0.24 -0.02    +0.052 C 
DOCKED: ATOM     29  C   UNL d   1       2.945  11.602  15.485 -0.14 -0.02    +0.046 C 
DOCKED: ATOM     30  C   UNL d   1      -0.254   2.741  18.634 -0.23 -0.02    +0.046 C 
DOCKED: ATOM     31  H   UNL d   1       3.365   7.398  17.303 -0.19 -0.09    +0.166 HD
DOCKED: ATOM     32  H   UNL d   1       2.347   6.536  18.864 -0.09 -0.08    +0.166 HD
DOCKED: ENDROOT
DOCKED: BRANCH   7  33
DOCKED: ATOM     33  C   UNL d   1       4.457   2.255  21.298 -0.27 -0.08    +0.141 C 
DOCKED: BRANCH  33  34
DOCKED: ATOM     34  C   UNL d   1       5.632   1.695  22.054 -0.26 -0.04    +0.306 C 
DOCKED: ATOM     35  O   UNL d   1       6.385   0.818  21.668 -0.28 -0.01    -0.251 OA
DOCKED: BRANCH  34  36
DOCKED: ATOM     36  O   UNL d   1       5.797   2.274  23.257 -0.06 -0.02    -0.481 OA
DOCKED: ATOM     37  H   UNL d   1       6.342   3.069  23.075 +0.09 +0.05    +0.295 HD
DOCKED: ENDBRANCH  34  36
DOCKED: ENDBRANCH  33  34
DOCKED: ENDBRANCH   7  33
DOCKED: BRANCH  27  38
DOCKED: ATOM     38  C   UNL d   1      -1.297   4.940  16.644 -0.35 -0.01    +0.017 C 
DOCKED: ATOM     39  C   UNL d   1      -1.273   4.421  15.407 -0.47 -0.03    +0.092 C 
DOCKED: BRANCH  39  40
DOCKED: ATOM     40  C   UNL d   1      -2.515   4.308  14.638 -0.26 -0.07    +0.330 C 
DOCKED: ATOM     41  O   UNL d   1      -3.584   4.841  14.869 -0.58 +0.06    -0.246 OA
DOCKED: BRANCH  40  42
DOCKED: ATOM     42  O   UNL d   1      -2.331   3.507  13.577 -0.59 -0.02    -0.477 OA
DOCKED: ATOM     43  H   UNL d   1      -2.556   2.616  13.914 -0.16 -0.06    +0.295 HD
DOCKED: ENDBRANCH  40  42
DOCKED: ENDBRANCH  39  40
DOCKED: ENDBRANCH  27  38
DOCKED: BRANCH   8  44
DOCKED: ATOM     44  C   UNL d   1       8.973   8.023  18.672 -0.06 -0.00    +0.141 C 
DOCKED: BRANCH  44  45
DOCKED: ATOM     45  C   UNL d   1      10.212   8.586  18.029 -0.01 -0.01    +0.306 C 
DOCKED: ATOM     46  O   UNL d   1      11.238   7.979  17.774 -0.01 -0.00    -0.251 OA
DOCKED: BRANCH  45  47
DOCKED: ATOM     47  O   UNL d   1      10.103   9.900  17.765 +0.01 +0.02    -0.481 OA
DOCKED: ATOM     48  H   UNL d   1       9.433   9.955  17.051 +0.05 -0.02    +0.295 HD
DOCKED: ENDBRANCH  45  47
DOCKED: ENDBRANCH  44  45
DOCKED: ENDBRANCH   8  44
DOCKED: BRANCH  22  49
DOCKED: ATOM     49  C   UNL d   1       0.046  10.313  15.856 -0.16 -0.04    +0.048 C 
DOCKED: BRANCH  49  50
DOCKED: ATOM     50  C   UNL d   1      -0.747  10.713  17.100 -0.05 -0.07    +0.125 C 
DOCKED: BRANCH  50  51
DOCKED: ATOM     51  C   UNL d   1      -2.138  10.147  17.055 -0.05 -0.21    +0.305 C 
DOCKED: ATOM     52  O   UNL d   1      -2.996  10.214  17.918 -0.02 +0.12    -0.251 OA
DOCKED: BRANCH  51  53
DOCKED: ATOM     53  O   UNL d   1      -2.380   9.495  15.900 -0.06 +0.67    -0.481 OA
DOCKED: ATOM     54  H   UNL d   1      -2.502  10.212  15.243 -0.46 -0.71    +0.295 HD
DOCKED: ENDBRANCH  51  53
DOCKED: ENDBRANCH  50  51
DOCKED: ENDBRANCH  49  50
DOCKED: ENDBRANCH  22  49
DOCKED: TORSDOF 13
DOCKED: TER
DOCKED: ENDMDL
________________________________________________________________________________


	BEGINNING GENETIC ALGORITHM DOCKING 68 of 100
Run: 68 Seed: 761553081 803533269 [ Run 68 of 100 GA/GALS ]
Beginning LAMARCKIAN GENETIC ALGORITHM (LGA), with a maximum of 25000000 energy evaluations.

Final-Value: -10.349


	FINAL GENETIC ALGORITHM DOCKED STATE
	_______________________________________________


Detailed state:  trans 12.759 -8.467 2.916 quatxyzw 0.394596 -0.351773 -0.669302 -0.522096 center 0.153 0.018 -0.028 ntor 13 55.7495 19.5200 118.6053 -37.3155 -160.6347 -60.2568 -48.8063 -99.0922 -169.8673 -123.8868 14.4754 -83.3467 180.0000
State:	 12.759  -8.467   2.916   0.463 -0.412 -0.785 -117.054     55.75   19.52  118.61  -37.32 -160.63  -60.26  -48.81  -99.09 -169.87 -123.89   14.48  -83.35  180.00

DOCKED: MODEL       68
DOCKED: USER    Run = 68
DOCKED: USER    DPF = D:/Protein_go_brrr/autodock/final/mut_K82N/heme/dock.dpf
DOCKED: USER  
DOCKED: USER    Estimated Free Energy of Binding    =   -4.90 kcal/mol  [=(1)+(2)+(3)-(4)]
DOCKED: USER    Estimated Inhibition Constant, Ki   =  254.26 uM (micromolar)  [Temperature = 298.15 K]
DOCKED: USER    
DOCKED: USER    (1) Final Intermolecular Energy     =   -8.78 kcal/mol
DOCKED: USER        vdW + Hbond + desolv Energy     =   -8.29 kcal/mol
DOCKED: USER        Electrostatic Energy            =   -0.50 kcal/mol
DOCKED: USER    (2) Final Total Internal Energy     =   -1.57 kcal/mol
DOCKED: USER    (3) Torsional Free Energy           =   +3.88 kcal/mol
DOCKED: USER    (4) Unbound System's Energy  [=(2)] =   -1.57 kcal/mol
DOCKED: USER    
DOCKED: USER    
DOCKED: USER    NEWDPF move heme_opt.pdbqt
DOCKED: USER    NEWDPF about 0.153000 0.018000 -0.028000
DOCKED: USER    NEWDPF tran0 12.758943 -8.466770 2.916465
DOCKED: USER    NEWDPF quaternion0 0.394596 -0.351773 -0.669302 -0.522096
DOCKED: USER    NEWDPF axisangle0 0.462659 -0.412450 -0.784749 -117.054154
DOCKED: USER    NEWDPF quat0 0.462659 -0.412450 -0.784749 -117.054154
DOCKED: USER    NEWDPF dihe0 55.75 19.52 118.61 -37.32 -160.63 -60.26 -48.81 -99.09 -169.87 -123.89 14.48 -83.35 180.00 
DOCKED: USER  keepresnum = 1 
DOCKED: USER  
DOCKED: REMARK  13 active torsions:
DOCKED: REMARK  status: ('A' for Active; 'I' for Inactive)
DOCKED: REMARK    1  A    between atoms: O_3  and  C_38 
DOCKED: REMARK    2  A    between atoms: O_4  and  C_40 
DOCKED: REMARK    3  A    between atoms: O_7  and  C_46 
DOCKED: REMARK    4  A    between atoms: O_9  and  C_48 
DOCKED: REMARK    5  A    between atoms: C_15  and  C_20 
DOCKED: REMARK    6  A    between atoms: C_16  and  C_23 
DOCKED: REMARK    7  A    between atoms: C_20  and  C_38 
DOCKED: REMARK    8  A    between atoms: C_23  and  C_40 
DOCKED: REMARK    9  A    between atoms: C_32  and  C_41 
DOCKED: REMARK   10  A    between atoms: C_37  and  C_45 
DOCKED: REMARK   11  A    between atoms: C_41  and  C_44 
DOCKED: REMARK   12  A    between atoms: C_44  and  C_46 
DOCKED: REMARK   13  A    between atoms: C_47  and  C_48 
DOCKED: USER                              x       y       z     vdW  Elec       q    Type
DOCKED: USER                           _______ _______ _______ _____ _____    ______ ____
DOCKED: ROOT
DOCKED: ATOM      1  O   UNL d   1      13.695  -3.300   5.596 -0.26 -0.05    -0.289 OA
DOCKED: ATOM      2  O   UNL d   1      12.513  -4.960  -1.631 -0.05 -0.04    -0.289 OA
DOCKED: ATOM      3  N   UNL d   1      13.325  -6.535   4.459 -0.12 -0.02    -0.247 NA
DOCKED: ATOM      4  N   UNL d   1      12.611  -6.176   1.597 -0.11 -0.00    -0.247 NA
DOCKED: ATOM      5  N   UNL d   1      11.833  -8.943   1.540 -0.07 -0.02    -0.354 N 
DOCKED: ATOM      6  N   UNL d   1      12.558  -9.302   4.514 -0.12 -0.04    -0.354 N 
DOCKED: ATOM      7  C   UNL d   1      13.529  -5.491   6.667 -0.29 +0.01    +0.084 A 
DOCKED: ATOM      8  C   UNL d   1      13.374  -4.128   0.503 -0.10 +0.00    +0.084 A 
DOCKED: ATOM      9  C   UNL d   1      13.233  -4.961   1.782 -0.14 +0.00    +0.058 A 
DOCKED: ATOM     10  C   UNL d   1      13.359  -6.759   5.825 -0.24 +0.01    +0.058 A 
DOCKED: ATOM     11  C   UNL d   1      13.604  -4.512   5.534 -0.12 +0.03    +0.193 A 
DOCKED: ATOM     12  C   UNL d   1      13.494  -5.270   4.247 -0.09 +0.01    +0.109 A 
DOCKED: ATOM     13  C   UNL d   1      12.684  -5.078  -0.434 -0.05 +0.01    +0.193 A 
DOCKED: ATOM     14  C   UNL d   1      12.284  -5.186   7.504 +0.12 +0.00    +0.026 C 
DOCKED: ATOM     15  C   UNL d   1      13.635  -4.519   2.984 -0.16 +0.00    +0.055 C 
DOCKED: ATOM     16  C   UNL d   1      14.838  -3.989   0.074 -0.03 +0.00    +0.026 C 
DOCKED: ATOM     17  C   UNL d   1      12.263  -6.276   0.355 -0.11 -0.00    +0.109 A 
DOCKED: ATOM     18  C   UNL d   1      13.340  -7.981   6.390 -0.10 +0.01    +0.050 C 
DOCKED: ATOM     19  C   UNL d   1      13.271  -9.211   5.688 -0.19 +0.00    +0.045 A 
DOCKED: ATOM     20  C   UNL d   1      11.351  -8.537   0.322 -0.16 +0.00    +0.045 A 
DOCKED: ATOM     21  C   UNL d   1      11.519  -7.364  -0.297 -0.15 +0.00    +0.057 C 
DOCKED: ATOM     22  C   UNL d   1      10.655 -10.677   0.716 -0.18 -0.00    -0.019 A 
DOCKED: ATOM     23  C   UNL d   1      11.464 -10.221   1.864 -0.19 +0.01    +0.045 A 
DOCKED: ATOM     24  C   UNL d   1      10.593  -9.676  -0.194 -0.17 -0.00    -0.022 A 
DOCKED: ATOM     25  C   UNL d   1      12.549 -10.598   4.053 -0.17 +0.01    +0.049 A 
DOCKED: ATOM     26  C   UNL d   1      13.770 -10.471   5.977 -0.13 -0.00    -0.018 A 
DOCKED: ATOM     27  C   UNL d   1      13.327 -11.339   4.932 -0.13 +0.00    +0.003 A 
DOCKED: ATOM     28  C   UNL d   1      11.747 -10.970   2.941 -0.17 +0.01    +0.052 C 
DOCKED: ATOM     29  C   UNL d   1       9.906  -9.659  -1.517 -0.11 +0.00    +0.046 C 
DOCKED: ATOM     30  C   UNL d   1      14.608 -10.849   7.151 -0.08 +0.00    +0.046 C 
DOCKED: ATOM     31  H   UNL d   1      12.462  -8.357   2.078 +0.05 +0.01    +0.166 HD
DOCKED: ATOM     32  H   UNL d   1      12.078  -8.518   4.088 +0.06 +0.01    +0.166 HD
DOCKED: ENDROOT
DOCKED: BRANCH   7  33
DOCKED: ATOM     33  C   UNL d   1      14.805  -5.431   7.515 -0.17 +0.00    +0.141 C 
DOCKED: BRANCH  33  34
DOCKED: ATOM     34  C   UNL d   1      14.518  -5.259   8.982 -0.24 -0.00    +0.306 C 
DOCKED: ATOM     35  O   UNL d   1      14.679  -4.241   9.633 -0.26 +0.01    -0.251 OA
DOCKED: BRANCH  34  36
DOCKED: ATOM     36  O   UNL d   1      14.040  -6.380   9.551 -0.18 +0.02    -0.481 OA
DOCKED: ATOM     37  H   UNL d   1      13.210  -6.098   9.991 -0.33 -0.07    +0.295 HD
DOCKED: ENDBRANCH  34  36
DOCKED: ENDBRANCH  33  34
DOCKED: ENDBRANCH   7  33
DOCKED: BRANCH  27  38
DOCKED: ATOM     38  C   UNL d   1      13.607 -12.741   4.848 -0.09 +0.00    +0.017 C 
DOCKED: ATOM     39  C   UNL d   1      12.706 -13.695   4.572 -0.00 +0.05    +0.092 C 
DOCKED: BRANCH  39  40
DOCKED: ATOM     40  C   UNL d   1      13.126 -15.097   4.499 -0.04 +0.11    +0.330 C 
DOCKED: ATOM     41  O   UNL d   1      13.918 -15.596   3.722 -0.01 -0.04    -0.246 OA
DOCKED: BRANCH  40  42
DOCKED: ATOM     42  O   UNL d   1      12.508 -15.815   5.449 -0.08 -0.24    -0.477 OA
DOCKED: ATOM     43  H   UNL d   1      13.062 -16.618   5.535 +0.03 +0.07    +0.295 HD
DOCKED: ENDBRANCH  40  42
DOCKED: ENDBRANCH  39  40
DOCKED: ENDBRANCH  27  38
DOCKED: BRANCH   8  44
DOCKED: ATOM     44  C   UNL d   1      12.671  -2.767   0.521 -0.22 -0.00    +0.141 C 
DOCKED: BRANCH  44  45
DOCKED: ATOM     45  C   UNL d   1      12.710  -2.060  -0.808 +0.05 +0.13    +0.306 C 
DOCKED: ATOM     46  O   UNL d   1      13.543  -1.250  -1.175 -0.32 -0.16    -0.251 OA
DOCKED: BRANCH  45  47
DOCKED: ATOM     47  O   UNL d   1      11.675  -2.393  -1.599 -0.63 -0.39    -0.481 OA
DOCKED: ATOM     48  H   UNL d   1      11.780  -3.356  -1.753 +0.10 +0.14    +0.295 HD
DOCKED: ENDBRANCH  45  47
DOCKED: ENDBRANCH  44  45
DOCKED: ENDBRANCH   8  44
DOCKED: BRANCH  22  49
DOCKED: ATOM     49  C   UNL d   1      10.012 -12.029   0.622 -0.20 +0.01    +0.048 C 
DOCKED: BRANCH  49  50
DOCKED: ATOM     50  C   UNL d   1       8.548 -11.994   1.058 -0.23 +0.03    +0.125 C 
DOCKED: BRANCH  50  51
DOCKED: ATOM     51  C   UNL d   1       8.031 -13.382   1.314 -0.29 +0.08    +0.305 C 
DOCKED: ATOM     52  O   UNL d   1       7.280 -14.036   0.612 -0.91 -0.10    -0.251 OA
DOCKED: BRANCH  51  53
DOCKED: ATOM     53  O   UNL d   1       8.488 -13.883   2.479 -0.16 -0.17    -0.481 OA
DOCKED: ATOM     54  H   UNL d   1       7.726 -14.384   2.838 -0.34 +0.05    +0.295 HD
DOCKED: ENDBRANCH  51  53
DOCKED: ENDBRANCH  50  51
DOCKED: ENDBRANCH  49  50
DOCKED: ENDBRANCH  22  49
DOCKED: TORSDOF 13
DOCKED: TER
DOCKED: ENDMDL
________________________________________________________________________________


	BEGINNING GENETIC ALGORITHM DOCKING 69 of 100
Run: 69 Seed: 229281097 715236876 [ Run 69 of 100 GA/GALS ]
Beginning LAMARCKIAN GENETIC ALGORITHM (LGA), with a maximum of 25000000 energy evaluations.

Final-Value: -14.601


	FINAL GENETIC ALGORITHM DOCKED STATE
	_______________________________________________


Detailed state:  trans 2.904 6.474 17.947 quatxyzw -0.287988 0.242548 0.915059 -0.144572 center 0.153 0.018 -0.028 ntor 13 111.9131 -179.9433 115.2679 30.5949 -144.8177 -65.4665 -46.3451 -171.8765 56.7718 -130.7614 69.1725 -17.3269 123.9812
State:	  2.904   6.474  17.947  -0.291  0.245  0.925 -163.375    111.91 -179.94  115.27   30.59 -144.82  -65.47  -46.35 -171.88   56.77 -130.76   69.17  -17.33  123.98

DOCKED: MODEL       69
DOCKED: USER    Run = 69
DOCKED: USER    DPF = D:/Protein_go_brrr/autodock/final/mut_K82N/heme/dock.dpf
DOCKED: USER  
DOCKED: USER    Estimated Free Energy of Binding    =   -6.52 kcal/mol  [=(1)+(2)+(3)-(4)]
DOCKED: USER    Estimated Inhibition Constant, Ki   =   16.58 uM (micromolar)  [Temperature = 298.15 K]
DOCKED: USER    
DOCKED: USER    (1) Final Intermolecular Energy     =  -10.40 kcal/mol
DOCKED: USER        vdW + Hbond + desolv Energy     =  -10.00 kcal/mol
DOCKED: USER        Electrostatic Energy            =   -0.40 kcal/mol
DOCKED: USER    (2) Final Total Internal Energy     =   -4.20 kcal/mol
DOCKED: USER    (3) Torsional Free Energy           =   +3.88 kcal/mol
DOCKED: USER    (4) Unbound System's Energy  [=(2)] =   -4.20 kcal/mol
DOCKED: USER    
DOCKED: USER    
DOCKED: USER    NEWDPF move heme_opt.pdbqt
DOCKED: USER    NEWDPF about 0.153000 0.018000 -0.028000
DOCKED: USER    NEWDPF tran0 2.903516 6.473582 17.946594
DOCKED: USER    NEWDPF quaternion0 -0.287988 0.242548 0.915059 -0.144572
DOCKED: USER    NEWDPF axisangle0 -0.291046 0.245123 0.924774 -163.375057
DOCKED: USER    NEWDPF quat0 -0.291046 0.245123 0.924774 -163.375057
DOCKED: USER    NEWDPF dihe0 111.91 -179.94 115.27 30.59 -144.82 -65.47 -46.35 -171.88 56.77 -130.76 69.17 -17.33 123.98 
DOCKED: USER  keepresnum = 1 
DOCKED: USER  
DOCKED: REMARK  13 active torsions:
DOCKED: REMARK  status: ('A' for Active; 'I' for Inactive)
DOCKED: REMARK    1  A    between atoms: O_3  and  C_38 
DOCKED: REMARK    2  A    between atoms: O_4  and  C_40 
DOCKED: REMARK    3  A    between atoms: O_7  and  C_46 
DOCKED: REMARK    4  A    between atoms: O_9  and  C_48 
DOCKED: REMARK    5  A    between atoms: C_15  and  C_20 
DOCKED: REMARK    6  A    between atoms: C_16  and  C_23 
DOCKED: REMARK    7  A    between atoms: C_20  and  C_38 
DOCKED: REMARK    8  A    between atoms: C_23  and  C_40 
DOCKED: REMARK    9  A    between atoms: C_32  and  C_41 
DOCKED: REMARK   10  A    between atoms: C_37  and  C_45 
DOCKED: REMARK   11  A    between atoms: C_41  and  C_44 
DOCKED: REMARK   12  A    between atoms: C_44  and  C_46 
DOCKED: REMARK   13  A    between atoms: C_47  and  C_48 
DOCKED: USER                              x       y       z     vdW  Elec       q    Type
DOCKED: USER                           _______ _______ _______ _____ _____    ______ ____
DOCKED: ROOT
DOCKED: ATOM      1  O   UNL d   1       6.370   4.695  22.371 -0.08 -0.04    -0.289 OA
DOCKED: ATOM      2  O   UNL d   1       7.689   9.383  16.654 -0.15 +0.06    -0.289 OA
DOCKED: ATOM      3  N   UNL d   1       4.043   5.339  19.908 -0.14 +0.08    -0.247 NA
DOCKED: ATOM      4  N   UNL d   1       5.323   7.488  18.304 -0.15 +0.08    -0.247 NA
DOCKED: ATOM      5  N   UNL d   1       2.775   7.945  17.053 -0.12 +0.16    -0.354 N 
DOCKED: ATOM      6  N   UNL d   1       1.450   5.728  18.736 +0.00 +0.17    -0.354 N 
DOCKED: ATOM      7  C   UNL d   1       4.030   4.085  22.014 -0.09 -0.02    +0.084 A 
DOCKED: ATOM      8  C   UNL d   1       7.765   7.594  18.324 -0.13 -0.01    +0.084 A 
DOCKED: ATOM      9  C   UNL d   1       6.472   6.967  18.856 -0.19 -0.01    +0.058 A 
DOCKED: ATOM     10  C   UNL d   1       3.280   4.568  20.769 -0.15 -0.02    +0.058 A 
DOCKED: ATOM     11  C   UNL d   1       5.358   4.704  21.695 -0.09 -0.01    +0.193 A 
DOCKED: ATOM     12  C   UNL d   1       5.244   5.415  20.382 -0.17 -0.02    +0.109 A 
DOCKED: ATOM     13  C   UNL d   1       7.135   8.594  17.395 -0.13 -0.05    +0.193 A 
DOCKED: ATOM     14  C   UNL d   1       3.484   4.718  23.296 -0.03 -0.00    +0.026 C 
DOCKED: ATOM     15  C   UNL d   1       6.462   6.027  19.815 -0.23 -0.00    +0.055 C 
DOCKED: ATOM     16  C   UNL d   1       8.580   6.597  17.495 -0.23 -0.00    +0.026 C 
DOCKED: ATOM     17  C   UNL d   1       5.653   8.432  17.482 -0.13 -0.04    +0.109 A 
DOCKED: ATOM     18  C   UNL d   1       2.015   4.184  20.517 -0.18 -0.02    +0.050 C 
DOCKED: ATOM     19  C   UNL d   1       1.272   4.511  19.355 -0.20 -0.02    +0.045 A 
DOCKED: ATOM     20  C   UNL d   1       3.467   9.030  16.581 -0.27 -0.02    +0.045 A 
DOCKED: ATOM     21  C   UNL d   1       4.767   9.314  16.707 -0.28 -0.02    +0.057 C 
DOCKED: ATOM     22  C   UNL d   1       1.275   9.231  15.972 -0.23 +0.01    -0.019 A 
DOCKED: ATOM     23  C   UNL d   1       1.444   7.978  16.735 -0.24 -0.02    +0.045 A 
DOCKED: ATOM     24  C   UNL d   1       2.476   9.848  15.883 -0.24 +0.01    -0.022 A 
DOCKED: ATOM     25  C   UNL d   1       0.570   5.871  17.689 -0.14 -0.02    +0.049 A 
DOCKED: ATOM     26  C   UNL d   1       0.275   3.832  18.671 -0.26 +0.01    -0.018 A 
DOCKED: ATOM     27  C   UNL d   1      -0.150   4.687  17.608 -0.29 -0.00    +0.003 A 
DOCKED: ATOM     28  C   UNL d   1       0.457   7.107  16.995 -0.25 -0.02    +0.052 C 
DOCKED: ATOM     29  C   UNL d   1       2.818  11.131  15.204 -0.19 -0.02    +0.046 C 
DOCKED: ATOM     30  C   UNL d   1      -0.249   2.471  18.982 -0.30 -0.02    +0.046 C 
DOCKED: ATOM     31  H   UNL d   1       3.251   7.178  17.515 -0.34 -0.10    +0.166 HD
DOCKED: ATOM     32  H   UNL d   1       2.116   6.424  19.050 -0.04 -0.07    +0.166 HD
DOCKED: ENDROOT
DOCKED: BRANCH   7  33
DOCKED: ATOM     33  C   UNL d   1       4.165   2.564  22.151 -0.18 -0.06    +0.141 C 
DOCKED: BRANCH  33  34
DOCKED: ATOM     34  C   UNL d   1       5.547   2.073  21.817 -0.28 -0.05    +0.306 C 
DOCKED: ATOM     35  O   UNL d   1       5.940   1.719  20.718 -0.70 +0.03    -0.251 OA
DOCKED: BRANCH  34  36
DOCKED: ATOM     36  O   UNL d   1       6.363   2.055  22.886 -0.13 -0.07    -0.481 OA
DOCKED: ATOM     37  H   UNL d   1       6.534   3.001  23.082 +0.08 +0.07    +0.295 HD
DOCKED: ENDBRANCH  34  36
DOCKED: ENDBRANCH  33  34
DOCKED: ENDBRANCH   7  33
DOCKED: BRANCH  27  38
DOCKED: ATOM     38  C   UNL d   1      -1.180   4.378  16.662 -0.38 -0.01    +0.017 C 
DOCKED: ATOM     39  C   UNL d   1      -1.343   4.976  15.472 -0.43 -0.03    +0.092 C 
DOCKED: BRANCH  39  40
DOCKED: ATOM     40  C   UNL d   1      -2.431   4.553  14.585 -0.31 -0.08    +0.330 C 
DOCKED: ATOM     41  O   UNL d   1      -2.550   3.488  14.010 -0.87 +0.02    -0.246 OA
DOCKED: BRANCH  40  42
DOCKED: ATOM     42  O   UNL d   1      -3.345   5.529  14.479 -0.35 +0.16    -0.477 OA
DOCKED: ATOM     43  H   UNL d   1      -2.991   6.246  15.045 +0.15 -0.17    +0.295 HD
DOCKED: ENDBRANCH  40  42
DOCKED: ENDBRANCH  39  40
DOCKED: ENDBRANCH  27  38
DOCKED: BRANCH   8  44
DOCKED: ATOM     44  C   UNL d   1       8.639   8.292  19.371 -0.04 -0.00    +0.141 C 
DOCKED: BRANCH  44  45
DOCKED: ATOM     45  C   UNL d   1       9.899   8.881  18.794 +0.00 -0.00    +0.306 C 
DOCKED: ATOM     46  O   UNL d   1      10.980   8.327  18.692 -0.01 -0.01    -0.251 OA
DOCKED: BRANCH  45  47
DOCKED: ATOM     47  O   UNL d   1       9.737  10.157  18.400 +0.01 +0.02    -0.481 OA
DOCKED: ATOM     48  H   UNL d   1       9.101  10.108  17.656 +0.04 -0.02    +0.295 HD
DOCKED: ENDBRANCH  45  47
DOCKED: ENDBRANCH  44  45
DOCKED: ENDBRANCH   8  44
DOCKED: BRANCH  22  49
DOCKED: ATOM     49  C   UNL d   1      -0.035   9.710  15.419 -0.21 -0.05    +0.048 C 
DOCKED: BRANCH  49  50
DOCKED: ATOM     50  C   UNL d   1      -1.186   9.475  16.397 -0.13 -0.10    +0.125 C 
DOCKED: BRANCH  50  51
DOCKED: ATOM     51  C   UNL d   1      -2.106   8.399  15.894 -0.11 -0.32    +0.305 C 
DOCKED: ATOM     52  O   UNL d   1      -3.130   7.994  16.414 -0.11 +0.20    -0.251 OA
DOCKED: BRANCH  51  53
DOCKED: ATOM     53  O   UNL d   1      -1.671   7.865  14.735 -0.31 +0.54    -0.481 OA
DOCKED: ATOM     54  H   UNL d   1      -2.493   7.594  14.274 -0.04 -0.48    +0.295 HD
DOCKED: ENDBRANCH  51  53
DOCKED: ENDBRANCH  50  51
DOCKED: ENDBRANCH  49  50
DOCKED: ENDBRANCH  22  49
DOCKED: TORSDOF 13
DOCKED: TER
DOCKED: ENDMDL
________________________________________________________________________________


	BEGINNING GENETIC ALGORITHM DOCKING 70 of 100
Run: 70 Seed: 1252550985 2117861872 [ Run 70 of 100 GA/GALS ]
Beginning LAMARCKIAN GENETIC ALGORITHM (LGA), with a maximum of 25000000 energy evaluations.

Final-Value: -11.568


	FINAL GENETIC ALGORITHM DOCKED STATE
	_______________________________________________


Detailed state:  trans 7.220 -1.322 -16.773 quatxyzw -0.339144 0.120540 0.900617 0.243598 center 0.153 0.018 -0.028 ntor 13 154.9303 82.7713 -179.9381 70.2761 -143.2297 -91.6869 -46.1781 57.0036 11.8587 -74.7234 -65.8127 46.6281 -180.0000
State:	  7.220  -1.322 -16.773  -0.350  0.124  0.929 151.802    154.93   82.77 -179.94   70.28 -143.23  -91.69  -46.18   57.00   11.86  -74.72  -65.81   46.63 -180.00

DOCKED: MODEL       70
DOCKED: USER    Run = 70
DOCKED: USER    DPF = D:/Protein_go_brrr/autodock/final/mut_K82N/heme/dock.dpf
DOCKED: USER  
DOCKED: USER    Estimated Free Energy of Binding    =   -6.00 kcal/mol  [=(1)+(2)+(3)-(4)]
DOCKED: USER    Estimated Inhibition Constant, Ki   =   40.26 uM (micromolar)  [Temperature = 298.15 K]
DOCKED: USER    
DOCKED: USER    (1) Final Intermolecular Energy     =   -9.87 kcal/mol
DOCKED: USER        vdW + Hbond + desolv Energy     =   -8.83 kcal/mol
DOCKED: USER        Electrostatic Energy            =   -1.04 kcal/mol
DOCKED: USER    (2) Final Total Internal Energy     =   -1.69 kcal/mol
DOCKED: USER    (3) Torsional Free Energy           =   +3.88 kcal/mol
DOCKED: USER    (4) Unbound System's Energy  [=(2)] =   -1.69 kcal/mol
DOCKED: USER    
DOCKED: USER    
DOCKED: USER    NEWDPF move heme_opt.pdbqt
DOCKED: USER    NEWDPF about 0.153000 0.018000 -0.028000
DOCKED: USER    NEWDPF tran0 7.219786 -1.321953 -16.773457
DOCKED: USER    NEWDPF quaternion0 -0.339144 0.120540 0.900617 0.243598
DOCKED: USER    NEWDPF axisangle0 -0.349678 0.124284 0.928590 151.801990
DOCKED: USER    NEWDPF quat0 -0.349678 0.124284 0.928590 151.801990
DOCKED: USER    NEWDPF dihe0 154.93 82.77 -179.94 70.28 -143.23 -91.69 -46.18 57.00 11.86 -74.72 -65.81 46.63 -180.00 
DOCKED: USER  keepresnum = 1 
DOCKED: USER  
DOCKED: REMARK  13 active torsions:
DOCKED: REMARK  status: ('A' for Active; 'I' for Inactive)
DOCKED: REMARK    1  A    between atoms: O_3  and  C_38 
DOCKED: REMARK    2  A    between atoms: O_4  and  C_40 
DOCKED: REMARK    3  A    between atoms: O_7  and  C_46 
DOCKED: REMARK    4  A    between atoms: O_9  and  C_48 
DOCKED: REMARK    5  A    between atoms: C_15  and  C_20 
DOCKED: REMARK    6  A    between atoms: C_16  and  C_23 
DOCKED: REMARK    7  A    between atoms: C_20  and  C_38 
DOCKED: REMARK    8  A    between atoms: C_23  and  C_40 
DOCKED: REMARK    9  A    between atoms: C_32  and  C_41 
DOCKED: REMARK   10  A    between atoms: C_37  and  C_45 
DOCKED: REMARK   11  A    between atoms: C_41  and  C_44 
DOCKED: REMARK   12  A    between atoms: C_44  and  C_46 
DOCKED: REMARK   13  A    between atoms: C_47  and  C_48 
DOCKED: USER                              x       y       z     vdW  Elec       q    Type
DOCKED: USER                           _______ _______ _______ _____ _____    ______ ____
DOCKED: ROOT
DOCKED: ATOM      1  O   UNL d   1      11.043   0.193 -12.549 -0.14 +0.22    -0.289 OA
DOCKED: ATOM      2  O   UNL d   1       8.277   4.109 -18.329 -0.01 +0.06    -0.289 OA
DOCKED: ATOM      3  N   UNL d   1       8.899  -1.176 -14.878 -0.12 +0.18    -0.247 NA
DOCKED: ATOM      4  N   UNL d   1       8.128   1.155 -16.551 -0.10 +0.21    -0.247 NA
DOCKED: ATOM      5  N   UNL d   1       6.018  -0.454 -17.658 -0.04 +0.13    -0.354 N 
DOCKED: ATOM      6  N   UNL d   1       6.813  -2.862 -15.905 -0.08 +0.12    -0.354 N 
DOCKED: ATOM      7  C   UNL d   1       9.892  -1.951 -12.776 -0.18 -0.05    +0.084 A 
DOCKED: ATOM      8  C   UNL d   1       9.705   3.018 -16.667 -0.04 -0.06    +0.084 A 
DOCKED: ATOM      9  C   UNL d   1       9.310   1.666 -16.064 +0.04 -0.06    +0.058 A 
DOCKED: ATOM     10  C   UNL d   1       8.981  -2.224 -13.977 -0.18 -0.03    +0.058 A 
DOCKED: ATOM     11  C   UNL d   1      10.325  -0.571 -13.168 -0.14 -0.16    +0.193 A 
DOCKED: ATOM     12  C   UNL d   1       9.676  -0.225 -14.473 -0.13 -0.11    +0.109 A 
DOCKED: ATOM     13  C   UNL d   1       8.509   3.198 -17.559 -0.04 -0.09    +0.193 A 
DOCKED: ATOM     14  C   UNL d   1       9.105  -1.870 -11.465 -0.33 -0.02    +0.026 C 
DOCKED: ATOM     15  C   UNL d   1      10.030   1.061 -15.106 -0.09 -0.06    +0.055 C 
DOCKED: ATOM     16  C   UNL d   1      10.959   2.907 -17.540 -0.02 -0.01    +0.026 C 
DOCKED: ATOM     17  C   UNL d   1       7.627   2.004 -17.390 -0.09 -0.06    +0.109 A 
DOCKED: ATOM     18  C   UNL d   1       8.397  -3.423 -14.158 -0.18 -0.02    +0.050 C 
DOCKED: ATOM     19  C   UNL d   1       7.609  -3.793 -15.277 -0.15 -0.01    +0.045 A 
DOCKED: ATOM     20  C   UNL d   1       5.672   0.771 -18.167 -0.10 -0.01    +0.045 A 
DOCKED: ATOM     21  C   UNL d   1       6.350   1.922 -18.114 -0.10 -0.02    +0.057 C 
DOCKED: ATOM     22  C   UNL d   1       4.016  -0.725 -18.654 -0.16 +0.01    -0.019 A 
DOCKED: ATOM     23  C   UNL d   1       5.080  -1.421 -17.901 -0.18 -0.01    +0.045 A 
DOCKED: ATOM     24  C   UNL d   1       4.374   0.571 -18.809 -0.11 +0.01    -0.022 A 
DOCKED: ATOM     25  C   UNL d   1       6.071  -3.453 -16.901 -0.22 -0.02    +0.049 A 
DOCKED: ATOM     26  C   UNL d   1       7.406  -5.013 -15.905 -0.16 +0.00    -0.018 A 
DOCKED: ATOM     27  C   UNL d   1       6.449  -4.788 -16.942 -0.24 -0.00    +0.003 A 
DOCKED: ATOM     28  C   UNL d   1       5.061  -2.725 -17.587 -0.28 -0.02    +0.052 C 
DOCKED: ATOM     29  C   UNL d   1       3.638   1.665 -19.506 -0.12 -0.01    +0.046 C 
DOCKED: ATOM     30  C   UNL d   1       8.062  -6.308 -15.566 -0.13 -0.01    +0.046 C 
DOCKED: ATOM     31  H   UNL d   1       6.922  -0.607 -17.224 +0.05 -0.07    +0.166 HD
DOCKED: ATOM     32  H   UNL d   1       6.764  -1.888 -15.628 +0.06 -0.07    +0.166 HD
DOCKED: ENDROOT
DOCKED: BRANCH   7  33
DOCKED: ATOM     33  C   UNL d   1      11.105  -2.879 -12.647 -0.05 -0.06    +0.141 C 
DOCKED: BRANCH  33  34
DOCKED: ATOM     34  C   UNL d   1      12.013  -2.815 -13.845 +0.00 -0.09    +0.306 C 
DOCKED: ATOM     35  O   UNL d   1      11.928  -3.499 -14.851 -0.00 +0.06    -0.251 OA
DOCKED: BRANCH  34  36
DOCKED: ATOM     36  O   UNL d   1      12.980  -1.890 -13.714 +0.01 +0.14    -0.481 OA
DOCKED: ATOM     37  H   UNL d   1      12.597  -1.216 -13.112 +0.04 -0.11    +0.295 HD
DOCKED: ENDBRANCH  34  36
DOCKED: ENDBRANCH  33  34
DOCKED: ENDBRANCH   7  33
DOCKED: BRANCH  27  38
DOCKED: ATOM     38  C   UNL d   1       5.943  -5.791 -17.829 -0.21 -0.01    +0.017 C 
DOCKED: ATOM     39  C   UNL d   1       6.403  -6.035 -19.066 -0.19 -0.04    +0.092 C 
DOCKED: BRANCH  39  40
DOCKED: ATOM     40  C   UNL d   1       5.806  -7.106 -19.868 -0.11 -0.15    +0.330 C 
DOCKED: ATOM     41  O   UNL d   1       6.179  -8.260 -19.962 -0.74 +0.08    -0.246 OA
DOCKED: BRANCH  40  42
DOCKED: ATOM     42  O   UNL d   1       4.729  -6.647 -20.524 -0.15 +0.35    -0.477 OA
DOCKED: ATOM     43  H   UNL d   1       3.977  -6.918 -19.958 -0.48 -0.34    +0.295 HD
DOCKED: ENDBRANCH  40  42
DOCKED: ENDBRANCH  39  40
DOCKED: ENDBRANCH  27  38
DOCKED: BRANCH   8  44
DOCKED: ATOM     44  C   UNL d   1       9.825   4.176 -15.670 +0.12 -0.11    +0.141 C 
DOCKED: BRANCH  44  45
DOCKED: ATOM     45  C   UNL d   1       8.963   5.358 -16.026 -0.08 -0.06    +0.306 C 
DOCKED: ATOM     46  O   UNL d   1       9.282   6.308 -16.720 -0.10 -0.03    -0.251 OA
DOCKED: BRANCH  45  47
DOCKED: ATOM     47  O   UNL d   1       7.743   5.294 -15.462 -0.56 -0.02    -0.481 OA
DOCKED: ATOM     48  H   UNL d   1       7.746   4.450 -14.961 -0.46 -0.48    +0.295 HD
DOCKED: ENDBRANCH  45  47
DOCKED: ENDBRANCH  44  45
DOCKED: ENDBRANCH   8  44
DOCKED: BRANCH  22  49
DOCKED: ATOM     49  C   UNL d   1       2.756  -1.383 -19.133 -0.22 -0.02    +0.048 C 
DOCKED: BRANCH  49  50
DOCKED: ATOM     50  C   UNL d   1       1.593  -1.156 -18.167 -0.33 -0.04    +0.125 C 
DOCKED: BRANCH  50  51
DOCKED: ATOM     51  C   UNL d   1       0.514  -0.331 -18.810 -0.27 -0.11    +0.305 C 
DOCKED: ATOM     52  O   UNL d   1      -0.018  -0.517 -19.890 -0.62 +0.09    -0.251 OA
DOCKED: BRANCH  51  53
DOCKED: ATOM     53  O   UNL d   1       0.160   0.720 -18.046 -0.38 +0.12    -0.481 OA
DOCKED: ATOM     54  H   UNL d   1      -0.743   0.496 -17.736 -0.37 -0.18    +0.295 HD
DOCKED: ENDBRANCH  51  53
DOCKED: ENDBRANCH  50  51
DOCKED: ENDBRANCH  49  50
DOCKED: ENDBRANCH  22  49
DOCKED: TORSDOF 13
DOCKED: TER
DOCKED: ENDMDL
________________________________________________________________________________


	BEGINNING GENETIC ALGORITHM DOCKING 71 of 100
Run: 71 Seed: 2027453673 173669844 [ Run 71 of 100 GA/GALS ]
Beginning LAMARCKIAN GENETIC ALGORITHM (LGA), with a maximum of 25000000 energy evaluations.

Final-Value: -10.243


	FINAL GENETIC ALGORITHM DOCKED STATE
	_______________________________________________


Detailed state:  trans -8.580 -9.801 7.684 quatxyzw 0.183712 0.176358 -0.718123 0.647647 center 0.153 0.018 -0.028 ntor 13 91.6148 -100.6395 59.0558 91.9936 -157.0881 -157.5436 -56.7352 97.4737 -16.7476 -93.7350 180.0000 178.9595 180.0000
State:	 -8.580  -9.801   7.684   0.241  0.231 -0.942 99.271     91.61 -100.64   59.06   91.99 -157.09 -157.54  -56.74   97.47  -16.75  -93.74  180.00  178.96  180.00

DOCKED: MODEL       71
DOCKED: USER    Run = 71
DOCKED: USER    DPF = D:/Protein_go_brrr/autodock/final/mut_K82N/heme/dock.dpf
DOCKED: USER  
DOCKED: USER    Estimated Free Energy of Binding    =   -4.65 kcal/mol  [=(1)+(2)+(3)-(4)]
DOCKED: USER    Estimated Inhibition Constant, Ki   =  391.75 uM (micromolar)  [Temperature = 298.15 K]
DOCKED: USER    
DOCKED: USER    (1) Final Intermolecular Energy     =   -8.53 kcal/mol
DOCKED: USER        vdW + Hbond + desolv Energy     =   -7.99 kcal/mol
DOCKED: USER        Electrostatic Energy            =   -0.54 kcal/mol
DOCKED: USER    (2) Final Total Internal Energy     =   -1.72 kcal/mol
DOCKED: USER    (3) Torsional Free Energy           =   +3.88 kcal/mol
DOCKED: USER    (4) Unbound System's Energy  [=(2)] =   -1.72 kcal/mol
DOCKED: USER    
DOCKED: USER    
DOCKED: USER    NEWDPF move heme_opt.pdbqt
DOCKED: USER    NEWDPF about 0.153000 0.018000 -0.028000
DOCKED: USER    NEWDPF tran0 -8.580043 -9.801345 7.684035
DOCKED: USER    NEWDPF quaternion0 0.183712 0.176358 -0.718123 0.647647
DOCKED: USER    NEWDPF axisangle0 0.241110 0.231460 -0.942493 99.271088
DOCKED: USER    NEWDPF quat0 0.241110 0.231460 -0.942493 99.271088
DOCKED: USER    NEWDPF dihe0 91.61 -100.64 59.06 91.99 -157.09 -157.54 -56.74 97.47 -16.75 -93.74 180.00 178.96 180.00 
DOCKED: USER  keepresnum = 1 
DOCKED: USER  
DOCKED: REMARK  13 active torsions:
DOCKED: REMARK  status: ('A' for Active; 'I' for Inactive)
DOCKED: REMARK    1  A    between atoms: O_3  and  C_38 
DOCKED: REMARK    2  A    between atoms: O_4  and  C_40 
DOCKED: REMARK    3  A    between atoms: O_7  and  C_46 
DOCKED: REMARK    4  A    between atoms: O_9  and  C_48 
DOCKED: REMARK    5  A    between atoms: C_15  and  C_20 
DOCKED: REMARK    6  A    between atoms: C_16  and  C_23 
DOCKED: REMARK    7  A    between atoms: C_20  and  C_38 
DOCKED: REMARK    8  A    between atoms: C_23  and  C_40 
DOCKED: REMARK    9  A    between atoms: C_32  and  C_41 
DOCKED: REMARK   10  A    between atoms: C_37  and  C_45 
DOCKED: REMARK   11  A    between atoms: C_41  and  C_44 
DOCKED: REMARK   12  A    between atoms: C_44  and  C_46 
DOCKED: REMARK   13  A    between atoms: C_47  and  C_48 
DOCKED: USER                              x       y       z     vdW  Elec       q    Type
DOCKED: USER                           _______ _______ _______ _____ _____    ______ ____
DOCKED: ROOT
DOCKED: ATOM      1  O   UNL d   1      -9.835 -15.561   7.617 -0.02 +0.04    -0.289 OA
DOCKED: ATOM      2  O   UNL d   1      -3.360 -11.942   8.785 -0.24 +0.07    -0.289 OA
DOCKED: ATOM      3  N   UNL d   1      -9.552 -12.129   7.423 -0.09 +0.04    -0.247 NA
DOCKED: ATOM      4  N   UNL d   1      -6.765 -11.622   8.317 -0.17 +0.04    -0.247 NA
DOCKED: ATOM      5  N   UNL d   1      -7.448  -8.840   8.564 -0.12 +0.05    -0.354 N 
DOCKED: ATOM      6  N   UNL d   1     -10.344  -9.378   7.654 +0.01 +0.05    -0.354 N 
DOCKED: ATOM      7  C   UNL d   1     -11.415 -13.719   7.321 -0.05 -0.01    +0.084 A 
DOCKED: ATOM      8  C   UNL d   1      -5.144 -13.424   8.001 -0.23 -0.01    +0.084 A 
DOCKED: ATOM      9  C   UNL d   1      -6.593 -12.931   7.927 -0.21 -0.01    +0.058 A 
DOCKED: ATOM     10  C   UNL d   1     -10.923 -12.269   7.287 -0.10 -0.01    +0.058 A 
DOCKED: ATOM     11  C   UNL d   1     -10.077 -14.376   7.482 -0.05 -0.03    +0.193 A 
DOCKED: ATOM     12  C   UNL d   1      -9.027 -13.308   7.504 -0.12 -0.02    +0.109 A 
DOCKED: ATOM     13  C   UNL d   1      -4.531 -12.163   8.542 -0.22 -0.04    +0.193 A 
DOCKED: ATOM     14  C   UNL d   1     -12.261 -14.010   8.563 -0.02 -0.00    +0.026 C 
DOCKED: ATOM     15  C   UNL d   1      -7.611 -13.726   7.562 -0.15 -0.01    +0.055 C 
DOCKED: ATOM     16  C   UNL d   1      -4.565 -13.696   6.610 -0.41 -0.01    +0.026 C 
DOCKED: ATOM     17  C   UNL d   1      -5.620 -11.151   8.695 -0.29 -0.02    +0.109 A 
DOCKED: ATOM     18  C   UNL d   1     -11.767 -11.246   7.052 -0.09 -0.01    +0.050 C 
DOCKED: ATOM     19  C   UNL d   1     -11.392  -9.885   6.919 -0.05 -0.01    +0.045 A 
DOCKED: ATOM     20  C   UNL d   1      -6.217  -8.835   9.167 -0.34 -0.01    +0.045 A 
DOCKED: ATOM     21  C   UNL d   1      -5.320  -9.823   9.250 -0.38 -0.01    +0.057 C 
DOCKED: ATOM     22  C   UNL d   1      -7.177  -6.779   9.431 -0.28 +0.00    -0.019 A 
DOCKED: ATOM     23  C   UNL d   1      -8.104  -7.643   8.672 -0.22 -0.01    +0.045 A 
DOCKED: ATOM     24  C   UNL d   1      -6.061  -7.490   9.719 -0.38 +0.00    -0.022 A 
DOCKED: ATOM     25  C   UNL d   1     -10.212  -8.026   7.440 -0.12 -0.01    +0.049 A 
DOCKED: ATOM     26  C   UNL d   1     -11.931  -8.843   6.181 -0.10 +0.00    -0.018 A 
DOCKED: ATOM     27  C   UNL d   1     -11.171  -7.676   6.499 -0.14 -0.00    +0.003 A 
DOCKED: ATOM     28  C   UNL d   1      -9.300  -7.251   8.207 -0.19 -0.01    +0.052 C 
DOCKED: ATOM     29  C   UNL d   1      -4.841  -7.052  10.455 -0.40 -0.00    +0.046 C 
DOCKED: ATOM     30  C   UNL d   1     -13.082  -8.925   5.236 -0.09 -0.01    +0.046 C 
DOCKED: ATOM     31  H   UNL d   1      -7.770  -9.642   8.033 +0.06 -0.02    +0.166 HD
DOCKED: ATOM     32  H   UNL d   1      -9.786  -9.934   8.291 +0.04 -0.02    +0.166 HD
DOCKED: ENDROOT
DOCKED: BRANCH   7  33
DOCKED: ATOM     33  C   UNL d   1     -12.105 -14.210   6.044 -0.06 -0.02    +0.141 C 
DOCKED: BRANCH  33  34
DOCKED: ATOM     34  C   UNL d   1     -11.567 -13.546   4.804 -0.13 -0.06    +0.306 C 
DOCKED: ATOM     35  O   UNL d   1     -12.105 -12.651   4.176 -0.12 +0.04    -0.251 OA
DOCKED: BRANCH  34  36
DOCKED: ATOM     36  O   UNL d   1     -10.378 -14.045   4.424 -0.15 +0.16    -0.481 OA
DOCKED: ATOM     37  H   UNL d   1      -9.717 -13.482   4.880 -0.30 -0.15    +0.295 HD
DOCKED: ENDBRANCH  34  36
DOCKED: ENDBRANCH  33  34
DOCKED: ENDBRANCH   7  33
DOCKED: BRANCH  27  38
DOCKED: ATOM     38  C   UNL d   1     -11.404  -6.368   5.964 -0.20 -0.01    +0.017 C 
DOCKED: ATOM     39  C   UNL d   1     -12.609  -5.851   5.683 -0.09 -0.05    +0.092 C 
DOCKED: BRANCH  39  40
DOCKED: ATOM     40  C   UNL d   1     -12.713  -4.488   5.154 -0.05 -0.22    +0.330 C 
DOCKED: ATOM     41  O   UNL d   1     -13.686  -3.757   5.168 -0.03 +0.11    -0.246 OA
DOCKED: BRANCH  40  42
DOCKED: ATOM     42  O   UNL d   1     -11.539  -4.106   4.628 -0.09 +0.53    -0.477 OA
DOCKED: ATOM     43  H   UNL d   1     -11.525  -4.538   3.749 -0.38 -0.80    +0.295 HD
DOCKED: ENDBRANCH  40  42
DOCKED: ENDBRANCH  39  40
DOCKED: ENDBRANCH  27  38
DOCKED: BRANCH   8  44
DOCKED: ATOM     44  C   UNL d   1      -4.895 -14.604   8.946 -0.11 -0.00    +0.141 C 
DOCKED: BRANCH  44  45
DOCKED: ATOM     45  C   UNL d   1      -3.574 -14.522   9.664 -0.15 +0.03    +0.306 C 
DOCKED: ATOM     46  O   UNL d   1      -2.554 -15.126   9.380 -0.17 -0.07    -0.251 OA
DOCKED: BRANCH  45  47
DOCKED: ATOM     47  O   UNL d   1      -3.615 -13.697  10.726 -0.39 -0.07    -0.481 OA
DOCKED: ATOM     48  H   UNL d   1      -2.924 -13.025  10.545 +0.12 +0.05    +0.295 HD
DOCKED: ENDBRANCH  45  47
DOCKED: ENDBRANCH  44  45
DOCKED: ENDBRANCH   8  44
DOCKED: BRANCH  22  49
DOCKED: ATOM     49  C   UNL d   1      -7.472  -5.358   9.812 -0.13 -0.01    +0.048 C 
DOCKED: BRANCH  49  50
DOCKED: ATOM     50  C   UNL d   1      -8.016  -5.252  11.236 -0.21 -0.02    +0.125 C 
DOCKED: BRANCH  50  51
DOCKED: ATOM     51  C   UNL d   1      -8.091  -6.606  11.884 -0.08 -0.03    +0.305 C 
DOCKED: ATOM     52  O   UNL d   1      -7.237  -7.157  12.556 -0.16 +0.02    -0.251 OA
DOCKED: BRANCH  51  53
DOCKED: ATOM     53  O   UNL d   1      -9.265  -7.220  11.634 +0.01 +0.05    -0.481 OA
DOCKED: ATOM     54  H   UNL d   1      -9.852  -6.913  12.357 +0.04 -0.03    +0.295 HD
DOCKED: ENDBRANCH  51  53
DOCKED: ENDBRANCH  50  51
DOCKED: ENDBRANCH  49  50
DOCKED: ENDBRANCH  22  49
DOCKED: TORSDOF 13
DOCKED: TER
DOCKED: ENDMDL
________________________________________________________________________________


	BEGINNING GENETIC ALGORITHM DOCKING 72 of 100
Run: 72 Seed: 1779121149 1283061864 [ Run 72 of 100 GA/GALS ]
Beginning LAMARCKIAN GENETIC ALGORITHM (LGA), with a maximum of 25000000 energy evaluations.

Final-Value: -11.898


	FINAL GENETIC ALGORITHM DOCKED STATE
	_______________________________________________


Detailed state:  trans 9.167 16.899 -10.090 quatxyzw -0.360785 -0.428259 0.676764 0.477933 center 0.153 0.018 -0.028 ntor 13 122.5880 127.2558 -116.9510 42.0311 -134.3518 -46.9172 122.4216 -132.5825 26.4171 -22.0319 55.3888 -12.3682 133.0116
State:	  9.167  16.899 -10.090  -0.411 -0.488  0.770 122.899    122.59  127.26 -116.95   42.03 -134.35  -46.92  122.42 -132.58   26.42  -22.03   55.39  -12.37  133.01

DOCKED: MODEL       72
DOCKED: USER    Run = 72
DOCKED: USER    DPF = D:/Protein_go_brrr/autodock/final/mut_K82N/heme/dock.dpf
DOCKED: USER  
DOCKED: USER    Estimated Free Energy of Binding    =   -4.06 kcal/mol  [=(1)+(2)+(3)-(4)]
DOCKED: USER    Estimated Inhibition Constant, Ki   =    1.06 mM (millimolar)  [Temperature = 298.15 K]
DOCKED: USER    
DOCKED: USER    (1) Final Intermolecular Energy     =   -7.93 kcal/mol
DOCKED: USER        vdW + Hbond + desolv Energy     =   -7.83 kcal/mol
DOCKED: USER        Electrostatic Energy            =   -0.11 kcal/mol
DOCKED: USER    (2) Final Total Internal Energy     =   -3.96 kcal/mol
DOCKED: USER    (3) Torsional Free Energy           =   +3.88 kcal/mol
DOCKED: USER    (4) Unbound System's Energy  [=(2)] =   -3.96 kcal/mol
DOCKED: USER    
DOCKED: USER    
DOCKED: USER    NEWDPF move heme_opt.pdbqt
DOCKED: USER    NEWDPF about 0.153000 0.018000 -0.028000
DOCKED: USER    NEWDPF tran0 9.166896 16.899151 -10.089991
DOCKED: USER    NEWDPF quaternion0 -0.360785 -0.428259 0.676764 0.477933
DOCKED: USER    NEWDPF axisangle0 -0.410731 -0.487546 0.770454 122.899034
DOCKED: USER    NEWDPF quat0 -0.410731 -0.487546 0.770454 122.899034
DOCKED: USER    NEWDPF dihe0 122.59 127.26 -116.95 42.03 -134.35 -46.92 122.42 -132.58 26.42 -22.03 55.39 -12.37 133.01 
DOCKED: USER  keepresnum = 1 
DOCKED: USER  
DOCKED: REMARK  13 active torsions:
DOCKED: REMARK  status: ('A' for Active; 'I' for Inactive)
DOCKED: REMARK    1  A    between atoms: O_3  and  C_38 
DOCKED: REMARK    2  A    between atoms: O_4  and  C_40 
DOCKED: REMARK    3  A    between atoms: O_7  and  C_46 
DOCKED: REMARK    4  A    between atoms: O_9  and  C_48 
DOCKED: REMARK    5  A    between atoms: C_15  and  C_20 
DOCKED: REMARK    6  A    between atoms: C_16  and  C_23 
DOCKED: REMARK    7  A    between atoms: C_20  and  C_38 
DOCKED: REMARK    8  A    between atoms: C_23  and  C_40 
DOCKED: REMARK    9  A    between atoms: C_32  and  C_41 
DOCKED: REMARK   10  A    between atoms: C_37  and  C_45 
DOCKED: REMARK   11  A    between atoms: C_41  and  C_44 
DOCKED: REMARK   12  A    between atoms: C_44  and  C_46 
DOCKED: REMARK   13  A    between atoms: C_47  and  C_48 
DOCKED: USER                              x       y       z     vdW  Elec       q    Type
DOCKED: USER                           _______ _______ _______ _____ _____    ______ ____
DOCKED: ROOT
DOCKED: ATOM      1  O   UNL d   1      12.317  17.898  -5.208 -0.04 +0.02    -0.289 OA
DOCKED: ATOM      2  O   UNL d   1       5.411  20.111  -7.156 -0.28 +0.10    -0.289 OA
DOCKED: ATOM      3  N   UNL d   1      10.918  17.171  -8.275 -0.03 +0.00    -0.247 NA
DOCKED: ATOM      4  N   UNL d   1       8.132  18.168  -8.009 -0.09 +0.03    -0.247 NA
DOCKED: ATOM      5  N   UNL d   1       7.479  16.709 -10.399 -0.12 +0.04    -0.354 N 
DOCKED: ATOM      6  N   UNL d   1      10.368  15.664 -10.657 -0.10 -0.00    -0.354 N 
DOCKED: ATOM      7  C   UNL d   1      12.987  16.536  -7.124 -0.08 -0.00    +0.084 A 
DOCKED: ATOM      8  C   UNL d   1       7.739  19.975  -6.412 -0.16 -0.02    +0.084 A 
DOCKED: ATOM      9  C   UNL d   1       8.698  18.952  -7.029 -0.12 -0.01    +0.058 A 
DOCKED: ATOM     10  C   UNL d   1      12.087  16.433  -8.359 -0.08 -0.00    +0.058 A 
DOCKED: ATOM     11  C   UNL d   1      12.128  17.478  -6.335 -0.06 -0.01    +0.193 A 
DOCKED: ATOM     12  C   UNL d   1      10.917  17.809  -7.150 -0.06 -0.01    +0.109 A 
DOCKED: ATOM     13  C   UNL d   1       6.514  19.602  -7.198 -0.21 -0.05    +0.193 A 
DOCKED: ATOM     14  C   UNL d   1      13.084  15.206  -6.372 -0.17 -0.00    +0.026 C 
DOCKED: ATOM     15  C   UNL d   1       9.964  18.800  -6.611 -0.11 -0.01    +0.055 C 
DOCKED: ATOM     16  C   UNL d   1       8.135  21.411  -6.770 -0.12 -0.01    +0.026 C 
DOCKED: ATOM     17  C   UNL d   1       6.883  18.489  -8.124 -0.20 -0.02    +0.109 A 
DOCKED: ATOM     18  C   UNL d   1      12.470  15.748  -9.453 -0.13 -0.00    +0.050 C 
DOCKED: ATOM     19  C   UNL d   1      11.744  15.667 -10.669 -0.11 -0.00    +0.045 A 
DOCKED: ATOM     20  C   UNL d   1       6.221  17.069  -9.992 -0.28 -0.01    +0.045 A 
DOCKED: ATOM     21  C   UNL d   1       5.864  17.885  -8.995 -0.18 -0.02    +0.057 C 
DOCKED: ATOM     22  C   UNL d   1       6.043  15.643 -11.767 -0.30 +0.00    -0.019 A 
DOCKED: ATOM     23  C   UNL d   1       7.473  15.849 -11.465 -0.24 -0.00    +0.045 A 
DOCKED: ATOM     24  C   UNL d   1       5.307  16.369 -10.893 -0.32 +0.00    -0.022 A 
DOCKED: ATOM     25  C   UNL d   1       9.874  15.487 -11.929 -0.14 +0.00    +0.049 A 
DOCKED: ATOM     26  C   UNL d   1      12.155  15.526 -11.985 -0.05 +0.00    -0.018 A 
DOCKED: ATOM     27  C   UNL d   1      10.970  15.433 -12.779 -0.06 -0.00    +0.003 A 
DOCKED: ATOM     28  C   UNL d   1       8.484  15.293 -12.151 -0.22 +0.00    +0.052 C 
DOCKED: ATOM     29  C   UNL d   1       3.824  16.496 -10.803 -0.29 -0.01    +0.046 C 
DOCKED: ATOM     30  C   UNL d   1      13.562  15.482 -12.479 -0.02 -0.00    +0.046 C 
DOCKED: ATOM     31  H   UNL d   1       8.306  17.122  -9.980 +0.05 -0.01    +0.166 HD
DOCKED: ATOM     32  H   UNL d   1       9.814  15.740  -9.812 +0.05 +0.00    +0.166 HD
DOCKED: ENDROOT
DOCKED: BRANCH   7  33
DOCKED: ATOM     33  C   UNL d   1      14.371  17.146  -7.369 -0.03 -0.01    +0.141 C 
DOCKED: BRANCH  33  34
DOCKED: ATOM     34  C   UNL d   1      14.319  18.636  -7.574 -0.01 -0.02    +0.306 C 
DOCKED: ATOM     35  O   UNL d   1      14.018  19.211  -8.607 -0.00 +0.02    -0.251 OA
DOCKED: BRANCH  34  36
DOCKED: ATOM     36  O   UNL d   1      14.646  19.324  -6.466 +0.00 +0.03    -0.481 OA
DOCKED: ATOM     37  H   UNL d   1      13.984  19.046  -5.798 +0.01 -0.02    +0.295 HD
DOCKED: ENDBRANCH  34  36
DOCKED: ENDBRANCH  33  34
DOCKED: ENDBRANCH   7  33
DOCKED: BRANCH  27  38
DOCKED: ATOM     38  C   UNL d   1      10.940  15.262 -14.200 -0.03 -0.00    +0.017 C 
DOCKED: ATOM     39  C   UNL d   1       9.926  15.622 -15.002 -0.01 -0.00    +0.092 C 
DOCKED: BRANCH  39  40
DOCKED: ATOM     40  C   UNL d   1      10.028  15.408 -16.448 +0.00 -0.01    +0.330 C 
DOCKED: ATOM     41  O   UNL d   1      10.950  15.710 -17.181 +0.00 +0.01    -0.246 OA
DOCKED: BRANCH  40  42
DOCKED: ATOM     42  O   UNL d   1       8.924  14.794 -16.902 +0.01 +0.00    -0.477 OA
DOCKED: ATOM     43  H   UNL d   1       8.840  14.006 -16.327 +0.03 +0.01    +0.295 HD
DOCKED: ENDBRANCH  40  42
DOCKED: ENDBRANCH  39  40
DOCKED: ENDBRANCH  27  38
DOCKED: BRANCH   8  44
DOCKED: ATOM     44  C   UNL d   1       7.492  19.827  -4.907 -0.25 -0.04    +0.141 C 
DOCKED: BRANCH  44  45
DOCKED: ATOM     45  C   UNL d   1       6.653  18.627  -4.558 -0.28 -0.06    +0.306 C 
DOCKED: ATOM     46  O   UNL d   1       7.028  17.468  -4.505 -0.43 +0.04    -0.251 OA
DOCKED: BRANCH  45  47
DOCKED: ATOM     47  O   UNL d   1       5.369  18.949  -4.320 -0.69 +0.17    -0.481 OA
DOCKED: ATOM     48  H   UNL d   1       5.045  19.323  -5.167 -0.40 -0.16    +0.295 HD
DOCKED: ENDBRANCH  45  47
DOCKED: ENDBRANCH  44  45
DOCKED: ENDBRANCH   8  44
DOCKED: BRANCH  22  49
DOCKED: ATOM     49  C   UNL d   1       5.533  14.752 -12.863 -0.36 -0.00    +0.048 C 
DOCKED: BRANCH  49  50
DOCKED: ATOM     50  C   UNL d   1       6.181  13.368 -12.818 -0.23 +0.02    +0.125 C 
DOCKED: BRANCH  50  51
DOCKED: ATOM     51  C   UNL d   1       6.842  13.043 -14.127 -0.20 +0.08    +0.305 C 
DOCKED: ATOM     52  O   UNL d   1       6.835  11.978 -14.719 -0.73 -0.16    -0.251 OA
DOCKED: BRANCH  51  53
DOCKED: ATOM     53  O   UNL d   1       7.507  14.101 -14.633 -0.01 -0.04    -0.481 OA
DOCKED: ATOM     54  H   UNL d   1       7.300  14.077 -15.590 +0.06 +0.02    +0.295 HD
DOCKED: ENDBRANCH  51  53
DOCKED: ENDBRANCH  50  51
DOCKED: ENDBRANCH  49  50
DOCKED: ENDBRANCH  22  49
DOCKED: TORSDOF 13
DOCKED: TER
DOCKED: ENDMDL
________________________________________________________________________________


	BEGINNING GENETIC ALGORITHM DOCKING 73 of 100
Run: 73 Seed: 2011493863 526678029 [ Run 73 of 100 GA/GALS ]
Beginning LAMARCKIAN GENETIC ALGORITHM (LGA), with a maximum of 25000000 energy evaluations.

Final-Value: -11.916


	FINAL GENETIC ALGORITHM DOCKED STATE
	_______________________________________________


Detailed state:  trans 11.819 5.120 10.773 quatxyzw -0.743502 -0.348176 0.562316 0.098884 center 0.153 0.018 -0.028 ntor 13 139.8998 -139.1928 123.2825 -37.8188 -137.0522 -82.1995 -37.4488 -125.7417 150.2868 -111.6131 -92.5126 14.3671 -5.0144
State:	 11.819   5.120  10.773  -0.747 -0.350  0.565 168.650    139.90 -139.19  123.28  -37.82 -137.05  -82.20  -37.45 -125.74  150.29 -111.61  -92.51   14.37   -5.01

DOCKED: MODEL       73
DOCKED: USER    Run = 73
DOCKED: USER    DPF = D:/Protein_go_brrr/autodock/final/mut_K82N/heme/dock.dpf
DOCKED: USER  
DOCKED: USER    Estimated Free Energy of Binding    =   -4.28 kcal/mol  [=(1)+(2)+(3)-(4)]
DOCKED: USER    Estimated Inhibition Constant, Ki   =  722.88 uM (micromolar)  [Temperature = 298.15 K]
DOCKED: USER    
DOCKED: USER    (1) Final Intermolecular Energy     =   -8.16 kcal/mol
DOCKED: USER        vdW + Hbond + desolv Energy     =   -8.12 kcal/mol
DOCKED: USER        Electrostatic Energy            =   -0.05 kcal/mol
DOCKED: USER    (2) Final Total Internal Energy     =   -3.75 kcal/mol
DOCKED: USER    (3) Torsional Free Energy           =   +3.88 kcal/mol
DOCKED: USER    (4) Unbound System's Energy  [=(2)] =   -3.75 kcal/mol
DOCKED: USER    
DOCKED: USER    
DOCKED: USER    NEWDPF move heme_opt.pdbqt
DOCKED: USER    NEWDPF about 0.153000 0.018000 -0.028000
DOCKED: USER    NEWDPF tran0 11.818667 5.120044 10.773375
DOCKED: USER    NEWDPF quaternion0 -0.743502 -0.348176 0.562316 0.098884
DOCKED: USER    NEWDPF axisangle0 -0.747164 -0.349891 0.565086 168.650234
DOCKED: USER    NEWDPF quat0 -0.747164 -0.349891 0.565086 168.650234
DOCKED: USER    NEWDPF dihe0 139.90 -139.19 123.28 -37.82 -137.05 -82.20 -37.45 -125.74 150.29 -111.61 -92.51 14.37 -5.01 
DOCKED: USER  keepresnum = 1 
DOCKED: USER  
DOCKED: REMARK  13 active torsions:
DOCKED: REMARK  status: ('A' for Active; 'I' for Inactive)
DOCKED: REMARK    1  A    between atoms: O_3  and  C_38 
DOCKED: REMARK    2  A    between atoms: O_4  and  C_40 
DOCKED: REMARK    3  A    between atoms: O_7  and  C_46 
DOCKED: REMARK    4  A    between atoms: O_9  and  C_48 
DOCKED: REMARK    5  A    between atoms: C_15  and  C_20 
DOCKED: REMARK    6  A    between atoms: C_16  and  C_23 
DOCKED: REMARK    7  A    between atoms: C_20  and  C_38 
DOCKED: REMARK    8  A    between atoms: C_23  and  C_40 
DOCKED: REMARK    9  A    between atoms: C_32  and  C_41 
DOCKED: REMARK   10  A    between atoms: C_37  and  C_45 
DOCKED: REMARK   11  A    between atoms: C_41  and  C_44 
DOCKED: REMARK   12  A    between atoms: C_44  and  C_46 
DOCKED: REMARK   13  A    between atoms: C_47  and  C_48 
DOCKED: USER                              x       y       z     vdW  Elec       q    Type
DOCKED: USER                           _______ _______ _______ _____ _____    ______ ____
DOCKED: ROOT
DOCKED: ATOM      1  O   UNL d   1      11.682   1.244  15.213 -0.21 +0.07    -0.289 OA
DOCKED: ATOM      2  O   UNL d   1       9.650   8.467  14.913 -0.55 -0.01    -0.289 OA
DOCKED: ATOM      3  N   UNL d   1      12.076   3.179  12.386 -0.08 +0.02    -0.247 NA
DOCKED: ATOM      4  N   UNL d   1      10.739   5.731  13.113 -0.17 +0.02    -0.247 NA
DOCKED: ATOM      5  N   UNL d   1      10.824   6.461  10.333 -0.11 +0.00    -0.354 N 
DOCKED: ATOM      6  N   UNL d   1      12.193   3.802   9.585 -0.07 +0.01    -0.354 N 
DOCKED: ATOM      7  C   UNL d   1      12.390   0.806  12.915 -0.26 -0.02    +0.084 A 
DOCKED: ATOM      8  C   UNL d   1      10.627   6.297  15.487 -0.17 -0.01    +0.084 A 
DOCKED: ATOM      9  C   UNL d   1      10.995   5.290  14.392 -0.20 -0.01    +0.058 A 
DOCKED: ATOM     10  C   UNL d   1      12.443   1.940  11.887 -0.19 -0.01    +0.058 A 
DOCKED: ATOM     11  C   UNL d   1      11.945   1.627  14.088 -0.18 -0.03    +0.193 A 
DOCKED: ATOM     12  C   UNL d   1      11.815   3.052  13.646 -0.16 -0.01    +0.109 A 
DOCKED: ATOM     13  C   UNL d   1      10.081   7.375  14.595 -0.19 -0.01    +0.193 A 
DOCKED: ATOM     14  C   UNL d   1      11.300  -0.217  12.585 -0.39 -0.01    +0.026 C 
DOCKED: ATOM     15  C   UNL d   1      11.475   4.067  14.663 -0.22 -0.01    +0.055 C 
DOCKED: ATOM     16  C   UNL d   1      11.868   6.834  16.205 -0.06 -0.00    +0.026 C 
DOCKED: ATOM     17  C   UNL d   1      10.199   6.905  13.181 -0.21 -0.00    +0.109 A 
DOCKED: ATOM     18  C   UNL d   1      12.900   1.736  10.637 -0.22 -0.01    +0.050 C 
DOCKED: ATOM     19  C   UNL d   1      13.064   2.737   9.647 -0.15 -0.00    +0.045 A 
DOCKED: ATOM     20  C   UNL d   1      10.014   7.457  10.813 -0.28 +0.00    +0.045 A 
DOCKED: ATOM     21  C   UNL d   1       9.700   7.743  12.081 -0.04 +0.01    +0.057 C 
DOCKED: ATOM     22  C   UNL d   1      10.079   7.592   8.534 -0.26 -0.00    -0.019 A 
DOCKED: ATOM     23  C   UNL d   1      10.924   6.462   8.967 -0.21 +0.00    +0.045 A 
DOCKED: ATOM     24  C   UNL d   1       9.544   8.178   9.631 -0.32 -0.00    -0.022 A 
DOCKED: ATOM     25  C   UNL d   1      12.481   4.599   8.500 -0.14 -0.00    +0.049 A 
DOCKED: ATOM     26  C   UNL d   1      13.962   2.865   8.598 -0.09 +0.00    -0.018 A 
DOCKED: ATOM     27  C   UNL d   1      13.601   4.053   7.890 -0.09 -0.00    +0.003 A 
DOCKED: ATOM     28  C   UNL d   1      11.623   5.672   8.137 -0.08 +0.00    +0.052 C 
DOCKED: ATOM     29  C   UNL d   1       8.637   9.358   9.710 -0.30 +0.02    +0.046 C 
DOCKED: ATOM     30  C   UNL d   1      15.088   1.943   8.274 -0.07 +0.00    +0.046 C 
DOCKED: ATOM     31  H   UNL d   1      11.343   5.856  10.961 +0.06 -0.00    +0.166 HD
DOCKED: ATOM     32  H   UNL d   1      11.428   3.939  10.234 +0.07 -0.00    +0.166 HD
DOCKED: ENDROOT
DOCKED: BRANCH   7  33
DOCKED: ATOM     33  C   UNL d   1      13.730   0.125  13.212 -0.19 -0.02    +0.141 C 
DOCKED: BRANCH  33  34
DOCKED: ATOM     34  C   UNL d   1      13.564  -1.218  13.870 -0.24 -0.05    +0.306 C 
DOCKED: ATOM     35  O   UNL d   1      13.385  -1.420  15.059 -0.28 +0.03    -0.251 OA
DOCKED: BRANCH  34  36
DOCKED: ATOM     36  O   UNL d   1      13.629  -2.236  12.993 -0.20 +0.09    -0.481 OA
DOCKED: ATOM     37  H   UNL d   1      13.103  -1.933  12.223 -0.41 -0.16    +0.295 HD
DOCKED: ENDBRANCH  34  36
DOCKED: ENDBRANCH  33  34
DOCKED: ENDBRANCH   7  33
DOCKED: BRANCH  27  38
DOCKED: ATOM     38  C   UNL d   1      14.264   4.550   6.722 -0.06 -0.00    +0.017 C 
DOCKED: ATOM     39  C   UNL d   1      14.711   5.805   6.561 -0.03 -0.00    +0.092 C 
DOCKED: BRANCH  39  40
DOCKED: ATOM     40  C   UNL d   1      15.391   6.184   5.319 -0.01 -0.00    +0.330 C 
DOCKED: ATOM     41  O   UNL d   1      16.565   6.036   5.039 -0.00 +0.00    -0.246 OA
DOCKED: BRANCH  40  42
DOCKED: ATOM     42  O   UNL d   1      14.517   6.740   4.466 -0.00 +0.00    -0.477 OA
DOCKED: ATOM     43  H   UNL d   1      13.960   7.308   5.037 +0.02 +0.00    +0.295 HD
DOCKED: ENDBRANCH  40  42
DOCKED: ENDBRANCH  39  40
DOCKED: ENDBRANCH  27  38
DOCKED: BRANCH   8  44
DOCKED: ATOM     44  C   UNL d   1       9.568   5.825  16.489 -0.14 -0.01    +0.141 C 
DOCKED: BRANCH  44  45
DOCKED: ATOM     45  C   UNL d   1       8.921   6.955  17.246 -0.14 -0.03    +0.306 C 
DOCKED: ATOM     46  O   UNL d   1       9.370   7.524  18.226 -0.06 +0.01    -0.251 OA
DOCKED: BRANCH  45  47
DOCKED: ATOM     47  O   UNL d   1       7.721   7.292  16.741 -0.07 +0.17    -0.481 OA
DOCKED: ATOM     48  H   UNL d   1       7.901   7.522  15.805 -0.35 -0.13    +0.295 HD
DOCKED: ENDBRANCH  45  47
DOCKED: ENDBRANCH  44  45
DOCKED: ENDBRANCH   8  44
DOCKED: BRANCH  22  49
DOCKED: ATOM     49  C   UNL d   1       9.862   7.981   7.101 -0.23 +0.02    +0.048 C 
DOCKED: BRANCH  49  50
DOCKED: ATOM     50  C   UNL d   1      10.925   8.966   6.613 -0.14 +0.04    +0.125 C 
DOCKED: BRANCH  50  51
DOCKED: ATOM     51  C   UNL d   1      12.120   8.238   6.065 -0.05 +0.03    +0.305 C 
DOCKED: ATOM     52  O   UNL d   1      13.294   8.444   6.316 -0.02 -0.01    -0.251 OA
DOCKED: BRANCH  51  53
DOCKED: ATOM     53  O   UNL d   1      11.766   7.270   5.197 -0.02 -0.03    -0.481 OA
DOCKED: ATOM     54  H   UNL d   1      12.455   7.311   4.501 +0.06 +0.01    +0.295 HD
DOCKED: ENDBRANCH  51  53
DOCKED: ENDBRANCH  50  51
DOCKED: ENDBRANCH  49  50
DOCKED: ENDBRANCH  22  49
DOCKED: TORSDOF 13
DOCKED: TER
DOCKED: ENDMDL
________________________________________________________________________________


	BEGINNING GENETIC ALGORITHM DOCKING 74 of 100
Run: 74 Seed: 1158120243 343264941 [ Run 74 of 100 GA/GALS ]
Beginning LAMARCKIAN GENETIC ALGORITHM (LGA), with a maximum of 25000000 energy evaluations.

Final-Value: -10.108


	FINAL GENETIC ALGORITHM DOCKED STATE
	_______________________________________________


Detailed state:  trans 12.360 9.567 -10.693 quatxyzw 0.291992 0.888664 0.143678 -0.323069 center 0.153 0.018 -0.028 ntor 13 -163.0411 -30.9743 142.9593 55.7447 -164.3058 125.3501 -20.0716 -54.7262 7.2495 146.7553 58.1317 39.5933 48.9696
State:	 12.360   9.567 -10.693   0.309  0.939  0.152 -142.303   -163.04  -30.97  142.96   55.74 -164.31  125.35  -20.07  -54.73    7.25  146.76   58.13   39.59   48.97

DOCKED: MODEL       74
DOCKED: USER    Run = 74
DOCKED: USER    DPF = D:/Protein_go_brrr/autodock/final/mut_K82N/heme/dock.dpf
DOCKED: USER  
DOCKED: USER    Estimated Free Energy of Binding    =   -4.71 kcal/mol  [=(1)+(2)+(3)-(4)]
DOCKED: USER    Estimated Inhibition Constant, Ki   =  353.51 uM (micromolar)  [Temperature = 298.15 K]
DOCKED: USER    
DOCKED: USER    (1) Final Intermolecular Energy     =   -8.59 kcal/mol
DOCKED: USER        vdW + Hbond + desolv Energy     =   -8.34 kcal/mol
DOCKED: USER        Electrostatic Energy            =   -0.25 kcal/mol
DOCKED: USER    (2) Final Total Internal Energy     =   -1.52 kcal/mol
DOCKED: USER    (3) Torsional Free Energy           =   +3.88 kcal/mol
DOCKED: USER    (4) Unbound System's Energy  [=(2)] =   -1.52 kcal/mol
DOCKED: USER    
DOCKED: USER    
DOCKED: USER    NEWDPF move heme_opt.pdbqt
DOCKED: USER    NEWDPF about 0.153000 0.018000 -0.028000
DOCKED: USER    NEWDPF tran0 12.360027 9.566882 -10.692649
DOCKED: USER    NEWDPF quaternion0 0.291992 0.888664 0.143678 -0.323069
DOCKED: USER    NEWDPF axisangle0 0.308538 0.939018 0.151819 -142.302749
DOCKED: USER    NEWDPF quat0 0.308538 0.939018 0.151819 -142.302749
DOCKED: USER    NEWDPF dihe0 -163.04 -30.97 142.96 55.74 -164.31 125.35 -20.07 -54.73 7.25 146.76 58.13 39.59 48.97 
DOCKED: USER  keepresnum = 1 
DOCKED: USER  
DOCKED: REMARK  13 active torsions:
DOCKED: REMARK  status: ('A' for Active; 'I' for Inactive)
DOCKED: REMARK    1  A    between atoms: O_3  and  C_38 
DOCKED: REMARK    2  A    between atoms: O_4  and  C_40 
DOCKED: REMARK    3  A    between atoms: O_7  and  C_46 
DOCKED: REMARK    4  A    between atoms: O_9  and  C_48 
DOCKED: REMARK    5  A    between atoms: C_15  and  C_20 
DOCKED: REMARK    6  A    between atoms: C_16  and  C_23 
DOCKED: REMARK    7  A    between atoms: C_20  and  C_38 
DOCKED: REMARK    8  A    between atoms: C_23  and  C_40 
DOCKED: REMARK    9  A    between atoms: C_32  and  C_41 
DOCKED: REMARK   10  A    between atoms: C_37  and  C_45 
DOCKED: REMARK   11  A    between atoms: C_41  and  C_44 
DOCKED: REMARK   12  A    between atoms: C_44  and  C_46 
DOCKED: REMARK   13  A    between atoms: C_47  and  C_48 
DOCKED: USER                              x       y       z     vdW  Elec       q    Type
DOCKED: USER                           _______ _______ _______ _____ _____    ______ ____
DOCKED: ROOT
DOCKED: ATOM      1  O   UNL d   1      16.989   7.509  -7.678 -0.01 +0.02    -0.289 OA
DOCKED: ATOM      2  O   UNL d   1      10.905   4.016 -10.358 -0.13 +0.13    -0.289 OA
DOCKED: ATOM      3  N   UNL d   1      14.436   9.176  -9.289 -0.13 +0.01    -0.247 NA
DOCKED: ATOM      4  N   UNL d   1      12.671   6.978 -10.230 -0.17 +0.03    -0.247 NA
DOCKED: ATOM      5  N   UNL d   1      11.337   8.893 -11.909 -0.16 +0.00    -0.354 N 
DOCKED: ATOM      6  N   UNL d   1      13.185  11.163 -10.942 -0.11 +0.00    -0.354 N 
DOCKED: ATOM      7  C   UNL d   1      16.644   9.808  -8.432 -0.05 -0.00    +0.084 A 
DOCKED: ATOM      8  C   UNL d   1      12.728   4.883  -8.973 -0.22 -0.02    +0.084 A 
DOCKED: ATOM      9  C   UNL d   1      13.289   6.289  -9.210 -0.17 -0.01    +0.058 A 
DOCKED: ATOM     10  C   UNL d   1      15.347  10.208  -9.142 -0.12 -0.00    +0.058 A 
DOCKED: ATOM     11  C   UNL d   1      16.296   8.370  -8.186 -0.05 -0.01    +0.193 A 
DOCKED: ATOM     12  C   UNL d   1      14.923   8.117  -8.728 -0.13 -0.01    +0.109 A 
DOCKED: ATOM     13  C   UNL d   1      11.702   4.888 -10.071 -0.19 -0.06    +0.193 A 
DOCKED: ATOM     14  C   UNL d   1      17.854   9.872  -9.367 -0.02 -0.00    +0.026 C 
DOCKED: ATOM     15  C   UNL d   1      14.327   6.783  -8.517 -0.17 -0.01    +0.055 C 
DOCKED: ATOM     16  C   UNL d   1      12.007   4.780  -7.626 -0.36 -0.01    +0.026 C 
DOCKED: ATOM     17  C   UNL d   1      11.775   6.211 -10.762 -0.21 -0.02    +0.109 A 
DOCKED: ATOM     18  C   UNL d   1      15.107  11.484  -9.500 -0.12 -0.00    +0.050 C 
DOCKED: ATOM     19  C   UNL d   1      13.906  11.962 -10.083 -0.15 -0.00    +0.045 A 
DOCKED: ATOM     20  C   UNL d   1      10.784   7.734 -12.388 -0.22 -0.00    +0.045 A 
DOCKED: ATOM     21  C   UNL d   1      10.909   6.489 -11.917 -0.25 -0.01    +0.057 C 
DOCKED: ATOM     22  C   UNL d   1      10.118   9.472 -13.712 -0.23 -0.01    -0.019 A 
DOCKED: ATOM     23  C   UNL d   1      10.993   9.996 -12.644 -0.15 +0.00    +0.045 A 
DOCKED: ATOM     24  C   UNL d   1       9.998   8.133 -13.555 -0.24 -0.00    -0.022 A 
DOCKED: ATOM     25  C   UNL d   1      12.113  11.854 -11.458 -0.20 +0.00    +0.049 A 
DOCKED: ATOM     26  C   UNL d   1      13.266  13.190 -10.011 -0.17 +0.00    -0.018 A 
DOCKED: ATOM     27  C   UNL d   1      12.124  13.109 -10.866 -0.23 +0.00    +0.003 A 
DOCKED: ATOM     28  C   UNL d   1      11.310  11.290 -12.487 -0.21 +0.01    +0.052 C 
DOCKED: ATOM     29  C   UNL d   1       9.214   7.164 -14.373 -0.14 +0.02    +0.046 C 
DOCKED: ATOM     30  C   UNL d   1      13.687  14.366  -9.198 -0.14 -0.00    +0.046 C 
DOCKED: ATOM     31  H   UNL d   1      11.874   8.903 -11.049 +0.02 -0.01    +0.166 HD
DOCKED: ATOM     32  H   UNL d   1      13.448  10.214 -11.179 +0.03 -0.00    +0.166 HD
DOCKED: ENDROOT
DOCKED: BRANCH   7  33
DOCKED: ATOM     33  C   UNL d   1      16.917  10.529  -7.108 -0.04 -0.01    +0.141 C 
DOCKED: BRANCH  33  34
DOCKED: ATOM     34  C   UNL d   1      15.782  10.395  -6.130 -0.07 -0.02    +0.306 C 
DOCKED: ATOM     35  O   UNL d   1      15.027  11.284  -5.776 -0.11 +0.02    -0.251 OA
DOCKED: BRANCH  34  36
DOCKED: ATOM     36  O   UNL d   1      15.655   9.144  -5.651 -0.03 +0.02    -0.481 OA
DOCKED: ATOM     37  H   UNL d   1      16.495   8.700  -5.896 +0.04 -0.01    +0.295 HD
DOCKED: ENDBRANCH  34  36
DOCKED: ENDBRANCH  33  34
DOCKED: ENDBRANCH   7  33
DOCKED: BRANCH  27  38
DOCKED: ATOM     38  C   UNL d   1      11.190  14.169 -11.098 -0.27 +0.00    +0.017 C 
DOCKED: ATOM     39  C   UNL d   1       9.961  14.249 -10.565 -0.33 +0.01    +0.092 C 
DOCKED: BRANCH  39  40
DOCKED: ATOM     40  C   UNL d   1       9.107  15.400 -10.870 -0.18 +0.00    +0.330 C 
DOCKED: ATOM     41  O   UNL d   1       7.991  15.391 -11.354 -0.23 +0.01    -0.246 OA
DOCKED: BRANCH  40  42
DOCKED: ATOM     42  O   UNL d   1       9.727  16.539 -10.525 -0.05 +0.01    -0.477 OA
DOCKED: ATOM     43  H   UNL d   1       9.389  17.195 -11.170 +0.06 -0.02    +0.295 HD
DOCKED: ENDBRANCH  40  42
DOCKED: ENDBRANCH  39  40
DOCKED: ENDBRANCH  27  38
DOCKED: BRANCH   8  44
DOCKED: ATOM     44  C   UNL d   1      13.725   3.734  -9.158 -0.12 -0.05    +0.141 C 
DOCKED: BRANCH  44  45
DOCKED: ATOM     45  C   UNL d   1      14.334   3.262  -7.864 -0.09 -0.09    +0.306 C 
DOCKED: ATOM     46  O   UNL d   1      15.054   3.907  -7.122 -0.04 +0.03    -0.251 OA
DOCKED: BRANCH  45  47
DOCKED: ATOM     47  O   UNL d   1      14.023   1.983  -7.586 -0.13 +0.24    -0.481 OA
DOCKED: ATOM     48  H   UNL d   1      13.092   1.885  -7.879 -0.34 -0.45    +0.295 HD
DOCKED: ENDBRANCH  45  47
DOCKED: ENDBRANCH  44  45
DOCKED: ENDBRANCH   8  44
DOCKED: BRANCH  22  49
DOCKED: ATOM     49  C   UNL d   1       9.500  10.318 -14.786 -0.16 +0.02    +0.048 C 
DOCKED: BRANCH  49  50
DOCKED: ATOM     50  C   UNL d   1       9.132  11.710 -14.272 -0.18 +0.04    +0.125 C 
DOCKED: BRANCH  50  51
DOCKED: ATOM     51  C   UNL d   1       7.662  11.971 -14.437 -0.15 +0.15    +0.305 C 
DOCKED: ATOM     52  O   UNL d   1       7.023  11.996 -15.475 -0.70 -0.15    -0.251 OA
DOCKED: BRANCH  51  53
DOCKED: ATOM     53  O   UNL d   1       7.056  12.206 -13.256 -0.14 -0.19    -0.481 OA
DOCKED: ATOM     54  H   UNL d   1       6.331  11.547 -13.225 -0.31 +0.14    +0.295 HD
DOCKED: ENDBRANCH  51  53
DOCKED: ENDBRANCH  50  51
DOCKED: ENDBRANCH  49  50
DOCKED: ENDBRANCH  22  49
DOCKED: TORSDOF 13
DOCKED: TER
DOCKED: ENDMDL
________________________________________________________________________________


	BEGINNING GENETIC ALGORITHM DOCKING 75 of 100
Run: 75 Seed: 2077001040 2041128447 [ Run 75 of 100 GA/GALS ]
Beginning LAMARCKIAN GENETIC ALGORITHM (LGA), with a maximum of 25000000 energy evaluations.

Final-Value: -11.458


	FINAL GENETIC ALGORITHM DOCKED STATE
	_______________________________________________


Detailed state:  trans -12.215 10.541 -0.151 quatxyzw -0.176641 0.726105 0.171701 0.641941 center 0.153 0.018 -0.028 ntor 13 -113.4514 -19.3405 -161.8068 -97.0404 53.5974 -124.4387 -77.0033 -88.5233 148.4061 -153.1066 47.0621 30.1578 130.4820
State:	-12.215  10.541  -0.151  -0.230  0.947  0.224 100.127   -113.45  -19.34 -161.81  -97.04   53.60 -124.44  -77.00  -88.52  148.41 -153.11   47.06   30.16  130.48

DOCKED: MODEL       75
DOCKED: USER    Run = 75
DOCKED: USER    DPF = D:/Protein_go_brrr/autodock/final/mut_K82N/heme/dock.dpf
DOCKED: USER  
DOCKED: USER    Estimated Free Energy of Binding    =   -5.33 kcal/mol  [=(1)+(2)+(3)-(4)]
DOCKED: USER    Estimated Inhibition Constant, Ki   =  123.46 uM (micromolar)  [Temperature = 298.15 K]
DOCKED: USER    
DOCKED: USER    (1) Final Intermolecular Energy     =   -9.21 kcal/mol
DOCKED: USER        vdW + Hbond + desolv Energy     =   -8.56 kcal/mol
DOCKED: USER        Electrostatic Energy            =   -0.65 kcal/mol
DOCKED: USER    (2) Final Total Internal Energy     =   -2.25 kcal/mol
DOCKED: USER    (3) Torsional Free Energy           =   +3.88 kcal/mol
DOCKED: USER    (4) Unbound System's Energy  [=(2)] =   -2.25 kcal/mol
DOCKED: USER    
DOCKED: USER    
DOCKED: USER    NEWDPF move heme_opt.pdbqt
DOCKED: USER    NEWDPF about 0.153000 0.018000 -0.028000
DOCKED: USER    NEWDPF tran0 -12.214972 10.541357 -0.150863
DOCKED: USER    NEWDPF quaternion0 -0.176641 0.726105 0.171701 0.641941
DOCKED: USER    NEWDPF axisangle0 -0.230375 0.946986 0.223933 100.126522
DOCKED: USER    NEWDPF quat0 -0.230375 0.946986 0.223933 100.126522
DOCKED: USER    NEWDPF dihe0 -113.45 -19.34 -161.81 -97.04 53.60 -124.44 -77.00 -88.52 148.41 -153.11 47.06 30.16 130.48 
DOCKED: USER  keepresnum = 1 
DOCKED: USER  
DOCKED: REMARK  13 active torsions:
DOCKED: REMARK  status: ('A' for Active; 'I' for Inactive)
DOCKED: REMARK    1  A    between atoms: O_3  and  C_38 
DOCKED: REMARK    2  A    between atoms: O_4  and  C_40 
DOCKED: REMARK    3  A    between atoms: O_7  and  C_46 
DOCKED: REMARK    4  A    between atoms: O_9  and  C_48 
DOCKED: REMARK    5  A    between atoms: C_15  and  C_20 
DOCKED: REMARK    6  A    between atoms: C_16  and  C_23 
DOCKED: REMARK    7  A    between atoms: C_20  and  C_38 
DOCKED: REMARK    8  A    between atoms: C_23  and  C_40 
DOCKED: REMARK    9  A    between atoms: C_32  and  C_41 
DOCKED: REMARK   10  A    between atoms: C_37  and  C_45 
DOCKED: REMARK   11  A    between atoms: C_41  and  C_44 
DOCKED: REMARK   12  A    between atoms: C_44  and  C_46 
DOCKED: REMARK   13  A    between atoms: C_47  and  C_48 
DOCKED: USER                              x       y       z     vdW  Elec       q    Type
DOCKED: USER                           _______ _______ _______ _____ _____    ______ ____
DOCKED: ROOT
DOCKED: ATOM      1  O   UNL d   1     -12.283  14.716  -4.313 -0.11 -0.15    -0.289 OA
DOCKED: ATOM      2  O   UNL d   1     -10.171   7.515  -4.589 -0.72 -0.22    -0.289 OA
DOCKED: ATOM      3  N   UNL d   1     -12.292  12.659  -1.544 -0.02 -0.05    -0.247 NA
DOCKED: ATOM      4  N   UNL d   1     -11.614   9.995  -2.671 -0.14 -0.06    -0.247 NA
DOCKED: ATOM      5  N   UNL d   1     -12.446   8.831  -0.177 -0.07 -0.06    -0.354 N 
DOCKED: ATOM      6  N   UNL d   1     -13.166  11.597   0.977 +0.10 -0.06    -0.354 N 
DOCKED: ATOM      7  C   UNL d   1     -13.045  14.946  -2.002 -0.15 +0.02    +0.084 A 
DOCKED: ATOM      8  C   UNL d   1     -10.318   9.954  -4.743 -0.29 +0.03    +0.084 A 
DOCKED: ATOM      9  C   UNL d   1     -11.071  10.760  -3.679 -0.27 +0.01    +0.058 A 
DOCKED: ATOM     10  C   UNL d   1     -12.892  13.788  -1.012 -0.17 +0.01    +0.058 A 
DOCKED: ATOM     11  C   UNL d   1     -12.409  14.279  -3.184 -0.15 +0.06    +0.193 A 
DOCKED: ATOM     12  C   UNL d   1     -11.971  12.907  -2.772 -0.22 +0.03    +0.109 A 
DOCKED: ATOM     13  C   UNL d   1     -10.566   8.586  -4.172 -0.24 +0.09    +0.193 A 
DOCKED: ATOM     14  C   UNL d   1     -14.513  15.234  -2.327 -0.06 +0.00    +0.026 C 
DOCKED: ATOM     15  C   UNL d   1     -11.229  12.090  -3.754 -0.32 +0.01    +0.055 C 
DOCKED: ATOM     16  C   UNL d   1      -8.813  10.235  -4.709 -0.29 +0.01    +0.026 C 
DOCKED: ATOM     17  C   UNL d   1     -11.369   8.749  -2.922 -0.27 +0.03    +0.109 A 
DOCKED: ATOM     18  C   UNL d   1     -13.238  13.919   0.283 -0.16 +0.01    +0.050 C 
DOCKED: ATOM     19  C   UNL d   1     -13.055  12.934   1.287 -0.11 +0.01    +0.045 A 
DOCKED: ATOM     20  C   UNL d   1     -12.301   7.695  -0.930 -0.26 +0.01    +0.045 A 
DOCKED: ATOM     21  C   UNL d   1     -11.802   7.566  -2.164 -0.33 +0.02    +0.057 C 
DOCKED: ATOM     22  C   UNL d   1     -13.226   7.134   1.081 -0.22 -0.00    -0.019 A 
DOCKED: ATOM     23  C   UNL d   1     -12.997   8.592   1.053 -0.20 +0.01    +0.045 A 
DOCKED: ATOM     24  C   UNL d   1     -12.810   6.608  -0.095 -0.25 -0.00    -0.022 A 
DOCKED: ATOM     25  C   UNL d   1     -13.043  10.827   2.110 -0.08 +0.01    +0.049 A 
DOCKED: ATOM     26  C   UNL d   1     -12.817  13.033   2.649 -0.13 -0.00    -0.018 A 
DOCKED: ATOM     27  C   UNL d   1     -12.791  11.699   3.160 -0.13 +0.00    +0.003 A 
DOCKED: ATOM     28  C   UNL d   1     -13.277   9.425   2.067 -0.19 +0.01    +0.052 C 
DOCKED: ATOM     29  C   UNL d   1     -12.824   5.184  -0.538 -0.24 +0.01    +0.046 C 
DOCKED: ATOM     30  C   UNL d   1     -12.624  14.288   3.430 -0.12 +0.00    +0.046 C 
DOCKED: ATOM     31  H   UNL d   1     -12.095   9.726  -0.501 +0.11 +0.04    +0.166 HD
DOCKED: ATOM     32  H   UNL d   1     -13.354  11.252   0.043 +0.04 +0.03    +0.166 HD
DOCKED: ENDROOT
DOCKED: BRANCH   7  33
DOCKED: ATOM     33  C   UNL d   1     -12.289  16.228  -1.636 -0.25 +0.04    +0.141 C 
DOCKED: BRANCH  33  34
DOCKED: ATOM     34  C   UNL d   1     -12.770  17.425  -2.409 -0.12 +0.09    +0.306 C 
DOCKED: ATOM     35  O   UNL d   1     -13.429  18.351  -1.967 -0.05 -0.05    -0.251 OA
DOCKED: BRANCH  34  36
DOCKED: ATOM     36  O   UNL d   1     -12.394  17.395  -3.700 -0.04 -0.27    -0.481 OA
DOCKED: ATOM     37  H   UNL d   1     -12.849  16.609  -4.071 +0.06 +0.16    +0.295 HD
DOCKED: ENDBRANCH  34  36
DOCKED: ENDBRANCH  33  34
DOCKED: ENDBRANCH   7  33
DOCKED: BRANCH  27  38
DOCKED: ATOM     38  C   UNL d   1     -12.588  11.345   4.532 -0.15 +0.00    +0.017 C 
DOCKED: ATOM     39  C   UNL d   1     -11.517  10.695   5.014 -0.24 +0.01    +0.092 C 
DOCKED: BRANCH  39  40
DOCKED: ATOM     40  C   UNL d   1     -11.422  10.407   6.448 -0.10 -0.05    +0.330 C 
DOCKED: ATOM     41  O   UNL d   1     -10.509  10.682   7.203 -0.18 +0.08    -0.246 OA
DOCKED: BRANCH  40  42
DOCKED: ATOM     42  O   UNL d   1     -12.529   9.773   6.866 -0.15 -0.01    -0.477 OA
DOCKED: ATOM     43  H   UNL d   1     -12.255   9.352   7.706 -0.44 -0.31    +0.295 HD
DOCKED: ENDBRANCH  40  42
DOCKED: ENDBRANCH  39  40
DOCKED: ENDBRANCH  27  38
DOCKED: BRANCH   8  44
DOCKED: ATOM     44  C   UNL d   1     -10.871  10.062  -6.168 -0.14 +0.04    +0.141 C 
DOCKED: BRANCH  44  45
DOCKED: ATOM     45  C   UNL d   1      -9.852   9.737  -7.227 -0.12 +0.08    +0.306 C 
DOCKED: ATOM     46  O   UNL d   1      -9.477  10.471  -8.125 -0.14 -0.06    -0.251 OA
DOCKED: BRANCH  45  47
DOCKED: ATOM     47  O   UNL d   1      -9.375   8.484  -7.115 -0.18 -0.19    -0.481 OA
DOCKED: ATOM     48  H   UNL d   1     -10.024   8.022  -6.542 +0.10 +0.17    +0.295 HD
DOCKED: ENDBRANCH  45  47
DOCKED: ENDBRANCH  44  45
DOCKED: ENDBRANCH   8  44
DOCKED: BRANCH  22  49
DOCKED: ATOM     49  C   UNL d   1     -13.837   6.399   2.238 -0.17 +0.02    +0.048 C 
DOCKED: BRANCH  49  50
DOCKED: ATOM     50  C   UNL d   1     -15.098   7.094   2.751 -0.09 +0.04    +0.125 C 
DOCKED: BRANCH  50  51
DOCKED: ATOM     51  C   UNL d   1     -15.064   7.229   4.247 -0.04 +0.21    +0.305 C 
DOCKED: ATOM     52  O   UNL d   1     -15.554   6.479   5.073 -0.07 -0.18    -0.251 OA
DOCKED: BRANCH  51  53
DOCKED: ATOM     53  O   UNL d   1     -14.408   8.340   4.638 -0.44 -0.47    -0.481 OA
DOCKED: ATOM     54  H   UNL d   1     -15.078   9.051   4.563 +0.04 +0.14    +0.295 HD
DOCKED: ENDBRANCH  51  53
DOCKED: ENDBRANCH  50  51
DOCKED: ENDBRANCH  49  50
DOCKED: ENDBRANCH  22  49
DOCKED: TORSDOF 13
DOCKED: TER
DOCKED: ENDMDL
________________________________________________________________________________


	BEGINNING GENETIC ALGORITHM DOCKING 76 of 100
Run: 76 Seed: 1985751472 1798241125 [ Run 76 of 100 GA/GALS ]
Beginning LAMARCKIAN GENETIC ALGORITHM (LGA), with a maximum of 25000000 energy evaluations.

Final-Value: -11.459


	FINAL GENETIC ALGORITHM DOCKED STATE
	_______________________________________________


Detailed state:  trans 12.626 -8.709 3.029 quatxyzw 0.328752 -0.329990 -0.666226 -0.582384 center 0.153 0.018 -0.028 ntor 13 -139.3950 -169.3189 -89.2738 41.3614 37.2855 -108.4567 141.9072 38.3378 155.6428 -80.2835 -87.4907 37.3430 2.4755
State:	 12.626  -8.709   3.029   0.404 -0.406 -0.820 -108.763   -139.39 -169.32  -89.27   41.36   37.29 -108.46  141.91   38.34  155.64  -80.28  -87.49   37.34    2.48

DOCKED: MODEL       76
DOCKED: USER    Run = 76
DOCKED: USER    DPF = D:/Protein_go_brrr/autodock/final/mut_K82N/heme/dock.dpf
DOCKED: USER  
DOCKED: USER    Estimated Free Energy of Binding    =   -3.14 kcal/mol  [=(1)+(2)+(3)-(4)]
DOCKED: USER    Estimated Inhibition Constant, Ki   =    4.99 mM (millimolar)  [Temperature = 298.15 K]
DOCKED: USER    
DOCKED: USER    (1) Final Intermolecular Energy     =   -7.02 kcal/mol
DOCKED: USER        vdW + Hbond + desolv Energy     =   -6.79 kcal/mol
DOCKED: USER        Electrostatic Energy            =   -0.22 kcal/mol
DOCKED: USER    (2) Final Total Internal Energy     =   -4.44 kcal/mol
DOCKED: USER    (3) Torsional Free Energy           =   +3.88 kcal/mol
DOCKED: USER    (4) Unbound System's Energy  [=(2)] =   -4.44 kcal/mol
DOCKED: USER    
DOCKED: USER    
DOCKED: USER    NEWDPF move heme_opt.pdbqt
DOCKED: USER    NEWDPF about 0.153000 0.018000 -0.028000
DOCKED: USER    NEWDPF tran0 12.625530 -8.709130 3.028766
DOCKED: USER    NEWDPF quaternion0 0.328752 -0.329990 -0.666226 -0.582384
DOCKED: USER    NEWDPF axisangle0 0.404412 -0.405935 -0.819553 -108.763217
DOCKED: USER    NEWDPF quat0 0.404412 -0.405935 -0.819553 -108.763217
DOCKED: USER    NEWDPF dihe0 -139.39 -169.32 -89.27 41.36 37.29 -108.46 141.91 38.34 155.64 -80.28 -87.49 37.34 2.48 
DOCKED: USER  keepresnum = 1 
DOCKED: USER  
DOCKED: REMARK  13 active torsions:
DOCKED: REMARK  status: ('A' for Active; 'I' for Inactive)
DOCKED: REMARK    1  A    between atoms: O_3  and  C_38 
DOCKED: REMARK    2  A    between atoms: O_4  and  C_40 
DOCKED: REMARK    3  A    between atoms: O_7  and  C_46 
DOCKED: REMARK    4  A    between atoms: O_9  and  C_48 
DOCKED: REMARK    5  A    between atoms: C_15  and  C_20 
DOCKED: REMARK    6  A    between atoms: C_16  and  C_23 
DOCKED: REMARK    7  A    between atoms: C_20  and  C_38 
DOCKED: REMARK    8  A    between atoms: C_23  and  C_40 
DOCKED: REMARK    9  A    between atoms: C_32  and  C_41 
DOCKED: REMARK   10  A    between atoms: C_37  and  C_45 
DOCKED: REMARK   11  A    between atoms: C_41  and  C_44 
DOCKED: REMARK   12  A    between atoms: C_44  and  C_46 
DOCKED: REMARK   13  A    between atoms: C_47  and  C_48 
DOCKED: USER                              x       y       z     vdW  Elec       q    Type
DOCKED: USER                           _______ _______ _______ _____ _____    ______ ____
DOCKED: ROOT
DOCKED: ATOM      1  O   UNL d   1      13.629  -3.276   5.086 -0.20 -0.05    -0.289 OA
DOCKED: ATOM      2  O   UNL d   1      11.495  -5.657  -1.709 -0.07 -0.02    -0.289 OA
DOCKED: ATOM      3  N   UNL d   1      13.294  -6.617   4.297 -0.12 -0.02    -0.247 NA
DOCKED: ATOM      4  N   UNL d   1      12.145  -6.560   1.558 -0.13 -0.00    -0.247 NA
DOCKED: ATOM      5  N   UNL d   1      11.537  -9.355   1.855 -0.10 -0.02    -0.354 N 
DOCKED: ATOM      6  N   UNL d   1      12.714  -9.400   4.704 -0.11 -0.04    -0.354 N 
DOCKED: ATOM      7  C   UNL d   1      13.758  -5.363   6.352 -0.24 +0.01    +0.084 A 
DOCKED: ATOM      8  C   UNL d   1      12.610  -4.589   0.191 -0.13 +0.00    +0.084 A 
DOCKED: ATOM      9  C   UNL d   1      12.711  -5.305   1.542 -0.17 -0.00    +0.058 A 
DOCKED: ATOM     10  C   UNL d   1      13.543  -6.711   5.656 -0.22 +0.01    +0.058 A 
DOCKED: ATOM     11  C   UNL d   1      13.604  -4.492   5.142 -0.08 +0.03    +0.193 A 
DOCKED: ATOM     12  C   UNL d   1      13.352  -5.371   3.956 -0.05 +0.01    +0.109 A 
DOCKED: ATOM     13  C   UNL d   1      11.849  -5.655  -0.546 -0.09 +0.00    +0.193 A 
DOCKED: ATOM     14  C   UNL d   1      12.634  -5.042   7.340 -0.41 +0.00    +0.026 C 
DOCKED: ATOM     15  C   UNL d   1      13.259  -4.735   2.626 -0.16 +0.00    +0.055 C 
DOCKED: ATOM     16  C   UNL d   1      13.983  -4.422  -0.467 -0.06 +0.00    +0.026 C 
DOCKED: ATOM     17  C   UNL d   1      11.623  -6.793   0.396 -0.16 -0.00    +0.109 A 
DOCKED: ATOM     18  C   UNL d   1      13.682  -7.874   6.319 -0.20 +0.00    +0.050 C 
DOCKED: ATOM     19  C   UNL d   1      13.586  -9.166   5.743 -0.16 +0.00    +0.045 A 
DOCKED: ATOM     20  C   UNL d   1      10.857  -9.088   0.695 -0.23 +0.00    +0.045 A 
DOCKED: ATOM     21  C   UNL d   1      10.859  -7.971  -0.039 -0.22 +0.00    +0.057 C 
DOCKED: ATOM     22  C   UNL d   1      10.359 -11.213   1.370 -0.16 -0.00    -0.019 A 
DOCKED: ATOM     23  C   UNL d   1      11.299 -10.614   2.339 -0.15 +0.01    +0.045 A 
DOCKED: ATOM     24  C   UNL d   1      10.102 -10.305   0.399 -0.23 -0.00    -0.022 A 
DOCKED: ATOM     25  C   UNL d   1      12.717 -10.733   4.361 -0.16 +0.01    +0.049 A 
DOCKED: ATOM     26  C   UNL d   1      14.199 -10.369   6.058 -0.10 -0.00    -0.018 A 
DOCKED: ATOM     27  C   UNL d   1      13.660 -11.351   5.170 -0.11 +0.00    +0.003 A 
DOCKED: ATOM     28  C   UNL d   1      11.783 -11.245   3.420 -0.09 +0.01    +0.052 C 
DOCKED: ATOM     29  C   UNL d   1       9.227 -10.444  -0.800 -0.25 +0.00    +0.046 C 
DOCKED: ATOM     30  C   UNL d   1      15.223 -10.596   7.118 -0.06 +0.00    +0.046 C 
DOCKED: ATOM     31  H   UNL d   1      12.202  -8.692   2.240 +0.06 +0.01    +0.166 HD
DOCKED: ATOM     32  H   UNL d   1      12.129  -8.683   4.291 +0.06 +0.01    +0.166 HD
DOCKED: ENDROOT
DOCKED: BRANCH   7  33
DOCKED: ATOM     33  C   UNL d   1      15.138  -5.164   6.986 -0.11 +0.00    +0.141 C 
DOCKED: BRANCH  33  34
DOCKED: ATOM     34  C   UNL d   1      15.127  -4.139   8.088 -0.12 +0.00    +0.306 C 
DOCKED: ATOM     35  O   UNL d   1      14.947  -4.358   9.274 -0.20 +0.01    -0.251 OA
DOCKED: BRANCH  34  36
DOCKED: ATOM     36  O   UNL d   1      15.345  -2.891   7.637 -0.05 -0.00    -0.481 OA
DOCKED: ATOM     37  H   UNL d   1      14.866  -2.850   6.782 +0.07 +0.02    +0.295 HD
DOCKED: ENDBRANCH  34  36
DOCKED: ENDBRANCH  33  34
DOCKED: ENDBRANCH   7  33
DOCKED: BRANCH  27  38
DOCKED: ATOM     38  C   UNL d   1      14.010 -12.739   5.164 -0.07 +0.00    +0.017 C 
DOCKED: ATOM     39  C   UNL d   1      14.782 -13.339   4.245 -0.02 +0.01    +0.092 C 
DOCKED: BRANCH  39  40
DOCKED: ATOM     40  C   UNL d   1      15.080 -14.769   4.363 +0.00 +0.03    +0.330 C 
DOCKED: ATOM     41  O   UNL d   1      16.148 -15.286   4.630 +0.00 -0.01    -0.246 OA
DOCKED: BRANCH  40  42
DOCKED: ATOM     42  O   UNL d   1      13.972 -15.492   4.139 +0.00 -0.08    -0.477 OA
DOCKED: ATOM     43  H   UNL d   1      13.331 -14.838   3.791 +0.03 +0.07    +0.295 HD
DOCKED: ENDBRANCH  40  42
DOCKED: ENDBRANCH  39  40
DOCKED: ENDBRANCH  27  38
DOCKED: BRANCH   8  44
DOCKED: ATOM     44  C   UNL d   1      11.835  -3.268   0.200 -0.23 -0.01    +0.141 C 
DOCKED: BRANCH  44  45
DOCKED: ATOM     45  C   UNL d   1      10.787  -3.186  -0.878 -0.14 +0.01    +0.306 C 
DOCKED: ATOM     46  O   UNL d   1       9.596  -3.412  -0.752 -0.35 +0.04    -0.251 OA
DOCKED: BRANCH  45  47
DOCKED: ATOM     47  O   UNL d   1      11.303  -2.848  -2.073 -0.75 -0.39    -0.481 OA
DOCKED: ATOM     48  H   UNL d   1      11.536  -3.703  -2.493 +0.10 +0.16    +0.295 HD
DOCKED: ENDBRANCH  45  47
DOCKED: ENDBRANCH  44  45
DOCKED: ENDBRANCH   8  44
DOCKED: BRANCH  22  49
DOCKED: ATOM     49  C   UNL d   1       9.794 -12.597   1.491 -0.20 +0.01    +0.048 C 
DOCKED: BRANCH  49  50
DOCKED: ATOM     50  C   UNL d   1      10.773 -13.658   0.989 -0.11 +0.02    +0.125 C 
DOCKED: BRANCH  50  51
DOCKED: ATOM     51  C   UNL d   1      11.605 -14.198   2.118 -0.06 +0.08    +0.305 C 
DOCKED: ATOM     52  O   UNL d   1      11.276 -14.334   3.283 -0.11 -0.13    -0.251 OA
DOCKED: BRANCH  51  53
DOCKED: ATOM     53  O   UNL d   1      12.845 -14.536   1.713 +0.00 -0.07    -0.481 OA
DOCKED: ATOM     54  H   UNL d   1      13.027 -15.378   2.182 +0.03 +0.04    +0.295 HD
DOCKED: ENDBRANCH  51  53
DOCKED: ENDBRANCH  50  51
DOCKED: ENDBRANCH  49  50
DOCKED: ENDBRANCH  22  49
DOCKED: TORSDOF 13
DOCKED: TER
DOCKED: ENDMDL
________________________________________________________________________________


	BEGINNING GENETIC ALGORITHM DOCKING 77 of 100
Run: 77 Seed: 1507509708 41764595 [ Run 77 of 100 GA/GALS ]
Beginning LAMARCKIAN GENETIC ALGORITHM (LGA), with a maximum of 25000000 energy evaluations.

Final-Value: -11.606


	FINAL GENETIC ALGORITHM DOCKED STATE
	_______________________________________________


Detailed state:  trans 11.335 16.795 -4.357 quatxyzw 0.539119 -0.471405 -0.094896 -0.691465 center 0.153 0.018 -0.028 ntor 13 -179.3670 153.5775 104.5277 49.3059 -150.7870 118.7045 -49.2177 46.8587 20.0686 -128.3177 -84.9848 -125.7482 7.7806
State:	 11.335  16.795  -4.357   0.746 -0.653 -0.131 -92.508   -179.37  153.58  104.53   49.31 -150.79  118.70  -49.22   46.86   20.07 -128.32  -84.98 -125.75    7.78

DOCKED: MODEL       77
DOCKED: USER    Run = 77
DOCKED: USER    DPF = D:/Protein_go_brrr/autodock/final/mut_K82N/heme/dock.dpf
DOCKED: USER  
DOCKED: USER    Estimated Free Energy of Binding    =   -3.08 kcal/mol  [=(1)+(2)+(3)-(4)]
DOCKED: USER    Estimated Inhibition Constant, Ki   =    5.52 mM (millimolar)  [Temperature = 298.15 K]
DOCKED: USER    
DOCKED: USER    (1) Final Intermolecular Energy     =   -6.96 kcal/mol
DOCKED: USER        vdW + Hbond + desolv Energy     =   -6.88 kcal/mol
DOCKED: USER        Electrostatic Energy            =   -0.08 kcal/mol
DOCKED: USER    (2) Final Total Internal Energy     =   -4.65 kcal/mol
DOCKED: USER    (3) Torsional Free Energy           =   +3.88 kcal/mol
DOCKED: USER    (4) Unbound System's Energy  [=(2)] =   -4.65 kcal/mol
DOCKED: USER    
DOCKED: USER    
DOCKED: USER    NEWDPF move heme_opt.pdbqt
DOCKED: USER    NEWDPF about 0.153000 0.018000 -0.028000
DOCKED: USER    NEWDPF tran0 11.334585 16.794552 -4.356656
DOCKED: USER    NEWDPF quaternion0 0.539119 -0.471405 -0.094896 -0.691465
DOCKED: USER    NEWDPF axisangle0 0.746278 -0.652544 -0.131361 -92.507657
DOCKED: USER    NEWDPF quat0 0.746278 -0.652544 -0.131361 -92.507657
DOCKED: USER    NEWDPF dihe0 -179.37 153.58 104.53 49.31 -150.79 118.70 -49.22 46.86 20.07 -128.32 -84.98 -125.75 7.78 
DOCKED: USER  keepresnum = 1 
DOCKED: USER  
DOCKED: REMARK  13 active torsions:
DOCKED: REMARK  status: ('A' for Active; 'I' for Inactive)
DOCKED: REMARK    1  A    between atoms: O_3  and  C_38 
DOCKED: REMARK    2  A    between atoms: O_4  and  C_40 
DOCKED: REMARK    3  A    between atoms: O_7  and  C_46 
DOCKED: REMARK    4  A    between atoms: O_9  and  C_48 
DOCKED: REMARK    5  A    between atoms: C_15  and  C_20 
DOCKED: REMARK    6  A    between atoms: C_16  and  C_23 
DOCKED: REMARK    7  A    between atoms: C_20  and  C_38 
DOCKED: REMARK    8  A    between atoms: C_23  and  C_40 
DOCKED: REMARK    9  A    between atoms: C_32  and  C_41 
DOCKED: REMARK   10  A    between atoms: C_37  and  C_45 
DOCKED: REMARK   11  A    between atoms: C_41  and  C_44 
DOCKED: REMARK   12  A    between atoms: C_44  and  C_46 
DOCKED: REMARK   13  A    between atoms: C_47  and  C_48 
DOCKED: USER                              x       y       z     vdW  Elec       q    Type
DOCKED: USER                           _______ _______ _______ _____ _____    ______ ____
DOCKED: ROOT
DOCKED: ATOM      1  O   UNL d   1       7.193  20.635  -6.047 -0.13 +0.10    -0.289 OA
DOCKED: ATOM      2  O   UNL d   1      12.924  17.588  -9.823 -0.01 +0.01    -0.289 OA
DOCKED: ATOM      3  N   UNL d   1       9.474  18.504  -4.580 -0.09 +0.04    -0.247 NA
DOCKED: ATOM      4  N   UNL d   1      11.137  17.601  -6.871 -0.05 +0.01    -0.247 NA
DOCKED: ATOM      5  N   UNL d   1      12.197  15.540  -5.170 -0.06 +0.03    -0.354 N 
DOCKED: ATOM      6  N   UNL d   1      10.454  16.471  -2.804 -0.05 +0.12    -0.354 N 
DOCKED: ATOM      7  C   UNL d   1       7.391  19.571  -3.855 -0.32 -0.02    +0.084 A 
DOCKED: ATOM      8  C   UNL d   1      11.289  19.094  -8.799 -0.03 -0.01    +0.084 A 
DOCKED: ATOM      9  C   UNL d   1      10.675  18.770  -7.434 -0.07 -0.00    +0.058 A 
DOCKED: ATOM     10  C   UNL d   1       8.572  18.649  -3.540 -0.25 -0.01    +0.058 A 
DOCKED: ATOM     11  C   UNL d   1       7.795  19.937  -5.251 -0.15 -0.05    +0.193 A 
DOCKED: ATOM     12  C   UNL d   1       9.087  19.248  -5.564 -0.11 -0.02    +0.109 A 
DOCKED: ATOM     13  C   UNL d   1      12.157  17.874  -8.925 -0.04 -0.01    +0.193 A 
DOCKED: ATOM     14  C   UNL d   1       6.064  18.809  -3.907 -0.61 -0.01    +0.026 C 
DOCKED: ATOM     15  C   UNL d   1       9.731  19.534  -6.862 -0.08 -0.01    +0.055 C 
DOCKED: ATOM     16  C   UNL d   1      12.187  20.333  -8.738 -0.01 -0.00    +0.026 C 
DOCKED: ATOM     17  C   UNL d   1      11.967  17.047  -7.695 -0.06 -0.00    +0.109 A 
DOCKED: ATOM     18  C   UNL d   1       8.738  18.113  -2.316 -0.36 -0.01    +0.050 C 
DOCKED: ATOM     19  C   UNL d   1       9.841  17.319  -1.909 -0.22 -0.01    +0.045 A 
DOCKED: ATOM     20  C   UNL d   1      12.702  15.131  -6.377 -0.04 -0.00    +0.045 A 
DOCKED: ATOM     21  C   UNL d   1      12.665  15.760  -7.556 -0.11 -0.00    +0.057 C 
DOCKED: ATOM     22  C   UNL d   1      13.151  13.531  -4.810 -0.28 +0.00    -0.019 A 
DOCKED: ATOM     23  C   UNL d   1      12.419  14.638  -4.163 -0.25 -0.01    +0.045 A 
DOCKED: ATOM     24  C   UNL d   1      13.316  13.830  -6.120 -0.23 +0.00    -0.022 A 
DOCKED: ATOM     25  C   UNL d   1      11.434  15.735  -2.178 -0.21 -0.01    +0.049 A 
DOCKED: ATOM     26  C   UNL d   1      10.461  17.156  -0.680 -0.22 +0.00    -0.018 A 
DOCKED: ATOM     27  C   UNL d   1      11.479  16.169  -0.861 -0.22 -0.00    +0.003 A 
DOCKED: ATOM     28  C   UNL d   1      12.101  14.681  -2.860 -0.33 -0.01    +0.052 C 
DOCKED: ATOM     29  C   UNL d   1      14.001  13.034  -7.179 -0.21 -0.00    +0.046 C 
DOCKED: ATOM     30  C   UNL d   1      10.132  17.873   0.585 -0.18 -0.00    +0.046 C 
DOCKED: ATOM     31  H   UNL d   1      11.780  16.458  -5.057 +0.04 -0.01    +0.166 HD
DOCKED: ATOM     32  H   UNL d   1      10.179  16.387  -3.775 -0.10 -0.05    +0.166 HD
DOCKED: ENDROOT
DOCKED: BRANCH   7  33
DOCKED: ATOM     33  C   UNL d   1       7.284  20.825  -2.980 -0.11 -0.03    +0.141 C 
DOCKED: BRANCH  33  34
DOCKED: ATOM     34  C   UNL d   1       8.405  21.799  -3.225 -0.15 -0.06    +0.306 C 
DOCKED: ATOM     35  O   UNL d   1       9.430  21.897  -2.573 -0.10 +0.03    -0.251 OA
DOCKED: BRANCH  34  36
DOCKED: ATOM     36  O   UNL d   1       8.175  22.598  -4.282 -0.08 +0.15    -0.481 OA
DOCKED: ATOM     37  H   UNL d   1       7.314  22.293  -4.639 -0.45 -0.20    +0.295 HD
DOCKED: ENDBRANCH  34  36
DOCKED: ENDBRANCH  33  34
DOCKED: ENDBRANCH   7  33
DOCKED: BRANCH  27  38
DOCKED: ATOM     38  C   UNL d   1      12.354  15.688   0.166 -0.15 -0.00    +0.017 C 
DOCKED: ATOM     39  C   UNL d   1      12.113  14.629   0.954 -0.18 -0.01    +0.092 C 
DOCKED: BRANCH  39  40
DOCKED: ATOM     40  C   UNL d   1      13.101  14.228   1.959 -0.04 -0.01    +0.330 C 
DOCKED: ATOM     41  O   UNL d   1      12.968  14.213   3.168 -0.03 +0.00    -0.246 OA
DOCKED: BRANCH  40  42
DOCKED: ATOM     42  O   UNL d   1      14.240  13.845   1.361 -0.00 +0.02    -0.477 OA
DOCKED: ATOM     43  H   UNL d   1      13.949  13.538   0.477 +0.05 -0.02    +0.295 HD
DOCKED: ENDBRANCH  40  42
DOCKED: ENDBRANCH  39  40
DOCKED: ENDBRANCH  27  38
DOCKED: BRANCH   8  44
DOCKED: ATOM     44  C   UNL d   1      10.298  19.185  -9.964 -0.03 -0.01    +0.141 C 
DOCKED: BRANCH  44  45
DOCKED: ATOM     45  C   UNL d   1      10.961  19.458 -11.288 -0.00 -0.02    +0.306 C 
DOCKED: ATOM     46  O   UNL d   1      11.138  20.549 -11.801 -0.00 +0.02    -0.251 OA
DOCKED: BRANCH  45  47
DOCKED: ATOM     47  O   UNL d   1      11.343  18.330 -11.914 +0.00 +0.03    -0.481 OA
DOCKED: ATOM     48  H   UNL d   1      12.153  18.045 -11.440 +0.02 -0.02    +0.295 HD
DOCKED: ENDBRANCH  45  47
DOCKED: ENDBRANCH  44  45
DOCKED: ENDBRANCH   8  44
DOCKED: BRANCH  22  49
DOCKED: ATOM     49  C   UNL d   1      13.603  12.290  -4.098 -0.22 -0.01    +0.048 C 
DOCKED: BRANCH  49  50
DOCKED: ATOM     50  C   UNL d   1      14.829  12.551  -3.224 -0.12 -0.02    +0.125 C 
DOCKED: BRANCH  50  51
DOCKED: ATOM     51  C   UNL d   1      14.427  12.819  -1.801 -0.09 -0.04    +0.305 C 
DOCKED: ATOM     52  O   UNL d   1      13.564  12.253  -1.154 -0.18 +0.03    -0.251 OA
DOCKED: BRANCH  51  53
DOCKED: ATOM     53  O   UNL d   1      15.144  13.821  -1.255 +0.00 +0.04    -0.481 OA
DOCKED: ATOM     54  H   UNL d   1      15.444  13.458  -0.395 +0.03 -0.02    +0.295 HD
DOCKED: ENDBRANCH  51  53
DOCKED: ENDBRANCH  50  51
DOCKED: ENDBRANCH  49  50
DOCKED: ENDBRANCH  22  49
DOCKED: TORSDOF 13
DOCKED: TER
DOCKED: ENDMDL
________________________________________________________________________________


	BEGINNING GENETIC ALGORITHM DOCKING 78 of 100
Run: 78 Seed: 1294437874 1850437203 [ Run 78 of 100 GA/GALS ]
Beginning LAMARCKIAN GENETIC ALGORITHM (LGA), with a maximum of 25000000 energy evaluations.

Final-Value: -11.024


	FINAL GENETIC ALGORITHM DOCKED STATE
	_______________________________________________


Detailed state:  trans -9.873 1.696 10.374 quatxyzw -0.264508 0.412531 0.067105 0.869109 center 0.153 0.018 -0.028 ntor 13 -92.0189 -33.9761 -99.8246 -98.1885 54.3233 121.6614 121.9387 66.5958 142.7292 -32.4493 89.2853 179.5170 177.7762
State:	 -9.873   1.696  10.374  -0.535  0.834  0.136 59.289    -92.02  -33.98  -99.82  -98.19   54.32  121.66  121.94   66.60  142.73  -32.45   89.29  179.52  177.78

DOCKED: MODEL       78
DOCKED: USER    Run = 78
DOCKED: USER    DPF = D:/Protein_go_brrr/autodock/final/mut_K82N/heme/dock.dpf
DOCKED: USER  
DOCKED: USER    Estimated Free Energy of Binding    =   -4.77 kcal/mol  [=(1)+(2)+(3)-(4)]
DOCKED: USER    Estimated Inhibition Constant, Ki   =  319.43 uM (micromolar)  [Temperature = 298.15 K]
DOCKED: USER    
DOCKED: USER    (1) Final Intermolecular Energy     =   -8.65 kcal/mol
DOCKED: USER        vdW + Hbond + desolv Energy     =   -8.15 kcal/mol
DOCKED: USER        Electrostatic Energy            =   -0.50 kcal/mol
DOCKED: USER    (2) Final Total Internal Energy     =   -2.38 kcal/mol
DOCKED: USER    (3) Torsional Free Energy           =   +3.88 kcal/mol
DOCKED: USER    (4) Unbound System's Energy  [=(2)] =   -2.38 kcal/mol
DOCKED: USER    
DOCKED: USER    
DOCKED: USER    NEWDPF move heme_opt.pdbqt
DOCKED: USER    NEWDPF about 0.153000 0.018000 -0.028000
DOCKED: USER    NEWDPF tran0 -9.872557 1.696430 10.373964
DOCKED: USER    NEWDPF quaternion0 -0.264508 0.412531 0.067105 0.869109
DOCKED: USER    NEWDPF axisangle0 -0.534770 0.834035 0.135669 59.289454
DOCKED: USER    NEWDPF quat0 -0.534770 0.834035 0.135669 59.289454
DOCKED: USER    NEWDPF dihe0 -92.02 -33.98 -99.82 -98.19 54.32 121.66 121.94 66.60 142.73 -32.45 89.29 179.52 177.78 
DOCKED: USER  keepresnum = 1 
DOCKED: USER  
DOCKED: REMARK  13 active torsions:
DOCKED: REMARK  status: ('A' for Active; 'I' for Inactive)
DOCKED: REMARK    1  A    between atoms: O_3  and  C_38 
DOCKED: REMARK    2  A    between atoms: O_4  and  C_40 
DOCKED: REMARK    3  A    between atoms: O_7  and  C_46 
DOCKED: REMARK    4  A    between atoms: O_9  and  C_48 
DOCKED: REMARK    5  A    between atoms: C_15  and  C_20 
DOCKED: REMARK    6  A    between atoms: C_16  and  C_23 
DOCKED: REMARK    7  A    between atoms: C_20  and  C_38 
DOCKED: REMARK    8  A    between atoms: C_23  and  C_40 
DOCKED: REMARK    9  A    between atoms: C_32  and  C_41 
DOCKED: REMARK   10  A    between atoms: C_37  and  C_45 
DOCKED: REMARK   11  A    between atoms: C_41  and  C_44 
DOCKED: REMARK   12  A    between atoms: C_44  and  C_46 
DOCKED: REMARK   13  A    between atoms: C_47  and  C_48 
DOCKED: USER                              x       y       z     vdW  Elec       q    Type
DOCKED: USER                           _______ _______ _______ _____ _____    ______ ____
DOCKED: ROOT
DOCKED: ATOM      1  O   UNL d   1     -14.182   4.751   7.757 -0.58 -0.29    -0.289 OA
DOCKED: ATOM      2  O   UNL d   1      -9.921  -0.899   5.246 -0.18 +0.04    -0.289 OA
DOCKED: ATOM      3  N   UNL d   1     -11.652   3.344   9.631 -0.10 +0.06    -0.247 NA
DOCKED: ATOM      4  N   UNL d   1     -10.766   1.046   7.968 -0.10 +0.03    -0.247 NA
DOCKED: ATOM      5  N   UNL d   1      -9.333   0.061  10.257 -0.05 +0.06    -0.354 N 
DOCKED: ATOM      6  N   UNL d   1     -10.272   2.438  11.981 -0.05 +0.06    -0.354 N 
DOCKED: ATOM      7  C   UNL d   1     -13.392   5.017  10.054 -0.10 -0.00    +0.084 A 
DOCKED: ATOM      8  C   UNL d   1     -11.129   1.207   5.556 -0.21 -0.01    +0.084 A 
DOCKED: ATOM      9  C   UNL d   1     -11.329   1.794   6.957 -0.19 -0.01    +0.058 A 
DOCKED: ATOM     10  C   UNL d   1     -12.206   4.198  10.570 -0.11 -0.01    +0.058 A 
DOCKED: ATOM     11  C   UNL d   1     -13.400   4.488   8.652 -0.07 +0.05    +0.193 A 
DOCKED: ATOM     12  C   UNL d   1     -12.283   3.501   8.513 -0.17 -0.01    +0.109 A 
DOCKED: ATOM     13  C   UNL d   1     -10.381  -0.032   5.962 -0.20 -0.02    +0.193 A 
DOCKED: ATOM     14  C   UNL d   1     -14.703   4.623  10.740 -0.02 -0.00    +0.026 C 
DOCKED: ATOM     15  C   UNL d   1     -12.036   2.913   7.181 -0.23 -0.00    +0.055 C 
DOCKED: ATOM     16  C   UNL d   1     -10.207   2.080   4.701 -0.29 -0.00    +0.026 C 
DOCKED: ATOM     17  C   UNL d   1     -10.234  -0.013   7.449 -0.16 -0.01    +0.109 A 
DOCKED: ATOM     18  C   UNL d   1     -11.709   4.382  11.808 -0.10 -0.01    +0.050 C 
DOCKED: ATOM     19  C   UNL d   1     -10.566   3.733  12.340 -0.14 -0.01    +0.045 A 
DOCKED: ATOM     20  C   UNL d   1      -9.218  -1.021   9.423 -0.17 -0.01    +0.045 A 
DOCKED: ATOM     21  C   UNL d   1      -9.574  -1.131   8.140 -0.21 -0.00    +0.057 C 
DOCKED: ATOM     22  C   UNL d   1      -8.390  -1.580  11.477 -0.30 +0.01    -0.019 A 
DOCKED: ATOM     23  C   UNL d   1      -8.860  -0.181  11.519 -0.23 -0.01    +0.045 A 
DOCKED: ATOM     24  C   UNL d   1      -8.604  -2.072  10.234 -0.26 +0.00    -0.022 A 
DOCKED: ATOM     25  C   UNL d   1      -9.180   1.978  12.680 -0.23 -0.01    +0.049 A 
DOCKED: ATOM     26  C   UNL d   1      -9.620   4.138  13.269 -0.21 +0.00    -0.018 A 
DOCKED: ATOM     27  C   UNL d   1      -8.736   3.032  13.465 -0.27 -0.00    +0.003 A 
DOCKED: ATOM     28  C   UNL d   1      -8.781   0.616  12.595 -0.23 -0.02    +0.052 C 
DOCKED: ATOM     29  C   UNL d   1      -8.288  -3.427   9.699 -0.29 -0.01    +0.046 C 
DOCKED: ATOM     30  C   UNL d   1      -9.538   5.471  13.934 -0.16 -0.01    +0.046 C 
DOCKED: ATOM     31  H   UNL d   1      -9.664   0.956   9.914 +0.06 -0.02    +0.166 HD
DOCKED: ATOM     32  H   UNL d   1     -10.822   1.901  11.321 +0.05 -0.03    +0.166 HD
DOCKED: ENDROOT
DOCKED: BRANCH   7  33
DOCKED: ATOM     33  C   UNL d   1     -13.192   6.536  10.055 -0.11 -0.03    +0.141 C 
DOCKED: BRANCH  33  34
DOCKED: ATOM     34  C   UNL d   1     -14.466   7.289   9.778 -0.06 +0.02    +0.306 C 
DOCKED: ATOM     35  O   UNL d   1     -15.105   7.943  10.584 -0.01 +0.01    -0.251 OA
DOCKED: BRANCH  34  36
DOCKED: ATOM     36  O   UNL d   1     -14.865   7.179   8.499 -0.13 -0.29    -0.481 OA
DOCKED: ATOM     37  H   UNL d   1     -15.382   6.345   8.473 +0.02 +0.16    +0.295 HD
DOCKED: ENDBRANCH  34  36
DOCKED: ENDBRANCH  33  34
DOCKED: ENDBRANCH   7  33
DOCKED: BRANCH  27  38
DOCKED: ATOM     38  C   UNL d   1      -7.618   3.018  14.360 -0.25 -0.00    +0.017 C 
DOCKED: ATOM     39  C   UNL d   1      -7.578   3.620  15.559 -0.24 -0.02    +0.092 C 
DOCKED: BRANCH  39  40
DOCKED: ATOM     40  C   UNL d   1      -6.375   3.514  16.389 -0.16 -0.09    +0.330 C 
DOCKED: ATOM     41  O   UNL d   1      -5.665   4.417  16.788 -0.14 +0.06    -0.246 OA
DOCKED: BRANCH  40  42
DOCKED: ATOM     42  O   UNL d   1      -6.132   2.228  16.687 -0.11 +0.16    -0.477 OA
DOCKED: ATOM     43  H   UNL d   1      -5.155   2.174  16.712 -0.35 -0.17    +0.295 HD
DOCKED: ENDBRANCH  40  42
DOCKED: ENDBRANCH  39  40
DOCKED: ENDBRANCH  27  38
DOCKED: BRANCH   8  44
DOCKED: ATOM     44  C   UNL d   1     -12.413   0.849   4.800 -0.10 -0.01    +0.141 C 
DOCKED: BRANCH  44  45
DOCKED: ATOM     45  C   UNL d   1     -12.978  -0.491   5.189 -0.01 -0.05    +0.306 C 
DOCKED: ATOM     46  O   UNL d   1     -13.616  -0.746   6.196 -0.01 +0.03    -0.251 OA
DOCKED: BRANCH  45  47
DOCKED: ATOM     47  O   UNL d   1     -12.685  -1.452   4.295 -0.01 +0.16    -0.481 OA
DOCKED: ATOM     48  H   UNL d   1     -11.760  -1.707   4.500 +0.10 -0.12    +0.295 HD
DOCKED: ENDBRANCH  45  47
DOCKED: ENDBRANCH  44  45
DOCKED: ENDBRANCH   8  44
DOCKED: BRANCH  22  49
DOCKED: ATOM     49  C   UNL d   1      -7.796  -2.305  12.650 -0.26 -0.01    +0.048 C 
DOCKED: BRANCH  49  50
DOCKED: ATOM     50  C   UNL d   1      -8.847  -3.110  13.413 -0.16 -0.02    +0.125 C 
DOCKED: BRANCH  50  51
DOCKED: ATOM     51  C   UNL d   1      -9.476  -2.280  14.496 -0.06 -0.08    +0.305 C 
DOCKED: ATOM     52  O   UNL d   1     -10.100  -1.241  14.369 -0.06 +0.05    -0.251 OA
DOCKED: BRANCH  51  53
DOCKED: ATOM     53  O   UNL d   1      -9.270  -2.807  15.720 -0.05 +0.13    -0.481 OA
DOCKED: ATOM     54  H   UNL d   1      -8.366  -2.512  15.957 -0.51 -0.18    +0.295 HD
DOCKED: ENDBRANCH  51  53
DOCKED: ENDBRANCH  50  51
DOCKED: ENDBRANCH  49  50
DOCKED: ENDBRANCH  22  49
DOCKED: TORSDOF 13
DOCKED: TER
DOCKED: ENDMDL
________________________________________________________________________________


	BEGINNING GENETIC ALGORITHM DOCKING 79 of 100
Run: 79 Seed: 656975322 853720133 [ Run 79 of 100 GA/GALS ]
Beginning LAMARCKIAN GENETIC ALGORITHM (LGA), with a maximum of 25000000 energy evaluations.

Final-Value: -11.244


	FINAL GENETIC ALGORITHM DOCKED STATE
	_______________________________________________


Detailed state:  trans 10.402 15.905 -8.425 quatxyzw -0.497156 0.733674 0.226116 -0.404265 center 0.153 0.018 -0.028 ntor 13 -128.2769 143.7517 105.2483 -96.9484 -46.6481 16.4338 -42.9102 -48.1292 -5.5211 -126.8560 -56.4462 -68.9789 32.5050
State:	 10.402  15.905  -8.425  -0.544  0.802  0.247 -132.310   -128.28  143.75  105.25  -96.95  -46.65   16.43  -42.91  -48.13   -5.52 -126.86  -56.45  -68.98   32.51

DOCKED: MODEL       79
DOCKED: USER    Run = 79
DOCKED: USER    DPF = D:/Protein_go_brrr/autodock/final/mut_K82N/heme/dock.dpf
DOCKED: USER  
DOCKED: USER    Estimated Free Energy of Binding    =   -3.59 kcal/mol  [=(1)+(2)+(3)-(4)]
DOCKED: USER    Estimated Inhibition Constant, Ki   =    2.35 mM (millimolar)  [Temperature = 298.15 K]
DOCKED: USER    
DOCKED: USER    (1) Final Intermolecular Energy     =   -7.47 kcal/mol
DOCKED: USER        vdW + Hbond + desolv Energy     =   -7.30 kcal/mol
DOCKED: USER        Electrostatic Energy            =   -0.16 kcal/mol
DOCKED: USER    (2) Final Total Internal Energy     =   -3.78 kcal/mol
DOCKED: USER    (3) Torsional Free Energy           =   +3.88 kcal/mol
DOCKED: USER    (4) Unbound System's Energy  [=(2)] =   -3.78 kcal/mol
DOCKED: USER    
DOCKED: USER    
DOCKED: USER    NEWDPF move heme_opt.pdbqt
DOCKED: USER    NEWDPF about 0.153000 0.018000 -0.028000
DOCKED: USER    NEWDPF tran0 10.402280 15.905253 -8.424635
DOCKED: USER    NEWDPF quaternion0 -0.497156 0.733674 0.226116 -0.404265
DOCKED: USER    NEWDPF axisangle0 -0.543552 0.802144 0.247218 -132.309834
DOCKED: USER    NEWDPF quat0 -0.543552 0.802144 0.247218 -132.309834
DOCKED: USER    NEWDPF dihe0 -128.28 143.75 105.25 -96.95 -46.65 16.43 -42.91 -48.13 -5.52 -126.86 -56.45 -68.98 32.51 
DOCKED: USER  keepresnum = 1 
DOCKED: USER  
DOCKED: REMARK  13 active torsions:
DOCKED: REMARK  status: ('A' for Active; 'I' for Inactive)
DOCKED: REMARK    1  A    between atoms: O_3  and  C_38 
DOCKED: REMARK    2  A    between atoms: O_4  and  C_40 
DOCKED: REMARK    3  A    between atoms: O_7  and  C_46 
DOCKED: REMARK    4  A    between atoms: O_9  and  C_48 
DOCKED: REMARK    5  A    between atoms: C_15  and  C_20 
DOCKED: REMARK    6  A    between atoms: C_16  and  C_23 
DOCKED: REMARK    7  A    between atoms: C_20  and  C_38 
DOCKED: REMARK    8  A    between atoms: C_23  and  C_40 
DOCKED: REMARK    9  A    between atoms: C_32  and  C_41 
DOCKED: REMARK   10  A    between atoms: C_37  and  C_45 
DOCKED: REMARK   11  A    between atoms: C_41  and  C_44 
DOCKED: REMARK   12  A    between atoms: C_44  and  C_46 
DOCKED: REMARK   13  A    between atoms: C_47  and  C_48 
DOCKED: USER                              x       y       z     vdW  Elec       q    Type
DOCKED: USER                           _______ _______ _______ _____ _____    ______ ____
DOCKED: ROOT
DOCKED: ATOM      1  O   UNL d   1      10.103  20.130  -4.323 -0.03 +0.04    -0.289 OA
DOCKED: ATOM      2  O   UNL d   1      14.717  14.244  -5.010 -0.04 +0.03    -0.289 OA
DOCKED: ATOM      3  N   UNL d   1       9.809  17.811  -6.860 -0.02 +0.01    -0.247 NA
DOCKED: ATOM      4  N   UNL d   1      12.197  16.083  -6.486 +0.04 +0.01    -0.247 NA
DOCKED: ATOM      5  N   UNL d   1      11.702  14.992  -9.100 -0.07 -0.01    -0.354 N 
DOCKED: ATOM      6  N   UNL d   1       9.238  16.802  -9.487 -0.07 +0.01    -0.354 N 
DOCKED: ATOM      7  C   UNL d   1       8.715  19.939  -6.326 -0.09 -0.01    +0.084 A 
DOCKED: ATOM      8  C   UNL d   1      13.133  15.942  -4.233 -0.11 -0.01    +0.084 A 
DOCKED: ATOM      9  C   UNL d   1      12.124  16.570  -5.200 -0.11 -0.00    +0.058 A 
DOCKED: ATOM     10  C   UNL d   1       8.861  18.736  -7.263 -0.12 -0.01    +0.058 A 
DOCKED: ATOM     11  C   UNL d   1       9.737  19.521  -5.312 -0.05 -0.03    +0.193 A 
DOCKED: ATOM     12  C   UNL d   1      10.311  18.204  -5.734 -0.10 -0.01    +0.109 A 
DOCKED: ATOM     13  C   UNL d   1      13.818  15.036  -5.217 -0.08 -0.02    +0.193 A 
DOCKED: ATOM     14  C   UNL d   1       9.176  21.240  -6.986 -0.06 -0.00    +0.026 C 
DOCKED: ATOM     15  C   UNL d   1      11.279  17.546  -4.834 -0.15 -0.01    +0.055 C 
DOCKED: ATOM     16  C   UNL d   1      12.442  15.082  -3.170 -0.28 -0.01    +0.026 C 
DOCKED: ATOM     17  C   UNL d   1      13.162  15.222  -6.547 -0.12 -0.00    +0.109 A 
DOCKED: ATOM     18  C   UNL d   1       8.056  18.575  -8.331 -0.17 -0.01    +0.050 C 
DOCKED: ATOM     19  C   UNL d   1       8.060  17.457  -9.203 -0.16 -0.00    +0.045 A 
DOCKED: ATOM     20  C   UNL d   1      12.938  14.454  -8.850 -0.18 -0.00    +0.045 A 
DOCKED: ATOM     21  C   UNL d   1      13.655  14.489  -7.722 -0.17 -0.00    +0.057 C 
DOCKED: ATOM     22  C   UNL d   1      12.351  13.985 -11.007 -0.16 -0.00    -0.019 A 
DOCKED: ATOM     23  C   UNL d   1      11.264  14.761 -10.376 -0.24 +0.00    +0.045 A 
DOCKED: ATOM     24  C   UNL d   1      13.338  13.805 -10.098 -0.14 +0.00    -0.022 A 
DOCKED: ATOM     25  C   UNL d   1       9.027  15.813 -10.419 -0.26 -0.00    +0.049 A 
DOCKED: ATOM     26  C   UNL d   1       7.053  16.853  -9.940 -0.28 +0.00    -0.018 A 
DOCKED: ATOM     27  C   UNL d   1       7.666  15.803 -10.691 -0.27 -0.00    +0.003 A 
DOCKED: ATOM     28  C   UNL d   1      10.120  15.103 -10.988 -0.27 +0.00    +0.052 C 
DOCKED: ATOM     29  C   UNL d   1      14.630  13.079 -10.256 -0.09 -0.00    +0.046 C 
DOCKED: ATOM     30  C   UNL d   1       5.609  17.226  -9.946 -0.30 -0.01    +0.046 C 
DOCKED: ATOM     31  H   UNL d   1      11.164  15.438  -8.364 +0.10 +0.01    +0.166 HD
DOCKED: ATOM     32  H   UNL d   1      10.132  17.058  -9.086 +0.03 -0.00    +0.166 HD
DOCKED: ENDROOT
DOCKED: BRANCH   7  33
DOCKED: ATOM     33  C   UNL d   1       7.340  20.097  -5.669 -0.22 -0.04    +0.141 C 
DOCKED: BRANCH  33  34
DOCKED: ATOM     34  C   UNL d   1       6.771  18.789  -5.192 -0.25 -0.07    +0.306 C 
DOCKED: ATOM     35  O   UNL d   1       7.350  17.716  -5.173 -0.33 +0.04    -0.251 OA
DOCKED: BRANCH  34  36
DOCKED: ATOM     36  O   UNL d   1       5.502  18.901  -4.762 -0.80 +0.14    -0.481 OA
DOCKED: ATOM     37  H   UNL d   1       5.041  19.389  -5.477 -0.37 -0.16    +0.295 HD
DOCKED: ENDBRANCH  34  36
DOCKED: ENDBRANCH  33  34
DOCKED: ENDBRANCH   7  33
DOCKED: BRANCH  27  38
DOCKED: ATOM     38  C   UNL d   1       6.984  14.933 -11.601 -0.26 -0.00    +0.017 C 
DOCKED: ATOM     39  C   UNL d   1       7.518  14.401 -12.711 -0.23 +0.01    +0.092 C 
DOCKED: BRANCH  39  40
DOCKED: ATOM     40  C   UNL d   1       6.716  13.509 -13.552 -0.19 +0.05    +0.330 C 
DOCKED: ATOM     41  O   UNL d   1       5.512  13.343 -13.523 -0.29 -0.04    -0.246 OA
DOCKED: BRANCH  40  42
DOCKED: ATOM     42  O   UNL d   1       7.506  12.858 -14.419 -0.12 -0.13    -0.477 OA
DOCKED: ATOM     43  H   UNL d   1       8.187  13.520 -14.659 +0.08 +0.04    +0.295 HD
DOCKED: ENDBRANCH  40  42
DOCKED: ENDBRANCH  39  40
DOCKED: ENDBRANCH  27  38
DOCKED: BRANCH   8  44
DOCKED: ATOM     44  C   UNL d   1      14.132  16.914  -3.597 -0.03 -0.01    +0.141 C 
DOCKED: BRANCH  44  45
DOCKED: ATOM     45  C   UNL d   1      15.150  16.233  -2.722 -0.01 -0.02    +0.306 C 
DOCKED: ATOM     46  O   UNL d   1      15.029  15.963  -1.540 -0.01 +0.02    -0.251 OA
DOCKED: BRANCH  45  47
DOCKED: ATOM     47  O   UNL d   1      16.288  15.950  -3.382 +0.00 +0.03    -0.481 OA
DOCKED: ATOM     48  H   UNL d   1      16.065  15.174  -3.939 +0.01 -0.02    +0.295 HD
DOCKED: ENDBRANCH  45  47
DOCKED: ENDBRANCH  44  45
DOCKED: ENDBRANCH   8  44
DOCKED: BRANCH  22  49
DOCKED: ATOM     49  C   UNL d   1      12.330  13.509 -12.430 -0.11 +0.00    +0.048 C 
DOCKED: BRANCH  49  50
DOCKED: ATOM     50  C   UNL d   1      11.036  12.765 -12.762 -0.16 +0.01    +0.125 C 
DOCKED: BRANCH  50  51
DOCKED: ATOM     51  C   UNL d   1      10.349  13.386 -13.946 -0.05 +0.02    +0.305 C 
DOCKED: ATOM     52  O   UNL d   1      10.024  14.551 -14.090 -0.03 -0.01    -0.251 OA
DOCKED: BRANCH  51  53
DOCKED: ATOM     53  O   UNL d   1      10.089  12.480 -14.909 -0.00 -0.06    -0.481 OA
DOCKED: ATOM     54  H   UNL d   1       9.256  12.055 -14.618 +0.08 +0.07    +0.295 HD
DOCKED: ENDBRANCH  51  53
DOCKED: ENDBRANCH  50  51
DOCKED: ENDBRANCH  49  50
DOCKED: ENDBRANCH  22  49
DOCKED: TORSDOF 13
DOCKED: TER
DOCKED: ENDMDL
________________________________________________________________________________


	BEGINNING GENETIC ALGORITHM DOCKING 80 of 100
Run: 80 Seed: 1631829384 747514793 [ Run 80 of 100 GA/GALS ]
Beginning LAMARCKIAN GENETIC ALGORITHM (LGA), with a maximum of 25000000 energy evaluations.

Final-Value: -11.987


	FINAL GENETIC ALGORITHM DOCKED STATE
	_______________________________________________


Detailed state:  trans 11.672 4.515 12.194 quatxyzw 0.170511 -0.711115 -0.016703 -0.681882 center 0.153 0.018 -0.028 ntor 13 100.2943 -56.5364 -122.6783 176.4770 -132.2844 -179.3490 120.5003 134.1173 33.7572 -32.8339 45.1230 -75.8017 -20.5557
State:	 11.672   4.515  12.194   0.233 -0.972 -0.023 -94.018    100.29  -56.54 -122.68  176.48 -132.28 -179.35  120.50  134.12   33.76  -32.83   45.12  -75.80  -20.56

DOCKED: MODEL       80
DOCKED: USER    Run = 80
DOCKED: USER    DPF = D:/Protein_go_brrr/autodock/final/mut_K82N/heme/dock.dpf
DOCKED: USER  
DOCKED: USER    Estimated Free Energy of Binding    =   -5.55 kcal/mol  [=(1)+(2)+(3)-(4)]
DOCKED: USER    Estimated Inhibition Constant, Ki   =   85.60 uM (micromolar)  [Temperature = 298.15 K]
DOCKED: USER    
DOCKED: USER    (1) Final Intermolecular Energy     =   -9.43 kcal/mol
DOCKED: USER        vdW + Hbond + desolv Energy     =   -9.27 kcal/mol
DOCKED: USER        Electrostatic Energy            =   -0.16 kcal/mol
DOCKED: USER    (2) Final Total Internal Energy     =   -2.56 kcal/mol
DOCKED: USER    (3) Torsional Free Energy           =   +3.88 kcal/mol
DOCKED: USER    (4) Unbound System's Energy  [=(2)] =   -2.56 kcal/mol
DOCKED: USER    
DOCKED: USER    
DOCKED: USER    NEWDPF move heme_opt.pdbqt
DOCKED: USER    NEWDPF about 0.153000 0.018000 -0.028000
DOCKED: USER    NEWDPF tran0 11.671563 4.515430 12.194255
DOCKED: USER    NEWDPF quaternion0 0.170511 -0.711115 -0.016703 -0.681882
DOCKED: USER    NEWDPF axisangle0 0.233110 -0.972182 -0.022835 -94.018253
DOCKED: USER    NEWDPF quat0 0.233110 -0.972182 -0.022835 -94.018253
DOCKED: USER    NEWDPF dihe0 100.29 -56.54 -122.68 176.48 -132.28 -179.35 120.50 134.12 33.76 -32.83 45.12 -75.80 -20.56 
DOCKED: USER  keepresnum = 1 
DOCKED: USER  
DOCKED: REMARK  13 active torsions:
DOCKED: REMARK  status: ('A' for Active; 'I' for Inactive)
DOCKED: REMARK    1  A    between atoms: O_3  and  C_38 
DOCKED: REMARK    2  A    between atoms: O_4  and  C_40 
DOCKED: REMARK    3  A    between atoms: O_7  and  C_46 
DOCKED: REMARK    4  A    between atoms: O_9  and  C_48 
DOCKED: REMARK    5  A    between atoms: C_15  and  C_20 
DOCKED: REMARK    6  A    between atoms: C_16  and  C_23 
DOCKED: REMARK    7  A    between atoms: C_20  and  C_38 
DOCKED: REMARK    8  A    between atoms: C_23  and  C_40 
DOCKED: REMARK    9  A    between atoms: C_32  and  C_41 
DOCKED: REMARK   10  A    between atoms: C_37  and  C_45 
DOCKED: REMARK   11  A    between atoms: C_41  and  C_44 
DOCKED: REMARK   12  A    between atoms: C_44  and  C_46 
DOCKED: REMARK   13  A    between atoms: C_47  and  C_48 
DOCKED: USER                              x       y       z     vdW  Elec       q    Type
DOCKED: USER                           _______ _______ _______ _____ _____    ______ ____
DOCKED: ROOT
DOCKED: ATOM      1  O   UNL d   1      10.735   7.458   7.173 -0.11 -0.05    -0.289 OA
DOCKED: ATOM      2  O   UNL d   1      14.308   0.988   8.500 -0.60 -0.04    -0.289 OA
DOCKED: ATOM      3  N   UNL d   1      11.154   6.173  10.345 -0.13 +0.00    -0.247 NA
DOCKED: ATOM      4  N   UNL d   1      12.377   3.511   9.848 -0.09 +0.01    -0.247 NA
DOCKED: ATOM      5  N   UNL d   1      11.804   2.839  12.584 -0.05 +0.03    -0.354 N 
DOCKED: ATOM      6  N   UNL d   1      10.520   5.596  13.086 -0.14 +0.03    -0.354 N 
DOCKED: ATOM      7  C   UNL d   1       9.939   8.080   9.399 -0.24 +0.01    +0.084 A 
DOCKED: ATOM      8  C   UNL d   1      13.654   3.235   7.783 -0.09 -0.00    +0.084 A 
DOCKED: ATOM      9  C   UNL d   1      12.748   4.104   8.662 -0.13 -0.00    +0.058 A 
DOCKED: ATOM     10  C   UNL d   1      10.331   7.250  10.625 -0.25 +0.00    +0.058 A 
DOCKED: ATOM     11  C   UNL d   1      10.703   7.291   8.378 -0.13 +0.02    +0.193 A 
DOCKED: ATOM     12  C   UNL d   1      11.418   6.178   9.079 -0.16 +0.00    +0.109 A 
DOCKED: ATOM     13  C   UNL d   1      13.697   2.025   8.672 -0.09 +0.00    +0.193 A 
DOCKED: ATOM     14  C   UNL d   1       8.444   7.975   9.088 -0.47 +0.01    +0.026 C 
DOCKED: ATOM     15  C   UNL d   1      12.315   5.316   8.283 -0.15 +0.00    +0.055 C 
DOCKED: ATOM     16  C   UNL d   1      15.067   3.817   7.674 -0.03 -0.00    +0.026 C 
DOCKED: ATOM     17  C   UNL d   1      12.877   2.318   9.887 -0.16 -0.01    +0.109 A 
DOCKED: ATOM     18  C   UNL d   1       9.964   7.617  11.868 -0.28 +0.00    +0.050 C 
DOCKED: ATOM     19  C   UNL d   1      10.348   6.962  13.066 -0.25 -0.00    +0.045 A 
DOCKED: ATOM     20  C   UNL d   1      12.184   1.609  12.114 -0.24 -0.01    +0.045 A 
DOCKED: ATOM     21  C   UNL d   1      12.701   1.290  10.923 -0.24 -0.01    +0.057 C 
DOCKED: ATOM     22  C   UNL d   1      11.395   1.374  14.245 -0.37 +0.00    -0.019 A 
DOCKED: ATOM     23  C   UNL d   1      11.314   2.797  13.862 -0.25 -0.01    +0.045 A 
DOCKED: ATOM     24  C   UNL d   1      11.913   0.675  13.207 -0.35 +0.01    -0.022 A 
DOCKED: ATOM     25  C   UNL d   1      10.800   5.164  14.362 -0.22 -0.01    +0.049 A 
DOCKED: ATOM     26  C   UNL d   1      10.558   7.433  14.352 -0.20 +0.00    -0.018 A 
DOCKED: ATOM     27  C   UNL d   1      10.863   6.296  15.162 -0.18 -0.00    +0.003 A 
DOCKED: ATOM     28  C   UNL d   1      10.865   3.776  14.663 -0.31 -0.01    +0.052 C 
DOCKED: ATOM     29  C   UNL d   1      12.198  -0.785  13.114 -0.44 -0.02    +0.046 C 
DOCKED: ATOM     30  C   UNL d   1      10.484   8.852  14.804 -0.15 +0.00    +0.046 C 
DOCKED: ATOM     31  H   UNL d   1      11.960   3.681  12.041 +0.06 -0.01    +0.166 HD
DOCKED: ATOM     32  H   UNL d   1      10.409   5.005  12.271 +0.07 -0.01    +0.166 HD
DOCKED: ENDROOT
DOCKED: BRANCH   7  33
DOCKED: ATOM     33  C   UNL d   1      10.410   9.538   9.414 -0.14 +0.04    +0.141 C 
DOCKED: BRANCH  33  34
DOCKED: ATOM     34  C   UNL d   1      11.844   9.688   8.981 -0.01 +0.05    +0.306 C 
DOCKED: ATOM     35  O   UNL d   1      12.829   9.457   9.661 -0.00 -0.02    -0.251 OA
DOCKED: BRANCH  34  36
DOCKED: ATOM     36  O   UNL d   1      11.960  10.119   7.713 +0.00 -0.09    -0.481 OA
DOCKED: ATOM     37  H   UNL d   1      11.856   9.311   7.167 +0.05 +0.05    +0.295 HD
DOCKED: ENDBRANCH  34  36
DOCKED: ENDBRANCH  33  34
DOCKED: ENDBRANCH   7  33
DOCKED: BRANCH  27  38
DOCKED: ATOM     38  C   UNL d   1      11.134   6.332  16.568 -0.12 -0.00    +0.017 C 
DOCKED: ATOM     39  C   UNL d   1      10.716   5.423  17.461 -0.15 +0.00    +0.092 C 
DOCKED: BRANCH  39  40
DOCKED: ATOM     40  C   UNL d   1      11.078   5.567  18.874 -0.08 +0.04    +0.330 C 
DOCKED: ATOM     41  O   UNL d   1      10.759   4.846  19.800 -0.19 -0.06    -0.246 OA
DOCKED: BRANCH  40  42
DOCKED: ATOM     42  O   UNL d   1      11.857   6.646  19.043 +0.01 -0.04    -0.477 OA
DOCKED: ATOM     43  H   UNL d   1      11.374   7.182  19.705 +0.04 +0.03    +0.295 HD
DOCKED: ENDBRANCH  40  42
DOCKED: ENDBRANCH  39  40
DOCKED: ENDBRANCH  27  38
DOCKED: BRANCH   8  44
DOCKED: ATOM     44  C   UNL d   1      13.092   2.882   6.402 -0.09 -0.00    +0.141 C 
DOCKED: BRANCH  44  45
DOCKED: ATOM     45  C   UNL d   1      12.148   1.709   6.427 -0.19 +0.00    +0.306 C 
DOCKED: ATOM     46  O   UNL d   1      10.992   1.715   6.813 -0.35 +0.01    -0.251 OA
DOCKED: BRANCH  45  47
DOCKED: ATOM     47  O   UNL d   1      12.724   0.576   5.986 -0.09 -0.07    -0.481 OA
DOCKED: ATOM     48  H   UNL d   1      13.509   0.457   6.562 +0.08 +0.05    +0.295 HD
DOCKED: ENDBRANCH  45  47
DOCKED: ENDBRANCH  44  45
DOCKED: ENDBRANCH   8  44
DOCKED: BRANCH  22  49
DOCKED: ATOM     49  C   UNL d   1      10.950   0.831  15.572 -0.05 -0.02    +0.048 C 
DOCKED: BRANCH  49  50
DOCKED: ATOM     50  C   UNL d   1      12.136   0.518  16.484 -0.31 -0.02    +0.125 C 
DOCKED: BRANCH  50  51
DOCKED: ATOM     51  C   UNL d   1      11.975  -0.830  17.129 -0.32 -0.05    +0.305 C 
DOCKED: ATOM     52  O   UNL d   1      12.777  -1.747  17.145 -0.31 -0.00    -0.251 OA
DOCKED: BRANCH  51  53
DOCKED: ATOM     53  O   UNL d   1      10.774  -0.962  17.728 -0.30 +0.13    -0.481 OA
DOCKED: ATOM     54  H   UNL d   1      10.356  -0.082  17.620 -0.37 -0.14    +0.295 HD
DOCKED: ENDBRANCH  51  53
DOCKED: ENDBRANCH  50  51
DOCKED: ENDBRANCH  49  50
DOCKED: ENDBRANCH  22  49
DOCKED: TORSDOF 13
DOCKED: TER
DOCKED: ENDMDL
________________________________________________________________________________


	BEGINNING GENETIC ALGORITHM DOCKING 81 of 100
Run: 81 Seed: 1981974104 1367500110 [ Run 81 of 100 GA/GALS ]
Beginning LAMARCKIAN GENETIC ALGORITHM (LGA), with a maximum of 25000000 energy evaluations.

Final-Value: -11.457


	FINAL GENETIC ALGORITHM DOCKED STATE
	_______________________________________________


Detailed state:  trans 12.882 8.548 -10.058 quatxyzw 0.652420 0.607691 0.271585 -0.362355 center 0.153 0.018 -0.028 ntor 13 67.5105 162.3754 169.9025 16.1219 -144.4227 66.7181 117.2067 -163.5554 46.6764 3.9725 62.9302 -104.7445 124.3261
State:	 12.882   8.548 -10.058   0.700  0.652  0.291 -137.510     67.51  162.38  169.90   16.12 -144.42   66.72  117.21 -163.56   46.68    3.97   62.93 -104.74  124.33

DOCKED: MODEL       81
DOCKED: USER    Run = 81
DOCKED: USER    DPF = D:/Protein_go_brrr/autodock/final/mut_K82N/heme/dock.dpf
DOCKED: USER  
DOCKED: USER    Estimated Free Energy of Binding    =   -3.67 kcal/mol  [=(1)+(2)+(3)-(4)]
DOCKED: USER    Estimated Inhibition Constant, Ki   =    2.04 mM (millimolar)  [Temperature = 298.15 K]
DOCKED: USER    
DOCKED: USER    (1) Final Intermolecular Energy     =   -7.55 kcal/mol
DOCKED: USER        vdW + Hbond + desolv Energy     =   -6.80 kcal/mol
DOCKED: USER        Electrostatic Energy            =   -0.75 kcal/mol
DOCKED: USER    (2) Final Total Internal Energy     =   -3.91 kcal/mol
DOCKED: USER    (3) Torsional Free Energy           =   +3.88 kcal/mol
DOCKED: USER    (4) Unbound System's Energy  [=(2)] =   -3.91 kcal/mol
DOCKED: USER    
DOCKED: USER    
DOCKED: USER    NEWDPF move heme_opt.pdbqt
DOCKED: USER    NEWDPF about 0.153000 0.018000 -0.028000
DOCKED: USER    NEWDPF tran0 12.881948 8.547645 -10.057504
DOCKED: USER    NEWDPF quaternion0 0.652420 0.607691 0.271585 -0.362355
DOCKED: USER    NEWDPF axisangle0 0.699991 0.652001 0.291387 -137.510197
DOCKED: USER    NEWDPF quat0 0.699991 0.652001 0.291387 -137.510197
DOCKED: USER    NEWDPF dihe0 67.51 162.38 169.90 16.12 -144.42 66.72 117.21 -163.56 46.68 3.97 62.93 -104.74 124.33 
DOCKED: USER  keepresnum = 1 
DOCKED: USER  
DOCKED: REMARK  13 active torsions:
DOCKED: REMARK  status: ('A' for Active; 'I' for Inactive)
DOCKED: REMARK    1  A    between atoms: O_3  and  C_38 
DOCKED: REMARK    2  A    between atoms: O_4  and  C_40 
DOCKED: REMARK    3  A    between atoms: O_7  and  C_46 
DOCKED: REMARK    4  A    between atoms: O_9  and  C_48 
DOCKED: REMARK    5  A    between atoms: C_15  and  C_20 
DOCKED: REMARK    6  A    between atoms: C_16  and  C_23 
DOCKED: REMARK    7  A    between atoms: C_20  and  C_38 
DOCKED: REMARK    8  A    between atoms: C_23  and  C_40 
DOCKED: REMARK    9  A    between atoms: C_32  and  C_41 
DOCKED: REMARK   10  A    between atoms: C_37  and  C_45 
DOCKED: REMARK   11  A    between atoms: C_41  and  C_44 
DOCKED: REMARK   12  A    between atoms: C_44  and  C_46 
DOCKED: REMARK   13  A    between atoms: C_47  and  C_48 
DOCKED: USER                              x       y       z     vdW  Elec       q    Type
DOCKED: USER                           _______ _______ _______ _____ _____    ______ ____
DOCKED: ROOT
DOCKED: ATOM      1  O   UNL d   1      13.765   2.904  -8.601 -0.12 +0.14    -0.289 OA
DOCKED: ATOM      2  O   UNL d   1       8.436   6.138 -12.788 -0.30 +0.02    -0.289 OA
DOCKED: ATOM      3  N   UNL d   1      13.573   6.315  -9.073 -0.12 +0.03    -0.247 NA
DOCKED: ATOM      4  N   UNL d   1      11.389   6.607 -11.066 -0.17 +0.05    -0.247 NA
DOCKED: ATOM      5  N   UNL d   1      12.231   9.329 -11.452 -0.17 +0.01    -0.354 N 
DOCKED: ATOM      6  N   UNL d   1      14.507   9.011  -9.398 -0.10 +0.02    -0.354 N 
DOCKED: ATOM      7  C   UNL d   1      15.175   4.806  -7.995 -0.05 -0.01    +0.084 A 
DOCKED: ATOM      8  C   UNL d   1       9.701   4.842 -11.141 -0.34 -0.04    +0.084 A 
DOCKED: ATOM      9  C   UNL d   1      11.022   5.373 -10.576 -0.27 -0.02    +0.058 A 
DOCKED: ATOM     10  C   UNL d   1      14.772   6.231  -8.385 -0.11 -0.01    +0.058 A 
DOCKED: ATOM     11  C   UNL d   1      13.983   4.101  -8.568 -0.09 -0.05    +0.193 A 
DOCKED: ATOM     12  C   UNL d   1      13.073   5.126  -9.171 -0.17 -0.02    +0.109 A 
DOCKED: ATOM     13  C   UNL d   1       9.404   5.985 -12.070 -0.22 -0.06    +0.193 A 
DOCKED: ATOM     14  C   UNL d   1      16.430   4.340  -8.738 -0.02 -0.00    +0.026 C 
DOCKED: ATOM     15  C   UNL d   1      11.779   4.672  -9.719 -0.30 -0.02    +0.055 C 
DOCKED: ATOM     16  C   UNL d   1       8.608   4.782 -10.070 -0.57 -0.01    +0.026 C 
DOCKED: ATOM     17  C   UNL d   1      10.507   6.985 -11.935 -0.19 -0.02    +0.109 A 
DOCKED: ATOM     18  C   UNL d   1      15.496   7.297  -7.997 -0.12 -0.00    +0.050 C 
DOCKED: ATOM     19  C   UNL d   1      15.157   8.653  -8.238 -0.13 -0.00    +0.045 A 
DOCKED: ATOM     20  C   UNL d   1      11.339   9.209 -12.486 -0.23 +0.00    +0.045 A 
DOCKED: ATOM     21  C   UNL d   1      10.507   8.200 -12.763 -0.25 +0.00    +0.057 C 
DOCKED: ATOM     22  C   UNL d   1      12.411  11.218 -12.665 -0.15 -0.00    -0.019 A 
DOCKED: ATOM     23  C   UNL d   1      12.926  10.509 -11.477 -0.21 -0.00    +0.045 A 
DOCKED: ATOM     24  C   UNL d   1      11.471  10.444 -13.258 -0.17 -0.00    -0.022 A 
DOCKED: ATOM     25  C   UNL d   1      14.359  10.377  -9.467 -0.06 -0.00    +0.049 A 
DOCKED: ATOM     26  C   UNL d   1      15.405   9.812  -7.518 -0.13 +0.00    -0.018 A 
DOCKED: ATOM     27  C   UNL d   1      14.881  10.895  -8.290 -0.11 -0.00    +0.003 A 
DOCKED: ATOM     28  C   UNL d   1      13.856  10.997 -10.643 -0.19 -0.00    +0.052 C 
DOCKED: ATOM     29  C   UNL d   1      10.660  10.730 -14.476 -0.14 +0.01    +0.046 C 
DOCKED: ATOM     30  C   UNL d   1      16.084   9.909  -6.195 -0.10 -0.00    +0.046 C 
DOCKED: ATOM     31  H   UNL d   1      12.283   8.630 -10.719 +0.02 -0.01    +0.166 HD
DOCKED: ATOM     32  H   UNL d   1      14.222   8.348 -10.108 +0.03 -0.01    +0.166 HD
DOCKED: ENDROOT
DOCKED: BRANCH   7  33
DOCKED: ATOM     33  C   UNL d   1      15.283   4.542  -6.489 -0.06 -0.01    +0.141 C 
DOCKED: BRANCH  33  34
DOCKED: ATOM     34  C   UNL d   1      14.017   3.973  -5.908 -0.13 -0.01    +0.306 C 
DOCKED: ATOM     35  O   UNL d   1      13.087   4.612  -5.444 -0.21 +0.01    -0.251 OA
DOCKED: BRANCH  34  36
DOCKED: ATOM     36  O   UNL d   1      13.987   2.629  -5.945 -0.06 -0.05    -0.481 OA
DOCKED: ATOM     37  H   UNL d   1      13.250   2.416  -6.556 -0.24 -0.12    +0.295 HD
DOCKED: ENDBRANCH  34  36
DOCKED: ENDBRANCH  33  34
DOCKED: ENDBRANCH   7  33
DOCKED: BRANCH  27  38
DOCKED: ATOM     38  C   UNL d   1      14.940  12.277  -7.918 -0.15 -0.00    +0.017 C 
DOCKED: ATOM     39  C   UNL d   1      15.668  13.216  -8.540 -0.06 -0.00    +0.092 C 
DOCKED: BRANCH  39  40
DOCKED: ATOM     40  C   UNL d   1      15.627  14.603  -8.069 -0.01 -0.02    +0.330 C 
DOCKED: ATOM     41  O   UNL d   1      16.008  15.036  -6.998 -0.01 +0.01    -0.246 OA
DOCKED: BRANCH  40  42
DOCKED: ATOM     42  O   UNL d   1      15.097  15.395  -9.013 +0.00 +0.02    -0.477 OA
DOCKED: ATOM     43  H   UNL d   1      15.164  14.862  -9.832 +0.02 -0.01    +0.295 HD
DOCKED: ENDBRANCH  40  42
DOCKED: ENDBRANCH  39  40
DOCKED: ENDBRANCH  27  38
DOCKED: BRANCH   8  44
DOCKED: ATOM     44  C   UNL d   1       9.796   3.520 -11.911 -0.04 -0.15    +0.141 C 
DOCKED: BRANCH  44  45
DOCKED: ATOM     45  C   UNL d   1      10.942   3.481 -12.886 -0.07 -0.25    +0.306 C 
DOCKED: ATOM     46  O   UNL d   1      12.125   3.378 -12.612 -0.06 +0.12    -0.251 OA
DOCKED: BRANCH  45  47
DOCKED: ATOM     47  O   UNL d   1      10.537   3.603 -14.163 +0.04 +0.53    -0.481 OA
DOCKED: ATOM     48  H   UNL d   1       9.561   3.508 -14.123 -0.43 -0.81    +0.295 HD
DOCKED: ENDBRANCH  45  47
DOCKED: ENDBRANCH  44  45
DOCKED: ENDBRANCH   8  44
DOCKED: BRANCH  22  49
DOCKED: ATOM     49  C   UNL d   1      12.892  12.567 -13.115 -0.07 +0.00    +0.048 C 
DOCKED: BRANCH  49  50
DOCKED: ATOM     50  C   UNL d   1      14.409  12.703 -12.983 -0.03 -0.00    +0.125 C 
DOCKED: BRANCH  50  51
DOCKED: ATOM     51  C   UNL d   1      14.767  13.770 -11.988 -0.01 -0.01    +0.305 C 
DOCKED: ATOM     52  O   UNL d   1      15.868  14.247 -11.774 -0.00 +0.01    -0.251 OA
DOCKED: BRANCH  51  53
DOCKED: ATOM     53  O   UNL d   1      13.694  14.185 -11.285 +0.00 +0.01    -0.481 OA
DOCKED: ATOM     54  H   UNL d   1      13.988  15.026 -10.877 +0.03 -0.01    +0.295 HD
DOCKED: ENDBRANCH  51  53
DOCKED: ENDBRANCH  50  51
DOCKED: ENDBRANCH  49  50
DOCKED: ENDBRANCH  22  49
DOCKED: TORSDOF 13
DOCKED: TER
DOCKED: ENDMDL
________________________________________________________________________________


	BEGINNING GENETIC ALGORITHM DOCKING 82 of 100
Run: 82 Seed: 1410718097 1185560835 [ Run 82 of 100 GA/GALS ]
Beginning LAMARCKIAN GENETIC ALGORITHM (LGA), with a maximum of 25000000 energy evaluations.

Final-Value: -10.772


	FINAL GENETIC ALGORITHM DOCKED STATE
	_______________________________________________


Detailed state:  trans 10.977 16.340 -6.286 quatxyzw 0.721370 -0.267450 0.247536 0.588916 center 0.153 0.018 -0.028 ntor 13 161.0926 -157.6354 -116.2376 -13.1405 -147.6986 42.0715 -39.6929 135.8975 7.2660 4.9611 131.2426 -49.1561 37.4235
State:	 10.977  16.340  -6.286   0.893 -0.331  0.306 107.840    161.09 -157.64 -116.24  -13.14 -147.70   42.07  -39.69  135.90    7.27    4.96  131.24  -49.16   37.42

DOCKED: MODEL       82
DOCKED: USER    Run = 82
DOCKED: USER    DPF = D:/Protein_go_brrr/autodock/final/mut_K82N/heme/dock.dpf
DOCKED: USER  
DOCKED: USER    Estimated Free Energy of Binding    =   -4.02 kcal/mol  [=(1)+(2)+(3)-(4)]
DOCKED: USER    Estimated Inhibition Constant, Ki   =    1.13 mM (millimolar)  [Temperature = 298.15 K]
DOCKED: USER    
DOCKED: USER    (1) Final Intermolecular Energy     =   -7.90 kcal/mol
DOCKED: USER        vdW + Hbond + desolv Energy     =   -7.74 kcal/mol
DOCKED: USER        Electrostatic Energy            =   -0.16 kcal/mol
DOCKED: USER    (2) Final Total Internal Energy     =   -2.87 kcal/mol
DOCKED: USER    (3) Torsional Free Energy           =   +3.88 kcal/mol
DOCKED: USER    (4) Unbound System's Energy  [=(2)] =   -2.87 kcal/mol
DOCKED: USER    
DOCKED: USER    
DOCKED: USER    NEWDPF move heme_opt.pdbqt
DOCKED: USER    NEWDPF about 0.153000 0.018000 -0.028000
DOCKED: USER    NEWDPF tran0 10.976778 16.340257 -6.286321
DOCKED: USER    NEWDPF quaternion0 0.721370 -0.267450 0.247536 0.588916
DOCKED: USER    NEWDPF axisangle0 0.892570 -0.330923 0.306283 107.839825
DOCKED: USER    NEWDPF quat0 0.892570 -0.330923 0.306283 107.839825
DOCKED: USER    NEWDPF dihe0 161.09 -157.64 -116.24 -13.14 -147.70 42.07 -39.69 135.90 7.27 4.96 131.24 -49.16 37.42 
DOCKED: USER  keepresnum = 1 
DOCKED: USER  
DOCKED: REMARK  13 active torsions:
DOCKED: REMARK  status: ('A' for Active; 'I' for Inactive)
DOCKED: REMARK    1  A    between atoms: O_3  and  C_38 
DOCKED: REMARK    2  A    between atoms: O_4  and  C_40 
DOCKED: REMARK    3  A    between atoms: O_7  and  C_46 
DOCKED: REMARK    4  A    between atoms: O_9  and  C_48 
DOCKED: REMARK    5  A    between atoms: C_15  and  C_20 
DOCKED: REMARK    6  A    between atoms: C_16  and  C_23 
DOCKED: REMARK    7  A    between atoms: C_20  and  C_38 
DOCKED: REMARK    8  A    between atoms: C_23  and  C_40 
DOCKED: REMARK    9  A    between atoms: C_32  and  C_41 
DOCKED: REMARK   10  A    between atoms: C_37  and  C_45 
DOCKED: REMARK   11  A    between atoms: C_41  and  C_44 
DOCKED: REMARK   12  A    between atoms: C_44  and  C_46 
DOCKED: REMARK   13  A    between atoms: C_47  and  C_48 
DOCKED: USER                              x       y       z     vdW  Elec       q    Type
DOCKED: USER                           _______ _______ _______ _____ _____    ______ ____
DOCKED: ROOT
DOCKED: ATOM      1  O   UNL d   1       7.132  20.330  -8.300 -0.05 +0.06    -0.289 OA
DOCKED: ATOM      2  O   UNL d   1       8.421  17.799  -1.349 -0.23 +0.03    -0.289 OA
DOCKED: ATOM      3  N   UNL d   1       9.429  17.851  -7.611 -0.02 +0.01    -0.247 NA
DOCKED: ATOM      4  N   UNL d   1       9.454  17.750  -4.641 -0.14 +0.04    -0.247 NA
DOCKED: ATOM      5  N   UNL d   1      11.851  16.171  -4.808 -0.07 +0.04    -0.354 N 
DOCKED: ATOM      6  N   UNL d   1      11.828  16.297  -7.887 +0.10 +0.00    -0.354 N 
DOCKED: ATOM      7  C   UNL d   1       8.800  19.117  -9.613 -0.05 -0.01    +0.084 A 
DOCKED: ATOM      8  C   UNL d   1       7.433  18.484  -3.481 -0.39 -0.02    +0.084 A 
DOCKED: ATOM      9  C   UNL d   1       8.208  18.316  -4.792 -0.26 -0.01    +0.058 A 
DOCKED: ATOM     10  C   UNL d   1       9.681  18.049  -8.958 -0.10 -0.00    +0.058 A 
DOCKED: ATOM     11  C   UNL d   1       7.992  19.475  -8.402 -0.06 -0.03    +0.193 A 
DOCKED: ATOM     12  C   UNL d   1       8.451  18.621  -7.260 -0.11 -0.01    +0.109 A 
DOCKED: ATOM     13  C   UNL d   1       8.485  17.944  -2.554 -0.26 -0.03    +0.193 A 
DOCKED: ATOM     14  C   UNL d   1       9.609  20.342 -10.048 -0.02 -0.00    +0.026 C 
DOCKED: ATOM     15  C   UNL d   1       7.731  18.732  -5.975 -0.28 -0.01    +0.055 C 
DOCKED: ATOM     16  C   UNL d   1       6.207  17.567  -3.424 -0.64 -0.00    +0.026 C 
DOCKED: ATOM     17  C   UNL d   1       9.662  17.540  -3.381 -0.22 -0.02    +0.109 A 
DOCKED: ATOM     18  C   UNL d   1      10.553  17.319  -9.678 -0.12 -0.00    +0.050 C 
DOCKED: ATOM     19  C   UNL d   1      11.347  16.256  -9.176 -0.10 -0.00    +0.045 A 
DOCKED: ATOM     20  C   UNL d   1      11.828  16.423  -3.460 -0.19 -0.01    +0.045 A 
DOCKED: ATOM     21  C   UNL d   1      10.872  17.011  -2.734 -0.23 -0.01    +0.057 C 
DOCKED: ATOM     22  C   UNL d   1      13.793  15.383  -3.983 -0.10 +0.00    -0.019 A 
DOCKED: ATOM     23  C   UNL d   1      12.998  15.545  -5.217 -0.14 -0.00    +0.045 A 
DOCKED: ATOM     24  C   UNL d   1      13.094  15.903  -2.947 -0.12 +0.00    -0.022 A 
DOCKED: ATOM     25  C   UNL d   1      12.644  15.217  -7.641 -0.08 -0.00    +0.049 A 
DOCKED: ATOM     26  C   UNL d   1      11.832  15.102  -9.771 -0.20 -0.00    -0.018 A 
DOCKED: ATOM     27  C   UNL d   1      12.634  14.440  -8.791 -0.22 +0.00    +0.003 A 
DOCKED: ATOM     28  C   UNL d   1      13.383  15.122  -6.431 -0.15 -0.00    +0.052 C 
DOCKED: ATOM     29  C   UNL d   1      13.471  15.966  -1.506 -0.08 -0.00    +0.046 C 
DOCKED: ATOM     30  C   UNL d   1      11.566  14.639 -11.164 -0.18 +0.00    +0.046 C 
DOCKED: ATOM     31  H   UNL d   1      11.047  16.368  -5.393 +0.06 -0.01    +0.166 HD
DOCKED: ATOM     32  H   UNL d   1      11.631  17.050  -7.239 +0.03 -0.00    +0.166 HD
DOCKED: ENDROOT
DOCKED: BRANCH   7  33
DOCKED: ATOM     33  C   UNL d   1       7.888  18.617 -10.739 -0.05 -0.02    +0.141 C 
DOCKED: BRANCH  33  34
DOCKED: ATOM     34  C   UNL d   1       7.006  17.477 -10.306 -0.13 -0.05    +0.306 C 
DOCKED: ATOM     35  O   UNL d   1       7.252  16.289 -10.430 -0.23 +0.03    -0.251 OA
DOCKED: BRANCH  34  36
DOCKED: ATOM     36  O   UNL d   1       5.861  17.894  -9.737 -0.08 +0.13    -0.481 OA
DOCKED: ATOM     37  H   UNL d   1       6.052  18.809  -9.441 +0.09 -0.07    +0.295 HD
DOCKED: ENDBRANCH  34  36
DOCKED: ENDBRANCH  33  34
DOCKED: ENDBRANCH   7  33
DOCKED: BRANCH  27  38
DOCKED: ATOM     38  C   UNL d   1      13.339  13.210  -8.996 -0.21 -0.00    +0.017 C 
DOCKED: ATOM     39  C   UNL d   1      14.274  12.708  -8.174 -0.15 -0.00    +0.092 C 
DOCKED: BRANCH  39  40
DOCKED: ATOM     40  C   UNL d   1      14.910  11.427  -8.490 -0.07 -0.01    +0.330 C 
DOCKED: ATOM     41  O   UNL d   1      15.266  11.022  -9.581 -0.08 +0.01    -0.246 OA
DOCKED: BRANCH  40  42
DOCKED: ATOM     42  O   UNL d   1      15.078  10.706  -7.370 -0.06 +0.03    -0.477 OA
DOCKED: ATOM     43  H   UNL d   1      14.415  11.077  -6.751 +0.10 -0.02    +0.295 HD
DOCKED: ENDBRANCH  40  42
DOCKED: ENDBRANCH  39  40
DOCKED: ENDBRANCH  27  38
DOCKED: BRANCH   8  44
DOCKED: ATOM     44  C   UNL d   1       7.064  19.925  -3.112 -0.32 -0.03    +0.141 C 
DOCKED: BRANCH  44  45
DOCKED: ATOM     45  C   UNL d   1       8.199  20.896  -3.304 -0.17 -0.06    +0.306 C 
DOCKED: ATOM     46  O   UNL d   1       9.099  21.127  -2.516 -0.13 +0.03    -0.251 OA
DOCKED: BRANCH  45  47
DOCKED: ATOM     47  O   UNL d   1       8.122  21.551  -4.477 -0.06 +0.15    -0.481 OA
DOCKED: ATOM     48  H   UNL d   1       7.288  22.064  -4.420 -0.45 -0.20    +0.295 HD
DOCKED: ENDBRANCH  45  47
DOCKED: ENDBRANCH  44  45
DOCKED: ENDBRANCH   8  44
DOCKED: BRANCH  22  49
DOCKED: ATOM     49  C   UNL d   1      15.155  14.754  -3.935 -0.05 -0.00    +0.048 C 
DOCKED: BRANCH  49  50
DOCKED: ATOM     50  C   UNL d   1      15.208  13.452  -4.734 -0.07 -0.01    +0.125 C 
DOCKED: BRANCH  50  51
DOCKED: ATOM     51  C   UNL d   1      14.044  12.565  -4.393 -0.15 -0.05    +0.305 C 
DOCKED: ATOM     52  O   UNL d   1      13.275  12.019  -5.164 -0.28 +0.05    -0.251 OA
DOCKED: BRANCH  51  53
DOCKED: ATOM     53  O   UNL d   1      13.897  12.416  -3.061 -0.07 +0.10    -0.481 OA
DOCKED: ATOM     54  H   UNL d   1      13.005  12.021  -2.963 -0.45 -0.14    +0.295 HD
DOCKED: ENDBRANCH  51  53
DOCKED: ENDBRANCH  50  51
DOCKED: ENDBRANCH  49  50
DOCKED: ENDBRANCH  22  49
DOCKED: TORSDOF 13
DOCKED: TER
DOCKED: ENDMDL
________________________________________________________________________________


	BEGINNING GENETIC ALGORITHM DOCKING 83 of 100
Run: 83 Seed: 271960757 509620396 [ Run 83 of 100 GA/GALS ]
Beginning LAMARCKIAN GENETIC ALGORITHM (LGA), with a maximum of 25000000 energy evaluations.

Final-Value: -10.554


	FINAL GENETIC ALGORITHM DOCKED STATE
	_______________________________________________


Detailed state:  trans -8.210 7.058 -14.269 quatxyzw -0.769433 0.174098 0.439756 -0.429276 center 0.153 0.018 -0.028 ntor 13 -177.9251 -153.1096 -77.7263 13.0992 -161.2594 83.5458 119.9871 -112.0930 0.2995 119.9086 -121.1264 -73.3950 -15.9634
State:	 -8.210   7.058 -14.269  -0.852  0.193  0.487 -129.157   -177.93 -153.11  -77.73   13.10 -161.26   83.55  119.99 -112.09    0.30  119.91 -121.13  -73.39  -15.96

DOCKED: MODEL       83
DOCKED: USER    Run = 83
DOCKED: USER    DPF = D:/Protein_go_brrr/autodock/final/mut_K82N/heme/dock.dpf
DOCKED: USER  
DOCKED: USER    Estimated Free Energy of Binding    =   -3.55 kcal/mol  [=(1)+(2)+(3)-(4)]
DOCKED: USER    Estimated Inhibition Constant, Ki   =    2.48 mM (millimolar)  [Temperature = 298.15 K]
DOCKED: USER    
DOCKED: USER    (1) Final Intermolecular Energy     =   -7.43 kcal/mol
DOCKED: USER        vdW + Hbond + desolv Energy     =   -7.07 kcal/mol
DOCKED: USER        Electrostatic Energy            =   -0.36 kcal/mol
DOCKED: USER    (2) Final Total Internal Energy     =   -3.12 kcal/mol
DOCKED: USER    (3) Torsional Free Energy           =   +3.88 kcal/mol
DOCKED: USER    (4) Unbound System's Energy  [=(2)] =   -3.12 kcal/mol
DOCKED: USER    
DOCKED: USER    
DOCKED: USER    NEWDPF move heme_opt.pdbqt
DOCKED: USER    NEWDPF about 0.153000 0.018000 -0.028000
DOCKED: USER    NEWDPF tran0 -8.209648 7.057612 -14.269288
DOCKED: USER    NEWDPF quaternion0 -0.769433 0.174098 0.439756 -0.429276
DOCKED: USER    NEWDPF axisangle0 -0.851921 0.192763 0.486901 -129.156706
DOCKED: USER    NEWDPF quat0 -0.851921 0.192763 0.486901 -129.156706
DOCKED: USER    NEWDPF dihe0 -177.93 -153.11 -77.73 13.10 -161.26 83.55 119.99 -112.09 0.30 119.91 -121.13 -73.39 -15.96 
DOCKED: USER  keepresnum = 1 
DOCKED: USER  
DOCKED: REMARK  13 active torsions:
DOCKED: REMARK  status: ('A' for Active; 'I' for Inactive)
DOCKED: REMARK    1  A    between atoms: O_3  and  C_38 
DOCKED: REMARK    2  A    between atoms: O_4  and  C_40 
DOCKED: REMARK    3  A    between atoms: O_7  and  C_46 
DOCKED: REMARK    4  A    between atoms: O_9  and  C_48 
DOCKED: REMARK    5  A    between atoms: C_15  and  C_20 
DOCKED: REMARK    6  A    between atoms: C_16  and  C_23 
DOCKED: REMARK    7  A    between atoms: C_20  and  C_38 
DOCKED: REMARK    8  A    between atoms: C_23  and  C_40 
DOCKED: REMARK    9  A    between atoms: C_32  and  C_41 
DOCKED: REMARK   10  A    between atoms: C_37  and  C_45 
DOCKED: REMARK   11  A    between atoms: C_41  and  C_44 
DOCKED: REMARK   12  A    between atoms: C_44  and  C_46 
DOCKED: REMARK   13  A    between atoms: C_47  and  C_48 
DOCKED: USER                              x       y       z     vdW  Elec       q    Type
DOCKED: USER                           _______ _______ _______ _____ _____    ______ ____
DOCKED: ROOT
DOCKED: ATOM      1  O   UNL d   1     -12.742   6.006 -10.649 -0.01 -0.09    -0.289 OA
DOCKED: ATOM      2  O   UNL d   1      -5.717   8.248  -9.229 -0.27 +0.02    -0.289 OA
DOCKED: ATOM      3  N   UNL d   1     -10.360   6.363 -13.118 -0.06 -0.04    -0.247 NA
DOCKED: ATOM      4  N   UNL d   1      -8.052   7.553 -11.673 -0.06 -0.02    -0.247 NA
DOCKED: ATOM      5  N   UNL d   1      -6.887   8.165 -14.229 +0.15 +0.02    -0.354 N 
DOCKED: ATOM      6  N   UNL d   1      -9.294   6.947 -15.720 -0.06 -0.02    -0.354 N 
DOCKED: ATOM      7  C   UNL d   1     -12.760   5.865 -13.089 -0.03 +0.02    +0.084 A 
DOCKED: ATOM      8  C   UNL d   1      -7.880   7.101  -9.278 -0.17 +0.02    +0.084 A 
DOCKED: ATOM      9  C   UNL d   1      -8.672   6.983 -10.584 -0.12 +0.01    +0.058 A 
DOCKED: ATOM     10  C   UNL d   1     -11.476   6.094 -13.892 -0.07 +0.01    +0.058 A 
DOCKED: ATOM     11  C   UNL d   1     -12.168   6.034 -11.722 -0.02 +0.05    +0.193 A 
DOCKED: ATOM     12  C   UNL d   1     -10.703   6.306 -11.872 -0.07 +0.02    +0.109 A 
DOCKED: ATOM     13  C   UNL d   1      -6.713   7.877  -9.820 -0.19 +0.01    +0.193 A 
DOCKED: ATOM     14  C   UNL d   1     -13.790   6.973 -13.324 -0.01 +0.00    +0.026 C 
DOCKED: ATOM     15  C   UNL d   1      -9.888   6.417 -10.646 -0.11 +0.01    +0.055 C 
DOCKED: ATOM     16  C   UNL d   1      -7.380   5.737  -8.791 -0.28 +0.01    +0.026 C 
DOCKED: ATOM     17  C   UNL d   1      -6.943   8.092 -11.280 -0.14 -0.00    +0.109 A 
DOCKED: ATOM     18  C   UNL d   1     -11.448   5.949 -15.231 -0.11 +0.01    +0.050 C 
DOCKED: ATOM     19  C   UNL d   1     -10.293   6.058 -16.046 -0.15 +0.01    +0.045 A 
DOCKED: ATOM     20  C   UNL d   1      -6.037   8.862 -13.409 -0.17 -0.01    +0.045 A 
DOCKED: ATOM     21  C   UNL d   1      -5.977   8.867 -12.074 -0.26 -0.01    +0.057 C 
DOCKED: ATOM     22  C   UNL d   1      -5.537   9.357 -15.583 -0.12 +0.00    -0.019 A 
DOCKED: ATOM     23  C   UNL d   1      -6.662   8.400 -15.559 -0.14 -0.01    +0.045 A 
DOCKED: ATOM     24  C   UNL d   1      -5.171   9.625 -14.307 -0.19 +0.00    -0.022 A 
DOCKED: ATOM     25  C   UNL d   1      -8.317   6.953 -16.689 -0.19 -0.00    +0.049 A 
DOCKED: ATOM     26  C   UNL d   1      -9.940   5.445 -17.238 -0.20 -0.00    -0.018 A 
DOCKED: ATOM     27  C   UNL d   1      -8.682   6.000 -17.630 -0.23 -0.00    +0.003 A 
DOCKED: ATOM     28  C   UNL d   1      -7.260   7.903 -16.652 -0.17 -0.01    +0.052 C 
DOCKED: ATOM     29  C   UNL d   1      -4.082  10.518 -13.817 -0.34 -0.01    +0.046 C 
DOCKED: ATOM     30  C   UNL d   1     -10.720   4.407 -17.971 -0.10 +0.02    +0.046 C 
DOCKED: ATOM     31  H   UNL d   1      -7.547   7.493 -13.853 +0.07 -0.00    +0.166 HD
DOCKED: ATOM     32  H   UNL d   1      -9.314   7.535 -14.895 +0.03 +0.01    +0.166 HD
DOCKED: ENDROOT
DOCKED: BRANCH   7  33
DOCKED: ATOM     33  C   UNL d   1     -13.387   4.474 -13.236 -0.05 +0.05    +0.141 C 
DOCKED: BRANCH  33  34
DOCKED: ATOM     34  C   UNL d   1     -12.382   3.366 -13.075 -0.10 +0.15    +0.306 C 
DOCKED: ATOM     35  O   UNL d   1     -11.939   2.661 -13.965 -0.19 -0.22    -0.251 OA
DOCKED: BRANCH  34  36
DOCKED: ATOM     36  O   UNL d   1     -11.987   3.206 -11.799 -0.05 -0.19    -0.481 OA
DOCKED: ATOM     37  H   UNL d   1     -12.479   3.893 -11.301 +0.05 +0.11    +0.295 HD
DOCKED: ENDBRANCH  34  36
DOCKED: ENDBRANCH  33  34
DOCKED: ENDBRANCH   7  33
DOCKED: BRANCH  27  38
DOCKED: ATOM     38  C   UNL d   1      -7.962   5.655 -18.818 -0.18 -0.00    +0.017 C 
DOCKED: ATOM     39  C   UNL d   1      -7.249   6.510 -19.567 -0.15 -0.02    +0.092 C 
DOCKED: BRANCH  39  40
DOCKED: ATOM     40  C   UNL d   1      -6.541   6.025 -20.755 -0.11 -0.06    +0.330 C 
DOCKED: ATOM     41  O   UNL d   1      -7.000   5.823 -21.863 -0.05 +0.03    -0.246 OA
DOCKED: BRANCH  40  42
DOCKED: ATOM     42  O   UNL d   1      -5.246   5.822 -20.469 -0.16 +0.12    -0.477 OA
DOCKED: ATOM     43  H   UNL d   1      -5.244   5.635 -19.508 -0.30 -0.15    +0.295 HD
DOCKED: ENDBRANCH  40  42
DOCKED: ENDBRANCH  39  40
DOCKED: ENDBRANCH  27  38
DOCKED: BRANCH   8  44
DOCKED: ATOM     44  C   UNL d   1      -8.575   7.872  -8.150 -0.18 +0.04    +0.141 C 
DOCKED: BRANCH  44  45
DOCKED: ATOM     45  C   UNL d   1      -9.750   7.136  -7.565 -0.12 +0.19    +0.306 C 
DOCKED: ATOM     46  O   UNL d   1      -9.706   6.189  -6.799 -0.69 -0.31    -0.251 OA
DOCKED: BRANCH  45  47
DOCKED: ATOM     47  O   UNL d   1     -10.928   7.618  -8.000 -0.00 -0.25    -0.481 OA
DOCKED: ATOM     48  H   UNL d   1     -11.218   6.982  -8.688 +0.05 +0.16    +0.295 HD
DOCKED: ENDBRANCH  45  47
DOCKED: ENDBRANCH  44  45
DOCKED: ENDBRANCH   8  44
DOCKED: BRANCH  22  49
DOCKED: ATOM     49  C   UNL d   1      -4.941   9.925 -16.837 -0.08 -0.01    +0.048 C 
DOCKED: BRANCH  49  50
DOCKED: ATOM     50  C   UNL d   1      -3.658   9.197 -17.237 -0.11 -0.03    +0.125 C 
DOCKED: BRANCH  50  51
DOCKED: ATOM     51  C   UNL d   1      -3.921   7.738 -17.477 -0.19 -0.09    +0.305 C 
DOCKED: ATOM     52  O   UNL d   1      -3.447   6.789 -16.878 -0.25 +0.10    -0.251 OA
DOCKED: BRANCH  51  53
DOCKED: ATOM     53  O   UNL d   1      -4.783   7.542 -18.494 -0.07 +0.14    -0.481 OA
DOCKED: ATOM     54  H   UNL d   1      -5.031   6.597 -18.418 -0.33 -0.15    +0.295 HD
DOCKED: ENDBRANCH  51  53
DOCKED: ENDBRANCH  50  51
DOCKED: ENDBRANCH  49  50
DOCKED: ENDBRANCH  22  49
DOCKED: TORSDOF 13
DOCKED: TER
DOCKED: ENDMDL
________________________________________________________________________________


	BEGINNING GENETIC ALGORITHM DOCKING 84 of 100
Run: 84 Seed: 1655206552 149359919 [ Run 84 of 100 GA/GALS ]
Beginning LAMARCKIAN GENETIC ALGORITHM (LGA), with a maximum of 25000000 energy evaluations.

Final-Value: -11.668


	FINAL GENETIC ALGORITHM DOCKED STATE
	_______________________________________________


Detailed state:  trans -3.926 2.949 18.382 quatxyzw -0.888593 -0.170023 -0.043676 0.423777 center 0.153 0.018 -0.028 ntor 13 160.3362 152.3995 -119.2862 -106.9105 -146.1206 43.8451 122.6685 -93.9978 11.4655 -32.7878 -131.0676 -79.8652 -7.0860
State:	 -3.926   2.949  18.382  -0.981 -0.188 -0.048 129.853    160.34  152.40 -119.29 -106.91 -146.12   43.85  122.67  -94.00   11.47  -32.79 -131.07  -79.87   -7.09

DOCKED: MODEL       84
DOCKED: USER    Run = 84
DOCKED: USER    DPF = D:/Protein_go_brrr/autodock/final/mut_K82N/heme/dock.dpf
DOCKED: USER  
DOCKED: USER    Estimated Free Energy of Binding    =   -3.69 kcal/mol  [=(1)+(2)+(3)-(4)]
DOCKED: USER    Estimated Inhibition Constant, Ki   =    1.97 mM (millimolar)  [Temperature = 298.15 K]
DOCKED: USER    
DOCKED: USER    (1) Final Intermolecular Energy     =   -7.57 kcal/mol
DOCKED: USER        vdW + Hbond + desolv Energy     =   -7.47 kcal/mol
DOCKED: USER        Electrostatic Energy            =   -0.10 kcal/mol
DOCKED: USER    (2) Final Total Internal Energy     =   -4.10 kcal/mol
DOCKED: USER    (3) Torsional Free Energy           =   +3.88 kcal/mol
DOCKED: USER    (4) Unbound System's Energy  [=(2)] =   -4.10 kcal/mol
DOCKED: USER    
DOCKED: USER    
DOCKED: USER    NEWDPF move heme_opt.pdbqt
DOCKED: USER    NEWDPF about 0.153000 0.018000 -0.028000
DOCKED: USER    NEWDPF tran0 -3.925941 2.948851 18.381694
DOCKED: USER    NEWDPF quaternion0 -0.888593 -0.170023 -0.043676 0.423777
DOCKED: USER    NEWDPF axisangle0 -0.981040 -0.187711 -0.048220 129.853484
DOCKED: USER    NEWDPF quat0 -0.981040 -0.187711 -0.048220 129.853484
DOCKED: USER    NEWDPF dihe0 160.34 152.40 -119.29 -106.91 -146.12 43.85 122.67 -94.00 11.47 -32.79 -131.07 -79.87 -7.09 
DOCKED: USER  keepresnum = 1 
DOCKED: USER  
DOCKED: REMARK  13 active torsions:
DOCKED: REMARK  status: ('A' for Active; 'I' for Inactive)
DOCKED: REMARK    1  A    between atoms: O_3  and  C_38 
DOCKED: REMARK    2  A    between atoms: O_4  and  C_40 
DOCKED: REMARK    3  A    between atoms: O_7  and  C_46 
DOCKED: REMARK    4  A    between atoms: O_9  and  C_48 
DOCKED: REMARK    5  A    between atoms: C_15  and  C_20 
DOCKED: REMARK    6  A    between atoms: C_16  and  C_23 
DOCKED: REMARK    7  A    between atoms: C_20  and  C_38 
DOCKED: REMARK    8  A    between atoms: C_23  and  C_40 
DOCKED: REMARK    9  A    between atoms: C_32  and  C_41 
DOCKED: REMARK   10  A    between atoms: C_37  and  C_45 
DOCKED: REMARK   11  A    between atoms: C_41  and  C_44 
DOCKED: REMARK   12  A    between atoms: C_44  and  C_46 
DOCKED: REMARK   13  A    between atoms: C_47  and  C_48 
DOCKED: USER                              x       y       z     vdW  Elec       q    Type
DOCKED: USER                           _______ _______ _______ _____ _____    ______ ____
DOCKED: ROOT
DOCKED: ATOM      1  O   UNL d   1      -8.600  -0.417  19.639 -0.02 +0.03    -0.289 OA
DOCKED: ATOM      2  O   UNL d   1      -8.054   6.039  15.843 -0.10 +0.05    -0.289 OA
DOCKED: ATOM      3  N   UNL d   1      -5.624   1.286  19.268 -0.11 +0.02    -0.247 NA
DOCKED: ATOM      4  N   UNL d   1      -6.328   3.494  17.408 -0.08 +0.05    -0.247 NA
DOCKED: ATOM      5  N   UNL d   1      -3.514   3.962  17.046 -0.09 +0.13    -0.354 N 
DOCKED: ATOM      6  N   UNL d   1      -2.792   1.657  18.961 -0.13 +0.04    -0.354 N 
DOCKED: ATOM      7  C   UNL d   1      -6.270  -0.881  20.215 -0.11 -0.00    +0.084 A 
DOCKED: ATOM      8  C   UNL d   1      -8.657   4.233  17.382 -0.03 -0.01    +0.084 A 
DOCKED: ATOM      9  C   UNL d   1      -7.596   3.249  17.885 -0.06 -0.01    +0.058 A 
DOCKED: ATOM     10  C   UNL d   1      -5.169   0.132  19.885 -0.16 +0.00    +0.058 A 
DOCKED: ATOM     11  C   UNL d   1      -7.429  -0.088  19.691 -0.06 -0.02    +0.193 A 
DOCKED: ATOM     12  C   UNL d   1      -6.911   1.216  19.167 -0.09 -0.01    +0.109 A 
DOCKED: ATOM     13  C   UNL d   1      -7.762   5.060  16.501 -0.07 -0.03    +0.193 A 
DOCKED: ATOM     14  C   UNL d   1      -6.135  -2.164  19.391 -0.23 -0.00    +0.026 C 
DOCKED: ATOM     15  C   UNL d   1      -7.890   2.209  18.681 -0.06 -0.01    +0.055 C 
DOCKED: ATOM     16  C   UNL d   1      -9.191   5.119  18.511 -0.01 -0.00    +0.026 C 
DOCKED: ATOM     17  C   UNL d   1      -6.379   4.504  16.600 -0.15 -0.02    +0.109 A 
DOCKED: ATOM     18  C   UNL d   1      -3.892  -0.071  20.259 -0.09 +0.01    +0.050 C 
DOCKED: ATOM     19  C   UNL d   1      -2.825   0.845  20.073 -0.14 +0.00    +0.045 A 
DOCKED: ATOM     20  C   UNL d   1      -4.016   4.772  16.061 -0.26 -0.01    +0.045 A 
DOCKED: ATOM     21  C   UNL d   1      -5.289   5.090  15.806 -0.20 -0.01    +0.057 C 
DOCKED: ATOM     22  C   UNL d   1      -1.740   4.708  15.875 -0.39 +0.01    -0.019 A 
DOCKED: ATOM     23  C   UNL d   1      -2.149   3.861  17.014 -0.27 -0.01    +0.045 A 
DOCKED: ATOM     24  C   UNL d   1      -2.850   5.245  15.316 -0.38 +0.01    -0.022 A 
DOCKED: ATOM     25  C   UNL d   1      -1.632   2.395  18.936 -0.25 -0.01    +0.049 A 
DOCKED: ATOM     26  C   UNL d   1      -1.675   1.089  20.807 -0.20 +0.00    -0.018 A 
DOCKED: ATOM     27  C   UNL d   1      -0.935   2.083  20.095 -0.23 -0.00    +0.003 A 
DOCKED: ATOM     28  C   UNL d   1      -1.298   3.191  17.807 -0.23 -0.02    +0.052 C 
DOCKED: ATOM     29  C   UNL d   1      -2.954   6.173  14.153 -0.40 -0.03    +0.046 C 
DOCKED: ATOM     30  C   UNL d   1      -1.286   0.442  22.093 -0.18 -0.00    +0.046 C 
DOCKED: ATOM     31  H   UNL d   1      -4.117   3.562  17.757 +0.01 -0.05    +0.166 HD
DOCKED: ATOM     32  H   UNL d   1      -3.514   1.663  18.251 -0.03 -0.03    +0.166 HD
DOCKED: ENDROOT
DOCKED: BRANCH   7  33
DOCKED: ATOM     33  C   UNL d   1      -6.456  -1.186  21.705 -0.04 +0.00    +0.141 C 
DOCKED: BRANCH  33  34
DOCKED: ATOM     34  C   UNL d   1      -6.794   0.040  22.510 -0.01 -0.01    +0.306 C 
DOCKED: ATOM     35  O   UNL d   1      -5.999   0.771  23.076 -0.01 +0.01    -0.251 OA
DOCKED: BRANCH  34  36
DOCKED: ATOM     36  O   UNL d   1      -8.116   0.281  22.556 +0.00 +0.02    -0.481 OA
DOCKED: ATOM     37  H   UNL d   1      -8.479  -0.183  21.773 +0.01 -0.01    +0.295 HD
DOCKED: ENDBRANCH  34  36
DOCKED: ENDBRANCH  33  34
DOCKED: ENDBRANCH   7  33
DOCKED: BRANCH  27  38
DOCKED: ATOM     38  C   UNL d   1       0.331   2.616  20.499 -0.20 -0.01    +0.017 C 
DOCKED: ATOM     39  C   UNL d   1       1.374   2.836  19.684 -0.27 -0.07    +0.092 C 
DOCKED: BRANCH  39  40
DOCKED: ATOM     40  C   UNL d   1       2.613   3.404  20.222 -0.18 -0.21    +0.330 C 
DOCKED: ATOM     41  O   UNL d   1       3.166   3.125  21.268 -0.15 +0.16    -0.246 OA
DOCKED: BRANCH  40  42
DOCKED: ATOM     42  O   UNL d   1       3.108   4.318  19.373 -0.14 +0.25    -0.477 OA
DOCKED: ATOM     43  H   UNL d   1       2.783   4.025  18.497 -0.44 -0.21    +0.295 HD
DOCKED: ENDBRANCH  40  42
DOCKED: ENDBRANCH  39  40
DOCKED: ENDBRANCH  27  38
DOCKED: BRANCH   8  44
DOCKED: ATOM     44  C   UNL d   1      -9.802   3.614  16.574 -0.02 -0.02    +0.141 C 
DOCKED: BRANCH  44  45
DOCKED: ATOM     45  C   UNL d   1      -9.455   3.390  15.126 -0.05 -0.05    +0.306 C 
DOCKED: ATOM     46  O   UNL d   1      -8.786   2.478  14.672 -0.13 +0.05    -0.251 OA
DOCKED: BRANCH  45  47
DOCKED: ATOM     47  O   UNL d   1      -9.949   4.350  14.324 -0.02 +0.08    -0.481 OA
DOCKED: ATOM     48  H   UNL d   1      -9.544   5.181  14.652 +0.07 -0.05    +0.295 HD
DOCKED: ENDBRANCH  45  47
DOCKED: ENDBRANCH  44  45
DOCKED: ENDBRANCH   8  44
DOCKED: BRANCH  22  49
DOCKED: ATOM     49  C   UNL d   1      -0.319   4.899  15.434 -0.41 -0.01    +0.048 C 
DOCKED: BRANCH  49  50
DOCKED: ATOM     50  C   UNL d   1       0.336   6.093  16.127 -0.08 -0.04    +0.125 C 
DOCKED: BRANCH  50  51
DOCKED: ATOM     51  C   UNL d   1       0.128   6.031  17.614 -0.14 -0.12    +0.305 C 
DOCKED: ATOM     52  O   UNL d   1      -0.693   6.641  18.276 -0.05 +0.08    -0.251 OA
DOCKED: BRANCH  51  53
DOCKED: ATOM     53  O   UNL d   1       0.996   5.189  18.210 -0.03 +0.25    -0.481 OA
DOCKED: ATOM     54  H   UNL d   1       1.852   5.665  18.174 -0.41 -0.22    +0.295 HD
DOCKED: ENDBRANCH  51  53
DOCKED: ENDBRANCH  50  51
DOCKED: ENDBRANCH  49  50
DOCKED: ENDBRANCH  22  49
DOCKED: TORSDOF 13
DOCKED: TER
DOCKED: ENDMDL
________________________________________________________________________________


	BEGINNING GENETIC ALGORITHM DOCKING 85 of 100
Run: 85 Seed: 1408921357 207243336 [ Run 85 of 100 GA/GALS ]
Beginning LAMARCKIAN GENETIC ALGORITHM (LGA), with a maximum of 25000000 energy evaluations.

Final-Value: -12.575


	FINAL GENETIC ALGORITHM DOCKED STATE
	_______________________________________________


Detailed state:  trans 5.202 17.358 -10.803 quatxyzw 0.905959 0.035261 0.229015 0.354325 center 0.153 0.018 -0.028 ntor 13 -180.0000 -176.1266 -153.5777 10.2872 37.2415 25.9984 145.7845 3.2016 180.0000 -66.6527 -50.4999 -80.4160 11.4102
State:	  5.202  17.358 -10.803   0.969  0.038  0.245 138.496   -180.00 -176.13 -153.58   10.29   37.24   26.00  145.78    3.20  180.00  -66.65  -50.50  -80.42   11.41

DOCKED: MODEL       85
DOCKED: USER    Run = 85
DOCKED: USER    DPF = D:/Protein_go_brrr/autodock/final/mut_K82N/heme/dock.dpf
DOCKED: USER  
DOCKED: USER    Estimated Free Energy of Binding    =   -5.01 kcal/mol  [=(1)+(2)+(3)-(4)]
DOCKED: USER    Estimated Inhibition Constant, Ki   =  213.12 uM (micromolar)  [Temperature = 298.15 K]
DOCKED: USER    
DOCKED: USER    (1) Final Intermolecular Energy     =   -8.89 kcal/mol
DOCKED: USER        vdW + Hbond + desolv Energy     =   -8.58 kcal/mol
DOCKED: USER        Electrostatic Energy            =   -0.30 kcal/mol
DOCKED: USER    (2) Final Total Internal Energy     =   -3.69 kcal/mol
DOCKED: USER    (3) Torsional Free Energy           =   +3.88 kcal/mol
DOCKED: USER    (4) Unbound System's Energy  [=(2)] =   -3.69 kcal/mol
DOCKED: USER    
DOCKED: USER    
DOCKED: USER    NEWDPF move heme_opt.pdbqt
DOCKED: USER    NEWDPF about 0.153000 0.018000 -0.028000
DOCKED: USER    NEWDPF tran0 5.202032 17.357611 -10.802680
DOCKED: USER    NEWDPF quaternion0 0.905959 0.035261 0.229015 0.354325
DOCKED: USER    NEWDPF axisangle0 0.968814 0.037707 0.244904 138.495793
DOCKED: USER    NEWDPF quat0 0.968814 0.037707 0.244904 138.495793
DOCKED: USER    NEWDPF dihe0 -180.00 -176.13 -153.58 10.29 37.24 26.00 145.78 3.20 180.00 -66.65 -50.50 -80.42 11.41 
DOCKED: USER  keepresnum = 1 
DOCKED: USER  
DOCKED: REMARK  13 active torsions:
DOCKED: REMARK  status: ('A' for Active; 'I' for Inactive)
DOCKED: REMARK    1  A    between atoms: O_3  and  C_38 
DOCKED: REMARK    2  A    between atoms: O_4  and  C_40 
DOCKED: REMARK    3  A    between atoms: O_7  and  C_46 
DOCKED: REMARK    4  A    between atoms: O_9  and  C_48 
DOCKED: REMARK    5  A    between atoms: C_15  and  C_20 
DOCKED: REMARK    6  A    between atoms: C_16  and  C_23 
DOCKED: REMARK    7  A    between atoms: C_20  and  C_38 
DOCKED: REMARK    8  A    between atoms: C_23  and  C_40 
DOCKED: REMARK    9  A    between atoms: C_32  and  C_41 
DOCKED: REMARK   10  A    between atoms: C_37  and  C_45 
DOCKED: REMARK   11  A    between atoms: C_41  and  C_44 
DOCKED: REMARK   12  A    between atoms: C_44  and  C_46 
DOCKED: REMARK   13  A    between atoms: C_47  and  C_48 
DOCKED: USER                              x       y       z     vdW  Elec       q    Type
DOCKED: USER                           _______ _______ _______ _____ _____    ______ ____
DOCKED: ROOT
DOCKED: ATOM      1  O   UNL d   1       0.828  17.076 -14.746 -0.04 +0.32    -0.289 OA
DOCKED: ATOM      2  O   UNL d   1       1.119  20.197  -7.922 -0.44 +0.07    -0.289 OA
DOCKED: ATOM      3  N   UNL d   1       3.607  16.869 -12.713 -0.08 +0.06    -0.247 NA
DOCKED: ATOM      4  N   UNL d   1       2.905  18.618 -10.416 -0.11 +0.08    -0.247 NA
DOCKED: ATOM      5  N   UNL d   1       5.668  18.530  -9.624 -0.07 +0.10    -0.354 N 
DOCKED: ATOM      6  N   UNL d   1       6.391  16.731 -12.021 -0.03 +0.04    -0.354 N 
DOCKED: ATOM      7  C   UNL d   1       3.098  16.211 -15.019 -0.13 -0.04    +0.084 A 
DOCKED: ATOM      8  C   UNL d   1       0.531  18.918  -9.925 -0.28 -0.03    +0.084 A 
DOCKED: ATOM      9  C   UNL d   1       1.622  18.351 -10.838 -0.19 -0.02    +0.058 A 
DOCKED: ATOM     10  C   UNL d   1       4.107  16.292 -13.869 -0.13 -0.01    +0.058 A 
DOCKED: ATOM     11  C   UNL d   1       1.935  16.828 -14.303 -0.13 -0.12    +0.193 A 
DOCKED: ATOM     12  C   UNL d   1       2.362  17.160 -12.906 -0.16 -0.04    +0.109 A 
DOCKED: ATOM     13  C   UNL d   1       1.432  19.588  -8.926 -0.28 -0.06    +0.193 A 
DOCKED: ATOM     14  C   UNL d   1       3.491  17.112 -16.192 -0.06 -0.01    +0.026 C 
DOCKED: ATOM     15  C   UNL d   1       1.347  17.697 -11.978 -0.24 -0.02    +0.055 C 
DOCKED: ATOM     16  C   UNL d   1      -0.250  17.807  -9.216 -0.43 -0.01    +0.026 C 
DOCKED: ATOM     17  C   UNL d   1       2.845  19.337  -9.342 -0.21 -0.04    +0.109 A 
DOCKED: ATOM     18  C   UNL d   1       5.337  15.756 -13.974 -0.14 -0.01    +0.050 C 
DOCKED: ATOM     19  C   UNL d   1       6.305  15.708 -12.938 -0.16 -0.00    +0.045 A 
DOCKED: ATOM     20  C   UNL d   1       5.211  19.505  -8.777 -0.20 -0.02    +0.045 A 
DOCKED: ATOM     21  C   UNL d   1       3.955  19.914  -8.569 -0.29 -0.02    +0.057 C 
DOCKED: ATOM     22  C   UNL d   1       7.483  19.366  -8.585 -0.12 +0.00    -0.019 A 
DOCKED: ATOM     23  C   UNL d   1       7.028  18.373  -9.579 -0.15 -0.01    +0.045 A 
DOCKED: ATOM     24  C   UNL d   1       6.403  20.032  -8.113 -0.19 +0.01    -0.022 A 
DOCKED: ATOM     25  C   UNL d   1       7.450  16.526 -11.167 -0.20 -0.00    +0.049 A 
DOCKED: ATOM     26  C   UNL d   1       7.309  14.798 -12.651 -0.24 -0.00    -0.018 A 
DOCKED: ATOM     27  C   UNL d   1       8.017  15.309 -11.519 -0.27 -0.00    +0.003 A 
DOCKED: ATOM     28  C   UNL d   1       7.836  17.525 -10.232 -0.18 -0.01    +0.052 C 
DOCKED: ATOM     29  C   UNL d   1       6.348  21.115  -7.090 -0.17 -0.01    +0.046 C 
DOCKED: ATOM     30  C   UNL d   1       7.596  13.528 -13.379 -0.25 +0.01    +0.046 C 
DOCKED: ATOM     31  H   UNL d   1       5.026  17.950 -10.154 +0.04 -0.05    +0.166 HD
DOCKED: ATOM     32  H   UNL d   1       5.775  17.536 -12.019 +0.04 -0.03    +0.166 HD
DOCKED: ENDROOT
DOCKED: BRANCH   7  33
DOCKED: ATOM     33  C   UNL d   1       2.750  14.794 -15.489 -0.13 -0.08    +0.141 C 
DOCKED: BRANCH  33  34
DOCKED: ATOM     34  C   UNL d   1       2.808  14.650 -16.986 -0.08 -0.17    +0.306 C 
DOCKED: ATOM     35  O   UNL d   1       3.778  14.305 -17.640 -0.04 +0.06    -0.251 OA
DOCKED: BRANCH  34  36
DOCKED: ATOM     36  O   UNL d   1       1.639  14.947 -17.581 -0.02 +0.50    -0.481 OA
DOCKED: ATOM     37  H   UNL d   1       1.029  15.148 -16.839 -0.49 -0.71    +0.295 HD
DOCKED: ENDBRANCH  34  36
DOCKED: ENDBRANCH  33  34
DOCKED: ENDBRANCH   7  33
DOCKED: BRANCH  27  38
DOCKED: ATOM     38  C   UNL d   1       9.146  14.684 -10.900 -0.30 +0.00    +0.017 C 
DOCKED: ATOM     39  C   UNL d   1      10.261  15.316 -10.502 -0.26 +0.00    +0.092 C 
DOCKED: BRANCH  39  40
DOCKED: ATOM     40  C   UNL d   1      11.341  14.560  -9.863 -0.19 +0.01    +0.330 C 
DOCKED: ATOM     41  O   UNL d   1      11.581  13.373  -9.970 -0.27 -0.02    -0.246 OA
DOCKED: BRANCH  40  42
DOCKED: ATOM     42  O   UNL d   1      12.090  15.376  -9.106 -0.06 -0.00    -0.477 OA
DOCKED: ATOM     43  H   UNL d   1      11.633  16.240  -9.169 +0.07 -0.00    +0.295 HD
DOCKED: ENDBRANCH  40  42
DOCKED: ENDBRANCH  39  40
DOCKED: ENDBRANCH  27  38
DOCKED: BRANCH   8  44
DOCKED: ATOM     44  C   UNL d   1      -0.415  19.932 -10.576 -0.19 -0.04    +0.141 C 
DOCKED: BRANCH  44  45
DOCKED: ATOM     45  C   UNL d   1      -0.327  21.305  -9.966 -0.14 -0.09    +0.306 C 
DOCKED: ATOM     46  O   UNL d   1       0.263  22.268 -10.425 -0.06 +0.07    -0.251 OA
DOCKED: BRANCH  45  47
DOCKED: ATOM     47  O   UNL d   1      -0.968  21.386  -8.785 -0.50 +0.20    -0.481 OA
DOCKED: ATOM     48  H   UNL d   1      -0.965  20.469  -8.439 -0.31 -0.14    +0.295 HD
DOCKED: ENDBRANCH  45  47
DOCKED: ENDBRANCH  44  45
DOCKED: ENDBRANCH   8  44
DOCKED: BRANCH  22  49
DOCKED: ATOM     49  C   UNL d   1       8.919  19.579  -8.204 -0.08 -0.01    +0.048 C 
DOCKED: BRANCH  49  50
DOCKED: ATOM     50  C   UNL d   1       9.461  18.425  -7.362 -0.10 -0.01    +0.125 C 
DOCKED: BRANCH  50  51
DOCKED: ATOM     51  C   UNL d   1      10.770  17.930  -7.909 -0.06 -0.01    +0.305 C 
DOCKED: ATOM     52  O   UNL d   1      11.347  18.311  -8.913 -0.04 +0.01    -0.251 OA
DOCKED: BRANCH  51  53
DOCKED: ATOM     53  O   UNL d   1      11.294  16.947  -7.151 +0.09 +0.01    -0.481 OA
DOCKED: ATOM     54  H   UNL d   1      12.199  16.827  -7.508 +0.05 -0.01    +0.295 HD
DOCKED: ENDBRANCH  51  53
DOCKED: ENDBRANCH  50  51
DOCKED: ENDBRANCH  49  50
DOCKED: ENDBRANCH  22  49
DOCKED: TORSDOF 13
DOCKED: TER
DOCKED: ENDMDL
________________________________________________________________________________


	BEGINNING GENETIC ALGORITHM DOCKING 86 of 100
Run: 86 Seed: 1369942480 938096054 [ Run 86 of 100 GA/GALS ]
Beginning LAMARCKIAN GENETIC ALGORITHM (LGA), with a maximum of 25000000 energy evaluations.

Final-Value: -10.253


	FINAL GENETIC ALGORITHM DOCKED STATE
	_______________________________________________


Detailed state:  trans -13.040 10.680 -0.435 quatxyzw -0.508387 0.324328 -0.771646 -0.202277 center 0.153 0.018 -0.028 ntor 13 78.1618 -179.9901 143.8378 27.7979 -165.7246 98.4191 -59.0362 40.9506 93.0739 -159.9408 -79.6317 -102.1031 -2.4619
State:	-13.040  10.680  -0.435  -0.519  0.331 -0.788 -156.660     78.16 -179.99  143.84   27.80 -165.72   98.42  -59.04   40.95   93.07 -159.94  -79.63 -102.10   -2.46

DOCKED: MODEL       86
DOCKED: USER    Run = 86
DOCKED: USER    DPF = D:/Protein_go_brrr/autodock/final/mut_K82N/heme/dock.dpf
DOCKED: USER  
DOCKED: USER    Estimated Free Energy of Binding    =   -1.99 kcal/mol  [=(1)+(2)+(3)-(4)]
DOCKED: USER    Estimated Inhibition Constant, Ki   =   34.62 mM (millimolar)  [Temperature = 298.15 K]
DOCKED: USER    
DOCKED: USER    (1) Final Intermolecular Energy     =   -5.87 kcal/mol
DOCKED: USER        vdW + Hbond + desolv Energy     =   -5.92 kcal/mol
DOCKED: USER        Electrostatic Energy            =   +0.05 kcal/mol
DOCKED: USER    (2) Final Total Internal Energy     =   -4.38 kcal/mol
DOCKED: USER    (3) Torsional Free Energy           =   +3.88 kcal/mol
DOCKED: USER    (4) Unbound System's Energy  [=(2)] =   -4.38 kcal/mol
DOCKED: USER    
DOCKED: USER    
DOCKED: USER    NEWDPF move heme_opt.pdbqt
DOCKED: USER    NEWDPF about 0.153000 0.018000 -0.028000
DOCKED: USER    NEWDPF tran0 -13.039925 10.679778 -0.435130
DOCKED: USER    NEWDPF quaternion0 -0.508387 0.324328 -0.771646 -0.202277
DOCKED: USER    NEWDPF axisangle0 -0.519118 0.331174 -0.787934 -156.659658
DOCKED: USER    NEWDPF quat0 -0.519118 0.331174 -0.787934 -156.659658
DOCKED: USER    NEWDPF dihe0 78.16 -179.99 143.84 27.80 -165.72 98.42 -59.04 40.95 93.07 -159.94 -79.63 -102.10 -2.46 
DOCKED: USER  keepresnum = 1 
DOCKED: USER  
DOCKED: REMARK  13 active torsions:
DOCKED: REMARK  status: ('A' for Active; 'I' for Inactive)
DOCKED: REMARK    1  A    between atoms: O_3  and  C_38 
DOCKED: REMARK    2  A    between atoms: O_4  and  C_40 
DOCKED: REMARK    3  A    between atoms: O_7  and  C_46 
DOCKED: REMARK    4  A    between atoms: O_9  and  C_48 
DOCKED: REMARK    5  A    between atoms: C_15  and  C_20 
DOCKED: REMARK    6  A    between atoms: C_16  and  C_23 
DOCKED: REMARK    7  A    between atoms: C_20  and  C_38 
DOCKED: REMARK    8  A    between atoms: C_23  and  C_40 
DOCKED: REMARK    9  A    between atoms: C_32  and  C_41 
DOCKED: REMARK   10  A    between atoms: C_37  and  C_45 
DOCKED: REMARK   11  A    between atoms: C_41  and  C_44 
DOCKED: REMARK   12  A    between atoms: C_44  and  C_46 
DOCKED: REMARK   13  A    between atoms: C_47  and  C_48 
DOCKED: USER                              x       y       z     vdW  Elec       q    Type
DOCKED: USER                           _______ _______ _______ _____ _____    ______ ____
DOCKED: ROOT
DOCKED: ATOM      1  O   UNL d   1     -10.225  12.895  -5.117 -0.26 -0.12    -0.289 OA
DOCKED: ATOM      2  O   UNL d   1     -13.335  16.281   0.820 -0.08 -0.04    -0.289 OA
DOCKED: ATOM      3  N   UNL d   1     -11.909  11.168  -2.652 -0.10 -0.05    -0.247 NA
DOCKED: ATOM      4  N   UNL d   1     -12.494  13.264  -0.628 -0.09 -0.04    -0.247 NA
DOCKED: ATOM      5  N   UNL d   1     -13.164  11.163   1.217 +0.07 -0.06    -0.354 N 
DOCKED: ATOM      6  N   UNL d   1     -12.536   8.995  -0.882 -0.06 -0.07    -0.354 N 
DOCKED: ATOM      7  C   UNL d   1     -10.597  10.531  -4.622 -0.27 +0.02    +0.084 A 
DOCKED: ATOM      8  C   UNL d   1     -12.657  15.569  -1.421 -0.21 +0.02    +0.084 A 
DOCKED: ATOM      9  C   UNL d   1     -12.344  14.098  -1.713 -0.25 +0.01    +0.058 A 
DOCKED: ATOM     10  C   UNL d   1     -11.417  10.111  -3.398 -0.23 +0.01    +0.058 A 
DOCKED: ATOM     11  C   UNL d   1     -10.727  12.014  -4.445 -0.24 +0.06    +0.193 A 
DOCKED: ATOM     12  C   UNL d   1     -11.567  12.272  -3.232 -0.23 +0.03    +0.109 A 
DOCKED: ATOM     13  C   UNL d   1     -12.977  15.421   0.039 -0.13 +0.03    +0.193 A 
DOCKED: ATOM     14  C   UNL d   1      -9.122  10.144  -4.485 -0.39 +0.01    +0.026 C 
DOCKED: ATOM     15  C   UNL d   1     -11.911  13.672  -2.910 -0.27 +0.02    +0.055 C 
DOCKED: ATOM     16  C   UNL d   1     -13.916  16.039  -2.156 -0.10 +0.01    +0.026 C 
DOCKED: ATOM     17  C   UNL d   1     -12.834  13.977   0.397 -0.16 +0.01    +0.109 A 
DOCKED: ATOM     18  C   UNL d   1     -11.695   8.817  -3.149 -0.28 +0.02    +0.050 C 
DOCKED: ATOM     19  C   UNL d   1     -12.513   8.341  -2.093 -0.20 +0.01    +0.045 A 
DOCKED: ATOM     20  C   UNL d   1     -13.163  12.236   2.071 -0.10 +0.01    +0.045 A 
DOCKED: ATOM     21  C   UNL d   1     -13.045  13.536   1.783 -0.15 +0.01    +0.057 C 
DOCKED: ATOM     22  C   UNL d   1     -13.410  10.321   3.291 -0.13 -0.00    -0.019 A 
DOCKED: ATOM     23  C   UNL d   1     -13.308   9.964   1.862 -0.13 +0.01    +0.045 A 
DOCKED: ATOM     24  C   UNL d   1     -13.325  11.667   3.408 -0.09 -0.00    -0.022 A 
DOCKED: ATOM     25  C   UNL d   1     -13.321   8.315   0.020 -0.16 +0.01    +0.049 A 
DOCKED: ATOM     26  C   UNL d   1     -13.332   7.228  -1.986 -0.15 -0.01    -0.018 A 
DOCKED: ATOM     27  C   UNL d   1     -13.855   7.227  -0.656 -0.12 +0.00    +0.003 A 
DOCKED: ATOM     28  C   UNL d   1     -13.374   8.712   1.384 -0.19 +0.01    +0.052 C 
DOCKED: ATOM     29  C   UNL d   1     -13.387  12.502   4.642 -0.05 +0.00    +0.046 C 
DOCKED: ATOM     30  C   UNL d   1     -13.616   6.225  -3.053 -0.15 +0.02    +0.046 C 
DOCKED: ATOM     31  H   UNL d   1     -13.141  11.292   0.211 +0.04 +0.03    +0.166 HD
DOCKED: ATOM     32  H   UNL d   1     -12.007   9.838  -0.691 +0.13 +0.04    +0.166 HD
DOCKED: ENDROOT
DOCKED: BRANCH   7  33
DOCKED: ATOM     33  C   UNL d   1     -11.168  10.098  -5.976 -0.12 +0.04    +0.141 C 
DOCKED: BRANCH  33  34
DOCKED: ATOM     34  C   UNL d   1     -11.011  11.155  -7.035 -0.07 +0.08    +0.306 C 
DOCKED: ATOM     35  O   UNL d   1     -11.910  11.797  -7.552 -0.04 -0.07    -0.251 OA
DOCKED: BRANCH  34  36
DOCKED: ATOM     36  O   UNL d   1      -9.728  11.351  -7.387 -0.07 -0.12    -0.481 OA
DOCKED: ATOM     37  H   UNL d   1      -9.479  12.194  -6.952 +0.15 +0.09    +0.295 HD
DOCKED: ENDBRANCH  34  36
DOCKED: ENDBRANCH  33  34
DOCKED: ENDBRANCH   7  33
DOCKED: BRANCH  27  38
DOCKED: ATOM     38  C   UNL d   1     -14.739   6.238  -0.117 -0.08 +0.00    +0.017 C 
DOCKED: ATOM     39  C   UNL d   1     -14.438   5.393   0.881 -0.09 +0.02    +0.092 C 
DOCKED: BRANCH  39  40
DOCKED: ATOM     40  C   UNL d   1     -15.441   4.435   1.354 -0.01 +0.04    +0.330 C 
DOCKED: ATOM     41  O   UNL d   1     -15.569   3.270   1.029 -0.01 -0.02    -0.246 OA
DOCKED: BRANCH  40  42
DOCKED: ATOM     42  O   UNL d   1     -16.250   5.020   2.251 +0.00 -0.07    -0.477 OA
DOCKED: ATOM     43  H   UNL d   1     -15.908   5.935   2.314 +0.03 +0.06    +0.295 HD
DOCKED: ENDBRANCH  40  42
DOCKED: ENDBRANCH  39  40
DOCKED: ENDBRANCH  27  38
DOCKED: BRANCH   8  44
DOCKED: ATOM     44  C   UNL d   1     -11.496  16.546  -1.632 -0.26 +0.04    +0.141 C 
DOCKED: BRANCH  44  45
DOCKED: ATOM     45  C   UNL d   1     -11.945  17.927  -2.031 -0.15 +0.09    +0.306 C 
DOCKED: ATOM     46  O   UNL d   1     -11.906  18.410  -3.149 -0.15 -0.11    -0.251 OA
DOCKED: BRANCH  45  47
DOCKED: ATOM     47  O   UNL d   1     -12.399  18.642  -0.985 -0.05 -0.10    -0.481 OA
DOCKED: ATOM     48  H   UNL d   1     -12.871  17.990  -0.425 +0.06 +0.05    +0.295 HD
DOCKED: ENDBRANCH  45  47
DOCKED: ENDBRANCH  44  45
DOCKED: ENDBRANCH   8  44
DOCKED: BRANCH  22  49
DOCKED: ATOM     49  C   UNL d   1     -13.565   9.321   4.400 -0.14 +0.03    +0.048 C 
DOCKED: BRANCH  49  50
DOCKED: ATOM     50  C   UNL d   1     -15.030   8.952   4.632 -0.08 +0.06    +0.125 C 
DOCKED: BRANCH  50  51
DOCKED: ATOM     51  C   UNL d   1     -15.355   7.626   4.004 -0.06 +0.15    +0.305 C 
DOCKED: ATOM     52  O   UNL d   1     -14.628   6.653   3.906 -0.08 -0.18    -0.251 OA
DOCKED: BRANCH  51  53
DOCKED: ATOM     53  O   UNL d   1     -16.608   7.596   3.509 +0.00 -0.11    -0.481 OA
DOCKED: ATOM     54  H   UNL d   1     -16.858   6.649   3.551 +0.02 +0.06    +0.295 HD
DOCKED: ENDBRANCH  51  53
DOCKED: ENDBRANCH  50  51
DOCKED: ENDBRANCH  49  50
DOCKED: ENDBRANCH  22  49
DOCKED: TORSDOF 13
DOCKED: TER
DOCKED: ENDMDL
________________________________________________________________________________


	BEGINNING GENETIC ALGORITHM DOCKING 87 of 100
Run: 87 Seed: 1602314491 127896061 [ Run 87 of 100 GA/GALS ]
Beginning LAMARCKIAN GENETIC ALGORITHM (LGA), with a maximum of 25000000 energy evaluations.

Final-Value: -10.802


	FINAL GENETIC ALGORITHM DOCKED STATE
	_______________________________________________


Detailed state:  trans -7.876 -14.096 6.806 quatxyzw -0.850072 -0.280752 -0.382896 -0.227918 center 0.153 0.018 -0.028 ntor 13 -138.0056 66.8612 -72.7074 178.3535 10.3209 27.9298 126.5537 -57.3839 -27.1073 125.2148 -55.1934 -62.1918 140.4496
State:	 -7.876 -14.096   6.806  -0.873 -0.288 -0.393 -153.651   -138.01   66.86  -72.71  178.35   10.32   27.93  126.55  -57.38  -27.11  125.21  -55.19  -62.19  140.45

DOCKED: MODEL       87
DOCKED: USER    Run = 87
DOCKED: USER    DPF = D:/Protein_go_brrr/autodock/final/mut_K82N/heme/dock.dpf
DOCKED: USER  
DOCKED: USER    Estimated Free Energy of Binding    =   -5.74 kcal/mol  [=(1)+(2)+(3)-(4)]
DOCKED: USER    Estimated Inhibition Constant, Ki   =   62.30 uM (micromolar)  [Temperature = 298.15 K]
DOCKED: USER    
DOCKED: USER    (1) Final Intermolecular Energy     =   -9.62 kcal/mol
DOCKED: USER        vdW + Hbond + desolv Energy     =   -9.18 kcal/mol
DOCKED: USER        Electrostatic Energy            =   -0.44 kcal/mol
DOCKED: USER    (2) Final Total Internal Energy     =   -1.19 kcal/mol
DOCKED: USER    (3) Torsional Free Energy           =   +3.88 kcal/mol
DOCKED: USER    (4) Unbound System's Energy  [=(2)] =   -1.19 kcal/mol
DOCKED: USER    
DOCKED: USER    
DOCKED: USER    NEWDPF move heme_opt.pdbqt
DOCKED: USER    NEWDPF about 0.153000 0.018000 -0.028000
DOCKED: USER    NEWDPF tran0 -7.875657 -14.096218 6.806392
DOCKED: USER    NEWDPF quaternion0 -0.850072 -0.280752 -0.382896 -0.227918
DOCKED: USER    NEWDPF axisangle0 -0.873050 -0.288341 -0.393246 -153.650970
DOCKED: USER    NEWDPF quat0 -0.873050 -0.288341 -0.393246 -153.650970
DOCKED: USER    NEWDPF dihe0 -138.01 66.86 -72.71 178.35 10.32 27.93 126.55 -57.38 -27.11 125.21 -55.19 -62.19 140.45 
DOCKED: USER  keepresnum = 1 
DOCKED: USER  
DOCKED: REMARK  13 active torsions:
DOCKED: REMARK  status: ('A' for Active; 'I' for Inactive)
DOCKED: REMARK    1  A    between atoms: O_3  and  C_38 
DOCKED: REMARK    2  A    between atoms: O_4  and  C_40 
DOCKED: REMARK    3  A    between atoms: O_7  and  C_46 
DOCKED: REMARK    4  A    between atoms: O_9  and  C_48 
DOCKED: REMARK    5  A    between atoms: C_15  and  C_20 
DOCKED: REMARK    6  A    between atoms: C_16  and  C_23 
DOCKED: REMARK    7  A    between atoms: C_20  and  C_38 
DOCKED: REMARK    8  A    between atoms: C_23  and  C_40 
DOCKED: REMARK    9  A    between atoms: C_32  and  C_41 
DOCKED: REMARK   10  A    between atoms: C_37  and  C_45 
DOCKED: REMARK   11  A    between atoms: C_41  and  C_44 
DOCKED: REMARK   12  A    between atoms: C_44  and  C_46 
DOCKED: REMARK   13  A    between atoms: C_47  and  C_48 
DOCKED: USER                              x       y       z     vdW  Elec       q    Type
DOCKED: USER                           _______ _______ _______ _____ _____    ______ ____
DOCKED: ROOT
DOCKED: ATOM      1  O   UNL d   1      -9.517 -16.652   1.754 -0.09 +0.03    -0.289 OA
DOCKED: ATOM      2  O   UNL d   1     -13.319 -12.273   6.525 -0.02 +0.04    -0.289 OA
DOCKED: ATOM      3  N   UNL d   1      -8.160 -15.480   4.700 +0.05 +0.10    -0.247 NA
DOCKED: ATOM      4  N   UNL d   1     -10.250 -13.636   5.729 -0.15 +0.07    -0.247 NA
DOCKED: ATOM      5  N   UNL d   1      -8.307 -12.618   7.587 -0.07 +0.07    -0.354 N 
DOCKED: ATOM      6  N   UNL d   1      -6.139 -14.522   6.501 -0.09 +0.11    -0.354 N 
DOCKED: ATOM      7  C   UNL d   1      -7.299 -16.735   2.779 -0.25 -0.02    +0.084 A 
DOCKED: ATOM      8  C   UNL d   1     -12.555 -14.061   5.038 -0.09 -0.01    +0.084 A 
DOCKED: ATOM      9  C   UNL d   1     -11.065 -14.402   4.926 -0.17 -0.01    +0.058 A 
DOCKED: ATOM     10  C   UNL d   1      -7.045 -16.081   4.140 -0.25 -0.02    +0.058 A 
DOCKED: ATOM     11  C   UNL d   1      -8.760 -16.413   2.677 -0.13 -0.03    +0.193 A 
DOCKED: ATOM     12  C   UNL d   1      -9.168 -15.675   3.914 -0.17 -0.03    +0.109 A 
DOCKED: ATOM     13  C   UNL d   1     -12.431 -12.935   6.024 -0.06 -0.03    +0.193 A 
DOCKED: ATOM     14  C   UNL d   1      -6.555 -16.018   1.649 -0.49 -0.00    +0.026 C 
DOCKED: ATOM     15  C   UNL d   1     -10.595 -15.332   4.080 -0.17 -0.01    +0.055 C 
DOCKED: ATOM     16  C   UNL d   1     -13.351 -15.198   5.686 -0.03 -0.00    +0.026 C 
DOCKED: ATOM     17  C   UNL d   1     -10.983 -12.773   6.357 -0.14 -0.02    +0.109 A 
DOCKED: ATOM     18  C   UNL d   1      -5.851 -16.178   4.755 -0.33 -0.02    +0.050 C 
DOCKED: ATOM     19  C   UNL d   1      -5.549 -15.680   6.048 -0.23 -0.01    +0.045 A 
DOCKED: ATOM     20  C   UNL d   1      -9.309 -11.702   7.770 -0.07 -0.01    +0.045 A 
DOCKED: ATOM     21  C   UNL d   1     -10.551 -11.708   7.274 -0.11 -0.01    +0.057 C 
DOCKED: ATOM     22  C   UNL d   1      -7.466 -11.022   8.935 -0.20 +0.00    -0.019 A 
DOCKED: ATOM     23  C   UNL d   1      -7.155 -12.293   8.252 -0.20 -0.01    +0.045 A 
DOCKED: ATOM     24  C   UNL d   1      -8.744 -10.678   8.647 -0.14 +0.00    -0.022 A 
DOCKED: ATOM     25  C   UNL d   1      -5.637 -14.175   7.734 -0.19 -0.01    +0.049 A 
DOCKED: ATOM     26  C   UNL d   1      -4.670 -16.117   7.026 -0.18 +0.00    -0.018 A 
DOCKED: ATOM     27  C   UNL d   1      -4.744 -15.173   8.097 -0.15 -0.00    +0.003 A 
DOCKED: ATOM     28  C   UNL d   1      -5.979 -12.933   8.337 -0.26 -0.01    +0.052 C 
DOCKED: ATOM     29  C   UNL d   1      -9.517  -9.489   9.109 -0.10 -0.01    +0.046 C 
DOCKED: ATOM     30  C   UNL d   1      -3.813 -17.336   6.973 -0.09 +0.02    +0.046 C 
DOCKED: ATOM     31  H   UNL d   1      -8.467 -13.478   7.073 -0.12 -0.05    +0.166 HD
DOCKED: ATOM     32  H   UNL d   1      -6.816 -13.991   5.966 -0.28 -0.11    +0.166 HD
DOCKED: ENDROOT
DOCKED: BRANCH   7  33
DOCKED: ATOM     33  C   UNL d   1      -7.077 -18.250   2.726 -0.13 -0.04    +0.141 C 
DOCKED: BRANCH  33  34
DOCKED: ATOM     34  C   UNL d   1      -7.132 -18.891   4.086 -0.03 -0.11    +0.306 C 
DOCKED: ATOM     35  O   UNL d   1      -8.105 -18.945   4.819 -0.01 +0.05    -0.251 OA
DOCKED: BRANCH  34  36
DOCKED: ATOM     36  O   UNL d   1      -5.956 -19.434   4.451 -0.02 +0.32    -0.481 OA
DOCKED: ATOM     37  H   UNL d   1      -5.282 -18.796   4.135 -0.50 -0.49    +0.295 HD
DOCKED: ENDBRANCH  34  36
DOCKED: ENDBRANCH  33  34
DOCKED: ENDBRANCH   7  33
DOCKED: BRANCH  27  38
DOCKED: ATOM     38  C   UNL d   1      -3.982 -15.237   9.308 -0.18 +0.00    +0.017 C 
DOCKED: ATOM     39  C   UNL d   1      -3.662 -14.186  10.078 -0.25 +0.01    +0.092 C 
DOCKED: BRANCH  39  40
DOCKED: ATOM     40  C   UNL d   1      -2.890 -14.389  11.306 -0.20 +0.03    +0.330 C 
DOCKED: ATOM     41  O   UNL d   1      -2.116 -15.294  11.557 -0.24 -0.02    -0.246 OA
DOCKED: BRANCH  40  42
DOCKED: ATOM     42  O   UNL d   1      -3.138 -13.399  12.177 -0.36 -0.08    -0.477 OA
DOCKED: ATOM     43  H   UNL d   1      -2.286 -12.919  12.237 +0.04 -0.01    +0.295 HD
DOCKED: ENDBRANCH  40  42
DOCKED: ENDBRANCH  39  40
DOCKED: ENDBRANCH  27  38
DOCKED: BRANCH   8  44
DOCKED: ATOM     44  C   UNL d   1     -13.223 -13.586   3.743 -0.08 -0.01    +0.141 C 
DOCKED: BRANCH  44  45
DOCKED: ATOM     45  C   UNL d   1     -13.494 -14.702   2.770 -0.05 -0.01    +0.306 C 
DOCKED: ATOM     46  O   UNL d   1     -14.447 -15.462   2.783 -0.02 +0.02    -0.251 OA
DOCKED: BRANCH  45  47
DOCKED: ATOM     47  O   UNL d   1     -12.529 -14.820   1.840 -0.38 -0.01    -0.481 OA
DOCKED: ATOM     48  H   UNL d   1     -12.035 -15.628   2.097 +0.04 -0.02    +0.295 HD
DOCKED: ENDBRANCH  45  47
DOCKED: ENDBRANCH  44  45
DOCKED: ENDBRANCH   8  44
DOCKED: BRANCH  22  49
DOCKED: ATOM     49  C   UNL d   1      -6.492 -10.261   9.786 -0.24 -0.01    +0.048 C 
DOCKED: BRANCH  49  50
DOCKED: ATOM     50  C   UNL d   1      -5.220  -9.908   9.016 -0.38 -0.03    +0.125 C 
DOCKED: BRANCH  50  51
DOCKED: ATOM     51  C   UNL d   1      -4.948  -8.431   9.076 -0.34 -0.04    +0.305 C 
DOCKED: ATOM     52  O   UNL d   1      -5.634  -7.531   8.626 -0.37 +0.04    -0.251 OA
DOCKED: BRANCH  51  53
DOCKED: ATOM     53  O   UNL d   1      -3.790  -8.157   9.708 -0.24 +0.07    -0.481 OA
DOCKED: ATOM     54  H   UNL d   1      -3.457  -9.036   9.988 -0.29 -0.10    +0.295 HD
DOCKED: ENDBRANCH  51  53
DOCKED: ENDBRANCH  50  51
DOCKED: ENDBRANCH  49  50
DOCKED: ENDBRANCH  22  49
DOCKED: TORSDOF 13
DOCKED: TER
DOCKED: ENDMDL
________________________________________________________________________________


	BEGINNING GENETIC ALGORITHM DOCKING 88 of 100
Run: 88 Seed: 1241013883 952038727 [ Run 88 of 100 GA/GALS ]
Beginning LAMARCKIAN GENETIC ALGORITHM (LGA), with a maximum of 25000000 energy evaluations.

Final-Value: -12.556


	FINAL GENETIC ALGORITHM DOCKED STATE
	_______________________________________________


Detailed state:  trans 11.933 4.300 12.677 quatxyzw 0.192280 -0.697742 -0.048273 -0.688371 center 0.153 0.018 -0.028 ntor 13 -178.3495 103.4555 -123.7473 148.1933 48.8283 43.8300 120.8239 16.0433 155.6626 -36.9398 14.4289 -64.8857 35.6534
State:	 11.933   4.300  12.677   0.265 -0.962 -0.067 -92.997   -178.35  103.46 -123.75  148.19   48.83   43.83  120.82   16.04  155.66  -36.94   14.43  -64.89   35.65

DOCKED: MODEL       88
DOCKED: USER    Run = 88
DOCKED: USER    DPF = D:/Protein_go_brrr/autodock/final/mut_K82N/heme/dock.dpf
DOCKED: USER  
DOCKED: USER    Estimated Free Energy of Binding    =   -5.00 kcal/mol  [=(1)+(2)+(3)-(4)]
DOCKED: USER    Estimated Inhibition Constant, Ki   =  215.31 uM (micromolar)  [Temperature = 298.15 K]
DOCKED: USER    
DOCKED: USER    (1) Final Intermolecular Energy     =   -8.88 kcal/mol
DOCKED: USER        vdW + Hbond + desolv Energy     =   -8.46 kcal/mol
DOCKED: USER        Electrostatic Energy            =   -0.42 kcal/mol
DOCKED: USER    (2) Final Total Internal Energy     =   -3.68 kcal/mol
DOCKED: USER    (3) Torsional Free Energy           =   +3.88 kcal/mol
DOCKED: USER    (4) Unbound System's Energy  [=(2)] =   -3.68 kcal/mol
DOCKED: USER    
DOCKED: USER    
DOCKED: USER    NEWDPF move heme_opt.pdbqt
DOCKED: USER    NEWDPF about 0.153000 0.018000 -0.028000
DOCKED: USER    NEWDPF tran0 11.932938 4.300189 12.677344
DOCKED: USER    NEWDPF quaternion0 0.192280 -0.697742 -0.048273 -0.688371
DOCKED: USER    NEWDPF axisangle0 0.265083 -0.961926 -0.066550 -92.997471
DOCKED: USER    NEWDPF quat0 0.265083 -0.961926 -0.066550 -92.997471
DOCKED: USER    NEWDPF dihe0 -178.35 103.46 -123.75 148.19 48.83 43.83 120.82 16.04 155.66 -36.94 14.43 -64.89 35.65 
DOCKED: USER  keepresnum = 1 
DOCKED: USER  
DOCKED: REMARK  13 active torsions:
DOCKED: REMARK  status: ('A' for Active; 'I' for Inactive)
DOCKED: REMARK    1  A    between atoms: O_3  and  C_38 
DOCKED: REMARK    2  A    between atoms: O_4  and  C_40 
DOCKED: REMARK    3  A    between atoms: O_7  and  C_46 
DOCKED: REMARK    4  A    between atoms: O_9  and  C_48 
DOCKED: REMARK    5  A    between atoms: C_15  and  C_20 
DOCKED: REMARK    6  A    between atoms: C_16  and  C_23 
DOCKED: REMARK    7  A    between atoms: C_20  and  C_38 
DOCKED: REMARK    8  A    between atoms: C_23  and  C_40 
DOCKED: REMARK    9  A    between atoms: C_32  and  C_41 
DOCKED: REMARK   10  A    between atoms: C_37  and  C_45 
DOCKED: REMARK   11  A    between atoms: C_41  and  C_44 
DOCKED: REMARK   12  A    between atoms: C_44  and  C_46 
DOCKED: REMARK   13  A    between atoms: C_47  and  C_48 
DOCKED: USER                              x       y       z     vdW  Elec       q    Type
DOCKED: USER                           _______ _______ _______ _____ _____    ______ ____
DOCKED: ROOT
DOCKED: ATOM      1  O   UNL d   1      10.836   7.607   7.922 -0.12 -0.05    -0.289 OA
DOCKED: ATOM      2  O   UNL d   1      14.400   1.036   8.640 -0.62 -0.03    -0.289 OA
DOCKED: ATOM      3  N   UNL d   1      11.362   6.091  10.975 -0.10 +0.00    -0.247 NA
DOCKED: ATOM      4  N   UNL d   1      12.542   3.465  10.239 -0.08 +0.01    -0.247 NA
DOCKED: ATOM      5  N   UNL d   1      12.065   2.599  12.939 -0.05 +0.03    -0.354 N 
DOCKED: ATOM      6  N   UNL d   1      10.824   5.320  13.688 -0.12 +0.04    -0.354 N 
DOCKED: ATOM      7  C   UNL d   1      10.129   8.069  10.215 -0.22 +0.01    +0.084 A 
DOCKED: ATOM      8  C   UNL d   1      13.739   3.333   8.113 -0.08 -0.00    +0.084 A 
DOCKED: ATOM      9  C   UNL d   1      12.874   4.141   9.087 -0.12 -0.00    +0.058 A 
DOCKED: ATOM     10  C   UNL d   1      10.558   7.150  11.363 -0.23 +0.00    +0.058 A 
DOCKED: ATOM     11  C   UNL d   1      10.847   7.352   9.112 -0.13 +0.02    +0.193 A 
DOCKED: ATOM     12  C   UNL d   1      11.578   6.186   9.703 -0.15 +0.00    +0.109 A 
DOCKED: ATOM     13  C   UNL d   1      13.804   2.061   8.910 -0.09 -0.00    +0.193 A 
DOCKED: ATOM     14  C   UNL d   1       8.622   7.997   9.955 -0.04 +0.00    +0.026 C 
DOCKED: ATOM     15  C   UNL d   1      12.437   5.380   8.813 -0.14 +0.00    +0.055 C 
DOCKED: ATOM     16  C   UNL d   1      15.152   3.913   7.994 -0.03 -0.00    +0.026 C 
DOCKED: ATOM     17  C   UNL d   1      13.033   2.269  10.172 -0.15 -0.01    +0.109 A 
DOCKED: ATOM     18  C   UNL d   1      10.241   7.427  12.642 -0.26 +0.00    +0.050 C 
DOCKED: ATOM     19  C   UNL d   1      10.664   6.684  13.774 -0.22 -0.00    +0.045 A 
DOCKED: ATOM     20  C   UNL d   1      12.417   1.404  12.367 -0.23 -0.01    +0.045 A 
DOCKED: ATOM     21  C   UNL d   1      12.886   1.170  11.137 -0.19 -0.01    +0.057 C 
DOCKED: ATOM     22  C   UNL d   1      11.706   1.019  14.504 -0.33 +0.01    -0.019 A 
DOCKED: ATOM     23  C   UNL d   1      11.622   2.467  14.228 -0.25 -0.01    +0.045 A 
DOCKED: ATOM     24  C   UNL d   1      12.178   0.395  13.399 -0.34 +0.01    -0.022 A 
DOCKED: ATOM     25  C   UNL d   1      11.148   4.794  14.917 -0.20 -0.01    +0.049 A 
DOCKED: ATOM     26  C   UNL d   1      10.926   7.059  15.082 -0.14 +0.00    -0.018 A 
DOCKED: ATOM     27  C   UNL d   1      11.251   5.864  15.795 -0.14 -0.00    +0.003 A 
DOCKED: ATOM     28  C   UNL d   1      11.212   3.388  15.115 -0.29 -0.01    +0.052 C 
DOCKED: ATOM     29  C   UNL d   1      12.447  -1.056  13.190 -0.43 -0.02    +0.046 C 
DOCKED: ATOM     30  C   UNL d   1      10.881   8.442  15.638 -0.10 -0.00    +0.046 C 
DOCKED: ATOM     31  H   UNL d   1      12.209   3.478  12.453 +0.06 -0.01    +0.166 HD
DOCKED: ATOM     32  H   UNL d   1      10.678   4.791  12.837 +0.07 -0.01    +0.166 HD
DOCKED: ENDROOT
DOCKED: BRANCH   7  33
DOCKED: ATOM     33  C   UNL d   1      10.613   9.519  10.318 -0.13 +0.02    +0.141 C 
DOCKED: BRANCH  33  34
DOCKED: ATOM     34  C   UNL d   1       9.752  10.474   9.536 -0.07 +0.16    +0.306 C 
DOCKED: ATOM     35  O   UNL d   1       8.914  11.230   9.996 -0.57 -0.18    -0.251 OA
DOCKED: BRANCH  34  36
DOCKED: ATOM     36  O   UNL d   1       9.996  10.427   8.214 -0.19 -0.41    -0.481 OA
DOCKED: ATOM     37  H   UNL d   1      10.711   9.763   8.118 +0.07 +0.12    +0.295 HD
DOCKED: ENDBRANCH  34  36
DOCKED: ENDBRANCH  33  34
DOCKED: ENDBRANCH   7  33
DOCKED: BRANCH  27  38
DOCKED: ATOM     38  C   UNL d   1      11.574   5.796  17.188 -0.11 +0.00    +0.017 C 
DOCKED: ATOM     39  C   UNL d   1      11.363   4.735  17.982 -0.17 +0.01    +0.092 C 
DOCKED: BRANCH  39  40
DOCKED: ATOM     40  C   UNL d   1      11.757   4.788  19.392 -0.11 +0.06    +0.330 C 
DOCKED: ATOM     41  O   UNL d   1      11.620   5.714  20.168 -0.08 -0.06    -0.246 OA
DOCKED: BRANCH  40  42
DOCKED: ATOM     42  O   UNL d   1      12.315   3.624  19.760 -0.10 -0.11    -0.477 OA
DOCKED: ATOM     43  H   UNL d   1      11.551   3.021  19.866 +0.07 +0.09    +0.295 HD
DOCKED: ENDBRANCH  40  42
DOCKED: ENDBRANCH  39  40
DOCKED: ENDBRANCH  27  38
DOCKED: BRANCH   8  44
DOCKED: ATOM     44  C   UNL d   1      13.123   3.085   6.732 -0.09 -0.00    +0.141 C 
DOCKED: BRANCH  44  45
DOCKED: ATOM     45  C   UNL d   1      12.247   1.861   6.684 -0.16 +0.00    +0.306 C 
DOCKED: ATOM     46  O   UNL d   1      11.113   1.761   7.119 -0.34 +0.01    -0.251 OA
DOCKED: BRANCH  45  47
DOCKED: ATOM     47  O   UNL d   1      12.862   0.812   6.109 -0.07 -0.05    -0.481 OA
DOCKED: ATOM     48  H   UNL d   1      13.688   0.696   6.624 +0.08 +0.04    +0.295 HD
DOCKED: ENDBRANCH  45  47
DOCKED: ENDBRANCH  44  45
DOCKED: ENDBRANCH   8  44
DOCKED: BRANCH  22  49
DOCKED: ATOM     49  C   UNL d   1      11.306   0.384  15.803 -0.13 -0.02    +0.048 C 
DOCKED: BRANCH  49  50
DOCKED: ATOM     50  C   UNL d   1      11.896   1.124  17.003 -0.28 -0.02    +0.125 C 
DOCKED: BRANCH  50  51
DOCKED: ATOM     51  C   UNL d   1      11.804   0.287  18.247 -0.21 -0.02    +0.305 C 
DOCKED: ATOM     52  O   UNL d   1      11.491  -0.888  18.332 -0.39 +0.03    -0.251 OA
DOCKED: BRANCH  51  53
DOCKED: ATOM     53  O   UNL d   1      12.109   0.994  19.354 -0.12 -0.06    -0.481 OA
DOCKED: ATOM     54  H   UNL d   1      12.776   1.642  19.047 +0.09 +0.03    +0.295 HD
DOCKED: ENDBRANCH  51  53
DOCKED: ENDBRANCH  50  51
DOCKED: ENDBRANCH  49  50
DOCKED: ENDBRANCH  22  49
DOCKED: TORSDOF 13
DOCKED: TER
DOCKED: ENDMDL
________________________________________________________________________________


	BEGINNING GENETIC ALGORITHM DOCKING 89 of 100
Run: 89 Seed: 1978546057 740810139 [ Run 89 of 100 GA/GALS ]
Beginning LAMARCKIAN GENETIC ALGORITHM (LGA), with a maximum of 25000000 energy evaluations.

Final-Value: -11.354


	FINAL GENETIC ALGORITHM DOCKED STATE
	_______________________________________________


Detailed state:  trans 10.573 -9.324 -0.710 quatxyzw 0.210615 -0.515008 -0.441779 -0.703732 center 0.153 0.018 -0.028 ntor 13 166.4709 -57.7944 -175.0409 -9.4031 -155.4268 174.1989 -57.7738 97.5596 61.8042 -136.9689 176.6538 174.3831 -179.9904
State:	 10.573  -9.324  -0.710   0.296 -0.725 -0.622 -90.546    166.47  -57.79 -175.04   -9.40 -155.43  174.20  -57.77   97.56   61.80 -136.97  176.65  174.38 -179.99

DOCKED: MODEL       89
DOCKED: USER    Run = 89
DOCKED: USER    DPF = D:/Protein_go_brrr/autodock/final/mut_K82N/heme/dock.dpf
DOCKED: USER  
DOCKED: USER    Estimated Free Energy of Binding    =   -5.44 kcal/mol  [=(1)+(2)+(3)-(4)]
DOCKED: USER    Estimated Inhibition Constant, Ki   =  103.41 uM (micromolar)  [Temperature = 298.15 K]
DOCKED: USER    
DOCKED: USER    (1) Final Intermolecular Energy     =   -9.32 kcal/mol
DOCKED: USER        vdW + Hbond + desolv Energy     =   -8.77 kcal/mol
DOCKED: USER        Electrostatic Energy            =   -0.55 kcal/mol
DOCKED: USER    (2) Final Total Internal Energy     =   -2.04 kcal/mol
DOCKED: USER    (3) Torsional Free Energy           =   +3.88 kcal/mol
DOCKED: USER    (4) Unbound System's Energy  [=(2)] =   -2.04 kcal/mol
DOCKED: USER    
DOCKED: USER    
DOCKED: USER    NEWDPF move heme_opt.pdbqt
DOCKED: USER    NEWDPF about 0.153000 0.018000 -0.028000
DOCKED: USER    NEWDPF tran0 10.572942 -9.323781 -0.710454
DOCKED: USER    NEWDPF quaternion0 0.210615 -0.515008 -0.441779 -0.703732
DOCKED: USER    NEWDPF axisangle0 0.296447 -0.724889 -0.621817 -90.545619
DOCKED: USER    NEWDPF quat0 0.296447 -0.724889 -0.621817 -90.545619
DOCKED: USER    NEWDPF dihe0 166.47 -57.79 -175.04 -9.40 -155.43 174.20 -57.77 97.56 61.80 -136.97 176.65 174.38 -179.99 
DOCKED: USER  keepresnum = 1 
DOCKED: USER  
DOCKED: REMARK  13 active torsions:
DOCKED: REMARK  status: ('A' for Active; 'I' for Inactive)
DOCKED: REMARK    1  A    between atoms: O_3  and  C_38 
DOCKED: REMARK    2  A    between atoms: O_4  and  C_40 
DOCKED: REMARK    3  A    between atoms: O_7  and  C_46 
DOCKED: REMARK    4  A    between atoms: O_9  and  C_48 
DOCKED: REMARK    5  A    between atoms: C_15  and  C_20 
DOCKED: REMARK    6  A    between atoms: C_16  and  C_23 
DOCKED: REMARK    7  A    between atoms: C_20  and  C_38 
DOCKED: REMARK    8  A    between atoms: C_23  and  C_40 
DOCKED: REMARK    9  A    between atoms: C_32  and  C_41 
DOCKED: REMARK   10  A    between atoms: C_37  and  C_45 
DOCKED: REMARK   11  A    between atoms: C_41  and  C_44 
DOCKED: REMARK   12  A    between atoms: C_44  and  C_46 
DOCKED: REMARK   13  A    between atoms: C_47  and  C_48 
DOCKED: USER                              x       y       z     vdW  Elec       q    Type
DOCKED: USER                           _______ _______ _______ _____ _____    ______ ____
DOCKED: ROOT
DOCKED: ATOM      1  O   UNL d   1      10.222  -3.635  -2.217 -0.15 -0.09    -0.289 OA
DOCKED: ATOM      2  O   UNL d   1       9.839  -9.870  -6.385 -0.28 -0.01    -0.289 OA
DOCKED: ATOM      3  N   UNL d   1      10.622  -6.795  -0.893 -0.02 -0.00    -0.247 NA
DOCKED: ATOM      4  N   UNL d   1      10.012  -8.580  -3.189 -0.09 -0.01    -0.247 NA
DOCKED: ATOM      5  N   UNL d   1       9.851 -10.765  -1.328 -0.03 -0.03    -0.354 N 
DOCKED: ATOM      6  N   UNL d   1      10.465  -8.903   1.051 -0.16 -0.01    -0.354 N 
DOCKED: ATOM      7  C   UNL d   1      10.470  -4.534   0.042 -0.32 -0.01    +0.084 A 
DOCKED: ATOM      8  C   UNL d   1      10.378  -7.681  -5.432 -0.11 -0.00    +0.084 A 
DOCKED: ATOM      9  C   UNL d   1      10.347  -7.459  -3.916 -0.13 +0.00    +0.058 A 
DOCKED: ATOM     10  C   UNL d   1      10.625  -6.041   0.268 -0.28 -0.01    +0.058 A 
DOCKED: ATOM     11  C   UNL d   1      10.397  -4.568  -1.455 -0.20 +0.01    +0.193 A 
DOCKED: ATOM     12  C   UNL d   1      10.527  -5.991  -1.902 -0.08 +0.01    +0.109 A 
DOCKED: ATOM     13  C   UNL d   1       9.963  -9.125  -5.433 -0.07 +0.01    +0.193 A 
DOCKED: ATOM     14  C   UNL d   1       9.143  -4.004   0.591 +0.02 -0.01    +0.026 C 
DOCKED: ATOM     15  C   UNL d   1      10.575  -6.263  -3.353 -0.17 +0.00    +0.055 C 
DOCKED: ATOM     16  C   UNL d   1      11.800  -7.577  -5.992 -0.04 -0.00    +0.026 C 
DOCKED: ATOM     17  C   UNL d   1       9.765  -9.547  -4.013 -0.10 +0.01    +0.109 A 
DOCKED: ATOM     18  C   UNL d   1      10.836  -6.549   1.497 -0.28 -0.00    +0.050 C 
DOCKED: ATOM     19  C   UNL d   1      11.074  -7.916   1.792 -0.29 +0.00    +0.045 A 
DOCKED: ATOM     20  C   UNL d   1       9.364 -11.378  -2.453 -0.10 +0.00    +0.045 A 
DOCKED: ATOM     21  C   UNL d   1       9.311 -10.911  -3.705 -0.12 +0.01    +0.057 C 
DOCKED: ATOM     22  C   UNL d   1       9.123 -12.795  -0.678 -0.12 -0.00    -0.019 A 
DOCKED: ATOM     23  C   UNL d   1       9.748 -11.543  -0.206 -0.16 +0.00    +0.045 A 
DOCKED: ATOM     24  C   UNL d   1       8.899 -12.691  -2.009 -0.09 -0.00    -0.022 A 
DOCKED: ATOM     25  C   UNL d   1      10.761 -10.144   1.563 -0.22 +0.01    +0.049 A 
DOCKED: ATOM     26  C   UNL d   1      11.814  -8.533   2.788 -0.28 -0.00    -0.018 A 
DOCKED: ATOM     27  C   UNL d   1      11.629  -9.941   2.627 -0.23 +0.00    +0.003 A 
DOCKED: ATOM     28  C   UNL d   1      10.122 -11.311   1.062 -0.22 +0.01    +0.052 C 
DOCKED: ATOM     29  C   UNL d   1       8.301 -13.695  -2.936 -0.10 +0.01    +0.046 C 
DOCKED: ATOM     30  C   UNL d   1      12.646  -7.859   3.827 -0.25 +0.00    +0.046 C 
DOCKED: ATOM     31  H   UNL d   1      10.307  -9.860  -1.377 +0.04 +0.01    +0.166 HD
DOCKED: ATOM     32  H   UNL d   1       9.853  -8.716   0.265 +0.06 +0.00    +0.166 HD
DOCKED: ENDROOT
DOCKED: BRANCH   7  33
DOCKED: ATOM     33  C   UNL d   1      11.652  -3.675   0.504 -0.22 -0.02    +0.141 C 
DOCKED: BRANCH  33  34
DOCKED: ATOM     34  C   UNL d   1      12.427  -3.091  -0.646 -0.16 +0.06    +0.306 C 
DOCKED: ATOM     35  O   UNL d   1      13.488  -3.504  -1.084 -0.08 -0.06    -0.251 OA
DOCKED: BRANCH  34  36
DOCKED: ATOM     36  O   UNL d   1      11.824  -2.017  -1.185 -0.44 -0.33    -0.481 OA
DOCKED: ATOM     37  H   UNL d   1      10.904  -2.056  -0.848 -0.37 +0.02    +0.295 HD
DOCKED: ENDBRANCH  34  36
DOCKED: ENDBRANCH  33  34
DOCKED: ENDBRANCH   7  33
DOCKED: BRANCH  27  38
DOCKED: ATOM     38  C   UNL d   1      12.208 -10.950   3.461 -0.20 +0.00    +0.017 C 
DOCKED: ATOM     39  C   UNL d   1      12.486 -10.811   4.766 -0.19 +0.02    +0.092 C 
DOCKED: BRANCH  39  40
DOCKED: ATOM     40  C   UNL d   1      13.064 -11.932   5.513 -0.05 +0.10    +0.330 C 
DOCKED: ATOM     41  O   UNL d   1      13.489 -11.925   6.652 -0.09 -0.05    -0.246 OA
DOCKED: BRANCH  40  42
DOCKED: ATOM     42  O   UNL d   1      13.064 -13.040   4.756 -0.04 -0.18    -0.477 OA
DOCKED: ATOM     43  H   UNL d   1      14.007 -13.301   4.723 +0.03 +0.06    +0.295 HD
DOCKED: ENDBRANCH  40  42
DOCKED: ENDBRANCH  39  40
DOCKED: ENDBRANCH  27  38
DOCKED: BRANCH   8  44
DOCKED: ATOM     44  C   UNL d   1       9.399  -6.828  -6.245 -0.14 -0.03    +0.141 C 
DOCKED: BRANCH  44  45
DOCKED: ATOM     45  C   UNL d   1       9.581  -6.969  -7.732 -0.07 -0.07    +0.306 C 
DOCKED: ATOM     46  O   UNL d   1      10.143  -6.182  -8.474 -0.04 +0.05    -0.251 OA
DOCKED: BRANCH  45  47
DOCKED: ATOM     47  O   UNL d   1       9.016  -8.091  -8.215 -0.04 +0.12    -0.481 OA
DOCKED: ATOM     48  H   UNL d   1       8.566  -8.494  -7.443 -0.38 -0.11    +0.295 HD
DOCKED: ENDBRANCH  45  47
DOCKED: ENDBRANCH  44  45
DOCKED: ENDBRANCH   8  44
DOCKED: BRANCH  22  49
DOCKED: ATOM     49  C   UNL d   1       8.792 -13.958   0.210 -0.25 +0.01    +0.048 C 
DOCKED: BRANCH  49  50
DOCKED: ATOM     50  C   UNL d   1       7.331 -13.933   0.660 -0.37 +0.05    +0.125 C 
DOCKED: BRANCH  50  51
DOCKED: ATOM     51  C   UNL d   1       6.631 -12.710   0.139 -0.32 +0.08    +0.305 C 
DOCKED: ATOM     52  O   UNL d   1       6.011 -12.596  -0.904 -0.36 -0.06    -0.251 OA
DOCKED: BRANCH  51  53
DOCKED: ATOM     53  O   UNL d   1       6.759 -11.661   0.976 -0.17 -0.07    -0.481 OA
DOCKED: ATOM     54  H   UNL d   1       6.410 -10.903   0.462 -0.26 -0.04    +0.295 HD
DOCKED: ENDBRANCH  51  53
DOCKED: ENDBRANCH  50  51
DOCKED: ENDBRANCH  49  50
DOCKED: ENDBRANCH  22  49
DOCKED: TORSDOF 13
DOCKED: TER
DOCKED: ENDMDL
________________________________________________________________________________


	BEGINNING GENETIC ALGORITHM DOCKING 90 of 100
Run: 90 Seed: 161669479 2147030835 [ Run 90 of 100 GA/GALS ]
Beginning LAMARCKIAN GENETIC ALGORITHM (LGA), with a maximum of 25000000 energy evaluations.

Final-Value: -11.722


	FINAL GENETIC ALGORITHM DOCKED STATE
	_______________________________________________


Detailed state:  trans 10.451 17.061 -8.656 quatxyzw 0.334635 0.023457 -0.134476 -0.932408 center 0.153 0.018 -0.028 ntor 13 168.6972 -144.9831 142.6276 -19.9793 -146.9469 42.2757 -52.5534 23.1547 11.1993 -93.9093 60.7708 -94.9817 109.9571
State:	 10.451  17.061  -8.656   0.926  0.065 -0.372 -42.373    168.70 -144.98  142.63  -19.98 -146.95   42.28  -52.55   23.15   11.20  -93.91   60.77  -94.98  109.96

DOCKED: MODEL       90
DOCKED: USER    Run = 90
DOCKED: USER    DPF = D:/Protein_go_brrr/autodock/final/mut_K82N/heme/dock.dpf
DOCKED: USER  
DOCKED: USER    Estimated Free Energy of Binding    =   -4.00 kcal/mol  [=(1)+(2)+(3)-(4)]
DOCKED: USER    Estimated Inhibition Constant, Ki   =    1.18 mM (millimolar)  [Temperature = 298.15 K]
DOCKED: USER    
DOCKED: USER    (1) Final Intermolecular Energy     =   -7.87 kcal/mol
DOCKED: USER        vdW + Hbond + desolv Energy     =   -7.72 kcal/mol
DOCKED: USER        Electrostatic Energy            =   -0.15 kcal/mol
DOCKED: USER    (2) Final Total Internal Energy     =   -3.85 kcal/mol
DOCKED: USER    (3) Torsional Free Energy           =   +3.88 kcal/mol
DOCKED: USER    (4) Unbound System's Energy  [=(2)] =   -3.85 kcal/mol
DOCKED: USER    
DOCKED: USER    
DOCKED: USER    NEWDPF move heme_opt.pdbqt
DOCKED: USER    NEWDPF about 0.153000 0.018000 -0.028000
DOCKED: USER    NEWDPF tran0 10.451129 17.061450 -8.656104
DOCKED: USER    NEWDPF quaternion0 0.334635 0.023457 -0.134476 -0.932408
DOCKED: USER    NEWDPF axisangle0 0.925924 0.064904 -0.372091 -42.373244
DOCKED: USER    NEWDPF quat0 0.925924 0.064904 -0.372091 -42.373244
DOCKED: USER    NEWDPF dihe0 168.70 -144.98 142.63 -19.98 -146.95 42.28 -52.55 23.15 11.20 -93.91 60.77 -94.98 109.96 
DOCKED: USER  keepresnum = 1 
DOCKED: USER  
DOCKED: REMARK  13 active torsions:
DOCKED: REMARK  status: ('A' for Active; 'I' for Inactive)
DOCKED: REMARK    1  A    between atoms: O_3  and  C_38 
DOCKED: REMARK    2  A    between atoms: O_4  and  C_40 
DOCKED: REMARK    3  A    between atoms: O_7  and  C_46 
DOCKED: REMARK    4  A    between atoms: O_9  and  C_48 
DOCKED: REMARK    5  A    between atoms: C_15  and  C_20 
DOCKED: REMARK    6  A    between atoms: C_16  and  C_23 
DOCKED: REMARK    7  A    between atoms: C_20  and  C_38 
DOCKED: REMARK    8  A    between atoms: C_23  and  C_40 
DOCKED: REMARK    9  A    between atoms: C_32  and  C_41 
DOCKED: REMARK   10  A    between atoms: C_37  and  C_45 
DOCKED: REMARK   11  A    between atoms: C_41  and  C_44 
DOCKED: REMARK   12  A    between atoms: C_44  and  C_46 
DOCKED: REMARK   13  A    between atoms: C_47  and  C_48 
DOCKED: USER                              x       y       z     vdW  Elec       q    Type
DOCKED: USER                           _______ _______ _______ _____ _____    ______ ____
DOCKED: ROOT
DOCKED: ATOM      1  O   UNL d   1       5.469  19.222  -6.360 -0.62 +0.12    -0.289 OA
DOCKED: ATOM      2  O   UNL d   1       6.675  15.096 -12.518 -0.16 +0.01    -0.289 OA
DOCKED: ATOM      3  N   UNL d   1       8.624  18.289  -7.396 -0.08 +0.02    -0.247 NA
DOCKED: ATOM      4  N   UNL d   1       8.083  16.472  -9.684 -0.17 +0.02    -0.247 NA
DOCKED: ATOM      5  N   UNL d   1      10.829  15.632  -9.546 -0.07 -0.01    -0.354 N 
DOCKED: ATOM      6  N   UNL d   1      11.377  17.506  -7.161 -0.04 +0.01    -0.354 N 
DOCKED: ATOM      7  C   UNL d   1       7.718  19.427  -5.424 -0.22 -0.02    +0.084 A 
DOCKED: ATOM      8  C   UNL d   1       5.985  16.794 -10.895 -0.23 -0.02    +0.084 A 
DOCKED: ATOM      9  C   UNL d   1       6.891  17.161  -9.715 -0.26 -0.01    +0.058 A 
DOCKED: ATOM     10  C   UNL d   1       8.930  18.876  -6.179 -0.13 -0.01    +0.058 A 
DOCKED: ATOM     11  C   UNL d   1       6.674  19.066  -6.437 -0.24 -0.05    +0.193 A 
DOCKED: ATOM     12  C   UNL d   1       7.352  18.405  -7.597 -0.19 -0.02    +0.109 A 
DOCKED: ATOM     13  C   UNL d   1       6.867  15.742 -11.506 -0.19 -0.02    +0.193 A 
DOCKED: ATOM     14  C   UNL d   1       7.444  18.652  -4.132 -0.43 -0.01    +0.026 C 
DOCKED: ATOM     15  C   UNL d   1       6.529  18.041  -8.769 -0.28 -0.01    +0.055 C 
DOCKED: ATOM     16  C   UNL d   1       5.844  17.954 -11.885 -0.09 -0.00    +0.026 C 
DOCKED: ATOM     17  C   UNL d   1       8.103  15.638 -10.673 -0.24 -0.01    +0.109 A 
DOCKED: ATOM     18  C   UNL d   1      10.183  19.044  -5.716 -0.11 -0.01    +0.050 C 
DOCKED: ATOM     19  C   UNL d   1      11.368  18.643  -6.386 -0.07 -0.00    +0.045 A 
DOCKED: ATOM     20  C   UNL d   1      10.344  14.706 -10.434 -0.30 +0.00    +0.045 A 
DOCKED: ATOM     21  C   UNL d   1       9.138  14.649 -11.009 -0.27 +0.00    +0.057 C 
DOCKED: ATOM     22  C   UNL d   1      12.492  14.152  -9.890 -0.20 -0.00    -0.019 A 
DOCKED: ATOM     23  C   UNL d   1      12.119  15.380  -9.160 -0.15 +0.00    +0.045 A 
DOCKED: ATOM     24  C   UNL d   1      11.438  13.759 -10.643 -0.29 -0.00    -0.022 A 
DOCKED: ATOM     25  C   UNL d   1      12.643  17.257  -7.639 -0.07 -0.00    +0.049 A 
DOCKED: ATOM     26  C   UNL d   1      12.651  19.167  -6.390 -0.03 +0.00    -0.018 A 
DOCKED: ATOM     27  C   UNL d   1      13.448  18.299  -7.199 -0.03 -0.00    +0.003 A 
DOCKED: ATOM     28  C   UNL d   1      12.936  16.053  -8.335 -0.12 -0.00    +0.052 C 
DOCKED: ATOM     29  C   UNL d   1      11.331  12.588 -11.560 -0.23 +0.00    +0.046 C 
DOCKED: ATOM     30  C   UNL d   1      13.112  20.400  -5.689 -0.01 -0.00    +0.046 C 
DOCKED: ATOM     31  H   UNL d   1      10.286  16.449  -9.289 +0.04 +0.00    +0.166 HD
DOCKED: ATOM     32  H   UNL d   1      10.562  16.923  -7.311 +0.05 +0.00    +0.166 HD
DOCKED: ENDROOT
DOCKED: BRANCH   7  33
DOCKED: ATOM     33  C   UNL d   1       7.728  20.940  -5.180 -0.09 -0.05    +0.141 C 
DOCKED: BRANCH  33  34
DOCKED: ATOM     34  C   UNL d   1       7.799  21.733  -6.457 -0.06 -0.09    +0.306 C 
DOCKED: ATOM     35  O   UNL d   1       8.813  22.138  -6.998 -0.04 +0.04    -0.251 OA
DOCKED: BRANCH  34  36
DOCKED: ATOM     36  O   UNL d   1       6.585  21.971  -6.986 -0.06 +0.15    -0.481 OA
DOCKED: ATOM     37  H   UNL d   1       5.983  21.363  -6.506 -0.33 -0.13    +0.295 HD
DOCKED: ENDBRANCH  34  36
DOCKED: ENDBRANCH  33  34
DOCKED: ENDBRANCH   7  33
DOCKED: BRANCH  27  38
DOCKED: ATOM     38  C   UNL d   1      14.846  18.464  -7.458 -0.01 -0.00    +0.017 C 
DOCKED: ATOM     39  C   UNL d   1      15.798  17.563  -7.172 -0.01 -0.01    +0.092 C 
DOCKED: BRANCH  39  40
DOCKED: ATOM     40  C   UNL d   1      17.196  17.849  -7.506 +0.00 -0.02    +0.330 C 
DOCKED: ATOM     41  O   UNL d   1      17.787  18.906  -7.393 +0.00 +0.01    -0.246 OA
DOCKED: BRANCH  40  42
DOCKED: ATOM     42  O   UNL d   1      17.795  16.741  -7.971 +0.00 +0.03    -0.477 OA
DOCKED: ATOM     43  H   UNL d   1      17.087  16.283  -8.470 +0.00 -0.02    +0.295 HD
DOCKED: ENDBRANCH  40  42
DOCKED: ENDBRANCH  39  40
DOCKED: ENDBRANCH  27  38
DOCKED: BRANCH   8  44
DOCKED: ATOM     44  C   UNL d   1       4.617  16.214 -10.522 -0.28 -0.04    +0.141 C 
DOCKED: BRANCH  44  45
DOCKED: ATOM     45  C   UNL d   1       4.150  15.138 -11.465 -0.26 -0.04    +0.306 C 
DOCKED: ATOM     46  O   UNL d   1       3.395  15.278 -12.411 -0.26 +0.05    -0.251 OA
DOCKED: BRANCH  45  47
DOCKED: ATOM     47  O   UNL d   1       4.643  13.927 -11.148 -0.39 +0.00    -0.481 OA
DOCKED: ATOM     48  H   UNL d   1       5.562  14.102 -10.855 -0.26 -0.06    +0.295 HD
DOCKED: ENDBRANCH  45  47
DOCKED: ENDBRANCH  44  45
DOCKED: ENDBRANCH   8  44
DOCKED: BRANCH  22  49
DOCKED: ATOM     49  C   UNL d   1      13.827  13.476  -9.774 -0.14 -0.00    +0.048 C 
DOCKED: BRANCH  49  50
DOCKED: ATOM     50  C   UNL d   1      14.491  13.756  -8.426 -0.11 -0.00    +0.125 C 
DOCKED: BRANCH  50  51
DOCKED: ATOM     51  C   UNL d   1      15.794  14.479  -8.611 -0.01 -0.01    +0.305 C 
DOCKED: ATOM     52  O   UNL d   1      16.182  15.072  -9.603 -0.01 +0.01    -0.251 OA
DOCKED: BRANCH  51  53
DOCKED: ATOM     53  O   UNL d   1      16.571  14.408  -7.511 +0.00 +0.03    -0.481 OA
DOCKED: ATOM     54  H   UNL d   1      17.473  14.598  -7.844 +0.01 -0.02    +0.295 HD
DOCKED: ENDBRANCH  51  53
DOCKED: ENDBRANCH  50  51
DOCKED: ENDBRANCH  49  50
DOCKED: ENDBRANCH  22  49
DOCKED: TORSDOF 13
DOCKED: TER
DOCKED: ENDMDL
________________________________________________________________________________


	BEGINNING GENETIC ALGORITHM DOCKING 91 of 100
Run: 91 Seed: 867831812 1460308521 [ Run 91 of 100 GA/GALS ]
Beginning LAMARCKIAN GENETIC ALGORITHM (LGA), with a maximum of 25000000 energy evaluations.

Final-Value: -10.599


	FINAL GENETIC ALGORITHM DOCKED STATE
	_______________________________________________


Detailed state:  trans 13.376 9.033 -9.490 quatxyzw -0.855734 0.326539 -0.396306 0.063512 center 0.153 0.018 -0.028 ntor 13 6.2077 -165.9143 116.5270 -141.9003 22.5544 -2.1269 -49.1851 -61.2292 -126.4468 -138.0563 180.0000 2.6211 5.7993
State:	 13.376   9.033  -9.490  -0.857  0.327 -0.397 172.717      6.21 -165.91  116.53 -141.90   22.55   -2.13  -49.19  -61.23 -126.45 -138.06  180.00    2.62    5.80

DOCKED: MODEL       91
DOCKED: USER    Run = 91
DOCKED: USER    DPF = D:/Protein_go_brrr/autodock/final/mut_K82N/heme/dock.dpf
DOCKED: USER  
DOCKED: USER    Estimated Free Energy of Binding    =   -3.86 kcal/mol  [=(1)+(2)+(3)-(4)]
DOCKED: USER    Estimated Inhibition Constant, Ki   =    1.48 mM (millimolar)  [Temperature = 298.15 K]
DOCKED: USER    
DOCKED: USER    (1) Final Intermolecular Energy     =   -7.74 kcal/mol
DOCKED: USER        vdW + Hbond + desolv Energy     =   -7.40 kcal/mol
DOCKED: USER        Electrostatic Energy            =   -0.33 kcal/mol
DOCKED: USER    (2) Final Total Internal Energy     =   -2.86 kcal/mol
DOCKED: USER    (3) Torsional Free Energy           =   +3.88 kcal/mol
DOCKED: USER    (4) Unbound System's Energy  [=(2)] =   -2.86 kcal/mol
DOCKED: USER    
DOCKED: USER    
DOCKED: USER    NEWDPF move heme_opt.pdbqt
DOCKED: USER    NEWDPF about 0.153000 0.018000 -0.028000
DOCKED: USER    NEWDPF tran0 13.375899 9.032661 -9.490054
DOCKED: USER    NEWDPF quaternion0 -0.855734 0.326539 -0.396306 0.063512
DOCKED: USER    NEWDPF axisangle0 -0.857465 0.327199 -0.397108 172.717207
DOCKED: USER    NEWDPF quat0 -0.857465 0.327199 -0.397108 172.717207
DOCKED: USER    NEWDPF dihe0 6.21 -165.91 116.53 -141.90 22.55 -2.13 -49.19 -61.23 -126.45 -138.06 180.00 2.62 5.80 
DOCKED: USER  keepresnum = 1 
DOCKED: USER  
DOCKED: REMARK  13 active torsions:
DOCKED: REMARK  status: ('A' for Active; 'I' for Inactive)
DOCKED: REMARK    1  A    between atoms: O_3  and  C_38 
DOCKED: REMARK    2  A    between atoms: O_4  and  C_40 
DOCKED: REMARK    3  A    between atoms: O_7  and  C_46 
DOCKED: REMARK    4  A    between atoms: O_9  and  C_48 
DOCKED: REMARK    5  A    between atoms: C_15  and  C_20 
DOCKED: REMARK    6  A    between atoms: C_16  and  C_23 
DOCKED: REMARK    7  A    between atoms: C_20  and  C_38 
DOCKED: REMARK    8  A    between atoms: C_23  and  C_40 
DOCKED: REMARK    9  A    between atoms: C_32  and  C_41 
DOCKED: REMARK   10  A    between atoms: C_37  and  C_45 
DOCKED: REMARK   11  A    between atoms: C_41  and  C_44 
DOCKED: REMARK   12  A    between atoms: C_44  and  C_46 
DOCKED: REMARK   13  A    between atoms: C_47  and  C_48 
DOCKED: USER                              x       y       z     vdW  Elec       q    Type
DOCKED: USER                           _______ _______ _______ _____ _____    ______ ____
DOCKED: ROOT
DOCKED: ATOM      1  O   UNL d   1      10.108  10.333 -14.221 -0.12 -0.08    -0.289 OA
DOCKED: ATOM      2  O   UNL d   1      14.067  14.738  -9.605 -0.03 +0.01    -0.289 OA
DOCKED: ATOM      3  N   UNL d   1      11.780   9.120 -11.460 -0.20 +0.00    -0.247 NA
DOCKED: ATOM      4  N   UNL d   1      13.265  11.493 -10.463 -0.11 +0.00    -0.247 NA
DOCKED: ATOM      5  N   UNL d   1      14.805   9.718  -8.806 -0.07 +0.02    -0.354 N 
DOCKED: ATOM      6  N   UNL d   1      13.272   7.260  -9.859 -0.11 +0.04    -0.354 N 
DOCKED: ATOM      7  C   UNL d   1      10.552   8.104 -13.321 -0.19 +0.01    +0.084 A 
DOCKED: ATOM      8  C   UNL d   1      12.337  13.692 -10.986 -0.16 +0.00    +0.084 A 
DOCKED: ATOM      9  C   UNL d   1      12.286  12.170 -11.155 -0.17 +0.00    +0.058 A 
DOCKED: ATOM     10  C   UNL d   1      11.362   7.931 -12.033 -0.23 -0.00    +0.058 A 
DOCKED: ATOM     11  C   UNL d   1      10.571   9.602 -13.365 -0.15 +0.03    +0.193 A 
DOCKED: ATOM     12  C   UNL d   1      11.323  10.099 -12.169 -0.12 +0.01    +0.109 A 
DOCKED: ATOM     13  C   UNL d   1      13.550  13.756 -10.101 -0.09 -0.00    +0.193 A 
DOCKED: ATOM     14  C   UNL d   1      11.296   7.563 -14.545 -0.08 +0.00    +0.026 C 
DOCKED: ATOM     15  C   UNL d   1      11.394  11.558 -11.950 -0.17 +0.01    +0.055 C 
DOCKED: ATOM     16  C   UNL d   1      11.129  14.218 -10.205 -0.35 +0.00    +0.026 C 
DOCKED: ATOM     17  C   UNL d   1      14.020  12.357  -9.865 -0.13 -0.00    +0.109 A 
DOCKED: ATOM     18  C   UNL d   1      11.555   6.718 -11.482 -0.26 -0.01    +0.050 C 
DOCKED: ATOM     19  C   UNL d   1      12.216   6.469 -10.252 -0.19 -0.01    +0.045 A 
DOCKED: ATOM     20  C   UNL d   1      15.520  10.876  -8.640 -0.11 -0.00    +0.045 A 
DOCKED: ATOM     21  C   UNL d   1      15.227  12.110  -9.062 -0.11 -0.00    +0.057 C 
DOCKED: ATOM     22  C   UNL d   1      16.649   9.160  -7.639 -0.06 +0.00    -0.019 A 
DOCKED: ATOM     23  C   UNL d   1      15.407   8.629  -8.236 -0.13 -0.00    +0.045 A 
DOCKED: ATOM     24  C   UNL d   1      16.709  10.491  -7.881 -0.05 +0.00    -0.022 A 
DOCKED: ATOM     25  C   UNL d   1      13.820   6.788  -8.688 -0.12 -0.00    +0.049 A 
DOCKED: ATOM     26  C   UNL d   1      12.049   5.482  -9.294 -0.24 +0.00    -0.018 A 
DOCKED: ATOM     27  C   UNL d   1      13.052   5.700  -8.299 -0.23 -0.00    +0.003 A 
DOCKED: ATOM     28  C   UNL d   1      15.019   7.346  -8.168 -0.15 -0.00    +0.052 C 
DOCKED: ATOM     29  C   UNL d   1      17.760  11.467  -7.472 -0.02 -0.00    +0.046 C 
DOCKED: ATOM     30  C   UNL d   1      11.021   4.402  -9.298 -0.27 -0.02    +0.046 C 
DOCKED: ATOM     31  H   UNL d   1      13.888   9.724  -9.241 +0.03 -0.01    +0.166 HD
DOCKED: ATOM     32  H   UNL d   1      13.610   8.050 -10.395 +0.03 -0.01    +0.166 HD
DOCKED: ENDROOT
DOCKED: BRANCH   7  33
DOCKED: ATOM     33  C   UNL d   1       9.110   7.586 -13.266 -0.26 +0.05    +0.141 C 
DOCKED: BRANCH  33  34
DOCKED: ATOM     34  C   UNL d   1       9.026   6.091 -13.419 -0.17 -0.04    +0.306 C 
DOCKED: ATOM     35  O   UNL d   1       9.283   5.264 -12.560 -0.21 +0.15    -0.251 OA
DOCKED: BRANCH  34  36
DOCKED: ATOM     36  O   UNL d   1       8.619   5.718 -14.645 -0.59 +0.04    -0.481 OA
DOCKED: ATOM     37  H   UNL d   1       8.549   4.740 -14.594 -0.48 -0.44    +0.295 HD
DOCKED: ENDBRANCH  34  36
DOCKED: ENDBRANCH  33  34
DOCKED: ENDBRANCH   7  33
DOCKED: BRANCH  27  38
DOCKED: ATOM     38  C   UNL d   1      13.246   4.892  -7.132 -0.31 -0.00    +0.017 C 
DOCKED: ATOM     39  C   UNL d   1      13.559   5.356  -5.913 -0.28 -0.00    +0.092 C 
DOCKED: BRANCH  39  40
DOCKED: ATOM     40  C   UNL d   1      13.714   4.423  -4.794 -0.14 +0.02    +0.330 C 
DOCKED: ATOM     41  O   UNL d   1      13.525   3.221  -4.797 -0.33 -0.07    -0.246 OA
DOCKED: BRANCH  40  42
DOCKED: ATOM     42  O   UNL d   1      14.123   5.080  -3.698 -0.11 -0.06    -0.477 OA
DOCKED: ATOM     43  H   UNL d   1      13.975   6.022  -3.920 +0.10 +0.03    +0.295 HD
DOCKED: ENDBRANCH  40  42
DOCKED: ENDBRANCH  39  40
DOCKED: ENDBRANCH  27  38
DOCKED: BRANCH   8  44
DOCKED: ATOM     44  C   UNL d   1      12.556  14.493 -12.274 -0.06 -0.00    +0.141 C 
DOCKED: BRANCH  44  45
DOCKED: ATOM     45  C   UNL d   1      12.415  15.979 -12.081 -0.01 -0.01    +0.306 C 
DOCKED: ATOM     46  O   UNL d   1      11.404  16.641 -12.244 -0.02 +0.01    -0.251 OA
DOCKED: BRANCH  45  47
DOCKED: ATOM     47  O   UNL d   1      13.571  16.563 -11.716 +0.00 +0.02    -0.481 OA
DOCKED: ATOM     48  H   UNL d   1      13.775  16.179 -10.837 +0.03 -0.01    +0.295 HD
DOCKED: ENDBRANCH  45  47
DOCKED: ENDBRANCH  44  45
DOCKED: ENDBRANCH   8  44
DOCKED: BRANCH  22  49
DOCKED: ATOM     49  C   UNL d   1      17.658   8.324  -6.909 -0.02 -0.00    +0.048 C 
DOCKED: BRANCH  49  50
DOCKED: ATOM     50  C   UNL d   1      17.200   7.991  -5.489 -0.03 -0.01    +0.125 C 
DOCKED: BRANCH  50  51
DOCKED: ATOM     51  C   UNL d   1      15.846   8.578  -5.211 -0.07 -0.01    +0.305 C 
DOCKED: ATOM     52  O   UNL d   1      15.551   9.756  -5.116 -0.09 +0.02    -0.251 OA
DOCKED: BRANCH  51  53
DOCKED: ATOM     53  O   UNL d   1      14.907   7.624  -5.050 -0.07 +0.01    -0.481 OA
DOCKED: ATOM     54  H   UNL d   1      15.373   6.911  -4.565 +0.07 -0.00    +0.295 HD
DOCKED: ENDBRANCH  51  53
DOCKED: ENDBRANCH  50  51
DOCKED: ENDBRANCH  49  50
DOCKED: ENDBRANCH  22  49
DOCKED: TORSDOF 13
DOCKED: TER
DOCKED: ENDMDL
________________________________________________________________________________


	BEGINNING GENETIC ALGORITHM DOCKING 92 of 100
Run: 92 Seed: 2109247433 918663088 [ Run 92 of 100 GA/GALS ]
Beginning LAMARCKIAN GENETIC ALGORITHM (LGA), with a maximum of 25000000 energy evaluations.

Final-Value: -11.536


	FINAL GENETIC ALGORITHM DOCKED STATE
	_______________________________________________


Detailed state:  trans 12.819 1.802 12.892 quatxyzw 0.358460 -0.583876 -0.107253 0.720480 center 0.153 0.018 -0.028 ntor 13 116.6987 110.5553 120.3115 -180.0000 6.4160 -89.6799 -50.2828 2.1626 -170.5662 -133.9624 -66.9311 28.8692 43.1072
State:	 12.819   1.802  12.892   0.517 -0.842 -0.155 87.812    116.70  110.56  120.31 -180.00    6.42  -89.68  -50.28    2.16 -170.57 -133.96  -66.93   28.87   43.11

DOCKED: MODEL       92
DOCKED: USER    Run = 92
DOCKED: USER    DPF = D:/Protein_go_brrr/autodock/final/mut_K82N/heme/dock.dpf
DOCKED: USER  
DOCKED: USER    Estimated Free Energy of Binding    =   -4.70 kcal/mol  [=(1)+(2)+(3)-(4)]
DOCKED: USER    Estimated Inhibition Constant, Ki   =  358.04 uM (micromolar)  [Temperature = 298.15 K]
DOCKED: USER    
DOCKED: USER    (1) Final Intermolecular Energy     =   -8.58 kcal/mol
DOCKED: USER        vdW + Hbond + desolv Energy     =   -8.41 kcal/mol
DOCKED: USER        Electrostatic Energy            =   -0.17 kcal/mol
DOCKED: USER    (2) Final Total Internal Energy     =   -2.96 kcal/mol
DOCKED: USER    (3) Torsional Free Energy           =   +3.88 kcal/mol
DOCKED: USER    (4) Unbound System's Energy  [=(2)] =   -2.96 kcal/mol
DOCKED: USER    
DOCKED: USER    
DOCKED: USER    NEWDPF move heme_opt.pdbqt
DOCKED: USER    NEWDPF about 0.153000 0.018000 -0.028000
DOCKED: USER    NEWDPF tran0 12.819207 1.802238 12.892179
DOCKED: USER    NEWDPF quaternion0 0.358460 -0.583876 -0.107253 0.720480
DOCKED: USER    NEWDPF axisangle0 0.516904 -0.841957 -0.154660 87.811743
DOCKED: USER    NEWDPF quat0 0.516904 -0.841957 -0.154660 87.811743
DOCKED: USER    NEWDPF dihe0 116.70 110.56 120.31 -180.00 6.42 -89.68 -50.28 2.16 -170.57 -133.96 -66.93 28.87 43.11 
DOCKED: USER  keepresnum = 1 
DOCKED: USER  
DOCKED: REMARK  13 active torsions:
DOCKED: REMARK  status: ('A' for Active; 'I' for Inactive)
DOCKED: REMARK    1  A    between atoms: O_3  and  C_38 
DOCKED: REMARK    2  A    between atoms: O_4  and  C_40 
DOCKED: REMARK    3  A    between atoms: O_7  and  C_46 
DOCKED: REMARK    4  A    between atoms: O_9  and  C_48 
DOCKED: REMARK    5  A    between atoms: C_15  and  C_20 
DOCKED: REMARK    6  A    between atoms: C_16  and  C_23 
DOCKED: REMARK    7  A    between atoms: C_20  and  C_38 
DOCKED: REMARK    8  A    between atoms: C_23  and  C_40 
DOCKED: REMARK    9  A    between atoms: C_32  and  C_41 
DOCKED: REMARK   10  A    between atoms: C_37  and  C_45 
DOCKED: REMARK   11  A    between atoms: C_41  and  C_44 
DOCKED: REMARK   12  A    between atoms: C_44  and  C_46 
DOCKED: REMARK   13  A    between atoms: C_47  and  C_48 
DOCKED: USER                              x       y       z     vdW  Elec       q    Type
DOCKED: USER                           _______ _______ _______ _____ _____    ______ ____
DOCKED: ROOT
DOCKED: ATOM      1  O   UNL d   1      10.690   4.916  17.423 -0.12 -0.02    -0.289 OA
DOCKED: ATOM      2  O   UNL d   1      13.605  -1.999  17.131 -0.13 -0.02    -0.289 OA
DOCKED: ATOM      3  N   UNL d   1      11.697   3.436  14.475 -0.11 +0.03    -0.247 NA
DOCKED: ATOM      4  N   UNL d   1      12.962   0.904  15.379 -0.09 +0.03    -0.247 NA
DOCKED: ATOM      5  N   UNL d   1      14.073   0.625  12.742 -0.05 +0.05    -0.354 N 
DOCKED: ATOM      6  N   UNL d   1      12.772   3.263  11.818 -0.03 +0.02    -0.354 N 
DOCKED: ATOM      7  C   UNL d   1      10.892   5.663  15.105 -0.18 -0.01    +0.084 A 
DOCKED: ATOM      8  C   UNL d   1      12.206  -0.026  17.508 -0.34 -0.01    +0.084 A 
DOCKED: ATOM      9  C   UNL d   1      12.169   1.114  16.485 -0.26 -0.01    +0.058 A 
DOCKED: ATOM     10  C   UNL d   1      11.396   4.708  14.019 -0.18 -0.01    +0.058 A 
DOCKED: ATOM     11  C   UNL d   1      10.943   4.700  16.252 -0.14 -0.01    +0.193 A 
DOCKED: ATOM     12  C   UNL d   1      11.422   3.378  15.737 -0.19 -0.01    +0.109 A 
DOCKED: ATOM     13  C   UNL d   1      13.195  -0.905  16.796 -0.22 -0.01    +0.193 A 
DOCKED: ATOM     14  C   UNL d   1      11.879   6.803  15.371 -0.07 -0.00    +0.026 C 
DOCKED: ATOM     15  C   UNL d   1      11.465   2.240  16.677 -0.13 -0.01    +0.055 C 
DOCKED: ATOM     16  C   UNL d   1      10.864  -0.760  17.589 -0.39 -0.01    +0.026 C 
DOCKED: ATOM     17  C   UNL d   1      13.581  -0.224  15.523 -0.19 -0.01    +0.109 A 
DOCKED: ATOM     18  C   UNL d   1      11.445   5.077  12.725 -0.21 -0.00    +0.050 C 
DOCKED: ATOM     19  C   UNL d   1      11.816   4.238  11.644 -0.13 -0.00    +0.045 A 
DOCKED: ATOM     20  C   UNL d   1      14.752  -0.373  13.390 -0.16 -0.00    +0.045 A 
DOCKED: ATOM     21  C   UNL d   1      14.578  -0.836  14.632 -0.22 -0.00    +0.057 C 
DOCKED: ATOM     22  C   UNL d   1      15.607  -0.145  11.284 -0.11 +0.00    -0.019 A 
DOCKED: ATOM     23  C   UNL d   1      14.519   0.836  11.464 -0.12 -0.01    +0.045 A 
DOCKED: ATOM     24  C   UNL d   1      15.740  -0.859  12.427 -0.14 +0.00    -0.022 A 
DOCKED: ATOM     25  C   UNL d   1      13.042   2.632  10.625 -0.14 -0.00    +0.049 A 
DOCKED: ATOM     26  C   UNL d   1      11.428   4.215  10.313 -0.14 +0.00    -0.018 A 
DOCKED: ATOM     27  C   UNL d   1      12.190   3.186   9.679 -0.21 -0.00    +0.003 A 
DOCKED: ATOM     28  C   UNL d   1      14.106   1.696  10.520 -0.14 -0.00    +0.052 C 
DOCKED: ATOM     29  C   UNL d   1      16.689  -1.968  12.730 -0.13 -0.00    +0.046 C 
DOCKED: ATOM     30  C   UNL d   1      10.409   5.093   9.668 -0.29 -0.00    +0.046 C 
DOCKED: ATOM     31  H   UNL d   1      13.275   1.082  13.169 +0.06 -0.03    +0.166 HD
DOCKED: ATOM     32  H   UNL d   1      13.232   3.080  12.702 +0.04 -0.01    +0.166 HD
DOCKED: ENDROOT
DOCKED: BRANCH   7  33
DOCKED: ATOM     33  C   UNL d   1       9.466   6.189  14.907 -0.20 -0.03    +0.141 C 
DOCKED: BRANCH  33  34
DOCKED: ATOM     34  C   UNL d   1       9.403   7.692  14.867 -0.14 -0.01    +0.306 C 
DOCKED: ATOM     35  O   UNL d   1       9.962   8.415  14.060 -0.77 -0.03    -0.251 OA
DOCKED: BRANCH  34  36
DOCKED: ATOM     36  O   UNL d   1       8.635   8.204  15.845 -0.18 +0.08    -0.481 OA
DOCKED: ATOM     37  H   UNL d   1       7.728   7.897  15.634 -0.43 -0.13    +0.295 HD
DOCKED: ENDBRANCH  34  36
DOCKED: ENDBRANCH  33  34
DOCKED: ENDBRANCH   7  33
DOCKED: BRANCH  27  38
DOCKED: ATOM     38  C   UNL d   1      12.112   2.836   8.293 -0.30 -0.00    +0.017 C 
DOCKED: ATOM     39  C   UNL d   1      11.665   1.664   7.815 -0.35 -0.00    +0.092 C 
DOCKED: BRANCH  39  40
DOCKED: ATOM     40  C   UNL d   1      11.619   1.436   6.368 -0.20 +0.01    +0.330 C 
DOCKED: ATOM     41  O   UNL d   1      10.690   1.647   5.612 -0.28 +0.01    -0.246 OA
DOCKED: BRANCH  40  42
DOCKED: ATOM     42  O   UNL d   1      12.793   0.947   5.940 -0.08 -0.04    -0.477 OA
DOCKED: ATOM     43  H   UNL d   1      13.410   1.701   6.036 +0.08 +0.01    +0.295 HD
DOCKED: ENDBRANCH  40  42
DOCKED: ENDBRANCH  39  40
DOCKED: ENDBRANCH  27  38
DOCKED: BRANCH   8  44
DOCKED: ATOM     44  C   UNL d   1      12.714   0.354  18.903 -0.24 +0.01    +0.141 C 
DOCKED: BRANCH  44  45
DOCKED: ATOM     45  C   UNL d   1      12.647  -0.781  19.890 -0.17 +0.03    +0.306 C 
DOCKED: ATOM     46  O   UNL d   1      11.742  -1.010  20.673 -0.23 -0.03    -0.251 OA
DOCKED: BRANCH  45  47
DOCKED: ATOM     47  O   UNL d   1      13.745  -1.557  19.856 -0.01 -0.04    -0.481 OA
DOCKED: ATOM     48  H   UNL d   1      13.773  -1.908  18.941 +0.10 +0.02    +0.295 HD
DOCKED: ENDBRANCH  45  47
DOCKED: ENDBRANCH  44  45
DOCKED: ENDBRANCH   8  44
DOCKED: BRANCH  22  49
DOCKED: ATOM     49  C   UNL d   1      16.418  -0.283  10.029 -0.08 -0.00    +0.048 C 
DOCKED: BRANCH  49  50
DOCKED: ATOM     50  C   UNL d   1      15.555  -0.146   8.776 -0.04 +0.00    +0.125 C 
DOCKED: BRANCH  50  51
DOCKED: ATOM     51  C   UNL d   1      15.919   1.092   8.006 -0.04 +0.01    +0.305 C 
DOCKED: ATOM     52  O   UNL d   1      16.726   1.950   8.318 -0.01 +0.00    -0.251 OA
DOCKED: BRANCH  51  53
DOCKED: ATOM     53  O   UNL d   1      15.222   1.194   6.856 -0.05 -0.02    -0.481 OA
DOCKED: ATOM     54  H   UNL d   1      14.657   0.393   6.848 +0.05 +0.04    +0.295 HD
DOCKED: ENDBRANCH  51  53
DOCKED: ENDBRANCH  50  51
DOCKED: ENDBRANCH  49  50
DOCKED: ENDBRANCH  22  49
DOCKED: TORSDOF 13
DOCKED: TER
DOCKED: ENDMDL
________________________________________________________________________________


	BEGINNING GENETIC ALGORITHM DOCKING 93 of 100
Run: 93 Seed: 592470096 952705200 [ Run 93 of 100 GA/GALS ]
Beginning LAMARCKIAN GENETIC ALGORITHM (LGA), with a maximum of 25000000 energy evaluations.

Final-Value: -11.268


	FINAL GENETIC ALGORITHM DOCKED STATE
	_______________________________________________


Detailed state:  trans 11.109 16.514 -6.014 quatxyzw 0.654372 -0.080951 0.533317 0.529922 center 0.153 0.018 -0.028 ntor 13 -112.1673 161.1052 165.3057 54.5672 37.0132 -13.6137 119.7706 143.4391 137.6612 12.9041 -67.3962 9.1168 -19.5781
State:	 11.109  16.514  -6.014   0.772 -0.095  0.629 116.000   -112.17  161.11  165.31   54.57   37.01  -13.61  119.77  143.44  137.66   12.90  -67.40    9.12  -19.58

DOCKED: MODEL       93
DOCKED: USER    Run = 93
DOCKED: USER    DPF = D:/Protein_go_brrr/autodock/final/mut_K82N/heme/dock.dpf
DOCKED: USER  
DOCKED: USER    Estimated Free Energy of Binding    =   -4.40 kcal/mol  [=(1)+(2)+(3)-(4)]
DOCKED: USER    Estimated Inhibition Constant, Ki   =  597.64 uM (micromolar)  [Temperature = 298.15 K]
DOCKED: USER    
DOCKED: USER    (1) Final Intermolecular Energy     =   -8.28 kcal/mol
DOCKED: USER        vdW + Hbond + desolv Energy     =   -7.96 kcal/mol
DOCKED: USER        Electrostatic Energy            =   -0.32 kcal/mol
DOCKED: USER    (2) Final Total Internal Energy     =   -2.99 kcal/mol
DOCKED: USER    (3) Torsional Free Energy           =   +3.88 kcal/mol
DOCKED: USER    (4) Unbound System's Energy  [=(2)] =   -2.99 kcal/mol
DOCKED: USER    
DOCKED: USER    
DOCKED: USER    NEWDPF move heme_opt.pdbqt
DOCKED: USER    NEWDPF about 0.153000 0.018000 -0.028000
DOCKED: USER    NEWDPF tran0 11.109452 16.513898 -6.014492
DOCKED: USER    NEWDPF quaternion0 0.654372 -0.080951 0.533317 0.529922
DOCKED: USER    NEWDPF axisangle0 0.771623 -0.095456 0.628877 115.999573
DOCKED: USER    NEWDPF quat0 0.771623 -0.095456 0.628877 115.999573
DOCKED: USER    NEWDPF dihe0 -112.17 161.11 165.31 54.57 37.01 -13.61 119.77 143.44 137.66 12.90 -67.40 9.12 -19.58 
DOCKED: USER  keepresnum = 1 
DOCKED: USER  
DOCKED: REMARK  13 active torsions:
DOCKED: REMARK  status: ('A' for Active; 'I' for Inactive)
DOCKED: REMARK    1  A    between atoms: O_3  and  C_38 
DOCKED: REMARK    2  A    between atoms: O_4  and  C_40 
DOCKED: REMARK    3  A    between atoms: O_7  and  C_46 
DOCKED: REMARK    4  A    between atoms: O_9  and  C_48 
DOCKED: REMARK    5  A    between atoms: C_15  and  C_20 
DOCKED: REMARK    6  A    between atoms: C_16  and  C_23 
DOCKED: REMARK    7  A    between atoms: C_20  and  C_38 
DOCKED: REMARK    8  A    between atoms: C_23  and  C_40 
DOCKED: REMARK    9  A    between atoms: C_32  and  C_41 
DOCKED: REMARK   10  A    between atoms: C_37  and  C_45 
DOCKED: REMARK   11  A    between atoms: C_41  and  C_44 
DOCKED: REMARK   12  A    between atoms: C_44  and  C_46 
DOCKED: REMARK   13  A    between atoms: C_47  and  C_48 
DOCKED: USER                              x       y       z     vdW  Elec       q    Type
DOCKED: USER                           _______ _______ _______ _____ _____    ______ ____
DOCKED: ROOT
DOCKED: ATOM      1  O   UNL d   1      10.047  19.955 -10.682 -0.00 +0.02    -0.289 OA
DOCKED: ATOM      2  O   UNL d   1       6.535  19.399  -4.068 -0.37 +0.08    -0.289 OA
DOCKED: ATOM      3  N   UNL d   1      10.959  17.665  -8.269 -0.07 +0.01    -0.247 NA
DOCKED: ATOM      4  N   UNL d   1       9.243  18.391  -5.955 -0.09 +0.03    -0.247 NA
DOCKED: ATOM      5  N   UNL d   1      10.912  16.723  -4.313 -0.11 +0.06    -0.354 N 
DOCKED: ATOM      6  N   UNL d   1      12.699  15.990  -6.715 -0.05 +0.01    -0.354 N 
DOCKED: ATOM      7  C   UNL d   1      11.876  18.352 -10.436 -0.02 -0.00    +0.084 A 
DOCKED: ATOM      8  C   UNL d   1       7.125  19.509  -6.441 -0.24 -0.02    +0.084 A 
DOCKED: ATOM      9  C   UNL d   1       8.460  18.948  -6.942 -0.14 -0.01    +0.058 A 
DOCKED: ATOM     10  C   UNL d   1      11.977  17.470  -9.188 -0.07 -0.00    +0.058 A 
DOCKED: ATOM     11  C   UNL d   1      10.611  19.067 -10.069 -0.02 -0.01    +0.193 A 
DOCKED: ATOM     12  C   UNL d   1      10.140  18.545  -8.747 -0.07 -0.01    +0.109 A 
DOCKED: ATOM     13  C   UNL d   1       7.311  19.200  -4.982 -0.23 -0.04    +0.193 A 
DOCKED: ATOM     14  C   UNL d   1      13.017  19.370 -10.514 -0.01 -0.00    +0.026 C 
DOCKED: ATOM     15  C   UNL d   1       8.852  19.041  -8.222 -0.11 -0.01    +0.055 C 
DOCKED: ATOM     16  C   UNL d   1       5.936  18.699  -6.968 -0.28 -0.01    +0.026 C 
DOCKED: ATOM     17  C   UNL d   1       8.637  18.531  -4.820 -0.18 -0.02    +0.109 A 
DOCKED: ATOM     18  C   UNL d   1      12.933  16.530  -9.067 -0.08 -0.00    +0.050 C 
DOCKED: ATOM     19  C   UNL d   1      13.054  15.614  -7.991 -0.12 -0.00    +0.045 A 
DOCKED: ATOM     20  C   UNL d   1      10.167  17.340  -3.341 -0.23 -0.01    +0.045 A 
DOCKED: ATOM     21  C   UNL d   1       9.112  18.149  -3.482 -0.28 -0.01    +0.057 C 
DOCKED: ATOM     22  C   UNL d   1      11.811  16.109  -2.341 -0.21 +0.00    -0.019 A 
DOCKED: ATOM     23  C   UNL d   1      11.928  15.958  -3.805 -0.22 -0.01    +0.045 A 
DOCKED: ATOM     24  C   UNL d   1      10.766  16.927  -2.072 -0.21 +0.01    -0.022 A 
DOCKED: ATOM     25  C   UNL d   1      12.981  14.985  -5.819 -0.15 -0.00    +0.049 A 
DOCKED: ATOM     26  C   UNL d   1      13.545  14.319  -7.928 -0.17 +0.00    -0.018 A 
DOCKED: ATOM     27  C   UNL d   1      13.478  13.920  -6.557 -0.22 -0.00    +0.003 A 
DOCKED: ATOM     28  C   UNL d   1      12.846  15.197  -4.420 -0.21 -0.01    +0.052 C 
DOCKED: ATOM     29  C   UNL d   1      10.244  17.371  -0.748 -0.23 -0.01    +0.046 C 
DOCKED: ATOM     30  C   UNL d   1      14.045  13.500  -9.069 -0.15 -0.00    +0.046 C 
DOCKED: ATOM     31  H   UNL d   1      10.655  16.786  -5.292 +0.05 -0.01    +0.166 HD
DOCKED: ATOM     32  H   UNL d   1      12.321  16.902  -6.484 +0.03 -0.01    +0.166 HD
DOCKED: ENDROOT
DOCKED: BRANCH   7  33
DOCKED: ATOM     33  C   UNL d   1      11.703  17.600 -11.760 -0.02 -0.01    +0.141 C 
DOCKED: BRANCH  33  34
DOCKED: ATOM     34  C   UNL d   1      11.740  18.514 -12.955 -0.00 -0.02    +0.306 C 
DOCKED: ATOM     35  O   UNL d   1      12.729  18.818 -13.600 +0.00 +0.01    -0.251 OA
DOCKED: BRANCH  34  36
DOCKED: ATOM     36  O   UNL d   1      10.526  18.996 -13.276 +0.00 +0.03    -0.481 OA
DOCKED: ATOM     37  H   UNL d   1      10.274  19.558 -12.512 +0.00 -0.02    +0.295 HD
DOCKED: ENDBRANCH  34  36
DOCKED: ENDBRANCH  33  34
DOCKED: ENDBRANCH   7  33
DOCKED: BRANCH  27  38
DOCKED: ATOM     38  C   UNL d   1      13.903  12.652  -6.045 -0.27 -0.00    +0.017 C 
DOCKED: ATOM     39  C   UNL d   1      13.209  11.893  -5.183 -0.29 -0.02    +0.092 C 
DOCKED: BRANCH  39  40
DOCKED: ATOM     40  C   UNL d   1      13.749  10.602  -4.749 -0.22 -0.05    +0.330 C 
DOCKED: ATOM     41  O   UNL d   1      14.654   9.966  -5.255 -0.17 +0.02    -0.246 OA
DOCKED: BRANCH  40  42
DOCKED: ATOM     42  O   UNL d   1      13.101  10.176  -3.654 -0.19 +0.11    -0.477 OA
DOCKED: ATOM     43  H   UNL d   1      12.681  10.986  -3.299 -0.34 -0.18    +0.295 HD
DOCKED: ENDBRANCH  40  42
DOCKED: ENDBRANCH  39  40
DOCKED: ENDBRANCH  27  38
DOCKED: BRANCH   8  44
DOCKED: ATOM     44  C   UNL d   1       6.915  21.011  -6.662 -0.10 -0.05    +0.141 C 
DOCKED: BRANCH  44  45
DOCKED: ATOM     45  C   UNL d   1       8.173  21.819  -6.488 -0.06 -0.07    +0.306 C 
DOCKED: ATOM     46  O   UNL d   1       9.100  21.898  -7.275 -0.02 +0.04    -0.251 OA
DOCKED: BRANCH  45  47
DOCKED: ATOM     47  O   UNL d   1       8.209  22.468  -5.310 -0.05 +0.15    -0.481 OA
DOCKED: ATOM     48  H   UNL d   1       7.284  22.440  -4.983 -0.46 -0.20    +0.295 HD
DOCKED: ENDBRANCH  45  47
DOCKED: ENDBRANCH  44  45
DOCKED: ENDBRANCH   8  44
DOCKED: BRANCH  22  49
DOCKED: ATOM     49  C   UNL d   1      12.731  15.458  -1.350 -0.17 -0.01    +0.048 C 
DOCKED: BRANCH  49  50
DOCKED: ATOM     50  C   UNL d   1      12.084  14.242  -0.686 -0.28 -0.02    +0.125 C 
DOCKED: BRANCH  50  51
DOCKED: ATOM     51  C   UNL d   1      12.787  12.976  -1.085 -0.15 -0.04    +0.305 C 
DOCKED: ATOM     52  O   UNL d   1      13.092  12.039  -0.369 -0.17 +0.02    -0.251 OA
DOCKED: BRANCH  51  53
DOCKED: ATOM     53  O   UNL d   1      13.090  12.959  -2.398 -0.09 +0.14    -0.481 OA
DOCKED: ATOM     54  H   UNL d   1      12.694  12.123  -2.723 -0.45 -0.17    +0.295 HD
DOCKED: ENDBRANCH  51  53
DOCKED: ENDBRANCH  50  51
DOCKED: ENDBRANCH  49  50
DOCKED: ENDBRANCH  22  49
DOCKED: TORSDOF 13
DOCKED: TER
DOCKED: ENDMDL
________________________________________________________________________________


	BEGINNING GENETIC ALGORITHM DOCKING 94 of 100
Run: 94 Seed: 332984904 1408517815 [ Run 94 of 100 GA/GALS ]
Beginning LAMARCKIAN GENETIC ALGORITHM (LGA), with a maximum of 25000000 energy evaluations.

Final-Value: -11.944


	FINAL GENETIC ALGORITHM DOCKED STATE
	_______________________________________________


Detailed state:  trans 13.589 8.799 -8.947 quatxyzw 0.831404 -0.292241 0.462450 -0.097482 center 0.153 0.018 -0.028 ntor 13 128.9935 127.8847 106.8461 55.6955 -84.8129 103.0811 -47.6297 70.8326 132.7579 -131.2267 -87.3333 -96.8445 3.0803
State:	 13.589   8.799  -8.947   0.835 -0.294  0.465 -168.812    128.99  127.88  106.85   55.70  -84.81  103.08  -47.63   70.83  132.76 -131.23  -87.33  -96.84    3.08

DOCKED: MODEL       94
DOCKED: USER    Run = 94
DOCKED: USER    DPF = D:/Protein_go_brrr/autodock/final/mut_K82N/heme/dock.dpf
DOCKED: USER  
DOCKED: USER    Estimated Free Energy of Binding    =   -4.28 kcal/mol  [=(1)+(2)+(3)-(4)]
DOCKED: USER    Estimated Inhibition Constant, Ki   =  733.39 uM (micromolar)  [Temperature = 298.15 K]
DOCKED: USER    
DOCKED: USER    (1) Final Intermolecular Energy     =   -8.15 kcal/mol
DOCKED: USER        vdW + Hbond + desolv Energy     =   -7.56 kcal/mol
DOCKED: USER        Electrostatic Energy            =   -0.60 kcal/mol
DOCKED: USER    (2) Final Total Internal Energy     =   -3.79 kcal/mol
DOCKED: USER    (3) Torsional Free Energy           =   +3.88 kcal/mol
DOCKED: USER    (4) Unbound System's Energy  [=(2)] =   -3.79 kcal/mol
DOCKED: USER    
DOCKED: USER    
DOCKED: USER    NEWDPF move heme_opt.pdbqt
DOCKED: USER    NEWDPF about 0.153000 0.018000 -0.028000
DOCKED: USER    NEWDPF tran0 13.588867 8.799178 -8.946657
DOCKED: USER    NEWDPF quaternion0 0.831404 -0.292241 0.462450 -0.097482
DOCKED: USER    NEWDPF axisangle0 0.835383 -0.293640 0.464663 -168.811665
DOCKED: USER    NEWDPF quat0 0.835383 -0.293640 0.464663 -168.811665
DOCKED: USER    NEWDPF dihe0 128.99 127.88 106.85 55.70 -84.81 103.08 -47.63 70.83 132.76 -131.23 -87.33 -96.84 3.08 
DOCKED: USER  keepresnum = 1 
DOCKED: USER  
DOCKED: REMARK  13 active torsions:
DOCKED: REMARK  status: ('A' for Active; 'I' for Inactive)
DOCKED: REMARK    1  A    between atoms: O_3  and  C_38 
DOCKED: REMARK    2  A    between atoms: O_4  and  C_40 
DOCKED: REMARK    3  A    between atoms: O_7  and  C_46 
DOCKED: REMARK    4  A    between atoms: O_9  and  C_48 
DOCKED: REMARK    5  A    between atoms: C_15  and  C_20 
DOCKED: REMARK    6  A    between atoms: C_16  and  C_23 
DOCKED: REMARK    7  A    between atoms: C_20  and  C_38 
DOCKED: REMARK    8  A    between atoms: C_23  and  C_40 
DOCKED: REMARK    9  A    between atoms: C_32  and  C_41 
DOCKED: REMARK   10  A    between atoms: C_37  and  C_45 
DOCKED: REMARK   11  A    between atoms: C_41  and  C_44 
DOCKED: REMARK   12  A    between atoms: C_44  and  C_46 
DOCKED: REMARK   13  A    between atoms: C_47  and  C_48 
DOCKED: USER                              x       y       z     vdW  Elec       q    Type
DOCKED: USER                           _______ _______ _______ _____ _____    ______ ____
DOCKED: ROOT
DOCKED: ATOM      1  O   UNL d   1      10.825   9.371 -14.122 -0.09 -0.05    -0.289 OA
DOCKED: ATOM      2  O   UNL d   1      14.190  14.460  -9.743 -0.03 +0.01    -0.289 OA
DOCKED: ATOM      3  N   UNL d   1      12.212   8.580 -11.066 -0.21 +0.01    -0.247 NA
DOCKED: ATOM      4  N   UNL d   1      13.541  11.107 -10.243 -0.12 +0.00    -0.247 NA
DOCKED: ATOM      5  N   UNL d   1      14.924   9.612  -8.214 -0.07 +0.02    -0.354 N 
DOCKED: ATOM      6  N   UNL d   1      13.556   6.991  -9.087 -0.09 +0.04    -0.354 N 
DOCKED: ATOM      7  C   UNL d   1      11.208   7.293 -12.894 -0.15 -0.01    +0.084 A 
DOCKED: ATOM      8  C   UNL d   1      12.636  13.190 -11.146 -0.15 +0.00    +0.084 A 
DOCKED: ATOM      9  C   UNL d   1      12.629  11.658 -11.116 -0.16 +0.00    +0.058 A 
DOCKED: ATOM     10  C   UNL d   1      11.878   7.314 -11.517 -0.23 -0.01    +0.058 A 
DOCKED: ATOM     11  C   UNL d   1      11.206   8.773 -13.133 -0.14 +0.01    +0.193 A 
DOCKED: ATOM     12  C   UNL d   1      11.817   9.444 -11.942 -0.22 +0.00    +0.109 A 
DOCKED: ATOM     13  C   UNL d   1      13.746  13.406 -10.156 -0.09 -0.00    +0.193 A 
DOCKED: ATOM     14  C   UNL d   1      12.088   6.622 -13.951 -0.05 -0.00    +0.026 C 
DOCKED: ATOM     15  C   UNL d   1      11.839  10.921 -11.911 -0.25 +0.00    +0.055 C 
DOCKED: ATOM     16  C   UNL d   1      11.343  13.775 -10.571 -0.33 +0.00    +0.026 C 
DOCKED: ATOM     17  C   UNL d   1      14.213  12.065  -9.690 -0.12 -0.00    +0.109 A 
DOCKED: ATOM     18  C   UNL d   1      12.032   6.190 -10.793 -0.25 -0.01    +0.050 C 
DOCKED: ATOM     19  C   UNL d   1      12.562   6.124  -9.479 -0.14 -0.01    +0.045 A 
DOCKED: ATOM     20  C   UNL d   1      15.598  10.803  -8.130 -0.11 -0.00    +0.045 A 
DOCKED: ATOM     21  C   UNL d   1      15.330  11.962  -8.740 -0.11 -0.00    +0.057 C 
DOCKED: ATOM     22  C   UNL d   1      16.642   9.268  -6.799 -0.06 +0.00    -0.019 A 
DOCKED: ATOM     23  C   UNL d   1      15.481   8.625  -7.446 -0.13 -0.00    +0.045 A 
DOCKED: ATOM     24  C   UNL d   1      16.705  10.557  -7.207 -0.05 +0.00    -0.022 A 
DOCKED: ATOM     25  C   UNL d   1      13.983   6.693  -7.813 -0.14 -0.00    +0.049 A 
DOCKED: ATOM     26  C   UNL d   1      12.310   5.264  -8.421 -0.28 +0.00    -0.018 A 
DOCKED: ATOM     27  C   UNL d   1      13.196   5.641  -7.365 -0.27 -0.00    +0.003 A 
DOCKED: ATOM     28  C   UNL d   1      15.110   7.350  -7.249 -0.16 -0.00    +0.052 C 
DOCKED: ATOM     29  C   UNL d   1      17.689  11.610  -6.824 -0.02 -0.00    +0.046 C 
DOCKED: ATOM     30  C   UNL d   1      11.307   4.161  -8.389 -0.15 -0.02    +0.046 C 
DOCKED: ATOM     31  H   UNL d   1      14.059   9.533  -8.739 +0.03 -0.01    +0.166 HD
DOCKED: ATOM     32  H   UNL d   1      13.936   7.715  -9.684 +0.03 -0.01    +0.166 HD
DOCKED: ENDROOT
DOCKED: BRANCH   7  33
DOCKED: ATOM     33  C   UNL d   1       9.778   6.742 -12.921 -0.25 -0.01    +0.141 C 
DOCKED: BRANCH  33  34
DOCKED: ATOM     34  C   UNL d   1       9.184   6.740 -14.303 -0.10 +0.08    +0.306 C 
DOCKED: ATOM     35  O   UNL d   1       9.437   7.530 -15.197 -0.59 -0.13    -0.251 OA
DOCKED: BRANCH  34  36
DOCKED: ATOM     36  O   UNL d   1       8.304   5.740 -14.488 -0.52 -0.04    -0.481 OA
DOCKED: ATOM     37  H   UNL d   1       8.795   4.930 -14.234 -0.40 -0.35    +0.295 HD
DOCKED: ENDBRANCH  34  36
DOCKED: ENDBRANCH  33  34
DOCKED: ENDBRANCH   7  33
DOCKED: BRANCH  27  38
DOCKED: ATOM     38  C   UNL d   1      13.279   4.998  -6.088 -0.32 -0.00    +0.017 C 
DOCKED: ATOM     39  C   UNL d   1      14.374   4.405  -5.589 -0.17 -0.00    +0.092 C 
DOCKED: BRANCH  39  40
DOCKED: ATOM     40  C   UNL d   1      14.331   3.796  -4.256 -0.10 +0.06    +0.330 C 
DOCKED: ATOM     41  O   UNL d   1      14.217   2.617  -3.981 -0.64 -0.13    -0.246 OA
DOCKED: BRANCH  40  42
DOCKED: ATOM     42  O   UNL d   1      14.449   4.743  -3.313 -0.09 -0.07    -0.477 OA
DOCKED: ATOM     43  H   UNL d   1      15.253   5.237  -3.574 +0.06 +0.02    +0.295 HD
DOCKED: ENDBRANCH  40  42
DOCKED: ENDBRANCH  39  40
DOCKED: ENDBRANCH  27  38
DOCKED: BRANCH   8  44
DOCKED: ATOM     44  C   UNL d   1      12.978  13.823 -12.499 -0.05 -0.00    +0.141 C 
DOCKED: BRANCH  44  45
DOCKED: ATOM     45  C   UNL d   1      12.949  15.328 -12.475 -0.01 -0.01    +0.306 C 
DOCKED: ATOM     46  O   UNL d   1      11.997  16.042 -12.738 -0.01 +0.01    -0.251 OA
DOCKED: BRANCH  45  47
DOCKED: ATOM     47  O   UNL d   1      14.140  15.860 -12.145 +0.00 +0.02    -0.481 OA
DOCKED: ATOM     48  H   UNL d   1      14.225  15.700 -11.181 +0.02 -0.01    +0.295 HD
DOCKED: ENDBRANCH  45  47
DOCKED: ENDBRANCH  44  45
DOCKED: ENDBRANCH   8  44
DOCKED: BRANCH  22  49
DOCKED: ATOM     49  C   UNL d   1      17.581   8.565  -5.864 -0.02 -0.00    +0.048 C 
DOCKED: BRANCH  49  50
DOCKED: ATOM     50  C   UNL d   1      17.007   8.465  -4.450 -0.03 -0.00    +0.125 C 
DOCKED: BRANCH  50  51
DOCKED: ATOM     51  C   UNL d   1      16.285   7.162  -4.256 -0.04 -0.01    +0.305 C 
DOCKED: ATOM     52  O   UNL d   1      16.759   6.040  -4.275 -0.01 +0.00    -0.251 OA
DOCKED: BRANCH  51  53
DOCKED: ATOM     53  O   UNL d   1      14.965   7.343  -4.054 -0.06 -0.00    -0.481 OA
DOCKED: ATOM     54  H   UNL d   1      14.788   6.885  -3.206 +0.08 +0.02    +0.295 HD
DOCKED: ENDBRANCH  51  53
DOCKED: ENDBRANCH  50  51
DOCKED: ENDBRANCH  49  50
DOCKED: ENDBRANCH  22  49
DOCKED: TORSDOF 13
DOCKED: TER
DOCKED: ENDMDL
________________________________________________________________________________


	BEGINNING GENETIC ALGORITHM DOCKING 95 of 100
Run: 95 Seed: 314235850 1182887083 [ Run 95 of 100 GA/GALS ]
Beginning LAMARCKIAN GENETIC ALGORITHM (LGA), with a maximum of 25000000 energy evaluations.

Final-Value: -10.731


	FINAL GENETIC ALGORITHM DOCKED STATE
	_______________________________________________


Detailed state:  trans -8.530 -1.061 15.720 quatxyzw -0.086704 -0.799040 0.017541 0.594735 center 0.153 0.018 -0.028 ntor 13 -116.2351 -175.5057 -173.3847 -100.5895 39.4941 -4.3321 140.6162 120.2507 138.7529 -9.7042 70.7086 180.0000 157.7092
State:	 -8.530  -1.061  15.720  -0.108 -0.994  0.022 107.012   -116.24 -175.51 -173.38 -100.59   39.49   -4.33  140.62  120.25  138.75   -9.70   70.71  180.00  157.71

DOCKED: MODEL       95
DOCKED: USER    Run = 95
DOCKED: USER    DPF = D:/Protein_go_brrr/autodock/final/mut_K82N/heme/dock.dpf
DOCKED: USER  
DOCKED: USER    Estimated Free Energy of Binding    =   -4.41 kcal/mol  [=(1)+(2)+(3)-(4)]
DOCKED: USER    Estimated Inhibition Constant, Ki   =  585.66 uM (micromolar)  [Temperature = 298.15 K]
DOCKED: USER    
DOCKED: USER    (1) Final Intermolecular Energy     =   -8.29 kcal/mol
DOCKED: USER        vdW + Hbond + desolv Energy     =   -8.32 kcal/mol
DOCKED: USER        Electrostatic Energy            =   +0.03 kcal/mol
DOCKED: USER    (2) Final Total Internal Energy     =   -2.44 kcal/mol
DOCKED: USER    (3) Torsional Free Energy           =   +3.88 kcal/mol
DOCKED: USER    (4) Unbound System's Energy  [=(2)] =   -2.44 kcal/mol
DOCKED: USER    
DOCKED: USER    
DOCKED: USER    NEWDPF move heme_opt.pdbqt
DOCKED: USER    NEWDPF about 0.153000 0.018000 -0.028000
DOCKED: USER    NEWDPF tran0 -8.529782 -1.061319 15.720052
DOCKED: USER    NEWDPF quaternion0 -0.086704 -0.799040 0.017541 0.594735
DOCKED: USER    NEWDPF axisangle0 -0.107851 -0.993928 0.021819 107.012456
DOCKED: USER    NEWDPF quat0 -0.107851 -0.993928 0.021819 107.012456
DOCKED: USER    NEWDPF dihe0 -116.24 -175.51 -173.38 -100.59 39.49 -4.33 140.62 120.25 138.75 -9.70 70.71 180.00 157.71 
DOCKED: USER  keepresnum = 1 
DOCKED: USER  
DOCKED: REMARK  13 active torsions:
DOCKED: REMARK  status: ('A' for Active; 'I' for Inactive)
DOCKED: REMARK    1  A    between atoms: O_3  and  C_38 
DOCKED: REMARK    2  A    between atoms: O_4  and  C_40 
DOCKED: REMARK    3  A    between atoms: O_7  and  C_46 
DOCKED: REMARK    4  A    between atoms: O_9  and  C_48 
DOCKED: REMARK    5  A    between atoms: C_15  and  C_20 
DOCKED: REMARK    6  A    between atoms: C_16  and  C_23 
DOCKED: REMARK    7  A    between atoms: C_20  and  C_38 
DOCKED: REMARK    8  A    between atoms: C_23  and  C_40 
DOCKED: REMARK    9  A    between atoms: C_32  and  C_41 
DOCKED: REMARK   10  A    between atoms: C_37  and  C_45 
DOCKED: REMARK   11  A    between atoms: C_41  and  C_44 
DOCKED: REMARK   12  A    between atoms: C_44  and  C_46 
DOCKED: REMARK   13  A    between atoms: C_47  and  C_48 
DOCKED: USER                              x       y       z     vdW  Elec       q    Type
DOCKED: USER                           _______ _______ _______ _____ _____    ______ ____
DOCKED: ROOT
DOCKED: ATOM      1  O   UNL d   1      -6.089  -0.144  21.008 -0.04 +0.00    -0.289 OA
DOCKED: ATOM      2  O   UNL d   1     -10.061  -5.937  18.351 -0.00 +0.02    -0.289 OA
DOCKED: ATOM      3  N   UNL d   1      -7.452  -0.179  17.839 -0.13 +0.06    -0.247 NA
DOCKED: ATOM      4  N   UNL d   1      -8.543  -2.931  17.595 -0.07 +0.06    -0.247 NA
DOCKED: ATOM      5  N   UNL d   1      -8.814  -2.474  14.769 +0.18 +0.13    -0.354 N 
DOCKED: ATOM      6  N   UNL d   1      -7.662   0.374  15.029 -0.18 +0.15    -0.354 N 
DOCKED: ATOM      7  C   UNL d   1      -5.964   1.335  19.066 -0.15 -0.01    +0.084 A 
DOCKED: ATOM      8  C   UNL d   1      -9.167  -4.074  19.663 -0.02 -0.01    +0.084 A 
DOCKED: ATOM      9  C   UNL d   1      -8.536  -2.862  18.970 -0.07 -0.01    +0.058 A 
DOCKED: ATOM     10  C   UNL d   1      -6.718   0.995  17.777 -0.21 -0.01    +0.058 A 
DOCKED: ATOM     11  C   UNL d   1      -6.415   0.156  19.874 -0.09 -0.01    +0.193 A 
DOCKED: ATOM     12  C   UNL d   1      -7.333  -0.673  19.029 -0.13 -0.01    +0.109 A 
DOCKED: ATOM     13  C   UNL d   1      -9.500  -4.861  18.427 -0.02 -0.01    +0.193 A 
DOCKED: ATOM     14  C   UNL d   1      -4.446   1.257  18.881 -0.20 -0.00    +0.026 C 
DOCKED: ATOM     15  C   UNL d   1      -7.980  -1.846  19.649 -0.08 -0.00    +0.055 C 
DOCKED: ATOM     16  C   UNL d   1     -10.471  -3.705  20.377 -0.01 -0.00    +0.026 C 
DOCKED: ATOM     17  C   UNL d   1      -9.064  -4.062  17.242 -0.08 -0.02    +0.109 A 
DOCKED: ATOM     18  C   UNL d   1      -6.722   1.831  16.722 -0.26 -0.01    +0.050 C 
DOCKED: ATOM     19  C   UNL d   1      -7.456   1.642  15.524 -0.31 -0.01    +0.045 A 
DOCKED: ATOM     20  C   UNL d   1      -9.072  -3.819  14.816 -0.09 -0.01    +0.045 A 
DOCKED: ATOM     21  C   UNL d   1      -9.225  -4.606  15.885 -0.11 -0.01    +0.057 C 
DOCKED: ATOM     22  C   UNL d   1      -8.947  -3.167  12.630 -0.17 +0.00    -0.019 A 
DOCKED: ATOM     23  C   UNL d   1      -8.720  -1.989  13.492 -0.16 -0.01    +0.045 A 
DOCKED: ATOM     24  C   UNL d   1      -9.156  -4.247  13.420 -0.12 +0.00    -0.022 A 
DOCKED: ATOM     25  C   UNL d   1      -8.314   0.427  13.819 -0.27 -0.02    +0.049 A 
DOCKED: ATOM     26  C   UNL d   1      -8.021   2.540  14.632 -0.28 +0.00    -0.018 A 
DOCKED: ATOM     27  C   UNL d   1      -8.579   1.766  13.567 -0.23 -0.00    +0.003 A 
DOCKED: ATOM     28  C   UNL d   1      -8.500  -0.746  13.038 -0.31 -0.02    +0.052 C 
DOCKED: ATOM     29  C   UNL d   1      -9.440  -5.654  13.019 -0.08 -0.00    +0.046 C 
DOCKED: ATOM     30  C   UNL d   1      -8.046   4.025  14.760 -0.24 -0.01    +0.046 C 
DOCKED: ATOM     31  H   UNL d   1      -8.783  -1.914  15.615 -0.46 -0.08    +0.166 HD
DOCKED: ATOM     32  H   UNL d   1      -7.333  -0.467  15.488 -0.44 -0.13    +0.166 HD
DOCKED: ENDROOT
DOCKED: BRANCH   7  33
DOCKED: ATOM     33  C   UNL d   1      -6.381   2.644  19.745 -0.05 -0.02    +0.141 C 
DOCKED: BRANCH  33  34
DOCKED: ATOM     34  C   UNL d   1      -5.501   2.995  20.914 -0.01 -0.03    +0.306 C 
DOCKED: ATOM     35  O   UNL d   1      -4.518   3.717  20.885 -0.01 +0.03    -0.251 OA
DOCKED: BRANCH  34  36
DOCKED: ATOM     36  O   UNL d   1      -5.908   2.421  22.060 +0.00 +0.03    -0.481 OA
DOCKED: ATOM     37  H   UNL d   1      -5.851   1.457  21.887 +0.02 -0.01    +0.295 HD
DOCKED: ENDBRANCH  34  36
DOCKED: ENDBRANCH  33  34
DOCKED: ENDBRANCH   7  33
DOCKED: BRANCH  27  38
DOCKED: ATOM     38  C   UNL d   1      -9.249   2.303  12.421 -0.30 -0.00    +0.017 C 
DOCKED: ATOM     39  C   UNL d   1      -8.911   3.436  11.786 -0.29 -0.01    +0.092 C 
DOCKED: BRANCH  39  40
DOCKED: ATOM     40  C   UNL d   1      -9.670   3.867  10.610 -0.28 -0.09    +0.330 C 
DOCKED: ATOM     41  O   UNL d   1     -10.551   3.262  10.030 -0.22 +0.07    -0.246 OA
DOCKED: BRANCH  40  42
DOCKED: ATOM     42  O   UNL d   1      -9.266   5.087  10.222 -0.75 +0.25    -0.477 OA
DOCKED: ATOM     43  H   UNL d   1      -8.517   5.288  10.821 -0.31 -0.19    +0.295 HD
DOCKED: ENDBRANCH  40  42
DOCKED: ENDBRANCH  39  40
DOCKED: ENDBRANCH  27  38
DOCKED: BRANCH   8  44
DOCKED: ATOM     44  C   UNL d   1      -8.235  -4.867  20.585 -0.02 -0.00    +0.141 C 
DOCKED: BRANCH  44  45
DOCKED: ATOM     45  C   UNL d   1      -7.028  -5.420  19.876 -0.02 -0.00    +0.306 C 
DOCKED: ATOM     46  O   UNL d   1      -5.918  -4.919  19.831 -0.07 -0.01    -0.251 OA
DOCKED: BRANCH  45  47
DOCKED: ATOM     47  O   UNL d   1      -7.292  -6.572  19.232 +0.01 +0.01    -0.481 OA
DOCKED: ATOM     48  H   UNL d   1      -8.260  -6.694  19.330 +0.02 -0.01    +0.295 HD
DOCKED: ENDBRANCH  45  47
DOCKED: ENDBRANCH  44  45
DOCKED: ENDBRANCH   8  44
DOCKED: BRANCH  22  49
DOCKED: ATOM     49  C   UNL d   1      -8.924  -3.130  11.130 -0.19 -0.01    +0.048 C 
DOCKED: BRANCH  49  50
DOCKED: ATOM     50  C   UNL d   1      -7.501  -3.006  10.586 -0.28 -0.03    +0.125 C 
DOCKED: BRANCH  50  51
DOCKED: ATOM     51  C   UNL d   1      -7.264  -1.639  10.011 -0.28 -0.09    +0.305 C 
DOCKED: ATOM     52  O   UNL d   1      -6.502  -0.782  10.422 -0.49 +0.11    -0.251 OA
DOCKED: BRANCH  51  53
DOCKED: ATOM     53  O   UNL d   1      -8.028  -1.409   8.925 -0.13 +0.05    -0.481 OA
DOCKED: ATOM     54  H   UNL d   1      -8.908  -1.188   9.295 +0.15 -0.04    +0.295 HD
DOCKED: ENDBRANCH  51  53
DOCKED: ENDBRANCH  50  51
DOCKED: ENDBRANCH  49  50
DOCKED: ENDBRANCH  22  49
DOCKED: TORSDOF 13
DOCKED: TER
DOCKED: ENDMDL
________________________________________________________________________________


	BEGINNING GENETIC ALGORITHM DOCKING 96 of 100
Run: 96 Seed: 1217668486 1791688173 [ Run 96 of 100 GA/GALS ]
Beginning LAMARCKIAN GENETIC ALGORITHM (LGA), with a maximum of 25000000 energy evaluations.

Final-Value: -11.841


	FINAL GENETIC ALGORITHM DOCKED STATE
	_______________________________________________


Detailed state:  trans 13.860 8.682 -7.713 quatxyzw 0.522679 0.439546 0.468858 -0.560159 center 0.153 0.018 -0.028 ntor 13 -172.5396 159.7392 -160.8083 -59.5480 -42.2673 -51.8981 140.4736 -117.7790 124.7769 -3.5085 -109.1076 23.1154 -6.3840
State:	 13.860   8.682  -7.713   0.631  0.531  0.566 -111.866   -172.54  159.74 -160.81  -59.55  -42.27  -51.90  140.47 -117.78  124.78   -3.51 -109.11   23.12   -6.38

DOCKED: MODEL       96
DOCKED: USER    Run = 96
DOCKED: USER    DPF = D:/Protein_go_brrr/autodock/final/mut_K82N/heme/dock.dpf
DOCKED: USER  
DOCKED: USER    Estimated Free Energy of Binding    =   -4.24 kcal/mol  [=(1)+(2)+(3)-(4)]
DOCKED: USER    Estimated Inhibition Constant, Ki   =  781.94 uM (micromolar)  [Temperature = 298.15 K]
DOCKED: USER    
DOCKED: USER    (1) Final Intermolecular Energy     =   -8.12 kcal/mol
DOCKED: USER        vdW + Hbond + desolv Energy     =   -7.85 kcal/mol
DOCKED: USER        Electrostatic Energy            =   -0.27 kcal/mol
DOCKED: USER    (2) Final Total Internal Energy     =   -3.73 kcal/mol
DOCKED: USER    (3) Torsional Free Energy           =   +3.88 kcal/mol
DOCKED: USER    (4) Unbound System's Energy  [=(2)] =   -3.73 kcal/mol
DOCKED: USER    
DOCKED: USER    
DOCKED: USER    NEWDPF move heme_opt.pdbqt
DOCKED: USER    NEWDPF about 0.153000 0.018000 -0.028000
DOCKED: USER    NEWDPF tran0 13.859613 8.682397 -7.713180
DOCKED: USER    NEWDPF quaternion0 0.522679 0.439546 0.468858 -0.560159
DOCKED: USER    NEWDPF axisangle0 0.630961 0.530605 0.565991 -111.866391
DOCKED: USER    NEWDPF quat0 0.630961 0.530605 0.565991 -111.866391
DOCKED: USER    NEWDPF dihe0 -172.54 159.74 -160.81 -59.55 -42.27 -51.90 140.47 -117.78 124.78 -3.51 -109.11 23.12 -6.38 
DOCKED: USER  keepresnum = 1 
DOCKED: USER  
DOCKED: REMARK  13 active torsions:
DOCKED: REMARK  status: ('A' for Active; 'I' for Inactive)
DOCKED: REMARK    1  A    between atoms: O_3  and  C_38 
DOCKED: REMARK    2  A    between atoms: O_4  and  C_40 
DOCKED: REMARK    3  A    between atoms: O_7  and  C_46 
DOCKED: REMARK    4  A    between atoms: O_9  and  C_48 
DOCKED: REMARK    5  A    between atoms: C_15  and  C_20 
DOCKED: REMARK    6  A    between atoms: C_16  and  C_23 
DOCKED: REMARK    7  A    between atoms: C_20  and  C_38 
DOCKED: REMARK    8  A    between atoms: C_23  and  C_40 
DOCKED: REMARK    9  A    between atoms: C_32  and  C_41 
DOCKED: REMARK   10  A    between atoms: C_37  and  C_45 
DOCKED: REMARK   11  A    between atoms: C_41  and  C_44 
DOCKED: REMARK   12  A    between atoms: C_44  and  C_46 
DOCKED: REMARK   13  A    between atoms: C_47  and  C_48 
DOCKED: USER                              x       y       z     vdW  Elec       q    Type
DOCKED: USER                           _______ _______ _______ _____ _____    ______ ____
DOCKED: ROOT
DOCKED: ATOM      1  O   UNL d   1      13.409   3.068  -5.972 -0.19 +0.02    -0.289 OA
DOCKED: ATOM      2  O   UNL d   1      12.165   6.272 -12.648 -0.04 +0.05    -0.289 OA
DOCKED: ATOM      3  N   UNL d   1      13.677   6.467  -6.491 -0.16 +0.01    -0.247 NA
DOCKED: ATOM      4  N   UNL d   1      13.313   6.740  -9.428 -0.13 +0.03    -0.247 NA
DOCKED: ATOM      5  N   UNL d   1      14.292   9.434  -9.206 -0.04 +0.02    -0.354 N 
DOCKED: ATOM      6  N   UNL d   1      14.685   9.136  -6.163 -0.05 +0.02    -0.354 N 
DOCKED: ATOM      7  C   UNL d   1      14.151   4.962  -4.616 -0.19 +0.00    +0.084 A 
DOCKED: ATOM      8  C   UNL d   1      12.021   5.003 -10.560 -0.18 -0.02    +0.084 A 
DOCKED: ATOM      9  C   UNL d   1      12.678   5.527  -9.279 -0.22 -0.01    +0.058 A 
DOCKED: ATOM     10  C   UNL d   1      14.142   6.382  -5.190 -0.21 -0.00    +0.058 A 
DOCKED: ATOM     11  C   UNL d   1      13.592   4.262  -5.818 -0.17 -0.01    +0.193 A 
DOCKED: ATOM     12  C   UNL d   1      13.322   5.285  -6.877 -0.24 -0.01    +0.109 A 
DOCKED: ATOM     13  C   UNL d   1      12.433   6.124 -11.472 -0.10 -0.04    +0.193 A 
DOCKED: ATOM     14  C   UNL d   1      15.573   4.454  -4.364 -0.08 +0.00    +0.026 C 
DOCKED: ATOM     15  C   UNL d   1      12.677   4.837  -8.128 -0.32 -0.01    +0.055 C 
DOCKED: ATOM     16  C   UNL d   1      10.493   4.992 -10.451 -0.39 -0.01    +0.026 C 
DOCKED: ATOM     17  C   UNL d   1      13.217   7.107 -10.665 -0.17 -0.01    +0.109 A 
DOCKED: ATOM     18  C   UNL d   1      14.477   7.447  -4.437 -0.17 +0.00    +0.050 C 
DOCKED: ATOM     19  C   UNL d   1      14.418   8.801  -4.855 -0.23 -0.00    +0.045 A 
DOCKED: ATOM     20  C   UNL d   1      14.278   9.300 -10.570 -0.16 -0.00    +0.045 A 
DOCKED: ATOM     21  C   UNL d   1      13.791   8.298 -11.308 -0.16 -0.00    +0.057 C 
DOCKED: ATOM     22  C   UNL d   1      15.274  11.285 -10.033 -0.09 +0.00    -0.019 A 
DOCKED: ATOM     23  C   UNL d   1      14.874  10.601  -8.787 -0.12 -0.00    +0.045 A 
DOCKED: ATOM     24  C   UNL d   1      14.918  10.510 -11.085 -0.09 +0.00    -0.022 A 
DOCKED: ATOM     25  C   UNL d   1      14.660  10.502  -6.326 -0.07 -0.00    +0.049 A 
DOCKED: ATOM     26  C   UNL d   1      14.177   9.975  -4.158 -0.29 +0.00    -0.018 A 
DOCKED: ATOM     27  C   UNL d   1      14.312  11.045  -5.096 -0.26 -0.00    +0.003 A 
DOCKED: ATOM     28  C   UNL d   1      15.058  11.097  -7.554 -0.13 -0.00    +0.052 C 
DOCKED: ATOM     29  C   UNL d   1      15.098  10.775 -12.541 -0.04 -0.00    +0.046 C 
DOCKED: ATOM     30  C   UNL d   1      13.841  10.099  -2.711 -0.31 -0.01    +0.046 C 
DOCKED: ATOM     31  H   UNL d   1      13.835   8.756  -8.606 +0.06 -0.01    +0.166 HD
DOCKED: ATOM     32  H   UNL d   1      14.907   8.458  -6.881 +0.04 -0.01    +0.166 HD
DOCKED: ENDROOT
DOCKED: BRANCH   7  33
DOCKED: ATOM     33  C   UNL d   1      13.250   4.740  -3.396 -0.02 +0.02    +0.141 C 
DOCKED: BRANCH  33  34
DOCKED: ATOM     34  C   UNL d   1      13.165   3.293  -2.995 -0.18 +0.10    +0.306 C 
DOCKED: ATOM     35  O   UNL d   1      13.875   2.389  -3.403 -0.63 -0.16    -0.251 OA
DOCKED: BRANCH  34  36
DOCKED: ATOM     36  O   UNL d   1      12.191   3.060  -2.098 -0.64 -0.18    -0.481 OA
DOCKED: ATOM     37  H   UNL d   1      11.731   3.921  -2.004 -0.31 +0.01    +0.295 HD
DOCKED: ENDBRANCH  34  36
DOCKED: ENDBRANCH  33  34
DOCKED: ENDBRANCH   7  33
DOCKED: BRANCH  27  38
DOCKED: ATOM     38  C   UNL d   1      14.160  12.435  -4.790 -0.25 -0.00    +0.017 C 
DOCKED: ATOM     39  C   UNL d   1      13.259  13.257  -5.349 -0.29 -0.01    +0.092 C 
DOCKED: BRANCH  39  40
DOCKED: ATOM     40  C   UNL d   1      13.194  14.661  -4.934 -0.12 -0.04    +0.330 C 
DOCKED: ATOM     41  O   UNL d   1      13.073  15.097  -3.805 -0.12 +0.04    -0.246 OA
DOCKED: BRANCH  40  42
DOCKED: ATOM     42  O   UNL d   1      13.300  15.464  -6.003 -0.04 +0.03    -0.477 OA
DOCKED: ATOM     43  H   UNL d   1      13.715  14.895  -6.684 +0.07 -0.02    +0.295 HD
DOCKED: ENDBRANCH  40  42
DOCKED: ENDBRANCH  39  40
DOCKED: ENDBRANCH  27  38
DOCKED: BRANCH   8  44
DOCKED: ATOM     44  C   UNL d   1      12.549   3.658 -11.071 -0.11 -0.05    +0.141 C 
DOCKED: BRANCH  44  45
DOCKED: ATOM     45  C   UNL d   1      14.045   3.633 -11.239 -0.01 -0.08    +0.306 C 
DOCKED: ATOM     46  O   UNL d   1      14.859   3.208 -10.438 -0.02 +0.06    -0.251 OA
DOCKED: BRANCH  45  47
DOCKED: ATOM     47  O   UNL d   1      14.441   4.173 -12.406 +0.01 +0.09    -0.481 OA
DOCKED: ATOM     48  H   UNL d   1      13.674   4.706 -12.705 +0.04 -0.06    +0.295 HD
DOCKED: ENDBRANCH  45  47
DOCKED: ENDBRANCH  44  45
DOCKED: ENDBRANCH   8  44
DOCKED: BRANCH  22  49
DOCKED: ATOM     49  C   UNL d   1      15.975  12.611 -10.078 -0.04 -0.00    +0.048 C 
DOCKED: BRANCH  49  50
DOCKED: ATOM     50  C   UNL d   1      14.985  13.775 -10.133 -0.05 -0.00    +0.125 C 
DOCKED: BRANCH  50  51
DOCKED: ATOM     51  C   UNL d   1      14.291  13.951  -8.812 -0.07 -0.01    +0.305 C 
DOCKED: ATOM     52  O   UNL d   1      13.091  13.952  -8.598 -0.16 +0.00    -0.251 OA
DOCKED: BRANCH  51  53
DOCKED: ATOM     53  O   UNL d   1      15.165  14.133  -7.803 -0.00 +0.02    -0.481 OA
DOCKED: ATOM     54  H   UNL d   1      14.931  15.013  -7.440 +0.04 -0.02    +0.295 HD
DOCKED: ENDBRANCH  51  53
DOCKED: ENDBRANCH  50  51
DOCKED: ENDBRANCH  49  50
DOCKED: ENDBRANCH  22  49
DOCKED: TORSDOF 13
DOCKED: TER
DOCKED: ENDMDL
________________________________________________________________________________


	BEGINNING GENETIC ALGORITHM DOCKING 97 of 100
Run: 97 Seed: 1676870835 1846760284 [ Run 97 of 100 GA/GALS ]
Beginning LAMARCKIAN GENETIC ALGORITHM (LGA), with a maximum of 25000000 energy evaluations.

Final-Value: -12.829


	FINAL GENETIC ALGORITHM DOCKED STATE
	_______________________________________________


Detailed state:  trans -8.303 7.186 -14.377 quatxyzw 0.062308 -0.744421 0.573072 0.336963 center 0.153 0.018 -0.028 ntor 13 89.0145 -175.8021 -180.0000 -47.4170 -136.7509 79.5504 -45.1705 -87.7068 61.7101 -4.8857 -93.0088 -82.2671 -6.6538
State:	 -8.303   7.186 -14.377   0.066 -0.791  0.609 140.616     89.01 -175.80 -180.00  -47.42 -136.75   79.55  -45.17  -87.71   61.71   -4.89  -93.01  -82.27   -6.65

DOCKED: MODEL       97
DOCKED: USER    Run = 97
DOCKED: USER    DPF = D:/Protein_go_brrr/autodock/final/mut_K82N/heme/dock.dpf
DOCKED: USER  
DOCKED: USER    Estimated Free Energy of Binding    =   -4.82 kcal/mol  [=(1)+(2)+(3)-(4)]
DOCKED: USER    Estimated Inhibition Constant, Ki   =  295.46 uM (micromolar)  [Temperature = 298.15 K]
DOCKED: USER    
DOCKED: USER    (1) Final Intermolecular Energy     =   -8.69 kcal/mol
DOCKED: USER        vdW + Hbond + desolv Energy     =   -8.47 kcal/mol
DOCKED: USER        Electrostatic Energy            =   -0.22 kcal/mol
DOCKED: USER    (2) Final Total Internal Energy     =   -4.14 kcal/mol
DOCKED: USER    (3) Torsional Free Energy           =   +3.88 kcal/mol
DOCKED: USER    (4) Unbound System's Energy  [=(2)] =   -4.14 kcal/mol
DOCKED: USER    
DOCKED: USER    
DOCKED: USER    NEWDPF move heme_opt.pdbqt
DOCKED: USER    NEWDPF about 0.153000 0.018000 -0.028000
DOCKED: USER    NEWDPF tran0 -8.302509 7.186321 -14.377192
DOCKED: USER    NEWDPF quaternion0 0.062308 -0.744421 0.573072 0.336963
DOCKED: USER    NEWDPF axisangle0 0.066179 -0.790660 0.608668 140.616149
DOCKED: USER    NEWDPF quat0 0.066179 -0.790660 0.608668 140.616149
DOCKED: USER    NEWDPF dihe0 89.01 -175.80 -180.00 -47.42 -136.75 79.55 -45.17 -87.71 61.71 -4.89 -93.01 -82.27 -6.65 
DOCKED: USER  keepresnum = 1 
DOCKED: USER  
DOCKED: REMARK  13 active torsions:
DOCKED: REMARK  status: ('A' for Active; 'I' for Inactive)
DOCKED: REMARK    1  A    between atoms: O_3  and  C_38 
DOCKED: REMARK    2  A    between atoms: O_4  and  C_40 
DOCKED: REMARK    3  A    between atoms: O_7  and  C_46 
DOCKED: REMARK    4  A    between atoms: O_9  and  C_48 
DOCKED: REMARK    5  A    between atoms: C_15  and  C_20 
DOCKED: REMARK    6  A    between atoms: C_16  and  C_23 
DOCKED: REMARK    7  A    between atoms: C_20  and  C_38 
DOCKED: REMARK    8  A    between atoms: C_23  and  C_40 
DOCKED: REMARK    9  A    between atoms: C_32  and  C_41 
DOCKED: REMARK   10  A    between atoms: C_37  and  C_45 
DOCKED: REMARK   11  A    between atoms: C_41  and  C_44 
DOCKED: REMARK   12  A    between atoms: C_44  and  C_46 
DOCKED: REMARK   13  A    between atoms: C_47  and  C_48 
DOCKED: USER                              x       y       z     vdW  Elec       q    Type
DOCKED: USER                           _______ _______ _______ _____ _____    ______ ____
DOCKED: ROOT
DOCKED: ATOM      1  O   UNL d   1      -3.142   9.915 -13.550 -0.11 +0.09    -0.289 OA
DOCKED: ATOM      2  O   UNL d   1      -8.596   8.114  -8.712 -0.10 -0.06    -0.289 OA
DOCKED: ATOM      3  N   UNL d   1      -6.090   8.417 -14.531 -0.08 +0.03    -0.247 NA
DOCKED: ATOM      4  N   UNL d   1      -7.449   7.831 -11.955 +0.00 -0.01    -0.247 NA
DOCKED: ATOM      5  N   UNL d   1      -9.260   6.131 -13.403 -0.04 -0.04    -0.354 N 
DOCKED: ATOM      6  N   UNL d   1      -7.833   6.730 -16.069 -0.13 +0.03    -0.354 N 
DOCKED: ATOM      7  C   UNL d   1      -3.993   9.008 -15.655 -0.19 -0.02    +0.084 A 
DOCKED: ATOM      8  C   UNL d   1      -6.883   9.246 -10.045 -0.25 -0.00    +0.084 A 
DOCKED: ATOM      9  C   UNL d   1      -6.631   8.842 -11.501 -0.20 -0.00    +0.058 A 
DOCKED: ATOM     10  C   UNL d   1      -5.394   8.392 -15.728 -0.19 -0.01    +0.058 A 
DOCKED: ATOM     11  C   UNL d   1      -4.029   9.403 -14.209 -0.21 -0.05    +0.193 A 
DOCKED: ATOM     12  C   UNL d   1      -5.361   9.015 -13.646 -0.19 -0.02    +0.109 A 
DOCKED: ATOM     13  C   UNL d   1      -7.969   8.252  -9.744 -0.11 +0.02    +0.193 A 
DOCKED: ATOM     14  C   UNL d   1      -2.894   7.962 -15.855 -0.35 -0.01    +0.026 C 
DOCKED: ATOM     15  C   UNL d   1      -5.663   9.391 -12.250 -0.24 -0.01    +0.055 C 
DOCKED: ATOM     16  C   UNL d   1      -7.465  10.659  -9.940 -0.27 +0.00    +0.026 C 
DOCKED: ATOM     17  C   UNL d   1      -8.213   7.450 -10.982 -0.11 +0.01    +0.109 A 
DOCKED: ATOM     18  C   UNL d   1      -5.909   7.954 -16.892 -0.22 -0.01    +0.050 C 
DOCKED: ATOM     19  C   UNL d   1      -7.222   7.448 -17.072 -0.17 -0.01    +0.045 A 
DOCKED: ATOM     20  C   UNL d   1      -9.607   5.804 -12.118 -0.16 +0.01    +0.045 A 
DOCKED: ATOM     21  C   UNL d   1      -9.202   6.362 -10.973 -0.15 +0.01    +0.057 C 
DOCKED: ATOM     22  C   UNL d   1     -10.703   4.408 -13.556 -0.20 -0.01    -0.019 A 
DOCKED: ATOM     23  C   UNL d   1      -9.872   5.343 -14.341 -0.23 +0.01    +0.045 A 
DOCKED: ATOM     24  C   UNL d   1     -10.542   4.687 -12.241 -0.18 -0.01    -0.022 A 
DOCKED: ATOM     25  C   UNL d   1      -9.056   6.260 -16.487 -0.21 +0.00    +0.049 A 
DOCKED: ATOM     26  C   UNL d   1      -8.085   7.478 -18.156 -0.12 +0.00    -0.018 A 
DOCKED: ATOM     27  C   UNL d   1      -9.250   6.743 -17.774 -0.14 +0.00    +0.003 A 
DOCKED: ATOM     28  C   UNL d   1      -9.806   5.361 -15.681 -0.27 +0.01    +0.052 C 
DOCKED: ATOM     29  C   UNL d   1     -11.178   4.029 -11.064 -0.15 +0.02    +0.046 C 
DOCKED: ATOM     30  C   UNL d   1      -7.846   8.148 -19.466 -0.06 -0.00    +0.046 C 
DOCKED: ATOM     31  H   UNL d   1      -8.672   6.934 -13.601 +0.04 +0.01    +0.166 HD
DOCKED: ATOM     32  H   UNL d   1      -7.405   6.548 -15.169 +0.10 -0.01    +0.166 HD
DOCKED: ENDROOT
DOCKED: BRANCH   7  33
DOCKED: ATOM     33  C   UNL d   1      -3.769  10.237 -16.543 -0.10 -0.05    +0.141 C 
DOCKED: BRANCH  33  34
DOCKED: ATOM     34  C   UNL d   1      -3.644  11.509 -15.750 -0.14 -0.17    +0.306 C 
DOCKED: ATOM     35  O   UNL d   1      -4.564  12.185 -15.323 -0.15 +0.13    -0.251 OA
DOCKED: BRANCH  34  36
DOCKED: ATOM     36  O   UNL d   1      -2.364  11.862 -15.535 -0.15 +0.44    -0.481 OA
DOCKED: ATOM     37  H   UNL d   1      -2.144  11.473 -14.662 -0.38 -0.26    +0.295 HD
DOCKED: ENDBRANCH  34  36
DOCKED: ENDBRANCH  33  34
DOCKED: ENDBRANCH   7  33
DOCKED: BRANCH  27  38
DOCKED: ATOM     38  C   UNL d   1     -10.391   6.513 -18.608 -0.08 +0.00    +0.017 C 
DOCKED: ATOM     39  C   UNL d   1     -11.013   5.334 -18.761 -0.11 +0.02    +0.092 C 
DOCKED: BRANCH  39  40
DOCKED: ATOM     40  C   UNL d   1     -12.186   5.235 -19.634 -0.03 +0.07    +0.330 C 
DOCKED: ATOM     41  O   UNL d   1     -12.205   5.186 -20.850 -0.01 -0.03    -0.246 OA
DOCKED: BRANCH  40  42
DOCKED: ATOM     42  O   UNL d   1     -13.307   5.193 -18.899 -0.00 -0.13    -0.477 OA
DOCKED: ATOM     43  H   UNL d   1     -12.990   5.311 -17.980 +0.03 +0.10    +0.295 HD
DOCKED: ENDBRANCH  40  42
DOCKED: ENDBRANCH  39  40
DOCKED: ENDBRANCH  27  38
DOCKED: BRANCH   8  44
DOCKED: ATOM     44  C   UNL d   1      -5.694   9.064  -9.094 -0.41 -0.01    +0.141 C 
DOCKED: BRANCH  44  45
DOCKED: ATOM     45  C   UNL d   1      -5.136   7.666  -9.102 -0.29 -0.02    +0.306 C 
DOCKED: ATOM     46  O   UNL d   1      -5.488   6.739  -8.395 -0.27 -0.01    -0.251 OA
DOCKED: BRANCH  45  47
DOCKED: ATOM     47  O   UNL d   1      -4.136   7.517  -9.990 -0.20 +0.07    -0.481 OA
DOCKED: ATOM     48  H   UNL d   1      -4.050   8.396 -10.417 -0.31 -0.14    +0.295 HD
DOCKED: ENDBRANCH  45  47
DOCKED: ENDBRANCH  44  45
DOCKED: ENDBRANCH   8  44
DOCKED: BRANCH  22  49
DOCKED: ATOM     49  C   UNL d   1     -11.556   3.330 -14.158 -0.11 +0.03    +0.048 C 
DOCKED: BRANCH  49  50
DOCKED: ATOM     50  C   UNL d   1     -12.970   3.826 -14.459 -0.13 +0.08    +0.125 C 
DOCKED: BRANCH  50  51
DOCKED: ATOM     51  C   UNL d   1     -13.044   4.440 -15.828 -0.08 +0.20    +0.305 C 
DOCKED: ATOM     52  O   UNL d   1     -12.923   5.616 -16.122 -0.03 -0.08    -0.251 OA
DOCKED: BRANCH  51  53
DOCKED: ATOM     53  O   UNL d   1     -13.285   3.518 -16.781 -0.63 -0.67    -0.481 OA
DOCKED: ATOM     54  H   UNL d   1     -14.009   3.910 -17.314 +0.02 +0.23    +0.295 HD
DOCKED: ENDBRANCH  51  53
DOCKED: ENDBRANCH  50  51
DOCKED: ENDBRANCH  49  50
DOCKED: ENDBRANCH  22  49
DOCKED: TORSDOF 13
DOCKED: TER
DOCKED: ENDMDL
________________________________________________________________________________


	BEGINNING GENETIC ALGORITHM DOCKING 98 of 100
Run: 98 Seed: 916460977 1353976230 [ Run 98 of 100 GA/GALS ]
Beginning LAMARCKIAN GENETIC ALGORITHM (LGA), with a maximum of 25000000 energy evaluations.

Final-Value: -12.207


	FINAL GENETIC ALGORITHM DOCKED STATE
	_______________________________________________


Detailed state:  trans -9.151 -3.689 8.202 quatxyzw -0.380118 -0.372533 0.590738 -0.606431 center 0.153 0.018 -0.028 ntor 13 -145.2615 65.9056 -174.7115 96.7750 -156.0382 -127.8227 141.0601 -180.0000 -158.9455 -13.7793 -30.3303 -115.5502 -130.0358
State:	 -9.151  -3.689   8.202  -0.478 -0.469  0.743 -105.336   -145.26   65.91 -174.71   96.77 -156.04 -127.82  141.06 -180.00 -158.95  -13.78  -30.33 -115.55 -130.04

DOCKED: MODEL       98
DOCKED: USER    Run = 98
DOCKED: USER    DPF = D:/Protein_go_brrr/autodock/final/mut_K82N/heme/dock.dpf
DOCKED: USER  
DOCKED: USER    Estimated Free Energy of Binding    =   -6.88 kcal/mol  [=(1)+(2)+(3)-(4)]
DOCKED: USER    Estimated Inhibition Constant, Ki   =    9.10 uM (micromolar)  [Temperature = 298.15 K]
DOCKED: USER    
DOCKED: USER    (1) Final Intermolecular Energy     =  -10.76 kcal/mol
DOCKED: USER        vdW + Hbond + desolv Energy     =  -10.06 kcal/mol
DOCKED: USER        Electrostatic Energy            =   -0.69 kcal/mol
DOCKED: USER    (2) Final Total Internal Energy     =   -1.45 kcal/mol
DOCKED: USER    (3) Torsional Free Energy           =   +3.88 kcal/mol
DOCKED: USER    (4) Unbound System's Energy  [=(2)] =   -1.45 kcal/mol
DOCKED: USER    
DOCKED: USER    
DOCKED: USER    NEWDPF move heme_opt.pdbqt
DOCKED: USER    NEWDPF about 0.153000 0.018000 -0.028000
DOCKED: USER    NEWDPF tran0 -9.150552 -3.689263 8.201625
DOCKED: USER    NEWDPF quaternion0 -0.380118 -0.372533 0.590738 -0.606431
DOCKED: USER    NEWDPF axisangle0 -0.478054 -0.468514 0.742939 -105.336235
DOCKED: USER    NEWDPF quat0 -0.478054 -0.468514 0.742939 -105.336235
DOCKED: USER    NEWDPF dihe0 -145.26 65.91 -174.71 96.77 -156.04 -127.82 141.06 -180.00 -158.95 -13.78 -30.33 -115.55 -130.04 
DOCKED: USER  keepresnum = 1 
DOCKED: USER  
DOCKED: REMARK  13 active torsions:
DOCKED: REMARK  status: ('A' for Active; 'I' for Inactive)
DOCKED: REMARK    1  A    between atoms: O_3  and  C_38 
DOCKED: REMARK    2  A    between atoms: O_4  and  C_40 
DOCKED: REMARK    3  A    between atoms: O_7  and  C_46 
DOCKED: REMARK    4  A    between atoms: O_9  and  C_48 
DOCKED: REMARK    5  A    between atoms: C_15  and  C_20 
DOCKED: REMARK    6  A    between atoms: C_16  and  C_23 
DOCKED: REMARK    7  A    between atoms: C_20  and  C_38 
DOCKED: REMARK    8  A    between atoms: C_23  and  C_40 
DOCKED: REMARK    9  A    between atoms: C_32  and  C_41 
DOCKED: REMARK   10  A    between atoms: C_37  and  C_45 
DOCKED: REMARK   11  A    between atoms: C_41  and  C_44 
DOCKED: REMARK   12  A    between atoms: C_44  and  C_46 
DOCKED: REMARK   13  A    between atoms: C_47  and  C_48 
DOCKED: USER                              x       y       z     vdW  Elec       q    Type
DOCKED: USER                           _______ _______ _______ _____ _____    ______ ____
DOCKED: ROOT
DOCKED: ATOM      1  O   UNL d   1     -10.604  -9.263   6.945 +0.02 +0.05    -0.289 OA
DOCKED: ATOM      2  O   UNL d   1      -5.693  -6.442  11.877 -0.38 +0.04    -0.289 OA
DOCKED: ATOM      3  N   UNL d   1      -9.983  -5.883   7.239 -0.12 +0.07    -0.247 NA
DOCKED: ATOM      4  N   UNL d   1      -8.178  -5.721   9.593 -0.11 +0.04    -0.247 NA
DOCKED: ATOM      5  N   UNL d   1      -8.652  -2.886   9.646 -0.11 +0.05    -0.354 N 
DOCKED: ATOM      6  N   UNL d   1     -10.539  -3.065   7.215 -0.05 +0.06    -0.354 N 
DOCKED: ATOM      7  C   UNL d   1     -11.574  -7.245   5.965 -0.13 -0.04    +0.084 A 
DOCKED: ATOM      8  C   UNL d   1      -6.821  -7.690  10.099 -0.23 -0.01    +0.084 A 
DOCKED: ATOM      9  C   UNL d   1      -7.921  -7.032   9.259 -0.19 -0.01    +0.058 A 
DOCKED: ATOM     10  C   UNL d   1     -11.036  -5.861   6.339 -0.17 -0.03    +0.058 A 
DOCKED: ATOM     11  C   UNL d   1     -10.627  -8.055   6.799 -0.06 -0.05    +0.193 A 
DOCKED: ATOM     12  C   UNL d   1      -9.696  -7.116   7.502 -0.16 -0.03    +0.109 A 
DOCKED: ATOM     13  C   UNL d   1      -6.527  -6.521  10.996 -0.24 -0.02    +0.193 A 
DOCKED: ATOM     14  C   UNL d   1     -12.999  -7.465   6.480 -0.05 -0.01    +0.026 C 
DOCKED: ATOM     15  C   UNL d   1      -8.608  -7.695   8.315 -0.24 -0.01    +0.055 C 
DOCKED: ATOM     16  C   UNL d   1      -5.574  -7.994   9.263 -0.51 -0.00    +0.026 C 
DOCKED: ATOM     17  C   UNL d   1      -7.422  -5.395  10.592 -0.16 -0.02    +0.109 A 
DOCKED: ATOM     18  C   UNL d   1     -11.507  -4.742   5.756 -0.19 -0.03    +0.050 C 
DOCKED: ATOM     19  C   UNL d   1     -11.015  -3.430   5.976 -0.18 -0.02    +0.045 A 
DOCKED: ATOM     20  C   UNL d   1      -7.992  -3.037  10.838 -0.30 -0.01    +0.045 A 
DOCKED: ATOM     21  C   UNL d   1      -7.387  -4.123  11.329 -0.32 -0.01    +0.057 C 
DOCKED: ATOM     22  C   UNL d   1      -8.760  -0.891  10.685 -0.24 +0.00    -0.019 A 
DOCKED: ATOM     23  C   UNL d   1      -9.152  -1.624   9.465 -0.21 -0.01    +0.045 A 
DOCKED: ATOM     24  C   UNL d   1      -8.072  -1.732  11.493 -0.35 +0.01    -0.022 A 
DOCKED: ATOM     25  C   UNL d   1     -10.199  -1.732   7.228 -0.18 -0.00    +0.049 A 
DOCKED: ATOM     26  C   UNL d   1     -10.948  -2.316   5.153 -0.25 +0.01    -0.018 A 
DOCKED: ATOM     27  C   UNL d   1     -10.414  -1.252   5.944 -0.27 -0.00    +0.003 A 
DOCKED: ATOM     28  C   UNL d   1      -9.830  -1.086   8.440 -0.21 -0.00    +0.052 C 
DOCKED: ATOM     29  C   UNL d   1      -7.462  -1.456  12.825 -0.31 -0.02    +0.046 C 
DOCKED: ATOM     30  C   UNL d   1     -11.353  -2.243   3.720 -0.26 -0.03    +0.046 C 
DOCKED: ATOM     31  H   UNL d   1      -8.677  -3.633   8.960 +0.07 -0.02    +0.166 HD
DOCKED: ATOM     32  H   UNL d   1     -10.493  -3.697   8.006 +0.05 -0.03    +0.166 HD
DOCKED: ENDROOT
DOCKED: BRANCH   7  33
DOCKED: ATOM     33  C   UNL d   1     -11.446  -7.622   4.485 -0.21 -0.11    +0.141 C 
DOCKED: BRANCH  33  34
DOCKED: ATOM     34  C   UNL d   1     -12.778  -7.695   3.789 -0.09 -0.23    +0.306 C 
DOCKED: ATOM     35  O   UNL d   1     -13.393  -8.711   3.514 -0.08 +0.11    -0.251 OA
DOCKED: BRANCH  34  36
DOCKED: ATOM     36  O   UNL d   1     -13.266  -6.481   3.476 -0.02 +0.53    -0.481 OA
DOCKED: ATOM     37  H   UNL d   1     -12.472  -5.934   3.297 -0.42 -0.74    +0.295 HD
DOCKED: ENDBRANCH  34  36
DOCKED: ENDBRANCH  33  34
DOCKED: ENDBRANCH   7  33
DOCKED: BRANCH  27  38
DOCKED: ATOM     38  C   UNL d   1     -10.193   0.086   5.485 -0.26 -0.00    +0.017 C 
DOCKED: ATOM     39  C   UNL d   1     -10.994   1.133   5.736 -0.25 -0.01    +0.092 C 
DOCKED: BRANCH  39  40
DOCKED: ATOM     40  C   UNL d   1     -10.645   2.459   5.221 -0.18 -0.03    +0.330 C 
DOCKED: ATOM     41  O   UNL d   1     -10.599   3.507   5.837 -0.29 +0.04    -0.246 OA
DOCKED: BRANCH  40  42
DOCKED: ATOM     42  O   UNL d   1     -10.353   2.385   3.914 -0.19 +0.06    -0.477 OA
DOCKED: ATOM     43  H   UNL d   1      -9.401   2.611   3.872 -0.17 -0.12    +0.295 HD
DOCKED: ENDBRANCH  40  42
DOCKED: ENDBRANCH  39  40
DOCKED: ENDBRANCH  27  38
DOCKED: BRANCH   8  44
DOCKED: ATOM     44  C   UNL d   1      -7.254  -8.913  10.914 -0.11 -0.01    +0.141 C 
DOCKED: BRANCH  44  45
DOCKED: ATOM     45  C   UNL d   1      -8.285  -8.593  11.963 -0.04 -0.02    +0.306 C 
DOCKED: ATOM     46  O   UNL d   1      -9.492  -8.728  11.862 -0.02 +0.02    -0.251 OA
DOCKED: BRANCH  45  47
DOCKED: ATOM     47  O   UNL d   1      -7.738  -8.089  13.085 -0.03 +0.03    -0.481 OA
DOCKED: ATOM     48  H   UNL d   1      -6.784  -7.999  12.877 +0.10 -0.02    +0.295 HD
DOCKED: ENDBRANCH  45  47
DOCKED: ENDBRANCH  44  45
DOCKED: ENDBRANCH   8  44
DOCKED: BRANCH  22  49
DOCKED: ATOM     49  C   UNL d   1      -9.103   0.545  10.952 -0.26 -0.01    +0.048 C 
DOCKED: BRANCH  49  50
DOCKED: ATOM     50  C   UNL d   1      -9.336   0.808  12.440 -0.18 -0.03    +0.125 C 
DOCKED: BRANCH  50  51
DOCKED: ATOM     51  C   UNL d   1      -8.973   2.221  12.799 -0.17 -0.08    +0.305 C 
DOCKED: ATOM     52  O   UNL d   1      -9.137   2.781  13.868 -0.15 +0.05    -0.251 OA
DOCKED: BRANCH  51  53
DOCKED: ATOM     53  O   UNL d   1      -8.419   2.878  11.761 -0.62 +0.05    -0.481 OA
DOCKED: ATOM     54  H   UNL d   1      -7.474   2.619  11.792 -0.41 -0.10    +0.295 HD
DOCKED: ENDBRANCH  51  53
DOCKED: ENDBRANCH  50  51
DOCKED: ENDBRANCH  49  50
DOCKED: ENDBRANCH  22  49
DOCKED: TORSDOF 13
DOCKED: TER
DOCKED: ENDMDL
________________________________________________________________________________


	BEGINNING GENETIC ALGORITHM DOCKING 99 of 100
Run: 99 Seed: 751849510 1953919818 [ Run 99 of 100 GA/GALS ]
Beginning LAMARCKIAN GENETIC ALGORITHM (LGA), with a maximum of 25000000 energy evaluations.

Final-Value: -10.155


	FINAL GENETIC ALGORITHM DOCKED STATE
	_______________________________________________


Detailed state:  trans -11.755 15.520 3.179 quatxyzw -0.755660 0.440210 -0.460915 -0.150830 center 0.153 0.018 -0.028 ntor 13 -179.7098 176.3895 -103.1911 64.3205 53.4788 -101.4867 -179.9458 47.1149 158.1778 14.3024 -77.5118 65.9447 14.5835
State:	-11.755  15.520   3.179  -0.764  0.445 -0.466 -162.650   -179.71  176.39 -103.19   64.32   53.48 -101.49 -179.95   47.11  158.18   14.30  -77.51   65.94   14.58

DOCKED: MODEL       99
DOCKED: USER    Run = 99
DOCKED: USER    DPF = D:/Protein_go_brrr/autodock/final/mut_K82N/heme/dock.dpf
DOCKED: USER  
DOCKED: USER    Estimated Free Energy of Binding    =   -2.61 kcal/mol  [=(1)+(2)+(3)-(4)]
DOCKED: USER    Estimated Inhibition Constant, Ki   =   12.12 mM (millimolar)  [Temperature = 298.15 K]
DOCKED: USER    
DOCKED: USER    (1) Final Intermolecular Energy     =   -6.49 kcal/mol
DOCKED: USER        vdW + Hbond + desolv Energy     =   -6.06 kcal/mol
DOCKED: USER        Electrostatic Energy            =   -0.43 kcal/mol
DOCKED: USER    (2) Final Total Internal Energy     =   -3.66 kcal/mol
DOCKED: USER    (3) Torsional Free Energy           =   +3.88 kcal/mol
DOCKED: USER    (4) Unbound System's Energy  [=(2)] =   -3.66 kcal/mol
DOCKED: USER    
DOCKED: USER    
DOCKED: USER    NEWDPF move heme_opt.pdbqt
DOCKED: USER    NEWDPF about 0.153000 0.018000 -0.028000
DOCKED: USER    NEWDPF tran0 -11.754794 15.520256 3.178850
DOCKED: USER    NEWDPF quaternion0 -0.755660 0.440210 -0.460915 -0.150830
DOCKED: USER    NEWDPF axisangle0 -0.764405 0.445304 -0.466249 -162.649931
DOCKED: USER    NEWDPF quat0 -0.764405 0.445304 -0.466249 -162.649931
DOCKED: USER    NEWDPF dihe0 -179.71 176.39 -103.19 64.32 53.48 -101.49 -179.95 47.11 158.18 14.30 -77.51 65.94 14.58 
DOCKED: USER  keepresnum = 1 
DOCKED: USER  
DOCKED: REMARK  13 active torsions:
DOCKED: REMARK  status: ('A' for Active; 'I' for Inactive)
DOCKED: REMARK    1  A    between atoms: O_3  and  C_38 
DOCKED: REMARK    2  A    between atoms: O_4  and  C_40 
DOCKED: REMARK    3  A    between atoms: O_7  and  C_46 
DOCKED: REMARK    4  A    between atoms: O_9  and  C_48 
DOCKED: REMARK    5  A    between atoms: C_15  and  C_20 
DOCKED: REMARK    6  A    between atoms: C_16  and  C_23 
DOCKED: REMARK    7  A    between atoms: C_20  and  C_38 
DOCKED: REMARK    8  A    between atoms: C_23  and  C_40 
DOCKED: REMARK    9  A    between atoms: C_32  and  C_41 
DOCKED: REMARK   10  A    between atoms: C_37  and  C_45 
DOCKED: REMARK   11  A    between atoms: C_41  and  C_44 
DOCKED: REMARK   12  A    between atoms: C_44  and  C_46 
DOCKED: REMARK   13  A    between atoms: C_47  and  C_48 
DOCKED: USER                              x       y       z     vdW  Elec       q    Type
DOCKED: USER                           _______ _______ _______ _____ _____    ______ ____
DOCKED: ROOT
DOCKED: ATOM      1  O   UNL d   1     -13.159  18.961  -1.398 -0.05 -0.05    -0.289 OA
DOCKED: ATOM      2  O   UNL d   1     -11.012  20.686   5.588 -0.01 -0.02    -0.289 OA
DOCKED: ATOM      3  N   UNL d   1     -12.564  16.571   1.017 -0.05 -0.04    -0.247 NA
DOCKED: ATOM      4  N   UNL d   1     -11.496  18.153   3.294 -0.06 -0.04    -0.247 NA
DOCKED: ATOM      5  N   UNL d   1     -10.647  15.681   4.493 -0.08 -0.08    -0.354 N 
DOCKED: ATOM      6  N   UNL d   1     -11.740  14.050   2.117 -0.14 -0.03    -0.354 N 
DOCKED: ATOM      7  C   UNL d   1     -13.077  16.518  -1.379 -0.15 +0.02    +0.084 A 
DOCKED: ATOM      8  C   UNL d   1     -12.163  20.500   3.436 -0.05 +0.01    +0.084 A 
DOCKED: ATOM      9  C   UNL d   1     -12.167  19.177   2.663 -0.09 +0.01    +0.058 A 
DOCKED: ATOM     10  C   UNL d   1     -12.768  15.758  -0.085 -0.19 +0.01    +0.058 A 
DOCKED: ATOM     11  C   UNL d   1     -13.029  17.903  -0.809 -0.09 +0.03    +0.193 A 
DOCKED: ATOM     12  C   UNL d   1     -12.736  17.801   0.656 -0.03 +0.02    +0.109 A 
DOCKED: ATOM     13  C   UNL d   1     -11.334  20.048   4.605 -0.03 +0.02    +0.193 A 
DOCKED: ATOM     14  C   UNL d   1     -11.958  16.369  -2.414 -0.23 +0.01    +0.026 C 
DOCKED: ATOM     15  C   UNL d   1     -12.732  19.044   1.453 -0.10 +0.01    +0.055 C 
DOCKED: ATOM     16  C   UNL d   1     -13.562  20.869   3.938 -0.02 +0.00    +0.026 C 
DOCKED: ATOM     17  C   UNL d   1     -10.988  18.610   4.394 -0.09 +0.02    +0.109 A 
DOCKED: ATOM     18  C   UNL d   1     -12.791  14.413  -0.037 -0.22 +0.01    +0.050 C 
DOCKED: ATOM     19  C   UNL d   1     -12.601  13.629   1.129 -0.17 +0.00    +0.045 A 
DOCKED: ATOM     20  C   UNL d   1     -10.023  16.573   5.326 -0.16 +0.01    +0.045 A 
DOCKED: ATOM     21  C   UNL d   1     -10.139  17.905   5.366 -0.13 +0.02    +0.057 C 
DOCKED: ATOM     22  C   UNL d   1      -9.330  14.462   5.853 -0.18 -0.01    -0.019 A 
DOCKED: ATOM     23  C   UNL d   1     -10.291  14.381   4.735 -0.21 +0.01    +0.045 A 
DOCKED: ATOM     24  C   UNL d   1      -9.176  15.762   6.199 -0.16 -0.01    -0.022 A 
DOCKED: ATOM     25  C   UNL d   1     -11.640  13.100   3.107 -0.22 +0.00    +0.049 A 
DOCKED: ATOM     26  C   UNL d   1     -13.101  12.391   1.504 -0.07 -0.00    -0.018 A 
DOCKED: ATOM     27  C   UNL d   1     -12.506  12.071   2.763 -0.14 +0.00    +0.003 A 
DOCKED: ATOM     28  C   UNL d   1     -10.691  13.239   4.157 -0.28 +0.01    +0.052 C 
DOCKED: ATOM     29  C   UNL d   1      -8.325  16.347   7.274 -0.12 +0.04    +0.046 C 
DOCKED: ATOM     30  C   UNL d   1     -14.074  11.556   0.742 -0.08 +0.01    +0.046 C 
DOCKED: ATOM     31  H   UNL d   1     -11.355  15.985   3.832 +0.04 +0.03    +0.166 HD
DOCKED: ATOM     32  H   UNL d   1     -11.229  14.924   2.080 +0.01 +0.02    +0.166 HD
DOCKED: ENDROOT
DOCKED: BRANCH   7  33
DOCKED: ATOM     33  C   UNL d   1     -14.452  16.236  -1.994 -0.05 +0.02    +0.141 C 
DOCKED: BRANCH  33  34
DOCKED: ATOM     34  C   UNL d   1     -14.481  16.471  -3.480 -0.03 +0.07    +0.306 C 
DOCKED: ATOM     35  O   UNL d   1     -14.536  15.612  -4.344 -0.03 -0.07    -0.251 OA
DOCKED: BRANCH  34  36
DOCKED: ATOM     36  O   UNL d   1     -14.444  17.776  -3.799 -0.00 -0.12    -0.481 OA
DOCKED: ATOM     37  H   UNL d   1     -14.443  18.242  -2.936 +0.03 +0.06    +0.295 HD
DOCKED: ENDBRANCH  34  36
DOCKED: ENDBRANCH  33  34
DOCKED: ENDBRANCH   7  33
DOCKED: BRANCH  27  38
DOCKED: ATOM     38  C   UNL d   1     -12.737  10.868   3.503 -0.18 +0.00    +0.017 C 
DOCKED: ATOM     39  C   UNL d   1     -13.829  10.609   4.239 -0.09 +0.02    +0.092 C 
DOCKED: BRANCH  39  40
DOCKED: ATOM     40  C   UNL d   1     -13.952   9.326   4.937 -0.02 +0.23    +0.330 C 
DOCKED: ATOM     41  O   UNL d   1     -14.633   8.370   4.620 -0.48 -0.21    -0.246 OA
DOCKED: BRANCH  40  42
DOCKED: ATOM     42  O   UNL d   1     -13.173   9.319   6.030 -0.45 -0.46    -0.477 OA
DOCKED: ATOM     43  H   UNL d   1     -12.704  10.178   5.989 +0.06 +0.08    +0.295 HD
DOCKED: ENDBRANCH  40  42
DOCKED: ENDBRANCH  39  40
DOCKED: ENDBRANCH  27  38
DOCKED: BRANCH   8  44
DOCKED: ATOM     44  C   UNL d   1     -11.502  21.681   2.718 -0.05 +0.01    +0.141 C 
DOCKED: BRANCH  44  45
DOCKED: ATOM     45  C   UNL d   1     -10.313  21.281   1.885 -0.07 +0.03    +0.306 C 
DOCKED: ATOM     46  O   UNL d   1     -10.056  21.661   0.756 -0.09 -0.02    -0.251 OA
DOCKED: BRANCH  45  47
DOCKED: ATOM     47  O   UNL d   1      -9.519  20.396   2.514 -0.07 -0.07    -0.481 OA
DOCKED: ATOM     48  H   UNL d   1     -10.000  19.543   2.450 +0.07 +0.06    +0.295 HD
DOCKED: ENDBRANCH  45  47
DOCKED: ENDBRANCH  44  45
DOCKED: ENDBRANCH   8  44
DOCKED: BRANCH  22  49
DOCKED: ATOM     49  C   UNL d   1      -8.646  13.274   6.464 -0.20 +0.01    +0.048 C 
DOCKED: BRANCH  49  50
DOCKED: ATOM     50  C   UNL d   1      -9.625  12.387   7.233 -0.14 +0.00    +0.125 C 
DOCKED: BRANCH  50  51
DOCKED: ATOM     51  C   UNL d   1      -9.967  11.155   6.445 -0.16 -0.03    +0.305 C 
DOCKED: ATOM     52  O   UNL d   1      -9.213  10.465   5.782 -0.34 +0.02    -0.251 OA
DOCKED: BRANCH  51  53
DOCKED: ATOM     53  O   UNL d   1     -11.278  10.852   6.524 -0.07 +0.06    -0.481 OA
DOCKED: ATOM     54  H   UNL d   1     -11.295   9.985   6.980 -0.16 -0.16    +0.295 HD
DOCKED: ENDBRANCH  51  53
DOCKED: ENDBRANCH  50  51
DOCKED: ENDBRANCH  49  50
DOCKED: ENDBRANCH  22  49
DOCKED: TORSDOF 13
DOCKED: TER
DOCKED: ENDMDL
________________________________________________________________________________


	BEGINNING GENETIC ALGORITHM DOCKING 100 of 100
Run: 100 Seed: 891358579 1493855071 [ Run 100 of 100 GA/GALS ]
Beginning LAMARCKIAN GENETIC ALGORITHM (LGA), with a maximum of 25000000 energy evaluations.

Final-Value: -11.331


	FINAL GENETIC ALGORITHM DOCKED STATE
	_______________________________________________


Detailed state:  trans 4.168 16.048 -13.821 quatxyzw 0.527997 -0.141087 -0.156107 -0.822766 center 0.153 0.018 -0.028 ntor 13 110.8849 136.3352 -174.0571 38.1938 179.9550 79.9823 71.9210 65.2021 -22.0858 127.3529 -74.8886 -82.3050 -7.4781
State:	  4.168  16.048 -13.821   0.929 -0.248 -0.275 -69.275    110.88  136.34 -174.06   38.19  179.96   79.98   71.92   65.20  -22.09  127.35  -74.89  -82.30   -7.48

DOCKED: MODEL      100
DOCKED: USER    Run = 100
DOCKED: USER    DPF = D:/Protein_go_brrr/autodock/final/mut_K82N/heme/dock.dpf
DOCKED: USER  
DOCKED: USER    Estimated Free Energy of Binding    =   -3.82 kcal/mol  [=(1)+(2)+(3)-(4)]
DOCKED: USER    Estimated Inhibition Constant, Ki   =    1.59 mM (millimolar)  [Temperature = 298.15 K]
DOCKED: USER    
DOCKED: USER    (1) Final Intermolecular Energy     =   -7.69 kcal/mol
DOCKED: USER        vdW + Hbond + desolv Energy     =   -7.15 kcal/mol
DOCKED: USER        Electrostatic Energy            =   -0.55 kcal/mol
DOCKED: USER    (2) Final Total Internal Energy     =   -3.64 kcal/mol
DOCKED: USER    (3) Torsional Free Energy           =   +3.88 kcal/mol
DOCKED: USER    (4) Unbound System's Energy  [=(2)] =   -3.64 kcal/mol
DOCKED: USER    
DOCKED: USER    
DOCKED: USER    NEWDPF move heme_opt.pdbqt
DOCKED: USER    NEWDPF about 0.153000 0.018000 -0.028000
DOCKED: USER    NEWDPF tran0 4.168356 16.047775 -13.820823
DOCKED: USER    NEWDPF quaternion0 0.527997 -0.141087 -0.156107 -0.822766
DOCKED: USER    NEWDPF axisangle0 0.928951 -0.248226 -0.274653 -69.274640
DOCKED: USER    NEWDPF quat0 0.928951 -0.248226 -0.274653 -69.274640
DOCKED: USER    NEWDPF dihe0 110.88 136.34 -174.06 38.19 179.96 79.98 71.92 65.20 -22.09 127.35 -74.89 -82.30 -7.48 
DOCKED: USER  keepresnum = 1 
DOCKED: USER  
DOCKED: REMARK  13 active torsions:
DOCKED: REMARK  status: ('A' for Active; 'I' for Inactive)
DOCKED: REMARK    1  A    between atoms: O_3  and  C_38 
DOCKED: REMARK    2  A    between atoms: O_4  and  C_40 
DOCKED: REMARK    3  A    between atoms: O_7  and  C_46 
DOCKED: REMARK    4  A    between atoms: O_9  and  C_48 
DOCKED: REMARK    5  A    between atoms: C_15  and  C_20 
DOCKED: REMARK    6  A    between atoms: C_16  and  C_23 
DOCKED: REMARK    7  A    between atoms: C_20  and  C_38 
DOCKED: REMARK    8  A    between atoms: C_23  and  C_40 
DOCKED: REMARK    9  A    between atoms: C_32  and  C_41 
DOCKED: REMARK   10  A    between atoms: C_37  and  C_45 
DOCKED: REMARK   11  A    between atoms: C_41  and  C_44 
DOCKED: REMARK   12  A    between atoms: C_44  and  C_46 
DOCKED: REMARK   13  A    between atoms: C_47  and  C_48 
DOCKED: USER                              x       y       z     vdW  Elec       q    Type
DOCKED: USER                           _______ _______ _______ _____ _____    ______ ____
DOCKED: ROOT
DOCKED: ATOM      1  O   UNL d   1      -1.021  18.456 -12.396 -0.17 +0.10    -0.289 OA
DOCKED: ATOM      2  O   UNL d   1       1.851  16.521 -19.059 -0.02 +0.13    -0.289 OA
DOCKED: ATOM      3  N   UNL d   1       2.164  17.183 -12.759 -0.11 +0.09    -0.247 NA
DOCKED: ATOM      4  N   UNL d   1       2.283  16.451 -15.636 -0.09 +0.19    -0.247 NA
DOCKED: ATOM      5  N   UNL d   1       4.675  14.962 -15.063 -0.05 +0.04    -0.354 N 
DOCKED: ATOM      6  N   UNL d   1       4.533  15.710 -12.076 -0.16 +0.05    -0.354 N 
DOCKED: ATOM      7  C   UNL d   1       0.742  17.765 -10.850 -0.28 -0.03    +0.084 A 
DOCKED: ATOM      8  C   UNL d   1       0.821  17.676 -17.163 -0.07 -0.07    +0.084 A 
DOCKED: ATOM      9  C   UNL d   1       1.273  17.382 -15.729 -0.05 -0.05    +0.058 A 
DOCKED: ATOM     10  C   UNL d   1       2.073  17.223 -11.378 -0.27 -0.02    +0.058 A 
DOCKED: ATOM     11  C   UNL d   1       0.103  18.042 -12.177 -0.15 -0.07    +0.193 A 
DOCKED: ATOM     12  C   UNL d   1       1.074  17.671 -13.255 -0.16 -0.05    +0.109 A 
DOCKED: ATOM     13  C   UNL d   1       1.736  16.713 -17.864 -0.05 -0.13    +0.193 A 
DOCKED: ATOM     14  C   UNL d   1      -0.069  16.689 -10.124 -0.60 -0.01    +0.026 C 
DOCKED: ATOM     15  C   UNL d   1       0.696  17.945 -14.656 -0.14 -0.04    +0.055 C 
DOCKED: ATOM     16  C   UNL d   1       1.184  19.101 -17.592 -0.03 -0.01    +0.026 C 
DOCKED: ATOM     17  C   UNL d   1       2.565  16.028 -16.827 -0.08 -0.07    +0.109 A 
DOCKED: ATOM     18  C   UNL d   1       3.083  16.907 -10.546 -0.26 -0.01    +0.050 C 
DOCKED: ATOM     19  C   UNL d   1       4.375  16.479 -10.945 -0.31 -0.01    +0.045 A 
DOCKED: ATOM     20  C   UNL d   1       4.441  14.547 -16.348 -0.10 -0.01    +0.045 A 
DOCKED: ATOM     21  C   UNL d   1       3.529  14.990 -17.219 -0.09 -0.02    +0.057 C 
DOCKED: ATOM     22  C   UNL d   1       6.167  13.326 -15.481 -0.17 -0.00    -0.019 A 
DOCKED: ATOM     23  C   UNL d   1       5.698  14.283 -14.457 -0.18 +0.00    +0.045 A 
DOCKED: ATOM     24  C   UNL d   1       5.419  13.488 -16.598 -0.11 -0.00    -0.022 A 
DOCKED: ATOM     25  C   UNL d   1       5.848  15.334 -12.225 -0.29 -0.00    +0.049 A 
DOCKED: ATOM     26  C   UNL d   1       5.624  16.638 -10.365 -0.32 +0.00    -0.018 A 
DOCKED: ATOM     27  C   UNL d   1       6.553  15.929 -11.188 -0.29 -0.00    +0.003 A 
DOCKED: ATOM     28  C   UNL d   1       6.232  14.408 -13.233 -0.31 +0.00    +0.052 C 
DOCKED: ATOM     29  C   UNL d   1       5.517  12.766 -17.899 -0.08 +0.00    +0.046 C 
DOCKED: ATOM     30  C   UNL d   1       5.938  17.402  -9.124 -0.27 -0.01    +0.046 C 
DOCKED: ATOM     31  H   UNL d   1       4.175  15.750 -14.666 +0.05 -0.04    +0.166 HD
DOCKED: ATOM     32  H   UNL d   1       3.767  15.436 -12.679 +0.07 -0.03    +0.166 HD
DOCKED: ENDROOT
DOCKED: BRANCH   7  33
DOCKED: ATOM     33  C   UNL d   1       0.839  19.051 -10.021 -0.26 -0.04    +0.141 C 
DOCKED: BRANCH  33  34
DOCKED: ATOM     34  C   UNL d   1       2.053  19.871 -10.363 -0.08 -0.08    +0.306 C 
DOCKED: ATOM     35  O   UNL d   1       2.899  20.267  -9.580 -0.15 +0.07    -0.251 OA
DOCKED: BRANCH  34  36
DOCKED: ATOM     36  O   UNL d   1       2.138  20.147 -11.677 +0.02 +0.11    -0.481 OA
DOCKED: ATOM     37  H   UNL d   1       2.375  19.291 -12.094 +0.08 -0.07    +0.295 HD
DOCKED: ENDBRANCH  34  36
DOCKED: ENDBRANCH  33  34
DOCKED: ENDBRANCH   7  33
DOCKED: BRANCH  27  38
DOCKED: ATOM     38  C   UNL d   1       7.959  15.822 -10.941 -0.31 -0.00    +0.017 C 
DOCKED: ATOM     39  C   UNL d   1       8.675  14.690 -11.021 -0.16 +0.00    +0.092 C 
DOCKED: BRANCH  39  40
DOCKED: ATOM     40  C   UNL d   1      10.117  14.717 -10.759 -0.21 +0.02    +0.330 C 
DOCKED: ATOM     41  O   UNL d   1      10.676  14.763  -9.680 -0.27 -0.02    -0.246 OA
DOCKED: BRANCH  40  42
DOCKED: ATOM     42  O   UNL d   1      10.796  14.676 -11.916 -0.04 -0.01    -0.477 OA
DOCKED: ATOM     43  H   UNL d   1      10.331  13.990 -12.437 +0.09 +0.02    +0.295 HD
DOCKED: ENDBRANCH  40  42
DOCKED: ENDBRANCH  39  40
DOCKED: ENDBRANCH  27  38
DOCKED: BRANCH   8  44
DOCKED: ATOM     44  C   UNL d   1      -0.647  17.362 -17.471 +0.04 -0.18    +0.141 C 
DOCKED: BRANCH  44  45
DOCKED: ATOM     45  C   UNL d   1      -1.600  18.403 -16.946 -0.07 -0.26    +0.306 C 
DOCKED: ATOM     46  O   UNL d   1      -1.360  19.584 -16.768 -0.04 +0.12    -0.251 OA
DOCKED: BRANCH  45  47
DOCKED: ATOM     47  O   UNL d   1      -2.807  17.891 -16.646 -0.05 +0.56    -0.481 OA
DOCKED: ATOM     48  H   UNL d   1      -2.707  16.924 -16.782 -0.22 -0.74    +0.295 HD
DOCKED: ENDBRANCH  45  47
DOCKED: ENDBRANCH  44  45
DOCKED: ENDBRANCH   8  44
DOCKED: BRANCH  22  49
DOCKED: ATOM     49  C   UNL d   1       7.280  12.343 -15.268 -0.19 +0.02    +0.048 C 
DOCKED: BRANCH  49  50
DOCKED: ATOM     50  C   UNL d   1       8.634  12.920 -15.677 -0.08 +0.02    +0.125 C 
DOCKED: BRANCH  50  51
DOCKED: ATOM     51  C   UNL d   1       9.458  13.263 -14.469 -0.05 +0.03    +0.305 C 
DOCKED: ATOM     52  O   UNL d   1       9.821  12.513 -13.579 -0.12 -0.04    -0.251 OA
DOCKED: BRANCH  51  53
DOCKED: ATOM     53  O   UNL d   1       9.783  14.571 -14.434 +0.01 -0.01    -0.481 OA
DOCKED: ATOM     54  H   UNL d   1      10.698  14.580 -14.083 +0.04 +0.00    +0.295 HD
DOCKED: ENDBRANCH  51  53
DOCKED: ENDBRANCH  50  51
DOCKED: ENDBRANCH  49  50
DOCKED: ENDBRANCH  22  49
DOCKED: TORSDOF 13
DOCKED: TER
DOCKED: ENDMDL
________________________________________________________________________________

DPF> analysis                             # perform a ranked cluster analysis


		CLUSTER ANALYSIS OF CONFORMATIONS
		_________________________________

Number of conformations = 100

RMSD cluster analysis will be performed using the ligand atoms only (54 / 54 total atoms).

Outputting structurally similar clusters, ranked in order of increasing energy.


________________________________________________________________________________

Number of distinct conformational clusters found = 65,  out of 100 runs,
Using an rmsd-tolerance of 2.0 A


	CLUSTERING HISTOGRAM
	____________________

________________________________________________________________________________
     |           |     |           |     |                                    
Clus | Lowest    | Run | Mean      | Num | Histogram                          
-ter | Binding   |     | Binding   | in  |                                    
Rank | Energy    |     | Energy    | Clus|    5    10   15   20   25   30   35
_____|___________|_____|___________|_____|____:____|____:____|____:____|____:___
   1 |     -7.69 |  14 |     -6.80 |   6 |######
   2 |     -7.62 |  57 |     -7.22 |   2 |##
   3 |     -6.88 |  98 |     -6.88 |   1 |#
   4 |     -6.00 |  70 |     -6.00 |   1 |#
   5 |     -5.74 |  87 |     -5.74 |   1 |#
   6 |     -5.55 |  80 |     -5.14 |   4 |####
   7 |     -5.46 |  49 |     -5.46 |   1 |#
   8 |     -5.44 |  89 |     -4.75 |   2 |##
   9 |     -5.43 |  34 |     -5.43 |   1 |#
  10 |     -5.39 |  47 |     -4.71 |   4 |####
  11 |     -5.37 |  59 |     -5.02 |   3 |###
  12 |     -5.33 |  75 |     -3.66 |   2 |##
  13 |     -5.32 |  36 |     -5.32 |   1 |#
  14 |     -5.19 |  38 |     -4.53 |   3 |###
  15 |     -5.01 |  85 |     -5.01 |   1 |#
  16 |     -4.90 |  68 |     -4.02 |   2 |##
  17 |     -4.84 |  66 |     -4.84 |   1 |#
  18 |     -4.82 |  97 |     -4.82 |   1 |#
  19 |     -4.77 |  78 |     -4.77 |   1 |#
  20 |     -4.72 |   5 |     -4.27 |   2 |##
  21 |     -4.71 |  74 |     -4.71 |   1 |#
  22 |     -4.70 |  92 |     -4.70 |   1 |#
  23 |     -4.62 |   8 |     -4.62 |   1 |#
  24 |     -4.62 |  41 |     -4.62 |   1 |#
  25 |     -4.60 |  37 |     -4.60 |   1 |#
  26 |     -4.59 |   2 |     -4.07 |   3 |###
  27 |     -4.56 |  60 |     -4.50 |   2 |##
  28 |     -4.48 |  20 |     -4.03 |   2 |##
  29 |     -4.47 |  61 |     -4.47 |   1 |#
  30 |     -4.41 |  95 |     -4.41 |   1 |#
  31 |     -4.40 |  93 |     -3.55 |   4 |####
  32 |     -4.31 |  40 |     -3.94 |   5 |#####
  33 |     -4.29 |  65 |     -4.29 |   2 |##
  34 |     -4.24 |  62 |     -4.24 |   1 |#
  35 |     -4.24 |  96 |     -3.70 |   2 |##
  36 |     -4.23 |  53 |     -4.23 |   1 |#
  37 |     -4.20 |   7 |     -4.20 |   1 |#
  38 |     -4.17 |  25 |     -4.11 |   2 |##
  39 |     -4.08 |  43 |     -4.08 |   1 |#
  40 |     -4.06 |  51 |     -4.06 |   1 |#
  41 |     -4.02 |  82 |     -4.02 |   1 |#
  42 |     -4.00 |  90 |     -4.00 |   1 |#
  43 |     -3.97 |  17 |     -3.97 |   1 |#
  44 |     -3.83 |  18 |     -3.83 |   1 |#
  45 |     -3.81 |  44 |     -3.81 |   1 |#
  46 |     -3.79 |  10 |     -3.79 |   1 |#
  47 |     -3.71 |  22 |     -3.71 |   1 |#
  48 |     -3.69 |  84 |     -3.69 |   1 |#
  49 |     -3.67 |  81 |     -3.49 |   2 |##
  50 |     -3.66 |   9 |     -3.66 |   1 |#
  51 |     -3.66 |  24 |     -3.66 |   1 |#
  52 |     -3.59 |  79 |     -3.59 |   1 |#
  53 |     -3.40 |   4 |     -3.40 |   1 |#
  54 |     -3.36 |  52 |     -3.36 |   1 |#
  55 |     -3.31 |  35 |     -3.31 |   1 |#
  56 |     -3.26 |  56 |     -3.26 |   1 |#
  57 |     -3.21 |  13 |     -3.21 |   1 |#
  58 |     -3.19 |   1 |     -3.19 |   1 |#
  59 |     -3.14 |  11 |     -3.14 |   1 |#
  60 |     -3.09 |  26 |     -3.09 |   1 |#
  61 |     -3.08 |  77 |     -3.08 |   1 |#
  62 |     -2.98 |   3 |     -2.98 |   1 |#
  63 |     -2.95 |  55 |     -2.95 |   1 |#
  64 |     -2.62 |  23 |     -2.62 |   1 |#
  65 |     -2.61 |  99 |     -2.61 |   1 |#
_____|___________|_____|___________|_____|______________________________________


Number of multi-member conformational clusters found = 19, out of 100 runs.

	RMSD TABLE
	__________

_____________________________________________________________________
     |      |      |           |         |                 |
Rank | Sub- | Run  | Binding   | Cluster | Reference       | Grep
     | Rank |      | Energy    | RMSD    | RMSD            | Pattern
_____|______|______|___________|_________|_________________|___________
   1      1     14       -7.69      0.00     18.30           RANKING
   1      2     54       -7.60      1.40     18.56           RANKING
   1      3     33       -6.99      1.10     18.40           RANKING
   1      4     67       -6.58      0.67     18.34           RANKING
   1      5     69       -6.52      0.95     18.43           RANKING
   1      6     30       -5.43      1.27     18.54           RANKING
   2      1     57       -7.62      0.00     18.35           RANKING
   2      2     46       -6.82      1.89     18.54           RANKING
   3      1     98       -6.88      0.00     10.61           RANKING
   4      1     70       -6.00      0.00     16.85           RANKING
   5      1     87       -5.74      0.00     13.94           RANKING
   6      1     80       -5.55      0.00     15.03           RANKING
   6      2     42       -5.54      0.13     15.04           RANKING
   6      3     88       -5.00      1.26     15.48           RANKING
   6      4     31       -4.48      0.94     15.06           RANKING
   7      1     49       -5.46      0.00     10.91           RANKING
   8      1     89       -5.44      0.00      9.85           RANKING
   8      2     12       -4.07      1.32     10.41           RANKING
   9      1     34       -5.43      0.00     18.12           RANKING
  10      1     47       -5.39      0.00     14.84           RANKING
  10      2     16       -5.09      1.61     14.76           RANKING
  10      3     32       -5.06      1.56     14.64           RANKING
  10      4     28       -3.31      1.99     15.67           RANKING
  11      1     59       -5.37      0.00     12.11           RANKING
  11      2     50       -5.05      1.53     12.43           RANKING
  11      3     71       -4.65      1.47     12.30           RANKING
  12      1     75       -5.33      0.00     12.62           RANKING
  12      2     86       -1.99      1.97     13.00           RANKING
  13      1     36       -5.32      0.00     18.46           RANKING
  14      1     38       -5.19      0.00     15.23           RANKING
  14      2     45       -4.83      1.10     15.03           RANKING
  14      3     83       -3.55      1.98     15.50           RANKING
  15      1     85       -5.01      0.00     18.13           RANKING
  16      1     68       -4.90      0.00     11.28           RANKING
  16      2     76       -3.14      1.48     11.36           RANKING
  17      1     66       -4.84      0.00     16.57           RANKING
  18      1     97       -4.82      0.00     15.75           RANKING
  19      1     78       -4.77      0.00     12.21           RANKING
  20      1      5       -4.72      0.00     18.02           RANKING
  20      2    100       -3.82      1.98     18.67           RANKING
  21      1     74       -4.71      0.00     15.16           RANKING
  22      1     92       -4.70      0.00     15.93           RANKING
  23      1      8       -4.62      0.00     18.49           RANKING
  24      1     41       -4.62      0.00     18.79           RANKING
  25      1     37       -4.60      0.00     19.16           RANKING
  26      1      2       -4.59      0.00     18.36           RANKING
  26      2     19       -4.09      1.34     18.23           RANKING
  26      3     39       -3.53      1.12     18.49           RANKING
  27      1     60       -4.56      0.00      9.80           RANKING
  27      2     27       -4.44      0.57      9.73           RANKING
  28      1     20       -4.48      0.00     17.55           RANKING
  28      2     21       -3.58      0.68     17.55           RANKING
  29      1     61       -4.47      0.00     10.91           RANKING
  30      1     95       -4.41      0.00     15.96           RANKING
  31      1     93       -4.40      0.00     17.18           RANKING
  31      2     58       -3.65      1.51     16.56           RANKING
  31      3     29       -3.51      1.33     17.09           RANKING
  31      4     15       -2.64      1.90     16.42           RANKING
  32      1     40       -4.31      0.00     14.73           RANKING
  32      2     94       -4.28      0.67     14.78           RANKING
  32      3     91       -3.86      1.24     14.92           RANKING
  32      4     48       -3.63      1.07     14.47           RANKING
  32      5     63       -3.61      1.69     14.85           RANKING
  33      1     65       -4.29      0.00     14.38           RANKING
  33      2     73       -4.28      0.67     14.44           RANKING
  34      1     62       -4.24      0.00     19.54           RANKING
  35      1     96       -4.24      0.00     13.88           RANKING
  35      2     64       -3.16      0.78     13.83           RANKING
  36      1     53       -4.23      0.00     20.50           RANKING
  37      1      7       -4.20      0.00     14.51           RANKING
  38      1     25       -4.17      0.00     17.80           RANKING
  38      2     72       -4.06      1.15     18.08           RANKING
  39      1     43       -4.08      0.00     15.65           RANKING
  40      1     51       -4.06      0.00     18.30           RANKING
  41      1     82       -4.02      0.00     16.77           RANKING
  42      1     90       -4.00      0.00     17.88           RANKING
  43      1     17       -3.97      0.00     14.75           RANKING
  44      1     18       -3.83      0.00     12.51           RANKING
  45      1     44       -3.81      0.00     20.59           RANKING
  46      1     10       -3.79      0.00     16.05           RANKING
  47      1     22       -3.71      0.00     20.13           RANKING
  48      1     84       -3.69      0.00     17.52           RANKING
  49      1     81       -3.67      0.00     14.78           RANKING
  49      2      6       -3.31      1.67     15.09           RANKING
  50      1      9       -3.66      0.00     16.07           RANKING
  51      1     24       -3.66      0.00     15.24           RANKING
  52      1     79       -3.59      0.00     17.20           RANKING
  53      1      4       -3.40      0.00     17.41           RANKING
  54      1     52       -3.36      0.00     15.31           RANKING
  55      1     35       -3.31      0.00     17.22           RANKING
  56      1     56       -3.26      0.00     13.82           RANKING
  57      1     13       -3.21      0.00     14.08           RANKING
  58      1      1       -3.19      0.00     15.08           RANKING
  59      1     11       -3.14      0.00     14.72           RANKING
  60      1     26       -3.09      0.00     17.23           RANKING
  61      1     77       -3.08      0.00     16.95           RANKING
  62      1      3       -2.98      0.00     19.40           RANKING
  63      1     55       -2.95      0.00     14.11           RANKING
  64      1     23       -2.62      0.00     15.70           RANKING
  65      1     99       -2.61      0.00     15.64           RANKING
_______________________________________________________________________



	INFORMATION ENTROPY ANALYSIS FOR THIS CLUSTERING
	________________________________________________


Information entropy for this clustering = 0.87  (rmstol = 2.00 Angstrom)

_______________________________________________________________________


	STATISTICAL MECHANICAL ANALYSIS
	_______________________________


Partition function, Q =   100.75            at Temperature, T = 298.15 K
Free energy,        A ~ -2732.88 kcal/mol   at Temperature, T = 298.15 K
Internal energy,    U =    -4.40 kcal/mol   at Temperature, T = 298.15 K
Entropy,            S =     9.15 kcal/mol/K at Temperature, T = 298.15 K

_______________________________________________________________________


	LOWEST ENERGY DOCKED CONFORMATION from EACH CLUSTER
	___________________________________________________



Keeping original residue number (specified in the input PDBQ file) for outputting.

MODEL       14
USER    Run = 14
USER    Cluster Rank = 1
USER    Number of conformations in this cluster = 6
USER  
USER    RMSD from reference structure       = 18.298 A
USER  
USER    Estimated Free Energy of Binding    =   -7.69 kcal/mol  [=(1)+(2)+(3)-(4)]
USER    Estimated Inhibition Constant, Ki   =    2.31 uM (micromolar)  [Temperature = 298.15 K]
USER    
USER    (1) Final Intermolecular Energy     =  -11.57 kcal/mol
USER        vdW + Hbond + desolv Energy     =  -10.82 kcal/mol
USER        Electrostatic Energy            =   -0.75 kcal/mol
USER    (2) Final Total Internal Energy     =   -2.37 kcal/mol
USER    (3) Torsional Free Energy           =   +3.88 kcal/mol
USER    (4) Unbound System's Energy  [=(2)] =   -2.37 kcal/mol
USER    
USER    
USER  
USER    DPF = D:/Protein_go_brrr/autodock/final/mut_K82N/heme/dock.dpf
USER    NEWDPF move	heme_opt.pdbqt
USER    NEWDPF about	0.153000 0.018000 -0.028000
USER    NEWDPF tran0	2.907734 6.591456 17.589103
USER    NEWDPF axisangle0	0.298531 -0.239433 -0.923878 161.855834
USER    NEWDPF quaternion0	0.294797 -0.236437 -0.912321 0.157677
USER    NEWDPF dihe0	106.98 84.18 118.96 -133.86 -149.32 -160.52 -48.13 86.33 67.96 -135.02 69.07 24.09 -180.00 
USER  
USER                              x       y       z    vdW   Elec        q     RMS 
ATOM      1  O   UNL d   1       6.243   4.683  22.060 -0.09 -0.03    -0.289    18.298
ATOM      2  O   UNL d   1       7.772   9.433  16.448 -0.16 +0.06    -0.289    18.298
ATOM      3  N   UNL d   1       3.983   5.407  19.557 -0.15 +0.09    -0.247    18.298
ATOM      4  N   UNL d   1       5.337   7.556  18.015 -0.16 +0.09    -0.247    18.298
ATOM      5  N   UNL d   1       2.826   8.078  16.716 -0.16 +0.16    -0.354    18.298
ATOM      6  N   UNL d   1       1.424   5.860  18.334 +0.24 +0.19    -0.354    18.298
ATOM      7  C   UNL d   1       3.901   4.121  21.642 -0.11 -0.02    +0.084    18.298
ATOM      8  C   UNL d   1       7.778   7.618  18.091 -0.15 -0.01    +0.084    18.298
ATOM      9  C   UNL d   1       6.463   7.006  18.585 -0.22 -0.01    +0.058    18.298
ATOM     10  C   UNL d   1       3.187   4.637  20.389 -0.18 -0.02    +0.058    18.298
ATOM     11  C   UNL d   1       5.246   4.721  21.362 -0.11 -0.02    +0.193    18.298
ATOM     12  C   UNL d   1       5.174   5.453  20.058 -0.20 -0.02    +0.109    18.298
ATOM     13  C   UNL d   1       7.188   8.643  17.164 -0.13 -0.05    +0.193    18.298
ATOM     14  C   UNL d   1       3.338   4.744  22.922 -0.04 -0.00    +0.026    18.298
ATOM     15  C   UNL d   1       6.416   6.052  19.528 -0.25 -0.00    +0.055    18.298
ATOM     16  C   UNL d   1       8.595   6.619  17.265 -0.27 -0.00    +0.026    18.298
ATOM     17  C   UNL d   1       5.701   8.506  17.215 -0.06 -0.05    +0.109    18.298
ATOM     18  C   UNL d   1       1.921   4.279  20.104 -0.21 -0.02    +0.050    18.298
ATOM     19  C   UNL d   1       1.210   4.638  18.930 -0.18 -0.02    +0.045    18.298
ATOM     20  C   UNL d   1       3.547   9.158  16.277 -0.30 -0.02    +0.045    18.298
ATOM     21  C   UNL d   1       4.849   9.416  16.436 -0.28 -0.02    +0.057    18.298
ATOM     22  C   UNL d   1       1.373   9.407  15.623 -0.24 +0.01    -0.019    18.298
ATOM     23  C   UNL d   1       1.502   8.140  16.369 -0.26 -0.02    +0.045    18.298
ATOM     24  C   UNL d   1       2.587  10.004  15.570 -0.26 +0.01    -0.022    18.298
ATOM     25  C   UNL d   1       0.570   6.035  17.270 -0.13 -0.02    +0.049    18.298
ATOM     26  C   UNL d   1       0.218   3.987  18.214 -0.29 +0.01    -0.018    18.298
ATOM     27  C   UNL d   1      -0.169   4.866  17.155 -0.33 -0.00    +0.003    18.298
ATOM     28  C   UNL d   1       0.494   7.283  16.594 -0.27 -0.02    +0.052    18.298
ATOM     29  C   UNL d   1       2.966  11.291  14.918 -0.17 -0.02    +0.046    18.298
ATOM     30  C   UNL d   1      -0.338   2.631  18.492 -0.18 -0.02    +0.046    18.298
ATOM     31  H   UNL d   1       3.278   7.296  17.176 -0.28 -0.10    +0.166    18.298
ATOM     32  H   UNL d   1       2.095   6.539  18.674 -0.13 -0.08    +0.166    18.298
ATOM     33  C   UNL d   1       4.005   2.596  21.758 -0.20 -0.08    +0.141    18.298
ATOM     34  C   UNL d   1       5.428   2.108  21.714 -0.28 -0.06    +0.306    18.298
ATOM     35  O   UNL d   1       6.023   1.714  20.726 -0.66 +0.02    -0.251    18.298
ATOM     36  O   UNL d   1       6.026   2.145  22.918 -0.10 -0.03    -0.481    18.298
ATOM     37  H   UNL d   1       6.226   3.094  23.065 +0.09 +0.05    +0.295    18.298
ATOM     38  C   UNL d   1      -1.183   4.590  16.182 -0.44 -0.01    +0.017    18.298
ATOM     39  C   UNL d   1      -0.985   4.518  14.857 -0.49 -0.02    +0.092    18.298
ATOM     40  C   UNL d   1      -2.108   4.210  13.967 -0.33 -0.05    +0.330    18.298
ATOM     41  O   UNL d   1      -2.059   3.826  12.814 -0.85 +0.00    -0.246    18.298
ATOM     42  O   UNL d   1      -3.271   4.402  14.608 -0.58 +0.06    -0.477    18.298
ATOM     43  H   UNL d   1      -3.509   3.509  14.934 -0.42 -0.15    +0.295    18.298
ATOM     44  C   UNL d   1       8.642   8.284  19.167 -0.04 -0.00    +0.141    18.298
ATOM     45  C   UNL d   1       9.969   8.768  18.648 -0.00 -0.00    +0.306    18.298
ATOM     46  O   UNL d   1      11.019   8.149  18.648 -0.01 -0.01    -0.251    18.298
ATOM     47  O   UNL d   1       9.910  10.028  18.179 +0.01 +0.02    -0.481    18.298
ATOM     48  H   UNL d   1       9.273   9.984  17.433 +0.04 -0.02    +0.295    18.298
ATOM     49  C   UNL d   1       0.084   9.919  15.048 -0.15 -0.05    +0.048    18.298
ATOM     50  C   UNL d   1      -0.593  10.925  15.978 -0.10 -0.11    +0.125    18.298
ATOM     51  C   UNL d   1      -1.844  10.345  16.576 -0.06 -0.27    +0.305    18.298
ATOM     52  O   UNL d   1      -1.930   9.581  17.521 -0.03 +0.14    -0.251    18.298
ATOM     53  O   UNL d   1      -2.951  10.759  15.929 -0.05 +0.65    -0.481    18.298
ATOM     54  H   UNL d   1      -2.725  10.658  14.981 -0.47 -0.85    +0.295    18.298
TER
ENDMDL
MODEL       57
USER    Run = 57
USER    Cluster Rank = 2
USER    Number of conformations in this cluster = 2
USER  
USER    RMSD from reference structure       = 18.354 A
USER  
USER    Estimated Free Energy of Binding    =   -7.62 kcal/mol  [=(1)+(2)+(3)-(4)]
USER    Estimated Inhibition Constant, Ki   =    2.59 uM (micromolar)  [Temperature = 298.15 K]
USER    
USER    (1) Final Intermolecular Energy     =  -11.50 kcal/mol
USER        vdW + Hbond + desolv Energy     =  -10.87 kcal/mol
USER        Electrostatic Energy            =   -0.63 kcal/mol
USER    (2) Final Total Internal Energy     =   -2.56 kcal/mol
USER    (3) Torsional Free Energy           =   +3.88 kcal/mol
USER    (4) Unbound System's Energy  [=(2)] =   -2.56 kcal/mol
USER    
USER    
USER  
USER    DPF = D:/Protein_go_brrr/autodock/final/mut_K82N/heme/dock.dpf
USER    NEWDPF move	heme_opt.pdbqt
USER    NEWDPF about	0.153000 0.018000 -0.028000
USER    NEWDPF tran0	1.070290 5.042018 18.865194
USER    NEWDPF axisangle0	-0.810535 0.486534 -0.326062 160.705966
USER    NEWDPF quaternion0	-0.799074 0.479654 -0.321451 0.167578
USER    NEWDPF dihe0	101.28 -146.59 -153.42 -114.10 -134.19 105.75 135.52 95.61 41.00 -22.45 -47.73 -179.60 -6.17 
USER  
USER                              x       y       z    vdW   Elec        q     RMS 
ATOM      1  O   UNL d   1      -2.047   7.548  14.534 -0.50 +0.34    -0.289    18.354
ATOM      2  O   UNL d   1       3.864  10.046  18.434 -0.02 +0.06    -0.289    18.354
ATOM      3  N   UNL d   1      -0.616   5.756  17.110 -0.15 +0.09    -0.247    18.354
ATOM      4  N   UNL d   1       1.779   7.367  17.815 -0.09 +0.11    -0.247    18.354
ATOM      5  N   UNL d   1       2.729   5.120  19.336 -0.01 +0.18    -0.354    18.354
ATOM      6  N   UNL d   1       0.250   3.449  18.584 -0.14 +0.14    -0.354    18.354
ATOM      7  C   UNL d   1      -2.373   5.310  15.461 -0.33 -0.03    +0.084    18.354
ATOM      8  C   UNL d   1       1.701   9.760  17.325 -0.07 -0.03    +0.084    18.354
ATOM      9  C   UNL d   1       1.051   8.376  17.225 -0.17 -0.02    +0.058    18.354
ATOM     10  C   UNL d   1      -1.528   4.825  16.643 -0.27 -0.02    +0.058    18.354
ATOM     11  C   UNL d   1      -1.789   6.687  15.355 -0.06 -0.10    +0.193    18.354
ATOM     12  C   UNL d   1      -0.754   6.844  16.425 -0.19 -0.04    +0.109    18.354
ATOM     13  C   UNL d   1       2.951   9.343  18.047 -0.05 -0.06    +0.193    18.354
ATOM     14  C   UNL d   1      -2.060   4.539  14.176 -0.63 -0.01    +0.026    18.354
ATOM     15  C   UNL d   1      -0.103   8.161  16.575 -0.21 -0.03    +0.055    18.354
ATOM     16  C   UNL d   1       0.900  10.700  18.230 -0.02 -0.01    +0.026    18.354
ATOM     17  C   UNL d   1       2.879   7.869  18.277 -0.12 -0.04    +0.109    18.354
ATOM     18  C   UNL d   1      -1.742   3.625  17.214 -0.31 -0.02    +0.050    18.354
ATOM     19  C   UNL d   1      -1.069   3.128  18.360 -0.23 -0.01    +0.045    18.354
ATOM     20  C   UNL d   1       3.847   5.912  19.363 -0.16 -0.02    +0.045    18.354
ATOM     21  C   UNL d   1       3.995   7.169  18.931 -0.18 -0.02    +0.057    18.354
ATOM     22  C   UNL d   1       4.357   3.884  20.282 -0.31 +0.01    -0.019    18.354
ATOM     23  C   UNL d   1       2.940   3.876  19.869 -0.29 -0.02    +0.045    18.354
ATOM     24  C   UNL d   1       4.889   5.092  19.981 -0.26 +0.01    -0.022    18.354
ATOM     25  C   UNL d   1       0.725   2.790  19.695 -0.24 -0.03    +0.049    18.354
ATOM     26  C   UNL d   1      -1.473   2.270  19.371 -0.24 +0.00    -0.018    18.354
ATOM     27  C   UNL d   1      -0.341   2.076  20.222 -0.23 -0.00    +0.003    18.354
ATOM     28  C   UNL d   1       2.104   2.839  20.037 -0.16 -0.05    +0.052    18.354
ATOM     29  C   UNL d   1       6.276   5.586  20.215 -0.24 -0.00    +0.046    18.354
ATOM     30  C   UNL d   1      -2.826   1.667  19.540 -0.23 -0.00    +0.046    18.354
ATOM     31  H   UNL d   1       1.836   5.481  19.020 -0.11 -0.08    +0.166    18.354
ATOM     32  H   UNL d   1       0.791   4.055  17.978 -0.01 -0.08    +0.166    18.354
ATOM     33  C   UNL d   1      -3.882   5.384  15.718 -0.26 -0.05    +0.141    18.354
ATOM     34  C   UNL d   1      -4.309   6.712  16.283 -0.11 -0.15    +0.306    18.354
ATOM     35  O   UNL d   1      -4.214   7.063  17.447 -0.04 +0.09    -0.251    18.354
ATOM     36  O   UNL d   1      -4.830   7.529  15.351 -0.62 +0.40    -0.481    18.354
ATOM     37  H   UNL d   1      -4.050   7.925  14.907 -0.43 -0.57    +0.295    18.354
ATOM     38  C   UNL d   1      -0.318   1.243  21.386 -0.15 -0.01    +0.017    18.354
ATOM     39  C   UNL d   1      -0.951   0.066  21.510 -0.15 +0.01    +0.092    18.354
ATOM     40  C   UNL d   1      -0.832  -0.700  22.753 -0.07 +0.08    +0.330    18.354
ATOM     41  O   UNL d   1      -1.656  -0.811  23.640 -0.06 -0.04    -0.246    18.354
ATOM     42  O   UNL d   1       0.361  -1.313  22.805 -0.40 -0.05    -0.477    18.354
ATOM     43  H   UNL d   1       0.964  -0.693  22.345 -0.24 -0.31    +0.295    18.354
ATOM     44  C   UNL d   1       2.037  10.429  15.988 -0.14 -0.06    +0.141    18.354
ATOM     45  C   UNL d   1       3.202   9.791  15.280 -0.24 -0.15    +0.306    18.354
ATOM     46  O   UNL d   1       3.150   8.890  14.461 -0.43 +0.14    -0.251    18.354
ATOM     47  O   UNL d   1       4.383  10.309  15.663 -0.08 +0.19    -0.481    18.354
ATOM     48  H   UNL d   1       4.222  10.649  16.569 +0.08 -0.09    +0.295    18.354
ATOM     49  C   UNL d   1       5.057   2.716  20.913 -0.36 -0.02    +0.048    18.354
ATOM     50  C   UNL d   1       4.938   2.737  22.437 -0.20 -0.02    +0.125    18.354
ATOM     51  C   UNL d   1       4.546   1.385  22.962 -0.11 -0.11    +0.305    18.354
ATOM     52  O   UNL d   1       5.284   0.472  23.289 -0.17 +0.04    -0.251    18.354
ATOM     53  O   UNL d   1       3.208   1.244  23.041 -0.01 +0.39    -0.481    18.354
ATOM     54  H   UNL d   1       2.910   1.275  22.108 -0.41 -0.58    +0.295    18.354
TER
ENDMDL
MODEL       98
USER    Run = 98
USER    Cluster Rank = 3
USER    Number of conformations in this cluster = 1
USER  
USER    RMSD from reference structure       = 10.614 A
USER  
USER    Estimated Free Energy of Binding    =   -6.88 kcal/mol  [=(1)+(2)+(3)-(4)]
USER    Estimated Inhibition Constant, Ki   =    9.10 uM (micromolar)  [Temperature = 298.15 K]
USER    
USER    (1) Final Intermolecular Energy     =  -10.76 kcal/mol
USER        vdW + Hbond + desolv Energy     =  -10.06 kcal/mol
USER        Electrostatic Energy            =   -0.69 kcal/mol
USER    (2) Final Total Internal Energy     =   -1.45 kcal/mol
USER    (3) Torsional Free Energy           =   +3.88 kcal/mol
USER    (4) Unbound System's Energy  [=(2)] =   -1.45 kcal/mol
USER    
USER    
USER  
USER    DPF = D:/Protein_go_brrr/autodock/final/mut_K82N/heme/dock.dpf
USER    NEWDPF move	heme_opt.pdbqt
USER    NEWDPF about	0.153000 0.018000 -0.028000
USER    NEWDPF tran0	-9.150552 -3.689263 8.201625
USER    NEWDPF axisangle0	-0.478054 -0.468514 0.742939 -105.336235
USER    NEWDPF quaternion0	-0.380118 -0.372533 0.590738 -0.606431
USER    NEWDPF dihe0	-145.26 65.91 -174.71 96.77 -156.04 -127.82 141.06 -180.00 -158.95 -13.78 -30.33 -115.55 -130.04 
USER  
USER                              x       y       z    vdW   Elec        q     RMS 
ATOM      1  O   UNL d   1     -10.604  -9.263   6.945 +0.02 +0.05    -0.289    10.614
ATOM      2  O   UNL d   1      -5.693  -6.442  11.877 -0.38 +0.04    -0.289    10.614
ATOM      3  N   UNL d   1      -9.983  -5.883   7.239 -0.12 +0.07    -0.247    10.614
ATOM      4  N   UNL d   1      -8.178  -5.721   9.593 -0.11 +0.04    -0.247    10.614
ATOM      5  N   UNL d   1      -8.652  -2.886   9.646 -0.11 +0.05    -0.354    10.614
ATOM      6  N   UNL d   1     -10.539  -3.065   7.215 -0.05 +0.06    -0.354    10.614
ATOM      7  C   UNL d   1     -11.574  -7.245   5.965 -0.13 -0.04    +0.084    10.614
ATOM      8  C   UNL d   1      -6.821  -7.690  10.099 -0.23 -0.01    +0.084    10.614
ATOM      9  C   UNL d   1      -7.921  -7.032   9.259 -0.19 -0.01    +0.058    10.614
ATOM     10  C   UNL d   1     -11.036  -5.861   6.339 -0.17 -0.03    +0.058    10.614
ATOM     11  C   UNL d   1     -10.627  -8.055   6.799 -0.06 -0.05    +0.193    10.614
ATOM     12  C   UNL d   1      -9.696  -7.116   7.502 -0.16 -0.03    +0.109    10.614
ATOM     13  C   UNL d   1      -6.527  -6.521  10.996 -0.24 -0.02    +0.193    10.614
ATOM     14  C   UNL d   1     -12.999  -7.465   6.480 -0.05 -0.01    +0.026    10.614
ATOM     15  C   UNL d   1      -8.608  -7.695   8.315 -0.24 -0.01    +0.055    10.614
ATOM     16  C   UNL d   1      -5.574  -7.994   9.263 -0.51 -0.00    +0.026    10.614
ATOM     17  C   UNL d   1      -7.422  -5.395  10.592 -0.16 -0.02    +0.109    10.614
ATOM     18  C   UNL d   1     -11.507  -4.742   5.756 -0.19 -0.03    +0.050    10.614
ATOM     19  C   UNL d   1     -11.015  -3.430   5.976 -0.18 -0.02    +0.045    10.614
ATOM     20  C   UNL d   1      -7.992  -3.037  10.838 -0.30 -0.01    +0.045    10.614
ATOM     21  C   UNL d   1      -7.387  -4.123  11.329 -0.32 -0.01    +0.057    10.614
ATOM     22  C   UNL d   1      -8.760  -0.891  10.685 -0.24 +0.00    -0.019    10.614
ATOM     23  C   UNL d   1      -9.152  -1.624   9.465 -0.21 -0.01    +0.045    10.614
ATOM     24  C   UNL d   1      -8.072  -1.732  11.493 -0.35 +0.01    -0.022    10.614
ATOM     25  C   UNL d   1     -10.199  -1.732   7.228 -0.18 -0.00    +0.049    10.614
ATOM     26  C   UNL d   1     -10.948  -2.316   5.153 -0.25 +0.01    -0.018    10.614
ATOM     27  C   UNL d   1     -10.414  -1.252   5.944 -0.27 -0.00    +0.003    10.614
ATOM     28  C   UNL d   1      -9.830  -1.086   8.440 -0.21 -0.00    +0.052    10.614
ATOM     29  C   UNL d   1      -7.462  -1.456  12.825 -0.31 -0.02    +0.046    10.614
ATOM     30  C   UNL d   1     -11.353  -2.243   3.720 -0.26 -0.03    +0.046    10.614
ATOM     31  H   UNL d   1      -8.677  -3.633   8.960 +0.07 -0.02    +0.166    10.614
ATOM     32  H   UNL d   1     -10.493  -3.697   8.006 +0.05 -0.03    +0.166    10.614
ATOM     33  C   UNL d   1     -11.446  -7.622   4.485 -0.21 -0.11    +0.141    10.614
ATOM     34  C   UNL d   1     -12.778  -7.695   3.789 -0.09 -0.23    +0.306    10.614
ATOM     35  O   UNL d   1     -13.393  -8.711   3.514 -0.08 +0.11    -0.251    10.614
ATOM     36  O   UNL d   1     -13.266  -6.481   3.476 -0.02 +0.53    -0.481    10.614
ATOM     37  H   UNL d   1     -12.472  -5.934   3.297 -0.42 -0.74    +0.295    10.614
ATOM     38  C   UNL d   1     -10.193   0.086   5.485 -0.26 -0.00    +0.017    10.614
ATOM     39  C   UNL d   1     -10.994   1.133   5.736 -0.25 -0.01    +0.092    10.614
ATOM     40  C   UNL d   1     -10.645   2.459   5.221 -0.18 -0.03    +0.330    10.614
ATOM     41  O   UNL d   1     -10.599   3.507   5.837 -0.29 +0.04    -0.246    10.614
ATOM     42  O   UNL d   1     -10.353   2.385   3.914 -0.19 +0.06    -0.477    10.614
ATOM     43  H   UNL d   1      -9.401   2.611   3.872 -0.17 -0.12    +0.295    10.614
ATOM     44  C   UNL d   1      -7.254  -8.913  10.914 -0.11 -0.01    +0.141    10.614
ATOM     45  C   UNL d   1      -8.285  -8.593  11.963 -0.04 -0.02    +0.306    10.614
ATOM     46  O   UNL d   1      -9.492  -8.728  11.862 -0.02 +0.02    -0.251    10.614
ATOM     47  O   UNL d   1      -7.738  -8.089  13.085 -0.03 +0.03    -0.481    10.614
ATOM     48  H   UNL d   1      -6.784  -7.999  12.877 +0.10 -0.02    +0.295    10.614
ATOM     49  C   UNL d   1      -9.103   0.545  10.952 -0.26 -0.01    +0.048    10.614
ATOM     50  C   UNL d   1      -9.336   0.808  12.440 -0.18 -0.03    +0.125    10.614
ATOM     51  C   UNL d   1      -8.973   2.221  12.799 -0.17 -0.08    +0.305    10.614
ATOM     52  O   UNL d   1      -9.137   2.781  13.868 -0.15 +0.05    -0.251    10.614
ATOM     53  O   UNL d   1      -8.419   2.878  11.761 -0.62 +0.05    -0.481    10.614
ATOM     54  H   UNL d   1      -7.474   2.619  11.792 -0.41 -0.10    +0.295    10.614
TER
ENDMDL
MODEL       70
USER    Run = 70
USER    Cluster Rank = 4
USER    Number of conformations in this cluster = 1
USER  
USER    RMSD from reference structure       = 16.854 A
USER  
USER    Estimated Free Energy of Binding    =   -6.00 kcal/mol  [=(1)+(2)+(3)-(4)]
USER    Estimated Inhibition Constant, Ki   =   40.26 uM (micromolar)  [Temperature = 298.15 K]
USER    
USER    (1) Final Intermolecular Energy     =   -9.87 kcal/mol
USER        vdW + Hbond + desolv Energy     =   -8.83 kcal/mol
USER        Electrostatic Energy            =   -1.04 kcal/mol
USER    (2) Final Total Internal Energy     =   -1.69 kcal/mol
USER    (3) Torsional Free Energy           =   +3.88 kcal/mol
USER    (4) Unbound System's Energy  [=(2)] =   -1.69 kcal/mol
USER    
USER    
USER  
USER    DPF = D:/Protein_go_brrr/autodock/final/mut_K82N/heme/dock.dpf
USER    NEWDPF move	heme_opt.pdbqt
USER    NEWDPF about	0.153000 0.018000 -0.028000
USER    NEWDPF tran0	7.219786 -1.321953 -16.773457
USER    NEWDPF axisangle0	-0.349678 0.124284 0.928590 151.801990
USER    NEWDPF quaternion0	-0.339144 0.120540 0.900617 0.243598
USER    NEWDPF dihe0	154.93 82.77 -179.94 70.28 -143.23 -91.69 -46.18 57.00 11.86 -74.72 -65.81 46.63 -180.00 
USER  
USER                              x       y       z    vdW   Elec        q     RMS 
ATOM      1  O   UNL d   1      11.043   0.193 -12.549 -0.14 +0.22    -0.289    16.854
ATOM      2  O   UNL d   1       8.277   4.109 -18.329 -0.01 +0.06    -0.289    16.854
ATOM      3  N   UNL d   1       8.899  -1.176 -14.878 -0.12 +0.18    -0.247    16.854
ATOM      4  N   UNL d   1       8.128   1.155 -16.551 -0.10 +0.21    -0.247    16.854
ATOM      5  N   UNL d   1       6.018  -0.454 -17.658 -0.04 +0.13    -0.354    16.854
ATOM      6  N   UNL d   1       6.813  -2.862 -15.905 -0.08 +0.12    -0.354    16.854
ATOM      7  C   UNL d   1       9.892  -1.951 -12.776 -0.18 -0.05    +0.084    16.854
ATOM      8  C   UNL d   1       9.705   3.018 -16.667 -0.04 -0.06    +0.084    16.854
ATOM      9  C   UNL d   1       9.310   1.666 -16.064 +0.04 -0.06    +0.058    16.854
ATOM     10  C   UNL d   1       8.981  -2.224 -13.977 -0.18 -0.03    +0.058    16.854
ATOM     11  C   UNL d   1      10.325  -0.571 -13.168 -0.14 -0.16    +0.193    16.854
ATOM     12  C   UNL d   1       9.676  -0.225 -14.473 -0.13 -0.11    +0.109    16.854
ATOM     13  C   UNL d   1       8.509   3.198 -17.559 -0.04 -0.09    +0.193    16.854
ATOM     14  C   UNL d   1       9.105  -1.870 -11.465 -0.33 -0.02    +0.026    16.854
ATOM     15  C   UNL d   1      10.030   1.061 -15.106 -0.09 -0.06    +0.055    16.854
ATOM     16  C   UNL d   1      10.959   2.907 -17.540 -0.02 -0.01    +0.026    16.854
ATOM     17  C   UNL d   1       7.627   2.004 -17.390 -0.09 -0.06    +0.109    16.854
ATOM     18  C   UNL d   1       8.397  -3.423 -14.158 -0.18 -0.02    +0.050    16.854
ATOM     19  C   UNL d   1       7.609  -3.793 -15.277 -0.15 -0.01    +0.045    16.854
ATOM     20  C   UNL d   1       5.672   0.771 -18.167 -0.10 -0.01    +0.045    16.854
ATOM     21  C   UNL d   1       6.350   1.922 -18.114 -0.10 -0.02    +0.057    16.854
ATOM     22  C   UNL d   1       4.016  -0.725 -18.654 -0.16 +0.01    -0.019    16.854
ATOM     23  C   UNL d   1       5.080  -1.421 -17.901 -0.18 -0.01    +0.045    16.854
ATOM     24  C   UNL d   1       4.374   0.571 -18.809 -0.11 +0.01    -0.022    16.854
ATOM     25  C   UNL d   1       6.071  -3.453 -16.901 -0.22 -0.02    +0.049    16.854
ATOM     26  C   UNL d   1       7.406  -5.013 -15.905 -0.16 +0.00    -0.018    16.854
ATOM     27  C   UNL d   1       6.449  -4.788 -16.942 -0.24 -0.00    +0.003    16.854
ATOM     28  C   UNL d   1       5.061  -2.725 -17.587 -0.28 -0.02    +0.052    16.854
ATOM     29  C   UNL d   1       3.638   1.665 -19.506 -0.12 -0.01    +0.046    16.854
ATOM     30  C   UNL d   1       8.062  -6.308 -15.566 -0.13 -0.01    +0.046    16.854
ATOM     31  H   UNL d   1       6.922  -0.607 -17.224 +0.05 -0.07    +0.166    16.854
ATOM     32  H   UNL d   1       6.764  -1.888 -15.628 +0.06 -0.07    +0.166    16.854
ATOM     33  C   UNL d   1      11.105  -2.879 -12.647 -0.05 -0.06    +0.141    16.854
ATOM     34  C   UNL d   1      12.013  -2.815 -13.845 +0.00 -0.09    +0.306    16.854
ATOM     35  O   UNL d   1      11.928  -3.499 -14.851 -0.00 +0.06    -0.251    16.854
ATOM     36  O   UNL d   1      12.980  -1.890 -13.714 +0.01 +0.14    -0.481    16.854
ATOM     37  H   UNL d   1      12.597  -1.216 -13.112 +0.04 -0.11    +0.295    16.854
ATOM     38  C   UNL d   1       5.943  -5.791 -17.829 -0.21 -0.01    +0.017    16.854
ATOM     39  C   UNL d   1       6.403  -6.035 -19.066 -0.19 -0.04    +0.092    16.854
ATOM     40  C   UNL d   1       5.806  -7.106 -19.868 -0.11 -0.15    +0.330    16.854
ATOM     41  O   UNL d   1       6.179  -8.260 -19.962 -0.74 +0.08    -0.246    16.854
ATOM     42  O   UNL d   1       4.729  -6.647 -20.524 -0.15 +0.35    -0.477    16.854
ATOM     43  H   UNL d   1       3.977  -6.918 -19.958 -0.48 -0.34    +0.295    16.854
ATOM     44  C   UNL d   1       9.825   4.176 -15.670 +0.12 -0.11    +0.141    16.854
ATOM     45  C   UNL d   1       8.963   5.358 -16.026 -0.08 -0.06    +0.306    16.854
ATOM     46  O   UNL d   1       9.282   6.308 -16.720 -0.10 -0.03    -0.251    16.854
ATOM     47  O   UNL d   1       7.743   5.294 -15.462 -0.56 -0.02    -0.481    16.854
ATOM     48  H   UNL d   1       7.746   4.450 -14.961 -0.46 -0.48    +0.295    16.854
ATOM     49  C   UNL d   1       2.756  -1.383 -19.133 -0.22 -0.02    +0.048    16.854
ATOM     50  C   UNL d   1       1.593  -1.156 -18.167 -0.33 -0.04    +0.125    16.854
ATOM     51  C   UNL d   1       0.514  -0.331 -18.810 -0.27 -0.11    +0.305    16.854
ATOM     52  O   UNL d   1      -0.018  -0.517 -19.890 -0.62 +0.09    -0.251    16.854
ATOM     53  O   UNL d   1       0.160   0.720 -18.046 -0.38 +0.12    -0.481    16.854
ATOM     54  H   UNL d   1      -0.743   0.496 -17.736 -0.37 -0.18    +0.295    16.854
TER
ENDMDL
MODEL       87
USER    Run = 87
USER    Cluster Rank = 5
USER    Number of conformations in this cluster = 1
USER  
USER    RMSD from reference structure       = 13.938 A
USER  
USER    Estimated Free Energy of Binding    =   -5.74 kcal/mol  [=(1)+(2)+(3)-(4)]
USER    Estimated Inhibition Constant, Ki   =   62.30 uM (micromolar)  [Temperature = 298.15 K]
USER    
USER    (1) Final Intermolecular Energy     =   -9.62 kcal/mol
USER        vdW + Hbond + desolv Energy     =   -9.18 kcal/mol
USER        Electrostatic Energy            =   -0.44 kcal/mol
USER    (2) Final Total Internal Energy     =   -1.19 kcal/mol
USER    (3) Torsional Free Energy           =   +3.88 kcal/mol
USER    (4) Unbound System's Energy  [=(2)] =   -1.19 kcal/mol
USER    
USER    
USER  
USER    DPF = D:/Protein_go_brrr/autodock/final/mut_K82N/heme/dock.dpf
USER    NEWDPF move	heme_opt.pdbqt
USER    NEWDPF about	0.153000 0.018000 -0.028000
USER    NEWDPF tran0	-7.875657 -14.096218 6.806392
USER    NEWDPF axisangle0	-0.873050 -0.288341 -0.393246 -153.650970
USER    NEWDPF quaternion0	-0.850072 -0.280752 -0.382896 -0.227918
USER    NEWDPF dihe0	-138.01 66.86 -72.71 178.35 10.32 27.93 126.55 -57.38 -27.11 125.21 -55.19 -62.19 140.45 
USER  
USER                              x       y       z    vdW   Elec        q     RMS 
ATOM      1  O   UNL d   1      -9.517 -16.652   1.754 -0.09 +0.03    -0.289    13.938
ATOM      2  O   UNL d   1     -13.319 -12.273   6.525 -0.02 +0.04    -0.289    13.938
ATOM      3  N   UNL d   1      -8.160 -15.480   4.700 +0.05 +0.10    -0.247    13.938
ATOM      4  N   UNL d   1     -10.250 -13.636   5.729 -0.15 +0.07    -0.247    13.938
ATOM      5  N   UNL d   1      -8.307 -12.618   7.587 -0.07 +0.07    -0.354    13.938
ATOM      6  N   UNL d   1      -6.139 -14.522   6.501 -0.09 +0.11    -0.354    13.938
ATOM      7  C   UNL d   1      -7.299 -16.735   2.779 -0.25 -0.02    +0.084    13.938
ATOM      8  C   UNL d   1     -12.555 -14.061   5.038 -0.09 -0.01    +0.084    13.938
ATOM      9  C   UNL d   1     -11.065 -14.402   4.926 -0.17 -0.01    +0.058    13.938
ATOM     10  C   UNL d   1      -7.045 -16.081   4.140 -0.25 -0.02    +0.058    13.938
ATOM     11  C   UNL d   1      -8.760 -16.413   2.677 -0.13 -0.03    +0.193    13.938
ATOM     12  C   UNL d   1      -9.168 -15.675   3.914 -0.17 -0.03    +0.109    13.938
ATOM     13  C   UNL d   1     -12.431 -12.935   6.024 -0.06 -0.03    +0.193    13.938
ATOM     14  C   UNL d   1      -6.555 -16.018   1.649 -0.49 -0.00    +0.026    13.938
ATOM     15  C   UNL d   1     -10.595 -15.332   4.080 -0.17 -0.01    +0.055    13.938
ATOM     16  C   UNL d   1     -13.351 -15.198   5.686 -0.03 -0.00    +0.026    13.938
ATOM     17  C   UNL d   1     -10.983 -12.773   6.357 -0.14 -0.02    +0.109    13.938
ATOM     18  C   UNL d   1      -5.851 -16.178   4.755 -0.33 -0.02    +0.050    13.938
ATOM     19  C   UNL d   1      -5.549 -15.680   6.048 -0.23 -0.01    +0.045    13.938
ATOM     20  C   UNL d   1      -9.309 -11.702   7.770 -0.07 -0.01    +0.045    13.938
ATOM     21  C   UNL d   1     -10.551 -11.708   7.274 -0.11 -0.01    +0.057    13.938
ATOM     22  C   UNL d   1      -7.466 -11.022   8.935 -0.20 +0.00    -0.019    13.938
ATOM     23  C   UNL d   1      -7.155 -12.293   8.252 -0.20 -0.01    +0.045    13.938
ATOM     24  C   UNL d   1      -8.744 -10.678   8.647 -0.14 +0.00    -0.022    13.938
ATOM     25  C   UNL d   1      -5.637 -14.175   7.734 -0.19 -0.01    +0.049    13.938
ATOM     26  C   UNL d   1      -4.670 -16.117   7.026 -0.18 +0.00    -0.018    13.938
ATOM     27  C   UNL d   1      -4.744 -15.173   8.097 -0.15 -0.00    +0.003    13.938
ATOM     28  C   UNL d   1      -5.979 -12.933   8.337 -0.26 -0.01    +0.052    13.938
ATOM     29  C   UNL d   1      -9.517  -9.489   9.109 -0.10 -0.01    +0.046    13.938
ATOM     30  C   UNL d   1      -3.813 -17.336   6.973 -0.09 +0.02    +0.046    13.938
ATOM     31  H   UNL d   1      -8.467 -13.478   7.073 -0.12 -0.05    +0.166    13.938
ATOM     32  H   UNL d   1      -6.816 -13.991   5.966 -0.28 -0.11    +0.166    13.938
ATOM     33  C   UNL d   1      -7.077 -18.250   2.726 -0.13 -0.04    +0.141    13.938
ATOM     34  C   UNL d   1      -7.132 -18.891   4.086 -0.03 -0.11    +0.306    13.938
ATOM     35  O   UNL d   1      -8.105 -18.945   4.819 -0.01 +0.05    -0.251    13.938
ATOM     36  O   UNL d   1      -5.956 -19.434   4.451 -0.02 +0.32    -0.481    13.938
ATOM     37  H   UNL d   1      -5.282 -18.796   4.135 -0.50 -0.49    +0.295    13.938
ATOM     38  C   UNL d   1      -3.982 -15.237   9.308 -0.18 +0.00    +0.017    13.938
ATOM     39  C   UNL d   1      -3.662 -14.186  10.078 -0.25 +0.01    +0.092    13.938
ATOM     40  C   UNL d   1      -2.890 -14.389  11.306 -0.20 +0.03    +0.330    13.938
ATOM     41  O   UNL d   1      -2.116 -15.294  11.557 -0.24 -0.02    -0.246    13.938
ATOM     42  O   UNL d   1      -3.138 -13.399  12.177 -0.36 -0.08    -0.477    13.938
ATOM     43  H   UNL d   1      -2.286 -12.919  12.237 +0.04 -0.01    +0.295    13.938
ATOM     44  C   UNL d   1     -13.223 -13.586   3.743 -0.08 -0.01    +0.141    13.938
ATOM     45  C   UNL d   1     -13.494 -14.702   2.770 -0.05 -0.01    +0.306    13.938
ATOM     46  O   UNL d   1     -14.447 -15.462   2.783 -0.02 +0.02    -0.251    13.938
ATOM     47  O   UNL d   1     -12.529 -14.820   1.840 -0.38 -0.01    -0.481    13.938
ATOM     48  H   UNL d   1     -12.035 -15.628   2.097 +0.04 -0.02    +0.295    13.938
ATOM     49  C   UNL d   1      -6.492 -10.261   9.786 -0.24 -0.01    +0.048    13.938
ATOM     50  C   UNL d   1      -5.220  -9.908   9.016 -0.38 -0.03    +0.125    13.938
ATOM     51  C   UNL d   1      -4.948  -8.431   9.076 -0.34 -0.04    +0.305    13.938
ATOM     52  O   UNL d   1      -5.634  -7.531   8.626 -0.37 +0.04    -0.251    13.938
ATOM     53  O   UNL d   1      -3.790  -8.157   9.708 -0.24 +0.07    -0.481    13.938
ATOM     54  H   UNL d   1      -3.457  -9.036   9.988 -0.29 -0.10    +0.295    13.938
TER
ENDMDL
MODEL       80
USER    Run = 80
USER    Cluster Rank = 6
USER    Number of conformations in this cluster = 4
USER  
USER    RMSD from reference structure       = 15.028 A
USER  
USER    Estimated Free Energy of Binding    =   -5.55 kcal/mol  [=(1)+(2)+(3)-(4)]
USER    Estimated Inhibition Constant, Ki   =   85.60 uM (micromolar)  [Temperature = 298.15 K]
USER    
USER    (1) Final Intermolecular Energy     =   -9.43 kcal/mol
USER        vdW + Hbond + desolv Energy     =   -9.27 kcal/mol
USER        Electrostatic Energy            =   -0.16 kcal/mol
USER    (2) Final Total Internal Energy     =   -2.56 kcal/mol
USER    (3) Torsional Free Energy           =   +3.88 kcal/mol
USER    (4) Unbound System's Energy  [=(2)] =   -2.56 kcal/mol
USER    
USER    
USER  
USER    DPF = D:/Protein_go_brrr/autodock/final/mut_K82N/heme/dock.dpf
USER    NEWDPF move	heme_opt.pdbqt
USER    NEWDPF about	0.153000 0.018000 -0.028000
USER    NEWDPF tran0	11.671563 4.515430 12.194255
USER    NEWDPF axisangle0	0.233110 -0.972182 -0.022835 -94.018253
USER    NEWDPF quaternion0	0.170511 -0.711115 -0.016703 -0.681882
USER    NEWDPF dihe0	100.29 -56.54 -122.68 176.48 -132.28 -179.35 120.50 134.12 33.76 -32.83 45.12 -75.80 -20.56 
USER  
USER                              x       y       z    vdW   Elec        q     RMS 
ATOM      1  O   UNL d   1      10.735   7.458   7.173 -0.11 -0.05    -0.289    15.028
ATOM      2  O   UNL d   1      14.308   0.988   8.500 -0.60 -0.04    -0.289    15.028
ATOM      3  N   UNL d   1      11.154   6.173  10.345 -0.13 +0.00    -0.247    15.028
ATOM      4  N   UNL d   1      12.377   3.511   9.848 -0.09 +0.01    -0.247    15.028
ATOM      5  N   UNL d   1      11.804   2.839  12.584 -0.05 +0.03    -0.354    15.028
ATOM      6  N   UNL d   1      10.520   5.596  13.086 -0.14 +0.03    -0.354    15.028
ATOM      7  C   UNL d   1       9.939   8.080   9.399 -0.24 +0.01    +0.084    15.028
ATOM      8  C   UNL d   1      13.654   3.235   7.783 -0.09 -0.00    +0.084    15.028
ATOM      9  C   UNL d   1      12.748   4.104   8.662 -0.13 -0.00    +0.058    15.028
ATOM     10  C   UNL d   1      10.331   7.250  10.625 -0.25 +0.00    +0.058    15.028
ATOM     11  C   UNL d   1      10.703   7.291   8.378 -0.13 +0.02    +0.193    15.028
ATOM     12  C   UNL d   1      11.418   6.178   9.079 -0.16 +0.00    +0.109    15.028
ATOM     13  C   UNL d   1      13.697   2.025   8.672 -0.09 +0.00    +0.193    15.028
ATOM     14  C   UNL d   1       8.444   7.975   9.088 -0.47 +0.01    +0.026    15.028
ATOM     15  C   UNL d   1      12.315   5.316   8.283 -0.15 +0.00    +0.055    15.028
ATOM     16  C   UNL d   1      15.067   3.817   7.674 -0.03 -0.00    +0.026    15.028
ATOM     17  C   UNL d   1      12.877   2.318   9.887 -0.16 -0.01    +0.109    15.028
ATOM     18  C   UNL d   1       9.964   7.617  11.868 -0.28 +0.00    +0.050    15.028
ATOM     19  C   UNL d   1      10.348   6.962  13.066 -0.25 -0.00    +0.045    15.028
ATOM     20  C   UNL d   1      12.184   1.609  12.114 -0.24 -0.01    +0.045    15.028
ATOM     21  C   UNL d   1      12.701   1.290  10.923 -0.24 -0.01    +0.057    15.028
ATOM     22  C   UNL d   1      11.395   1.374  14.245 -0.37 +0.00    -0.019    15.028
ATOM     23  C   UNL d   1      11.314   2.797  13.862 -0.25 -0.01    +0.045    15.028
ATOM     24  C   UNL d   1      11.913   0.675  13.207 -0.35 +0.01    -0.022    15.028
ATOM     25  C   UNL d   1      10.800   5.164  14.362 -0.22 -0.01    +0.049    15.028
ATOM     26  C   UNL d   1      10.558   7.433  14.352 -0.20 +0.00    -0.018    15.028
ATOM     27  C   UNL d   1      10.863   6.296  15.162 -0.18 -0.00    +0.003    15.028
ATOM     28  C   UNL d   1      10.865   3.776  14.663 -0.31 -0.01    +0.052    15.028
ATOM     29  C   UNL d   1      12.198  -0.785  13.114 -0.44 -0.02    +0.046    15.028
ATOM     30  C   UNL d   1      10.484   8.852  14.804 -0.15 +0.00    +0.046    15.028
ATOM     31  H   UNL d   1      11.960   3.681  12.041 +0.06 -0.01    +0.166    15.028
ATOM     32  H   UNL d   1      10.409   5.005  12.271 +0.07 -0.01    +0.166    15.028
ATOM     33  C   UNL d   1      10.410   9.538   9.414 -0.14 +0.04    +0.141    15.028
ATOM     34  C   UNL d   1      11.844   9.688   8.981 -0.01 +0.05    +0.306    15.028
ATOM     35  O   UNL d   1      12.829   9.457   9.661 -0.00 -0.02    -0.251    15.028
ATOM     36  O   UNL d   1      11.960  10.119   7.713 +0.00 -0.09    -0.481    15.028
ATOM     37  H   UNL d   1      11.856   9.311   7.167 +0.05 +0.05    +0.295    15.028
ATOM     38  C   UNL d   1      11.134   6.332  16.568 -0.12 -0.00    +0.017    15.028
ATOM     39  C   UNL d   1      10.716   5.423  17.461 -0.15 +0.00    +0.092    15.028
ATOM     40  C   UNL d   1      11.078   5.567  18.874 -0.08 +0.04    +0.330    15.028
ATOM     41  O   UNL d   1      10.759   4.846  19.800 -0.19 -0.06    -0.246    15.028
ATOM     42  O   UNL d   1      11.857   6.646  19.043 +0.01 -0.04    -0.477    15.028
ATOM     43  H   UNL d   1      11.374   7.182  19.705 +0.04 +0.03    +0.295    15.028
ATOM     44  C   UNL d   1      13.092   2.882   6.402 -0.09 -0.00    +0.141    15.028
ATOM     45  C   UNL d   1      12.148   1.709   6.427 -0.19 +0.00    +0.306    15.028
ATOM     46  O   UNL d   1      10.992   1.715   6.813 -0.35 +0.01    -0.251    15.028
ATOM     47  O   UNL d   1      12.724   0.576   5.986 -0.09 -0.07    -0.481    15.028
ATOM     48  H   UNL d   1      13.509   0.457   6.562 +0.08 +0.05    +0.295    15.028
ATOM     49  C   UNL d   1      10.950   0.831  15.572 -0.05 -0.02    +0.048    15.028
ATOM     50  C   UNL d   1      12.136   0.518  16.484 -0.31 -0.02    +0.125    15.028
ATOM     51  C   UNL d   1      11.975  -0.830  17.129 -0.32 -0.05    +0.305    15.028
ATOM     52  O   UNL d   1      12.777  -1.747  17.145 -0.31 -0.00    -0.251    15.028
ATOM     53  O   UNL d   1      10.774  -0.962  17.728 -0.30 +0.13    -0.481    15.028
ATOM     54  H   UNL d   1      10.356  -0.082  17.620 -0.37 -0.14    +0.295    15.028
TER
ENDMDL
MODEL       49
USER    Run = 49
USER    Cluster Rank = 7
USER    Number of conformations in this cluster = 1
USER  
USER    RMSD from reference structure       = 10.913 A
USER  
USER    Estimated Free Energy of Binding    =   -5.46 kcal/mol  [=(1)+(2)+(3)-(4)]
USER    Estimated Inhibition Constant, Ki   =   98.86 uM (micromolar)  [Temperature = 298.15 K]
USER    
USER    (1) Final Intermolecular Energy     =   -9.34 kcal/mol
USER        vdW + Hbond + desolv Energy     =   -9.30 kcal/mol
USER        Electrostatic Energy            =   -0.04 kcal/mol
USER    (2) Final Total Internal Energy     =   -1.47 kcal/mol
USER    (3) Torsional Free Energy           =   +3.88 kcal/mol
USER    (4) Unbound System's Energy  [=(2)] =   -1.47 kcal/mol
USER    
USER    
USER  
USER    DPF = D:/Protein_go_brrr/autodock/final/mut_K82N/heme/dock.dpf
USER    NEWDPF move	heme_opt.pdbqt
USER    NEWDPF about	0.153000 0.018000 -0.028000
USER    NEWDPF tran0	-7.310073 4.877241 -9.195456
USER    NEWDPF axisangle0	0.673304 0.329637 0.661817 56.620480
USER    NEWDPF quaternion0	0.319311 0.156329 0.313864 0.880393
USER    NEWDPF dihe0	68.15 -147.14 99.07 15.48 -136.23 -44.50 -45.94 -111.41 -120.81 -127.46 51.61 -153.88 -52.61 
USER  
USER                              x       y       z    vdW   Elec        q     RMS 
ATOM      1  O   UNL d   1     -10.488   8.858 -12.164 -0.01 -0.04    -0.289    10.913
ATOM      2  O   UNL d   1     -12.358   2.135  -9.390 -0.11 -0.18    -0.289    10.913
ATOM      3  N   UNL d   1      -8.220   6.789 -10.592 -0.09 -0.04    -0.247    10.913
ATOM      4  N   UNL d   1      -9.908   4.557  -9.594 -0.11 -0.14    -0.247    10.913
ATOM      5  N   UNL d   1      -7.690   3.732  -7.961 -0.17 -0.16    -0.354    10.913
ATOM      6  N   UNL d   1      -5.952   6.062  -8.987 -0.14 -0.03    -0.354    10.913
ATOM      7  C   UNL d   1      -8.155   9.078 -11.467 -0.10 +0.01    +0.084    10.913
ATOM      8  C   UNL d   1     -11.985   4.102 -10.798 -0.09 +0.04    +0.084    10.913
ATOM      9  C   UNL d   1     -10.749   4.985 -10.597 -0.12 +0.02    +0.058    10.913
ATOM     10  C   UNL d   1      -7.439   7.920 -10.765 -0.16 +0.00    +0.058    10.913
ATOM     11  C   UNL d   1      -9.473   8.395 -11.676 -0.04 +0.02    +0.193    10.913
ATOM     12  C   UNL d   1      -9.377   7.005 -11.126 -0.08 +0.02    +0.109    10.913
ATOM     13  C   UNL d   1     -11.709   3.115  -9.699 -0.09 +0.13    +0.193    10.913
ATOM     14  C   UNL d   1      -8.361  10.275 -10.535 -0.18 +0.00    +0.026    10.913
ATOM     15  C   UNL d   1     -10.535   6.105 -11.304 -0.10 +0.01    +0.055    10.913
ATOM     16  C   UNL d   1     -11.945   3.367 -12.142 -0.14 +0.01    +0.026    10.913
ATOM     17  C   UNL d   1     -10.426   3.507  -9.042 -0.08 +0.10    +0.109    10.913
ATOM     18  C   UNL d   1      -6.135   7.994 -10.439 -0.32 -0.00    +0.050    10.913
ATOM     19  C   UNL d   1      -5.370   6.947  -9.866 -0.34 -0.00    +0.045    10.913
ATOM     20  C   UNL d   1      -8.672   2.921  -7.453 -0.30 +0.04    +0.045    10.913
ATOM     21  C   UNL d   1      -9.921   2.741  -7.893 -0.00 +0.07    +0.057    10.913
ATOM     22  C   UNL d   1      -6.794   2.700  -6.171 -0.38 -0.01    -0.019    10.913
ATOM     23  C   UNL d   1      -6.520   3.666  -7.254 -0.22 +0.01    +0.045    10.913
ATOM     24  C   UNL d   1      -8.069   2.261  -6.296 -0.34 -0.01    -0.022    10.913
ATOM     25  C   UNL d   1      -5.013   5.190  -8.487 -0.35 +0.01    +0.049    10.913
ATOM     26  C   UNL d   1      -4.027   6.619  -9.968 -0.48 +0.00    -0.018    10.913
ATOM     27  C   UNL d   1      -3.811   5.496  -9.110 -0.47 +0.00    +0.003    10.913
ATOM     28  C   UNL d   1      -5.343   4.283  -7.443 +0.03 +0.02    +0.052    10.913
ATOM     29  C   UNL d   1      -8.802   1.274  -5.453 -0.13 +0.03    +0.046    10.913
ATOM     30  C   UNL d   1      -3.005   7.302 -10.811 -0.07 -0.01    +0.046    10.913
ATOM     31  H   UNL d   1      -7.829   4.250  -8.823 +0.07 +0.06    +0.166    10.913
ATOM     32  H   UNL d   1      -6.931   6.092  -8.727 +0.07 +0.03    +0.166    10.913
ATOM     33  C   UNL d   1      -7.553   9.506 -12.809 -0.11 -0.00    +0.141    10.913
ATOM     34  C   UNL d   1      -6.256  10.252 -12.650 -0.14 -0.04    +0.306    10.913
ATOM     35  O   UNL d   1      -6.133  11.437 -12.389 -0.28 +0.02    -0.251    10.913
ATOM     36  O   UNL d   1      -5.180   9.465 -12.824 -0.07 +0.12    -0.481    10.913
ATOM     37  H   UNL d   1      -4.745   9.442 -11.945 -0.30 -0.15    +0.295    10.913
ATOM     38  C   UNL d   1      -2.553   4.845  -8.903 -0.51 +0.00    +0.017    10.913
ATOM     39  C   UNL d   1      -1.464   5.417  -8.368 -0.48 +0.00    +0.092    10.913
ATOM     40  C   UNL d   1      -0.238   4.632  -8.194 -0.26 +0.01    +0.330    10.913
ATOM     41  O   UNL d   1      -0.131   3.514  -7.729 -0.36 -0.01    -0.246    10.913
ATOM     42  O   UNL d   1       0.821   5.325  -8.643 -0.19 -0.03    -0.477    10.913
ATOM     43  H   UNL d   1       0.589   6.257  -8.452 +0.26 +0.01    +0.295    10.913
ATOM     44  C   UNL d   1     -13.335   4.796 -10.586 -0.02 +0.05    +0.141    10.913
ATOM     45  C   UNL d   1     -14.510   3.866 -10.729 +0.00 +0.10    +0.306    10.913
ATOM     46  O   UNL d   1     -15.124   3.623 -11.753 -0.00 -0.07    -0.251    10.913
ATOM     47  O   UNL d   1     -14.871   3.310  -9.559 +0.01 -0.18    -0.481    10.913
ATOM     48  H   UNL d   1     -14.252   2.558  -9.441 +0.03 +0.13    +0.295    10.913
ATOM     49  C   UNL d   1      -5.798   2.310  -5.118 -0.45 +0.01    +0.048    10.913
ATOM     50  C   UNL d   1      -5.791   0.801  -4.874 -0.40 +0.01    +0.125    10.913
ATOM     51  C   UNL d   1      -5.959   0.493  -3.413 -0.25 +0.02    +0.305    10.913
ATOM     52  O   UNL d   1      -5.172  -0.076  -2.678 -0.35 +0.01    -0.251    10.913
ATOM     53  O   UNL d   1      -7.148   0.920  -2.942 -0.21 -0.03    -0.481    10.913
ATOM     54  H   UNL d   1      -7.042   0.893  -1.968 -0.14 -0.04    +0.295    10.913
TER
ENDMDL
MODEL       89
USER    Run = 89
USER    Cluster Rank = 8
USER    Number of conformations in this cluster = 2
USER  
USER    RMSD from reference structure       = 9.848 A
USER  
USER    Estimated Free Energy of Binding    =   -5.44 kcal/mol  [=(1)+(2)+(3)-(4)]
USER    Estimated Inhibition Constant, Ki   =  103.41 uM (micromolar)  [Temperature = 298.15 K]
USER    
USER    (1) Final Intermolecular Energy     =   -9.32 kcal/mol
USER        vdW + Hbond + desolv Energy     =   -8.77 kcal/mol
USER        Electrostatic Energy            =   -0.55 kcal/mol
USER    (2) Final Total Internal Energy     =   -2.04 kcal/mol
USER    (3) Torsional Free Energy           =   +3.88 kcal/mol
USER    (4) Unbound System's Energy  [=(2)] =   -2.04 kcal/mol
USER    
USER    
USER  
USER    DPF = D:/Protein_go_brrr/autodock/final/mut_K82N/heme/dock.dpf
USER    NEWDPF move	heme_opt.pdbqt
USER    NEWDPF about	0.153000 0.018000 -0.028000
USER    NEWDPF tran0	10.572942 -9.323781 -0.710454
USER    NEWDPF axisangle0	0.296447 -0.724889 -0.621817 -90.545619
USER    NEWDPF quaternion0	0.210615 -0.515008 -0.441779 -0.703732
USER    NEWDPF dihe0	166.47 -57.79 -175.04 -9.40 -155.43 174.20 -57.77 97.56 61.80 -136.97 176.65 174.38 -179.99 
USER  
USER                              x       y       z    vdW   Elec        q     RMS 
ATOM      1  O   UNL d   1      10.222  -3.635  -2.217 -0.15 -0.09    -0.289     9.848
ATOM      2  O   UNL d   1       9.839  -9.870  -6.385 -0.28 -0.01    -0.289     9.848
ATOM      3  N   UNL d   1      10.622  -6.795  -0.893 -0.02 -0.00    -0.247     9.848
ATOM      4  N   UNL d   1      10.012  -8.580  -3.189 -0.09 -0.01    -0.247     9.848
ATOM      5  N   UNL d   1       9.851 -10.765  -1.328 -0.03 -0.03    -0.354     9.848
ATOM      6  N   UNL d   1      10.465  -8.903   1.051 -0.16 -0.01    -0.354     9.848
ATOM      7  C   UNL d   1      10.470  -4.534   0.042 -0.32 -0.01    +0.084     9.848
ATOM      8  C   UNL d   1      10.378  -7.681  -5.432 -0.11 -0.00    +0.084     9.848
ATOM      9  C   UNL d   1      10.347  -7.459  -3.916 -0.13 +0.00    +0.058     9.848
ATOM     10  C   UNL d   1      10.625  -6.041   0.268 -0.28 -0.01    +0.058     9.848
ATOM     11  C   UNL d   1      10.397  -4.568  -1.455 -0.20 +0.01    +0.193     9.848
ATOM     12  C   UNL d   1      10.527  -5.991  -1.902 -0.08 +0.01    +0.109     9.848
ATOM     13  C   UNL d   1       9.963  -9.125  -5.433 -0.07 +0.01    +0.193     9.848
ATOM     14  C   UNL d   1       9.143  -4.004   0.591 +0.02 -0.01    +0.026     9.848
ATOM     15  C   UNL d   1      10.575  -6.263  -3.353 -0.17 +0.00    +0.055     9.848
ATOM     16  C   UNL d   1      11.800  -7.577  -5.992 -0.04 -0.00    +0.026     9.848
ATOM     17  C   UNL d   1       9.765  -9.547  -4.013 -0.10 +0.01    +0.109     9.848
ATOM     18  C   UNL d   1      10.836  -6.549   1.497 -0.28 -0.00    +0.050     9.848
ATOM     19  C   UNL d   1      11.074  -7.916   1.792 -0.29 +0.00    +0.045     9.848
ATOM     20  C   UNL d   1       9.364 -11.378  -2.453 -0.10 +0.00    +0.045     9.848
ATOM     21  C   UNL d   1       9.311 -10.911  -3.705 -0.12 +0.01    +0.057     9.848
ATOM     22  C   UNL d   1       9.123 -12.795  -0.678 -0.12 -0.00    -0.019     9.848
ATOM     23  C   UNL d   1       9.748 -11.543  -0.206 -0.16 +0.00    +0.045     9.848
ATOM     24  C   UNL d   1       8.899 -12.691  -2.009 -0.09 -0.00    -0.022     9.848
ATOM     25  C   UNL d   1      10.761 -10.144   1.563 -0.22 +0.01    +0.049     9.848
ATOM     26  C   UNL d   1      11.814  -8.533   2.788 -0.28 -0.00    -0.018     9.848
ATOM     27  C   UNL d   1      11.629  -9.941   2.627 -0.23 +0.00    +0.003     9.848
ATOM     28  C   UNL d   1      10.122 -11.311   1.062 -0.22 +0.01    +0.052     9.848
ATOM     29  C   UNL d   1       8.301 -13.695  -2.936 -0.10 +0.01    +0.046     9.848
ATOM     30  C   UNL d   1      12.646  -7.859   3.827 -0.25 +0.00    +0.046     9.848
ATOM     31  H   UNL d   1      10.307  -9.860  -1.377 +0.04 +0.01    +0.166     9.848
ATOM     32  H   UNL d   1       9.853  -8.716   0.265 +0.06 +0.00    +0.166     9.848
ATOM     33  C   UNL d   1      11.652  -3.675   0.504 -0.22 -0.02    +0.141     9.848
ATOM     34  C   UNL d   1      12.427  -3.091  -0.646 -0.16 +0.06    +0.306     9.848
ATOM     35  O   UNL d   1      13.488  -3.504  -1.084 -0.08 -0.06    -0.251     9.848
ATOM     36  O   UNL d   1      11.824  -2.017  -1.185 -0.44 -0.33    -0.481     9.848
ATOM     37  H   UNL d   1      10.904  -2.056  -0.848 -0.37 +0.02    +0.295     9.848
ATOM     38  C   UNL d   1      12.208 -10.950   3.461 -0.20 +0.00    +0.017     9.848
ATOM     39  C   UNL d   1      12.486 -10.811   4.766 -0.19 +0.02    +0.092     9.848
ATOM     40  C   UNL d   1      13.064 -11.932   5.513 -0.05 +0.10    +0.330     9.848
ATOM     41  O   UNL d   1      13.489 -11.925   6.652 -0.09 -0.05    -0.246     9.848
ATOM     42  O   UNL d   1      13.064 -13.040   4.756 -0.04 -0.18    -0.477     9.848
ATOM     43  H   UNL d   1      14.007 -13.301   4.723 +0.03 +0.06    +0.295     9.848
ATOM     44  C   UNL d   1       9.399  -6.828  -6.245 -0.14 -0.03    +0.141     9.848
ATOM     45  C   UNL d   1       9.581  -6.969  -7.732 -0.07 -0.07    +0.306     9.848
ATOM     46  O   UNL d   1      10.143  -6.182  -8.474 -0.04 +0.05    -0.251     9.848
ATOM     47  O   UNL d   1       9.016  -8.091  -8.215 -0.04 +0.12    -0.481     9.848
ATOM     48  H   UNL d   1       8.566  -8.494  -7.443 -0.38 -0.11    +0.295     9.848
ATOM     49  C   UNL d   1       8.792 -13.958   0.210 -0.25 +0.01    +0.048     9.848
ATOM     50  C   UNL d   1       7.331 -13.933   0.660 -0.37 +0.05    +0.125     9.848
ATOM     51  C   UNL d   1       6.631 -12.710   0.139 -0.32 +0.08    +0.305     9.848
ATOM     52  O   UNL d   1       6.011 -12.596  -0.904 -0.36 -0.06    -0.251     9.848
ATOM     53  O   UNL d   1       6.759 -11.661   0.976 -0.17 -0.07    -0.481     9.848
ATOM     54  H   UNL d   1       6.410 -10.903   0.462 -0.26 -0.04    +0.295     9.848
TER
ENDMDL
MODEL       34
USER    Run = 34
USER    Cluster Rank = 9
USER    Number of conformations in this cluster = 1
USER  
USER    RMSD from reference structure       = 18.124 A
USER  
USER    Estimated Free Energy of Binding    =   -5.43 kcal/mol  [=(1)+(2)+(3)-(4)]
USER    Estimated Inhibition Constant, Ki   =  103.83 uM (micromolar)  [Temperature = 298.15 K]
USER    
USER    (1) Final Intermolecular Energy     =   -9.31 kcal/mol
USER        vdW + Hbond + desolv Energy     =   -8.55 kcal/mol
USER        Electrostatic Energy            =   -0.76 kcal/mol
USER    (2) Final Total Internal Energy     =   -3.38 kcal/mol
USER    (3) Torsional Free Energy           =   +3.88 kcal/mol
USER    (4) Unbound System's Energy  [=(2)] =   -3.38 kcal/mol
USER    
USER    
USER  
USER    DPF = D:/Protein_go_brrr/autodock/final/mut_K82N/heme/dock.dpf
USER    NEWDPF move	heme_opt.pdbqt
USER    NEWDPF about	0.153000 0.018000 -0.028000
USER    NEWDPF tran0	-3.551621 2.816354 18.862971
USER    NEWDPF axisangle0	0.295132 -0.882161 0.366999 -170.297213
USER    NEWDPF quaternion0	0.294075 -0.879001 0.365684 -0.084572
USER    NEWDPF dihe0	107.66 -136.01 122.12 -140.40 10.20 -17.52 -36.19 -23.05 -23.16 -117.23 136.20 6.09 30.87 
USER  
USER                              x       y       z    vdW   Elec        q     RMS 
ATOM      1  O   UNL d   1       0.074   5.866  15.355 -0.29 +0.06    -0.289    18.124
ATOM      2  O   UNL d   1       1.308   2.408  21.905 -0.03 +0.26    -0.289    18.124
ATOM      3  N   UNL d   1      -2.426   4.298  17.139 -0.13 +0.08    -0.247    18.124
ATOM      4  N   UNL d   1      -0.959   2.994  19.370 -0.11 +0.08    -0.247    18.124
ATOM      5  N   UNL d   1      -3.332   1.466  19.915 -0.09 +0.02    -0.354    18.124
ATOM      6  N   UNL d   1      -4.841   2.809  17.587 -0.05 +0.11    -0.354    18.124
ATOM      7  C   UNL d   1      -2.281   5.364  14.937 -0.40 -0.03    +0.084    18.124
ATOM      8  C   UNL d   1       1.162   4.000  20.051 -0.16 -0.04    +0.084    18.124
ATOM      9  C   UNL d   1      -0.025   3.965  19.083 -0.19 -0.02    +0.058    18.124
ATOM     10  C   UNL d   1      -3.118   4.622  15.984 -0.29 -0.02    +0.058    18.124
ATOM     11  C   UNL d   1      -1.000   5.417  15.712 -0.25 -0.06    +0.193    18.124
ATOM     12  C   UNL d   1      -1.223   4.761  17.040 -0.23 -0.03    +0.109    18.124
ATOM     13  C   UNL d   1       0.747   2.845  20.919 -0.06 -0.13    +0.193    18.124
ATOM     14  C   UNL d   1      -2.063   4.524  13.676 -0.61 -0.00    +0.026    18.124
ATOM     15  C   UNL d   1      -0.117   4.777  18.018 -0.26 -0.02    +0.055    18.124
ATOM     16  C   UNL d   1       1.166   5.275  20.899 -0.07 -0.01    +0.026    18.124
ATOM     17  C   UNL d   1      -0.550   2.319  20.396 -0.16 -0.05    +0.109    18.124
ATOM     18  C   UNL d   1      -4.433   4.401  15.804 -0.28 -0.02    +0.050    18.124
ATOM     19  C   UNL d   1      -5.303   3.800  16.750 -0.16 -0.01    +0.045    18.124
ATOM     20  C   UNL d   1      -2.443   0.820  20.734 -0.17 +0.00    +0.045    18.124
ATOM     21  C   UNL d   1      -1.180   1.150  21.026 -0.22 -0.01    +0.057    18.124
ATOM     22  C   UNL d   1      -4.414  -0.333  20.731 -0.15 -0.00    -0.019    18.124
ATOM     23  C   UNL d   1      -4.550   0.843  19.849 -0.17 -0.00    +0.045    18.124
ATOM     24  C   UNL d   1      -3.165  -0.341  21.253 -0.11 -0.01    -0.022    18.124
ATOM     25  C   UNL d   1      -5.867   2.308  18.354 -0.16 -0.01    +0.049    18.124
ATOM     26  C   UNL d   1      -6.654   3.972  17.006 -0.15 +0.00    -0.018    18.124
ATOM     27  C   UNL d   1      -7.000   3.041  18.034 -0.09 -0.00    +0.003    18.124
ATOM     28  C   UNL d   1      -5.668   1.170  19.183 -0.19 -0.00    +0.052    18.124
ATOM     29  C   UNL d   1      -2.557  -1.316  22.203 -0.06 +0.02    +0.046    18.124
ATOM     30  C   UNL d   1      -7.570   4.943  16.340 -0.14 -0.01    +0.046    18.124
ATOM     31  H   UNL d   1      -3.101   2.355  19.485 +0.04 -0.02    +0.166    18.124
ATOM     32  H   UNL d   1      -3.882   2.481  17.591 -0.31 -0.06    +0.166    18.124
ATOM     33  C   UNL d   1      -2.762   6.778  14.594 -0.25 -0.13    +0.141    18.124
ATOM     34  C   UNL d   1      -3.562   7.403  15.704 -0.07 -0.28    +0.306    18.124
ATOM     35  O   UNL d   1      -3.150   7.688  16.816 -0.08 +0.15    -0.251    18.124
ATOM     36  O   UNL d   1      -4.838   7.639  15.354 -0.61 +0.43    -0.481    18.124
ATOM     37  H   UNL d   1      -4.792   8.423  14.765 -0.44 -0.65    +0.295    18.124
ATOM     38  C   UNL d   1      -8.310   2.874  18.589 -0.04 -0.00    +0.017    18.124
ATOM     39  C   UNL d   1      -8.584   2.721  19.893 -0.01 -0.01    +0.092    18.124
ATOM     40  C   UNL d   1      -9.973   2.577  20.335 -0.00 -0.03    +0.330    18.124
ATOM     41  O   UNL d   1     -10.982   2.891  19.732 -0.00 +0.02    -0.246    18.124
ATOM     42  O   UNL d   1     -10.014   2.015  21.553 +0.00 +0.03    -0.477    18.124
ATOM     43  H   UNL d   1      -9.312   2.482  22.051 +0.00 -0.02    +0.295    18.124
ATOM     44  C   UNL d   1       2.536   3.747  19.422 -0.30 -0.08    +0.141    18.124
ATOM     45  C   UNL d   1       3.615   3.481  20.437 -0.21 -0.16    +0.306    18.124
ATOM     46  O   UNL d   1       4.219   4.314  21.091 -0.11 +0.07    -0.251    18.124
ATOM     47  O   UNL d   1       3.898   2.172  20.556 -0.14 +0.46    -0.481    18.124
ATOM     48  H   UNL d   1       3.048   1.757  20.817 -0.44 -0.63    +0.295    18.124
ATOM     49  C   UNL d   1      -5.502  -1.339  20.966 -0.13 +0.00    +0.048    18.124
ATOM     50  C   UNL d   1      -6.809  -0.673  21.398 -0.04 -0.00    +0.125    18.124
ATOM     51  C   UNL d   1      -6.551   0.409  22.407 -0.01 -0.01    +0.305    18.124
ATOM     52  O   UNL d   1      -5.643   0.469  23.218 -0.01 +0.00    -0.251    18.124
ATOM     53  O   UNL d   1      -7.483   1.382  22.352 +0.00 +0.02    -0.481    18.124
ATOM     54  H   UNL d   1      -8.322   0.900  22.198 +0.01 -0.02    +0.295    18.124
TER
ENDMDL
MODEL       47
USER    Run = 47
USER    Cluster Rank = 10
USER    Number of conformations in this cluster = 4
USER  
USER    RMSD from reference structure       = 14.839 A
USER  
USER    Estimated Free Energy of Binding    =   -5.39 kcal/mol  [=(1)+(2)+(3)-(4)]
USER    Estimated Inhibition Constant, Ki   =  111.94 uM (micromolar)  [Temperature = 298.15 K]
USER    
USER    (1) Final Intermolecular Energy     =   -9.27 kcal/mol
USER        vdW + Hbond + desolv Energy     =   -8.73 kcal/mol
USER        Electrostatic Energy            =   -0.54 kcal/mol
USER    (2) Final Total Internal Energy     =   -2.50 kcal/mol
USER    (3) Torsional Free Energy           =   +3.88 kcal/mol
USER    (4) Unbound System's Energy  [=(2)] =   -2.50 kcal/mol
USER    
USER    
USER  
USER    DPF = D:/Protein_go_brrr/autodock/final/mut_K82N/heme/dock.dpf
USER    NEWDPF move	heme_opt.pdbqt
USER    NEWDPF about	0.153000 0.018000 -0.028000
USER    NEWDPF tran0	-8.774818 6.465886 -13.072575
USER    NEWDPF axisangle0	0.098597 0.710880 0.696368 106.238229
USER    NEWDPF quaternion0	0.078866 0.568622 0.557014 0.600153
USER    NEWDPF dihe0	135.56 156.00 -176.34 -159.82 -14.26 -62.23 144.88 -60.22 -168.67 -4.23 -63.39 22.21 3.94 
USER  
USER                              x       y       z    vdW   Elec        q     RMS 
ATOM      1  O   UNL d   1      -6.380  10.806 -16.264 -0.01 +0.05    -0.289    14.839
ATOM      2  O   UNL d   1     -10.801   5.076 -18.269 -0.11 -0.08    -0.289    14.839
ATOM      3  N   UNL d   1      -7.443   8.398 -14.035 -0.05 +0.01    -0.247    14.839
ATOM      4  N   UNL d   1      -9.343   6.772 -15.641 -0.09 -0.01    -0.247    14.839
ATOM      5  N   UNL d   1     -10.252   5.580 -13.187 -0.08 -0.07    -0.354    14.839
ATOM      6  N   UNL d   1      -8.292   7.285 -11.528 -0.04 -0.03    -0.354    14.839
ATOM      7  C   UNL d   1      -6.196  10.500 -13.846 -0.13 -0.01    +0.084    14.839
ATOM      8  C   UNL d   1      -9.015   6.738 -18.062 -0.12 -0.00    +0.084    14.839
ATOM      9  C   UNL d   1      -8.623   7.297 -16.691 -0.14 -0.00    +0.058    14.839
ATOM     10  C   UNL d   1      -6.814   9.274 -13.167 -0.13 -0.00    +0.058    14.839
ATOM     11  C   UNL d   1      -6.573  10.153 -15.255 -0.03 -0.03    +0.193    14.839
ATOM     12  C   UNL d   1      -7.302   8.845 -15.241 -0.08 -0.01    +0.109    14.839
ATOM     13  C   UNL d   1     -10.117   5.826 -17.600 -0.12 +0.03    +0.193    14.839
ATOM     14  C   UNL d   1      -6.907  11.796 -13.448 -0.22 -0.00    +0.026    14.839
ATOM     15  C   UNL d   1      -7.693   8.252 -16.536 -0.12 -0.01    +0.055    14.839
ATOM     16  C   UNL d   1      -7.896   5.888 -18.671 -0.15 -0.00    +0.026    14.839
ATOM     17  C   UNL d   1     -10.219   5.945 -16.114 -0.15 +0.02    +0.109    14.839
ATOM     18  C   UNL d   1      -6.661   9.049 -11.848 -0.23 -0.00    +0.050    14.839
ATOM     19  C   UNL d   1      -7.122   7.904 -11.150 -0.16 +0.00    +0.045    14.839
ATOM     20  C   UNL d   1     -11.201   5.096 -14.050 -0.15 +0.01    +0.045    14.839
ATOM     21  C   UNL d   1     -11.250   5.194 -15.383 -0.18 +0.02    +0.057    14.839
ATOM     22  C   UNL d   1     -11.790   4.537 -11.915 -0.11 -0.01    -0.019    14.839
ATOM     23  C   UNL d   1     -10.522   5.292 -11.876 -0.15 +0.01    +0.045    14.839
ATOM     24  C   UNL d   1     -12.186   4.423 -13.205 -0.12 -0.01    -0.022    14.839
ATOM     25  C   UNL d   1      -8.596   6.258 -10.664 -0.15 +0.01    +0.049    14.839
ATOM     26  C   UNL d   1      -6.635   7.241 -10.035 -0.25 -0.00    -0.018    14.839
ATOM     27  C   UNL d   1      -7.559   6.190  -9.744 -0.22 +0.00    +0.003    14.839
ATOM     28  C   UNL d   1      -9.837   5.571 -10.756 -0.17 +0.02    +0.052    14.839
ATOM     29  C   UNL d   1     -13.393   3.740 -13.754 -0.11 +0.02    +0.046    14.839
ATOM     30  C   UNL d   1      -5.386   7.559  -9.284 -0.45 -0.00    +0.046    14.839
ATOM     31  H   UNL d   1      -9.409   6.029 -13.530 +0.04 +0.02    +0.166    14.839
ATOM     32  H   UNL d   1      -8.857   7.586 -12.313 +0.03 +0.01    +0.166    14.839
ATOM     33  C   UNL d   1      -4.675  10.629 -13.712 -0.27 -0.04    +0.141    14.839
ATOM     34  C   UNL d   1      -4.259  11.909 -13.040 -0.24 -0.07    +0.306    14.839
ATOM     35  O   UNL d   1      -4.810  12.434 -12.087 -1.01 +0.00    -0.251    14.839
ATOM     36  O   UNL d   1      -3.169  12.460 -13.603 -0.71 +0.21    -0.481    14.839
ATOM     37  H   UNL d   1      -2.538  11.715 -13.700 -0.32 -0.19    +0.295    14.839
ATOM     38  C   UNL d   1      -7.444   5.267  -8.656 -0.28 +0.01    +0.017    14.839
ATOM     39  C   UNL d   1      -7.371   3.932  -8.777 -0.32 +0.03    +0.092    14.839
ATOM     40  C   UNL d   1      -7.237   3.097  -7.580 -0.22 +0.12    +0.330    14.839
ATOM     41  O   UNL d   1      -6.310   3.068  -6.794 -0.30 -0.07    -0.246    14.839
ATOM     42  O   UNL d   1      -8.324   2.324  -7.433 -0.13 -0.28    -0.477    14.839
ATOM     43  H   UNL d   1      -9.025   2.810  -7.914 +0.12 +0.25    +0.295    14.839
ATOM     44  C   UNL d   1      -9.540   7.766 -19.069 -0.03 -0.00    +0.141    14.839
ATOM     45  C   UNL d   1     -10.687   8.586 -18.539 -0.00 +0.00    +0.306    14.839
ATOM     46  O   UNL d   1     -10.627   9.721 -18.101 -0.00 +0.00    -0.251    14.839
ATOM     47  O   UNL d   1     -11.853   7.915 -18.563 +0.01 -0.02    -0.481    14.839
ATOM     48  H   UNL d   1     -11.618   7.021 -18.893 +0.02 +0.02    +0.295    14.839
ATOM     49  C   UNL d   1     -12.498   4.015 -10.699 -0.09 +0.02    +0.048    14.839
ATOM     50  C   UNL d   1     -11.867   2.720 -10.186 -0.09 +0.06    +0.125    14.839
ATOM     51  C   UNL d   1     -11.317   2.904  -8.800 -0.06 +0.33    +0.305    14.839
ATOM     52  O   UNL d   1     -10.383   3.608  -8.459 -0.16 -0.32    -0.251    14.839
ATOM     53  O   UNL d   1     -11.983   2.164  -7.891 -0.56 -0.78    -0.481    14.839
ATOM     54  H   UNL d   1     -12.427   1.474  -8.426 +0.06 +0.23    +0.295    14.839
TER
ENDMDL
MODEL       59
USER    Run = 59
USER    Cluster Rank = 11
USER    Number of conformations in this cluster = 3
USER  
USER    RMSD from reference structure       = 12.113 A
USER  
USER    Estimated Free Energy of Binding    =   -5.37 kcal/mol  [=(1)+(2)+(3)-(4)]
USER    Estimated Inhibition Constant, Ki   =  115.47 uM (micromolar)  [Temperature = 298.15 K]
USER    
USER    (1) Final Intermolecular Energy     =   -9.25 kcal/mol
USER        vdW + Hbond + desolv Energy     =   -8.75 kcal/mol
USER        Electrostatic Energy            =   -0.50 kcal/mol
USER    (2) Final Total Internal Energy     =   -2.26 kcal/mol
USER    (3) Torsional Free Energy           =   +3.88 kcal/mol
USER    (4) Unbound System's Energy  [=(2)] =   -2.26 kcal/mol
USER    
USER    
USER  
USER    DPF = D:/Protein_go_brrr/autodock/final/mut_K82N/heme/dock.dpf
USER    NEWDPF move	heme_opt.pdbqt
USER    NEWDPF about	0.153000 0.018000 -0.028000
USER    NEWDPF tran0	-8.354372 -10.213921 7.611867
USER    NEWDPF axisangle0	0.239031 0.198602 -0.950485 103.340935
USER    NEWDPF quaternion0	0.187510 0.155795 -0.745614 0.620183
USER    NEWDPF dihe0	109.45 78.84 149.77 -84.03 179.85 -164.11 -68.01 -16.81 -17.17 -53.22 -20.99 -46.56 41.11 
USER  
USER                              x       y       z    vdW   Elec        q     RMS 
ATOM      1  O   UNL d   1      -9.224 -16.039   7.882 -0.01 +0.04    -0.289    12.113
ATOM      2  O   UNL d   1      -2.983 -11.944   8.703 -0.28 +0.07    -0.289    12.113
ATOM      3  N   UNL d   1      -9.174 -12.611   7.498 -0.11 +0.04    -0.247    12.113
ATOM      4  N   UNL d   1      -6.409 -11.874   8.299 -0.18 +0.05    -0.247    12.113
ATOM      5  N   UNL d   1      -7.272  -9.134   8.413 -0.13 +0.06    -0.354    12.113
ATOM      6  N   UNL d   1     -10.143  -9.910   7.601 +0.11 +0.05    -0.354    12.113
ATOM      7  C   UNL d   1     -10.928 -14.323   7.525 -0.04 -0.01    +0.084    12.113
ATOM      8  C   UNL d   1      -4.679 -13.580   8.042 -0.23 -0.01    +0.084    12.113
ATOM      9  C   UNL d   1      -6.159 -13.189   7.975 -0.22 -0.01    +0.058    12.113
ATOM     10  C   UNL d   1     -10.535 -12.848   7.402 -0.11 -0.01    +0.058    12.113
ATOM     11  C   UNL d   1      -9.546 -14.881   7.690 -0.04 -0.03    +0.193    12.113
ATOM     12  C   UNL d   1      -8.570 -13.747   7.630 -0.11 -0.02    +0.109    12.113
ATOM     13  C   UNL d   1      -4.140 -12.254   8.500 -0.23 -0.04    +0.193    12.113
ATOM     14  C   UNL d   1     -11.729 -14.600   8.801 -0.01 -0.00    +0.026    12.113
ATOM     15  C   UNL d   1      -7.129 -14.067   7.677 -0.17 -0.01    +0.055    12.113
ATOM     16  C   UNL d   1      -4.110 -13.890   6.654 -0.44 -0.00    +0.026    12.113
ATOM     17  C   UNL d   1      -5.291 -11.309   8.624 -0.28 -0.03    +0.109    12.113
ATOM     18  C   UNL d   1     -11.449 -11.897   7.133 -0.10 -0.01    +0.050    12.113
ATOM     19  C   UNL d   1     -11.169 -10.523   6.919 -0.01 -0.01    +0.045    12.113
ATOM     20  C   UNL d   1      -6.032  -9.015   8.985 -0.37 -0.01    +0.045    12.113
ATOM     21  C   UNL d   1      -5.070  -9.936   9.100 -0.41 -0.01    +0.057    12.113
ATOM     22  C   UNL d   1      -7.122  -7.015   9.161 -0.30 +0.00    -0.019    12.113
ATOM     23  C   UNL d   1      -8.003  -7.978   8.471 -0.24 -0.01    +0.045    12.113
ATOM     24  C   UNL d   1      -5.956  -7.634   9.461 -0.41 +0.00    -0.022    12.113
ATOM     25  C   UNL d   1     -10.106  -8.565   7.311 -0.00 -0.01    +0.049    12.113
ATOM     26  C   UNL d   1     -11.791  -9.562   6.138 -0.08 +0.00    -0.018    12.113
ATOM     27  C   UNL d   1     -11.104  -8.331   6.375 -0.10 -0.00    +0.003    12.113
ATOM     28  C   UNL d   1      -9.232  -7.692   8.014 -0.20 -0.01    +0.052    12.113
ATOM     29  C   UNL d   1      -4.753  -7.078  10.144 -0.36 -0.00    +0.046    12.113
ATOM     30  C   UNL d   1     -12.952  -9.770   5.226 -0.11 -0.01    +0.046    12.113
ATOM     31  H   UNL d   1      -7.550  -9.983   7.933 +0.06 -0.02    +0.166    12.113
ATOM     32  H   UNL d   1      -9.536 -10.392   8.253 +0.04 -0.02    +0.166    12.113
ATOM     33  C   UNL d   1     -11.609 -14.927   6.292 -0.05 -0.02    +0.141    12.113
ATOM     34  C   UNL d   1     -11.149 -14.292   5.008 -0.13 -0.06    +0.306    12.113
ATOM     35  O   UNL d   1     -11.864 -13.797   4.153 -0.16 +0.04    -0.251    12.113
ATOM     36  O   UNL d   1      -9.811 -14.312   4.870 -0.10 +0.19    -0.481    12.113
ATOM     37  H   UNL d   1      -9.488 -13.639   5.506 -0.33 -0.14    +0.295    12.113
ATOM     38  C   UNL d   1     -11.434  -7.073   5.778 -0.21 -0.01    +0.017    12.113
ATOM     39  C   UNL d   1     -10.918  -5.887   6.134 -0.22 -0.05    +0.092    12.113
ATOM     40  C   UNL d   1     -11.329  -4.670   5.429 -0.11 -0.25    +0.330    12.113
ATOM     41  O   UNL d   1     -10.800  -3.575   5.465 -0.21 +0.13    -0.246    12.113
ATOM     42  O   UNL d   1     -12.417  -4.914   4.682 -0.03 +0.50    -0.477    12.113
ATOM     43  H   UNL d   1     -12.062  -5.014   3.775 -0.47 -0.73    +0.295    12.113
ATOM     44  C   UNL d   1      -4.333 -14.688   9.043 -0.14 +0.00    +0.141    12.113
ATOM     45  C   UNL d   1      -3.700 -14.170  10.307 -0.16 +0.03    +0.306    12.113
ATOM     46  O   UNL d   1      -2.551 -14.349  10.670 -0.29 -0.03    -0.251    12.113
ATOM     47  O   UNL d   1      -4.564 -13.473  11.066 -0.53 -0.07    -0.481    12.113
ATOM     48  H   UNL d   1      -5.181 -13.060  10.425 +0.10 +0.01    +0.295    12.113
ATOM     49  C   UNL d   1      -7.503  -5.597   9.473 -0.19 -0.01    +0.048    12.113
ATOM     50  C   UNL d   1      -8.231  -4.934   8.304 -0.25 -0.02    +0.125    12.113
ATOM     51  C   UNL d   1      -9.018  -3.742   8.769 -0.14 -0.04    +0.305    12.113
ATOM     52  O   UNL d   1      -9.433  -3.518   9.892 -0.08 +0.04    -0.251    12.113
ATOM     53  O   UNL d   1      -9.261  -2.875   7.765 -0.07 +0.01    -0.481    12.113
ATOM     54  H   UNL d   1     -10.154  -3.122   7.448 +0.10 -0.04    +0.295    12.113
TER
ENDMDL
MODEL       75
USER    Run = 75
USER    Cluster Rank = 12
USER    Number of conformations in this cluster = 2
USER  
USER    RMSD from reference structure       = 12.618 A
USER  
USER    Estimated Free Energy of Binding    =   -5.33 kcal/mol  [=(1)+(2)+(3)-(4)]
USER    Estimated Inhibition Constant, Ki   =  123.46 uM (micromolar)  [Temperature = 298.15 K]
USER    
USER    (1) Final Intermolecular Energy     =   -9.21 kcal/mol
USER        vdW + Hbond + desolv Energy     =   -8.56 kcal/mol
USER        Electrostatic Energy            =   -0.65 kcal/mol
USER    (2) Final Total Internal Energy     =   -2.25 kcal/mol
USER    (3) Torsional Free Energy           =   +3.88 kcal/mol
USER    (4) Unbound System's Energy  [=(2)] =   -2.25 kcal/mol
USER    
USER    
USER  
USER    DPF = D:/Protein_go_brrr/autodock/final/mut_K82N/heme/dock.dpf
USER    NEWDPF move	heme_opt.pdbqt
USER    NEWDPF about	0.153000 0.018000 -0.028000
USER    NEWDPF tran0	-12.214972 10.541357 -0.150863
USER    NEWDPF axisangle0	-0.230375 0.946986 0.223933 100.126522
USER    NEWDPF quaternion0	-0.176641 0.726105 0.171701 0.641941
USER    NEWDPF dihe0	-113.45 -19.34 -161.81 -97.04 53.60 -124.44 -77.00 -88.52 148.41 -153.11 47.06 30.16 130.48 
USER  
USER                              x       y       z    vdW   Elec        q     RMS 
ATOM      1  O   UNL d   1     -12.283  14.716  -4.313 -0.11 -0.15    -0.289    12.618
ATOM      2  O   UNL d   1     -10.171   7.515  -4.589 -0.72 -0.22    -0.289    12.618
ATOM      3  N   UNL d   1     -12.292  12.659  -1.544 -0.02 -0.05    -0.247    12.618
ATOM      4  N   UNL d   1     -11.614   9.995  -2.671 -0.14 -0.06    -0.247    12.618
ATOM      5  N   UNL d   1     -12.446   8.831  -0.177 -0.07 -0.06    -0.354    12.618
ATOM      6  N   UNL d   1     -13.166  11.597   0.977 +0.10 -0.06    -0.354    12.618
ATOM      7  C   UNL d   1     -13.045  14.946  -2.002 -0.15 +0.02    +0.084    12.618
ATOM      8  C   UNL d   1     -10.318   9.954  -4.743 -0.29 +0.03    +0.084    12.618
ATOM      9  C   UNL d   1     -11.071  10.760  -3.679 -0.27 +0.01    +0.058    12.618
ATOM     10  C   UNL d   1     -12.892  13.788  -1.012 -0.17 +0.01    +0.058    12.618
ATOM     11  C   UNL d   1     -12.409  14.279  -3.184 -0.15 +0.06    +0.193    12.618
ATOM     12  C   UNL d   1     -11.971  12.907  -2.772 -0.22 +0.03    +0.109    12.618
ATOM     13  C   UNL d   1     -10.566   8.586  -4.172 -0.24 +0.09    +0.193    12.618
ATOM     14  C   UNL d   1     -14.513  15.234  -2.327 -0.06 +0.00    +0.026    12.618
ATOM     15  C   UNL d   1     -11.229  12.090  -3.754 -0.32 +0.01    +0.055    12.618
ATOM     16  C   UNL d   1      -8.813  10.235  -4.709 -0.29 +0.01    +0.026    12.618
ATOM     17  C   UNL d   1     -11.369   8.749  -2.922 -0.27 +0.03    +0.109    12.618
ATOM     18  C   UNL d   1     -13.238  13.919   0.283 -0.16 +0.01    +0.050    12.618
ATOM     19  C   UNL d   1     -13.055  12.934   1.287 -0.11 +0.01    +0.045    12.618
ATOM     20  C   UNL d   1     -12.301   7.695  -0.930 -0.26 +0.01    +0.045    12.618
ATOM     21  C   UNL d   1     -11.802   7.566  -2.164 -0.33 +0.02    +0.057    12.618
ATOM     22  C   UNL d   1     -13.226   7.134   1.081 -0.22 -0.00    -0.019    12.618
ATOM     23  C   UNL d   1     -12.997   8.592   1.053 -0.20 +0.01    +0.045    12.618
ATOM     24  C   UNL d   1     -12.810   6.608  -0.095 -0.25 -0.00    -0.022    12.618
ATOM     25  C   UNL d   1     -13.043  10.827   2.110 -0.08 +0.01    +0.049    12.618
ATOM     26  C   UNL d   1     -12.817  13.033   2.649 -0.13 -0.00    -0.018    12.618
ATOM     27  C   UNL d   1     -12.791  11.699   3.160 -0.13 +0.00    +0.003    12.618
ATOM     28  C   UNL d   1     -13.277   9.425   2.067 -0.19 +0.01    +0.052    12.618
ATOM     29  C   UNL d   1     -12.824   5.184  -0.538 -0.24 +0.01    +0.046    12.618
ATOM     30  C   UNL d   1     -12.624  14.288   3.430 -0.12 +0.00    +0.046    12.618
ATOM     31  H   UNL d   1     -12.095   9.726  -0.501 +0.11 +0.04    +0.166    12.618
ATOM     32  H   UNL d   1     -13.354  11.252   0.043 +0.04 +0.03    +0.166    12.618
ATOM     33  C   UNL d   1     -12.289  16.228  -1.636 -0.25 +0.04    +0.141    12.618
ATOM     34  C   UNL d   1     -12.770  17.425  -2.409 -0.12 +0.09    +0.306    12.618
ATOM     35  O   UNL d   1     -13.429  18.351  -1.967 -0.05 -0.05    -0.251    12.618
ATOM     36  O   UNL d   1     -12.394  17.395  -3.700 -0.04 -0.27    -0.481    12.618
ATOM     37  H   UNL d   1     -12.849  16.609  -4.071 +0.06 +0.16    +0.295    12.618
ATOM     38  C   UNL d   1     -12.588  11.345   4.532 -0.15 +0.00    +0.017    12.618
ATOM     39  C   UNL d   1     -11.517  10.695   5.014 -0.24 +0.01    +0.092    12.618
ATOM     40  C   UNL d   1     -11.422  10.407   6.448 -0.10 -0.05    +0.330    12.618
ATOM     41  O   UNL d   1     -10.509  10.682   7.203 -0.18 +0.08    -0.246    12.618
ATOM     42  O   UNL d   1     -12.529   9.773   6.866 -0.15 -0.01    -0.477    12.618
ATOM     43  H   UNL d   1     -12.255   9.352   7.706 -0.44 -0.31    +0.295    12.618
ATOM     44  C   UNL d   1     -10.871  10.062  -6.168 -0.14 +0.04    +0.141    12.618
ATOM     45  C   UNL d   1      -9.852   9.737  -7.227 -0.12 +0.08    +0.306    12.618
ATOM     46  O   UNL d   1      -9.477  10.471  -8.125 -0.14 -0.06    -0.251    12.618
ATOM     47  O   UNL d   1      -9.375   8.484  -7.115 -0.18 -0.19    -0.481    12.618
ATOM     48  H   UNL d   1     -10.024   8.022  -6.542 +0.10 +0.17    +0.295    12.618
ATOM     49  C   UNL d   1     -13.837   6.399   2.238 -0.17 +0.02    +0.048    12.618
ATOM     50  C   UNL d   1     -15.098   7.094   2.751 -0.09 +0.04    +0.125    12.618
ATOM     51  C   UNL d   1     -15.064   7.229   4.247 -0.04 +0.21    +0.305    12.618
ATOM     52  O   UNL d   1     -15.554   6.479   5.073 -0.07 -0.18    -0.251    12.618
ATOM     53  O   UNL d   1     -14.408   8.340   4.638 -0.44 -0.47    -0.481    12.618
ATOM     54  H   UNL d   1     -15.078   9.051   4.563 +0.04 +0.14    +0.295    12.618
TER
ENDMDL
MODEL       36
USER    Run = 36
USER    Cluster Rank = 13
USER    Number of conformations in this cluster = 1
USER  
USER    RMSD from reference structure       = 18.462 A
USER  
USER    Estimated Free Energy of Binding    =   -5.32 kcal/mol  [=(1)+(2)+(3)-(4)]
USER    Estimated Inhibition Constant, Ki   =  125.54 uM (micromolar)  [Temperature = 298.15 K]
USER    
USER    (1) Final Intermolecular Energy     =   -9.20 kcal/mol
USER        vdW + Hbond + desolv Energy     =   -8.90 kcal/mol
USER        Electrostatic Energy            =   -0.30 kcal/mol
USER    (2) Final Total Internal Energy     =   -2.80 kcal/mol
USER    (3) Torsional Free Energy           =   +3.88 kcal/mol
USER    (4) Unbound System's Energy  [=(2)] =   -2.80 kcal/mol
USER    
USER    
USER  
USER    DPF = D:/Protein_go_brrr/autodock/final/mut_K82N/heme/dock.dpf
USER    NEWDPF move	heme_opt.pdbqt
USER    NEWDPF about	0.153000 0.018000 -0.028000
USER    NEWDPF tran0	-5.364669 7.789054 -18.249049
USER    NEWDPF axisangle0	0.193615 0.667019 -0.719444 -122.557639
USER    NEWDPF quaternion0	0.169794 0.584955 -0.630929 -0.480548
USER    NEWDPF dihe0	-120.54 -179.91 4.36 -147.92 27.40 1.28 -9.22 -26.72 127.63 -177.35 66.03 -78.16 129.77 
USER  
USER                              x       y       z    vdW   Elec        q     RMS 
ATOM      1  O   UNL d   1      -1.083   9.740 -14.696 -0.26 +0.12    -0.289    18.462
ATOM      2  O   UNL d   1      -8.539   9.587 -13.807 -0.03 -0.00    -0.289    18.462
ATOM      3  N   UNL d   1      -3.234   8.609 -17.144 -0.10 +0.07    -0.247    18.462
ATOM      4  N   UNL d   1      -5.882   8.641 -15.796 -0.09 +0.04    -0.247    18.462
ATOM      5  N   UNL d   1      -6.904   7.060 -17.968 -0.06 +0.10    -0.354    18.462
ATOM      6  N   UNL d   1      -4.149   7.015 -19.351 -0.11 +0.10    -0.354    18.462
ATOM      7  C   UNL d   1      -0.798   8.679 -16.880 -0.23 -0.02    +0.084    18.462
ATOM      8  C   UNL d   1      -6.177  10.215 -13.950 -0.12 -0.01    +0.084    18.462
ATOM      9  C   UNL d   1      -5.256   9.563 -14.986 -0.14 -0.01    +0.058    18.462
ATOM     10  C   UNL d   1      -2.017   8.293 -17.724 -0.20 -0.02    +0.058    18.462
ATOM     11  C   UNL d   1      -1.542   9.286 -15.729 -0.25 -0.06    +0.193    18.462
ATOM     12  C   UNL d   1      -3.009   9.207 -16.020 -0.19 -0.03    +0.109    18.462
ATOM     13  C   UNL d   1      -7.433   9.466 -14.297 -0.05 -0.01    +0.193    18.462
ATOM     14  C   UNL d   1      -0.032   7.451 -16.382 -0.35 -0.01    +0.026    18.462
ATOM     15  C   UNL d   1      -3.943   9.831 -15.061 -0.25 -0.02    +0.055    18.462
ATOM     16  C   UNL d   1      -6.395  11.703 -14.241 -0.18 -0.00    +0.026    18.462
ATOM     17  C   UNL d   1      -7.117   8.539 -15.425 -0.10 -0.01    +0.109    18.462
ATOM     18  C   UNL d   1      -1.881   7.776 -18.959 -0.20 -0.01    +0.050    18.462
ATOM     19  C   UNL d   1      -2.946   7.468 -19.844 -0.13 -0.01    +0.045    18.462
ATOM     20  C   UNL d   1      -7.966   6.988 -17.105 -0.19 -0.01    +0.045    18.462
ATOM     21  C   UNL d   1      -8.154   7.638 -15.952 -0.16 -0.00    +0.057    18.462
ATOM     22  C   UNL d   1      -8.353   5.589 -18.869 -0.20 +0.00    -0.019    18.462
ATOM     23  C   UNL d   1      -7.047   6.250 -19.063 +0.03 -0.01    +0.045    18.462
ATOM     24  C   UNL d   1      -8.893   6.032 -17.708 -0.21 -0.00    -0.022    18.462
ATOM     25  C   UNL d   1      -5.002   6.693 -20.381 -0.17 -0.01    +0.049    18.462
ATOM     26  C   UNL d   1      -3.032   7.474 -21.227 -0.10 +0.00    -0.018    18.462
ATOM     27  C   UNL d   1      -4.340   7.003 -21.560 -0.11 -0.00    +0.003    18.462
ATOM     28  C   UNL d   1      -6.248   6.057 -20.124 -0.20 -0.01    +0.052    18.462
ATOM     29  C   UNL d   1     -10.199   5.668 -17.089 -0.19 +0.01    +0.046    18.462
ATOM     30  C   UNL d   1      -1.968   7.894 -22.184 -0.06 -0.01    +0.046    18.462
ATOM     31  H   UNL d   1      -6.147   7.718 -17.818 +0.01 -0.04    +0.166    18.462
ATOM     32  H   UNL d   1      -4.344   6.904 -18.363 -0.08 -0.06    +0.166    18.462
ATOM     33  C   UNL d   1       0.142   9.709 -17.516 -0.15 -0.03    +0.141    18.462
ATOM     34  C   UNL d   1       1.253  10.127 -16.591 -0.20 -0.03    +0.306    18.462
ATOM     35  O   UNL d   1       2.291   9.518 -16.391 -0.25 -0.06    -0.251    18.462
ATOM     36  O   UNL d   1       1.000  11.292 -15.969 -0.15 +0.20    -0.481    18.462
ATOM     37  H   UNL d   1       0.150  11.143 -15.503 -0.15 -0.21    +0.295    18.462
ATOM     38  C   UNL d   1      -4.843   6.838 -22.890 -0.07 -0.00    +0.017    18.462
ATOM     39  C   UNL d   1      -5.583   5.802 -23.316 -0.07 -0.01    +0.092    18.462
ATOM     40  C   UNL d   1      -6.053   5.762 -24.703 -0.00 -0.03    +0.330    18.462
ATOM     41  O   UNL d   1      -5.867   6.589 -25.575 -0.00 +0.02    -0.246    18.462
ATOM     42  O   UNL d   1      -6.747   4.634 -24.922 +0.01 +0.05    -0.477    18.462
ATOM     43  H   UNL d   1      -6.724   4.173 -24.059 +0.03 -0.03    +0.295    18.462
ATOM     44  C   UNL d   1      -5.789   9.987 -12.485 -0.23 -0.03    +0.141    18.462
ATOM     45  C   UNL d   1      -5.812  11.248 -11.662 -0.25 -0.05    +0.306    18.462
ATOM     46  O   UNL d   1      -5.235  12.291 -11.914 -0.97 +0.00    -0.251    18.462
ATOM     47  O   UNL d   1      -6.545  11.116 -10.541 -0.15 +0.03    -0.481    18.462
ATOM     48  H   UNL d   1      -6.529  12.007 -10.129 -0.28 -0.08    +0.295    18.462
ATOM     49  C   UNL d   1      -8.940   4.586 -19.818 -0.22 +0.00    +0.048    18.462
ATOM     50  C   UNL d   1      -7.914   3.534 -20.239 -0.21 -0.01    +0.125    18.462
ATOM     51  C   UNL d   1      -7.585   3.660 -21.700 -0.13 -0.04    +0.305    18.462
ATOM     52  O   UNL d   1      -8.326   4.013 -22.601 -0.03 +0.02    -0.251    18.462
ATOM     53  O   UNL d   1      -6.308   3.315 -21.961 -0.32 +0.10    -0.481    18.462
ATOM     54  H   UNL d   1      -6.108   2.624 -21.294 -0.42 -0.14    +0.295    18.462
TER
ENDMDL
MODEL       38
USER    Run = 38
USER    Cluster Rank = 14
USER    Number of conformations in this cluster = 3
USER  
USER    RMSD from reference structure       = 15.231 A
USER  
USER    Estimated Free Energy of Binding    =   -5.19 kcal/mol  [=(1)+(2)+(3)-(4)]
USER    Estimated Inhibition Constant, Ki   =  155.65 uM (micromolar)  [Temperature = 298.15 K]
USER    
USER    (1) Final Intermolecular Energy     =   -9.07 kcal/mol
USER        vdW + Hbond + desolv Energy     =   -8.58 kcal/mol
USER        Electrostatic Energy            =   -0.50 kcal/mol
USER    (2) Final Total Internal Energy     =   -3.12 kcal/mol
USER    (3) Torsional Free Energy           =   +3.88 kcal/mol
USER    (4) Unbound System's Energy  [=(2)] =   -3.12 kcal/mol
USER    
USER    
USER  
USER    DPF = D:/Protein_go_brrr/autodock/final/mut_K82N/heme/dock.dpf
USER    NEWDPF move	heme_opt.pdbqt
USER    NEWDPF about	0.153000 0.018000 -0.028000
USER    NEWDPF tran0	-7.731544 7.844122 -13.840187
USER    NEWDPF axisangle0	-0.902474 -0.068088 0.425330 -125.185037
USER    NEWDPF quaternion0	-0.801176 -0.060446 0.377589 -0.460316
USER    NEWDPF dihe0	-142.01 -133.27 120.69 137.31 45.32 -83.41 -31.89 52.54 162.42 -137.08 -93.17 6.72 -27.19 
USER  
USER                              x       y       z    vdW   Elec        q     RMS 
ATOM      1  O   UNL d   1     -12.553   4.838 -12.269 -0.03 -0.09    -0.289    15.231
ATOM      2  O   UNL d   1      -7.353   8.328  -8.125 -0.22 -0.03    -0.289    15.231
ATOM      3  N   UNL d   1      -9.790   6.375 -13.646 -0.09 -0.03    -0.247    15.231
ATOM      4  N   UNL d   1      -8.515   7.704 -11.314 -0.06 -0.03    -0.247    15.231
ATOM      5  N   UNL d   1      -6.902   9.200 -13.166 -0.04 +0.02    -0.354    15.231
ATOM      6  N   UNL d   1      -8.244   7.831 -15.580 -0.05 +0.01    -0.354    15.231
ATOM      7  C   UNL d   1     -11.803   5.306 -14.548 -0.10 +0.03    +0.084    15.231
ATOM      8  C   UNL d   1      -8.924   6.730  -9.111 -0.13 +0.03    +0.084    15.231
ATOM      9  C   UNL d   1      -9.214   6.746 -10.615 -0.11 +0.01    +0.058    15.231
ATOM     10  C   UNL d   1     -10.481   6.038 -14.798 -0.14 +0.01    +0.058    15.231
ATOM     11  C   UNL d   1     -11.728   5.272 -13.051 -0.07 +0.05    +0.193    15.231
ATOM     12  C   UNL d   1     -10.450   5.928 -12.628 -0.11 +0.02    +0.109    15.231
ATOM     13  C   UNL d   1      -7.958   7.880  -9.080 -0.13 +0.03    +0.193    15.231
ATOM     14  C   UNL d   1     -13.013   6.147 -14.964 -0.04 +0.01    +0.026    15.231
ATOM     15  C   UNL d   1     -10.112   5.930 -11.190 -0.14 +0.01    +0.055    15.231
ATOM     16  C   UNL d   1      -8.186   5.456  -8.689 -0.26 +0.01    +0.026    15.231
ATOM     17  C   UNL d   1      -7.802   8.387 -10.477 -0.12 +0.01    +0.109    15.231
ATOM     18  C   UNL d   1     -10.015   6.241 -16.045 -0.18 +0.01    +0.050    15.231
ATOM     19  C   UNL d   1      -8.767   6.832 -16.370 -0.18 -0.00    +0.045    15.231
ATOM     20  C   UNL d   1      -6.599   9.860 -12.004 -0.22 -0.00    +0.045    15.231
ATOM     21  C   UNL d   1      -6.942   9.548 -10.750 -0.28 -0.00    +0.057    15.231
ATOM     22  C   UNL d   1      -5.663  10.986 -13.757 -0.22 +0.00    -0.019    15.231
ATOM     23  C   UNL d   1      -6.381   9.805 -14.278 -0.11 -0.01    +0.045    15.231
ATOM     24  C   UNL d   1      -5.795  11.012 -12.410 -0.34 +0.00    -0.022    15.231
ATOM     25  C   UNL d   1      -7.080   8.319 -16.126 -0.13 -0.01    +0.049    15.231
ATOM     26  C   UNL d   1      -7.902   6.641 -17.436 -0.20 +0.00    -0.018    15.231
ATOM     27  C   UNL d   1      -6.829   7.569 -17.267 -0.19 -0.00    +0.003    15.231
ATOM     28  C   UNL d   1      -6.439   9.461 -15.574 -0.10 -0.01    +0.052    15.231
ATOM     29  C   UNL d   1      -5.242  11.997 -11.437 -0.40 -0.00    +0.046    15.231
ATOM     30  C   UNL d   1      -8.060   5.656 -18.545 -0.14 -0.01    +0.046    15.231
ATOM     31  H   UNL d   1      -7.395   8.313 -13.155 +0.04 -0.00    +0.166    15.231
ATOM     32  H   UNL d   1      -8.693   8.172 -14.739 +0.03 +0.00    +0.166    15.231
ATOM     33  C   UNL d   1     -11.884   3.885 -15.115 -0.13 +0.11    +0.141    15.231
ATOM     34  C   UNL d   1     -13.286   3.493 -15.498 -0.03 +0.34    +0.306    15.231
ATOM     35  O   UNL d   1     -13.755   3.508 -16.623 -0.67 -0.30    -0.251    15.231
ATOM     36  O   UNL d   1     -14.022   3.101 -14.443 -0.06 -0.37    -0.481    15.231
ATOM     37  H   UNL d   1     -13.719   3.672 -13.705 +0.04 +0.15    +0.295    15.231
ATOM     38  C   UNL d   1      -5.719   7.719 -18.159 -0.18 -0.00    +0.017    15.231
ATOM     39  C   UNL d   1      -4.438   7.859 -17.785 -0.23 -0.03    +0.092    15.231
ATOM     40  C   UNL d   1      -3.390   7.987 -18.801 -0.10 -0.08    +0.330    15.231
ATOM     41  O   UNL d   1      -2.805   7.092 -19.381 -0.16 +0.05    -0.246    15.231
ATOM     42  O   UNL d   1      -3.138   9.282 -19.043 +0.01 +0.11    -0.477    15.231
ATOM     43  H   UNL d   1      -3.064   9.678 -18.150 +0.08 -0.08    +0.295    15.231
ATOM     44  C   UNL d   1     -10.128   7.000  -8.203 -0.12 +0.08    +0.141    15.231
ATOM     45  C   UNL d   1      -9.823   6.814  -6.740 -0.09 +0.29    +0.306    15.231
ATOM     46  O   UNL d   1      -9.705   5.753  -6.151 -0.58 -0.46    -0.251    15.231
ATOM     47  O   UNL d   1      -9.708   7.984  -6.086 -0.56 -0.33    -0.481    15.231
ATOM     48  H   UNL d   1      -8.968   8.446  -6.533 +0.12 +0.14    +0.295    15.231
ATOM     49  C   UNL d   1      -4.935  11.977 -14.617 -0.28 -0.02    +0.048    15.231
ATOM     50  C   UNL d   1      -3.421  11.890 -14.427 -0.40 -0.07    +0.125    15.231
ATOM     51  C   UNL d   1      -2.821  10.870 -15.352 -0.19 -0.16    +0.305    15.231
ATOM     52  O   UNL d   1      -3.042  10.725 -16.541 -0.09 +0.12    -0.251    15.231
ATOM     53  O   UNL d   1      -1.961  10.053 -14.712 -0.14 +0.21    -0.481    15.231
ATOM     54  H   UNL d   1      -1.441  10.656 -14.140 -0.38 -0.24    +0.295    15.231
TER
ENDMDL
MODEL       85
USER    Run = 85
USER    Cluster Rank = 15
USER    Number of conformations in this cluster = 1
USER  
USER    RMSD from reference structure       = 18.127 A
USER  
USER    Estimated Free Energy of Binding    =   -5.01 kcal/mol  [=(1)+(2)+(3)-(4)]
USER    Estimated Inhibition Constant, Ki   =  213.12 uM (micromolar)  [Temperature = 298.15 K]
USER    
USER    (1) Final Intermolecular Energy     =   -8.89 kcal/mol
USER        vdW + Hbond + desolv Energy     =   -8.58 kcal/mol
USER        Electrostatic Energy            =   -0.30 kcal/mol
USER    (2) Final Total Internal Energy     =   -3.69 kcal/mol
USER    (3) Torsional Free Energy           =   +3.88 kcal/mol
USER    (4) Unbound System's Energy  [=(2)] =   -3.69 kcal/mol
USER    
USER    
USER  
USER    DPF = D:/Protein_go_brrr/autodock/final/mut_K82N/heme/dock.dpf
USER    NEWDPF move	heme_opt.pdbqt
USER    NEWDPF about	0.153000 0.018000 -0.028000
USER    NEWDPF tran0	5.202032 17.357611 -10.802680
USER    NEWDPF axisangle0	0.968814 0.037707 0.244904 138.495793
USER    NEWDPF quaternion0	0.905959 0.035261 0.229015 0.354325
USER    NEWDPF dihe0	-180.00 -176.13 -153.58 10.29 37.24 26.00 145.78 3.20 180.00 -66.65 -50.50 -80.42 11.41 
USER  
USER                              x       y       z    vdW   Elec        q     RMS 
ATOM      1  O   UNL d   1       0.828  17.076 -14.746 -0.04 +0.32    -0.289    18.127
ATOM      2  O   UNL d   1       1.119  20.197  -7.922 -0.44 +0.07    -0.289    18.127
ATOM      3  N   UNL d   1       3.607  16.869 -12.713 -0.08 +0.06    -0.247    18.127
ATOM      4  N   UNL d   1       2.905  18.618 -10.416 -0.11 +0.08    -0.247    18.127
ATOM      5  N   UNL d   1       5.668  18.530  -9.624 -0.07 +0.10    -0.354    18.127
ATOM      6  N   UNL d   1       6.391  16.731 -12.021 -0.03 +0.04    -0.354    18.127
ATOM      7  C   UNL d   1       3.098  16.211 -15.019 -0.13 -0.04    +0.084    18.127
ATOM      8  C   UNL d   1       0.531  18.918  -9.925 -0.28 -0.03    +0.084    18.127
ATOM      9  C   UNL d   1       1.622  18.351 -10.838 -0.19 -0.02    +0.058    18.127
ATOM     10  C   UNL d   1       4.107  16.292 -13.869 -0.13 -0.01    +0.058    18.127
ATOM     11  C   UNL d   1       1.935  16.828 -14.303 -0.13 -0.12    +0.193    18.127
ATOM     12  C   UNL d   1       2.362  17.160 -12.906 -0.16 -0.04    +0.109    18.127
ATOM     13  C   UNL d   1       1.432  19.588  -8.926 -0.28 -0.06    +0.193    18.127
ATOM     14  C   UNL d   1       3.491  17.112 -16.192 -0.06 -0.01    +0.026    18.127
ATOM     15  C   UNL d   1       1.347  17.697 -11.978 -0.24 -0.02    +0.055    18.127
ATOM     16  C   UNL d   1      -0.250  17.807  -9.216 -0.43 -0.01    +0.026    18.127
ATOM     17  C   UNL d   1       2.845  19.337  -9.342 -0.21 -0.04    +0.109    18.127
ATOM     18  C   UNL d   1       5.337  15.756 -13.974 -0.14 -0.01    +0.050    18.127
ATOM     19  C   UNL d   1       6.305  15.708 -12.938 -0.16 -0.00    +0.045    18.127
ATOM     20  C   UNL d   1       5.211  19.505  -8.777 -0.20 -0.02    +0.045    18.127
ATOM     21  C   UNL d   1       3.955  19.914  -8.569 -0.29 -0.02    +0.057    18.127
ATOM     22  C   UNL d   1       7.483  19.366  -8.585 -0.12 +0.00    -0.019    18.127
ATOM     23  C   UNL d   1       7.028  18.373  -9.579 -0.15 -0.01    +0.045    18.127
ATOM     24  C   UNL d   1       6.403  20.032  -8.113 -0.19 +0.01    -0.022    18.127
ATOM     25  C   UNL d   1       7.450  16.526 -11.167 -0.20 -0.00    +0.049    18.127
ATOM     26  C   UNL d   1       7.309  14.798 -12.651 -0.24 -0.00    -0.018    18.127
ATOM     27  C   UNL d   1       8.017  15.309 -11.519 -0.27 -0.00    +0.003    18.127
ATOM     28  C   UNL d   1       7.836  17.525 -10.232 -0.18 -0.01    +0.052    18.127
ATOM     29  C   UNL d   1       6.348  21.115  -7.090 -0.17 -0.01    +0.046    18.127
ATOM     30  C   UNL d   1       7.596  13.528 -13.379 -0.25 +0.01    +0.046    18.127
ATOM     31  H   UNL d   1       5.026  17.950 -10.154 +0.04 -0.05    +0.166    18.127
ATOM     32  H   UNL d   1       5.775  17.536 -12.019 +0.04 -0.03    +0.166    18.127
ATOM     33  C   UNL d   1       2.750  14.794 -15.489 -0.13 -0.08    +0.141    18.127
ATOM     34  C   UNL d   1       2.808  14.650 -16.986 -0.08 -0.17    +0.306    18.127
ATOM     35  O   UNL d   1       3.778  14.305 -17.640 -0.04 +0.06    -0.251    18.127
ATOM     36  O   UNL d   1       1.639  14.947 -17.581 -0.02 +0.50    -0.481    18.127
ATOM     37  H   UNL d   1       1.029  15.148 -16.839 -0.49 -0.71    +0.295    18.127
ATOM     38  C   UNL d   1       9.146  14.684 -10.900 -0.30 +0.00    +0.017    18.127
ATOM     39  C   UNL d   1      10.261  15.316 -10.502 -0.26 +0.00    +0.092    18.127
ATOM     40  C   UNL d   1      11.341  14.560  -9.863 -0.19 +0.01    +0.330    18.127
ATOM     41  O   UNL d   1      11.581  13.373  -9.970 -0.27 -0.02    -0.246    18.127
ATOM     42  O   UNL d   1      12.090  15.376  -9.106 -0.06 -0.00    -0.477    18.127
ATOM     43  H   UNL d   1      11.633  16.240  -9.169 +0.07 -0.00    +0.295    18.127
ATOM     44  C   UNL d   1      -0.415  19.932 -10.576 -0.19 -0.04    +0.141    18.127
ATOM     45  C   UNL d   1      -0.327  21.305  -9.966 -0.14 -0.09    +0.306    18.127
ATOM     46  O   UNL d   1       0.263  22.268 -10.425 -0.06 +0.07    -0.251    18.127
ATOM     47  O   UNL d   1      -0.968  21.386  -8.785 -0.50 +0.20    -0.481    18.127
ATOM     48  H   UNL d   1      -0.965  20.469  -8.439 -0.31 -0.14    +0.295    18.127
ATOM     49  C   UNL d   1       8.919  19.579  -8.204 -0.08 -0.01    +0.048    18.127
ATOM     50  C   UNL d   1       9.461  18.425  -7.362 -0.10 -0.01    +0.125    18.127
ATOM     51  C   UNL d   1      10.770  17.930  -7.909 -0.06 -0.01    +0.305    18.127
ATOM     52  O   UNL d   1      11.347  18.311  -8.913 -0.04 +0.01    -0.251    18.127
ATOM     53  O   UNL d   1      11.294  16.947  -7.151 +0.09 +0.01    -0.481    18.127
ATOM     54  H   UNL d   1      12.199  16.827  -7.508 +0.05 -0.01    +0.295    18.127
TER
ENDMDL
MODEL       68
USER    Run = 68
USER    Cluster Rank = 16
USER    Number of conformations in this cluster = 2
USER  
USER    RMSD from reference structure       = 11.276 A
USER  
USER    Estimated Free Energy of Binding    =   -4.90 kcal/mol  [=(1)+(2)+(3)-(4)]
USER    Estimated Inhibition Constant, Ki   =  254.26 uM (micromolar)  [Temperature = 298.15 K]
USER    
USER    (1) Final Intermolecular Energy     =   -8.78 kcal/mol
USER        vdW + Hbond + desolv Energy     =   -8.29 kcal/mol
USER        Electrostatic Energy            =   -0.50 kcal/mol
USER    (2) Final Total Internal Energy     =   -1.57 kcal/mol
USER    (3) Torsional Free Energy           =   +3.88 kcal/mol
USER    (4) Unbound System's Energy  [=(2)] =   -1.57 kcal/mol
USER    
USER    
USER  
USER    DPF = D:/Protein_go_brrr/autodock/final/mut_K82N/heme/dock.dpf
USER    NEWDPF move	heme_opt.pdbqt
USER    NEWDPF about	0.153000 0.018000 -0.028000
USER    NEWDPF tran0	12.758943 -8.466770 2.916465
USER    NEWDPF axisangle0	0.462659 -0.412450 -0.784749 -117.054154
USER    NEWDPF quaternion0	0.394596 -0.351773 -0.669302 -0.522096
USER    NEWDPF dihe0	55.75 19.52 118.61 -37.32 -160.63 -60.26 -48.81 -99.09 -169.87 -123.89 14.48 -83.35 180.00 
USER  
USER                              x       y       z    vdW   Elec        q     RMS 
ATOM      1  O   UNL d   1      13.695  -3.300   5.596 -0.26 -0.05    -0.289    11.276
ATOM      2  O   UNL d   1      12.513  -4.960  -1.631 -0.05 -0.04    -0.289    11.276
ATOM      3  N   UNL d   1      13.325  -6.535   4.459 -0.12 -0.02    -0.247    11.276
ATOM      4  N   UNL d   1      12.611  -6.176   1.597 -0.11 -0.00    -0.247    11.276
ATOM      5  N   UNL d   1      11.833  -8.943   1.540 -0.07 -0.02    -0.354    11.276
ATOM      6  N   UNL d   1      12.558  -9.302   4.514 -0.12 -0.04    -0.354    11.276
ATOM      7  C   UNL d   1      13.529  -5.491   6.667 -0.29 +0.01    +0.084    11.276
ATOM      8  C   UNL d   1      13.374  -4.128   0.503 -0.10 +0.00    +0.084    11.276
ATOM      9  C   UNL d   1      13.233  -4.961   1.782 -0.14 +0.00    +0.058    11.276
ATOM     10  C   UNL d   1      13.359  -6.759   5.825 -0.24 +0.01    +0.058    11.276
ATOM     11  C   UNL d   1      13.604  -4.512   5.534 -0.12 +0.03    +0.193    11.276
ATOM     12  C   UNL d   1      13.494  -5.270   4.247 -0.09 +0.01    +0.109    11.276
ATOM     13  C   UNL d   1      12.684  -5.078  -0.434 -0.05 +0.01    +0.193    11.276
ATOM     14  C   UNL d   1      12.284  -5.186   7.504 +0.12 +0.00    +0.026    11.276
ATOM     15  C   UNL d   1      13.635  -4.519   2.984 -0.16 +0.00    +0.055    11.276
ATOM     16  C   UNL d   1      14.838  -3.989   0.074 -0.03 +0.00    +0.026    11.276
ATOM     17  C   UNL d   1      12.263  -6.276   0.355 -0.11 -0.00    +0.109    11.276
ATOM     18  C   UNL d   1      13.340  -7.981   6.390 -0.10 +0.01    +0.050    11.276
ATOM     19  C   UNL d   1      13.271  -9.211   5.688 -0.19 +0.00    +0.045    11.276
ATOM     20  C   UNL d   1      11.351  -8.537   0.322 -0.16 +0.00    +0.045    11.276
ATOM     21  C   UNL d   1      11.519  -7.364  -0.297 -0.15 +0.00    +0.057    11.276
ATOM     22  C   UNL d   1      10.655 -10.677   0.716 -0.18 -0.00    -0.019    11.276
ATOM     23  C   UNL d   1      11.464 -10.221   1.864 -0.19 +0.01    +0.045    11.276
ATOM     24  C   UNL d   1      10.593  -9.676  -0.194 -0.17 -0.00    -0.022    11.276
ATOM     25  C   UNL d   1      12.549 -10.598   4.053 -0.17 +0.01    +0.049    11.276
ATOM     26  C   UNL d   1      13.770 -10.471   5.977 -0.13 -0.00    -0.018    11.276
ATOM     27  C   UNL d   1      13.327 -11.339   4.932 -0.13 +0.00    +0.003    11.276
ATOM     28  C   UNL d   1      11.747 -10.970   2.941 -0.17 +0.01    +0.052    11.276
ATOM     29  C   UNL d   1       9.906  -9.659  -1.517 -0.11 +0.00    +0.046    11.276
ATOM     30  C   UNL d   1      14.608 -10.849   7.151 -0.08 +0.00    +0.046    11.276
ATOM     31  H   UNL d   1      12.462  -8.357   2.078 +0.05 +0.01    +0.166    11.276
ATOM     32  H   UNL d   1      12.078  -8.518   4.088 +0.06 +0.01    +0.166    11.276
ATOM     33  C   UNL d   1      14.805  -5.431   7.515 -0.17 +0.00    +0.141    11.276
ATOM     34  C   UNL d   1      14.518  -5.259   8.982 -0.24 -0.00    +0.306    11.276
ATOM     35  O   UNL d   1      14.679  -4.241   9.633 -0.26 +0.01    -0.251    11.276
ATOM     36  O   UNL d   1      14.040  -6.380   9.551 -0.18 +0.02    -0.481    11.276
ATOM     37  H   UNL d   1      13.210  -6.098   9.991 -0.33 -0.07    +0.295    11.276
ATOM     38  C   UNL d   1      13.607 -12.741   4.848 -0.09 +0.00    +0.017    11.276
ATOM     39  C   UNL d   1      12.706 -13.695   4.572 -0.00 +0.05    +0.092    11.276
ATOM     40  C   UNL d   1      13.126 -15.097   4.499 -0.04 +0.11    +0.330    11.276
ATOM     41  O   UNL d   1      13.918 -15.596   3.722 -0.01 -0.04    -0.246    11.276
ATOM     42  O   UNL d   1      12.508 -15.815   5.449 -0.08 -0.24    -0.477    11.276
ATOM     43  H   UNL d   1      13.062 -16.618   5.535 +0.03 +0.07    +0.295    11.276
ATOM     44  C   UNL d   1      12.671  -2.767   0.521 -0.22 -0.00    +0.141    11.276
ATOM     45  C   UNL d   1      12.710  -2.060  -0.808 +0.05 +0.13    +0.306    11.276
ATOM     46  O   UNL d   1      13.543  -1.250  -1.175 -0.32 -0.16    -0.251    11.276
ATOM     47  O   UNL d   1      11.675  -2.393  -1.599 -0.63 -0.39    -0.481    11.276
ATOM     48  H   UNL d   1      11.780  -3.356  -1.753 +0.10 +0.14    +0.295    11.276
ATOM     49  C   UNL d   1      10.012 -12.029   0.622 -0.20 +0.01    +0.048    11.276
ATOM     50  C   UNL d   1       8.548 -11.994   1.058 -0.23 +0.03    +0.125    11.276
ATOM     51  C   UNL d   1       8.031 -13.382   1.314 -0.29 +0.08    +0.305    11.276
ATOM     52  O   UNL d   1       7.280 -14.036   0.612 -0.91 -0.10    -0.251    11.276
ATOM     53  O   UNL d   1       8.488 -13.883   2.479 -0.16 -0.17    -0.481    11.276
ATOM     54  H   UNL d   1       7.726 -14.384   2.838 -0.34 +0.05    +0.295    11.276
TER
ENDMDL
MODEL       66
USER    Run = 66
USER    Cluster Rank = 17
USER    Number of conformations in this cluster = 1
USER  
USER    RMSD from reference structure       = 16.573 A
USER  
USER    Estimated Free Energy of Binding    =   -4.84 kcal/mol  [=(1)+(2)+(3)-(4)]
USER    Estimated Inhibition Constant, Ki   =  285.46 uM (micromolar)  [Temperature = 298.15 K]
USER    
USER    (1) Final Intermolecular Energy     =   -8.71 kcal/mol
USER        vdW + Hbond + desolv Energy     =   -8.48 kcal/mol
USER        Electrostatic Energy            =   -0.24 kcal/mol
USER    (2) Final Total Internal Energy     =   -2.63 kcal/mol
USER    (3) Torsional Free Energy           =   +3.88 kcal/mol
USER    (4) Unbound System's Energy  [=(2)] =   -2.63 kcal/mol
USER    
USER    
USER  
USER    DPF = D:/Protein_go_brrr/autodock/final/mut_K82N/heme/dock.dpf
USER    NEWDPF move	heme_opt.pdbqt
USER    NEWDPF about	0.153000 0.018000 -0.028000
USER    NEWDPF tran0	11.400548 5.532703 14.131022
USER    NEWDPF axisangle0	0.438238 0.728807 -0.526106 142.872527
USER    NEWDPF quaternion0	0.415436 0.690887 -0.498733 0.318359
USER    NEWDPF dihe0	-99.08 -180.00 -31.31 -126.10 55.67 121.08 108.33 -74.04 147.38 11.35 -152.90 -115.27 3.44 
USER  
USER                              x       y       z    vdW   Elec        q     RMS 
ATOM      1  O   UNL d   1      13.817   0.521  12.183 -0.11 +0.06    -0.289    16.573
ATOM      2  O   UNL d   1      12.708   3.072  19.158 -0.12 -0.04    -0.289    16.573
ATOM      3  N   UNL d   1      12.465   3.624  12.844 -0.06 +0.02    -0.247    16.573
ATOM      4  N   UNL d   1      12.139   3.612  15.797 -0.07 +0.02    -0.247    16.573
ATOM      5  N   UNL d   1      10.478   5.943  15.531 -0.10 +0.03    -0.354    16.573
ATOM      6  N   UNL d   1      10.805   5.937  12.466 -0.13 +0.02    -0.354    16.573
ATOM      7  C   UNL d   1      12.838   2.296  10.818 -0.16 -0.01    +0.084    16.573
ATOM      8  C   UNL d   1      13.632   2.164  17.081 -0.07 -0.00    +0.084    16.573
ATOM      9  C   UNL d   1      13.119   2.647  15.720 -0.08 -0.00    +0.058    16.573
ATOM     10  C   UNL d   1      12.315   3.581  11.468 -0.12 -0.00    +0.058    16.573
ATOM     11  C   UNL d   1      13.326   1.629  12.068 -0.10 -0.03    +0.193    16.573
ATOM     12  C   UNL d   1      13.067   2.544  13.224 -0.08 -0.01    +0.109    16.573
ATOM     13  C   UNL d   1      12.736   3.006  17.945 -0.11 +0.01    +0.193    16.573
ATOM     14  C   UNL d   1      11.708   1.456  10.217 -0.31 -0.00    +0.026    16.573
ATOM     15  C   UNL d   1      13.552   2.135  14.558 -0.09 -0.00    +0.055    16.573
ATOM     16  C   UNL d   1      15.085   2.584  17.322 -0.03 +0.00    +0.026    16.573
ATOM     17  C   UNL d   1      11.875   3.832  17.045 -0.14 +0.00    +0.109    16.573
ATOM     18  C   UNL d   1      11.840   4.600  10.728 -0.19 -0.00    +0.050    16.573
ATOM     19  C   UNL d   1      11.414   5.855  11.234 -0.18 -0.00    +0.045    16.573
ATOM     20  C   UNL d   1      10.258   5.647  16.851 -0.15 -0.00    +0.045    16.573
ATOM     21  C   UNL d   1      10.860   4.730  17.616 -0.17 +0.00    +0.057    16.573
ATOM     22  C   UNL d   1       8.851   7.336  16.229 -0.28 +0.00    -0.019    16.573
ATOM     23  C   UNL d   1       9.675   6.950  15.066 -0.28 -0.00    +0.045    16.573
ATOM     24  C   UNL d   1       9.202   6.562  17.283 -0.20 +0.00    -0.022    16.573
ATOM     25  C   UNL d   1      10.395   7.226  12.717 -0.24 +0.00    +0.049    16.573
ATOM     26  C   UNL d   1      11.433   7.128  10.687 -0.13 -0.00    -0.018    16.573
ATOM     27  C   UNL d   1      10.806   7.993  11.636 -0.18 +0.00    +0.003    16.573
ATOM     28  C   UNL d   1       9.603   7.529  13.857 -0.11 +0.00    +0.052    16.573
ATOM     29  C   UNL d   1       8.666   6.581  18.674 -0.17 +0.00    +0.046    16.573
ATOM     30  C   UNL d   1      12.001   7.521   9.365 -0.09 +0.00    +0.046    16.573
ATOM     31  H   UNL d   1      11.224   5.497  15.009 +0.06 -0.01    +0.166    16.573
ATOM     32  H   UNL d   1      10.653   5.138  13.070 +0.06 -0.02    +0.166    16.573
ATOM     33  C   UNL d   1      13.989   2.484   9.823 -0.09 -0.01    +0.141    16.573
ATOM     34  C   UNL d   1      14.214   1.271   8.962 -0.00 +0.01    +0.306    16.573
ATOM     35  O   UNL d   1      13.978   1.181   7.769 -0.46 -0.03    -0.251    16.573
ATOM     36  O   UNL d   1      14.728   0.236   9.650 -0.42 +0.02    -0.481    16.573
ATOM     37  H   UNL d   1      13.962  -0.146  10.129 -0.48 -0.09    +0.295    16.573
ATOM     38  C   UNL d   1      10.601   9.400  11.462 -0.17 +0.00    +0.017    16.573
ATOM     39  C   UNL d   1       9.442   9.976  11.109 -0.12 +0.02    +0.092    16.573
ATOM     40  C   UNL d   1       9.360  11.433  10.981 -0.12 +0.09    +0.330    16.573
ATOM     41  O   UNL d   1       9.085  12.078   9.987 -0.66 -0.15    -0.246    16.573
ATOM     42  O   UNL d   1       9.631  12.016  12.159 -0.05 -0.03    -0.477    16.573
ATOM     43  H   UNL d   1       9.803  11.262  12.760 +0.05 +0.01    +0.295    16.573
ATOM     44  C   UNL d   1      13.430   0.673  17.371 -0.14 -0.00    +0.141    16.573
ATOM     45  C   UNL d   1      12.117   0.140  16.862 -0.25 -0.05    +0.306    16.573
ATOM     46  O   UNL d   1      11.764   0.069  15.698 -0.25 +0.09    -0.251    16.573
ATOM     47  O   UNL d   1      11.301  -0.251  17.857 -0.26 +0.09    -0.481    16.573
ATOM     48  H   UNL d   1      10.397  -0.069  17.522 -0.37 -0.15    +0.295    16.573
ATOM     49  C   UNL d   1       7.798   8.405  16.199 -0.11 -0.02    +0.048    16.573
ATOM     50  C   UNL d   1       8.404   9.803  16.312 -0.12 -0.02    +0.125    16.573
ATOM     51  C   UNL d   1       9.801   9.829  15.760 -0.07 -0.01    +0.305    16.573
ATOM     52  O   UNL d   1      10.825   9.465  16.312 -0.03 +0.01    -0.251    16.573
ATOM     53  O   UNL d   1       9.842  10.337  14.512 -0.23 -0.03    -0.481    16.573
ATOM     54  H   UNL d   1       9.389  11.203  14.593 +0.04 -0.00    +0.295    16.573
TER
ENDMDL
MODEL       97
USER    Run = 97
USER    Cluster Rank = 18
USER    Number of conformations in this cluster = 1
USER  
USER    RMSD from reference structure       = 15.754 A
USER  
USER    Estimated Free Energy of Binding    =   -4.82 kcal/mol  [=(1)+(2)+(3)-(4)]
USER    Estimated Inhibition Constant, Ki   =  295.46 uM (micromolar)  [Temperature = 298.15 K]
USER    
USER    (1) Final Intermolecular Energy     =   -8.69 kcal/mol
USER        vdW + Hbond + desolv Energy     =   -8.47 kcal/mol
USER        Electrostatic Energy            =   -0.22 kcal/mol
USER    (2) Final Total Internal Energy     =   -4.14 kcal/mol
USER    (3) Torsional Free Energy           =   +3.88 kcal/mol
USER    (4) Unbound System's Energy  [=(2)] =   -4.14 kcal/mol
USER    
USER    
USER  
USER    DPF = D:/Protein_go_brrr/autodock/final/mut_K82N/heme/dock.dpf
USER    NEWDPF move	heme_opt.pdbqt
USER    NEWDPF about	0.153000 0.018000 -0.028000
USER    NEWDPF tran0	-8.302509 7.186321 -14.377192
USER    NEWDPF axisangle0	0.066179 -0.790660 0.608668 140.616149
USER    NEWDPF quaternion0	0.062308 -0.744421 0.573072 0.336963
USER    NEWDPF dihe0	89.01 -175.80 -180.00 -47.42 -136.75 79.55 -45.17 -87.71 61.71 -4.89 -93.01 -82.27 -6.65 
USER  
USER                              x       y       z    vdW   Elec        q     RMS 
ATOM      1  O   UNL d   1      -3.142   9.915 -13.550 -0.11 +0.09    -0.289    15.754
ATOM      2  O   UNL d   1      -8.596   8.114  -8.712 -0.10 -0.06    -0.289    15.754
ATOM      3  N   UNL d   1      -6.090   8.417 -14.531 -0.08 +0.03    -0.247    15.754
ATOM      4  N   UNL d   1      -7.449   7.831 -11.955 +0.00 -0.01    -0.247    15.754
ATOM      5  N   UNL d   1      -9.260   6.131 -13.403 -0.04 -0.04    -0.354    15.754
ATOM      6  N   UNL d   1      -7.833   6.730 -16.069 -0.13 +0.03    -0.354    15.754
ATOM      7  C   UNL d   1      -3.993   9.008 -15.655 -0.19 -0.02    +0.084    15.754
ATOM      8  C   UNL d   1      -6.883   9.246 -10.045 -0.25 -0.00    +0.084    15.754
ATOM      9  C   UNL d   1      -6.631   8.842 -11.501 -0.20 -0.00    +0.058    15.754
ATOM     10  C   UNL d   1      -5.394   8.392 -15.728 -0.19 -0.01    +0.058    15.754
ATOM     11  C   UNL d   1      -4.029   9.403 -14.209 -0.21 -0.05    +0.193    15.754
ATOM     12  C   UNL d   1      -5.361   9.015 -13.646 -0.19 -0.02    +0.109    15.754
ATOM     13  C   UNL d   1      -7.969   8.252  -9.744 -0.11 +0.02    +0.193    15.754
ATOM     14  C   UNL d   1      -2.894   7.962 -15.855 -0.35 -0.01    +0.026    15.754
ATOM     15  C   UNL d   1      -5.663   9.391 -12.250 -0.24 -0.01    +0.055    15.754
ATOM     16  C   UNL d   1      -7.465  10.659  -9.940 -0.27 +0.00    +0.026    15.754
ATOM     17  C   UNL d   1      -8.213   7.450 -10.982 -0.11 +0.01    +0.109    15.754
ATOM     18  C   UNL d   1      -5.909   7.954 -16.892 -0.22 -0.01    +0.050    15.754
ATOM     19  C   UNL d   1      -7.222   7.448 -17.072 -0.17 -0.01    +0.045    15.754
ATOM     20  C   UNL d   1      -9.607   5.804 -12.118 -0.16 +0.01    +0.045    15.754
ATOM     21  C   UNL d   1      -9.202   6.362 -10.973 -0.15 +0.01    +0.057    15.754
ATOM     22  C   UNL d   1     -10.703   4.408 -13.556 -0.20 -0.01    -0.019    15.754
ATOM     23  C   UNL d   1      -9.872   5.343 -14.341 -0.23 +0.01    +0.045    15.754
ATOM     24  C   UNL d   1     -10.542   4.687 -12.241 -0.18 -0.01    -0.022    15.754
ATOM     25  C   UNL d   1      -9.056   6.260 -16.487 -0.21 +0.00    +0.049    15.754
ATOM     26  C   UNL d   1      -8.085   7.478 -18.156 -0.12 +0.00    -0.018    15.754
ATOM     27  C   UNL d   1      -9.250   6.743 -17.774 -0.14 +0.00    +0.003    15.754
ATOM     28  C   UNL d   1      -9.806   5.361 -15.681 -0.27 +0.01    +0.052    15.754
ATOM     29  C   UNL d   1     -11.178   4.029 -11.064 -0.15 +0.02    +0.046    15.754
ATOM     30  C   UNL d   1      -7.846   8.148 -19.466 -0.06 -0.00    +0.046    15.754
ATOM     31  H   UNL d   1      -8.672   6.934 -13.601 +0.04 +0.01    +0.166    15.754
ATOM     32  H   UNL d   1      -7.405   6.548 -15.169 +0.10 -0.01    +0.166    15.754
ATOM     33  C   UNL d   1      -3.769  10.237 -16.543 -0.10 -0.05    +0.141    15.754
ATOM     34  C   UNL d   1      -3.644  11.509 -15.750 -0.14 -0.17    +0.306    15.754
ATOM     35  O   UNL d   1      -4.564  12.185 -15.323 -0.15 +0.13    -0.251    15.754
ATOM     36  O   UNL d   1      -2.364  11.862 -15.535 -0.15 +0.44    -0.481    15.754
ATOM     37  H   UNL d   1      -2.144  11.473 -14.662 -0.38 -0.26    +0.295    15.754
ATOM     38  C   UNL d   1     -10.391   6.513 -18.608 -0.08 +0.00    +0.017    15.754
ATOM     39  C   UNL d   1     -11.013   5.334 -18.761 -0.11 +0.02    +0.092    15.754
ATOM     40  C   UNL d   1     -12.186   5.235 -19.634 -0.03 +0.07    +0.330    15.754
ATOM     41  O   UNL d   1     -12.205   5.186 -20.850 -0.01 -0.03    -0.246    15.754
ATOM     42  O   UNL d   1     -13.307   5.193 -18.899 -0.00 -0.13    -0.477    15.754
ATOM     43  H   UNL d   1     -12.990   5.311 -17.980 +0.03 +0.10    +0.295    15.754
ATOM     44  C   UNL d   1      -5.694   9.064  -9.094 -0.41 -0.01    +0.141    15.754
ATOM     45  C   UNL d   1      -5.136   7.666  -9.102 -0.29 -0.02    +0.306    15.754
ATOM     46  O   UNL d   1      -5.488   6.739  -8.395 -0.27 -0.01    -0.251    15.754
ATOM     47  O   UNL d   1      -4.136   7.517  -9.990 -0.20 +0.07    -0.481    15.754
ATOM     48  H   UNL d   1      -4.050   8.396 -10.417 -0.31 -0.14    +0.295    15.754
ATOM     49  C   UNL d   1     -11.556   3.330 -14.158 -0.11 +0.03    +0.048    15.754
ATOM     50  C   UNL d   1     -12.970   3.826 -14.459 -0.13 +0.08    +0.125    15.754
ATOM     51  C   UNL d   1     -13.044   4.440 -15.828 -0.08 +0.20    +0.305    15.754
ATOM     52  O   UNL d   1     -12.923   5.616 -16.122 -0.03 -0.08    -0.251    15.754
ATOM     53  O   UNL d   1     -13.285   3.518 -16.781 -0.63 -0.67    -0.481    15.754
ATOM     54  H   UNL d   1     -14.009   3.910 -17.314 +0.02 +0.23    +0.295    15.754
TER
ENDMDL
MODEL       78
USER    Run = 78
USER    Cluster Rank = 19
USER    Number of conformations in this cluster = 1
USER  
USER    RMSD from reference structure       = 12.210 A
USER  
USER    Estimated Free Energy of Binding    =   -4.77 kcal/mol  [=(1)+(2)+(3)-(4)]
USER    Estimated Inhibition Constant, Ki   =  319.43 uM (micromolar)  [Temperature = 298.15 K]
USER    
USER    (1) Final Intermolecular Energy     =   -8.65 kcal/mol
USER        vdW + Hbond + desolv Energy     =   -8.15 kcal/mol
USER        Electrostatic Energy            =   -0.50 kcal/mol
USER    (2) Final Total Internal Energy     =   -2.38 kcal/mol
USER    (3) Torsional Free Energy           =   +3.88 kcal/mol
USER    (4) Unbound System's Energy  [=(2)] =   -2.38 kcal/mol
USER    
USER    
USER  
USER    DPF = D:/Protein_go_brrr/autodock/final/mut_K82N/heme/dock.dpf
USER    NEWDPF move	heme_opt.pdbqt
USER    NEWDPF about	0.153000 0.018000 -0.028000
USER    NEWDPF tran0	-9.872557 1.696430 10.373964
USER    NEWDPF axisangle0	-0.534770 0.834035 0.135669 59.289454
USER    NEWDPF quaternion0	-0.264508 0.412531 0.067105 0.869109
USER    NEWDPF dihe0	-92.02 -33.98 -99.82 -98.19 54.32 121.66 121.94 66.60 142.73 -32.45 89.29 179.52 177.78 
USER  
USER                              x       y       z    vdW   Elec        q     RMS 
ATOM      1  O   UNL d   1     -14.182   4.751   7.757 -0.58 -0.29    -0.289    12.210
ATOM      2  O   UNL d   1      -9.921  -0.899   5.246 -0.18 +0.04    -0.289    12.210
ATOM      3  N   UNL d   1     -11.652   3.344   9.631 -0.10 +0.06    -0.247    12.210
ATOM      4  N   UNL d   1     -10.766   1.046   7.968 -0.10 +0.03    -0.247    12.210
ATOM      5  N   UNL d   1      -9.333   0.061  10.257 -0.05 +0.06    -0.354    12.210
ATOM      6  N   UNL d   1     -10.272   2.438  11.981 -0.05 +0.06    -0.354    12.210
ATOM      7  C   UNL d   1     -13.392   5.017  10.054 -0.10 -0.00    +0.084    12.210
ATOM      8  C   UNL d   1     -11.129   1.207   5.556 -0.21 -0.01    +0.084    12.210
ATOM      9  C   UNL d   1     -11.329   1.794   6.957 -0.19 -0.01    +0.058    12.210
ATOM     10  C   UNL d   1     -12.206   4.198  10.570 -0.11 -0.01    +0.058    12.210
ATOM     11  C   UNL d   1     -13.400   4.488   8.652 -0.07 +0.05    +0.193    12.210
ATOM     12  C   UNL d   1     -12.283   3.501   8.513 -0.17 -0.01    +0.109    12.210
ATOM     13  C   UNL d   1     -10.381  -0.032   5.962 -0.20 -0.02    +0.193    12.210
ATOM     14  C   UNL d   1     -14.703   4.623  10.740 -0.02 -0.00    +0.026    12.210
ATOM     15  C   UNL d   1     -12.036   2.913   7.181 -0.23 -0.00    +0.055    12.210
ATOM     16  C   UNL d   1     -10.207   2.080   4.701 -0.29 -0.00    +0.026    12.210
ATOM     17  C   UNL d   1     -10.234  -0.013   7.449 -0.16 -0.01    +0.109    12.210
ATOM     18  C   UNL d   1     -11.709   4.382  11.808 -0.10 -0.01    +0.050    12.210
ATOM     19  C   UNL d   1     -10.566   3.733  12.340 -0.14 -0.01    +0.045    12.210
ATOM     20  C   UNL d   1      -9.218  -1.021   9.423 -0.17 -0.01    +0.045    12.210
ATOM     21  C   UNL d   1      -9.574  -1.131   8.140 -0.21 -0.00    +0.057    12.210
ATOM     22  C   UNL d   1      -8.390  -1.580  11.477 -0.30 +0.01    -0.019    12.210
ATOM     23  C   UNL d   1      -8.860  -0.181  11.519 -0.23 -0.01    +0.045    12.210
ATOM     24  C   UNL d   1      -8.604  -2.072  10.234 -0.26 +0.00    -0.022    12.210
ATOM     25  C   UNL d   1      -9.180   1.978  12.680 -0.23 -0.01    +0.049    12.210
ATOM     26  C   UNL d   1      -9.620   4.138  13.269 -0.21 +0.00    -0.018    12.210
ATOM     27  C   UNL d   1      -8.736   3.032  13.465 -0.27 -0.00    +0.003    12.210
ATOM     28  C   UNL d   1      -8.781   0.616  12.595 -0.23 -0.02    +0.052    12.210
ATOM     29  C   UNL d   1      -8.288  -3.427   9.699 -0.29 -0.01    +0.046    12.210
ATOM     30  C   UNL d   1      -9.538   5.471  13.934 -0.16 -0.01    +0.046    12.210
ATOM     31  H   UNL d   1      -9.664   0.956   9.914 +0.06 -0.02    +0.166    12.210
ATOM     32  H   UNL d   1     -10.822   1.901  11.321 +0.05 -0.03    +0.166    12.210
ATOM     33  C   UNL d   1     -13.192   6.536  10.055 -0.11 -0.03    +0.141    12.210
ATOM     34  C   UNL d   1     -14.466   7.289   9.778 -0.06 +0.02    +0.306    12.210
ATOM     35  O   UNL d   1     -15.105   7.943  10.584 -0.01 +0.01    -0.251    12.210
ATOM     36  O   UNL d   1     -14.865   7.179   8.499 -0.13 -0.29    -0.481    12.210
ATOM     37  H   UNL d   1     -15.382   6.345   8.473 +0.02 +0.16    +0.295    12.210
ATOM     38  C   UNL d   1      -7.618   3.018  14.360 -0.25 -0.00    +0.017    12.210
ATOM     39  C   UNL d   1      -7.578   3.620  15.559 -0.24 -0.02    +0.092    12.210
ATOM     40  C   UNL d   1      -6.375   3.514  16.389 -0.16 -0.09    +0.330    12.210
ATOM     41  O   UNL d   1      -5.665   4.417  16.788 -0.14 +0.06    -0.246    12.210
ATOM     42  O   UNL d   1      -6.132   2.228  16.687 -0.11 +0.16    -0.477    12.210
ATOM     43  H   UNL d   1      -5.155   2.174  16.712 -0.35 -0.17    +0.295    12.210
ATOM     44  C   UNL d   1     -12.413   0.849   4.800 -0.10 -0.01    +0.141    12.210
ATOM     45  C   UNL d   1     -12.978  -0.491   5.189 -0.01 -0.05    +0.306    12.210
ATOM     46  O   UNL d   1     -13.616  -0.746   6.196 -0.01 +0.03    -0.251    12.210
ATOM     47  O   UNL d   1     -12.685  -1.452   4.295 -0.01 +0.16    -0.481    12.210
ATOM     48  H   UNL d   1     -11.760  -1.707   4.500 +0.10 -0.12    +0.295    12.210
ATOM     49  C   UNL d   1      -7.796  -2.305  12.650 -0.26 -0.01    +0.048    12.210
ATOM     50  C   UNL d   1      -8.847  -3.110  13.413 -0.16 -0.02    +0.125    12.210
ATOM     51  C   UNL d   1      -9.476  -2.280  14.496 -0.06 -0.08    +0.305    12.210
ATOM     52  O   UNL d   1     -10.100  -1.241  14.369 -0.06 +0.05    -0.251    12.210
ATOM     53  O   UNL d   1      -9.270  -2.807  15.720 -0.05 +0.13    -0.481    12.210
ATOM     54  H   UNL d   1      -8.366  -2.512  15.957 -0.51 -0.18    +0.295    12.210
TER
ENDMDL
MODEL        5
USER    Run = 5
USER    Cluster Rank = 20
USER    Number of conformations in this cluster = 2
USER  
USER    RMSD from reference structure       = 18.020 A
USER  
USER    Estimated Free Energy of Binding    =   -4.72 kcal/mol  [=(1)+(2)+(3)-(4)]
USER    Estimated Inhibition Constant, Ki   =  347.66 uM (micromolar)  [Temperature = 298.15 K]
USER    
USER    (1) Final Intermolecular Energy     =   -8.60 kcal/mol
USER        vdW + Hbond + desolv Energy     =   -8.24 kcal/mol
USER        Electrostatic Energy            =   -0.36 kcal/mol
USER    (2) Final Total Internal Energy     =   -2.29 kcal/mol
USER    (3) Torsional Free Energy           =   +3.88 kcal/mol
USER    (4) Unbound System's Energy  [=(2)] =   -2.29 kcal/mol
USER    
USER    
USER  
USER    DPF = D:/Protein_go_brrr/autodock/final/mut_K82N/heme/dock.dpf
USER    NEWDPF move	heme_opt.pdbqt
USER    NEWDPF about	0.153000 0.018000 -0.028000
USER    NEWDPF tran0	4.894060 15.296660 -13.087840
USER    NEWDPF axisangle0	-0.942829 0.131826 -0.306097 -125.771465
USER    NEWDPF quaternion0	-0.839211 0.117338 -0.272457 -0.455767
USER    NEWDPF dihe0	-177.11 160.43 33.66 26.20 -167.21 99.61 -33.07 -52.47 -32.73 153.42 53.91 -158.32 119.43 
USER  
USER                              x       y       z    vdW   Elec        q     RMS 
ATOM      1  O   UNL d   1       0.723  17.309 -16.736 -0.07 +0.33    -0.289    18.020
ATOM      2  O   UNL d   1       1.565  18.072  -9.313 -0.28 +0.11    -0.289    18.020
ATOM      3  N   UNL d   1       3.292  15.816 -14.984 -0.10 +0.10    -0.247    18.020
ATOM      4  N   UNL d   1       2.978  16.916 -12.242 -0.12 +0.07    -0.247    18.020
ATOM      5  N   UNL d   1       5.601  15.907 -11.636 -0.13 +0.05    -0.354    18.020
ATOM      6  N   UNL d   1       5.927  14.786 -14.489 -0.04 +0.00    -0.354    18.020
ATOM      7  C   UNL d   1       2.710  16.026 -17.356 -0.06 -0.05    +0.084    18.020
ATOM      8  C   UNL d   1       0.740  17.640 -11.577 -0.25 -0.03    +0.084    18.020
ATOM      9  C   UNL d   1       1.683  17.118 -12.666 -0.24 -0.02    +0.058    18.020
ATOM     10  C   UNL d   1       3.667  15.505 -16.280 -0.09 -0.02    +0.058    18.020
ATOM     11  C   UNL d   1       1.716  16.671 -16.437 +0.11 -0.20    +0.193    18.020
ATOM     12  C   UNL d   1       2.167  16.453 -15.026 -0.11 -0.08    +0.109    18.020
ATOM     13  C   UNL d   1       1.748  17.733 -10.466 -0.21 -0.06    +0.193    18.020
ATOM     14  C   UNL d   1       3.356  17.108 -18.225 -0.02 -0.01    +0.026    18.020
ATOM     15  C   UNL d   1       1.290  16.924 -13.935 -0.19 -0.04    +0.055    18.020
ATOM     16  C   UNL d   1      -0.318  16.600 -11.196 -0.38 -0.01    +0.026    18.020
ATOM     17  C   UNL d   1       3.065  17.273 -11.001 -0.22 -0.03    +0.109    18.020
ATOM     18  C   UNL d   1       4.726  14.735 -16.595 -0.09 -0.01    +0.050    18.020
ATOM     19  C   UNL d   1       5.616  14.140 -15.664 -0.12 +0.00    +0.045    18.020
ATOM     20  C   UNL d   1       5.377  16.667 -10.518 -0.30 -0.01    +0.045    18.020
ATOM     21  C   UNL d   1       4.258  17.296 -10.142 -0.19 -0.02    +0.057    18.020
ATOM     22  C   UNL d   1       7.533  15.913 -10.478 -0.24 +0.00    -0.019    18.020
ATOM     23  C   UNL d   1       6.875  15.410 -11.701 -0.27 -0.00    +0.045    18.020
ATOM     24  C   UNL d   1       6.640  16.656  -9.781 -0.28 +0.00    -0.022    18.020
ATOM     25  C   UNL d   1       6.871  14.078 -13.783 -0.21 +0.00    +0.049    18.020
ATOM     26  C   UNL d   1       6.348  12.964 -15.706 -0.17 -0.00    -0.018    18.020
ATOM     27  C   UNL d   1       7.124  12.920 -14.506 -0.26 +0.00    +0.003    18.020
ATOM     28  C   UNL d   1       7.465  14.621 -12.612 -0.26 +0.00    +0.052    18.020
ATOM     29  C   UNL d   1       6.827  17.361  -8.481 -0.21 -0.01    +0.046    18.020
ATOM     30  C   UNL d   1       6.329  11.941 -16.790 -0.14 +0.02    +0.046    18.020
ATOM     31  H   UNL d   1       4.851  15.692 -12.285 +0.07 -0.02    +0.166    18.020
ATOM     32  H   UNL d   1       5.533  15.681 -14.221 +0.05 -0.01    +0.166    18.020
ATOM     33  C   UNL d   1       2.032  14.949 -18.210 -0.07 -0.09    +0.141    18.020
ATOM     34  C   UNL d   1       2.152  13.574 -17.610 -0.09 -0.17    +0.306    18.020
ATOM     35  O   UNL d   1       2.787  12.641 -18.071 -0.06 +0.06    -0.251    18.020
ATOM     36  O   UNL d   1       1.468  13.449 -16.460 -0.06 +0.54    -0.481    18.020
ATOM     37  H   UNL d   1       1.054  14.327 -16.322 -0.41 -0.75    +0.295    18.020
ATOM     38  C   UNL d   1       8.039  11.877 -14.152 -0.28 +0.01    +0.017    18.020
ATOM     39  C   UNL d   1       9.100  11.497 -14.881 -0.17 +0.03    +0.092    18.020
ATOM     40  C   UNL d   1       9.970  10.422 -14.396 -0.11 +0.10    +0.330    18.020
ATOM     41  O   UNL d   1       9.944   9.247 -14.707 -0.18 -0.09    -0.246    18.020
ATOM     42  O   UNL d   1      10.864  10.911 -13.523 -0.06 -0.07    -0.477    18.020
ATOM     43  H   UNL d   1      10.876  11.872 -13.711 +0.08 +0.03    +0.295    18.020
ATOM     44  C   UNL d   1       0.102  19.005 -11.855 -0.14 -0.04    +0.141    18.020
ATOM     45  C   UNL d   1      -1.339  18.912 -12.280 -0.14 -0.10    +0.306    18.020
ATOM     46  O   UNL d   1      -1.753  18.593 -13.381 -0.18 +0.11    -0.251    18.020
ATOM     47  O   UNL d   1      -2.189  19.255 -11.295 -0.12 +0.17    -0.481    18.020
ATOM     48  H   UNL d   1      -2.979  18.691 -11.441 -0.41 -0.14    +0.295    18.020
ATOM     49  C   UNL d   1       8.962  15.637 -10.116 -0.28 +0.00    +0.048    18.020
ATOM     50  C   UNL d   1       9.865  15.601 -11.349 -0.18 -0.00    +0.125    18.020
ATOM     51  C   UNL d   1      10.631  14.310 -11.415 -0.17 +0.02    +0.305    18.020
ATOM     52  O   UNL d   1      11.402  13.860 -10.586 -0.21 -0.01    -0.251    18.020
ATOM     53  O   UNL d   1      10.390  13.639 -12.559 -0.05 -0.04    -0.481    18.020
ATOM     54  H   UNL d   1      10.565  12.703 -12.328 +0.10 +0.04    +0.295    18.020
TER
ENDMDL
MODEL       74
USER    Run = 74
USER    Cluster Rank = 21
USER    Number of conformations in this cluster = 1
USER  
USER    RMSD from reference structure       = 15.155 A
USER  
USER    Estimated Free Energy of Binding    =   -4.71 kcal/mol  [=(1)+(2)+(3)-(4)]
USER    Estimated Inhibition Constant, Ki   =  353.51 uM (micromolar)  [Temperature = 298.15 K]
USER    
USER    (1) Final Intermolecular Energy     =   -8.59 kcal/mol
USER        vdW + Hbond + desolv Energy     =   -8.34 kcal/mol
USER        Electrostatic Energy            =   -0.25 kcal/mol
USER    (2) Final Total Internal Energy     =   -1.52 kcal/mol
USER    (3) Torsional Free Energy           =   +3.88 kcal/mol
USER    (4) Unbound System's Energy  [=(2)] =   -1.52 kcal/mol
USER    
USER    
USER  
USER    DPF = D:/Protein_go_brrr/autodock/final/mut_K82N/heme/dock.dpf
USER    NEWDPF move	heme_opt.pdbqt
USER    NEWDPF about	0.153000 0.018000 -0.028000
USER    NEWDPF tran0	12.360027 9.566882 -10.692649
USER    NEWDPF axisangle0	0.308538 0.939018 0.151819 -142.302749
USER    NEWDPF quaternion0	0.291992 0.888664 0.143678 -0.323069
USER    NEWDPF dihe0	-163.04 -30.97 142.96 55.74 -164.31 125.35 -20.07 -54.73 7.25 146.76 58.13 39.59 48.97 
USER  
USER                              x       y       z    vdW   Elec        q     RMS 
ATOM      1  O   UNL d   1      16.989   7.509  -7.678 -0.01 +0.02    -0.289    15.155
ATOM      2  O   UNL d   1      10.905   4.016 -10.358 -0.13 +0.13    -0.289    15.155
ATOM      3  N   UNL d   1      14.436   9.176  -9.289 -0.13 +0.01    -0.247    15.155
ATOM      4  N   UNL d   1      12.671   6.978 -10.230 -0.17 +0.03    -0.247    15.155
ATOM      5  N   UNL d   1      11.337   8.893 -11.909 -0.16 +0.00    -0.354    15.155
ATOM      6  N   UNL d   1      13.185  11.163 -10.942 -0.11 +0.00    -0.354    15.155
ATOM      7  C   UNL d   1      16.644   9.808  -8.432 -0.05 -0.00    +0.084    15.155
ATOM      8  C   UNL d   1      12.728   4.883  -8.973 -0.22 -0.02    +0.084    15.155
ATOM      9  C   UNL d   1      13.289   6.289  -9.210 -0.17 -0.01    +0.058    15.155
ATOM     10  C   UNL d   1      15.347  10.208  -9.142 -0.12 -0.00    +0.058    15.155
ATOM     11  C   UNL d   1      16.296   8.370  -8.186 -0.05 -0.01    +0.193    15.155
ATOM     12  C   UNL d   1      14.923   8.117  -8.728 -0.13 -0.01    +0.109    15.155
ATOM     13  C   UNL d   1      11.702   4.888 -10.071 -0.19 -0.06    +0.193    15.155
ATOM     14  C   UNL d   1      17.854   9.872  -9.367 -0.02 -0.00    +0.026    15.155
ATOM     15  C   UNL d   1      14.327   6.783  -8.517 -0.17 -0.01    +0.055    15.155
ATOM     16  C   UNL d   1      12.007   4.780  -7.626 -0.36 -0.01    +0.026    15.155
ATOM     17  C   UNL d   1      11.775   6.211 -10.762 -0.21 -0.02    +0.109    15.155
ATOM     18  C   UNL d   1      15.107  11.484  -9.500 -0.12 -0.00    +0.050    15.155
ATOM     19  C   UNL d   1      13.906  11.962 -10.083 -0.15 -0.00    +0.045    15.155
ATOM     20  C   UNL d   1      10.784   7.734 -12.388 -0.22 -0.00    +0.045    15.155
ATOM     21  C   UNL d   1      10.909   6.489 -11.917 -0.25 -0.01    +0.057    15.155
ATOM     22  C   UNL d   1      10.118   9.472 -13.712 -0.23 -0.01    -0.019    15.155
ATOM     23  C   UNL d   1      10.993   9.996 -12.644 -0.15 +0.00    +0.045    15.155
ATOM     24  C   UNL d   1       9.998   8.133 -13.555 -0.24 -0.00    -0.022    15.155
ATOM     25  C   UNL d   1      12.113  11.854 -11.458 -0.20 +0.00    +0.049    15.155
ATOM     26  C   UNL d   1      13.266  13.190 -10.011 -0.17 +0.00    -0.018    15.155
ATOM     27  C   UNL d   1      12.124  13.109 -10.866 -0.23 +0.00    +0.003    15.155
ATOM     28  C   UNL d   1      11.310  11.290 -12.487 -0.21 +0.01    +0.052    15.155
ATOM     29  C   UNL d   1       9.214   7.164 -14.373 -0.14 +0.02    +0.046    15.155
ATOM     30  C   UNL d   1      13.687  14.366  -9.198 -0.14 -0.00    +0.046    15.155
ATOM     31  H   UNL d   1      11.874   8.903 -11.049 +0.02 -0.01    +0.166    15.155
ATOM     32  H   UNL d   1      13.448  10.214 -11.179 +0.03 -0.00    +0.166    15.155
ATOM     33  C   UNL d   1      16.917  10.529  -7.108 -0.04 -0.01    +0.141    15.155
ATOM     34  C   UNL d   1      15.782  10.395  -6.130 -0.07 -0.02    +0.306    15.155
ATOM     35  O   UNL d   1      15.027  11.284  -5.776 -0.11 +0.02    -0.251    15.155
ATOM     36  O   UNL d   1      15.655   9.144  -5.651 -0.03 +0.02    -0.481    15.155
ATOM     37  H   UNL d   1      16.495   8.700  -5.896 +0.04 -0.01    +0.295    15.155
ATOM     38  C   UNL d   1      11.190  14.169 -11.098 -0.27 +0.00    +0.017    15.155
ATOM     39  C   UNL d   1       9.961  14.249 -10.565 -0.33 +0.01    +0.092    15.155
ATOM     40  C   UNL d   1       9.107  15.400 -10.870 -0.18 +0.00    +0.330    15.155
ATOM     41  O   UNL d   1       7.991  15.391 -11.354 -0.23 +0.01    -0.246    15.155
ATOM     42  O   UNL d   1       9.727  16.539 -10.525 -0.05 +0.01    -0.477    15.155
ATOM     43  H   UNL d   1       9.389  17.195 -11.170 +0.06 -0.02    +0.295    15.155
ATOM     44  C   UNL d   1      13.725   3.734  -9.158 -0.12 -0.05    +0.141    15.155
ATOM     45  C   UNL d   1      14.334   3.262  -7.864 -0.09 -0.09    +0.306    15.155
ATOM     46  O   UNL d   1      15.054   3.907  -7.122 -0.04 +0.03    -0.251    15.155
ATOM     47  O   UNL d   1      14.023   1.983  -7.586 -0.13 +0.24    -0.481    15.155
ATOM     48  H   UNL d   1      13.092   1.885  -7.879 -0.34 -0.45    +0.295    15.155
ATOM     49  C   UNL d   1       9.500  10.318 -14.786 -0.16 +0.02    +0.048    15.155
ATOM     50  C   UNL d   1       9.132  11.710 -14.272 -0.18 +0.04    +0.125    15.155
ATOM     51  C   UNL d   1       7.662  11.971 -14.437 -0.15 +0.15    +0.305    15.155
ATOM     52  O   UNL d   1       7.023  11.996 -15.475 -0.70 -0.15    -0.251    15.155
ATOM     53  O   UNL d   1       7.056  12.206 -13.256 -0.14 -0.19    -0.481    15.155
ATOM     54  H   UNL d   1       6.331  11.547 -13.225 -0.31 +0.14    +0.295    15.155
TER
ENDMDL
MODEL       92
USER    Run = 92
USER    Cluster Rank = 22
USER    Number of conformations in this cluster = 1
USER  
USER    RMSD from reference structure       = 15.931 A
USER  
USER    Estimated Free Energy of Binding    =   -4.70 kcal/mol  [=(1)+(2)+(3)-(4)]
USER    Estimated Inhibition Constant, Ki   =  358.04 uM (micromolar)  [Temperature = 298.15 K]
USER    
USER    (1) Final Intermolecular Energy     =   -8.58 kcal/mol
USER        vdW + Hbond + desolv Energy     =   -8.41 kcal/mol
USER        Electrostatic Energy            =   -0.17 kcal/mol
USER    (2) Final Total Internal Energy     =   -2.96 kcal/mol
USER    (3) Torsional Free Energy           =   +3.88 kcal/mol
USER    (4) Unbound System's Energy  [=(2)] =   -2.96 kcal/mol
USER    
USER    
USER  
USER    DPF = D:/Protein_go_brrr/autodock/final/mut_K82N/heme/dock.dpf
USER    NEWDPF move	heme_opt.pdbqt
USER    NEWDPF about	0.153000 0.018000 -0.028000
USER    NEWDPF tran0	12.819207 1.802238 12.892179
USER    NEWDPF axisangle0	0.516904 -0.841957 -0.154660 87.811743
USER    NEWDPF quaternion0	0.358460 -0.583876 -0.107253 0.720480
USER    NEWDPF dihe0	116.70 110.56 120.31 -180.00 6.42 -89.68 -50.28 2.16 -170.57 -133.96 -66.93 28.87 43.11 
USER  
USER                              x       y       z    vdW   Elec        q     RMS 
ATOM      1  O   UNL d   1      10.690   4.916  17.423 -0.12 -0.02    -0.289    15.931
ATOM      2  O   UNL d   1      13.605  -1.999  17.131 -0.13 -0.02    -0.289    15.931
ATOM      3  N   UNL d   1      11.697   3.436  14.475 -0.11 +0.03    -0.247    15.931
ATOM      4  N   UNL d   1      12.962   0.904  15.379 -0.09 +0.03    -0.247    15.931
ATOM      5  N   UNL d   1      14.073   0.625  12.742 -0.05 +0.05    -0.354    15.931
ATOM      6  N   UNL d   1      12.772   3.263  11.818 -0.03 +0.02    -0.354    15.931
ATOM      7  C   UNL d   1      10.892   5.663  15.105 -0.18 -0.01    +0.084    15.931
ATOM      8  C   UNL d   1      12.206  -0.026  17.508 -0.34 -0.01    +0.084    15.931
ATOM      9  C   UNL d   1      12.169   1.114  16.485 -0.26 -0.01    +0.058    15.931
ATOM     10  C   UNL d   1      11.396   4.708  14.019 -0.18 -0.01    +0.058    15.931
ATOM     11  C   UNL d   1      10.943   4.700  16.252 -0.14 -0.01    +0.193    15.931
ATOM     12  C   UNL d   1      11.422   3.378  15.737 -0.19 -0.01    +0.109    15.931
ATOM     13  C   UNL d   1      13.195  -0.905  16.796 -0.22 -0.01    +0.193    15.931
ATOM     14  C   UNL d   1      11.879   6.803  15.371 -0.07 -0.00    +0.026    15.931
ATOM     15  C   UNL d   1      11.465   2.240  16.677 -0.13 -0.01    +0.055    15.931
ATOM     16  C   UNL d   1      10.864  -0.760  17.589 -0.39 -0.01    +0.026    15.931
ATOM     17  C   UNL d   1      13.581  -0.224  15.523 -0.19 -0.01    +0.109    15.931
ATOM     18  C   UNL d   1      11.445   5.077  12.725 -0.21 -0.00    +0.050    15.931
ATOM     19  C   UNL d   1      11.816   4.238  11.644 -0.13 -0.00    +0.045    15.931
ATOM     20  C   UNL d   1      14.752  -0.373  13.390 -0.16 -0.00    +0.045    15.931
ATOM     21  C   UNL d   1      14.578  -0.836  14.632 -0.22 -0.00    +0.057    15.931
ATOM     22  C   UNL d   1      15.607  -0.145  11.284 -0.11 +0.00    -0.019    15.931
ATOM     23  C   UNL d   1      14.519   0.836  11.464 -0.12 -0.01    +0.045    15.931
ATOM     24  C   UNL d   1      15.740  -0.859  12.427 -0.14 +0.00    -0.022    15.931
ATOM     25  C   UNL d   1      13.042   2.632  10.625 -0.14 -0.00    +0.049    15.931
ATOM     26  C   UNL d   1      11.428   4.215  10.313 -0.14 +0.00    -0.018    15.931
ATOM     27  C   UNL d   1      12.190   3.186   9.679 -0.21 -0.00    +0.003    15.931
ATOM     28  C   UNL d   1      14.106   1.696  10.520 -0.14 -0.00    +0.052    15.931
ATOM     29  C   UNL d   1      16.689  -1.968  12.730 -0.13 -0.00    +0.046    15.931
ATOM     30  C   UNL d   1      10.409   5.093   9.668 -0.29 -0.00    +0.046    15.931
ATOM     31  H   UNL d   1      13.275   1.082  13.169 +0.06 -0.03    +0.166    15.931
ATOM     32  H   UNL d   1      13.232   3.080  12.702 +0.04 -0.01    +0.166    15.931
ATOM     33  C   UNL d   1       9.466   6.189  14.907 -0.20 -0.03    +0.141    15.931
ATOM     34  C   UNL d   1       9.403   7.692  14.867 -0.14 -0.01    +0.306    15.931
ATOM     35  O   UNL d   1       9.962   8.415  14.060 -0.77 -0.03    -0.251    15.931
ATOM     36  O   UNL d   1       8.635   8.204  15.845 -0.18 +0.08    -0.481    15.931
ATOM     37  H   UNL d   1       7.728   7.897  15.634 -0.43 -0.13    +0.295    15.931
ATOM     38  C   UNL d   1      12.112   2.836   8.293 -0.30 -0.00    +0.017    15.931
ATOM     39  C   UNL d   1      11.665   1.664   7.815 -0.35 -0.00    +0.092    15.931
ATOM     40  C   UNL d   1      11.619   1.436   6.368 -0.20 +0.01    +0.330    15.931
ATOM     41  O   UNL d   1      10.690   1.647   5.612 -0.28 +0.01    -0.246    15.931
ATOM     42  O   UNL d   1      12.793   0.947   5.940 -0.08 -0.04    -0.477    15.931
ATOM     43  H   UNL d   1      13.410   1.701   6.036 +0.08 +0.01    +0.295    15.931
ATOM     44  C   UNL d   1      12.714   0.354  18.903 -0.24 +0.01    +0.141    15.931
ATOM     45  C   UNL d   1      12.647  -0.781  19.890 -0.17 +0.03    +0.306    15.931
ATOM     46  O   UNL d   1      11.742  -1.010  20.673 -0.23 -0.03    -0.251    15.931
ATOM     47  O   UNL d   1      13.745  -1.557  19.856 -0.01 -0.04    -0.481    15.931
ATOM     48  H   UNL d   1      13.773  -1.908  18.941 +0.10 +0.02    +0.295    15.931
ATOM     49  C   UNL d   1      16.418  -0.283  10.029 -0.08 -0.00    +0.048    15.931
ATOM     50  C   UNL d   1      15.555  -0.146   8.776 -0.04 +0.00    +0.125    15.931
ATOM     51  C   UNL d   1      15.919   1.092   8.006 -0.04 +0.01    +0.305    15.931
ATOM     52  O   UNL d   1      16.726   1.950   8.318 -0.01 +0.00    -0.251    15.931
ATOM     53  O   UNL d   1      15.222   1.194   6.856 -0.05 -0.02    -0.481    15.931
ATOM     54  H   UNL d   1      14.657   0.393   6.848 +0.05 +0.04    +0.295    15.931
TER
ENDMDL
MODEL        8
USER    Run = 8
USER    Cluster Rank = 23
USER    Number of conformations in this cluster = 1
USER  
USER    RMSD from reference structure       = 18.490 A
USER  
USER    Estimated Free Energy of Binding    =   -4.62 kcal/mol  [=(1)+(2)+(3)-(4)]
USER    Estimated Inhibition Constant, Ki   =  408.44 uM (micromolar)  [Temperature = 298.15 K]
USER    
USER    (1) Final Intermolecular Energy     =   -8.50 kcal/mol
USER        vdW + Hbond + desolv Energy     =   -8.33 kcal/mol
USER        Electrostatic Energy            =   -0.17 kcal/mol
USER    (2) Final Total Internal Energy     =   -4.11 kcal/mol
USER    (3) Torsional Free Energy           =   +3.88 kcal/mol
USER    (4) Unbound System's Energy  [=(2)] =   -4.11 kcal/mol
USER    
USER    
USER  
USER    DPF = D:/Protein_go_brrr/autodock/final/mut_K82N/heme/dock.dpf
USER    NEWDPF move	heme_opt.pdbqt
USER    NEWDPF about	0.153000 0.018000 -0.028000
USER    NEWDPF tran0	-6.023431 7.166476 -18.240115
USER    NEWDPF axisangle0	0.419386 0.669993 -0.612556 -92.276765
USER    NEWDPF quaternion0	0.302384 0.483075 -0.441663 -0.692919
USER    NEWDPF dihe0	-130.63 -165.04 -114.74 -59.90 -96.16 96.35 119.94 -126.21 33.69 -33.53 -100.65 -107.48 3.74 
USER  
USER                              x       y       z    vdW   Elec        q     RMS 
ATOM      1  O   UNL d   1      -5.039   9.135 -12.771 -0.18 +0.07    -0.289    18.490
ATOM      2  O   UNL d   1     -11.421   7.283 -16.268 -0.02 -0.03    -0.289    18.490
ATOM      3  N   UNL d   1      -5.140   8.145 -16.073 -0.15 +0.05    -0.247    18.490
ATOM      4  N   UNL d   1      -7.976   7.347 -16.461 -0.11 +0.02    -0.247    18.490
ATOM      5  N   UNL d   1      -7.191   6.097 -18.928 +0.08 +0.10    -0.354    18.490
ATOM      6  N   UNL d   1      -4.248   6.912 -18.508 -0.13 +0.13    -0.354    18.490
ATOM      7  C   UNL d   1      -3.353   8.650 -14.473 -0.36 -0.02    +0.084    18.490
ATOM      8  C   UNL d   1      -9.640   8.393 -15.008 -0.05 +0.00    +0.084    18.490
ATOM      9  C   UNL d   1      -8.169   8.180 -15.381 -0.10 -0.00    +0.058    18.490
ATOM     10  C   UNL d   1      -3.770   8.215 -15.882 -0.27 -0.02    +0.058    18.490
ATOM     11  C   UNL d   1      -4.730   8.830 -13.909 -0.20 -0.04    +0.193    18.490
ATOM     12  C   UNL d   1      -5.726   8.519 -14.983 -0.15 -0.02    +0.109    18.490
ATOM     13  C   UNL d   1     -10.244   7.497 -16.052 -0.04 +0.01    +0.193    18.490
ATOM     14  C   UNL d   1      -2.649   7.525 -13.710 -0.47 -0.01    +0.026    18.490
ATOM     15  C   UNL d   1      -7.158   8.719 -14.683 -0.11 -0.00    +0.055    18.490
ATOM     16  C   UNL d   1     -10.091   9.832 -15.274 -0.02 +0.00    +0.026    18.490
ATOM     17  C   UNL d   1      -9.129   6.918 -16.862 -0.13 +0.00    +0.109    18.490
ATOM     18  C   UNL d   1      -2.861   8.014 -16.854 -0.31 -0.02    +0.050    18.490
ATOM     19  C   UNL d   1      -3.157   7.694 -18.203 -0.24 -0.01    +0.045    18.490
ATOM     20  C   UNL d   1      -8.474   5.627 -18.823 -0.20 -0.00    +0.045    18.490
ATOM     21  C   UNL d   1      -9.420   5.961 -17.940 -0.20 +0.00    +0.057    18.490
ATOM     22  C   UNL d   1      -7.449   4.592 -20.583 -0.25 +0.00    -0.019    18.490
ATOM     23  C   UNL d   1      -6.494   5.530 -19.961 -0.13 -0.01    +0.045    18.490
ATOM     24  C   UNL d   1      -8.620   4.654 -19.906 -0.21 +0.00    -0.022    18.490
ATOM     25  C   UNL d   1      -4.293   6.652 -19.859 -0.11 -0.01    +0.049    18.490
ATOM     26  C   UNL d   1      -2.498   7.981 -19.389 -0.14 +0.00    -0.018    18.490
ATOM     27  C   UNL d   1      -3.231   7.337 -20.433 -0.11 -0.00    +0.003    18.490
ATOM     28  C   UNL d   1      -5.240   5.737 -20.393 -0.19 -0.01    +0.052    18.490
ATOM     29  C   UNL d   1      -9.886   3.908 -20.159 -0.18 +0.01    +0.046    18.490
ATOM     30  C   UNL d   1      -1.265   8.804 -19.546 -0.08 -0.01    +0.046    18.490
ATOM     31  H   UNL d   1      -6.855   6.847 -18.333 -0.12 -0.05    +0.166    18.490
ATOM     32  H   UNL d   1      -4.892   6.553 -17.814 -0.51 -0.10    +0.166    18.490
ATOM     33  C   UNL d   1      -2.564   9.961 -14.397 -0.27 -0.05    +0.141    18.490
ATOM     34  C   UNL d   1      -3.452  11.175 -14.443 -0.26 -0.14    +0.306    18.490
ATOM     35  O   UNL d   1      -4.418  11.333 -15.170 -0.12 +0.10    -0.251    18.490
ATOM     36  O   UNL d   1      -3.077  12.125 -13.568 -0.66 +0.21    -0.481    18.490
ATOM     37  H   UNL d   1      -2.107  12.205 -13.691 -0.32 -0.27    +0.295    18.490
ATOM     38  C   UNL d   1      -2.885   7.363 -21.822 -0.10 -0.00    +0.017    18.490
ATOM     39  C   UNL d   1      -2.415   6.321 -22.523 -0.10 -0.01    +0.092    18.490
ATOM     40  C   UNL d   1      -2.114   6.475 -23.949 -0.03 -0.04    +0.330    18.490
ATOM     41  O   UNL d   1      -1.043   6.743 -24.458 -0.01 +0.03    -0.246    18.490
ATOM     42  O   UNL d   1      -3.220   6.266 -24.679 -0.00 +0.05    -0.477    18.490
ATOM     43  H   UNL d   1      -3.946   6.311 -24.024 +0.03 -0.03    +0.295    18.490
ATOM     44  C   UNL d   1     -10.036   7.939 -13.599 -0.06 +0.01    +0.141    18.490
ATOM     45  C   UNL d   1     -10.340   6.467 -13.513 -0.07 +0.05    +0.306    18.490
ATOM     46  O   UNL d   1      -9.529   5.557 -13.505 -0.15 -0.04    -0.251    18.490
ATOM     47  O   UNL d   1     -11.660   6.216 -13.467 +0.00 -0.10    -0.481    18.490
ATOM     48  H   UNL d   1     -12.002   6.525 -14.333 +0.04 +0.06    +0.295    18.490
ATOM     49  C   UNL d   1      -7.128   3.719 -21.761 -0.22 -0.01    +0.048    18.490
ATOM     50  C   UNL d   1      -7.200   4.491 -23.078 -0.06 -0.01    +0.125    18.490
ATOM     51  C   UNL d   1      -5.947   5.290 -23.300 -0.04 -0.03    +0.305    18.490
ATOM     52  O   UNL d   1      -5.861   6.459 -23.633 -0.02 +0.02    -0.251    18.490
ATOM     53  O   UNL d   1      -4.837   4.554 -23.097 -0.52 +0.02    -0.481    18.490
ATOM     54  H   UNL d   1      -4.374   4.577 -23.960 +0.04 -0.03    +0.295    18.490
TER
ENDMDL
MODEL       41
USER    Run = 41
USER    Cluster Rank = 24
USER    Number of conformations in this cluster = 1
USER  
USER    RMSD from reference structure       = 18.795 A
USER  
USER    Estimated Free Energy of Binding    =   -4.62 kcal/mol  [=(1)+(2)+(3)-(4)]
USER    Estimated Inhibition Constant, Ki   =  412.50 uM (micromolar)  [Temperature = 298.15 K]
USER    
USER    (1) Final Intermolecular Energy     =   -8.50 kcal/mol
USER        vdW + Hbond + desolv Energy     =   -8.17 kcal/mol
USER        Electrostatic Energy            =   -0.32 kcal/mol
USER    (2) Final Total Internal Energy     =   -2.32 kcal/mol
USER    (3) Torsional Free Energy           =   +3.88 kcal/mol
USER    (4) Unbound System's Energy  [=(2)] =   -2.32 kcal/mol
USER    
USER    
USER  
USER    DPF = D:/Protein_go_brrr/autodock/final/mut_K82N/heme/dock.dpf
USER    NEWDPF move	heme_opt.pdbqt
USER    NEWDPF about	0.153000 0.018000 -0.028000
USER    NEWDPF tran0	6.072144 18.445000 -9.548163
USER    NEWDPF axisangle0	-0.367304 0.901416 0.229210 -169.758578
USER    NEWDPF quaternion0	-0.365838 0.897818 0.228295 -0.089254
USER    NEWDPF dihe0	-105.11 120.67 97.88 0.55 35.93 -1.66 -38.62 72.90 134.14 -122.51 45.58 177.68 139.82 
USER  
USER                              x       y       z    vdW   Elec        q     RMS 
ATOM      1  O   UNL d   1       8.909  23.271  -7.700 -0.01 +0.04    -0.289    18.795
ATOM      2  O   UNL d   1      11.367  16.288  -8.959 -0.09 +0.00    -0.289    18.795
ATOM      3  N   UNL d   1       6.821  20.701  -8.662 -0.05 +0.05    -0.247    18.795
ATOM      4  N   UNL d   1       8.697  18.461  -9.202 -0.06 +0.02    -0.247    18.795
ATOM      5  N   UNL d   1       6.535  17.086 -10.506 -0.11 +0.06    -0.354    18.795
ATOM      6  N   UNL d   1       4.600  19.422  -9.959 -0.04 +0.10    -0.354    18.795
ATOM      7  C   UNL d   1       6.552  23.113  -8.326 -0.10 -0.01    +0.084    18.795
ATOM      8  C   UNL d   1      10.835  18.484  -8.018 -0.07 -0.01    +0.084    18.795
ATOM      9  C   UNL d   1       9.514  19.182  -8.359 -0.07 -0.01    +0.058    18.795
ATOM     10  C   UNL d   1       5.937  21.766  -8.715 -0.12 -0.01    +0.058    18.795
ATOM     11  C   UNL d   1       7.934  22.619  -8.025 -0.04 -0.03    +0.193    18.795
ATOM     12  C   UNL d   1       7.963  21.137  -8.242 -0.04 -0.02    +0.109    18.795
ATOM     13  C   UNL d   1      10.633  17.251  -8.852 -0.06 -0.01    +0.193    18.795
ATOM     14  C   UNL d   1       6.618  24.079  -9.512 -0.04 -0.00    +0.026    18.795
ATOM     15  C   UNL d   1       9.207  20.411  -7.916 -0.05 -0.01    +0.055    18.795
ATOM     16  C   UNL d   1      10.897  18.076  -6.543 -0.11 -0.00    +0.026    18.795
ATOM     17  C   UNL d   1       9.303  17.363  -9.524 -0.13 -0.01    +0.109    18.795
ATOM     18  C   UNL d   1       4.625  21.645  -8.992 -0.17 -0.01    +0.050    18.795
ATOM     19  C   UNL d   1       3.954  20.429  -9.279 -0.20 -0.01    +0.045    18.795
ATOM     20  C   UNL d   1       7.580  16.272 -10.861 -0.24 -0.00    +0.045    18.795
ATOM     21  C   UNL d   1       8.851  16.312 -10.447 -0.25 -0.00    +0.057    18.795
ATOM     22  C   UNL d   1       5.705  15.594 -11.975 -0.31 +0.00    -0.019    18.795
ATOM     23  C   UNL d   1       5.362  16.754 -11.129 -0.24 -0.01    +0.045    18.795
ATOM     24  C   UNL d   1       7.019  15.313 -11.811 -0.27 +0.00    -0.022    18.795
ATOM     25  C   UNL d   1       3.740  18.377 -10.208 -0.17 -0.02    +0.049    18.795
ATOM     26  C   UNL d   1       2.652  20.013  -9.047 -0.31 +0.01    -0.018    18.795
ATOM     27  C   UNL d   1       2.528  18.709  -9.618 -0.24 -0.00    +0.003    18.795
ATOM     28  C   UNL d   1       4.135  17.289 -11.033 -0.25 -0.01    +0.052    18.795
ATOM     29  C   UNL d   1       7.827  14.229 -12.440 -0.18 +0.00    +0.046    18.795
ATOM     30  C   UNL d   1       1.586  20.777  -8.336 -0.34 -0.01    +0.046    18.795
ATOM     31  H   UNL d   1       6.642  17.798  -9.792 +0.06 -0.03    +0.166    18.795
ATOM     32  H   UNL d   1       5.565  19.481 -10.262 +0.04 -0.04    +0.166    18.795
ATOM     33  C   UNL d   1       5.939  23.782  -7.090 -0.01 -0.03    +0.141    18.795
ATOM     34  C   UNL d   1       6.558  25.120  -6.790 -0.09 -0.06    +0.306    18.795
ATOM     35  O   UNL d   1       6.182  26.200  -7.214 -0.05 +0.04    -0.251    18.795
ATOM     36  O   UNL d   1       7.618  25.028  -5.967 -0.04 +0.10    -0.481    18.795
ATOM     37  H   UNL d   1       8.326  24.633  -6.520 +0.04 -0.05    +0.295    18.795
ATOM     38  C   UNL d   1       1.336  17.917  -9.616 -0.43 -0.01    +0.017    18.795
ATOM     39  C   UNL d   1       0.087  18.397  -9.711 -0.40 -0.03    +0.092    18.795
ATOM     40  C   UNL d   1      -1.052  17.475  -9.715 -0.33 -0.11    +0.330    18.795
ATOM     41  O   UNL d   1      -1.024  16.259  -9.702 -0.46 +0.09    -0.246    18.795
ATOM     42  O   UNL d   1      -2.204  18.164  -9.726 -0.25 +0.22    -0.477    18.795
ATOM     43  H   UNL d   1      -2.163  18.703  -8.909 -0.37 -0.25    +0.295    18.795
ATOM     44  C   UNL d   1      12.105  19.230  -8.441 -0.02 -0.01    +0.141    18.795
ATOM     45  C   UNL d   1      13.360  18.421  -8.252 -0.01 -0.02    +0.306    18.795
ATOM     46  O   UNL d   1      13.991  18.289  -7.218 -0.01 +0.02    -0.251    18.795
ATOM     47  O   UNL d   1      13.773  17.838  -9.392 +0.00 +0.03    -0.481    18.795
ATOM     48  H   UNL d   1      13.239  17.018  -9.459 +0.03 -0.01    +0.295    18.795
ATOM     49  C   UNL d   1       4.730  14.885 -12.868 -0.33 -0.00    +0.048    18.795
ATOM     50  C   UNL d   1       4.073  15.839 -13.865 -0.16 -0.03    +0.125    18.795
ATOM     51  C   UNL d   1       2.587  15.623 -13.915 -0.15 -0.14    +0.305    18.795
ATOM     52  O   UNL d   1       1.775  15.838 -13.032 -0.30 +0.12    -0.251    18.795
ATOM     53  O   UNL d   1       2.190  15.122 -15.102 -0.08 +0.45    -0.481    18.795
ATOM     54  H   UNL d   1       1.218  15.030 -15.008 -0.48 -0.66    +0.295    18.795
TER
ENDMDL
MODEL       37
USER    Run = 37
USER    Cluster Rank = 25
USER    Number of conformations in this cluster = 1
USER  
USER    RMSD from reference structure       = 19.158 A
USER  
USER    Estimated Free Energy of Binding    =   -4.60 kcal/mol  [=(1)+(2)+(3)-(4)]
USER    Estimated Inhibition Constant, Ki   =  426.14 uM (micromolar)  [Temperature = 298.15 K]
USER    
USER    (1) Final Intermolecular Energy     =   -8.48 kcal/mol
USER        vdW + Hbond + desolv Energy     =   -8.19 kcal/mol
USER        Electrostatic Energy            =   -0.29 kcal/mol
USER    (2) Final Total Internal Energy     =   -2.68 kcal/mol
USER    (3) Torsional Free Energy           =   +3.88 kcal/mol
USER    (4) Unbound System's Energy  [=(2)] =   -2.68 kcal/mol
USER    
USER    
USER  
USER    DPF = D:/Protein_go_brrr/autodock/final/mut_K82N/heme/dock.dpf
USER    NEWDPF move	heme_opt.pdbqt
USER    NEWDPF about	0.153000 0.018000 -0.028000
USER    NEWDPF tran0	4.574366 -4.419377 -19.033711
USER    NEWDPF axisangle0	-0.142855 0.641883 -0.753378 64.276716
USER    NEWDPF quaternion0	-0.075994 0.341459 -0.400771 0.846766
USER    NEWDPF dihe0	172.39 30.11 -103.55 -179.79 -151.55 -23.90 128.42 -74.47 9.23 -48.98 180.00 21.78 179.86 
USER  
USER                              x       y       z    vdW   Elec        q     RMS 
ATOM      1  O   UNL d   1       0.505  -7.070 -22.376 -0.11 +0.32    -0.289    19.158
ATOM      2  O   UNL d   1       7.748  -8.683 -21.222 -0.02 +0.08    -0.289    19.158
ATOM      3  N   UNL d   1       2.562  -5.123 -20.407 -0.09 +0.19    -0.247    19.158
ATOM      4  N   UNL d   1       5.088  -6.684 -20.306 -0.21 +0.16    -0.247    19.158
ATOM      5  N   UNL d   1       5.940  -4.990 -18.145 -0.11 +0.16    -0.354    19.158
ATOM      6  N   UNL d   1       3.308  -3.388 -18.244 -0.12 +0.16    -0.354    19.158
ATOM      7  C   UNL d   1       0.166  -5.133 -20.924 -0.21 -0.07    +0.084    19.158
ATOM      8  C   UNL d   1       5.548  -8.189 -22.176 -0.10 -0.05    +0.084    19.158
ATOM      9  C   UNL d   1       4.589  -7.224 -21.470 -0.18 -0.04    +0.058    19.158
ATOM     10  C   UNL d   1       1.344  -4.507 -20.173 -0.25 -0.04    +0.058    19.158
ATOM     11  C   UNL d   1       0.936  -6.201 -21.640 -0.15 -0.19    +0.193    19.158
ATOM     12  C   UNL d   1       2.380  -6.075 -21.264 -0.18 -0.10    +0.109    19.158
ATOM     13  C   UNL d   1       6.669  -8.125 -21.177 -0.08 -0.07    +0.193    19.158
ATOM     14  C   UNL d   1      -0.835  -5.796 -19.974 -0.34 -0.03    +0.026    19.158
ATOM     15  C   UNL d   1       3.352  -6.971 -21.923 -0.12 -0.06    +0.055    19.158
ATOM     16  C   UNL d   1       6.045  -7.622 -23.509 -0.03 -0.01    +0.026    19.158
ATOM     17  C   UNL d   1       6.262  -7.185 -20.089 -0.16 -0.04    +0.109    19.158
ATOM     18  C   UNL d   1       1.192  -3.396 -19.427 -0.29 -0.03    +0.050    19.158
ATOM     19  C   UNL d   1       2.236  -2.700 -18.766 -0.28 -0.02    +0.045    19.158
ATOM     20  C   UNL d   1       6.919  -5.947 -18.093 -0.17 -0.01    +0.045    19.158
ATOM     21  C   UNL d   1       7.151  -6.955 -18.940 -0.14 -0.02    +0.057    19.158
ATOM     22  C   UNL d   1       7.155  -4.553 -16.300 -0.17 +0.01    -0.019    19.158
ATOM     23  C   UNL d   1       6.001  -4.103 -17.104 -0.24 -0.02    +0.045    19.158
ATOM     24  C   UNL d   1       7.695  -5.644 -16.892 -0.13 +0.01    -0.022    19.158
ATOM     25  C   UNL d   1       4.150  -2.532 -17.572 -0.11 -0.02    +0.049    19.158
ATOM     26  C   UNL d   1       2.404  -1.359 -18.457 -0.26 +0.01    -0.018    19.158
ATOM     27  C   UNL d   1       3.624  -1.256 -17.720 -0.21 -0.00    +0.003    19.158
ATOM     28  C   UNL d   1       5.245  -3.032 -16.816 -0.31 -0.02    +0.052    19.158
ATOM     29  C   UNL d   1       8.877  -6.447 -16.466 -0.08 -0.01    +0.046    19.158
ATOM     30  C   UNL d   1       1.490  -0.239 -18.824 -0.39 -0.01    +0.046    19.158
ATOM     31  H   UNL d   1       5.305  -4.929 -18.933 -0.15 -0.09    +0.166    19.158
ATOM     32  H   UNL d   1       3.421  -4.392 -18.321 -0.47 -0.13    +0.166    19.158
ATOM     33  C   UNL d   1      -0.537  -4.213 -21.928 -0.08 -0.08    +0.141    19.158
ATOM     34  C   UNL d   1       0.403  -3.665 -22.968 +0.00 -0.13    +0.306    19.158
ATOM     35  O   UNL d   1       0.944  -2.572 -22.946 -0.01 +0.08    -0.251    19.158
ATOM     36  O   UNL d   1       0.614  -4.524 -23.980 +0.01 +0.19    -0.481    19.158
ATOM     37  H   UNL d   1       0.211  -5.366 -23.678 +0.03 -0.14    +0.295    19.158
ATOM     38  C   UNL d   1       4.169  -0.043 -17.190 -0.37 -0.01    +0.017    19.158
ATOM     39  C   UNL d   1       5.378   0.458 -17.487 -0.21 -0.03    +0.092    19.158
ATOM     40  C   UNL d   1       5.811   1.723 -16.888 -0.14 -0.15    +0.330    19.158
ATOM     41  O   UNL d   1       5.112   2.632 -16.484 -0.24 +0.08    -0.246    19.158
ATOM     42  O   UNL d   1       7.151   1.768 -16.822 -0.08 +0.34    -0.477    19.158
ATOM     43  H   UNL d   1       7.329   2.323 -16.035 +0.02 -0.40    +0.295    19.158
ATOM     44  C   UNL d   1       5.040  -9.625 -22.338 -0.10 -0.11    +0.141    19.158
ATOM     45  C   UNL d   1       5.572 -10.566 -21.291 -0.11 -0.18    +0.306    19.158
ATOM     46  O   UNL d   1       5.118 -10.743 -20.174 -0.17 +0.16    -0.251    19.158
ATOM     47  O   UNL d   1       6.674 -11.221 -21.700 -0.00 +0.16    -0.481    19.158
ATOM     48  H   UNL d   1       7.393 -10.555 -21.644 +0.04 -0.08    +0.295    19.158
ATOM     49  C   UNL d   1       7.610  -3.889 -15.033 -0.19 -0.01    +0.048    19.158
ATOM     50  C   UNL d   1       7.050  -4.587 -13.793 -0.19 -0.03    +0.125    19.158
ATOM     51  C   UNL d   1       6.206  -5.769 -14.178 -0.22 -0.07    +0.305    19.158
ATOM     52  O   UNL d   1       5.046  -5.764 -14.552 -0.37 +0.07    -0.251    19.158
ATOM     53  O   UNL d   1       6.880  -6.930 -14.058 -0.04 +0.11    -0.481    19.158
ATOM     54  H   UNL d   1       7.768  -6.658 -13.744 +0.08 -0.06    +0.295    19.158
TER
ENDMDL
MODEL        2
USER    Run = 2
USER    Cluster Rank = 26
USER    Number of conformations in this cluster = 3
USER  
USER    RMSD from reference structure       = 18.361 A
USER  
USER    Estimated Free Energy of Binding    =   -4.59 kcal/mol  [=(1)+(2)+(3)-(4)]
USER    Estimated Inhibition Constant, Ki   =  430.08 uM (micromolar)  [Temperature = 298.15 K]
USER    
USER    (1) Final Intermolecular Energy     =   -8.47 kcal/mol
USER        vdW + Hbond + desolv Energy     =   -8.33 kcal/mol
USER        Electrostatic Energy            =   -0.14 kcal/mol
USER    (2) Final Total Internal Energy     =   -3.71 kcal/mol
USER    (3) Torsional Free Energy           =   +3.88 kcal/mol
USER    (4) Unbound System's Energy  [=(2)] =   -3.71 kcal/mol
USER    
USER    
USER  
USER    DPF = D:/Protein_go_brrr/autodock/final/mut_K82N/heme/dock.dpf
USER    NEWDPF move	heme_opt.pdbqt
USER    NEWDPF about	0.153000 0.018000 -0.028000
USER    NEWDPF tran0	11.783423 3.538174 16.422775
USER    NEWDPF axisangle0	0.618002 -0.710732 -0.336057 -84.479904
USER    NEWDPF quaternion0	0.415444 -0.477780 -0.225910 -0.740336
USER    NEWDPF dihe0	-90.42 -179.78 114.85 -127.05 33.46 -31.83 -56.11 -31.30 124.10 -135.35 60.50 -49.10 128.02 
USER  
USER                              x       y       z    vdW   Elec        q     RMS 
ATOM      1  O   UNL d   1       8.621   8.317  15.039 -0.24 +0.01    -0.289    18.361
ATOM      2  O   UNL d   1      12.327   3.434  10.702 -0.09 +0.01    -0.289    18.361
ATOM      3  N   UNL d   1      10.473   5.708  16.325 -0.12 +0.01    -0.247    18.361
ATOM      4  N   UNL d   1      11.287   4.189  13.904 -0.13 +0.03    -0.247    18.361
ATOM      5  N   UNL d   1      12.065   2.029  15.635 -0.08 +0.05    -0.354    18.361
ATOM      6  N   UNL d   1      11.201   3.604  18.139 -0.08 -0.03    -0.354    18.361
ATOM      7  C   UNL d   1       8.977   7.400  17.276 -0.16 -0.01    +0.084    18.361
ATOM      8  C   UNL d   1      11.436   5.429  11.804 -0.17 -0.00    +0.084    18.361
ATOM      9  C   UNL d   1      11.062   5.401  13.290 -0.21 -0.00    +0.058    18.361
ATOM     10  C   UNL d   1       9.891   6.189  17.486 -0.15 +0.00    +0.058    18.361
ATOM     11  C   UNL d   1       9.159   7.529  15.794 -0.21 -0.02    +0.193    18.361
ATOM     12  C   UNL d   1      10.109   6.463  15.341 -0.22 -0.01    +0.109    18.361
ATOM     13  C   UNL d   1      11.880   3.999  11.681 -0.06 -0.01    +0.193    18.361
ATOM     14  C   UNL d   1       7.510   7.069  17.567 -0.26 -0.01    +0.026    18.361
ATOM     15  C   UNL d   1      10.514   6.451  13.921 -0.27 -0.00    +0.055    18.361
ATOM     16  C   UNL d   1      12.637   6.342  11.539 -0.07 -0.00    +0.026    18.361
ATOM     17  C   UNL d   1      11.734   3.355  13.021 -0.14 -0.01    +0.109    18.361
ATOM     18  C   UNL d   1      10.158   5.714  18.717 -0.17 +0.01    +0.050    18.361
ATOM     19  C   UNL d   1      11.054   4.656  19.014 -0.19 +0.01    +0.045    18.361
ATOM     20  C   UNL d   1      12.166   1.404  14.418 -0.24 -0.01    +0.045    18.361
ATOM     21  C   UNL d   1      12.056   1.931  13.195 -0.25 -0.01    +0.057    18.361
ATOM     22  C   UNL d   1      12.473  -0.143  16.070 -0.32 +0.00    -0.019    18.361
ATOM     23  C   UNL d   1      12.236   1.175  16.692 -0.26 -0.01    +0.045    18.361
ATOM     24  C   UNL d   1      12.432  -0.001  14.724 -0.26 +0.01    -0.022    18.361
ATOM     25  C   UNL d   1      12.045   2.653  18.664 -0.22 +0.00    +0.049    18.361
ATOM     26  C   UNL d   1      11.852   4.401  20.119 -0.17 -0.01    -0.018    18.361
ATOM     27  C   UNL d   1      12.490   3.144  19.884 -0.15 +0.00    +0.003    18.361
ATOM     28  C   UNL d   1      12.228   1.402  18.014 -0.29 -0.00    +0.052    18.361
ATOM     29  C   UNL d   1      12.624  -1.037  13.670 -0.44 -0.01    +0.046    18.361
ATOM     30  C   UNL d   1      12.015   5.270  21.319 -0.10 +0.02    +0.046    18.361
ATOM     31  H   UNL d   1      11.957   3.035  15.702 +0.06 -0.02    +0.166    18.361
ATOM     32  H   UNL d   1      10.712   3.538  17.254 +0.06 +0.01    +0.166    18.361
ATOM     33  C   UNL d   1       9.415   8.685  17.986 -0.05 -0.01    +0.141    18.361
ATOM     34  C   UNL d   1       8.591   9.879  17.584 -0.04 -0.03    +0.306    18.361
ATOM     35  O   UNL d   1       7.545  10.238  18.097 -0.04 +0.03    -0.251    18.361
ATOM     36  O   UNL d   1       9.131  10.558  16.557 -0.04 +0.03    -0.481    18.361
ATOM     37  H   UNL d   1       8.783  10.112  15.755 +0.05 -0.02    +0.295    18.361
ATOM     38  C   UNL d   1      13.393   2.495  20.786 -0.14 +0.01    +0.017    18.361
ATOM     39  C   UNL d   1      13.808   1.223  20.685 -0.13 +0.02    +0.092    18.361
ATOM     40  C   UNL d   1      14.751   0.683  21.668 -0.04 +0.07    +0.330    18.361
ATOM     41  O   UNL d   1      15.649   1.272  22.238 -0.02 -0.05    -0.246    18.361
ATOM     42  O   UNL d   1      14.491  -0.615  21.892 -0.00 -0.08    -0.477    18.361
ATOM     43  H   UNL d   1      13.729  -0.805  21.308 +0.06 +0.05    +0.295    18.361
ATOM     44  C   UNL d   1      10.285   5.732  10.839 -0.30 -0.01    +0.141    18.361
ATOM     45  C   UNL d   1      10.730   5.866   9.407 -0.17 +0.00    +0.306    18.361
ATOM     46  O   UNL d   1      10.919   6.905   8.799 -0.16 -0.02    -0.251    18.361
ATOM     47  O   UNL d   1      10.889   4.674   8.804 -0.11 -0.02    -0.481    18.361
ATOM     48  H   UNL d   1      11.642   4.256   9.274 +0.12 -0.00    +0.295    18.361
ATOM     49  C   UNL d   1      12.700  -1.410  16.842 -0.39 -0.00    +0.048    18.361
ATOM     50  C   UNL d   1      11.715  -1.554  18.002 -0.41 -0.01    +0.125    18.361
ATOM     51  C   UNL d   1      12.439  -1.599  19.318 -0.22 +0.01    +0.305    18.361
ATOM     52  O   UNL d   1      13.504  -2.138  19.562 -0.11 -0.02    -0.251    18.361
ATOM     53  O   UNL d   1      11.760  -0.955  20.288 -0.14 -0.04    -0.481    18.361
ATOM     54  H   UNL d   1      10.865  -1.352  20.256 -0.45 -0.05    +0.295    18.361
TER
ENDMDL
MODEL       60
USER    Run = 60
USER    Cluster Rank = 27
USER    Number of conformations in this cluster = 2
USER  
USER    RMSD from reference structure       = 9.803 A
USER  
USER    Estimated Free Energy of Binding    =   -4.56 kcal/mol  [=(1)+(2)+(3)-(4)]
USER    Estimated Inhibition Constant, Ki   =  458.23 uM (micromolar)  [Temperature = 298.15 K]
USER    
USER    (1) Final Intermolecular Energy     =   -8.43 kcal/mol
USER        vdW + Hbond + desolv Energy     =   -8.27 kcal/mol
USER        Electrostatic Energy            =   -0.16 kcal/mol
USER    (2) Final Total Internal Energy     =   -4.35 kcal/mol
USER    (3) Torsional Free Energy           =   +3.88 kcal/mol
USER    (4) Unbound System's Energy  [=(2)] =   -4.35 kcal/mol
USER    
USER    
USER  
USER    DPF = D:/Protein_go_brrr/autodock/final/mut_K82N/heme/dock.dpf
USER    NEWDPF move	heme_opt.pdbqt
USER    NEWDPF about	0.153000 0.018000 -0.028000
USER    NEWDPF tran0	-10.841234 -1.661725 6.814617
USER    NEWDPF axisangle0	-0.471302 0.392913 0.789616 92.990176
USER    NEWDPF quaternion0	-0.341842 0.284986 0.572721 0.688417
USER    NEWDPF dihe0	-116.88 -136.03 134.80 41.04 33.86 -75.35 -44.03 -80.08 127.72 -149.51 -100.25 21.72 -3.01 
USER  
USER                              x       y       z    vdW   Elec        q     RMS 
ATOM      1  O   UNL d   1     -11.365   3.949   8.548 -0.19 +0.16    -0.289     9.803
ATOM      2  O   UNL d   1     -12.963   0.644   1.996 -0.06 +0.03    -0.289     9.803
ATOM      3  N   UNL d   1     -10.756   0.608   7.943 -0.09 +0.03    -0.247     9.803
ATOM      4  N   UNL d   1     -11.969   0.167   5.266 -0.06 +0.03    -0.247     9.803
ATOM      5  N   UNL d   1     -11.739  -2.661   5.731 -0.04 +0.13    -0.354     9.803
ATOM      6  N   UNL d   1     -10.500  -2.194   8.515 -0.03 +0.04    -0.354     9.803
ATOM      7  C   UNL d   1     -10.600   2.067   9.906 -0.17 -0.01    +0.084     9.803
ATOM      8  C   UNL d   1     -12.135   2.100   3.781 -0.20 +0.00    +0.084     9.803
ATOM      9  C   UNL d   1     -11.786   1.527   5.159 -0.18 -0.00    +0.058     9.803
ATOM     10  C   UNL d   1     -10.443   0.673   9.290 -0.12 -0.01    +0.058     9.803
ATOM     11  C   UNL d   1     -11.039   2.782   8.664 -0.19 -0.05    +0.193     9.803
ATOM     12  C   UNL d   1     -11.070   1.796   7.538 -0.17 -0.01    +0.109     9.803
ATOM     13  C   UNL d   1     -12.585   0.819   3.138 -0.07 -0.02    +0.193     9.803
ATOM     14  C   UNL d   1     -11.734   2.116  10.934 -0.07 -0.00    +0.026     9.803
ATOM     15  C   UNL d   1     -11.387   2.295   6.185 -0.28 -0.00    +0.055     9.803
ATOM     16  C   UNL d   1     -10.891   2.610   3.047 -0.41 -0.00    +0.026     9.803
ATOM     17  C   UNL d   1     -12.442  -0.275   4.145 -0.09 -0.02    +0.109     9.803
ATOM     18  C   UNL d   1      -9.954  -0.359  10.002 -0.16 -0.01    +0.050     9.803
ATOM     19  C   UNL d   1      -9.696  -1.658   9.495 -0.15 -0.01    +0.045     9.803
ATOM     20  C   UNL d   1     -12.507  -2.671   4.596 -0.12 -0.02    +0.045     9.803
ATOM     21  C   UNL d   1     -12.851  -1.647   3.808 -0.12 -0.02    +0.057     9.803
ATOM     22  C   UNL d   1     -12.352  -4.803   5.400 -0.11 +0.01    -0.019     9.803
ATOM     23  C   UNL d   1     -11.589  -3.903   6.288 -0.12 -0.02    +0.045     9.803
ATOM     24  C   UNL d   1     -12.892  -4.068   4.399 -0.09 +0.02    -0.022     9.803
ATOM     25  C   UNL d   1     -10.128  -3.489   8.238 -0.13 -0.01    +0.049     9.803
ATOM     26  C   UNL d   1      -8.754  -2.616   9.838 -0.25 +0.00    -0.018     9.803
ATOM     27  C   UNL d   1      -9.019  -3.763   9.028 -0.22 -0.00    +0.003     9.803
ATOM     28  C   UNL d   1     -10.908  -4.303   7.373 -0.13 -0.01    +0.052     9.803
ATOM     29  C   UNL d   1     -13.731  -4.524   3.255 -0.08 -0.04    +0.046     9.803
ATOM     30  C   UNL d   1      -7.672  -2.477  10.854 -0.42 -0.01    +0.046     9.803
ATOM     31  H   UNL d   1     -11.280  -1.814   6.048 +0.06 -0.04    +0.166     9.803
ATOM     32  H   UNL d   1     -11.280  -1.700   8.098 +0.04 -0.02    +0.166     9.803
ATOM     33  C   UNL d   1      -9.313   2.689  10.459 -0.19 -0.01    +0.141     9.803
ATOM     34  C   UNL d   1      -9.514   4.098  10.948 -0.28 -0.08    +0.306     9.803
ATOM     35  O   UNL d   1      -9.862   4.428  12.069 -0.22 +0.07    -0.251     9.803
ATOM     36  O   UNL d   1      -9.265   5.017   9.999 -0.74 +0.26    -0.481     9.803
ATOM     37  H   UNL d   1      -9.906   4.815   9.285 -0.08 -0.34    +0.295     9.803
ATOM     38  C   UNL d   1      -8.287  -4.992   9.072 -0.29 -0.00    +0.017     9.803
ATOM     39  C   UNL d   1      -7.643  -5.549   8.034 -0.32 -0.01    +0.092     9.803
ATOM     40  C   UNL d   1      -6.913  -6.806   8.217 -0.29 -0.06    +0.330     9.803
ATOM     41  O   UNL d   1      -5.824  -6.965   8.734 -0.35 +0.04    -0.246     9.803
ATOM     42  O   UNL d   1      -7.628  -7.831   7.728 -0.15 +0.11    -0.477     9.803
ATOM     43  H   UNL d   1      -7.965  -7.495   6.872 -0.02 -0.11    +0.295     9.803
ATOM     44  C   UNL d   1     -13.256   3.145   3.765 -0.12 +0.03    +0.141     9.803
ATOM     45  C   UNL d   1     -13.257   3.996   2.523 -0.11 +0.07    +0.306     9.803
ATOM     46  O   UNL d   1     -12.640   5.033   2.352 -0.21 -0.08    -0.251     9.803
ATOM     47  O   UNL d   1     -14.063   3.506   1.564 -0.00 -0.06    -0.481     9.803
ATOM     48  H   UNL d   1     -13.854   2.548   1.531 +0.07 +0.02    +0.295     9.803
ATOM     49  C   UNL d   1     -12.493  -6.281   5.618 -0.11 -0.03    +0.048     9.803
ATOM     50  C   UNL d   1     -11.332  -7.060   4.999 -0.21 -0.10    +0.125     9.803
ATOM     51  C   UNL d   1     -10.127  -7.030   5.896 -0.19 -0.15    +0.305     9.803
ATOM     52  O   UNL d   1      -9.257  -6.178   5.942 -0.17 +0.11    -0.251     9.803
ATOM     53  O   UNL d   1     -10.070  -8.109   6.702 +0.01 +0.13    -0.481     9.803
ATOM     54  H   UNL d   1      -9.775  -7.747   7.563 +0.11 -0.07    +0.295     9.803
TER
ENDMDL
MODEL       20
USER    Run = 20
USER    Cluster Rank = 28
USER    Number of conformations in this cluster = 2
USER  
USER    RMSD from reference structure       = 17.553 A
USER  
USER    Estimated Free Energy of Binding    =   -4.48 kcal/mol  [=(1)+(2)+(3)-(4)]
USER    Estimated Inhibition Constant, Ki   =  518.60 uM (micromolar)  [Temperature = 298.15 K]
USER    
USER    (1) Final Intermolecular Energy     =   -8.36 kcal/mol
USER        vdW + Hbond + desolv Energy     =   -8.05 kcal/mol
USER        Electrostatic Energy            =   -0.31 kcal/mol
USER    (2) Final Total Internal Energy     =   -3.35 kcal/mol
USER    (3) Torsional Free Energy           =   +3.88 kcal/mol
USER    (4) Unbound System's Energy  [=(2)] =   -3.35 kcal/mol
USER    
USER    
USER  
USER    DPF = D:/Protein_go_brrr/autodock/final/mut_K82N/heme/dock.dpf
USER    NEWDPF move	heme_opt.pdbqt
USER    NEWDPF about	0.153000 0.018000 -0.028000
USER    NEWDPF tran0	8.258383 14.010790 -12.894953
USER    NEWDPF axisangle0	-0.218115 -0.443341 0.869411 -173.249236
USER    NEWDPF quaternion0	-0.217736 -0.442572 0.867903 -0.058877
USER    NEWDPF dihe0	161.65 -67.59 -58.74 -29.50 -144.35 -25.41 128.15 42.36 19.07 110.13 -30.80 -72.33 18.40 
USER  
USER                              x       y       z    vdW   Elec        q     RMS 
ATOM      1  O   UNL d   1      13.173  10.859 -12.075 -0.10 +0.00    -0.289    17.553
ATOM      2  O   UNL d   1      10.885  17.314  -8.993 -0.08 +0.01    -0.289    17.553
ATOM      3  N   UNL d   1      10.234  12.423 -12.978 -0.04 -0.04    -0.247    17.553
ATOM      4  N   UNL d   1      10.040  14.677 -11.053 -0.19 -0.01    -0.247    17.553
ATOM      5  N   UNL d   1       7.303  15.014 -11.866 -0.13 +0.01    -0.354    17.553
ATOM      6  N   UNL d   1       7.507  12.662 -13.847 -0.15 -0.11    -0.354    17.553
ATOM      7  C   UNL d   1      11.293  10.281 -13.527 -0.14 +0.01    +0.084    17.553
ATOM      8  C   UNL d   1      12.129  15.526 -10.111 -0.11 -0.00    +0.084    17.553
ATOM      9  C   UNL d   1      11.401  14.488 -10.972 -0.20 +0.00    +0.058    17.553
ATOM     10  C   UNL d   1      10.114  11.244 -13.695 -0.14 +0.01    +0.058    17.553
ATOM     11  C   UNL d   1      12.110  11.133 -12.602 -0.13 +0.01    +0.193    17.553
ATOM     12  C   UNL d   1      11.373  12.415 -12.366 -0.16 +0.01    +0.109    17.553
ATOM     13  C   UNL d   1      10.923  16.316  -9.687 -0.11 -0.00    +0.193    17.553
ATOM     14  C   UNL d   1      10.889   9.000 -12.793 -0.26 +0.00    +0.026    17.553
ATOM     15  C   UNL d   1      12.033  13.457 -11.553 -0.19 +0.00    +0.055    17.553
ATOM     16  C   UNL d   1      13.037  16.427 -10.953 -0.04 -0.00    +0.026    17.553
ATOM     17  C   UNL d   1       9.721  15.695 -10.319 -0.22 +0.00    +0.109    17.553
ATOM     18  C   UNL d   1       9.105  10.977 -14.546 -0.20 +0.02    +0.050    17.553
ATOM     19  C   UNL d   1       8.018  11.843 -14.829 -0.14 +0.02    +0.045    17.553
ATOM     20  C   UNL d   1       7.332  15.856 -10.784 -0.25 -0.00    +0.045    17.553
ATOM     21  C   UNL d   1       8.381  16.235 -10.046 -0.24 -0.00    +0.057    17.553
ATOM     22  C   UNL d   1       5.179  15.685 -11.528 -0.37 +0.00    -0.019    17.553
ATOM     23  C   UNL d   1       6.046  14.849 -12.383 -0.32 -0.00    +0.045    17.553
ATOM     24  C   UNL d   1       5.947  16.279 -10.584 -0.31 +0.00    -0.022    17.553
ATOM     25  C   UNL d   1       6.407  13.345 -14.311 -0.26 +0.01    +0.049    17.553
ATOM     26  C   UNL d   1       7.253  12.026 -15.971 -0.11 -0.01    -0.018    17.553
ATOM     27  C   UNL d   1       6.249  12.990 -15.643 -0.17 +0.00    +0.003    17.553
ATOM     28  C   UNL d   1       5.615  14.133 -13.433 -0.33 +0.00    +0.052    17.553
ATOM     29  C   UNL d   1       5.536  17.220  -9.503 -0.21 -0.02    +0.046    17.553
ATOM     30  C   UNL d   1       7.442  11.350 -17.286 -0.10 +0.02    +0.046    17.553
ATOM     31  H   UNL d   1       8.157  14.637 -12.263 +0.06 +0.01    +0.166    17.553
ATOM     32  H   UNL d   1       7.880  12.708 -12.906 +0.07 +0.05    +0.166    17.553
ATOM     33  C   UNL d   1      12.077   9.972 -14.807 -0.04 +0.01    +0.141    17.553
ATOM     34  C   UNL d   1      12.811  11.172 -15.340 -0.00 +0.00    +0.306    17.553
ATOM     35  O   UNL d   1      12.378  11.987 -16.137 -0.00 -0.00    -0.251    17.553
ATOM     36  O   UNL d   1      14.054  11.284 -14.838 +0.00 +0.01    -0.481    17.553
ATOM     37  H   UNL d   1      14.035  10.756 -14.012 +0.03 -0.01    +0.295    17.553
ATOM     38  C   UNL d   1       5.233  13.459 -16.537 -0.14 +0.00    +0.017    17.553
ATOM     39  C   UNL d   1       3.977  13.772 -16.185 -0.11 -0.01    +0.092    17.553
ATOM     40  C   UNL d   1       3.035  14.259 -17.196 -0.07 -0.14    +0.330    17.553
ATOM     41  O   UNL d   1       3.292  14.857 -18.224 -0.03 +0.08    -0.246    17.553
ATOM     42  O   UNL d   1       1.778  13.946 -16.845 -0.04 +0.49    -0.477    17.553
ATOM     43  H   UNL d   1       1.366  14.813 -16.652 -0.47 -0.57    +0.295    17.553
ATOM     44  C   UNL d   1      12.875  14.968  -8.894 -0.15 -0.00    +0.141    17.553
ATOM     45  C   UNL d   1      13.954  13.984  -9.259 -0.08 -0.01    +0.306    17.553
ATOM     46  O   UNL d   1      15.096  14.249  -9.594 -0.02 +0.01    -0.251    17.553
ATOM     47  O   UNL d   1      13.527  12.709  -9.208 -0.07 +0.01    -0.481    17.553
ATOM     48  H   UNL d   1      13.659  12.367 -10.117 +0.07 -0.00    +0.295    17.553
ATOM     49  C   UNL d   1       3.694  15.812 -11.701 -0.38 -0.01    +0.048    17.553
ATOM     50  C   UNL d   1       3.332  16.483 -13.026 -0.20 -0.03    +0.125    17.553
ATOM     51  C   UNL d   1       2.007  15.989 -13.533 -0.19 -0.17    +0.305    17.553
ATOM     52  O   UNL d   1       1.022  15.697 -12.877 -0.32 +0.14    -0.251    17.553
ATOM     53  O   UNL d   1       1.992  15.872 -14.876 -0.09 +0.46    -0.481    17.553
ATOM     54  H   UNL d   1       1.363  15.141 -15.045 -0.48 -0.58    +0.295    17.553
TER
ENDMDL
MODEL       61
USER    Run = 61
USER    Cluster Rank = 29
USER    Number of conformations in this cluster = 1
USER  
USER    RMSD from reference structure       = 10.905 A
USER  
USER    Estimated Free Energy of Binding    =   -4.47 kcal/mol  [=(1)+(2)+(3)-(4)]
USER    Estimated Inhibition Constant, Ki   =  529.25 uM (micromolar)  [Temperature = 298.15 K]
USER    
USER    (1) Final Intermolecular Energy     =   -8.35 kcal/mol
USER        vdW + Hbond + desolv Energy     =   -8.21 kcal/mol
USER        Electrostatic Energy            =   -0.14 kcal/mol
USER    (2) Final Total Internal Energy     =   -2.47 kcal/mol
USER    (3) Torsional Free Energy           =   +3.88 kcal/mol
USER    (4) Unbound System's Energy  [=(2)] =   -2.47 kcal/mol
USER    
USER    
USER  
USER    DPF = D:/Protein_go_brrr/autodock/final/mut_K82N/heme/dock.dpf
USER    NEWDPF move	heme_opt.pdbqt
USER    NEWDPF about	0.153000 0.018000 -0.028000
USER    NEWDPF tran0	-10.050600 -3.385177 8.675271
USER    NEWDPF axisangle0	-0.668591 0.698965 -0.253838 -134.860230
USER    NEWDPF quaternion0	-0.617385 0.645433 -0.234397 -0.383810
USER    NEWDPF dihe0	100.77 -52.87 78.99 -0.44 -136.28 96.51 -45.48 -108.60 47.90 -121.45 -79.84 -95.82 180.00 
USER  
USER                              x       y       z    vdW   Elec        q     RMS 
ATOM      1  O   UNL d   1     -10.904   2.423   8.134 -0.18 +0.06    -0.289    10.905
ATOM      2  O   UNL d   1      -8.451  -1.679  13.926 -0.09 +0.11    -0.289    10.905
ATOM      3  N   UNL d   1     -10.692  -1.018   8.029 -0.08 +0.03    -0.247    10.905
ATOM      4  N   UNL d   1      -9.362  -1.699  10.597 -0.07 +0.04    -0.247    10.905
ATOM      5  N   UNL d   1      -8.922  -4.345   9.561 -0.06 +0.05    -0.354    10.905
ATOM      6  N   UNL d   1     -10.286  -3.624   6.893 -0.02 +0.07    -0.354    10.905
ATOM      7  C   UNL d   1     -11.225   0.732   6.398 -0.16 -0.01    +0.084    10.905
ATOM      8  C   UNL d   1      -9.632  -0.126  12.448 -0.12 -0.02    +0.084    10.905
ATOM      9  C   UNL d   1      -9.860  -0.471  10.972 -0.12 -0.01    +0.058    10.905
ATOM     10  C   UNL d   1     -11.035  -0.754   6.714 -0.15 -0.01    +0.058    10.905
ATOM     11  C   UNL d   1     -10.946   1.261   7.773 -0.10 -0.02    +0.193    10.905
ATOM     12  C   UNL d   1     -10.662   0.101   8.676 -0.11 -0.01    +0.109    10.905
ATOM     13  C   UNL d   1      -8.880  -1.369  12.832 -0.16 -0.05    +0.193    10.905
ATOM     14  C   UNL d   1     -10.154   1.257   5.439 -0.19 -0.00    +0.026    10.905
ATOM     15  C   UNL d   1     -10.448   0.374  10.112 -0.14 -0.01    +0.055    10.905
ATOM     16  C   UNL d   1     -10.948  -0.086  13.231 -0.05 -0.00    +0.026    10.905
ATOM     17  C   UNL d   1      -8.777  -2.237  11.619 -0.18 -0.02    +0.109    10.905
ATOM     18  C   UNL d   1     -11.278  -1.705   5.792 -0.20 -0.01    +0.050    10.905
ATOM     19  C   UNL d   1     -11.212  -3.104   6.016 -0.17 -0.02    +0.045    10.905
ATOM     20  C   UNL d   1      -8.153  -4.405  10.695 -0.23 -0.01    +0.045    10.905
ATOM     21  C   UNL d   1      -8.048  -3.512  11.684 -0.30 -0.01    +0.057    10.905
ATOM     22  C   UNL d   1      -7.813  -6.303   9.470 -0.23 +0.00    -0.019    10.905
ATOM     23  C   UNL d   1      -8.783  -5.446   8.759 -0.20 -0.01    +0.045    10.905
ATOM     24  C   UNL d   1      -7.445  -5.682  10.616 -0.24 +0.00    -0.022    10.905
ATOM     25  C   UNL d   1     -10.335  -4.999   6.889 -0.17 -0.01    +0.049    10.905
ATOM     26  C   UNL d   1     -11.906  -4.166   5.457 -0.15 +0.01    -0.018    10.905
ATOM     27  C   UNL d   1     -11.361  -5.359   6.026 -0.18 -0.00    +0.003    10.905
ATOM     28  C   UNL d   1      -9.369  -5.765   7.595 -0.24 -0.01    +0.052    10.905
ATOM     29  C   UNL d   1      -6.501  -6.151  11.670 -0.40 -0.01    +0.046    10.905
ATOM     30  C   UNL d   1     -13.008  -4.080   4.456 -0.10 -0.04    +0.046    10.905
ATOM     31  H   UNL d   1      -9.575  -3.584   9.408 +0.05 -0.02    +0.166    10.905
ATOM     32  H   UNL d   1      -9.638  -3.056   7.426 +0.07 -0.01    +0.166    10.905
ATOM     33  C   UNL d   1     -12.632   1.133   5.943 -0.08 -0.01    +0.141    10.905
ATOM     34  C   UNL d   1     -13.482   1.646   7.074 -0.02 +0.00    +0.306    10.905
ATOM     35  O   UNL d   1     -14.101   0.967   7.875 -0.01 +0.01    -0.251    10.905
ATOM     36  O   UNL d   1     -13.506   2.989   7.136 -0.04 -0.09    -0.481    10.905
ATOM     37  H   UNL d   1     -12.680   3.229   7.608 +0.07 +0.02    +0.295    10.905
ATOM     38  C   UNL d   1     -11.782  -6.690   5.709 -0.18 -0.01    +0.017    10.905
ATOM     39  C   UNL d   1     -10.993  -7.653   5.210 -0.26 -0.05    +0.092    10.905
ATOM     40  C   UNL d   1     -11.544  -8.985   4.945 -0.04 -0.12    +0.330    10.905
ATOM     41  O   UNL d   1     -11.988  -9.411   3.896 -0.15 +0.09    -0.246    10.905
ATOM     42  O   UNL d   1     -11.495  -9.734   6.057 -0.02 +0.10    -0.477    10.905
ATOM     43  H   UNL d   1     -12.414 -10.056   6.165 +0.06 -0.06    +0.295    10.905
ATOM     44  C   UNL d   1      -8.792   1.127  12.711 -0.18 -0.05    +0.141    10.905
ATOM     45  C   UNL d   1      -8.421   1.301  14.160 -0.19 -0.10    +0.306    10.905
ATOM     46  O   UNL d   1      -9.063   1.897  15.008 -0.09 +0.05    -0.251    10.905
ATOM     47  O   UNL d   1      -7.239   0.734  14.460 -0.23 +0.22    -0.481    10.905
ATOM     48  H   UNL d   1      -7.473  -0.107  14.907 -0.19 -0.16    +0.295    10.905
ATOM     49  C   UNL d   1      -7.329  -7.629   8.962 -0.31 -0.01    +0.048    10.905
ATOM     50  C   UNL d   1      -5.994  -7.505   8.229 -0.38 -0.02    +0.125    10.905
ATOM     51  C   UNL d   1      -4.856  -7.935   9.111 -0.36 -0.04    +0.305    10.905
ATOM     52  O   UNL d   1      -3.947  -7.247   9.541 -0.52 +0.02    -0.251    10.905
ATOM     53  O   UNL d   1      -4.915  -9.249   9.405 -0.17 +0.09    -0.481    10.905
ATOM     54  H   UNL d   1      -4.125  -9.404   9.963 -0.27 -0.10    +0.295    10.905
TER
ENDMDL
MODEL       95
USER    Run = 95
USER    Cluster Rank = 30
USER    Number of conformations in this cluster = 1
USER  
USER    RMSD from reference structure       = 15.956 A
USER  
USER    Estimated Free Energy of Binding    =   -4.41 kcal/mol  [=(1)+(2)+(3)-(4)]
USER    Estimated Inhibition Constant, Ki   =  585.66 uM (micromolar)  [Temperature = 298.15 K]
USER    
USER    (1) Final Intermolecular Energy     =   -8.29 kcal/mol
USER        vdW + Hbond + desolv Energy     =   -8.32 kcal/mol
USER        Electrostatic Energy            =   +0.03 kcal/mol
USER    (2) Final Total Internal Energy     =   -2.44 kcal/mol
USER    (3) Torsional Free Energy           =   +3.88 kcal/mol
USER    (4) Unbound System's Energy  [=(2)] =   -2.44 kcal/mol
USER    
USER    
USER  
USER    DPF = D:/Protein_go_brrr/autodock/final/mut_K82N/heme/dock.dpf
USER    NEWDPF move	heme_opt.pdbqt
USER    NEWDPF about	0.153000 0.018000 -0.028000
USER    NEWDPF tran0	-8.529782 -1.061319 15.720052
USER    NEWDPF axisangle0	-0.107851 -0.993928 0.021819 107.012456
USER    NEWDPF quaternion0	-0.086704 -0.799040 0.017541 0.594735
USER    NEWDPF dihe0	-116.24 -175.51 -173.38 -100.59 39.49 -4.33 140.62 120.25 138.75 -9.70 70.71 180.00 157.71 
USER  
USER                              x       y       z    vdW   Elec        q     RMS 
ATOM      1  O   UNL d   1      -6.089  -0.144  21.008 -0.04 +0.00    -0.289    15.956
ATOM      2  O   UNL d   1     -10.061  -5.937  18.351 -0.00 +0.02    -0.289    15.956
ATOM      3  N   UNL d   1      -7.452  -0.179  17.839 -0.13 +0.06    -0.247    15.956
ATOM      4  N   UNL d   1      -8.543  -2.931  17.595 -0.07 +0.06    -0.247    15.956
ATOM      5  N   UNL d   1      -8.814  -2.474  14.769 +0.18 +0.13    -0.354    15.956
ATOM      6  N   UNL d   1      -7.662   0.374  15.029 -0.18 +0.15    -0.354    15.956
ATOM      7  C   UNL d   1      -5.964   1.335  19.066 -0.15 -0.01    +0.084    15.956
ATOM      8  C   UNL d   1      -9.167  -4.074  19.663 -0.02 -0.01    +0.084    15.956
ATOM      9  C   UNL d   1      -8.536  -2.862  18.970 -0.07 -0.01    +0.058    15.956
ATOM     10  C   UNL d   1      -6.718   0.995  17.777 -0.21 -0.01    +0.058    15.956
ATOM     11  C   UNL d   1      -6.415   0.156  19.874 -0.09 -0.01    +0.193    15.956
ATOM     12  C   UNL d   1      -7.333  -0.673  19.029 -0.13 -0.01    +0.109    15.956
ATOM     13  C   UNL d   1      -9.500  -4.861  18.427 -0.02 -0.01    +0.193    15.956
ATOM     14  C   UNL d   1      -4.446   1.257  18.881 -0.20 -0.00    +0.026    15.956
ATOM     15  C   UNL d   1      -7.980  -1.846  19.649 -0.08 -0.00    +0.055    15.956
ATOM     16  C   UNL d   1     -10.471  -3.705  20.377 -0.01 -0.00    +0.026    15.956
ATOM     17  C   UNL d   1      -9.064  -4.062  17.242 -0.08 -0.02    +0.109    15.956
ATOM     18  C   UNL d   1      -6.722   1.831  16.722 -0.26 -0.01    +0.050    15.956
ATOM     19  C   UNL d   1      -7.456   1.642  15.524 -0.31 -0.01    +0.045    15.956
ATOM     20  C   UNL d   1      -9.072  -3.819  14.816 -0.09 -0.01    +0.045    15.956
ATOM     21  C   UNL d   1      -9.225  -4.606  15.885 -0.11 -0.01    +0.057    15.956
ATOM     22  C   UNL d   1      -8.947  -3.167  12.630 -0.17 +0.00    -0.019    15.956
ATOM     23  C   UNL d   1      -8.720  -1.989  13.492 -0.16 -0.01    +0.045    15.956
ATOM     24  C   UNL d   1      -9.156  -4.247  13.420 -0.12 +0.00    -0.022    15.956
ATOM     25  C   UNL d   1      -8.314   0.427  13.819 -0.27 -0.02    +0.049    15.956
ATOM     26  C   UNL d   1      -8.021   2.540  14.632 -0.28 +0.00    -0.018    15.956
ATOM     27  C   UNL d   1      -8.579   1.766  13.567 -0.23 -0.00    +0.003    15.956
ATOM     28  C   UNL d   1      -8.500  -0.746  13.038 -0.31 -0.02    +0.052    15.956
ATOM     29  C   UNL d   1      -9.440  -5.654  13.019 -0.08 -0.00    +0.046    15.956
ATOM     30  C   UNL d   1      -8.046   4.025  14.760 -0.24 -0.01    +0.046    15.956
ATOM     31  H   UNL d   1      -8.783  -1.914  15.615 -0.46 -0.08    +0.166    15.956
ATOM     32  H   UNL d   1      -7.333  -0.467  15.488 -0.44 -0.13    +0.166    15.956
ATOM     33  C   UNL d   1      -6.381   2.644  19.745 -0.05 -0.02    +0.141    15.956
ATOM     34  C   UNL d   1      -5.501   2.995  20.914 -0.01 -0.03    +0.306    15.956
ATOM     35  O   UNL d   1      -4.518   3.717  20.885 -0.01 +0.03    -0.251    15.956
ATOM     36  O   UNL d   1      -5.908   2.421  22.060 +0.00 +0.03    -0.481    15.956
ATOM     37  H   UNL d   1      -5.851   1.457  21.887 +0.02 -0.01    +0.295    15.956
ATOM     38  C   UNL d   1      -9.249   2.303  12.421 -0.30 -0.00    +0.017    15.956
ATOM     39  C   UNL d   1      -8.911   3.436  11.786 -0.29 -0.01    +0.092    15.956
ATOM     40  C   UNL d   1      -9.670   3.867  10.610 -0.28 -0.09    +0.330    15.956
ATOM     41  O   UNL d   1     -10.551   3.262  10.030 -0.22 +0.07    -0.246    15.956
ATOM     42  O   UNL d   1      -9.266   5.087  10.222 -0.75 +0.25    -0.477    15.956
ATOM     43  H   UNL d   1      -8.517   5.288  10.821 -0.31 -0.19    +0.295    15.956
ATOM     44  C   UNL d   1      -8.235  -4.867  20.585 -0.02 -0.00    +0.141    15.956
ATOM     45  C   UNL d   1      -7.028  -5.420  19.876 -0.02 -0.00    +0.306    15.956
ATOM     46  O   UNL d   1      -5.918  -4.919  19.831 -0.07 -0.01    -0.251    15.956
ATOM     47  O   UNL d   1      -7.292  -6.572  19.232 +0.01 +0.01    -0.481    15.956
ATOM     48  H   UNL d   1      -8.260  -6.694  19.330 +0.02 -0.01    +0.295    15.956
ATOM     49  C   UNL d   1      -8.924  -3.130  11.130 -0.19 -0.01    +0.048    15.956
ATOM     50  C   UNL d   1      -7.501  -3.006  10.586 -0.28 -0.03    +0.125    15.956
ATOM     51  C   UNL d   1      -7.264  -1.639  10.011 -0.28 -0.09    +0.305    15.956
ATOM     52  O   UNL d   1      -6.502  -0.782  10.422 -0.49 +0.11    -0.251    15.956
ATOM     53  O   UNL d   1      -8.028  -1.409   8.925 -0.13 +0.05    -0.481    15.956
ATOM     54  H   UNL d   1      -8.908  -1.188   9.295 +0.15 -0.04    +0.295    15.956
TER
ENDMDL
MODEL       93
USER    Run = 93
USER    Cluster Rank = 31
USER    Number of conformations in this cluster = 4
USER  
USER    RMSD from reference structure       = 17.175 A
USER  
USER    Estimated Free Energy of Binding    =   -4.40 kcal/mol  [=(1)+(2)+(3)-(4)]
USER    Estimated Inhibition Constant, Ki   =  597.64 uM (micromolar)  [Temperature = 298.15 K]
USER    
USER    (1) Final Intermolecular Energy     =   -8.28 kcal/mol
USER        vdW + Hbond + desolv Energy     =   -7.96 kcal/mol
USER        Electrostatic Energy            =   -0.32 kcal/mol
USER    (2) Final Total Internal Energy     =   -2.99 kcal/mol
USER    (3) Torsional Free Energy           =   +3.88 kcal/mol
USER    (4) Unbound System's Energy  [=(2)] =   -2.99 kcal/mol
USER    
USER    
USER  
USER    DPF = D:/Protein_go_brrr/autodock/final/mut_K82N/heme/dock.dpf
USER    NEWDPF move	heme_opt.pdbqt
USER    NEWDPF about	0.153000 0.018000 -0.028000
USER    NEWDPF tran0	11.109452 16.513898 -6.014492
USER    NEWDPF axisangle0	0.771623 -0.095456 0.628877 115.999573
USER    NEWDPF quaternion0	0.654372 -0.080951 0.533317 0.529922
USER    NEWDPF dihe0	-112.17 161.11 165.31 54.57 37.01 -13.61 119.77 143.44 137.66 12.90 -67.40 9.12 -19.58 
USER  
USER                              x       y       z    vdW   Elec        q     RMS 
ATOM      1  O   UNL d   1      10.047  19.955 -10.682 -0.00 +0.02    -0.289    17.175
ATOM      2  O   UNL d   1       6.535  19.399  -4.068 -0.37 +0.08    -0.289    17.175
ATOM      3  N   UNL d   1      10.959  17.665  -8.269 -0.07 +0.01    -0.247    17.175
ATOM      4  N   UNL d   1       9.243  18.391  -5.955 -0.09 +0.03    -0.247    17.175
ATOM      5  N   UNL d   1      10.912  16.723  -4.313 -0.11 +0.06    -0.354    17.175
ATOM      6  N   UNL d   1      12.699  15.990  -6.715 -0.05 +0.01    -0.354    17.175
ATOM      7  C   UNL d   1      11.876  18.352 -10.436 -0.02 -0.00    +0.084    17.175
ATOM      8  C   UNL d   1       7.125  19.509  -6.441 -0.24 -0.02    +0.084    17.175
ATOM      9  C   UNL d   1       8.460  18.948  -6.942 -0.14 -0.01    +0.058    17.175
ATOM     10  C   UNL d   1      11.977  17.470  -9.188 -0.07 -0.00    +0.058    17.175
ATOM     11  C   UNL d   1      10.611  19.067 -10.069 -0.02 -0.01    +0.193    17.175
ATOM     12  C   UNL d   1      10.140  18.545  -8.747 -0.07 -0.01    +0.109    17.175
ATOM     13  C   UNL d   1       7.311  19.200  -4.982 -0.23 -0.04    +0.193    17.175
ATOM     14  C   UNL d   1      13.017  19.370 -10.514 -0.01 -0.00    +0.026    17.175
ATOM     15  C   UNL d   1       8.852  19.041  -8.222 -0.11 -0.01    +0.055    17.175
ATOM     16  C   UNL d   1       5.936  18.699  -6.968 -0.28 -0.01    +0.026    17.175
ATOM     17  C   UNL d   1       8.637  18.531  -4.820 -0.18 -0.02    +0.109    17.175
ATOM     18  C   UNL d   1      12.933  16.530  -9.067 -0.08 -0.00    +0.050    17.175
ATOM     19  C   UNL d   1      13.054  15.614  -7.991 -0.12 -0.00    +0.045    17.175
ATOM     20  C   UNL d   1      10.167  17.340  -3.341 -0.23 -0.01    +0.045    17.175
ATOM     21  C   UNL d   1       9.112  18.149  -3.482 -0.28 -0.01    +0.057    17.175
ATOM     22  C   UNL d   1      11.811  16.109  -2.341 -0.21 +0.00    -0.019    17.175
ATOM     23  C   UNL d   1      11.928  15.958  -3.805 -0.22 -0.01    +0.045    17.175
ATOM     24  C   UNL d   1      10.766  16.927  -2.072 -0.21 +0.01    -0.022    17.175
ATOM     25  C   UNL d   1      12.981  14.985  -5.819 -0.15 -0.00    +0.049    17.175
ATOM     26  C   UNL d   1      13.545  14.319  -7.928 -0.17 +0.00    -0.018    17.175
ATOM     27  C   UNL d   1      13.478  13.920  -6.557 -0.22 -0.00    +0.003    17.175
ATOM     28  C   UNL d   1      12.846  15.197  -4.420 -0.21 -0.01    +0.052    17.175
ATOM     29  C   UNL d   1      10.244  17.371  -0.748 -0.23 -0.01    +0.046    17.175
ATOM     30  C   UNL d   1      14.045  13.500  -9.069 -0.15 -0.00    +0.046    17.175
ATOM     31  H   UNL d   1      10.655  16.786  -5.292 +0.05 -0.01    +0.166    17.175
ATOM     32  H   UNL d   1      12.321  16.902  -6.484 +0.03 -0.01    +0.166    17.175
ATOM     33  C   UNL d   1      11.703  17.600 -11.760 -0.02 -0.01    +0.141    17.175
ATOM     34  C   UNL d   1      11.740  18.514 -12.955 -0.00 -0.02    +0.306    17.175
ATOM     35  O   UNL d   1      12.729  18.818 -13.600 +0.00 +0.01    -0.251    17.175
ATOM     36  O   UNL d   1      10.526  18.996 -13.276 +0.00 +0.03    -0.481    17.175
ATOM     37  H   UNL d   1      10.274  19.558 -12.512 +0.00 -0.02    +0.295    17.175
ATOM     38  C   UNL d   1      13.903  12.652  -6.045 -0.27 -0.00    +0.017    17.175
ATOM     39  C   UNL d   1      13.209  11.893  -5.183 -0.29 -0.02    +0.092    17.175
ATOM     40  C   UNL d   1      13.749  10.602  -4.749 -0.22 -0.05    +0.330    17.175
ATOM     41  O   UNL d   1      14.654   9.966  -5.255 -0.17 +0.02    -0.246    17.175
ATOM     42  O   UNL d   1      13.101  10.176  -3.654 -0.19 +0.11    -0.477    17.175
ATOM     43  H   UNL d   1      12.681  10.986  -3.299 -0.34 -0.18    +0.295    17.175
ATOM     44  C   UNL d   1       6.915  21.011  -6.662 -0.10 -0.05    +0.141    17.175
ATOM     45  C   UNL d   1       8.173  21.819  -6.488 -0.06 -0.07    +0.306    17.175
ATOM     46  O   UNL d   1       9.100  21.898  -7.275 -0.02 +0.04    -0.251    17.175
ATOM     47  O   UNL d   1       8.209  22.468  -5.310 -0.05 +0.15    -0.481    17.175
ATOM     48  H   UNL d   1       7.284  22.440  -4.983 -0.46 -0.20    +0.295    17.175
ATOM     49  C   UNL d   1      12.731  15.458  -1.350 -0.17 -0.01    +0.048    17.175
ATOM     50  C   UNL d   1      12.084  14.242  -0.686 -0.28 -0.02    +0.125    17.175
ATOM     51  C   UNL d   1      12.787  12.976  -1.085 -0.15 -0.04    +0.305    17.175
ATOM     52  O   UNL d   1      13.092  12.039  -0.369 -0.17 +0.02    -0.251    17.175
ATOM     53  O   UNL d   1      13.090  12.959  -2.398 -0.09 +0.14    -0.481    17.175
ATOM     54  H   UNL d   1      12.694  12.123  -2.723 -0.45 -0.17    +0.295    17.175
TER
ENDMDL
MODEL       40
USER    Run = 40
USER    Cluster Rank = 32
USER    Number of conformations in this cluster = 5
USER  
USER    RMSD from reference structure       = 14.729 A
USER  
USER    Estimated Free Energy of Binding    =   -4.31 kcal/mol  [=(1)+(2)+(3)-(4)]
USER    Estimated Inhibition Constant, Ki   =  692.19 uM (micromolar)  [Temperature = 298.15 K]
USER    
USER    (1) Final Intermolecular Energy     =   -8.19 kcal/mol
USER        vdW + Hbond + desolv Energy     =   -7.66 kcal/mol
USER        Electrostatic Energy            =   -0.52 kcal/mol
USER    (2) Final Total Internal Energy     =   -3.91 kcal/mol
USER    (3) Torsional Free Energy           =   +3.88 kcal/mol
USER    (4) Unbound System's Energy  [=(2)] =   -3.91 kcal/mol
USER    
USER    
USER  
USER    DPF = D:/Protein_go_brrr/autodock/final/mut_K82N/heme/dock.dpf
USER    NEWDPF move	heme_opt.pdbqt
USER    NEWDPF about	0.153000 0.018000 -0.028000
USER    NEWDPF tran0	13.578268 8.704104 -8.921514
USER    NEWDPF axisangle0	-0.832580 0.293812 -0.469559 169.479524
USER    NEWDPF quaternion0	-0.829074 0.292574 -0.467581 0.091680
USER    NEWDPF dihe0	117.72 -180.00 -109.85 -51.64 -85.35 36.26 120.88 -99.41 131.11 -28.81 -98.78 -36.25 -14.73 
USER  
USER                              x       y       z    vdW   Elec        q     RMS 
ATOM      1  O   UNL d   1      10.885   9.298 -14.132 -0.08 -0.04    -0.289    14.729
ATOM      2  O   UNL d   1      14.165  14.372  -9.673 -0.04 +0.01    -0.289    14.729
ATOM      3  N   UNL d   1      12.233   8.493 -11.061 -0.21 +0.02    -0.247    14.729
ATOM      4  N   UNL d   1      13.538  11.021 -10.204 -0.12 +0.00    -0.247    14.729
ATOM      5  N   UNL d   1      14.899   9.518  -8.165 -0.07 +0.02    -0.354    14.729
ATOM      6  N   UNL d   1      13.556   6.897  -9.074 -0.09 +0.04    -0.354    14.729
ATOM      7  C   UNL d   1      11.260   7.213 -12.912 -0.14 -0.01    +0.084    14.729
ATOM      8  C   UNL d   1      12.637  13.105 -11.106 -0.16 +0.00    +0.084    14.729
ATOM      9  C   UNL d   1      12.637  11.573 -11.086 -0.16 +0.00    +0.058    14.729
ATOM     10  C   UNL d   1      11.910   7.228 -11.525 -0.22 -0.01    +0.058    14.729
ATOM     11  C   UNL d   1      11.255   8.695 -13.141 -0.14 +0.01    +0.193    14.729
ATOM     12  C   UNL d   1      11.846   9.361 -11.938 -0.22 +0.00    +0.109    14.729
ATOM     13  C   UNL d   1      13.732  13.319 -10.099 -0.09 -0.00    +0.193    14.729
ATOM     14  C   UNL d   1      12.158   6.553 -13.961 -0.05 -0.00    +0.026    14.729
ATOM     15  C   UNL d   1      11.861  10.837 -11.897 -0.25 +0.00    +0.055    14.729
ATOM     16  C   UNL d   1      11.333  13.681 -10.545 -0.33 +0.00    +0.026    14.729
ATOM     17  C   UNL d   1      14.198  11.978  -9.635 -0.12 -0.00    +0.109    14.729
ATOM     18  C   UNL d   1      12.059   6.100 -10.806 -0.24 -0.01    +0.050    14.729
ATOM     19  C   UNL d   1      12.571   6.028  -9.485 -0.16 -0.01    +0.045    14.729
ATOM     20  C   UNL d   1      15.566  10.711  -8.063 -0.11 -0.00    +0.045    14.729
ATOM     21  C   UNL d   1      15.302  11.873  -8.670 -0.12 -0.00    +0.057    14.729
ATOM     22  C   UNL d   1      16.599   9.172  -6.728 -0.06 +0.00    -0.019    14.729
ATOM     23  C   UNL d   1      15.449   8.528  -7.395 -0.13 -0.00    +0.045    14.729
ATOM     24  C   UNL d   1      16.662  10.465  -7.127 -0.05 +0.00    -0.022    14.729
ATOM     25  C   UNL d   1      13.966   6.592  -7.796 -0.15 -0.00    +0.049    14.729
ATOM     26  C   UNL d   1      12.308   5.160  -8.437 -0.29 +0.00    -0.018    14.729
ATOM     27  C   UNL d   1      13.178   5.534  -7.366 -0.27 -0.00    +0.003    14.729
ATOM     28  C   UNL d   1      15.081   7.251  -7.212 -0.16 -0.00    +0.052    14.729
ATOM     29  C   UNL d   1      17.635  11.519  -6.722 -0.02 -0.00    +0.046    14.729
ATOM     30  C   UNL d   1      11.309   4.053  -8.426 -0.06 -0.02    +0.046    14.729
ATOM     31  H   UNL d   1      14.043   9.438  -8.703 +0.04 -0.01    +0.166    14.729
ATOM     32  H   UNL d   1      13.941   7.627  -9.661 +0.03 -0.01    +0.166    14.729
ATOM     33  C   UNL d   1       9.833   6.656 -12.962 -0.24 -0.01    +0.141    14.729
ATOM     34  C   UNL d   1       9.244   6.697 -14.346 -0.10 +0.07    +0.306    14.729
ATOM     35  O   UNL d   1       9.489   7.523 -15.209 -0.59 -0.12    -0.251    14.729
ATOM     36  O   UNL d   1       8.379   5.693 -14.571 -0.54 -0.00    -0.481    14.729
ATOM     37  H   UNL d   1       8.926   4.881 -14.527 -0.43 -0.33    +0.295    14.729
ATOM     38  C   UNL d   1      13.245   4.883  -6.092 -0.32 -0.00    +0.017    14.729
ATOM     39  C   UNL d   1      14.055   5.238  -5.083 -0.23 +0.00    +0.092    14.729
ATOM     40  C   UNL d   1      14.014   4.498  -3.819 -0.13 +0.04    +0.330    14.729
ATOM     41  O   UNL d   1      13.806   3.310  -3.659 -0.32 -0.08    -0.246    14.729
ATOM     42  O   UNL d   1      14.256   5.326  -2.791 -0.34 -0.10    -0.477    14.729
ATOM     43  H   UNL d   1      14.391   6.197  -3.218 +0.09 +0.04    +0.295    14.729
ATOM     44  C   UNL d   1      12.995  13.749 -12.450 -0.06 -0.00    +0.141    14.729
ATOM     45  C   UNL d   1      14.473  13.751 -12.733 -0.01 -0.01    +0.306    14.729
ATOM     46  O   UNL d   1      15.144  12.802 -13.100 -0.01 +0.01    -0.251    14.729
ATOM     47  O   UNL d   1      15.038  14.951 -12.509 +0.00 +0.02    -0.481    14.729
ATOM     48  H   UNL d   1      15.005  15.063 -11.535 +0.01 -0.01    +0.295    14.729
ATOM     49  C   UNL d   1      17.528   8.467  -5.784 -0.03 -0.00    +0.048    14.729
ATOM     50  C   UNL d   1      17.160   8.728  -4.323 -0.03 -0.00    +0.125    14.729
ATOM     51  C   UNL d   1      16.050   7.818  -3.879 -0.05 -0.01    +0.305    14.729
ATOM     52  O   UNL d   1      14.881   8.108  -3.693 -0.14 +0.00    -0.251    14.729
ATOM     53  O   UNL d   1      16.482   6.558  -3.674 +0.00 +0.00    -0.481    14.729
ATOM     54  H   UNL d   1      16.167   6.342  -2.772 +0.04 +0.01    +0.295    14.729
TER
ENDMDL
MODEL       65
USER    Run = 65
USER    Cluster Rank = 33
USER    Number of conformations in this cluster = 2
USER  
USER    RMSD from reference structure       = 14.381 A
USER  
USER    Estimated Free Energy of Binding    =   -4.29 kcal/mol  [=(1)+(2)+(3)-(4)]
USER    Estimated Inhibition Constant, Ki   =  722.80 uM (micromolar)  [Temperature = 298.15 K]
USER    
USER    (1) Final Intermolecular Energy     =   -8.16 kcal/mol
USER        vdW + Hbond + desolv Energy     =   -8.06 kcal/mol
USER        Electrostatic Energy            =   -0.11 kcal/mol
USER    (2) Final Total Internal Energy     =   -4.26 kcal/mol
USER    (3) Torsional Free Energy           =   +3.88 kcal/mol
USER    (4) Unbound System's Energy  [=(2)] =   -4.26 kcal/mol
USER    
USER    
USER  
USER    DPF = D:/Protein_go_brrr/autodock/final/mut_K82N/heme/dock.dpf
USER    NEWDPF move	heme_opt.pdbqt
USER    NEWDPF about	0.153000 0.018000 -0.028000
USER    NEWDPF tran0	11.830727 5.256450 10.681414
USER    NEWDPF axisangle0	-0.771659 -0.340754 0.537057 169.732190
USER    NEWDPF quaternion0	-0.768563 -0.339387 0.534902 0.089484
USER    NEWDPF dihe0	-105.74 170.43 -179.90 33.48 53.17 44.99 -54.92 88.15 150.78 -124.16 -68.74 -81.45 -7.85 
USER  
USER                              x       y       z    vdW   Elec        q     RMS 
ATOM      1  O   UNL d   1      11.273   1.269  14.988 -0.27 +0.09    -0.289    14.381
ATOM      2  O   UNL d   1       9.517   8.567  14.770 -0.60 -0.03    -0.289    14.381
ATOM      3  N   UNL d   1      11.916   3.265  12.249 -0.08 +0.01    -0.247    14.381
ATOM      4  N   UNL d   1      10.624   5.843  12.964 -0.18 +0.02    -0.247    14.381
ATOM      5  N   UNL d   1      10.914   6.644  10.218 -0.09 -0.00    -0.354    14.381
ATOM      6  N   UNL d   1      12.236   3.958   9.481 -0.07 +0.01    -0.354    14.381
ATOM      7  C   UNL d   1      12.112   0.869  12.727 -0.28 -0.02    +0.084    14.381
ATOM      8  C   UNL d   1      10.378   6.349  15.343 -0.20 -0.01    +0.084    14.381
ATOM      9  C   UNL d   1      10.781   5.359  14.244 -0.22 -0.01    +0.058    14.381
ATOM     10  C   UNL d   1      12.271   2.027  11.739 -0.20 -0.01    +0.058    14.381
ATOM     11  C   UNL d   1      11.621   1.673  13.894 -0.22 -0.04    +0.193    14.381
ATOM     12  C   UNL d   1      11.570   3.113  13.486 -0.16 -0.01    +0.109    14.381
ATOM     13  C   UNL d   1       9.929   7.470  14.449 -0.20 -0.00    +0.193    14.381
ATOM     14  C   UNL d   1      11.011  -0.105  12.299 -0.02 -0.01    +0.026    14.381
ATOM     15  C   UNL d   1      11.200   4.112  14.509 -0.25 -0.01    +0.055    14.381
ATOM     16  C   UNL d   1      11.589   6.820  16.153 -0.08 -0.00    +0.026    14.381
ATOM     17  C   UNL d   1      10.122   7.034  13.033 -0.21 +0.00    +0.109    14.381
ATOM     18  C   UNL d   1      12.800   1.840  10.515 -0.22 -0.01    +0.050    14.381
ATOM     19  C   UNL d   1      13.063   2.861   9.567 -0.14 -0.00    +0.045    14.381
ATOM     20  C   UNL d   1      10.110   7.656  10.675 -0.26 +0.00    +0.045    14.381
ATOM     21  C   UNL d   1       9.724   7.919  11.928 -0.08 +0.01    +0.057    14.381
ATOM     22  C   UNL d   1      10.326   7.850   8.409 -0.23 -0.00    -0.019    14.381
ATOM     23  C   UNL d   1      11.102   6.678   8.862 -0.19 +0.00    +0.045    14.381
ATOM     24  C   UNL d   1       9.742   8.425   9.487 -0.28 -0.00    -0.022    14.381
ATOM     25  C   UNL d   1      12.620   4.773   8.441 -0.12 -0.00    +0.049    14.381
ATOM     26  C   UNL d   1      14.030   2.984   8.582 -0.08 +0.00    -0.018    14.381
ATOM     27  C   UNL d   1      13.758   4.203   7.887 -0.08 -0.00    +0.003    14.381
ATOM     28  C   UNL d   1      11.825   5.887   8.055 -0.11 +0.00    +0.052    14.381
ATOM     29  C   UNL d   1       8.873   9.635   9.542 -0.22 +0.03    +0.046    14.381
ATOM     30  C   UNL d   1      15.143   2.031   8.303 -0.07 +0.00    +0.046    14.381
ATOM     31  H   UNL d   1      11.370   6.004  10.860 +0.06 -0.00    +0.166    14.381
ATOM     32  H   UNL d   1      11.435   4.105  10.084 +0.07 -0.00    +0.166    14.381
ATOM     33  C   UNL d   1      13.406   0.131  13.089 -0.22 -0.03    +0.141    14.381
ATOM     34  C   UNL d   1      13.151  -1.227  13.685 -0.29 -0.07    +0.306    14.381
ATOM     35  O   UNL d   1      13.342  -2.300  13.138 -0.38 +0.05    -0.251    14.381
ATOM     36  O   UNL d   1      12.672  -1.161  14.940 -0.18 +0.12    -0.481    14.381
ATOM     37  H   UNL d   1      11.753  -0.835  14.836 -0.34 -0.18    +0.295    14.381
ATOM     38  C   UNL d   1      14.511   4.707   6.779 -0.05 -0.00    +0.017    14.381
ATOM     39  C   UNL d   1      13.987   5.217   5.654 -0.05 -0.00    +0.092    14.381
ATOM     40  C   UNL d   1      14.871   5.717   4.598 -0.02 -0.00    +0.330    14.381
ATOM     41  O   UNL d   1      15.891   5.205   4.177 -0.01 +0.00    -0.246    14.381
ATOM     42  O   UNL d   1      14.396   6.873   4.108 -0.00 +0.00    -0.477    14.381
ATOM     43  H   UNL d   1      13.506   6.949   4.507 +0.04 +0.00    +0.295    14.381
ATOM     44  C   UNL d   1       9.241   5.889  16.261 -0.13 -0.02    +0.141    14.381
ATOM     45  C   UNL d   1       8.788   6.954  17.224 -0.15 -0.03    +0.306    14.381
ATOM     46  O   UNL d   1       9.112   7.062  18.393 -0.08 +0.00    -0.251    14.381
ATOM     47  O   UNL d   1       7.921   7.818  16.665 -0.10 +0.14    -0.481    14.381
ATOM     48  H   UNL d   1       7.827   7.511  15.738 -0.40 -0.14    +0.295    14.381
ATOM     49  C   UNL d   1      10.216   8.285   6.977 -0.24 +0.02    +0.048    14.381
ATOM     50  C   UNL d   1      11.300   9.297   6.606 -0.10 +0.03    +0.125    14.381
ATOM     51  C   UNL d   1      12.275   8.704   5.628 -0.04 +0.03    +0.305    14.381
ATOM     52  O   UNL d   1      12.148   8.606   4.420 -0.06 -0.02    -0.251    14.381
ATOM     53  O   UNL d   1      13.384   8.242   6.239 -0.00 -0.02    -0.481    14.381
ATOM     54  H   UNL d   1      14.098   8.396   5.585 +0.02 +0.01    +0.295    14.381
TER
ENDMDL
MODEL       62
USER    Run = 62
USER    Cluster Rank = 34
USER    Number of conformations in this cluster = 1
USER  
USER    RMSD from reference structure       = 19.535 A
USER  
USER    Estimated Free Energy of Binding    =   -4.24 kcal/mol  [=(1)+(2)+(3)-(4)]
USER    Estimated Inhibition Constant, Ki   =  781.87 uM (micromolar)  [Temperature = 298.15 K]
USER    
USER    (1) Final Intermolecular Energy     =   -8.12 kcal/mol
USER        vdW + Hbond + desolv Energy     =   -8.09 kcal/mol
USER        Electrostatic Energy            =   -0.03 kcal/mol
USER    (2) Final Total Internal Energy     =   -4.71 kcal/mol
USER    (3) Torsional Free Energy           =   +3.88 kcal/mol
USER    (4) Unbound System's Energy  [=(2)] =   -4.71 kcal/mol
USER    
USER    
USER  
USER    DPF = D:/Protein_go_brrr/autodock/final/mut_K82N/heme/dock.dpf
USER    NEWDPF move	heme_opt.pdbqt
USER    NEWDPF about	0.153000 0.018000 -0.028000
USER    NEWDPF tran0	1.815258 17.087662 -14.544659
USER    NEWDPF axisangle0	0.848240 -0.098732 -0.520328 -97.684579
USER    NEWDPF quaternion0	0.638640 -0.074335 -0.391755 -0.658134
USER    NEWDPF dihe0	144.62 -156.82 -162.15 42.18 -140.27 56.43 140.21 47.75 51.35 -4.66 -76.71 -114.12 12.30 
USER  
USER                              x       y       z    vdW   Elec        q     RMS 
ATOM      1  O   UNL d   1      -1.689  19.800 -10.656 -0.18 +0.11    -0.289    19.535
ATOM      2  O   UNL d   1      -1.091  20.540 -18.105 -0.00 +0.08    -0.289    19.535
ATOM      3  N   UNL d   1       0.637  18.069 -12.524 -0.11 +0.09    -0.247    19.535
ATOM      4  N   UNL d   1      -0.079  18.767 -15.322 -0.09 +0.15    -0.247    19.535
ATOM      5  N   UNL d   1       1.624  16.621 -16.195 +0.06 +0.40    -0.354    19.535
ATOM      6  N   UNL d   1       2.346  15.891 -13.289 -0.15 +0.15    -0.354    19.535
ATOM      7  C   UNL d   1      -0.065  18.036 -10.176 -0.36 -0.03    +0.084    19.535
ATOM      8  C   UNL d   1      -1.222  20.896 -15.686 -0.02 -0.02    +0.084    19.535
ATOM      9  C   UNL d   1      -0.655  19.858 -14.712 -0.07 -0.02    +0.058    19.535
ATOM     10  C   UNL d   1       0.832  17.480 -11.286 -0.30 -0.02    +0.058    19.535
ATOM     11  C   UNL d   1      -0.789  19.057 -11.002 -0.18 -0.06    +0.193    19.535
ATOM     12  C   UNL d   1      -0.256  18.996 -12.400 -0.13 -0.04    +0.109    19.535
ATOM     13  C   UNL d   1      -0.895  20.173 -16.962 -0.01 -0.07    +0.193    19.535
ATOM     14  C   UNL d   1      -1.074  16.997  -9.678 -0.54 -0.01    +0.026    19.535
ATOM     15  C   UNL d   1      -0.758  19.982 -13.379 -0.09 -0.02    +0.055    19.535
ATOM     16  C   UNL d   1      -0.430  22.206 -15.646 -0.01 -0.00    +0.026    19.535
ATOM     17  C   UNL d   1      -0.211  18.893 -16.604 -0.08 -0.07    +0.109    19.535
ATOM     18  C   UNL d   1       1.782  16.561 -11.028 -0.39 -0.01    +0.050    19.535
ATOM     19  C   UNL d   1       2.711  16.052 -11.971 -0.32 -0.01    +0.045    19.535
ATOM     20  C   UNL d   1       1.010  16.932 -17.381 -0.03 -0.05    +0.045    19.535
ATOM     21  C   UNL d   1       0.190  17.950 -17.658 -0.09 -0.04    +0.057    19.535
ATOM     22  C   UNL d   1       2.269  15.048 -17.673 -0.09 +0.01    -0.019    19.535
ATOM     23  C   UNL d   1       2.404  15.498 -16.273 -0.09 -0.04    +0.045    19.535
ATOM     24  C   UNL d   1       1.443  15.901 -18.324 -0.07 +0.02    -0.022    19.535
ATOM     25  C   UNL d   1       3.364  15.303 -14.003 -0.12 -0.01    +0.049    19.535
ATOM     26  C   UNL d   1       4.011  15.591 -11.834 -0.37 +0.00    -0.018    19.535
ATOM     27  C   UNL d   1       4.425  15.137 -13.124 -0.27 -0.00    +0.003    19.535
ATOM     28  C   UNL d   1       3.166  14.892 -15.350 -0.14 -0.02    +0.052    19.535
ATOM     29  C   UNL d   1       1.010  15.875 -19.750 -0.04 -0.02    +0.046    19.535
ATOM     30  C   UNL d   1       4.822  15.574 -10.583 -0.26 -0.01    +0.046    19.535
ATOM     31  H   UNL d   1       1.547  17.230 -15.388 -0.00 -0.14    +0.166    19.535
ATOM     32  H   UNL d   1       1.434  16.140 -13.652 +0.01 -0.12    +0.166    19.535
ATOM     33  C   UNL d   1       0.670  18.709  -9.012 -0.29 -0.04    +0.141    19.535
ATOM     34  C   UNL d   1       0.693  20.209  -9.132 -0.25 -0.09    +0.306    19.535
ATOM     35  O   UNL d   1       1.511  20.870  -9.748 -0.14 +0.07    -0.251    19.535
ATOM     36  O   UNL d   1      -0.320  20.797  -8.469 -0.70 +0.13    -0.481    19.535
ATOM     37  H   UNL d   1      -1.085  20.199  -8.608 -0.34 -0.18    +0.295    19.535
ATOM     38  C   UNL d   1       5.702  14.566 -13.427 -0.31 +0.00    +0.017    19.535
ATOM     39  C   UNL d   1       5.945  13.258 -13.599 -0.31 +0.02    +0.092    19.535
ATOM     40  C   UNL d   1       7.299  12.802 -13.924 -0.18 +0.10    +0.330    19.535
ATOM     41  O   UNL d   1       8.327  13.031 -13.315 -0.16 -0.06    -0.246    19.535
ATOM     42  O   UNL d   1       7.279  12.049 -15.035 -0.55 -0.27    -0.477    19.535
ATOM     43  H   UNL d   1       6.462  12.332 -15.495 +0.08 +0.14    +0.295    19.535
ATOM     44  C   UNL d   1      -2.728  21.155 -15.572 -0.02 -0.03    +0.141    19.535
ATOM     45  C   UNL d   1      -3.556  19.902 -15.681 -0.04 -0.11    +0.306    19.535
ATOM     46  O   UNL d   1      -3.990  19.235 -14.758 -0.11 +0.10    -0.251    19.535
ATOM     47  O   UNL d   1      -3.773  19.538 -16.958 -0.01 +0.18    -0.481    19.535
ATOM     48  H   UNL d   1      -3.102  20.033 -17.474 +0.02 -0.10    +0.295    19.535
ATOM     49  C   UNL d   1       2.940  13.829 -18.235 -0.08 -0.02    +0.048    19.535
ATOM     50  C   UNL d   1       4.448  14.027 -18.382 -0.03 -0.02    +0.125    19.535
ATOM     51  C   UNL d   1       5.193  13.300 -17.298 -0.05 +0.01    +0.305    19.535
ATOM     52  O   UNL d   1       4.967  12.187 -16.859 -0.15 -0.06    -0.251    19.535
ATOM     53  O   UNL d   1       6.205  14.038 -16.800 -0.00 -0.01    -0.481    19.535
ATOM     54  H   UNL d   1       6.940  13.398 -16.700 +0.05 +0.03    +0.295    19.535
TER
ENDMDL
MODEL       96
USER    Run = 96
USER    Cluster Rank = 35
USER    Number of conformations in this cluster = 2
USER  
USER    RMSD from reference structure       = 13.877 A
USER  
USER    Estimated Free Energy of Binding    =   -4.24 kcal/mol  [=(1)+(2)+(3)-(4)]
USER    Estimated Inhibition Constant, Ki   =  781.94 uM (micromolar)  [Temperature = 298.15 K]
USER    
USER    (1) Final Intermolecular Energy     =   -8.12 kcal/mol
USER        vdW + Hbond + desolv Energy     =   -7.85 kcal/mol
USER        Electrostatic Energy            =   -0.27 kcal/mol
USER    (2) Final Total Internal Energy     =   -3.73 kcal/mol
USER    (3) Torsional Free Energy           =   +3.88 kcal/mol
USER    (4) Unbound System's Energy  [=(2)] =   -3.73 kcal/mol
USER    
USER    
USER  
USER    DPF = D:/Protein_go_brrr/autodock/final/mut_K82N/heme/dock.dpf
USER    NEWDPF move	heme_opt.pdbqt
USER    NEWDPF about	0.153000 0.018000 -0.028000
USER    NEWDPF tran0	13.859613 8.682397 -7.713180
USER    NEWDPF axisangle0	0.630961 0.530605 0.565991 -111.866391
USER    NEWDPF quaternion0	0.522679 0.439546 0.468858 -0.560159
USER    NEWDPF dihe0	-172.54 159.74 -160.81 -59.55 -42.27 -51.90 140.47 -117.78 124.78 -3.51 -109.11 23.12 -6.38 
USER  
USER                              x       y       z    vdW   Elec        q     RMS 
ATOM      1  O   UNL d   1      13.409   3.068  -5.972 -0.19 +0.02    -0.289    13.877
ATOM      2  O   UNL d   1      12.165   6.272 -12.648 -0.04 +0.05    -0.289    13.877
ATOM      3  N   UNL d   1      13.677   6.467  -6.491 -0.16 +0.01    -0.247    13.877
ATOM      4  N   UNL d   1      13.313   6.740  -9.428 -0.13 +0.03    -0.247    13.877
ATOM      5  N   UNL d   1      14.292   9.434  -9.206 -0.04 +0.02    -0.354    13.877
ATOM      6  N   UNL d   1      14.685   9.136  -6.163 -0.05 +0.02    -0.354    13.877
ATOM      7  C   UNL d   1      14.151   4.962  -4.616 -0.19 +0.00    +0.084    13.877
ATOM      8  C   UNL d   1      12.021   5.003 -10.560 -0.18 -0.02    +0.084    13.877
ATOM      9  C   UNL d   1      12.678   5.527  -9.279 -0.22 -0.01    +0.058    13.877
ATOM     10  C   UNL d   1      14.142   6.382  -5.190 -0.21 -0.00    +0.058    13.877
ATOM     11  C   UNL d   1      13.592   4.262  -5.818 -0.17 -0.01    +0.193    13.877
ATOM     12  C   UNL d   1      13.322   5.285  -6.877 -0.24 -0.01    +0.109    13.877
ATOM     13  C   UNL d   1      12.433   6.124 -11.472 -0.10 -0.04    +0.193    13.877
ATOM     14  C   UNL d   1      15.573   4.454  -4.364 -0.08 +0.00    +0.026    13.877
ATOM     15  C   UNL d   1      12.677   4.837  -8.128 -0.32 -0.01    +0.055    13.877
ATOM     16  C   UNL d   1      10.493   4.992 -10.451 -0.39 -0.01    +0.026    13.877
ATOM     17  C   UNL d   1      13.217   7.107 -10.665 -0.17 -0.01    +0.109    13.877
ATOM     18  C   UNL d   1      14.477   7.447  -4.437 -0.17 +0.00    +0.050    13.877
ATOM     19  C   UNL d   1      14.418   8.801  -4.855 -0.23 -0.00    +0.045    13.877
ATOM     20  C   UNL d   1      14.278   9.300 -10.570 -0.16 -0.00    +0.045    13.877
ATOM     21  C   UNL d   1      13.791   8.298 -11.308 -0.16 -0.00    +0.057    13.877
ATOM     22  C   UNL d   1      15.274  11.285 -10.033 -0.09 +0.00    -0.019    13.877
ATOM     23  C   UNL d   1      14.874  10.601  -8.787 -0.12 -0.00    +0.045    13.877
ATOM     24  C   UNL d   1      14.918  10.510 -11.085 -0.09 +0.00    -0.022    13.877
ATOM     25  C   UNL d   1      14.660  10.502  -6.326 -0.07 -0.00    +0.049    13.877
ATOM     26  C   UNL d   1      14.177   9.975  -4.158 -0.29 +0.00    -0.018    13.877
ATOM     27  C   UNL d   1      14.312  11.045  -5.096 -0.26 -0.00    +0.003    13.877
ATOM     28  C   UNL d   1      15.058  11.097  -7.554 -0.13 -0.00    +0.052    13.877
ATOM     29  C   UNL d   1      15.098  10.775 -12.541 -0.04 -0.00    +0.046    13.877
ATOM     30  C   UNL d   1      13.841  10.099  -2.711 -0.31 -0.01    +0.046    13.877
ATOM     31  H   UNL d   1      13.835   8.756  -8.606 +0.06 -0.01    +0.166    13.877
ATOM     32  H   UNL d   1      14.907   8.458  -6.881 +0.04 -0.01    +0.166    13.877
ATOM     33  C   UNL d   1      13.250   4.740  -3.396 -0.02 +0.02    +0.141    13.877
ATOM     34  C   UNL d   1      13.165   3.293  -2.995 -0.18 +0.10    +0.306    13.877
ATOM     35  O   UNL d   1      13.875   2.389  -3.403 -0.63 -0.16    -0.251    13.877
ATOM     36  O   UNL d   1      12.191   3.060  -2.098 -0.64 -0.18    -0.481    13.877
ATOM     37  H   UNL d   1      11.731   3.921  -2.004 -0.31 +0.01    +0.295    13.877
ATOM     38  C   UNL d   1      14.160  12.435  -4.790 -0.25 -0.00    +0.017    13.877
ATOM     39  C   UNL d   1      13.259  13.257  -5.349 -0.29 -0.01    +0.092    13.877
ATOM     40  C   UNL d   1      13.194  14.661  -4.934 -0.12 -0.04    +0.330    13.877
ATOM     41  O   UNL d   1      13.073  15.097  -3.805 -0.12 +0.04    -0.246    13.877
ATOM     42  O   UNL d   1      13.300  15.464  -6.003 -0.04 +0.03    -0.477    13.877
ATOM     43  H   UNL d   1      13.715  14.895  -6.684 +0.07 -0.02    +0.295    13.877
ATOM     44  C   UNL d   1      12.549   3.658 -11.071 -0.11 -0.05    +0.141    13.877
ATOM     45  C   UNL d   1      14.045   3.633 -11.239 -0.01 -0.08    +0.306    13.877
ATOM     46  O   UNL d   1      14.859   3.208 -10.438 -0.02 +0.06    -0.251    13.877
ATOM     47  O   UNL d   1      14.441   4.173 -12.406 +0.01 +0.09    -0.481    13.877
ATOM     48  H   UNL d   1      13.674   4.706 -12.705 +0.04 -0.06    +0.295    13.877
ATOM     49  C   UNL d   1      15.975  12.611 -10.078 -0.04 -0.00    +0.048    13.877
ATOM     50  C   UNL d   1      14.985  13.775 -10.133 -0.05 -0.00    +0.125    13.877
ATOM     51  C   UNL d   1      14.291  13.951  -8.812 -0.07 -0.01    +0.305    13.877
ATOM     52  O   UNL d   1      13.091  13.952  -8.598 -0.16 +0.00    -0.251    13.877
ATOM     53  O   UNL d   1      15.165  14.133  -7.803 -0.00 +0.02    -0.481    13.877
ATOM     54  H   UNL d   1      14.931  15.013  -7.440 +0.04 -0.02    +0.295    13.877
TER
ENDMDL
MODEL       53
USER    Run = 53
USER    Cluster Rank = 36
USER    Number of conformations in this cluster = 1
USER  
USER    RMSD from reference structure       = 20.503 A
USER  
USER    Estimated Free Energy of Binding    =   -4.23 kcal/mol  [=(1)+(2)+(3)-(4)]
USER    Estimated Inhibition Constant, Ki   =  798.28 uM (micromolar)  [Temperature = 298.15 K]
USER    
USER    (1) Final Intermolecular Energy     =   -8.10 kcal/mol
USER        vdW + Hbond + desolv Energy     =   -7.51 kcal/mol
USER        Electrostatic Energy            =   -0.59 kcal/mol
USER    (2) Final Total Internal Energy     =   -2.18 kcal/mol
USER    (3) Torsional Free Energy           =   +3.88 kcal/mol
USER    (4) Unbound System's Energy  [=(2)] =   -2.18 kcal/mol
USER    
USER    
USER  
USER    DPF = D:/Protein_go_brrr/autodock/final/mut_K82N/heme/dock.dpf
USER    NEWDPF move	heme_opt.pdbqt
USER    NEWDPF about	0.153000 0.018000 -0.028000
USER    NEWDPF tran0	-3.454663 20.347208 -12.498097
USER    NEWDPF axisangle0	-0.351314 -0.465155 0.812533 122.079156
USER    NEWDPF quaternion0	-0.307384 -0.406989 0.710929 0.484205
USER    NEWDPF dihe0	-97.20 172.19 93.96 -16.17 35.28 110.53 -44.87 173.39 118.34 -121.96 76.51 161.18 165.55 
USER  
USER                              x       y       z    vdW   Elec        q     RMS 
ATOM      1  O   UNL d   1       0.023  21.901  -7.998 -0.89 +0.13    -0.289    20.503
ATOM      2  O   UNL d   1      -7.027  23.864  -9.685 -0.02 -0.00    -0.289    20.503
ATOM      3  N   UNL d   1      -1.582  20.827 -10.856 -0.10 +0.08    -0.247    20.503
ATOM      4  N   UNL d   1      -4.353  21.842 -10.505 -0.12 +0.03    -0.247    20.503
ATOM      5  N   UNL d   1      -5.158  20.119 -12.662 -0.07 +0.08    -0.354    20.503
ATOM      6  N   UNL d   1      -2.284  19.058 -13.006 -0.11 +0.13    -0.354    20.503
ATOM      7  C   UNL d   1       0.569  20.331  -9.791 -0.23 -0.02    +0.084    20.503
ATOM      8  C   UNL d   1      -4.650  23.818  -9.099 -0.13 -0.01    +0.084    20.503
ATOM      9  C   UNL d   1      -3.727  22.733  -9.663 -0.15 -0.01    +0.058    20.503
ATOM     10  C   UNL d   1      -0.415  20.087 -10.939 -0.15 -0.02    +0.058    20.503
ATOM     11  C   UNL d   1      -0.241  21.355  -9.054 -0.25 -0.07    +0.193    20.503
ATOM     12  C   UNL d   1      -1.511  21.589  -9.813 -0.16 -0.04    +0.109    20.503
ATOM     13  C   UNL d   1      -5.924  23.355  -9.748 -0.06 -0.00    +0.193    20.503
ATOM     14  C   UNL d   1       0.733  19.096  -8.901 -0.38 -0.01    +0.026    20.503
ATOM     15  C   UNL d   1      -2.433  22.633  -9.322 -0.20 -0.02    +0.055    20.503
ATOM     16  C   UNL d   1      -4.296  25.205  -9.645 -0.06 -0.00    +0.026    20.503
ATOM     17  C   UNL d   1      -5.610  22.146 -10.567 -0.10 -0.00    +0.109    20.503
ATOM     18  C   UNL d   1      -0.103  19.283 -11.973 -0.16 -0.01    +0.050    20.503
ATOM     19  C   UNL d   1      -0.912  19.063 -13.116 -0.16 -0.02    +0.045    20.503
ATOM     20  C   UNL d   1      -6.388  20.521 -12.210 -0.13 -0.00    +0.045    20.503
ATOM     21  C   UNL d   1      -6.682  21.444 -11.288 -0.12 +0.00    +0.057    20.503
ATOM     22  C   UNL d   1      -6.677  18.901 -13.795 -0.15 +0.00    -0.019    20.503
ATOM     23  C   UNL d   1      -5.230  19.144 -13.621 -0.15 -0.01    +0.045    20.503
ATOM     24  C   UNL d   1      -7.356  19.720 -12.958 -0.12 +0.00    -0.022    20.503
ATOM     25  C   UNL d   1      -2.865  18.737 -14.211 -0.16 -0.02    +0.049    20.503
ATOM     26  C   UNL d   1      -0.594  18.774 -14.434 -0.14 +0.01    -0.018    20.503
ATOM     27  C   UNL d   1      -1.831  18.589 -15.125 -0.12 -0.00    +0.003    20.503
ATOM     28  C   UNL d   1      -4.265  18.516 -14.310 -0.18 -0.02    +0.052    20.503
ATOM     29  C   UNL d   1      -8.830  19.854 -12.777 -0.07 +0.00    +0.046    20.503
ATOM     30  C   UNL d   1       0.775  18.678 -15.019 -0.11 -0.02    +0.046    20.503
ATOM     31  H   UNL d   1      -4.308  20.579 -12.353 +0.04 -0.04    +0.166    20.503
ATOM     32  H   UNL d   1      -2.777  19.229 -12.138 -0.03 -0.06    +0.166    20.503
ATOM     33  C   UNL d   1       1.926  20.913 -10.201 -0.13 -0.04    +0.141    20.503
ATOM     34  C   UNL d   1       2.709  21.439  -9.029 -0.14 -0.08    +0.306    20.503
ATOM     35  O   UNL d   1       3.492  20.805  -8.343 -0.25 +0.07    -0.251    20.503
ATOM     36  O   UNL d   1       2.466  22.739  -8.784 -0.01 +0.11    -0.481    20.503
ATOM     37  H   UNL d   1       1.619  22.743  -8.289 +0.10 -0.12    +0.295    20.503
ATOM     38  C   UNL d   1      -1.960  18.258 -16.513 -0.10 -0.02    +0.017    20.503
ATOM     39  C   UNL d   1      -0.985  17.748 -17.281 -0.04 -0.10    +0.092    20.503
ATOM     40  C   UNL d   1      -1.252  17.435 -18.687 -0.06 -0.26    +0.330    20.503
ATOM     41  O   UNL d   1      -0.844  18.024 -19.670 -0.02 +0.10    -0.246    20.503
ATOM     42  O   UNL d   1      -2.040  16.353 -18.778 -0.06 +0.51    -0.477    20.503
ATOM     43  H   UNL d   1      -2.092  16.022 -17.858 -0.44 -0.66    +0.295    20.503
ATOM     44  C   UNL d   1      -4.789  23.841  -7.574 -0.04 -0.01    +0.141    20.503
ATOM     45  C   UNL d   1      -5.854  24.787  -7.087 -0.07 -0.02    +0.306    20.503
ATOM     46  O   UNL d   1      -5.710  25.968  -6.820 -0.03 +0.03    -0.251    20.503
ATOM     47  O   UNL d   1      -7.047  24.185  -6.937 -0.02 -0.01    -0.481    20.503
ATOM     48  H   UNL d   1      -7.467  24.242  -7.821 +0.04 +0.01    +0.295    20.503
ATOM     49  C   UNL d   1      -7.253  17.891 -14.743 -0.13 -0.01    +0.048    20.503
ATOM     50  C   UNL d   1      -7.250  16.484 -14.147 -0.19 -0.01    +0.125    20.503
ATOM     51  C   UNL d   1      -6.130  15.662 -14.719 -0.17 -0.10    +0.305    20.503
ATOM     52  O   UNL d   1      -5.712  14.591 -14.314 -0.26 +0.08    -0.251    20.503
ATOM     53  O   UNL d   1      -5.570  16.251 -15.794 -0.09 +0.32    -0.481    20.503
ATOM     54  H   UNL d   1      -4.715  15.785 -15.903 -0.47 -0.45    +0.295    20.503
TER
ENDMDL
MODEL        7
USER    Run = 7
USER    Cluster Rank = 37
USER    Number of conformations in this cluster = 1
USER  
USER    RMSD from reference structure       = 14.509 A
USER  
USER    Estimated Free Energy of Binding    =   -4.20 kcal/mol  [=(1)+(2)+(3)-(4)]
USER    Estimated Inhibition Constant, Ki   =  835.12 uM (micromolar)  [Temperature = 298.15 K]
USER    
USER    (1) Final Intermolecular Energy     =   -8.08 kcal/mol
USER        vdW + Hbond + desolv Energy     =   -7.31 kcal/mol
USER        Electrostatic Energy            =   -0.76 kcal/mol
USER    (2) Final Total Internal Energy     =   -2.53 kcal/mol
USER    (3) Torsional Free Energy           =   +3.88 kcal/mol
USER    (4) Unbound System's Energy  [=(2)] =   -2.53 kcal/mol
USER    
USER    
USER  
USER    DPF = D:/Protein_go_brrr/autodock/final/mut_K82N/heme/dock.dpf
USER    NEWDPF move	heme_opt.pdbqt
USER    NEWDPF about	0.153000 0.018000 -0.028000
USER    NEWDPF tran0	13.388632 8.077609 -8.865353
USER    NEWDPF axisangle0	0.329970 -0.859507 0.390343 136.783608
USER    NEWDPF quaternion0	0.306781 -0.799104 0.362911 0.368258
USER    NEWDPF dihe0	-109.26 -53.54 -124.69 120.07 38.77 177.94 121.92 -109.57 133.16 -24.25 -95.74 28.88 170.14 
USER  
USER                              x       y       z    vdW   Elec        q     RMS 
ATOM      1  O   UNL d   1      16.571  13.025  -8.475 -0.01 +0.01    -0.289    14.509
ATOM      2  O   UNL d   1      14.625   7.992  -3.253 -0.14 -0.00    -0.289    14.509
ATOM      3  N   UNL d   1      14.552  10.313  -9.155 -0.09 +0.01    -0.247    14.509
ATOM      4  N   UNL d   1      14.596   8.774  -6.614 +0.01 +0.01    -0.247    14.509
ATOM      5  N   UNL d   1      13.439   6.562  -8.041 +0.01 +0.04    -0.354    14.509
ATOM      6  N   UNL d   1      13.415   8.159 -10.677 -0.13 +0.03    -0.354    14.509
ATOM      7  C   UNL d   1      15.597  12.072 -10.505 -0.05 -0.00    +0.084    14.509
ATOM      8  C   UNL d   1      15.031  10.022  -4.559 -0.17 -0.01    +0.084    14.509
ATOM      9  C   UNL d   1      14.935  10.001  -6.088 -0.16 -0.00    +0.058    14.509
ATOM     10  C   UNL d   1      14.726  10.814 -10.434 -0.12 -0.00    +0.058    14.509
ATOM     11  C   UNL d   1      15.869  12.203  -9.036 -0.04 -0.01    +0.193    14.509
ATOM     12  C   UNL d   1      15.160  11.094  -8.323 -0.10 -0.01    +0.109    14.509
ATOM     13  C   UNL d   1      14.721   8.572  -4.317 -0.15 -0.01    +0.193    14.509
ATOM     14  C   UNL d   1      16.919  11.815 -11.232 -0.02 -0.00    +0.026    14.509
ATOM     15  C   UNL d   1      15.209  11.072  -6.847 -0.15 -0.00    +0.055    14.509
ATOM     16  C   UNL d   1      13.924  10.874  -3.932 -0.33 -0.00    +0.026    14.509
ATOM     17  C   UNL d   1      14.484   7.925  -5.643 -0.17 -0.00    +0.109    14.509
ATOM     18  C   UNL d   1      14.121  10.316 -11.529 -0.13 -0.00    +0.050    14.509
ATOM     19  C   UNL d   1      13.233   9.211 -11.547 -0.20 -0.00    +0.045    14.509
ATOM     20  C   UNL d   1      13.747   5.943  -6.857 -0.23 -0.00    +0.045    14.509
ATOM     21  C   UNL d   1      14.199   6.485  -5.721 -0.25 -0.00    +0.057    14.509
ATOM     22  C   UNL d   1      13.031   4.368  -8.348 -0.25 +0.01    -0.019    14.509
ATOM     23  C   UNL d   1      12.999   5.692  -9.002 -0.20 -0.01    +0.045    14.509
ATOM     24  C   UNL d   1      13.474   4.524  -7.078 -0.25 +0.00    -0.022    14.509
ATOM     25  C   UNL d   1      12.501   7.161 -10.927 -0.22 -0.01    +0.049    14.509
ATOM     26  C   UNL d   1      12.150   8.905 -12.357 -0.21 +0.00    -0.018    14.509
ATOM     27  C   UNL d   1      11.680   7.619 -11.948 -0.24 -0.00    +0.003    14.509
ATOM     28  C   UNL d   1      12.590   5.908 -10.262 -0.23 -0.01    +0.052    14.509
ATOM     29  C   UNL d   1      13.667   3.488  -6.024 -0.24 -0.00    +0.046    14.509
ATOM     30  C   UNL d   1      11.583   9.755 -13.443 -0.17 +0.00    +0.046    14.509
ATOM     31  H   UNL d   1      13.470   7.572  -8.130 +0.08 -0.01    +0.166    14.509
ATOM     32  H   UNL d   1      14.154   8.126  -9.984 +0.03 -0.01    +0.166    14.509
ATOM     33  C   UNL d   1      14.897  13.327 -11.036 -0.04 -0.00    +0.141    14.509
ATOM     34  C   UNL d   1      15.813  14.519 -11.098 -0.00 -0.01    +0.306    14.509
ATOM     35  O   UNL d   1      16.471  14.874 -12.061 -0.00 +0.01    -0.251    14.509
ATOM     36  O   UNL d   1      15.850  15.204  -9.941 +0.00 +0.02    -0.481    14.509
ATOM     37  H   UNL d   1      16.299  14.601  -9.311 +0.01 -0.01    +0.295    14.509
ATOM     38  C   UNL d   1      10.580   6.917 -12.537 -0.26 -0.00    +0.017    14.509
ATOM     39  C   UNL d   1       9.425   6.628 -11.918 -0.13 -0.01    +0.092    14.509
ATOM     40  C   UNL d   1       8.367   5.917 -12.640 -0.23 -0.06    +0.330    14.509
ATOM     41  O   UNL d   1       7.302   5.525 -12.203 -0.79 +0.02    -0.246    14.509
ATOM     42  O   UNL d   1       8.722   5.742 -13.923 -0.36 +0.11    -0.477    14.509
ATOM     43  H   UNL d   1       8.621   4.778 -14.065 -0.40 -0.48    +0.295    14.509
ATOM     44  C   UNL d   1      16.405  10.392  -3.989 -0.05 -0.01    +0.141    14.509
ATOM     45  C   UNL d   1      17.422   9.291  -4.127 -0.01 -0.01    +0.306    14.509
ATOM     46  O   UNL d   1      18.031   8.987  -5.138 -0.01 +0.01    -0.251    14.509
ATOM     47  O   UNL d   1      17.599   8.606  -2.983 +0.00 +0.02    -0.481    14.509
ATOM     48  H   UNL d   1      16.699   8.310  -2.729 +0.03 -0.01    +0.295    14.509
ATOM     49  C   UNL d   1      12.645   3.085  -9.024 -0.03 -0.03    +0.048    14.509
ATOM     50  C   UNL d   1      13.820   2.463  -9.777 -0.11 -0.06    +0.125    14.509
ATOM     51  C   UNL d   1      14.661   1.622  -8.859 -0.08 -0.12    +0.305    14.509
ATOM     52  O   UNL d   1      15.822   1.808  -8.537 -0.02 +0.04    -0.251    14.509
ATOM     53  O   UNL d   1      13.984   0.556  -8.389 -0.14 +0.33    -0.481    14.509
ATOM     54  H   UNL d   1      13.228   0.948  -7.905 -0.19 -0.51    +0.295    14.509
TER
ENDMDL
MODEL       25
USER    Run = 25
USER    Cluster Rank = 38
USER    Number of conformations in this cluster = 2
USER  
USER    RMSD from reference structure       = 17.804 A
USER  
USER    Estimated Free Energy of Binding    =   -4.17 kcal/mol  [=(1)+(2)+(3)-(4)]
USER    Estimated Inhibition Constant, Ki   =  876.40 uM (micromolar)  [Temperature = 298.15 K]
USER    
USER    (1) Final Intermolecular Energy     =   -8.05 kcal/mol
USER        vdW + Hbond + desolv Energy     =   -7.80 kcal/mol
USER        Electrostatic Energy            =   -0.24 kcal/mol
USER    (2) Final Total Internal Energy     =   -4.57 kcal/mol
USER    (3) Torsional Free Energy           =   +3.88 kcal/mol
USER    (4) Unbound System's Energy  [=(2)] =   -4.57 kcal/mol
USER    
USER    
USER  
USER    DPF = D:/Protein_go_brrr/autodock/final/mut_K82N/heme/dock.dpf
USER    NEWDPF move	heme_opt.pdbqt
USER    NEWDPF about	0.153000 0.018000 -0.028000
USER    NEWDPF tran0	9.055069 16.429453 -10.264465
USER    NEWDPF axisangle0	-0.379533 -0.409947 0.829396 117.715048
USER    NEWDPF quaternion0	-0.324836 -0.350867 0.709867 0.517168
USER    NEWDPF dihe0	165.04 162.69 172.94 -102.99 -145.16 52.48 148.25 -41.86 16.33 -3.36 -54.72 -95.43 31.14 
USER  
USER                              x       y       z    vdW   Elec        q     RMS 
ATOM      1  O   UNL d   1      12.042  18.360  -5.563 -0.04 +0.02    -0.289    17.804
ATOM      2  O   UNL d   1       5.222  20.152  -8.146 -0.20 +0.09    -0.289    17.804
ATOM      3  N   UNL d   1      10.744  17.049  -8.477 -0.03 +0.00    -0.247    17.804
ATOM      4  N   UNL d   1       7.957  18.079  -8.508 -0.11 +0.03    -0.247    17.804
ATOM      5  N   UNL d   1       7.378  16.183 -10.590 -0.15 +0.04    -0.354    17.804
ATOM      6  N   UNL d   1      10.266  15.107 -10.538 -0.15 -0.01    -0.354    17.804
ATOM      7  C   UNL d   1      12.768  16.651  -7.152 -0.09 -0.00    +0.084    17.804
ATOM      8  C   UNL d   1       7.523  20.164  -7.309 -0.13 -0.02    +0.084    17.804
ATOM      9  C   UNL d   1       8.495  19.039  -7.680 -0.11 -0.01    +0.058    17.804
ATOM     10  C   UNL d   1      11.910  16.309  -8.374 -0.02 -0.00    +0.058    17.804
ATOM     11  C   UNL d   1      11.889  17.729  -6.592 -0.06 -0.01    +0.193    17.804
ATOM     12  C   UNL d   1      10.709  17.894  -7.499 -0.07 -0.01    +0.109    17.804
ATOM     13  C   UNL d   1       6.323  19.644  -8.049 -0.16 -0.05    +0.193    17.804
ATOM     14  C   UNL d   1      12.830  15.493  -6.152 -0.13 -0.00    +0.026    17.804
ATOM     15  C   UNL d   1       9.745  18.972  -7.196 -0.10 -0.01    +0.055    17.804
ATOM     16  C   UNL d   1       7.940  21.502  -7.925 -0.08 -0.00    +0.026    17.804
ATOM     17  C   UNL d   1       6.716  18.373  -8.728 -0.19 -0.02    +0.109    17.804
ATOM     18  C   UNL d   1      12.326  15.424  -9.300 -0.17 -0.00    +0.050    17.804
ATOM     19  C   UNL d   1      11.642  15.108 -10.501 -0.16 +0.00    +0.045    17.804
ATOM     20  C   UNL d   1       6.109  16.616 -10.305 -0.30 -0.01    +0.045    17.804
ATOM     21  C   UNL d   1       5.724  17.610  -9.499 -0.24 -0.02    +0.057    17.804
ATOM     22  C   UNL d   1       5.982  14.871 -11.774 -0.37 +0.00    -0.019    17.804
ATOM     23  C   UNL d   1       7.403  15.132 -11.467 -0.26 -0.00    +0.045    17.804
ATOM     24  C   UNL d   1       5.221  15.753 -11.084 -0.38 +0.00    -0.022    17.804
ATOM     25  C   UNL d   1       9.816  14.686 -11.767 -0.21 +0.00    +0.049    17.804
ATOM     26  C   UNL d   1      12.098  14.713 -11.749 -0.09 +0.00    -0.018    17.804
ATOM     27  C   UNL d   1      10.940  14.467 -12.551 -0.12 +0.00    +0.003    17.804
ATOM     28  C   UNL d   1       8.432  14.453 -11.996 -0.15 +0.00    +0.052    17.804
ATOM     29  C   UNL d   1       3.737  15.896 -11.073 -0.29 -0.01    +0.046    17.804
ATOM     30  C   UNL d   1      13.520  14.574 -12.175 -0.04 -0.00    +0.046    17.804
ATOM     31  H   UNL d   1       8.192  16.669 -10.231 +0.05 -0.01    +0.166    17.804
ATOM     32  H   UNL d   1       9.684  15.347  -9.744 +0.05 +0.01    +0.166    17.804
ATOM     33  C   UNL d   1      14.164  17.201  -7.462 -0.03 -0.01    +0.141    17.804
ATOM     34  C   UNL d   1      14.118  18.524  -8.179 -0.01 -0.02    +0.306    17.804
ATOM     35  O   UNL d   1      14.106  18.689  -9.387 -0.00 +0.01    -0.251    17.804
ATOM     36  O   UNL d   1      14.088  19.570  -7.334 +0.00 +0.03    -0.481    17.804
ATOM     37  H   UNL d   1      13.819  19.185  -6.473 +0.01 -0.02    +0.295    17.804
ATOM     38  C   UNL d   1      10.958  14.023 -13.912 -0.07 +0.00    +0.017    17.804
ATOM     39  C   UNL d   1      10.388  12.896 -14.366 -0.09 +0.01    +0.092    17.804
ATOM     40  C   UNL d   1      10.463  12.564 -15.791 -0.01 +0.03    +0.330    17.804
ATOM     41  O   UNL d   1      11.453  12.539 -16.498 -0.00 -0.01    -0.246    17.804
ATOM     42  O   UNL d   1       9.243  12.260 -16.260 -0.00 -0.08    -0.477    17.804
ATOM     43  H   UNL d   1       8.720  12.078 -15.452 +0.06 +0.09    +0.295    17.804
ATOM     44  C   UNL d   1       7.223  20.311  -5.813 -0.17 -0.04    +0.141    17.804
ATOM     45  C   UNL d   1       6.766  19.029  -5.170 -0.26 -0.07    +0.306    17.804
ATOM     46  O   UNL d   1       7.427  18.303  -4.447 -0.28 +0.05    -0.251    17.804
ATOM     47  O   UNL d   1       5.500  18.713  -5.495 -0.63 +0.11    -0.481    17.804
ATOM     48  H   UNL d   1       5.165  19.497  -5.981 -0.14 -0.15    +0.295    17.804
ATOM     49  C   UNL d   1       5.504  13.784 -12.692 -0.41 +0.00    +0.048    17.804
ATOM     50  C   UNL d   1       6.201  13.841 -14.052 -0.25 +0.01    +0.125    17.804
ATOM     51  C   UNL d   1       6.825  12.517 -14.390 -0.18 +0.12    +0.305    17.804
ATOM     52  O   UNL d   1       7.531  11.824 -13.679 -0.36 -0.13    -0.251    17.804
ATOM     53  O   UNL d   1       6.530  12.128 -15.647 -0.57 -0.27    -0.481    17.804
ATOM     54  H   UNL d   1       7.114  12.678 -16.210 +0.06 +0.08    +0.295    17.804
TER
ENDMDL
MODEL       43
USER    Run = 43
USER    Cluster Rank = 39
USER    Number of conformations in this cluster = 1
USER  
USER    RMSD from reference structure       = 15.646 A
USER  
USER    Estimated Free Energy of Binding    =   -4.08 kcal/mol  [=(1)+(2)+(3)-(4)]
USER    Estimated Inhibition Constant, Ki   =    1.03 mM (millimolar)  [Temperature = 298.15 K]
USER    
USER    (1) Final Intermolecular Energy     =   -7.96 kcal/mol
USER        vdW + Hbond + desolv Energy     =   -7.25 kcal/mol
USER        Electrostatic Energy            =   -0.71 kcal/mol
USER    (2) Final Total Internal Energy     =   -2.52 kcal/mol
USER    (3) Torsional Free Energy           =   +3.88 kcal/mol
USER    (4) Unbound System's Energy  [=(2)] =   -2.52 kcal/mol
USER    
USER    
USER  
USER    DPF = D:/Protein_go_brrr/autodock/final/mut_K82N/heme/dock.dpf
USER    NEWDPF move	heme_opt.pdbqt
USER    NEWDPF about	0.153000 0.018000 -0.028000
USER    NEWDPF tran0	-8.625791 12.167483 -11.811964
USER    NEWDPF axisangle0	-0.700596 -0.574654 0.423011 153.563396
USER    NEWDPF quaternion0	-0.682034 -0.559429 0.411804 0.228662
USER    NEWDPF dihe0	-147.48 82.91 -105.88 13.07 -156.49 -161.02 174.57 43.75 -164.24 19.96 -88.14 3.88 -2.00 
USER  
USER                              x       y       z    vdW   Elec        q     RMS 
ATOM      1  O   UNL d   1      -7.413   7.987  -7.836 -0.15 -0.04    -0.289    15.646
ATOM      2  O   UNL d   1     -12.846  13.166  -8.040 -0.03 -0.10    -0.289    15.646
ATOM      3  N   UNL d   1      -7.649  10.349 -10.338 -0.16 -0.03    -0.247    15.646
ATOM      4  N   UNL d   1     -10.219  11.718  -9.745 -0.24 -0.08    -0.247    15.646
ATOM      5  N   UNL d   1     -10.090  12.894 -12.365 +0.01 -0.10    -0.354    15.646
ATOM      6  N   UNL d   1      -7.435  11.455 -12.980 -0.07 -0.01    -0.354    15.646
ATOM      7  C   UNL d   1      -6.229   8.392  -9.936 -0.28 -0.00    +0.084    15.646
ATOM      8  C   UNL d   1     -10.984  11.702  -7.424 -0.13 +0.02    +0.084    15.646
ATOM      9  C   UNL d   1      -9.976  11.233  -8.479 -0.18 +0.02    +0.058    15.646
ATOM     10  C   UNL d   1      -6.615   9.572 -10.833 -0.26 -0.00    +0.058    15.646
ATOM     11  C   UNL d   1      -7.215   8.651  -8.837 -0.21 +0.01    +0.193    15.646
ATOM     12  C   UNL d   1      -8.000   9.878  -9.186 -0.20 +0.01    +0.109    15.646
ATOM     13  C   UNL d   1     -11.864  12.512  -8.333 -0.06 +0.06    +0.193    15.646
ATOM     14  C   UNL d   1      -6.553   7.045 -10.586 -0.21 +0.00    +0.026    15.646
ATOM     15  C   UNL d   1      -8.976  10.383  -8.200 -0.15 +0.01    +0.055    15.646
ATOM     16  C   UNL d   1     -10.338  12.640  -6.400 -0.35 +0.01    +0.026    15.646
ATOM     17  C   UNL d   1     -11.296  12.434  -9.713 -0.09 +0.03    +0.109    15.646
ATOM     18  C   UNL d   1      -5.928   9.856 -11.956 -0.26 -0.01    +0.050    15.646
ATOM     19  C   UNL d   1      -6.159  10.971 -12.801 -0.26 -0.01    +0.045    15.646
ATOM     20  C   UNL d   1     -11.366  13.250 -12.010 -0.07 +0.01    +0.045    15.646
ATOM     21  C   UNL d   1     -11.979  13.102 -10.831 -0.07 +0.01    +0.057    15.646
ATOM     22  C   UNL d   1     -11.023  13.819 -14.195 -0.03 -0.00    -0.019    15.646
ATOM     23  C   UNL d   1      -9.792  13.198 -13.667 -0.06 +0.01    +0.045    15.646
ATOM     24  C   UNL d   1     -11.950  13.848 -13.209 -0.03 -0.00    -0.022    15.646
ATOM     25  C   UNL d   1      -7.440  12.474 -13.904 -0.13 -0.00    +0.049    15.646
ATOM     26  C   UNL d   1      -5.308  11.718 -13.601 -0.34 +0.00    -0.018    15.646
ATOM     27  C   UNL d   1      -6.120  12.679 -14.280 -0.24 -0.00    +0.003    15.646
ATOM     28  C   UNL d   1      -8.663  13.028 -14.371 -0.10 +0.00    +0.052    15.646
ATOM     29  C   UNL d   1     -13.340  14.385 -13.251 -0.01 +0.00    +0.046    15.646
ATOM     30  C   UNL d   1      -3.831  11.554 -13.726 -0.46 -0.02    +0.046    15.646
ATOM     31  H   UNL d   1      -9.439  12.522 -11.683 +0.05 +0.10    +0.166    15.646
ATOM     32  H   UNL d   1      -8.250  11.071 -12.517 +0.04 +0.02    +0.166    15.646
ATOM     33  C   UNL d   1      -4.797   8.423  -9.391 -0.26 -0.03    +0.141    15.646
ATOM     34  C   UNL d   1      -3.965   7.270  -9.883 -0.32 -0.04    +0.306    15.646
ATOM     35  O   UNL d   1      -3.680   6.266  -9.252 -0.35 +0.00    -0.251    15.646
ATOM     36  O   UNL d   1      -3.537   7.441 -11.147 -0.19 +0.09    -0.481    15.646
ATOM     37  H   UNL d   1      -3.451   8.413 -11.248 -0.37 -0.18    +0.295    15.646
ATOM     38  C   UNL d   1      -5.641  13.646 -15.221 -0.24 -0.01    +0.017    15.646
ATOM     39  C   UNL d   1      -6.051  14.921 -15.298 -0.21 -0.04    +0.092    15.646
ATOM     40  C   UNL d   1      -5.467  15.817 -16.299 -0.02 -0.27    +0.330    15.646
ATOM     41  O   UNL d   1      -5.508  17.032 -16.324 -0.10 +0.15    -0.246    15.646
ATOM     42  O   UNL d   1      -4.833  15.104 -17.243 -0.00 +0.54    -0.477    15.646
ATOM     43  H   UNL d   1      -3.896  15.122 -16.961 -0.40 -0.83    +0.295    15.646
ATOM     44  C   UNL d   1     -11.782  10.592  -6.733 -0.06 +0.04    +0.141    15.646
ATOM     45  C   UNL d   1     -11.998   9.384  -7.606 -0.00 +0.09    +0.306    15.646
ATOM     46  O   UNL d   1     -11.790   8.222  -7.304 -0.03 -0.12    -0.251    15.646
ATOM     47  O   UNL d   1     -12.444   9.710  -8.833 +0.02 -0.11    -0.481    15.646
ATOM     48  H   UNL d   1     -11.664  10.094  -9.287 +0.03 +0.06    +0.295    15.646
ATOM     49  C   UNL d   1     -11.182  14.308 -15.605 -0.01 +0.00    +0.048    15.646
ATOM     50  C   UNL d   1     -10.662  15.735 -15.774 -0.01 +0.00    +0.125    15.646
ATOM     51  C   UNL d   1      -9.225  15.734 -16.214 -0.01 -0.02    +0.305    15.646
ATOM     52  O   UNL d   1      -8.686  14.964 -16.988 -0.01 +0.03    -0.251    15.646
ATOM     53  O   UNL d   1      -8.519  16.723 -15.630 +0.00 +0.03    -0.481    15.646
ATOM     54  H   UNL d   1      -7.682  16.750 -16.139 +0.04 -0.05    +0.295    15.646
TER
ENDMDL
MODEL       51
USER    Run = 51
USER    Cluster Rank = 40
USER    Number of conformations in this cluster = 1
USER  
USER    RMSD from reference structure       = 18.295 A
USER  
USER    Estimated Free Energy of Binding    =   -4.06 kcal/mol  [=(1)+(2)+(3)-(4)]
USER    Estimated Inhibition Constant, Ki   =    1.06 mM (millimolar)  [Temperature = 298.15 K]
USER    
USER    (1) Final Intermolecular Energy     =   -7.94 kcal/mol
USER        vdW + Hbond + desolv Energy     =   -7.70 kcal/mol
USER        Electrostatic Energy            =   -0.24 kcal/mol
USER    (2) Final Total Internal Energy     =   -2.19 kcal/mol
USER    (3) Torsional Free Energy           =   +3.88 kcal/mol
USER    (4) Unbound System's Energy  [=(2)] =   -2.19 kcal/mol
USER    
USER    
USER  
USER    DPF = D:/Protein_go_brrr/autodock/final/mut_K82N/heme/dock.dpf
USER    NEWDPF move	heme_opt.pdbqt
USER    NEWDPF about	0.153000 0.018000 -0.028000
USER    NEWDPF tran0	7.813443 16.242938 -10.783586
USER    NEWDPF axisangle0	-0.319705 -0.818175 -0.477890 -154.600729
USER    NEWDPF quaternion0	-0.311883 -0.798159 -0.466198 -0.219840
USER    NEWDPF dihe0	82.85 79.38 -98.47 -122.79 -172.13 158.44 122.23 169.69 101.94 -31.18 43.32 -168.15 -180.00 
USER  
USER                              x       y       z    vdW   Elec        q     RMS 
ATOM      1  O   UNL d   1      12.939  15.797 -13.663 -0.00 +0.01    -0.289    18.295
ATOM      2  O   UNL d   1       6.386  12.276 -14.691 -0.50 -0.15    -0.289    18.295
ATOM      3  N   UNL d   1      10.210  16.292 -11.612 -0.05 +0.01    -0.247    18.295
ATOM      4  N   UNL d   1       8.057  14.747 -12.955 -0.10 -0.01    -0.247    18.295
ATOM      5  N   UNL d   1       6.162  16.095 -11.264 -0.13 +0.05    -0.354    18.295
ATOM      6  N   UNL d   1       8.401  17.707  -9.889 -0.06 +0.03    -0.354    18.295
ATOM      7  C   UNL d   1      12.433  17.307 -11.808 -0.01 -0.00    +0.084    18.295
ATOM      8  C   UNL d   1       8.738  12.864 -14.355 -0.14 +0.02    +0.084    18.295
ATOM      9  C   UNL d   1       9.127  14.073 -13.498 -0.12 +0.00    +0.058    18.295
ATOM     10  C   UNL d   1      11.071  17.252 -11.108 -0.05 -0.00    +0.058    18.295
ATOM     11  C   UNL d   1      12.195  16.194 -12.784 -0.01 -0.01    +0.193    18.295
ATOM     12  C   UNL d   1      10.823  15.643 -12.548 -0.05 -0.00    +0.109    18.295
ATOM     13  C   UNL d   1       7.247  12.999 -14.228 -0.19 +0.05    +0.193    18.295
ATOM     14  C   UNL d   1      12.628  18.612 -12.583 -0.00 -0.00    +0.026    18.295
ATOM     15  C   UNL d   1      10.400  14.468 -13.336 -0.10 +0.00    +0.055    18.295
ATOM     16  C   UNL d   1       9.170  11.546 -13.706 -0.03 +0.01    +0.026    18.295
ATOM     17  C   UNL d   1       6.965  14.182 -13.361 -0.21 +0.01    +0.109    18.295
ATOM     18  C   UNL d   1      10.799  18.024 -10.039 -0.07 -0.00    +0.050    18.295
ATOM     19  C   UNL d   1       9.603  17.983  -9.278 -0.11 -0.00    +0.045    18.295
ATOM     20  C   UNL d   1       5.303  15.479 -12.136 -0.31 -0.00    +0.045    18.295
ATOM     21  C   UNL d   1       5.577  14.587 -13.093 -0.34 -0.00    +0.057    18.295
ATOM     22  C   UNL d   1       4.105  16.878 -10.784 -0.29 +0.00    -0.019    18.295
ATOM     23  C   UNL d   1       5.531  16.958 -10.408 -0.27 -0.01    +0.045    18.295
ATOM     24  C   UNL d   1       3.976  16.000 -11.807 -0.33 +0.00    -0.022    18.295
ATOM     25  C   UNL d   1       7.367  17.808  -8.987 -0.22 -0.01    +0.049    18.295
ATOM     26  C   UNL d   1       9.349  18.232  -7.938 -0.11 +0.00    -0.018    18.295
ATOM     27  C   UNL d   1       7.938  18.101  -7.756 -0.03 -0.00    +0.003    18.295
ATOM     28  C   UNL d   1       6.014  17.721  -9.416 -0.28 -0.01    +0.052    18.295
ATOM     29  C   UNL d   1       2.738  15.574 -12.520 -0.25 -0.01    +0.046    18.295
ATOM     30  C   UNL d   1      10.354  18.569  -6.889 -0.11 -0.00    +0.046    18.295
ATOM     31  H   UNL d   1       7.146  15.849 -11.232 +0.06 -0.02    +0.166    18.295
ATOM     32  H   UNL d   1       8.308  17.503 -10.877 +0.04 -0.01    +0.166    18.295
ATOM     33  C   UNL d   1      13.641  16.994 -10.919 -0.02 -0.01    +0.141    18.295
ATOM     34  C   UNL d   1      14.772  16.358 -11.682 -0.00 -0.01    +0.306    18.295
ATOM     35  O   UNL d   1      15.234  15.245 -11.491 -0.00 +0.01    -0.251    18.295
ATOM     36  O   UNL d   1      15.259  17.156 -12.649 -0.00 +0.02    -0.481    18.295
ATOM     37  H   UNL d   1      14.841  16.828 -13.473 +0.00 -0.01    +0.295    18.295
ATOM     38  C   UNL d   1       7.244  18.292  -6.518 -0.31 -0.00    +0.017    18.295
ATOM     39  C   UNL d   1       7.401  19.341  -5.696 -0.28 -0.02    +0.092    18.295
ATOM     40  C   UNL d   1       6.615  19.426  -4.463 -0.26 -0.10    +0.330    18.295
ATOM     41  O   UNL d   1       6.884  20.045  -3.451 -0.34 +0.07    -0.246    18.295
ATOM     42  O   UNL d   1       5.489  18.707  -4.582 -0.78 +0.12    -0.477    18.295
ATOM     43  H   UNL d   1       4.801  19.377  -4.774 -0.39 -0.21    +0.295    18.295
ATOM     44  C   UNL d   1       9.172  12.927 -15.823 -0.05 +0.02    +0.141    18.295
ATOM     45  C   UNL d   1       8.252  13.757 -16.679 -0.01 +0.02    +0.306    18.295
ATOM     46  O   UNL d   1       8.219  14.974 -16.742 -0.01 +0.00    -0.251    18.295
ATOM     47  O   UNL d   1       7.398  13.004 -17.395 -0.00 -0.05    -0.481    18.295
ATOM     48  H   UNL d   1       6.682  12.775 -16.766 +0.05 +0.06    +0.295    18.295
ATOM     49  C   UNL d   1       3.015  17.670 -10.125 -0.22 -0.02    +0.048    18.295
ATOM     50  C   UNL d   1       2.681  18.940 -10.909 -0.13 -0.03    +0.125    18.295
ATOM     51  C   UNL d   1       2.532  20.116  -9.986 -0.11 -0.08    +0.305    18.295
ATOM     52  O   UNL d   1       2.546  21.298 -10.281 -0.06 +0.06    -0.251    18.295
ATOM     53  O   UNL d   1       2.383  19.734  -8.702 -0.19 +0.18    -0.481    18.295
ATOM     54  H   UNL d   1       3.177  19.189  -8.521 -0.21 -0.17    +0.295    18.295
TER
ENDMDL
MODEL       82
USER    Run = 82
USER    Cluster Rank = 41
USER    Number of conformations in this cluster = 1
USER  
USER    RMSD from reference structure       = 16.765 A
USER  
USER    Estimated Free Energy of Binding    =   -4.02 kcal/mol  [=(1)+(2)+(3)-(4)]
USER    Estimated Inhibition Constant, Ki   =    1.13 mM (millimolar)  [Temperature = 298.15 K]
USER    
USER    (1) Final Intermolecular Energy     =   -7.90 kcal/mol
USER        vdW + Hbond + desolv Energy     =   -7.74 kcal/mol
USER        Electrostatic Energy            =   -0.16 kcal/mol
USER    (2) Final Total Internal Energy     =   -2.87 kcal/mol
USER    (3) Torsional Free Energy           =   +3.88 kcal/mol
USER    (4) Unbound System's Energy  [=(2)] =   -2.87 kcal/mol
USER    
USER    
USER  
USER    DPF = D:/Protein_go_brrr/autodock/final/mut_K82N/heme/dock.dpf
USER    NEWDPF move	heme_opt.pdbqt
USER    NEWDPF about	0.153000 0.018000 -0.028000
USER    NEWDPF tran0	10.976778 16.340257 -6.286321
USER    NEWDPF axisangle0	0.892570 -0.330923 0.306283 107.839825
USER    NEWDPF quaternion0	0.721370 -0.267450 0.247536 0.588916
USER    NEWDPF dihe0	161.09 -157.64 -116.24 -13.14 -147.70 42.07 -39.69 135.90 7.27 4.96 131.24 -49.16 37.42 
USER  
USER                              x       y       z    vdW   Elec        q     RMS 
ATOM      1  O   UNL d   1       7.132  20.330  -8.300 -0.05 +0.06    -0.289    16.765
ATOM      2  O   UNL d   1       8.421  17.799  -1.349 -0.23 +0.03    -0.289    16.765
ATOM      3  N   UNL d   1       9.429  17.851  -7.611 -0.02 +0.01    -0.247    16.765
ATOM      4  N   UNL d   1       9.454  17.750  -4.641 -0.14 +0.04    -0.247    16.765
ATOM      5  N   UNL d   1      11.851  16.171  -4.808 -0.07 +0.04    -0.354    16.765
ATOM      6  N   UNL d   1      11.828  16.297  -7.887 +0.10 +0.00    -0.354    16.765
ATOM      7  C   UNL d   1       8.800  19.117  -9.613 -0.05 -0.01    +0.084    16.765
ATOM      8  C   UNL d   1       7.433  18.484  -3.481 -0.39 -0.02    +0.084    16.765
ATOM      9  C   UNL d   1       8.208  18.316  -4.792 -0.26 -0.01    +0.058    16.765
ATOM     10  C   UNL d   1       9.681  18.049  -8.958 -0.10 -0.00    +0.058    16.765
ATOM     11  C   UNL d   1       7.992  19.475  -8.402 -0.06 -0.03    +0.193    16.765
ATOM     12  C   UNL d   1       8.451  18.621  -7.260 -0.11 -0.01    +0.109    16.765
ATOM     13  C   UNL d   1       8.485  17.944  -2.554 -0.26 -0.03    +0.193    16.765
ATOM     14  C   UNL d   1       9.609  20.342 -10.048 -0.02 -0.00    +0.026    16.765
ATOM     15  C   UNL d   1       7.731  18.732  -5.975 -0.28 -0.01    +0.055    16.765
ATOM     16  C   UNL d   1       6.207  17.567  -3.424 -0.64 -0.00    +0.026    16.765
ATOM     17  C   UNL d   1       9.662  17.540  -3.381 -0.22 -0.02    +0.109    16.765
ATOM     18  C   UNL d   1      10.553  17.319  -9.678 -0.12 -0.00    +0.050    16.765
ATOM     19  C   UNL d   1      11.347  16.256  -9.176 -0.10 -0.00    +0.045    16.765
ATOM     20  C   UNL d   1      11.828  16.423  -3.460 -0.19 -0.01    +0.045    16.765
ATOM     21  C   UNL d   1      10.872  17.011  -2.734 -0.23 -0.01    +0.057    16.765
ATOM     22  C   UNL d   1      13.793  15.383  -3.983 -0.10 +0.00    -0.019    16.765
ATOM     23  C   UNL d   1      12.998  15.545  -5.217 -0.14 -0.00    +0.045    16.765
ATOM     24  C   UNL d   1      13.094  15.903  -2.947 -0.12 +0.00    -0.022    16.765
ATOM     25  C   UNL d   1      12.644  15.217  -7.641 -0.08 -0.00    +0.049    16.765
ATOM     26  C   UNL d   1      11.832  15.102  -9.771 -0.20 -0.00    -0.018    16.765
ATOM     27  C   UNL d   1      12.634  14.440  -8.791 -0.22 +0.00    +0.003    16.765
ATOM     28  C   UNL d   1      13.383  15.122  -6.431 -0.15 -0.00    +0.052    16.765
ATOM     29  C   UNL d   1      13.471  15.966  -1.506 -0.08 -0.00    +0.046    16.765
ATOM     30  C   UNL d   1      11.566  14.639 -11.164 -0.18 +0.00    +0.046    16.765
ATOM     31  H   UNL d   1      11.047  16.368  -5.393 +0.06 -0.01    +0.166    16.765
ATOM     32  H   UNL d   1      11.631  17.050  -7.239 +0.03 -0.00    +0.166    16.765
ATOM     33  C   UNL d   1       7.888  18.617 -10.739 -0.05 -0.02    +0.141    16.765
ATOM     34  C   UNL d   1       7.006  17.477 -10.306 -0.13 -0.05    +0.306    16.765
ATOM     35  O   UNL d   1       7.252  16.289 -10.430 -0.23 +0.03    -0.251    16.765
ATOM     36  O   UNL d   1       5.861  17.894  -9.737 -0.08 +0.13    -0.481    16.765
ATOM     37  H   UNL d   1       6.052  18.809  -9.441 +0.09 -0.07    +0.295    16.765
ATOM     38  C   UNL d   1      13.339  13.210  -8.996 -0.21 -0.00    +0.017    16.765
ATOM     39  C   UNL d   1      14.274  12.708  -8.174 -0.15 -0.00    +0.092    16.765
ATOM     40  C   UNL d   1      14.910  11.427  -8.490 -0.07 -0.01    +0.330    16.765
ATOM     41  O   UNL d   1      15.266  11.022  -9.581 -0.08 +0.01    -0.246    16.765
ATOM     42  O   UNL d   1      15.078  10.706  -7.370 -0.06 +0.03    -0.477    16.765
ATOM     43  H   UNL d   1      14.415  11.077  -6.751 +0.10 -0.02    +0.295    16.765
ATOM     44  C   UNL d   1       7.064  19.925  -3.112 -0.32 -0.03    +0.141    16.765
ATOM     45  C   UNL d   1       8.199  20.896  -3.304 -0.17 -0.06    +0.306    16.765
ATOM     46  O   UNL d   1       9.099  21.127  -2.516 -0.13 +0.03    -0.251    16.765
ATOM     47  O   UNL d   1       8.122  21.551  -4.477 -0.06 +0.15    -0.481    16.765
ATOM     48  H   UNL d   1       7.288  22.064  -4.420 -0.45 -0.20    +0.295    16.765
ATOM     49  C   UNL d   1      15.155  14.754  -3.935 -0.05 -0.00    +0.048    16.765
ATOM     50  C   UNL d   1      15.208  13.452  -4.734 -0.07 -0.01    +0.125    16.765
ATOM     51  C   UNL d   1      14.044  12.565  -4.393 -0.15 -0.05    +0.305    16.765
ATOM     52  O   UNL d   1      13.275  12.019  -5.164 -0.28 +0.05    -0.251    16.765
ATOM     53  O   UNL d   1      13.897  12.416  -3.061 -0.07 +0.10    -0.481    16.765
ATOM     54  H   UNL d   1      13.005  12.021  -2.963 -0.45 -0.14    +0.295    16.765
TER
ENDMDL
MODEL       90
USER    Run = 90
USER    Cluster Rank = 42
USER    Number of conformations in this cluster = 1
USER  
USER    RMSD from reference structure       = 17.884 A
USER  
USER    Estimated Free Energy of Binding    =   -4.00 kcal/mol  [=(1)+(2)+(3)-(4)]
USER    Estimated Inhibition Constant, Ki   =    1.18 mM (millimolar)  [Temperature = 298.15 K]
USER    
USER    (1) Final Intermolecular Energy     =   -7.87 kcal/mol
USER        vdW + Hbond + desolv Energy     =   -7.72 kcal/mol
USER        Electrostatic Energy            =   -0.15 kcal/mol
USER    (2) Final Total Internal Energy     =   -3.85 kcal/mol
USER    (3) Torsional Free Energy           =   +3.88 kcal/mol
USER    (4) Unbound System's Energy  [=(2)] =   -3.85 kcal/mol
USER    
USER    
USER  
USER    DPF = D:/Protein_go_brrr/autodock/final/mut_K82N/heme/dock.dpf
USER    NEWDPF move	heme_opt.pdbqt
USER    NEWDPF about	0.153000 0.018000 -0.028000
USER    NEWDPF tran0	10.451129 17.061450 -8.656104
USER    NEWDPF axisangle0	0.925924 0.064904 -0.372091 -42.373244
USER    NEWDPF quaternion0	0.334635 0.023457 -0.134476 -0.932408
USER    NEWDPF dihe0	168.70 -144.98 142.63 -19.98 -146.95 42.28 -52.55 23.15 11.20 -93.91 60.77 -94.98 109.96 
USER  
USER                              x       y       z    vdW   Elec        q     RMS 
ATOM      1  O   UNL d   1       5.469  19.222  -6.360 -0.62 +0.12    -0.289    17.884
ATOM      2  O   UNL d   1       6.675  15.096 -12.518 -0.16 +0.01    -0.289    17.884
ATOM      3  N   UNL d   1       8.624  18.289  -7.396 -0.08 +0.02    -0.247    17.884
ATOM      4  N   UNL d   1       8.083  16.472  -9.684 -0.17 +0.02    -0.247    17.884
ATOM      5  N   UNL d   1      10.829  15.632  -9.546 -0.07 -0.01    -0.354    17.884
ATOM      6  N   UNL d   1      11.377  17.506  -7.161 -0.04 +0.01    -0.354    17.884
ATOM      7  C   UNL d   1       7.718  19.427  -5.424 -0.22 -0.02    +0.084    17.884
ATOM      8  C   UNL d   1       5.985  16.794 -10.895 -0.23 -0.02    +0.084    17.884
ATOM      9  C   UNL d   1       6.891  17.161  -9.715 -0.26 -0.01    +0.058    17.884
ATOM     10  C   UNL d   1       8.930  18.876  -6.179 -0.13 -0.01    +0.058    17.884
ATOM     11  C   UNL d   1       6.674  19.066  -6.437 -0.24 -0.05    +0.193    17.884
ATOM     12  C   UNL d   1       7.352  18.405  -7.597 -0.19 -0.02    +0.109    17.884
ATOM     13  C   UNL d   1       6.867  15.742 -11.506 -0.19 -0.02    +0.193    17.884
ATOM     14  C   UNL d   1       7.444  18.652  -4.132 -0.43 -0.01    +0.026    17.884
ATOM     15  C   UNL d   1       6.529  18.041  -8.769 -0.28 -0.01    +0.055    17.884
ATOM     16  C   UNL d   1       5.844  17.954 -11.885 -0.09 -0.00    +0.026    17.884
ATOM     17  C   UNL d   1       8.103  15.638 -10.673 -0.24 -0.01    +0.109    17.884
ATOM     18  C   UNL d   1      10.183  19.044  -5.716 -0.11 -0.01    +0.050    17.884
ATOM     19  C   UNL d   1      11.368  18.643  -6.386 -0.07 -0.00    +0.045    17.884
ATOM     20  C   UNL d   1      10.344  14.706 -10.434 -0.30 +0.00    +0.045    17.884
ATOM     21  C   UNL d   1       9.138  14.649 -11.009 -0.27 +0.00    +0.057    17.884
ATOM     22  C   UNL d   1      12.492  14.152  -9.890 -0.20 -0.00    -0.019    17.884
ATOM     23  C   UNL d   1      12.119  15.380  -9.160 -0.15 +0.00    +0.045    17.884
ATOM     24  C   UNL d   1      11.438  13.759 -10.643 -0.29 -0.00    -0.022    17.884
ATOM     25  C   UNL d   1      12.643  17.257  -7.639 -0.07 -0.00    +0.049    17.884
ATOM     26  C   UNL d   1      12.651  19.167  -6.390 -0.03 +0.00    -0.018    17.884
ATOM     27  C   UNL d   1      13.448  18.299  -7.199 -0.03 -0.00    +0.003    17.884
ATOM     28  C   UNL d   1      12.936  16.053  -8.335 -0.12 -0.00    +0.052    17.884
ATOM     29  C   UNL d   1      11.331  12.588 -11.560 -0.23 +0.00    +0.046    17.884
ATOM     30  C   UNL d   1      13.112  20.400  -5.689 -0.01 -0.00    +0.046    17.884
ATOM     31  H   UNL d   1      10.286  16.449  -9.289 +0.04 +0.00    +0.166    17.884
ATOM     32  H   UNL d   1      10.562  16.923  -7.311 +0.05 +0.00    +0.166    17.884
ATOM     33  C   UNL d   1       7.728  20.940  -5.180 -0.09 -0.05    +0.141    17.884
ATOM     34  C   UNL d   1       7.799  21.733  -6.457 -0.06 -0.09    +0.306    17.884
ATOM     35  O   UNL d   1       8.813  22.138  -6.998 -0.04 +0.04    -0.251    17.884
ATOM     36  O   UNL d   1       6.585  21.971  -6.986 -0.06 +0.15    -0.481    17.884
ATOM     37  H   UNL d   1       5.983  21.363  -6.506 -0.33 -0.13    +0.295    17.884
ATOM     38  C   UNL d   1      14.846  18.464  -7.458 -0.01 -0.00    +0.017    17.884
ATOM     39  C   UNL d   1      15.798  17.563  -7.172 -0.01 -0.01    +0.092    17.884
ATOM     40  C   UNL d   1      17.196  17.849  -7.506 +0.00 -0.02    +0.330    17.884
ATOM     41  O   UNL d   1      17.787  18.906  -7.393 +0.00 +0.01    -0.246    17.884
ATOM     42  O   UNL d   1      17.795  16.741  -7.971 +0.00 +0.03    -0.477    17.884
ATOM     43  H   UNL d   1      17.087  16.283  -8.470 +0.00 -0.02    +0.295    17.884
ATOM     44  C   UNL d   1       4.617  16.214 -10.522 -0.28 -0.04    +0.141    17.884
ATOM     45  C   UNL d   1       4.150  15.138 -11.465 -0.26 -0.04    +0.306    17.884
ATOM     46  O   UNL d   1       3.395  15.278 -12.411 -0.26 +0.05    -0.251    17.884
ATOM     47  O   UNL d   1       4.643  13.927 -11.148 -0.39 +0.00    -0.481    17.884
ATOM     48  H   UNL d   1       5.562  14.102 -10.855 -0.26 -0.06    +0.295    17.884
ATOM     49  C   UNL d   1      13.827  13.476  -9.774 -0.14 -0.00    +0.048    17.884
ATOM     50  C   UNL d   1      14.491  13.756  -8.426 -0.11 -0.00    +0.125    17.884
ATOM     51  C   UNL d   1      15.794  14.479  -8.611 -0.01 -0.01    +0.305    17.884
ATOM     52  O   UNL d   1      16.182  15.072  -9.603 -0.01 +0.01    -0.251    17.884
ATOM     53  O   UNL d   1      16.571  14.408  -7.511 +0.00 +0.03    -0.481    17.884
ATOM     54  H   UNL d   1      17.473  14.598  -7.844 +0.01 -0.02    +0.295    17.884
TER
ENDMDL
MODEL       17
USER    Run = 17
USER    Cluster Rank = 43
USER    Number of conformations in this cluster = 1
USER  
USER    RMSD from reference structure       = 14.752 A
USER  
USER    Estimated Free Energy of Binding    =   -3.97 kcal/mol  [=(1)+(2)+(3)-(4)]
USER    Estimated Inhibition Constant, Ki   =    1.22 mM (millimolar)  [Temperature = 298.15 K]
USER    
USER    (1) Final Intermolecular Energy     =   -7.85 kcal/mol
USER        vdW + Hbond + desolv Energy     =   -7.36 kcal/mol
USER        Electrostatic Energy            =   -0.49 kcal/mol
USER    (2) Final Total Internal Energy     =   -2.39 kcal/mol
USER    (3) Torsional Free Energy           =   +3.88 kcal/mol
USER    (4) Unbound System's Energy  [=(2)] =   -2.39 kcal/mol
USER    
USER    
USER  
USER    DPF = D:/Protein_go_brrr/autodock/final/mut_K82N/heme/dock.dpf
USER    NEWDPF move	heme_opt.pdbqt
USER    NEWDPF about	0.153000 0.018000 -0.028000
USER    NEWDPF tran0	12.824576 8.594794 -10.034211
USER    NEWDPF axisangle0	0.168952 0.984545 -0.046108 -139.746075
USER    NEWDPF quaternion0	0.158635 0.924421 -0.043292 -0.344102
USER    NEWDPF dihe0	131.18 46.49 162.94 -51.31 -133.64 36.45 -64.53 51.93 22.46 -164.29 -66.60 -77.03 -163.33 
USER  
USER                              x       y       z    vdW   Elec        q     RMS 
ATOM      1  O   UNL d   1      17.773   8.591  -6.830 -0.01 +0.01    -0.289    14.752
ATOM      2  O   UNL d   1      12.170   3.610  -7.249 -0.24 +0.18    -0.289    14.752
ATOM      3  N   UNL d   1      14.971   9.092  -8.777 -0.11 +0.01    -0.247    14.752
ATOM      4  N   UNL d   1      13.507   6.516  -8.542 -0.11 +0.03    -0.247    14.752
ATOM      5  N   UNL d   1      11.875   7.348 -10.758 -0.11 +0.05    -0.354    14.752
ATOM      6  N   UNL d   1      13.411  10.009 -11.007 -0.12 +0.01    -0.354    14.752
ATOM      7  C   UNL d   1      17.090  10.281  -8.459 -0.03 -0.00    +0.084    14.752
ATOM      8  C   UNL d   1      13.889   5.194  -6.523 -0.20 -0.01    +0.084    14.752
ATOM      9  C   UNL d   1      14.242   6.413  -7.382 -0.17 -0.00    +0.058    14.752
ATOM     10  C   UNL d   1      15.732  10.183  -9.161 -0.09 -0.00    +0.058    14.752
ATOM     11  C   UNL d   1      16.954   9.062  -7.597 -0.03 -0.01    +0.193    14.752
ATOM     12  C   UNL d   1      15.616   8.444  -7.863 -0.10 -0.01    +0.109    14.752
ATOM     13  C   UNL d   1      12.845   4.605  -7.429 -0.22 -0.05    +0.193    14.752
ATOM     14  C   UNL d   1      18.255  10.073  -9.430 -0.01 -0.00    +0.026    14.752
ATOM     15  C   UNL d   1      15.218   7.273  -7.055 -0.15 -0.00    +0.055    14.752
ATOM     16  C   UNL d   1      13.225   5.601  -5.205 -0.25 -0.00    +0.026    14.752
ATOM     17  C   UNL d   1      12.713   5.497  -8.620 -0.19 -0.02    +0.109    14.752
ATOM     18  C   UNL d   1      15.306  11.141 -10.005 -0.10 -0.00    +0.050    14.752
ATOM     19  C   UNL d   1      14.035  11.178 -10.633 -0.15 -0.00    +0.045    14.752
ATOM     20  C   UNL d   1      11.477   6.041 -10.650 -0.24 -0.01    +0.045    14.752
ATOM     21  C   UNL d   1      11.787   5.146  -9.707 -0.31 -0.02    +0.057    14.752
ATOM     22  C   UNL d   1      10.540   6.945 -12.527 -0.23 +0.00    -0.019    14.752
ATOM     23  C   UNL d   1      11.360   7.977 -11.860 -0.24 -0.00    +0.045    14.752
ATOM     24  C   UNL d   1      10.612   5.802 -11.805 -0.24 +0.01    -0.022    14.752
ATOM     25  C   UNL d   1      12.240  10.280 -11.676 -0.21 +0.00    +0.049    14.752
ATOM     26  C   UNL d   1      13.232  12.233 -11.037 -0.17 +0.00    -0.018    14.752
ATOM     27  C   UNL d   1      12.090  11.660 -11.677 -0.21 +0.00    +0.003    14.752
ATOM     28  C   UNL d   1      11.497   9.238 -12.296 -0.25 +0.00    +0.052    14.752
ATOM     29  C   UNL d   1       9.950   4.492 -12.064 -0.27 -0.03    +0.046    14.752
ATOM     30  C   UNL d   1      13.505  13.686 -10.840 -0.12 -0.00    +0.046    14.752
ATOM     31  H   UNL d   1      12.427   7.792 -10.032 +0.03 -0.02    +0.166    14.752
ATOM     32  H   UNL d   1      13.798   9.088 -10.839 +0.03 -0.01    +0.166    14.752
ATOM     33  C   UNL d   1      17.295  11.530  -7.596 -0.02 -0.01    +0.141    14.752
ATOM     34  C   UNL d   1      16.451  11.518  -6.350 -0.03 -0.02    +0.306    14.752
ATOM     35  O   UNL d   1      15.267  11.799  -6.279 -0.08 +0.02    -0.251    14.752
ATOM     36  O   UNL d   1      17.144  11.148  -5.258 +0.00 +0.03    -0.481    14.752
ATOM     37  H   UNL d   1      17.582  10.309  -5.516 +0.02 -0.02    +0.295    14.752
ATOM     38  C   UNL d   1      11.012  12.400 -12.259 -0.15 +0.00    +0.017    14.752
ATOM     39  C   UNL d   1      10.398  12.098 -13.413 -0.14 +0.01    +0.092    14.752
ATOM     40  C   UNL d   1       9.291  12.930 -13.892 -0.08 +0.05    +0.330    14.752
ATOM     41  O   UNL d   1       9.156  14.132 -13.766 -0.08 -0.02    -0.246    14.752
ATOM     42  O   UNL d   1       8.388  12.173 -14.534 -0.12 -0.16    -0.477    14.752
ATOM     43  H   UNL d   1       8.199  12.676 -15.352 +0.07 +0.07    +0.295    14.752
ATOM     44  C   UNL d   1      15.032   4.201  -6.285 -0.08 -0.01    +0.141    14.752
ATOM     45  C   UNL d   1      14.978   3.548  -4.930 -0.06 +0.04    +0.306    14.752
ATOM     46  O   UNL d   1      15.732   3.753  -3.994 -0.03 -0.03    -0.251    14.752
ATOM     47  O   UNL d   1      13.987   2.643  -4.833 -0.28 -0.25    -0.481    14.752
ATOM     48  H   UNL d   1      13.382   2.858  -5.575 +0.09 +0.05    +0.295    14.752
ATOM     49  C   UNL d   1       9.782   7.166 -13.803 -0.23 +0.01    +0.048    14.752
ATOM     50  C   UNL d   1      10.352   6.339 -14.954 -0.09 -0.01    +0.125    14.752
ATOM     51  C   UNL d   1       9.364   5.302 -15.410 -0.06 -0.12    +0.305    14.752
ATOM     52  O   UNL d   1       8.174   5.453 -15.624 -0.71 +0.00    -0.251    14.752
ATOM     53  O   UNL d   1       9.938   4.093 -15.567 -0.01 +0.40    -0.481    14.752
ATOM     54  H   UNL d   1       9.366   3.489 -15.048 -0.43 -0.64    +0.295    14.752
TER
ENDMDL
MODEL       18
USER    Run = 18
USER    Cluster Rank = 44
USER    Number of conformations in this cluster = 1
USER  
USER    RMSD from reference structure       = 12.513 A
USER  
USER    Estimated Free Energy of Binding    =   -3.83 kcal/mol  [=(1)+(2)+(3)-(4)]
USER    Estimated Inhibition Constant, Ki   =    1.57 mM (millimolar)  [Temperature = 298.15 K]
USER    
USER    (1) Final Intermolecular Energy     =   -7.70 kcal/mol
USER        vdW + Hbond + desolv Energy     =   -7.52 kcal/mol
USER        Electrostatic Energy            =   -0.18 kcal/mol
USER    (2) Final Total Internal Energy     =   -3.74 kcal/mol
USER    (3) Torsional Free Energy           =   +3.88 kcal/mol
USER    (4) Unbound System's Energy  [=(2)] =   -3.74 kcal/mol
USER    
USER    
USER  
USER    DPF = D:/Protein_go_brrr/autodock/final/mut_K82N/heme/dock.dpf
USER    NEWDPF move	heme_opt.pdbqt
USER    NEWDPF about	0.153000 0.018000 -0.028000
USER    NEWDPF tran0	11.215975 -2.322410 -10.216564
USER    NEWDPF axisangle0	0.660735 -0.118031 -0.741281 112.370836
USER    NEWDPF quaternion0	0.548967 -0.098066 -0.615888 0.556507
USER    NEWDPF dihe0	163.56 168.76 -85.07 -100.51 -147.82 -16.69 153.79 -36.24 6.82 -93.42 57.51 -47.67 125.54 
USER  
USER                              x       y       z    vdW   Elec        q     RMS 
ATOM      1  O   UNL d   1       8.263  -5.701  -6.393 -0.19 +0.08    -0.289    12.513
ATOM      2  O   UNL d   1      15.365  -3.262  -6.351 -0.03 -0.02    -0.289    12.513
ATOM      3  N   UNL d   1       9.609  -3.826  -8.956 -0.14 +0.14    -0.247    12.513
ATOM      4  N   UNL d   1      12.299  -3.096  -7.927 -0.14 +0.11    -0.247    12.513
ATOM      5  N   UNL d   1      12.483  -1.163 -10.048 +0.01 +0.34    -0.354    12.513
ATOM      6  N   UNL d   1       9.683  -1.913 -11.096 -0.15 +0.30    -0.354    12.513
ATOM      7  C   UNL d   1       7.371  -4.671  -8.423 -0.32 -0.03    +0.084    12.513
ATOM      8  C   UNL d   1      13.310  -4.591  -6.280 -0.08 +0.00    +0.084    12.513
ATOM      9  C   UNL d   1      12.101  -4.208  -7.140 -0.08 -0.01    +0.058    12.513
ATOM     10  C   UNL d   1       8.286  -3.879  -9.361 -0.29 -0.03    +0.058    12.513
ATOM     11  C   UNL d   1       8.415  -5.073  -7.425 -0.18 -0.05    +0.193    12.513
ATOM     12  C   UNL d   1       9.733  -4.522  -7.873 -0.17 -0.03    +0.109    12.513
ATOM     13  C   UNL d   1      14.218  -3.469  -6.698 -0.08 +0.01    +0.193    12.513
ATOM     14  C   UNL d   1       6.343  -3.773  -7.729 -0.65 -0.01    +0.026    12.513
ATOM     15  C   UNL d   1      10.935  -4.870  -7.089 -0.10 -0.01    +0.055    12.513
ATOM     16  C   UNL d   1      13.929  -5.918  -6.730 -0.02 -0.00    +0.026    12.513
ATOM     17  C   UNL d   1      13.484  -2.630  -7.693 -0.16 -0.02    +0.109    12.513
ATOM     18  C   UNL d   1       7.831  -3.366 -10.520 -0.27 -0.02    +0.050    12.513
ATOM     19  C   UNL d   1       8.619  -2.694 -11.488 -0.32 -0.02    +0.045    12.513
ATOM     20  C   UNL d   1      13.581  -0.806  -9.308 -0.13 -0.03    +0.045    12.513
ATOM     21  C   UNL d   1      14.114  -1.424  -8.249 -0.18 -0.02    +0.057    12.513
ATOM     22  C   UNL d   1      13.278   0.733 -10.968 -0.12 +0.01    -0.019    12.513
ATOM     23  C   UNL d   1      12.221  -0.293 -11.072 -0.11 -0.03    +0.045    12.513
ATOM     24  C   UNL d   1      14.080   0.423  -9.923 -0.11 +0.01    -0.022    12.513
ATOM     25  C   UNL d   1      10.248  -1.286 -12.183 -0.21 -0.04    +0.049    12.513
ATOM     26  C   UNL d   1       8.513  -2.601 -12.867 -0.28 +0.01    -0.018    12.513
ATOM     27  C   UNL d   1       9.556  -1.726 -13.302 -0.22 -0.00    +0.003    12.513
ATOM     28  C   UNL d   1      11.263  -0.306 -12.012 -0.18 -0.04    +0.052    12.513
ATOM     29  C   UNL d   1      15.286   1.146  -9.426 -0.06 -0.01    +0.046    12.513
ATOM     30  C   UNL d   1       7.506  -3.283 -13.730 -0.12 -0.02    +0.046    12.513
ATOM     31  H   UNL d   1      11.991  -2.032  -9.873 -0.03 -0.17    +0.166    12.513
ATOM     32  H   UNL d   1       9.968  -1.797 -10.131 -0.41 -0.24    +0.166    12.513
ATOM     33  C   UNL d   1       6.711  -5.909  -9.039 -0.30 -0.04    +0.141    12.513
ATOM     34  C   UNL d   1       7.710  -6.855  -9.648 -0.09 -0.08    +0.306    12.513
ATOM     35  O   UNL d   1       8.064  -6.877 -10.814 -0.06 +0.05    -0.251    12.513
ATOM     36  O   UNL d   1       8.214  -7.724  -8.752 -0.02 +0.15    -0.481    12.513
ATOM     37  H   UNL d   1       8.028  -7.315  -7.880 -0.40 -0.18    +0.295    12.513
ATOM     38  C   UNL d   1       9.798  -1.343 -14.660 -0.14 -0.01    +0.017    12.513
ATOM     39  C   UNL d   1      10.634  -0.369 -15.053 -0.08 -0.05    +0.092    12.513
ATOM     40  C   UNL d   1      10.806  -0.086 -16.480 -0.01 -0.14    +0.330    12.513
ATOM     41  O   UNL d   1      10.531  -0.808 -17.420 -0.01 +0.07    -0.246    12.513
ATOM     42  O   UNL d   1      11.324   1.140 -16.648 +0.00 +0.19    -0.477    12.513
ATOM     43  H   UNL d   1      11.258   1.547 -15.760 +0.03 -0.16    +0.295    12.513
ATOM     44  C   UNL d   1      13.076  -4.574  -4.766 -0.10 +0.03    +0.141    12.513
ATOM     45  C   UNL d   1      14.267  -4.082  -3.987 -0.06 +0.07    +0.306    12.513
ATOM     46  O   UNL d   1      14.358  -3.024  -3.389 -0.08 -0.11    -0.251    12.513
ATOM     47  O   UNL d   1      15.299  -4.945  -4.025 +0.01 -0.04    -0.481    12.513
ATOM     48  H   UNL d   1      15.856  -4.632  -4.769 +0.02 +0.02    +0.295    12.513
ATOM     49  C   UNL d   1      13.395   1.918 -11.882 -0.07 -0.02    +0.048    12.513
ATOM     50  C   UNL d   1      12.034   2.553 -12.167 -0.12 -0.07    +0.125    12.513
ATOM     51  C   UNL d   1      11.745   2.563 -13.641 -0.05 -0.19    +0.305    12.513
ATOM     52  O   UNL d   1      12.512   2.838 -14.547 -0.02 +0.10    -0.251    12.513
ATOM     53  O   UNL d   1      10.466   2.230 -13.907 -0.01 +0.64    -0.481    12.513
ATOM     54  H   UNL d   1       9.963   3.050 -13.722 -0.48 -0.60    +0.295    12.513
TER
ENDMDL
MODEL       44
USER    Run = 44
USER    Cluster Rank = 45
USER    Number of conformations in this cluster = 1
USER  
USER    RMSD from reference structure       = 20.590 A
USER  
USER    Estimated Free Energy of Binding    =   -3.81 kcal/mol  [=(1)+(2)+(3)-(4)]
USER    Estimated Inhibition Constant, Ki   =    1.62 mM (millimolar)  [Temperature = 298.15 K]
USER    
USER    (1) Final Intermolecular Energy     =   -7.69 kcal/mol
USER        vdW + Hbond + desolv Energy     =   -7.66 kcal/mol
USER        Electrostatic Energy            =   -0.03 kcal/mol
USER    (2) Final Total Internal Energy     =   -4.83 kcal/mol
USER    (3) Torsional Free Energy           =   +3.88 kcal/mol
USER    (4) Unbound System's Energy  [=(2)] =   -4.83 kcal/mol
USER    
USER    
USER  
USER    DPF = D:/Protein_go_brrr/autodock/final/mut_K82N/heme/dock.dpf
USER    NEWDPF move	heme_opt.pdbqt
USER    NEWDPF about	0.153000 0.018000 -0.028000
USER    NEWDPF tran0	7.023117 22.368077 -6.158255
USER    NEWDPF axisangle0	-0.593119 -0.141731 0.792541 -164.628100
USER    NEWDPF quaternion0	-0.587791 -0.140457 0.785421 -0.133743
USER    NEWDPF dihe0	177.74 171.80 -120.01 -48.33 -148.07 -50.30 127.67 -89.28 25.11 -32.50 -105.19 25.44 -7.92 
USER  
USER                              x       y       z    vdW   Elec        q     RMS 
ATOM      1  O   UNL d   1       7.858  18.660  -1.652 -0.20 +0.02    -0.289    20.590
ATOM      2  O   UNL d   1       9.484  25.953  -2.399 -0.02 +0.03    -0.289    20.590
ATOM      3  N   UNL d   1       7.299  20.409  -4.571 -0.13 +0.09    -0.247    20.590
ATOM      4  N   UNL d   1       7.950  23.210  -3.825 -0.10 +0.08    -0.247    20.590
ATOM      5  N   UNL d   1       6.681  24.057  -6.262 -0.04 +0.11    -0.354    20.590
ATOM      6  N   UNL d   1       5.992  21.149  -7.019 -0.08 +0.11    -0.354    20.590
ATOM      7  C   UNL d   1       6.781  18.146  -3.785 -0.47 -0.02    +0.084    20.590
ATOM      8  C   UNL d   1       9.530  23.540  -1.991 -0.09 -0.01    +0.084    20.590
ATOM      9  C   UNL d   1       8.687  22.586  -2.843 -0.19 -0.01    +0.058    20.590
ATOM     10  C   UNL d   1       6.706  19.199  -4.894 -0.37 -0.02    +0.058    20.590
ATOM     11  C   UNL d   1       7.537  18.968  -2.785 -0.29 -0.03    +0.193    20.590
ATOM     12  C   UNL d   1       7.814  20.309  -3.389 -0.26 -0.02    +0.109    20.590
ATOM     13  C   UNL d   1       9.107  24.824  -2.646 -0.06 -0.03    +0.193    20.590
ATOM     14  C   UNL d   1       5.400  17.815  -3.213 -0.65 -0.01    +0.026    20.590
ATOM     15  C   UNL d   1       8.634  21.264  -2.617 -0.23 -0.01    +0.055    20.590
ATOM     16  C   UNL d   1      11.030  23.337  -2.227 -0.04 -0.00    +0.026    20.590
ATOM     17  C   UNL d   1       8.142  24.487  -3.736 -0.13 -0.02    +0.109    20.590
ATOM     18  C   UNL d   1       6.184  18.914  -6.102 -0.29 -0.01    +0.050    20.590
ATOM     19  C   UNL d   1       6.148  19.795  -7.212 -0.28 -0.01    +0.045    20.590
ATOM     20  C   UNL d   1       6.857  25.272  -5.653 -0.15 -0.01    +0.045    20.590
ATOM     21  C   UNL d   1       7.521  25.558  -4.529 -0.13 -0.01    +0.057    20.590
ATOM     22  C   UNL d   1       5.608  25.567  -7.544 -0.11 +0.00    -0.019    20.590
ATOM     23  C   UNL d   1       5.939  24.134  -7.411 -0.11 -0.01    +0.045    20.590
ATOM     24  C   UNL d   1       6.155  26.236  -6.501 -0.10 +0.00    -0.022    20.590
ATOM     25  C   UNL d   1       5.893  21.801  -8.227 -0.15 -0.01    +0.049    20.590
ATOM     26  C   UNL d   1       6.189  19.565  -8.578 -0.18 +0.00    -0.018    20.590
ATOM     27  C   UNL d   1       6.047  20.837  -9.214 -0.10 -0.00    +0.003    20.590
ATOM     28  C   UNL d   1       5.572  23.184  -8.284 -0.12 -0.01    +0.052    20.590
ATOM     29  C   UNL d   1       6.109  27.695  -6.202 -0.04 -0.01    +0.046    20.590
ATOM     30  C   UNL d   1       6.351  18.246  -9.255 -0.24 -0.01    +0.046    20.590
ATOM     31  H   UNL d   1       7.137  23.222  -5.911 -0.35 -0.07    +0.166    20.590
ATOM     32  H   UNL d   1       5.920  21.580  -6.105 -0.45 -0.11    +0.166    20.590
ATOM     33  C   UNL d   1       7.562  16.875  -4.138 -0.41 -0.03    +0.141    20.590
ATOM     34  C   UNL d   1       9.048  17.105  -4.190 -0.17 -0.07    +0.306    20.590
ATOM     35  O   UNL d   1       9.701  17.373  -5.184 -0.15 +0.03    -0.251    20.590
ATOM     36  O   UNL d   1       9.634  16.986  -2.985 -0.08 +0.16    -0.481    20.590
ATOM     37  H   UNL d   1       8.889  16.851  -2.361 -0.27 -0.12    +0.295    20.590
ATOM     38  C   UNL d   1       6.021  21.055 -10.629 -0.04 -0.00    +0.017    20.590
ATOM     39  C   UNL d   1       6.914  21.782 -11.318 -0.01 -0.01    +0.092    20.590
ATOM     40  C   UNL d   1       6.784  21.912 -12.771 +0.00 -0.04    +0.330    20.590
ATOM     41  O   UNL d   1       6.669  21.021 -13.590 -0.00 +0.03    -0.246    20.590
ATOM     42  O   UNL d   1       6.798  23.208 -13.122 +0.00 +0.05    -0.477    20.590
ATOM     43  H   UNL d   1       6.756  23.683 -12.266 +0.00 -0.03    +0.295    20.590
ATOM     44  C   UNL d   1       9.202  23.553  -0.494 -0.12 -0.01    +0.141    20.590
ATOM     45  C   UNL d   1       8.024  24.426  -0.152 -0.11 -0.04    +0.306    20.590
ATOM     46  O   UNL d   1       6.847  24.117  -0.217 -0.14 +0.02    -0.251    20.590
ATOM     47  O   UNL d   1       8.394  25.661   0.232 -0.01 +0.08    -0.481    20.590
ATOM     48  H   UNL d   1       8.891  26.020  -0.534 +0.04 -0.04    +0.295    20.590
ATOM     49  C   UNL d   1       4.784  26.141  -8.658 -0.06 -0.01    +0.048    20.590
ATOM     50  C   UNL d   1       5.652  26.591  -9.834 -0.01 -0.01    +0.125    20.590
ATOM     51  C   UNL d   1       6.131  25.411 -10.630 -0.00 -0.04    +0.305    20.590
ATOM     52  O   UNL d   1       7.195  24.827 -10.526 -0.00 +0.03    -0.251    20.590
ATOM     53  O   UNL d   1       5.225  25.023 -11.551 +0.00 +0.06    -0.481    20.590
ATOM     54  H   UNL d   1       5.747  24.939 -12.376 +0.00 -0.03    +0.295    20.590
TER
ENDMDL
MODEL       10
USER    Run = 10
USER    Cluster Rank = 46
USER    Number of conformations in this cluster = 1
USER  
USER    RMSD from reference structure       = 16.048 A
USER  
USER    Estimated Free Energy of Binding    =   -3.79 kcal/mol  [=(1)+(2)+(3)-(4)]
USER    Estimated Inhibition Constant, Ki   =    1.66 mM (millimolar)  [Temperature = 298.15 K]
USER    
USER    (1) Final Intermolecular Energy     =   -7.67 kcal/mol
USER        vdW + Hbond + desolv Energy     =   -7.53 kcal/mol
USER        Electrostatic Energy            =   -0.14 kcal/mol
USER    (2) Final Total Internal Energy     =   -3.07 kcal/mol
USER    (3) Torsional Free Energy           =   +3.88 kcal/mol
USER    (4) Unbound System's Energy  [=(2)] =   -3.07 kcal/mol
USER    
USER    
USER  
USER    DPF = D:/Protein_go_brrr/autodock/final/mut_K82N/heme/dock.dpf
USER    NEWDPF move	heme_opt.pdbqt
USER    NEWDPF about	0.153000 0.018000 -0.028000
USER    NEWDPF tran0	11.429771 15.980233 -4.605574
USER    NEWDPF axisangle0	-0.050546 0.695797 0.716458 -117.554192
USER    NEWDPF quaternion0	-0.043225 0.595015 0.612684 -0.518369
USER    NEWDPF dihe0	-102.78 55.85 106.12 119.39 39.35 134.45 -43.20 35.71 134.02 -127.62 115.77 8.30 46.44 
USER  
USER                              x       y       z    vdW   Elec        q     RMS 
ATOM      1  O   UNL d   1      13.210  13.621   0.495 -0.10 +0.02    -0.289    16.048
ATOM      2  O   UNL d   1      15.086  12.017  -6.597 -0.08 +0.02    -0.289    16.048
ATOM      3  N   UNL d   1      11.784  15.203  -2.217 -0.20 +0.06    -0.247    16.048
ATOM      4  N   UNL d   1      13.340  14.149  -4.519 -0.14 +0.04    -0.247    16.048
ATOM      5  N   UNL d   1      12.198  16.239  -6.130 +0.00 +0.01    -0.354    16.048
ATOM      6  N   UNL d   1      10.603  17.338  -3.732 -0.09 +0.06    -0.354    16.048
ATOM      7  C   UNL d   1      11.661  15.490   0.214 -0.20 -0.01    +0.084    16.048
ATOM      8  C   UNL d   1      14.372  11.949  -4.257 -0.19 -0.01    +0.084    16.048
ATOM      9  C   UNL d   1      13.593  13.117  -3.643 -0.19 -0.01    +0.058    16.048
ATOM     10  C   UNL d   1      11.232  15.944  -1.185 -0.22 -0.01    +0.058    16.048
ATOM     11  C   UNL d   1      12.538  14.351  -0.210 -0.17 -0.02    +0.193    16.048
ATOM     12  C   UNL d   1      12.510  14.264  -1.704 -0.24 -0.02    +0.109    16.048
ATOM     13  C   UNL d   1      14.548  12.526  -5.633 -0.12 -0.02    +0.193    16.048
ATOM     14  C   UNL d   1      12.521  16.542   0.920 -0.08 -0.00    +0.026    16.048
ATOM     15  C   UNL d   1      13.234  13.150  -2.350 -0.18 -0.01    +0.055    16.048
ATOM     16  C   UNL d   1      13.514  10.685  -4.359 -0.37 -0.01    +0.026    16.048
ATOM     17  C   UNL d   1      13.884  13.864  -5.658 -0.16 -0.01    +0.109    16.048
ATOM     18  C   UNL d   1      10.325  16.922  -1.360 -0.24 -0.01    +0.050    16.048
ATOM     19  C   UNL d   1       9.807  17.350  -2.609 -0.23 -0.01    +0.045    16.048
ATOM     20  C   UNL d   1      13.147  15.764  -6.997 -0.11 -0.00    +0.045    16.048
ATOM     21  C   UNL d   1      13.932  14.689  -6.875 -0.14 -0.00    +0.057    16.048
ATOM     22  C   UNL d   1      12.208  17.647  -7.887 -0.08 +0.00    -0.019    16.048
ATOM     23  C   UNL d   1      11.578  17.373  -6.580 -0.05 -0.00    +0.045    16.048
ATOM     24  C   UNL d   1      13.135  16.690  -8.129 -0.08 +0.00    -0.022    16.048
ATOM     25  C   UNL d   1       9.931  17.875  -4.806 -0.18 -0.01    +0.049    16.048
ATOM     26  C   UNL d   1       8.575  17.874  -2.970 -0.35 +0.00    -0.018    16.048
ATOM     27  C   UNL d   1       8.653  18.186  -4.363 -0.28 -0.00    +0.003    16.048
ATOM     28  C   UNL d   1      10.599  18.114  -6.038 -0.12 -0.00    +0.052    16.048
ATOM     29  C   UNL d   1      14.022  16.529  -9.317 -0.04 -0.00    +0.046    16.048
ATOM     30  C   UNL d   1       7.396  18.072  -2.079 -0.48 -0.01    +0.046    16.048
ATOM     31  H   UNL d   1      11.953  15.728  -5.288 +0.05 -0.01    +0.166    16.048
ATOM     32  H   UNL d   1      11.562  17.012  -3.736 +0.05 -0.02    +0.166    16.048
ATOM     33  C   UNL d   1      10.529  14.990   1.118 -0.18 -0.01    +0.141    16.048
ATOM     34  C   UNL d   1      11.012  14.600   2.488 -0.11 -0.00    +0.306    16.048
ATOM     35  O   UNL d   1      11.033  15.315   3.475 -0.05 -0.00    -0.251    16.048
ATOM     36  O   UNL d   1      11.440  13.326   2.543 -0.05 -0.01    -0.481    16.048
ATOM     37  H   UNL d   1      12.311  13.339   2.091 +0.06 -0.00    +0.295    16.048
ATOM     38  C   UNL d   1       7.599  18.765  -5.139 -0.35 -0.00    +0.017    16.048
ATOM     39  C   UNL d   1       7.221  18.356  -6.360 -0.29 -0.02    +0.092    16.048
ATOM     40  C   UNL d   1       6.111  19.025  -7.044 -0.20 -0.11    +0.330    16.048
ATOM     41  O   UNL d   1       6.077  19.424  -8.192 -0.16 +0.07    -0.246    16.048
ATOM     42  O   UNL d   1       5.065  19.151  -6.212 -0.47 +0.25    -0.477    16.048
ATOM     43  H   UNL d   1       4.330  18.717  -6.692 -0.40 -0.27    +0.295    16.048
ATOM     44  C   UNL d   1      15.728  11.648  -3.610 -0.07 -0.01    +0.141    16.048
ATOM     45  C   UNL d   1      16.478  10.536  -4.294 -0.02 -0.02    +0.306    16.048
ATOM     46  O   UNL d   1      16.380   9.343  -4.062 -0.03 +0.01    -0.251    16.048
ATOM     47  O   UNL d   1      17.340  10.990  -5.222 +0.00 +0.03    -0.481    16.048
ATOM     48  H   UNL d   1      16.773  11.256  -5.977 +0.03 -0.02    +0.295    16.048
ATOM     49  C   UNL d   1      11.860  18.815  -8.763 -0.04 -0.00    +0.048    16.048
ATOM     50  C   UNL d   1      10.365  19.132  -8.720 -0.05 -0.01    +0.125    16.048
ATOM     51  C   UNL d   1       9.558  17.988  -9.266 -0.07 -0.02    +0.305    16.048
ATOM     52  O   UNL d   1       9.839  16.803  -9.243 -0.14 +0.00    -0.251    16.048
ATOM     53  O   UNL d   1       8.413  18.408  -9.840 -0.01 +0.05    -0.481    16.048
ATOM     54  H   UNL d   1       7.927  18.845  -9.110 +0.07 -0.04    +0.295    16.048
TER
ENDMDL
MODEL       22
USER    Run = 22
USER    Cluster Rank = 47
USER    Number of conformations in this cluster = 1
USER  
USER    RMSD from reference structure       = 20.135 A
USER  
USER    Estimated Free Energy of Binding    =   -3.71 kcal/mol  [=(1)+(2)+(3)-(4)]
USER    Estimated Inhibition Constant, Ki   =    1.92 mM (millimolar)  [Temperature = 298.15 K]
USER    
USER    (1) Final Intermolecular Energy     =   -7.59 kcal/mol
USER        vdW + Hbond + desolv Energy     =   -7.31 kcal/mol
USER        Electrostatic Energy            =   -0.27 kcal/mol
USER    (2) Final Total Internal Energy     =   -3.93 kcal/mol
USER    (3) Torsional Free Energy           =   +3.88 kcal/mol
USER    (4) Unbound System's Energy  [=(2)] =   -3.93 kcal/mol
USER    
USER    
USER  
USER    DPF = D:/Protein_go_brrr/autodock/final/mut_K82N/heme/dock.dpf
USER    NEWDPF move	heme_opt.pdbqt
USER    NEWDPF about	0.153000 0.018000 -0.028000
USER    NEWDPF tran0	7.240331 -8.017715 18.944958
USER    NEWDPF axisangle0	-0.425344 -0.138358 0.894393 66.978826
USER    NEWDPF quaternion0	-0.234698 -0.076344 0.493511 0.833988
USER    NEWDPF dihe0	-123.43 -172.66 167.98 -24.54 45.28 89.86 -24.03 -150.88 140.01 24.49 -82.39 -105.58 -5.08 
USER  
USER                              x       y       z    vdW   Elec        q     RMS 
ATOM      1  O   UNL d   1       5.811  -3.222  22.062 -0.18 +0.03    -0.289    20.135
ATOM      2  O   UNL d   1       1.911  -7.140  16.980 -0.33 +0.01    -0.289    20.135
ATOM      3  N   UNL d   1       7.130  -5.924  20.372 -0.12 +0.01    -0.247    20.135
ATOM      4  N   UNL d   1       4.807  -6.978  18.850 -0.08 +0.02    -0.247    20.135
ATOM      5  N   UNL d   1       6.336  -9.360  18.345 -0.04 +0.01    -0.354    20.135
ATOM      6  N   UNL d   1       8.735  -8.266  19.942 -0.05 -0.02    -0.354    20.135
ATOM      7  C   UNL d   1       7.900  -4.484  22.200 -0.15 -0.00    +0.084    20.135
ATOM      8  C   UNL d   1       3.029  -5.399  18.288 -0.33 -0.00    +0.084    20.135
ATOM      9  C   UNL d   1       4.343  -5.693  19.018 -0.24 -0.01    +0.058    20.135
ATOM     10  C   UNL d   1       8.157  -5.670  21.265 -0.13 -0.00    +0.058    20.135
ATOM     11  C   UNL d   1       6.554  -4.101  21.664 -0.18 -0.02    +0.193    20.135
ATOM     12  C   UNL d   1       6.209  -5.032  20.543 -0.22 -0.01    +0.109    20.135
ATOM     13  C   UNL d   1       2.812  -6.767  17.705 -0.24 -0.00    +0.193    20.135
ATOM     14  C   UNL d   1       7.746  -4.924  23.658 -0.06 -0.00    +0.026    20.135
ATOM     15  C   UNL d   1       4.959  -4.788  19.795 -0.27 -0.01    +0.055    20.135
ATOM     16  C   UNL d   1       3.225  -4.401  17.143 -0.46 -0.00    +0.026    20.135
ATOM     17  C   UNL d   1       3.956  -7.632  18.126 -0.17 -0.00    +0.109    20.135
ATOM     18  C   UNL d   1       9.330  -6.331  21.275 -0.09 +0.00    +0.050    20.135
ATOM     19  C   UNL d   1       9.689  -7.382  20.393 -0.08 +0.00    +0.045    20.135
ATOM     20  C   UNL d   1       5.109  -9.767  17.889 -0.15 -0.00    +0.045    20.135
ATOM     21  C   UNL d   1       3.992  -9.049  17.735 -0.21 -0.00    +0.057    20.135
ATOM     22  C   UNL d   1       6.532 -11.554  17.873 -0.12 +0.00    -0.019    20.135
ATOM     23  C   UNL d   1       7.261 -10.370  18.371 -0.10 -0.00    +0.045    20.135
ATOM     24  C   UNL d   1       5.260 -11.190  17.588 -0.19 +0.00    -0.022    20.135
ATOM     25  C   UNL d   1       9.314  -9.252  19.177 -0.14 +0.00    +0.049    20.135
ATOM     26  C   UNL d   1      10.912  -7.782  19.879 -0.16 -0.00    -0.018    20.135
ATOM     27  C   UNL d   1      10.666  -8.952  19.095 -0.20 +0.00    +0.003    20.135
ATOM     28  C   UNL d   1       8.554 -10.367  18.729 -0.11 +0.00    +0.052    20.135
ATOM     29  C   UNL d   1       4.149 -12.026  17.049 -0.30 -0.01    +0.046    20.135
ATOM     30  C   UNL d   1      12.230  -7.119  20.097 -0.16 +0.00    +0.046    20.135
ATOM     31  H   UNL d   1       6.523  -8.385  18.554 +0.06 -0.00    +0.166    20.135
ATOM     32  H   UNL d   1       7.754  -8.205  20.186 +0.04 +0.00    +0.166    20.135
ATOM     33  C   UNL d   1       8.884  -3.317  22.066 -0.16 -0.01    +0.141    20.135
ATOM     34  C   UNL d   1       8.690  -2.271  23.131 -0.15 +0.02    +0.306    20.135
ATOM     35  O   UNL d   1       9.349  -2.149  24.150 -0.10 -0.04    -0.251    20.135
ATOM     36  O   UNL d   1       7.677  -1.431  22.854 -0.15 -0.03    -0.481    20.135
ATOM     37  H   UNL d   1       6.906  -2.017  22.697 +0.09 -0.01    +0.295    20.135
ATOM     38  C   UNL d   1      11.665  -9.701  18.395 -0.12 +0.00    +0.017    20.135
ATOM     39  C   UNL d   1      12.071 -10.939  18.714 -0.10 +0.00    +0.092    20.135
ATOM     40  C   UNL d   1      13.093 -11.605  17.902 -0.05 +0.01    +0.330    20.135
ATOM     41  O   UNL d   1      14.301 -11.543  18.030 -0.05 -0.00    -0.246    20.135
ATOM     42  O   UNL d   1      12.513 -12.346  16.946 -0.04 -0.00    -0.477    20.135
ATOM     43  H   UNL d   1      11.563 -12.116  17.014 +0.05 +0.00    +0.295    20.135
ATOM     44  C   UNL d   1       1.853  -4.992  19.183 -0.29 +0.04    +0.141    20.135
ATOM     45  C   UNL d   1       1.973  -5.505  20.593 -0.11 +0.08    +0.306    20.135
ATOM     46  O   UNL d   1       1.905  -6.668  20.951 -0.05 -0.04    -0.251    20.135
ATOM     47  O   UNL d   1       2.148  -4.516  21.487 -0.11 -0.09    -0.481    20.135
ATOM     48  H   UNL d   1       2.359  -3.726  20.946 -0.36 -0.18    +0.295    20.135
ATOM     49  C   UNL d   1       7.138 -12.920  17.737 -0.14 -0.00    +0.048    20.135
ATOM     50  C   UNL d   1       7.800 -13.115  16.373 -0.18 -0.01    +0.125    20.135
ATOM     51  C   UNL d   1       9.284 -12.895  16.461 -0.07 -0.02    +0.305    20.135
ATOM     52  O   UNL d   1      10.045 -12.594  15.558 -0.11 +0.01    -0.251    20.135
ATOM     53  O   UNL d   1       9.748 -13.084  17.712 +0.00 +0.03    -0.481    20.135
ATOM     54  H   UNL d   1      10.691 -13.321  17.583 +0.04 -0.01    +0.295    20.135
TER
ENDMDL
MODEL       84
USER    Run = 84
USER    Cluster Rank = 48
USER    Number of conformations in this cluster = 1
USER  
USER    RMSD from reference structure       = 17.524 A
USER  
USER    Estimated Free Energy of Binding    =   -3.69 kcal/mol  [=(1)+(2)+(3)-(4)]
USER    Estimated Inhibition Constant, Ki   =    1.97 mM (millimolar)  [Temperature = 298.15 K]
USER    
USER    (1) Final Intermolecular Energy     =   -7.57 kcal/mol
USER        vdW + Hbond + desolv Energy     =   -7.47 kcal/mol
USER        Electrostatic Energy            =   -0.10 kcal/mol
USER    (2) Final Total Internal Energy     =   -4.10 kcal/mol
USER    (3) Torsional Free Energy           =   +3.88 kcal/mol
USER    (4) Unbound System's Energy  [=(2)] =   -4.10 kcal/mol
USER    
USER    
USER  
USER    DPF = D:/Protein_go_brrr/autodock/final/mut_K82N/heme/dock.dpf
USER    NEWDPF move	heme_opt.pdbqt
USER    NEWDPF about	0.153000 0.018000 -0.028000
USER    NEWDPF tran0	-3.925941 2.948851 18.381694
USER    NEWDPF axisangle0	-0.981040 -0.187711 -0.048220 129.853484
USER    NEWDPF quaternion0	-0.888593 -0.170023 -0.043676 0.423777
USER    NEWDPF dihe0	160.34 152.40 -119.29 -106.91 -146.12 43.85 122.67 -94.00 11.47 -32.79 -131.07 -79.87 -7.09 
USER  
USER                              x       y       z    vdW   Elec        q     RMS 
ATOM      1  O   UNL d   1      -8.600  -0.417  19.639 -0.02 +0.03    -0.289    17.524
ATOM      2  O   UNL d   1      -8.054   6.039  15.843 -0.10 +0.05    -0.289    17.524
ATOM      3  N   UNL d   1      -5.624   1.286  19.268 -0.11 +0.02    -0.247    17.524
ATOM      4  N   UNL d   1      -6.328   3.494  17.408 -0.08 +0.05    -0.247    17.524
ATOM      5  N   UNL d   1      -3.514   3.962  17.046 -0.09 +0.13    -0.354    17.524
ATOM      6  N   UNL d   1      -2.792   1.657  18.961 -0.13 +0.04    -0.354    17.524
ATOM      7  C   UNL d   1      -6.270  -0.881  20.215 -0.11 -0.00    +0.084    17.524
ATOM      8  C   UNL d   1      -8.657   4.233  17.382 -0.03 -0.01    +0.084    17.524
ATOM      9  C   UNL d   1      -7.596   3.249  17.885 -0.06 -0.01    +0.058    17.524
ATOM     10  C   UNL d   1      -5.169   0.132  19.885 -0.16 +0.00    +0.058    17.524
ATOM     11  C   UNL d   1      -7.429  -0.088  19.691 -0.06 -0.02    +0.193    17.524
ATOM     12  C   UNL d   1      -6.911   1.216  19.167 -0.09 -0.01    +0.109    17.524
ATOM     13  C   UNL d   1      -7.762   5.060  16.501 -0.07 -0.03    +0.193    17.524
ATOM     14  C   UNL d   1      -6.135  -2.164  19.391 -0.23 -0.00    +0.026    17.524
ATOM     15  C   UNL d   1      -7.890   2.209  18.681 -0.06 -0.01    +0.055    17.524
ATOM     16  C   UNL d   1      -9.191   5.119  18.511 -0.01 -0.00    +0.026    17.524
ATOM     17  C   UNL d   1      -6.379   4.504  16.600 -0.15 -0.02    +0.109    17.524
ATOM     18  C   UNL d   1      -3.892  -0.071  20.259 -0.09 +0.01    +0.050    17.524
ATOM     19  C   UNL d   1      -2.825   0.845  20.073 -0.14 +0.00    +0.045    17.524
ATOM     20  C   UNL d   1      -4.016   4.772  16.061 -0.26 -0.01    +0.045    17.524
ATOM     21  C   UNL d   1      -5.289   5.090  15.806 -0.20 -0.01    +0.057    17.524
ATOM     22  C   UNL d   1      -1.740   4.708  15.875 -0.39 +0.01    -0.019    17.524
ATOM     23  C   UNL d   1      -2.149   3.861  17.014 -0.27 -0.01    +0.045    17.524
ATOM     24  C   UNL d   1      -2.850   5.245  15.316 -0.38 +0.01    -0.022    17.524
ATOM     25  C   UNL d   1      -1.632   2.395  18.936 -0.25 -0.01    +0.049    17.524
ATOM     26  C   UNL d   1      -1.675   1.089  20.807 -0.20 +0.00    -0.018    17.524
ATOM     27  C   UNL d   1      -0.935   2.083  20.095 -0.23 -0.00    +0.003    17.524
ATOM     28  C   UNL d   1      -1.298   3.191  17.807 -0.23 -0.02    +0.052    17.524
ATOM     29  C   UNL d   1      -2.954   6.173  14.153 -0.40 -0.03    +0.046    17.524
ATOM     30  C   UNL d   1      -1.286   0.442  22.093 -0.18 -0.00    +0.046    17.524
ATOM     31  H   UNL d   1      -4.117   3.562  17.757 +0.01 -0.05    +0.166    17.524
ATOM     32  H   UNL d   1      -3.514   1.663  18.251 -0.03 -0.03    +0.166    17.524
ATOM     33  C   UNL d   1      -6.456  -1.186  21.705 -0.04 +0.00    +0.141    17.524
ATOM     34  C   UNL d   1      -6.794   0.040  22.510 -0.01 -0.01    +0.306    17.524
ATOM     35  O   UNL d   1      -5.999   0.771  23.076 -0.01 +0.01    -0.251    17.524
ATOM     36  O   UNL d   1      -8.116   0.281  22.556 +0.00 +0.02    -0.481    17.524
ATOM     37  H   UNL d   1      -8.479  -0.183  21.773 +0.01 -0.01    +0.295    17.524
ATOM     38  C   UNL d   1       0.331   2.616  20.499 -0.20 -0.01    +0.017    17.524
ATOM     39  C   UNL d   1       1.374   2.836  19.684 -0.27 -0.07    +0.092    17.524
ATOM     40  C   UNL d   1       2.613   3.404  20.222 -0.18 -0.21    +0.330    17.524
ATOM     41  O   UNL d   1       3.166   3.125  21.268 -0.15 +0.16    -0.246    17.524
ATOM     42  O   UNL d   1       3.108   4.318  19.373 -0.14 +0.25    -0.477    17.524
ATOM     43  H   UNL d   1       2.783   4.025  18.497 -0.44 -0.21    +0.295    17.524
ATOM     44  C   UNL d   1      -9.802   3.614  16.574 -0.02 -0.02    +0.141    17.524
ATOM     45  C   UNL d   1      -9.455   3.390  15.126 -0.05 -0.05    +0.306    17.524
ATOM     46  O   UNL d   1      -8.786   2.478  14.672 -0.13 +0.05    -0.251    17.524
ATOM     47  O   UNL d   1      -9.949   4.350  14.324 -0.02 +0.08    -0.481    17.524
ATOM     48  H   UNL d   1      -9.544   5.181  14.652 +0.07 -0.05    +0.295    17.524
ATOM     49  C   UNL d   1      -0.319   4.899  15.434 -0.41 -0.01    +0.048    17.524
ATOM     50  C   UNL d   1       0.336   6.093  16.127 -0.08 -0.04    +0.125    17.524
ATOM     51  C   UNL d   1       0.128   6.031  17.614 -0.14 -0.12    +0.305    17.524
ATOM     52  O   UNL d   1      -0.693   6.641  18.276 -0.05 +0.08    -0.251    17.524
ATOM     53  O   UNL d   1       0.996   5.189  18.210 -0.03 +0.25    -0.481    17.524
ATOM     54  H   UNL d   1       1.852   5.665  18.174 -0.41 -0.22    +0.295    17.524
TER
ENDMDL
MODEL       81
USER    Run = 81
USER    Cluster Rank = 49
USER    Number of conformations in this cluster = 2
USER  
USER    RMSD from reference structure       = 14.778 A
USER  
USER    Estimated Free Energy of Binding    =   -3.67 kcal/mol  [=(1)+(2)+(3)-(4)]
USER    Estimated Inhibition Constant, Ki   =    2.04 mM (millimolar)  [Temperature = 298.15 K]
USER    
USER    (1) Final Intermolecular Energy     =   -7.55 kcal/mol
USER        vdW + Hbond + desolv Energy     =   -6.80 kcal/mol
USER        Electrostatic Energy            =   -0.75 kcal/mol
USER    (2) Final Total Internal Energy     =   -3.91 kcal/mol
USER    (3) Torsional Free Energy           =   +3.88 kcal/mol
USER    (4) Unbound System's Energy  [=(2)] =   -3.91 kcal/mol
USER    
USER    
USER  
USER    DPF = D:/Protein_go_brrr/autodock/final/mut_K82N/heme/dock.dpf
USER    NEWDPF move	heme_opt.pdbqt
USER    NEWDPF about	0.153000 0.018000 -0.028000
USER    NEWDPF tran0	12.881948 8.547645 -10.057504
USER    NEWDPF axisangle0	0.699991 0.652001 0.291387 -137.510197
USER    NEWDPF quaternion0	0.652420 0.607691 0.271585 -0.362355
USER    NEWDPF dihe0	67.51 162.38 169.90 16.12 -144.42 66.72 117.21 -163.56 46.68 3.97 62.93 -104.74 124.33 
USER  
USER                              x       y       z    vdW   Elec        q     RMS 
ATOM      1  O   UNL d   1      13.765   2.904  -8.601 -0.12 +0.14    -0.289    14.778
ATOM      2  O   UNL d   1       8.436   6.138 -12.788 -0.30 +0.02    -0.289    14.778
ATOM      3  N   UNL d   1      13.573   6.315  -9.073 -0.12 +0.03    -0.247    14.778
ATOM      4  N   UNL d   1      11.389   6.607 -11.066 -0.17 +0.05    -0.247    14.778
ATOM      5  N   UNL d   1      12.231   9.329 -11.452 -0.17 +0.01    -0.354    14.778
ATOM      6  N   UNL d   1      14.507   9.011  -9.398 -0.10 +0.02    -0.354    14.778
ATOM      7  C   UNL d   1      15.175   4.806  -7.995 -0.05 -0.01    +0.084    14.778
ATOM      8  C   UNL d   1       9.701   4.842 -11.141 -0.34 -0.04    +0.084    14.778
ATOM      9  C   UNL d   1      11.022   5.373 -10.576 -0.27 -0.02    +0.058    14.778
ATOM     10  C   UNL d   1      14.772   6.231  -8.385 -0.11 -0.01    +0.058    14.778
ATOM     11  C   UNL d   1      13.983   4.101  -8.568 -0.09 -0.05    +0.193    14.778
ATOM     12  C   UNL d   1      13.073   5.126  -9.171 -0.17 -0.02    +0.109    14.778
ATOM     13  C   UNL d   1       9.404   5.985 -12.070 -0.22 -0.06    +0.193    14.778
ATOM     14  C   UNL d   1      16.430   4.340  -8.738 -0.02 -0.00    +0.026    14.778
ATOM     15  C   UNL d   1      11.779   4.672  -9.719 -0.30 -0.02    +0.055    14.778
ATOM     16  C   UNL d   1       8.608   4.782 -10.070 -0.57 -0.01    +0.026    14.778
ATOM     17  C   UNL d   1      10.507   6.985 -11.935 -0.19 -0.02    +0.109    14.778
ATOM     18  C   UNL d   1      15.496   7.297  -7.997 -0.12 -0.00    +0.050    14.778
ATOM     19  C   UNL d   1      15.157   8.653  -8.238 -0.13 -0.00    +0.045    14.778
ATOM     20  C   UNL d   1      11.339   9.209 -12.486 -0.23 +0.00    +0.045    14.778
ATOM     21  C   UNL d   1      10.507   8.200 -12.763 -0.25 +0.00    +0.057    14.778
ATOM     22  C   UNL d   1      12.411  11.218 -12.665 -0.15 -0.00    -0.019    14.778
ATOM     23  C   UNL d   1      12.926  10.509 -11.477 -0.21 -0.00    +0.045    14.778
ATOM     24  C   UNL d   1      11.471  10.444 -13.258 -0.17 -0.00    -0.022    14.778
ATOM     25  C   UNL d   1      14.359  10.377  -9.467 -0.06 -0.00    +0.049    14.778
ATOM     26  C   UNL d   1      15.405   9.812  -7.518 -0.13 +0.00    -0.018    14.778
ATOM     27  C   UNL d   1      14.881  10.895  -8.290 -0.11 -0.00    +0.003    14.778
ATOM     28  C   UNL d   1      13.856  10.997 -10.643 -0.19 -0.00    +0.052    14.778
ATOM     29  C   UNL d   1      10.660  10.730 -14.476 -0.14 +0.01    +0.046    14.778
ATOM     30  C   UNL d   1      16.084   9.909  -6.195 -0.10 -0.00    +0.046    14.778
ATOM     31  H   UNL d   1      12.283   8.630 -10.719 +0.02 -0.01    +0.166    14.778
ATOM     32  H   UNL d   1      14.222   8.348 -10.108 +0.03 -0.01    +0.166    14.778
ATOM     33  C   UNL d   1      15.283   4.542  -6.489 -0.06 -0.01    +0.141    14.778
ATOM     34  C   UNL d   1      14.017   3.973  -5.908 -0.13 -0.01    +0.306    14.778
ATOM     35  O   UNL d   1      13.087   4.612  -5.444 -0.21 +0.01    -0.251    14.778
ATOM     36  O   UNL d   1      13.987   2.629  -5.945 -0.06 -0.05    -0.481    14.778
ATOM     37  H   UNL d   1      13.250   2.416  -6.556 -0.24 -0.12    +0.295    14.778
ATOM     38  C   UNL d   1      14.940  12.277  -7.918 -0.15 -0.00    +0.017    14.778
ATOM     39  C   UNL d   1      15.668  13.216  -8.540 -0.06 -0.00    +0.092    14.778
ATOM     40  C   UNL d   1      15.627  14.603  -8.069 -0.01 -0.02    +0.330    14.778
ATOM     41  O   UNL d   1      16.008  15.036  -6.998 -0.01 +0.01    -0.246    14.778
ATOM     42  O   UNL d   1      15.097  15.395  -9.013 +0.00 +0.02    -0.477    14.778
ATOM     43  H   UNL d   1      15.164  14.862  -9.832 +0.02 -0.01    +0.295    14.778
ATOM     44  C   UNL d   1       9.796   3.520 -11.911 -0.04 -0.15    +0.141    14.778
ATOM     45  C   UNL d   1      10.942   3.481 -12.886 -0.07 -0.25    +0.306    14.778
ATOM     46  O   UNL d   1      12.125   3.378 -12.612 -0.06 +0.12    -0.251    14.778
ATOM     47  O   UNL d   1      10.537   3.603 -14.163 +0.04 +0.53    -0.481    14.778
ATOM     48  H   UNL d   1       9.561   3.508 -14.123 -0.43 -0.81    +0.295    14.778
ATOM     49  C   UNL d   1      12.892  12.567 -13.115 -0.07 +0.00    +0.048    14.778
ATOM     50  C   UNL d   1      14.409  12.703 -12.983 -0.03 -0.00    +0.125    14.778
ATOM     51  C   UNL d   1      14.767  13.770 -11.988 -0.01 -0.01    +0.305    14.778
ATOM     52  O   UNL d   1      15.868  14.247 -11.774 -0.00 +0.01    -0.251    14.778
ATOM     53  O   UNL d   1      13.694  14.185 -11.285 +0.00 +0.01    -0.481    14.778
ATOM     54  H   UNL d   1      13.988  15.026 -10.877 +0.03 -0.01    +0.295    14.778
TER
ENDMDL
MODEL        9
USER    Run = 9
USER    Cluster Rank = 50
USER    Number of conformations in this cluster = 1
USER  
USER    RMSD from reference structure       = 16.070 A
USER  
USER    Estimated Free Energy of Binding    =   -3.66 kcal/mol  [=(1)+(2)+(3)-(4)]
USER    Estimated Inhibition Constant, Ki   =    2.06 mM (millimolar)  [Temperature = 298.15 K]
USER    
USER    (1) Final Intermolecular Energy     =   -7.54 kcal/mol
USER        vdW + Hbond + desolv Energy     =   -7.14 kcal/mol
USER        Electrostatic Energy            =   -0.40 kcal/mol
USER    (2) Final Total Internal Energy     =   -1.94 kcal/mol
USER    (3) Torsional Free Energy           =   +3.88 kcal/mol
USER    (4) Unbound System's Energy  [=(2)] =   -1.94 kcal/mol
USER    
USER    
USER  
USER    DPF = D:/Protein_go_brrr/autodock/final/mut_K82N/heme/dock.dpf
USER    NEWDPF move	heme_opt.pdbqt
USER    NEWDPF about	0.153000 0.018000 -0.028000
USER    NEWDPF tran0	-12.975814 15.589209 -4.064576
USER    NEWDPF axisangle0	0.593722 0.322854 0.737061 -157.078863
USER    NEWDPF quaternion0	0.581885 0.316417 0.722365 -0.198693
USER    NEWDPF dihe0	-172.76 1.72 -31.41 -156.72 55.86 -154.49 -65.43 -86.58 153.59 -22.74 -179.41 -105.78 168.52 
USER  
USER                              x       y       z    vdW   Elec        q     RMS 
ATOM      1  O   UNL d   1     -10.844  10.841  -6.834 -0.07 -0.08    -0.289    16.070
ATOM      2  O   UNL d   1     -14.247  16.984  -9.494 -0.01 -0.10    -0.289    16.070
ATOM      3  N   UNL d   1     -12.061  13.337  -4.788 -0.12 -0.09    -0.247    16.070
ATOM      4  N   UNL d   1     -12.930  15.432  -6.708 -0.03 -0.19    -0.247    16.070
ATOM      5  N   UNL d   1     -13.110  17.256  -4.493 -0.01 -0.20    -0.354    16.070
ATOM      6  N   UNL d   1     -12.189  15.082  -2.511 -0.12 -0.11    -0.354    16.070
ATOM      7  C   UNL d   1     -10.746  11.298  -4.435 -0.28 +0.02    +0.084    16.070
ATOM      8  C   UNL d   1     -13.555  14.699  -8.953 -0.04 +0.03    +0.084    16.070
ATOM      9  C   UNL d   1     -12.988  14.361  -7.571 -0.10 +0.03    +0.058    16.070
ATOM     10  C   UNL d   1     -11.416  12.546  -3.851 -0.25 +0.02    +0.058    16.070
ATOM     11  C   UNL d   1     -11.142  11.515  -5.864 -0.12 +0.06    +0.193    16.070
ATOM     12  C   UNL d   1     -11.957  12.768  -5.944 -0.13 +0.04    +0.109    16.070
ATOM     13  C   UNL d   1     -13.773  16.169  -8.727 -0.04 +0.10    +0.193    16.070
ATOM     14  C   UNL d   1      -9.221  11.362  -4.328 -0.54 +0.01    +0.026    16.070
ATOM     15  C   UNL d   1     -12.540  13.137  -7.250 -0.11 +0.02    +0.055    16.070
ATOM     16  C   UNL d   1     -14.913  14.031  -9.190 -0.01 +0.01    +0.026    16.070
ATOM     17  C   UNL d   1     -13.348  16.487  -7.330 -0.05 +0.09    +0.109    16.070
ATOM     18  C   UNL d   1     -11.437  12.778  -2.525 -0.33 +0.01    +0.050    16.070
ATOM     19  C   UNL d   1     -12.102  13.857  -1.889 -0.28 +0.01    +0.045    16.070
ATOM     20  C   UNL d   1     -13.268  18.133  -5.534 -0.03 +0.03    +0.045    16.070
ATOM     21  C   UNL d   1     -13.408  17.870  -6.837 -0.05 +0.05    +0.057    16.070
ATOM     22  C   UNL d   1     -13.098  19.319  -3.589 -0.08 -0.01    -0.019    16.070
ATOM     23  C   UNL d   1     -12.998  17.879  -3.278 -0.12 +0.02    +0.045    16.070
ATOM     24  C   UNL d   1     -13.259  19.463  -4.926 -0.07 -0.01    -0.022    16.070
ATOM     25  C   UNL d   1     -12.791  16.002  -1.683 -0.19 +0.01    +0.049    16.070
ATOM     26  C   UNL d   1     -12.694  13.974  -0.641 -0.22 -0.00    -0.018    16.070
ATOM     27  C   UNL d   1     -13.145  15.325  -0.524 -0.17 +0.00    +0.003    16.070
ATOM     28  C   UNL d   1     -12.853  17.376  -2.043 -0.18 +0.01    +0.052    16.070
ATOM     29  C   UNL d   1     -13.418  20.717  -5.716 -0.03 +0.01    +0.046    16.070
ATOM     30  C   UNL d   1     -12.836  12.897   0.381 -0.04 +0.01    +0.046    16.070
ATOM     31  H   UNL d   1     -13.159  16.253  -4.638 +0.03 +0.09    +0.166    16.070
ATOM     32  H   UNL d   1     -11.818  15.270  -3.434 +0.06 +0.08    +0.166    16.070
ATOM     33  C   UNL d   1     -11.290   9.960  -3.922 -0.22 +0.04    +0.141    16.070
ATOM     34  C   UNL d   1     -10.314   8.830  -4.106 -0.24 +0.12    +0.306    16.070
ATOM     35  O   UNL d   1      -9.709   8.249  -3.220 -0.42 -0.10    -0.251    16.070
ATOM     36  O   UNL d   1     -10.152   8.489  -5.397 -0.66 -0.27    -0.481    16.070
ATOM     37  H   UNL d   1     -10.682   9.148  -5.894 +0.11 +0.12    +0.295    16.070
ATOM     38  C   UNL d   1     -13.802  15.879   0.620 -0.11 +0.00    +0.017    16.070
ATOM     39  C   UNL d   1     -13.275  16.793   1.450 -0.11 +0.01    +0.092    16.070
ATOM     40  C   UNL d   1     -14.062  17.294   2.579 -0.03 +0.03    +0.330    16.070
ATOM     41  O   UNL d   1     -13.928  18.349   3.169 -0.02 -0.02    -0.246    16.070
ATOM     42  O   UNL d   1     -15.015  16.408   2.907 +0.00 -0.03    -0.477    16.070
ATOM     43  H   UNL d   1     -15.495  16.841   3.643 +0.01 +0.01    +0.295    16.070
ATOM     44  C   UNL d   1     -12.607  14.461 -10.133 -0.06 +0.05    +0.141    16.070
ATOM     45  C   UNL d   1     -11.489  15.467 -10.210 -0.13 +0.20    +0.306    16.070
ATOM     46  O   UNL d   1     -11.358  16.344 -11.045 -0.12 -0.13    -0.251    16.070
ATOM     47  O   UNL d   1     -10.574  15.295  -9.239 -0.59 -0.59    -0.481    16.070
ATOM     48  H   UNL d   1      -9.726  15.573  -9.645 -0.36 +0.28    +0.295    16.070
ATOM     49  C   UNL d   1     -13.012  20.410  -2.562 -0.05 +0.01    +0.048    16.070
ATOM     50  C   UNL d   1     -11.564  20.798  -2.264 -0.08 +0.02    +0.125    16.070
ATOM     51  C   UNL d   1     -10.611  20.002  -3.108 -0.11 +0.10    +0.305    16.070
ATOM     52  O   UNL d   1     -10.062  18.952  -2.821 -0.24 -0.10    -0.251    16.070
ATOM     53  O   UNL d   1     -10.380  20.589  -4.300 -0.02 -0.18    -0.481    16.070
ATOM     54  H   UNL d   1     -10.595  21.533  -4.145 +0.06 +0.07    +0.295    16.070
TER
ENDMDL
MODEL       24
USER    Run = 24
USER    Cluster Rank = 51
USER    Number of conformations in this cluster = 1
USER  
USER    RMSD from reference structure       = 15.237 A
USER  
USER    Estimated Free Energy of Binding    =   -3.66 kcal/mol  [=(1)+(2)+(3)-(4)]
USER    Estimated Inhibition Constant, Ki   =    2.07 mM (millimolar)  [Temperature = 298.15 K]
USER    
USER    (1) Final Intermolecular Energy     =   -7.54 kcal/mol
USER        vdW + Hbond + desolv Energy     =   -6.84 kcal/mol
USER        Electrostatic Energy            =   -0.70 kcal/mol
USER    (2) Final Total Internal Energy     =   -2.75 kcal/mol
USER    (3) Torsional Free Energy           =   +3.88 kcal/mol
USER    (4) Unbound System's Energy  [=(2)] =   -2.75 kcal/mol
USER    
USER    
USER  
USER    DPF = D:/Protein_go_brrr/autodock/final/mut_K82N/heme/dock.dpf
USER    NEWDPF move	heme_opt.pdbqt
USER    NEWDPF about	0.153000 0.018000 -0.028000
USER    NEWDPF tran0	13.358747 9.139779 -9.618565
USER    NEWDPF axisangle0	-0.522505 0.793987 -0.310761 -148.395475
USER    NEWDPF quaternion0	-0.502758 0.763980 -0.299017 -0.272318
USER    NEWDPF dihe0	-104.07 59.79 -112.49 155.97 38.54 -79.77 120.50 87.03 133.39 -30.89 135.21 -9.15 10.04 
USER  
USER                              x       y       z    vdW   Elec        q     RMS 
ATOM      1  O   UNL d   1      14.743  14.778 -10.641 -0.01 +0.01    -0.289    15.237
ATOM      2  O   UNL d   1      16.080  10.373  -4.708 -0.04 +0.02    -0.289    15.237
ATOM      3  N   UNL d   1      13.605  11.529 -10.433 -0.12 +0.00    -0.247    15.237
ATOM      4  N   UNL d   1      14.857  10.526  -7.932 -0.08 +0.01    -0.247    15.237
ATOM      5  N   UNL d   1      14.127   7.866  -8.742 -0.03 +0.02    -0.354    15.237
ATOM      6  N   UNL d   1      12.847   8.913 -11.344 -0.15 +0.02    -0.354    15.237
ATOM      7  C   UNL d   1      13.601  13.254 -12.174 -0.05 -0.00    +0.084    15.237
ATOM      8  C   UNL d   1      15.424  12.180  -6.224 -0.09 -0.01    +0.084    15.237
ATOM      9  C   UNL d   1      14.914  11.870  -7.636 -0.13 -0.00    +0.058    15.237
ATOM     10  C   UNL d   1      13.241  11.832 -11.734 -0.14 -0.00    +0.058    15.237
ATOM     11  C   UNL d   1      14.217  13.708 -10.884 -0.04 -0.01    +0.193    15.237
ATOM     12  C   UNL d   1      14.136  12.582  -9.901 -0.12 -0.00    +0.109    15.237
ATOM     13  C   UNL d   1      15.681  10.765  -5.788 -0.08 -0.01    +0.193    15.237
ATOM     14  C   UNL d   1      14.674  13.264 -13.265 -0.02 -0.00    +0.026    15.237
ATOM     15  C   UNL d   1      14.601  12.828  -8.521 -0.14 -0.00    +0.055    15.237
ATOM     16  C   UNL d   1      14.324  12.776  -5.341 -0.21 -0.00    +0.026    15.237
ATOM     17  C   UNL d   1      15.303   9.860  -6.915 -0.12 -0.01    +0.109    15.237
ATOM     18  C   UNL d   1      12.548  11.003 -12.536 -0.17 +0.00    +0.050    15.237
ATOM     19  C   UNL d   1      12.098   9.704 -12.185 -0.22 +0.00    +0.045    15.237
ATOM     20  C   UNL d   1      14.938   7.573  -7.677 -0.14 -0.00    +0.045    15.237
ATOM     21  C   UNL d   1      15.489   8.407  -6.790 -0.15 -0.00    +0.057    15.237
ATOM     22  C   UNL d   1      14.381   5.628  -8.738 -0.12 +0.00    -0.019    15.237
ATOM     23  C   UNL d   1      13.740   6.755  -9.444 -0.17 -0.01    +0.045    15.237
ATOM     24  C   UNL d   1      15.088   6.119  -7.692 -0.11 +0.00    -0.022    15.237
ATOM     25  C   UNL d   1      12.274   7.670 -11.212 -0.24 -0.01    +0.049    15.237
ATOM     26  C   UNL d   1      10.991   8.970 -12.581 -0.22 -0.00    -0.018    15.237
ATOM     27  C   UNL d   1      11.097   7.693 -11.948 -0.25 -0.00    +0.003    15.237
ATOM     28  C   UNL d   1      12.946   6.627 -10.518 -0.22 -0.01    +0.052    15.237
ATOM     29  C   UNL d   1      15.894   5.377  -6.681 -0.06 -0.00    +0.046    15.237
ATOM     30  C   UNL d   1       9.899   9.424 -13.489 -0.26 +0.01    +0.046    15.237
ATOM     31  H   UNL d   1      13.803   8.812  -8.913 +0.04 -0.01    +0.166    15.237
ATOM     32  H   UNL d   1      13.720   9.211 -10.924 +0.03 -0.01    +0.166    15.237
ATOM     33  C   UNL d   1      12.413  14.148 -12.546 -0.06 -0.00    +0.141    15.237
ATOM     34  C   UNL d   1      12.839  15.521 -12.992 -0.01 -0.01    +0.306    15.237
ATOM     35  O   UNL d   1      13.049  15.872 -14.141 -0.00 +0.01    -0.251    15.237
ATOM     36  O   UNL d   1      12.974  16.380 -11.967 +0.01 +0.02    -0.481    15.237
ATOM     37  H   UNL d   1      13.800  16.100 -11.517 +0.02 -0.01    +0.295    15.237
ATOM     38  C   UNL d   1      10.165   6.617 -12.098 -0.29 -0.00    +0.017    15.237
ATOM     39  C   UNL d   1       9.931   5.661 -11.186 -0.31 -0.03    +0.092    15.237
ATOM     40  C   UNL d   1       8.934   4.622 -11.456 -0.27 -0.22    +0.330    15.237
ATOM     41  O   UNL d   1       7.728   4.695 -11.319 -0.52 +0.14    -0.246    15.237
ATOM     42  O   UNL d   1       9.536   3.511 -11.910 -0.08 +0.58    -0.477    15.237
ATOM     43  H   UNL d   1       9.139   3.374 -12.794 -0.15 -0.83    +0.295    15.237
ATOM     44  C   UNL d   1      16.706  13.017  -6.154 -0.02 -0.01    +0.141    15.237
ATOM     45  C   UNL d   1      17.956  12.208  -6.373 -0.00 -0.02    +0.306    15.237
ATOM     46  O   UNL d   1      18.376  11.792  -7.439 -0.00 +0.01    -0.251    15.237
ATOM     47  O   UNL d   1      18.603  11.939  -5.224 +0.00 +0.02    -0.481    15.237
ATOM     48  H   UNL d   1      17.999  11.343  -4.733 +0.01 -0.02    +0.295    15.237
ATOM     49  C   UNL d   1      14.257   4.192  -9.155 -0.11 -0.01    +0.048    15.237
ATOM     50  C   UNL d   1      12.874   3.625  -8.837 -0.19 -0.06    +0.125    15.237
ATOM     51  C   UNL d   1      12.430   4.034  -7.461 -0.20 -0.13    +0.305    15.237
ATOM     52  O   UNL d   1      11.938   5.097  -7.125 -0.28 +0.05    -0.251    15.237
ATOM     53  O   UNL d   1      12.646   3.063  -6.552 -0.10 +0.25    -0.481    15.237
ATOM     54  H   UNL d   1      12.657   2.239  -7.082 -0.46 -0.46    +0.295    15.237
TER
ENDMDL
MODEL       79
USER    Run = 79
USER    Cluster Rank = 52
USER    Number of conformations in this cluster = 1
USER  
USER    RMSD from reference structure       = 17.199 A
USER  
USER    Estimated Free Energy of Binding    =   -3.59 kcal/mol  [=(1)+(2)+(3)-(4)]
USER    Estimated Inhibition Constant, Ki   =    2.35 mM (millimolar)  [Temperature = 298.15 K]
USER    
USER    (1) Final Intermolecular Energy     =   -7.47 kcal/mol
USER        vdW + Hbond + desolv Energy     =   -7.30 kcal/mol
USER        Electrostatic Energy            =   -0.16 kcal/mol
USER    (2) Final Total Internal Energy     =   -3.78 kcal/mol
USER    (3) Torsional Free Energy           =   +3.88 kcal/mol
USER    (4) Unbound System's Energy  [=(2)] =   -3.78 kcal/mol
USER    
USER    
USER  
USER    DPF = D:/Protein_go_brrr/autodock/final/mut_K82N/heme/dock.dpf
USER    NEWDPF move	heme_opt.pdbqt
USER    NEWDPF about	0.153000 0.018000 -0.028000
USER    NEWDPF tran0	10.402280 15.905253 -8.424635
USER    NEWDPF axisangle0	-0.543552 0.802144 0.247218 -132.309834
USER    NEWDPF quaternion0	-0.497156 0.733674 0.226116 -0.404265
USER    NEWDPF dihe0	-128.28 143.75 105.25 -96.95 -46.65 16.43 -42.91 -48.13 -5.52 -126.86 -56.45 -68.98 32.51 
USER  
USER                              x       y       z    vdW   Elec        q     RMS 
ATOM      1  O   UNL d   1      10.103  20.130  -4.323 -0.03 +0.04    -0.289    17.199
ATOM      2  O   UNL d   1      14.717  14.244  -5.010 -0.04 +0.03    -0.289    17.199
ATOM      3  N   UNL d   1       9.809  17.811  -6.860 -0.02 +0.01    -0.247    17.199
ATOM      4  N   UNL d   1      12.197  16.083  -6.486 +0.04 +0.01    -0.247    17.199
ATOM      5  N   UNL d   1      11.702  14.992  -9.100 -0.07 -0.01    -0.354    17.199
ATOM      6  N   UNL d   1       9.238  16.802  -9.487 -0.07 +0.01    -0.354    17.199
ATOM      7  C   UNL d   1       8.715  19.939  -6.326 -0.09 -0.01    +0.084    17.199
ATOM      8  C   UNL d   1      13.133  15.942  -4.233 -0.11 -0.01    +0.084    17.199
ATOM      9  C   UNL d   1      12.124  16.570  -5.200 -0.11 -0.00    +0.058    17.199
ATOM     10  C   UNL d   1       8.861  18.736  -7.263 -0.12 -0.01    +0.058    17.199
ATOM     11  C   UNL d   1       9.737  19.521  -5.312 -0.05 -0.03    +0.193    17.199
ATOM     12  C   UNL d   1      10.311  18.204  -5.734 -0.10 -0.01    +0.109    17.199
ATOM     13  C   UNL d   1      13.818  15.036  -5.217 -0.08 -0.02    +0.193    17.199
ATOM     14  C   UNL d   1       9.176  21.240  -6.986 -0.06 -0.00    +0.026    17.199
ATOM     15  C   UNL d   1      11.279  17.546  -4.834 -0.15 -0.01    +0.055    17.199
ATOM     16  C   UNL d   1      12.442  15.082  -3.170 -0.28 -0.01    +0.026    17.199
ATOM     17  C   UNL d   1      13.162  15.222  -6.547 -0.12 -0.00    +0.109    17.199
ATOM     18  C   UNL d   1       8.056  18.575  -8.331 -0.17 -0.01    +0.050    17.199
ATOM     19  C   UNL d   1       8.060  17.457  -9.203 -0.16 -0.00    +0.045    17.199
ATOM     20  C   UNL d   1      12.938  14.454  -8.850 -0.18 -0.00    +0.045    17.199
ATOM     21  C   UNL d   1      13.655  14.489  -7.722 -0.17 -0.00    +0.057    17.199
ATOM     22  C   UNL d   1      12.351  13.985 -11.007 -0.16 -0.00    -0.019    17.199
ATOM     23  C   UNL d   1      11.264  14.761 -10.376 -0.24 +0.00    +0.045    17.199
ATOM     24  C   UNL d   1      13.338  13.805 -10.098 -0.14 +0.00    -0.022    17.199
ATOM     25  C   UNL d   1       9.027  15.813 -10.419 -0.26 -0.00    +0.049    17.199
ATOM     26  C   UNL d   1       7.053  16.853  -9.940 -0.28 +0.00    -0.018    17.199
ATOM     27  C   UNL d   1       7.666  15.803 -10.691 -0.27 -0.00    +0.003    17.199
ATOM     28  C   UNL d   1      10.120  15.103 -10.988 -0.27 +0.00    +0.052    17.199
ATOM     29  C   UNL d   1      14.630  13.079 -10.256 -0.09 -0.00    +0.046    17.199
ATOM     30  C   UNL d   1       5.609  17.226  -9.946 -0.30 -0.01    +0.046    17.199
ATOM     31  H   UNL d   1      11.164  15.438  -8.364 +0.10 +0.01    +0.166    17.199
ATOM     32  H   UNL d   1      10.132  17.058  -9.086 +0.03 -0.00    +0.166    17.199
ATOM     33  C   UNL d   1       7.340  20.097  -5.669 -0.22 -0.04    +0.141    17.199
ATOM     34  C   UNL d   1       6.771  18.789  -5.192 -0.25 -0.07    +0.306    17.199
ATOM     35  O   UNL d   1       7.350  17.716  -5.173 -0.33 +0.04    -0.251    17.199
ATOM     36  O   UNL d   1       5.502  18.901  -4.762 -0.80 +0.14    -0.481    17.199
ATOM     37  H   UNL d   1       5.041  19.389  -5.477 -0.37 -0.16    +0.295    17.199
ATOM     38  C   UNL d   1       6.984  14.933 -11.601 -0.26 -0.00    +0.017    17.199
ATOM     39  C   UNL d   1       7.518  14.401 -12.711 -0.23 +0.01    +0.092    17.199
ATOM     40  C   UNL d   1       6.716  13.509 -13.552 -0.19 +0.05    +0.330    17.199
ATOM     41  O   UNL d   1       5.512  13.343 -13.523 -0.29 -0.04    -0.246    17.199
ATOM     42  O   UNL d   1       7.506  12.858 -14.419 -0.12 -0.13    -0.477    17.199
ATOM     43  H   UNL d   1       8.187  13.520 -14.659 +0.08 +0.04    +0.295    17.199
ATOM     44  C   UNL d   1      14.132  16.914  -3.597 -0.03 -0.01    +0.141    17.199
ATOM     45  C   UNL d   1      15.150  16.233  -2.722 -0.01 -0.02    +0.306    17.199
ATOM     46  O   UNL d   1      15.029  15.963  -1.540 -0.01 +0.02    -0.251    17.199
ATOM     47  O   UNL d   1      16.288  15.950  -3.382 +0.00 +0.03    -0.481    17.199
ATOM     48  H   UNL d   1      16.065  15.174  -3.939 +0.01 -0.02    +0.295    17.199
ATOM     49  C   UNL d   1      12.330  13.509 -12.430 -0.11 +0.00    +0.048    17.199
ATOM     50  C   UNL d   1      11.036  12.765 -12.762 -0.16 +0.01    +0.125    17.199
ATOM     51  C   UNL d   1      10.349  13.386 -13.946 -0.05 +0.02    +0.305    17.199
ATOM     52  O   UNL d   1      10.024  14.551 -14.090 -0.03 -0.01    -0.251    17.199
ATOM     53  O   UNL d   1      10.089  12.480 -14.909 -0.00 -0.06    -0.481    17.199
ATOM     54  H   UNL d   1       9.256  12.055 -14.618 +0.08 +0.07    +0.295    17.199
TER
ENDMDL
MODEL        4
USER    Run = 4
USER    Cluster Rank = 53
USER    Number of conformations in this cluster = 1
USER  
USER    RMSD from reference structure       = 17.409 A
USER  
USER    Estimated Free Energy of Binding    =   -3.40 kcal/mol  [=(1)+(2)+(3)-(4)]
USER    Estimated Inhibition Constant, Ki   =    3.22 mM (millimolar)  [Temperature = 298.15 K]
USER    
USER    (1) Final Intermolecular Energy     =   -7.28 kcal/mol
USER        vdW + Hbond + desolv Energy     =   -7.24 kcal/mol
USER        Electrostatic Energy            =   -0.04 kcal/mol
USER    (2) Final Total Internal Energy     =   -4.53 kcal/mol
USER    (3) Torsional Free Energy           =   +3.88 kcal/mol
USER    (4) Unbound System's Energy  [=(2)] =   -4.53 kcal/mol
USER    
USER    
USER  
USER    DPF = D:/Protein_go_brrr/autodock/final/mut_K82N/heme/dock.dpf
USER    NEWDPF move	heme_opt.pdbqt
USER    NEWDPF about	0.153000 0.018000 -0.028000
USER    NEWDPF tran0	12.361927 2.909607 14.879550
USER    NEWDPF axisangle0	0.712312 0.192565 -0.674930 -170.601154
USER    NEWDPF quaternion0	0.709917 0.191918 -0.672661 -0.081928
USER    NEWDPF dihe0	110.62 122.03 177.42 52.00 177.88 -30.42 145.85 57.14 -20.13 -14.66 -88.65 16.47 -6.59 
USER  
USER                              x       y       z    vdW   Elec        q     RMS 
ATOM      1  O   UNL d   1      12.290   0.215  20.122 -0.20 -0.05    -0.289    17.409
ATOM      2  O   UNL d   1      11.909   7.494  18.317 -0.01 -0.01    -0.289    17.409
ATOM      3  N   UNL d   1      12.509   1.347  16.872 -0.13 +0.02    -0.247    17.409
ATOM      4  N   UNL d   1      11.959   4.256  17.124 -0.08 -0.00    -0.247    17.409
ATOM      5  N   UNL d   1      11.624   4.346  14.270 -0.07 +0.03    -0.354    17.409
ATOM      6  N   UNL d   1      12.176   1.323  14.020 -0.09 +0.07    -0.354    17.409
ATOM      7  C   UNL d   1      12.387  -0.861  17.929 -0.35 -0.00    +0.084    17.409
ATOM      8  C   UNL d   1      12.473   5.310  19.268 -0.07 +0.01    +0.084    17.409
ATOM      9  C   UNL d   1      12.370   4.038  18.420 -0.14 +0.01    +0.058    17.409
ATOM     10  C   UNL d   1      12.477  -0.020  16.653 -0.31 -0.01    +0.058    17.409
ATOM     11  C   UNL d   1      12.392   0.272  18.911 -0.20 +0.01    +0.193    17.409
ATOM     12  C   UNL d   1      12.495   1.557  18.148 -0.20 +0.00    +0.109    17.409
ATOM     13  C   UNL d   1      12.008   6.286  18.224 -0.02 +0.01    +0.193    17.409
ATOM     14  C   UNL d   1      11.052  -1.602  18.036 -0.18 -0.00    +0.026    17.409
ATOM     15  C   UNL d   1      12.610   2.814  18.915 -0.21 +0.01    +0.055    17.409
ATOM     16  C   UNL d   1      13.925   5.633  19.632 -0.04 +0.00    +0.026    17.409
ATOM     17  C   UNL d   1      11.722   5.520  16.974 -0.08 +0.00    +0.109    17.409
ATOM     18  C   UNL d   1      12.605  -0.593  15.441 -0.32 -0.01    +0.050    17.409
ATOM     19  C   UNL d   1      12.779   0.102  14.217 -0.28 -0.01    +0.045    17.409
ATOM     20  C   UNL d   1      11.175   5.598  14.599 -0.17 -0.00    +0.045    17.409
ATOM     21  C   UNL d   1      11.204   6.214  15.785 -0.13 -0.00    +0.057    17.409
ATOM     22  C   UNL d   1      10.792   5.238  12.376 -0.22 +0.00    -0.019    17.409
ATOM     23  C   UNL d   1      11.434   4.038  12.949 -0.15 -0.00    +0.045    17.409
ATOM     24  C   UNL d   1      10.642   6.158  13.357 -0.25 +0.00    -0.022    17.409
ATOM     25  C   UNL d   1      12.402   1.772  12.739 -0.20 -0.01    +0.049    17.409
ATOM     26  C   UNL d   1      13.444  -0.234  13.048 -0.26 +0.00    -0.018    17.409
ATOM     27  C   UNL d   1      13.219   0.834  12.125 -0.20 -0.00    +0.003    17.409
ATOM     28  C   UNL d   1      11.750   2.937  12.249 -0.08 -0.00    +0.052    17.409
ATOM     29  C   UNL d   1      10.059   7.528  13.271 -0.26 +0.00    +0.046    17.409
ATOM     30  C   UNL d   1      14.243  -1.469  12.801 -0.29 -0.01    +0.046    17.409
ATOM     31  H   UNL d   1      12.113   3.768  14.944 +0.05 -0.01    +0.166    17.409
ATOM     32  H   UNL d   1      11.613   1.790  14.721 +0.09 -0.03    +0.166    17.409
ATOM     33  C   UNL d   1      13.573  -1.798  18.184 -0.22 +0.01    +0.141    17.409
ATOM     34  C   UNL d   1      14.851  -1.295  17.569 -0.08 +0.01    +0.306    17.409
ATOM     35  O   UNL d   1      15.591  -1.924  16.832 -0.10 -0.02    -0.251    17.409
ATOM     36  O   UNL d   1      15.126  -0.025  17.912 +0.01 -0.01    -0.481    17.409
ATOM     37  H   UNL d   1      14.470   0.512  17.419 +0.07 +0.00    +0.295    17.409
ATOM     38  C   UNL d   1      13.717   0.884  10.784 -0.10 -0.00    +0.017    17.409
ATOM     39  C   UNL d   1      14.425   1.896  10.258 -0.10 -0.01    +0.092    17.409
ATOM     40  C   UNL d   1      14.893   1.816   8.872 -0.05 +0.00    +0.330    17.409
ATOM     41  O   UNL d   1      15.224   0.822   8.255 -0.42 -0.02    -0.246    17.409
ATOM     42  O   UNL d   1      14.910   3.039   8.320 +0.00 +0.01    -0.477    17.409
ATOM     43  H   UNL d   1      13.984   3.347   8.403 +0.05 -0.00    +0.295    17.409
ATOM     44  C   UNL d   1      11.568   5.355  20.503 -0.13 +0.04    +0.141    17.409
ATOM     45  C   UNL d   1      10.101   5.356  20.166 -0.15 +0.08    +0.306    17.409
ATOM     46  O   UNL d   1       9.341   4.405  20.226 -0.34 -0.11    -0.251    17.409
ATOM     47  O   UNL d   1       9.672   6.558  19.740 -0.02 -0.06    -0.481    17.409
ATOM     48  H   UNL d   1      10.454   7.144  19.821 +0.05 +0.03    +0.295    17.409
ATOM     49  C   UNL d   1      10.374   5.365  10.940 -0.27 -0.00    +0.048    17.409
ATOM     50  C   UNL d   1      11.491   5.945  10.073 -0.18 -0.00    +0.125    17.409
ATOM     51  C   UNL d   1      12.326   4.850   9.471 -0.09 -0.00    +0.305    17.409
ATOM     52  O   UNL d   1      11.938   3.873   8.855 -0.17 +0.00    -0.251    17.409
ATOM     53  O   UNL d   1      13.642   5.039   9.694 +0.01 +0.01    -0.481    17.409
ATOM     54  H   UNL d   1      14.047   4.962   8.805 +0.04 -0.00    +0.295    17.409
TER
ENDMDL
MODEL       52
USER    Run = 52
USER    Cluster Rank = 54
USER    Number of conformations in this cluster = 1
USER  
USER    RMSD from reference structure       = 15.313 A
USER  
USER    Estimated Free Energy of Binding    =   -3.36 kcal/mol  [=(1)+(2)+(3)-(4)]
USER    Estimated Inhibition Constant, Ki   =    3.46 mM (millimolar)  [Temperature = 298.15 K]
USER    
USER    (1) Final Intermolecular Energy     =   -7.23 kcal/mol
USER        vdW + Hbond + desolv Energy     =   -6.97 kcal/mol
USER        Electrostatic Energy            =   -0.27 kcal/mol
USER    (2) Final Total Internal Energy     =   -4.76 kcal/mol
USER    (3) Torsional Free Energy           =   +3.88 kcal/mol
USER    (4) Unbound System's Energy  [=(2)] =   -4.76 kcal/mol
USER    
USER    
USER  
USER    DPF = D:/Protein_go_brrr/autodock/final/mut_K82N/heme/dock.dpf
USER    NEWDPF move	heme_opt.pdbqt
USER    NEWDPF about	0.153000 0.018000 -0.028000
USER    NEWDPF tran0	12.231682 9.701340 -10.891846
USER    NEWDPF axisangle0	-0.573949 -0.764814 -0.292646 141.684242
USER    NEWDPF quaternion0	-0.542162 -0.722457 -0.276439 0.328172
USER    NEWDPF dihe0	174.92 180.00 -143.83 -40.29 -154.48 -15.53 123.34 -89.80 6.39 -21.19 -97.15 -5.26 -17.41 
USER  
USER                              x       y       z    vdW   Elec        q     RMS 
ATOM      1  O   UNL d   1      14.854   4.754  -9.047 -0.03 +0.05    -0.289    15.313
ATOM      2  O   UNL d   1       8.615   5.813 -13.091 -0.29 +0.08    -0.289    15.313
ATOM      3  N   UNL d   1      13.612   7.887  -9.780 -0.15 +0.02    -0.247    15.313
ATOM      4  N   UNL d   1      11.358   7.313 -11.629 -0.18 +0.03    -0.247    15.313
ATOM      5  N   UNL d   1      11.314  10.109 -12.295 -0.14 -0.03    -0.354    15.313
ATOM      6  N   UNL d   1      13.666  10.693 -10.390 -0.10 +0.01    -0.354    15.313
ATOM      7  C   UNL d   1      15.643   7.041  -8.700 -0.07 -0.01    +0.084    15.313
ATOM      8  C   UNL d   1      10.286   5.125 -11.439 -0.26 -0.04    +0.084    15.313
ATOM      9  C   UNL d   1      11.406   6.081 -11.015 -0.23 -0.01    +0.058    15.313
ATOM     10  C   UNL d   1      14.809   8.234  -9.175 -0.14 -0.00    +0.058    15.313
ATOM     11  C   UNL d   1      14.698   5.959  -9.127 -0.07 -0.02    +0.193    15.313
ATOM     12  C   UNL d   1      13.494   6.600  -9.745 -0.16 -0.01    +0.109    15.313
ATOM     13  C   UNL d   1       9.615   6.029 -12.434 -0.20 -0.05    +0.193    15.313
ATOM     14  C   UNL d   1      16.947   6.901  -9.491 -0.02 -0.00    +0.026    15.313
ATOM     15  C   UNL d   1      12.377   5.727 -10.160 -0.24 -0.01    +0.055    15.313
ATOM     16  C   UNL d   1       9.311   4.848 -10.290 -0.53 -0.01    +0.026    15.313
ATOM     17  C   UNL d   1      10.366   7.321 -12.460 -0.20 -0.01    +0.109    15.313
ATOM     18  C   UNL d   1      15.190   9.502  -8.929 -0.15 -0.00    +0.050    15.313
ATOM     19  C   UNL d   1      14.444  10.663  -9.255 -0.09 -0.00    +0.045    15.313
ATOM     20  C   UNL d   1      10.456   9.626 -13.250 -0.21 +0.01    +0.045    15.313
ATOM     21  C   UNL d   1       9.960   8.392 -13.382 -0.27 +0.01    +0.057    15.313
ATOM     22  C   UNL d   1      10.857  11.836 -13.668 -0.14 -0.00    -0.019    15.313
ATOM     23  C   UNL d   1      11.614  11.434 -12.466 -0.19 +0.00    +0.045    15.313
ATOM     24  C   UNL d   1      10.172  10.761 -14.127 -0.17 -0.01    -0.022    15.313
ATOM     25  C   UNL d   1      13.106  11.938 -10.560 -0.15 +0.00    +0.049    15.313
ATOM     26  C   UNL d   1      14.358  11.908  -8.652 -0.08 +0.00    -0.018    15.313
ATOM     27  C   UNL d   1      13.497  12.703  -9.469 -0.16 -0.00    +0.003    15.313
ATOM     28  C   UNL d   1      12.387  12.259 -11.743 -0.21 +0.00    +0.052    15.313
ATOM     29  C   UNL d   1       9.260  10.668 -15.302 -0.10 +0.02    +0.046    15.313
ATOM     30  C   UNL d   1      15.033  12.335  -7.393 -0.14 -0.00    +0.046    15.313
ATOM     31  H   UNL d   1      11.608   9.534 -11.513 +0.03 +0.00    +0.166    15.313
ATOM     32  H   UNL d   1      13.566   9.907 -11.022 +0.03 -0.00    +0.166    15.313
ATOM     33  C   UNL d   1      15.892   6.973  -7.190 -0.07 -0.01    +0.141    15.313
ATOM     34  C   UNL d   1      14.618   7.027  -6.390 -0.13 -0.01    +0.306    15.313
ATOM     35  O   UNL d   1      14.163   8.007  -5.826 -0.15 +0.01    -0.251    15.313
ATOM     36  O   UNL d   1      13.983   5.842  -6.347 -0.08 +0.03    -0.481    15.313
ATOM     37  H   UNL d   1      14.480   5.273  -6.972 +0.09 -0.03    +0.295    15.313
ATOM     38  C   UNL d   1      13.148  14.068  -9.217 -0.20 -0.00    +0.017    15.313
ATOM     39  C   UNL d   1      11.980  14.643  -9.544 -0.23 +0.00    +0.092    15.313
ATOM     40  C   UNL d   1      11.740  16.050  -9.212 -0.08 -0.00    +0.330    15.313
ATOM     41  O   UNL d   1      12.343  16.738  -8.411 -0.07 +0.01    -0.246    15.313
ATOM     42  O   UNL d   1      10.723  16.530  -9.944 -0.05 +0.01    -0.477    15.313
ATOM     43  H   UNL d   1      10.448  15.766 -10.493 +0.08 +0.00    +0.295    15.313
ATOM     44  C   UNL d   1      10.745   3.823 -12.103 -0.17 -0.10    +0.141    15.313
ATOM     45  C   UNL d   1      11.304   4.026 -13.486 -0.04 -0.18    +0.306    15.313
ATOM     46  O   UNL d   1      12.422   4.423 -13.766 -0.02 +0.08    -0.251    15.313
ATOM     47  O   UNL d   1      10.410   3.742 -14.450 +0.02 +0.52    -0.481    15.313
ATOM     48  H   UNL d   1       9.548   4.029 -14.081 -0.43 -0.60    +0.295    15.313
ATOM     49  C   UNL d   1      10.884  13.214 -14.260 -0.07 +0.00    +0.048    15.313
ATOM     50  C   UNL d   1       9.646  14.023 -13.875 -0.09 +0.01    +0.125    15.313
ATOM     51  C   UNL d   1       9.819  14.660 -12.525 -0.09 +0.01    +0.305    15.313
ATOM     52  O   UNL d   1       9.434  14.238 -11.449 -0.23 -0.02    -0.251    15.313
ATOM     53  O   UNL d   1      10.477  15.835 -12.603 +0.00 +0.01    -0.481    15.313
ATOM     54  H   UNL d   1      10.001  16.416 -11.973 +0.05 -0.01    +0.295    15.313
TER
ENDMDL
MODEL       35
USER    Run = 35
USER    Cluster Rank = 55
USER    Number of conformations in this cluster = 1
USER  
USER    RMSD from reference structure       = 17.216 A
USER  
USER    Estimated Free Energy of Binding    =   -3.31 kcal/mol  [=(1)+(2)+(3)-(4)]
USER    Estimated Inhibition Constant, Ki   =    3.75 mM (millimolar)  [Temperature = 298.15 K]
USER    
USER    (1) Final Intermolecular Energy     =   -7.19 kcal/mol
USER        vdW + Hbond + desolv Energy     =   -7.19 kcal/mol
USER        Electrostatic Energy            =   +0.00 kcal/mol
USER    (2) Final Total Internal Energy     =   -2.20 kcal/mol
USER    (3) Torsional Free Energy           =   +3.88 kcal/mol
USER    (4) Unbound System's Energy  [=(2)] =   -2.20 kcal/mol
USER    
USER    
USER  
USER    DPF = D:/Protein_go_brrr/autodock/final/mut_K82N/heme/dock.dpf
USER    NEWDPF move	heme_opt.pdbqt
USER    NEWDPF about	0.153000 0.018000 -0.028000
USER    NEWDPF tran0	10.660403 18.574809 -0.450177
USER    NEWDPF axisangle0	0.712284 0.092596 -0.695757 -159.080031
USER    NEWDPF quaternion0	0.700447 0.091057 -0.684194 -0.181549
USER    NEWDPF dihe0	-107.24 -59.59 124.76 -139.19 34.48 -151.31 -81.83 -21.89 133.73 -21.04 113.10 173.94 -169.34 
USER  
USER                              x       y       z    vdW   Elec        q     RMS 
ATOM      1  O   UNL d   1      10.431  17.458   5.334 -0.01 +0.01    -0.289    17.216
ATOM      2  O   UNL d   1      10.174  23.940   1.552 -0.02 +0.04    -0.289    17.216
ATOM      3  N   UNL d   1      10.741  17.633   1.903 -0.08 +0.01    -0.247    17.216
ATOM      4  N   UNL d   1      10.217  20.498   1.315 -0.05 +0.02    -0.247    17.216
ATOM      5  N   UNL d   1       9.953  19.785  -1.457 -0.06 +0.03    -0.354    17.216
ATOM      6  N   UNL d   1      10.478  16.812  -0.836 -0.12 +0.06    -0.354    17.216
ATOM      7  C   UNL d   1      10.570  15.810   3.533 -0.08 -0.00    +0.084    17.216
ATOM      8  C   UNL d   1      10.691  22.108   3.091 -0.04 -0.01    +0.084    17.216
ATOM      9  C   UNL d   1      10.595  20.650   2.631 -0.08 -0.01    +0.058    17.216
ATOM     10  C   UNL d   1      10.700  16.259   2.075 -0.13 -0.00    +0.058    17.216
ATOM     11  C   UNL d   1      10.563  17.173   4.158 -0.04 -0.01    +0.193    17.216
ATOM     12  C   UNL d   1      10.699  18.192   3.069 -0.08 -0.01    +0.109    17.216
ATOM     13  C   UNL d   1      10.263  22.755   1.804 -0.05 -0.02    +0.193    17.216
ATOM     14  C   UNL d   1       9.225  15.133   3.808 -0.19 +0.00    +0.026    17.216
ATOM     15  C   UNL d   1      10.809  19.613   3.455 -0.07 -0.00    +0.055    17.216
ATOM     16  C   UNL d   1      12.138  22.515   3.389 -0.01 -0.00    +0.026    17.216
ATOM     17  C   UNL d   1       9.998  21.670   0.811 -0.07 -0.01    +0.109    17.216
ATOM     18  C   UNL d   1      10.852  15.369   1.076 -0.25 -0.00    +0.050    17.216
ATOM     19  C   UNL d   1      11.063  15.692  -0.288 -0.25 -0.01    +0.045    17.216
ATOM     20  C   UNL d   1       9.510  21.082  -1.504 -0.12 -0.00    +0.045    17.216
ATOM     21  C   UNL d   1       9.517  22.005  -0.537 -0.10 -0.00    +0.057    17.216
ATOM     22  C   UNL d   1       9.177  20.113  -3.546 -0.16 +0.00    -0.019    17.216
ATOM     23  C   UNL d   1       9.792  19.120  -2.644 -0.16 -0.01    +0.045    17.216
ATOM     24  C   UNL d   1       9.014  21.273  -2.866 -0.18 +0.00    -0.022    17.216
ATOM     25  C   UNL d   1      10.740  16.883  -2.185 -0.19 -0.01    +0.049    17.216
ATOM     26  C   UNL d   1      11.753  15.040  -1.299 -0.29 +0.00    -0.018    17.216
ATOM     27  C   UNL d   1      11.561  15.807  -2.489 -0.25 -0.00    +0.003    17.216
ATOM     28  C   UNL d   1      10.113  17.866  -2.998 -0.23 -0.01    +0.052    17.216
ATOM     29  C   UNL d   1       8.448  22.565  -3.348 -0.21 -0.01    +0.046    17.216
ATOM     30  C   UNL d   1      12.543  13.782  -1.168 -0.30 -0.01    +0.046    17.216
ATOM     31  H   UNL d   1      10.420  19.418  -0.635 +0.04 -0.01    +0.166    17.216
ATOM     32  H   UNL d   1       9.903  17.458  -0.309 +0.05 -0.02    +0.166    17.216
ATOM     33  C   UNL d   1      11.739  14.978   4.072 -0.04 +0.00    +0.141    17.216
ATOM     34  C   UNL d   1      11.531  14.543   5.497 -0.00 +0.02    +0.306    17.216
ATOM     35  O   UNL d   1      10.972  13.523   5.865 -0.03 -0.04    -0.251    17.216
ATOM     36  O   UNL d   1      12.043  15.414   6.385 +0.01 -0.01    -0.481    17.216
ATOM     37  H   UNL d   1      11.456  16.198   6.327 +0.01 +0.00    +0.295    17.216
ATOM     38  C   UNL d   1      12.093  15.477  -3.777 -0.29 -0.00    +0.017    17.216
ATOM     39  C   UNL d   1      12.322  14.233  -4.226 -0.25 -0.02    +0.092    17.216
ATOM     40  C   UNL d   1      12.854  14.030  -5.576 -0.11 -0.03    +0.330    17.216
ATOM     41  O   UNL d   1      12.711  13.059  -6.293 -0.27 +0.02    -0.246    17.216
ATOM     42  O   UNL d   1      13.554  15.108  -5.963 -0.04 +0.03    -0.477    17.216
ATOM     43  H   UNL d   1      14.452  14.756  -6.132 +0.06 -0.02    +0.295    17.216
ATOM     44  C   UNL d   1       9.757  22.502   4.240 -0.04 -0.03    +0.141    17.216
ATOM     45  C   UNL d   1       8.309  22.561   3.835 -0.09 -0.11    +0.306    17.216
ATOM     46  O   UNL d   1       7.551  23.504   3.982 -0.11 +0.15    -0.251    17.216
ATOM     47  O   UNL d   1       7.880  21.410   3.285 -0.07 +0.14    -0.481    17.216
ATOM     48  H   UNL d   1       8.493  21.250   2.536 +0.08 -0.04    +0.295    17.216
ATOM     49  C   UNL d   1       8.796  19.835  -4.971 -0.17 -0.01    +0.048    17.216
ATOM     50  C   UNL d   1       7.281  19.729  -5.144 -0.27 -0.03    +0.125    17.216
ATOM     51  C   UNL d   1       6.741  18.530  -4.419 -0.29 -0.06    +0.305    17.216
ATOM     52  O   UNL d   1       7.320  17.487  -4.173 -0.37 +0.05    -0.251    17.216
ATOM     53  O   UNL d   1       5.459  18.705  -4.040 -0.73 +0.14    -0.481    17.216
ATOM     54  H   UNL d   1       5.045  19.159  -4.803 -0.39 -0.16    +0.295    17.216
TER
ENDMDL
MODEL       56
USER    Run = 56
USER    Cluster Rank = 56
USER    Number of conformations in this cluster = 1
USER  
USER    RMSD from reference structure       = 13.823 A
USER  
USER    Estimated Free Energy of Binding    =   -3.26 kcal/mol  [=(1)+(2)+(3)-(4)]
USER    Estimated Inhibition Constant, Ki   =    4.10 mM (millimolar)  [Temperature = 298.15 K]
USER    
USER    (1) Final Intermolecular Energy     =   -7.13 kcal/mol
USER        vdW + Hbond + desolv Energy     =   -6.53 kcal/mol
USER        Electrostatic Energy            =   -0.61 kcal/mol
USER    (2) Final Total Internal Energy     =   -3.30 kcal/mol
USER    (3) Torsional Free Energy           =   +3.88 kcal/mol
USER    (4) Unbound System's Energy  [=(2)] =   -3.30 kcal/mol
USER    
USER    
USER  
USER    DPF = D:/Protein_go_brrr/autodock/final/mut_K82N/heme/dock.dpf
USER    NEWDPF move	heme_opt.pdbqt
USER    NEWDPF about	0.153000 0.018000 -0.028000
USER    NEWDPF tran0	-8.420440 -12.078305 8.627884
USER    NEWDPF axisangle0	-0.179778 -0.035250 -0.983075 86.064517
USER    NEWDPF quaternion0	-0.122683 -0.024055 -0.670860 0.730970
USER    NEWDPF dihe0	127.57 -180.00 -162.49 14.20 -133.43 36.36 137.38 -63.31 24.61 -48.62 113.34 -32.07 42.34 
USER  
USER                              x       y       z    vdW   Elec        q     RMS 
ATOM      1  O   UNL d   1     -10.492 -17.592   8.887 -0.00 +0.02    -0.289    13.823
ATOM      2  O   UNL d   1      -4.274 -14.806   5.729 -0.36 +0.04    -0.289    13.823
ATOM      3  N   UNL d   1      -9.752 -14.223   8.873 -0.01 +0.03    -0.247    13.823
ATOM      4  N   UNL d   1      -7.022 -14.128   7.703 -0.10 +0.05    -0.247    13.823
ATOM      5  N   UNL d   1      -6.832 -11.404   8.603 -0.13 +0.05    -0.354    13.823
ATOM      6  N   UNL d   1      -9.657 -11.517   9.831 -0.01 +0.03    -0.354    13.823
ATOM      7  C   UNL d   1     -11.493 -15.607   9.903 -0.00 -0.01    +0.084    13.823
ATOM      8  C   UNL d   1      -6.380 -15.956   6.214 -0.13 -0.02    +0.084    13.823
ATOM      9  C   UNL d   1      -7.400 -15.344   7.179 -0.09 -0.01    +0.058    13.823
ATOM     10  C   UNL d   1     -10.876 -14.223   9.682 -0.01 -0.01    +0.058    13.823
ATOM     11  C   UNL d   1     -10.530 -16.387   9.060 -0.00 -0.02    +0.193    13.823
ATOM     12  C   UNL d   1      -9.538 -15.433   8.470 -0.02 -0.01    +0.109    13.823
ATOM     13  C   UNL d   1      -5.336 -14.880   6.316 -0.21 -0.04    +0.193    13.823
ATOM     14  C   UNL d   1     -11.365 -16.068  11.357 +0.00 -0.00    +0.026    13.823
ATOM     15  C   UNL d   1      -8.539 -15.966   7.522 -0.05 -0.01    +0.055    13.823
ATOM     16  C   UNL d   1      -6.909 -15.994   4.778 -0.25 -0.01    +0.026    13.823
ATOM     17  C   UNL d   1      -5.844 -13.834   7.255 -0.21 -0.02    +0.109    13.823
ATOM     18  C   UNL d   1     -11.453 -13.109  10.171 -0.01 -0.00    +0.050    13.823
ATOM     19  C   UNL d   1     -11.002 -11.783   9.948 -0.02 -0.00    +0.045    13.823
ATOM     20  C   UNL d   1      -5.533 -11.616   8.218 -0.23 -0.01    +0.045    13.823
ATOM     21  C   UNL d   1      -5.009 -12.670   7.585 -0.10 -0.02    +0.057    13.823
ATOM     22  C   UNL d   1      -5.675  -9.582   9.249 -0.36 +0.00    -0.019    13.823
ATOM     23  C   UNL d   1      -7.015 -10.203   9.234 -0.23 -0.01    +0.045    13.823
ATOM     24  C   UNL d   1      -4.802 -10.424   8.645 -0.38 +0.01    -0.022    13.823
ATOM     25  C   UNL d   1      -9.440 -10.164   9.711 -0.06 -0.01    +0.049    13.823
ATOM     26  C   UNL d   1     -11.680 -10.577   9.866 -0.02 +0.00    -0.018    13.823
ATOM     27  C   UNL d   1     -10.690  -9.560   9.696 -0.04 -0.00    +0.003    13.823
ATOM     28  C   UNL d   1      -8.122  -9.632   9.733 -0.15 -0.01    +0.052    13.823
ATOM     29  C   UNL d   1      -3.342 -10.239   8.406 -0.44 -0.02    +0.046    13.823
ATOM     30  C   UNL d   1     -13.156 -10.378   9.937 -0.01 -0.00    +0.046    13.823
ATOM     31  H   UNL d   1      -7.567 -12.057   8.355 +0.04 -0.02    +0.166    13.823
ATOM     32  H   UNL d   1      -8.939 -12.231   9.872 +0.02 -0.02    +0.166    13.823
ATOM     33  C   UNL d   1     -12.924 -15.779   9.382 -0.00 -0.01    +0.141    13.823
ATOM     34  C   UNL d   1     -12.991 -15.841   7.880 +0.00 -0.02    +0.306    13.823
ATOM     35  O   UNL d   1     -12.942 -14.891   7.117 -0.01 +0.02    -0.251    13.823
ATOM     36  O   UNL d   1     -13.112 -17.098   7.418 +0.00 +0.04    -0.481    13.823
ATOM     37  H   UNL d   1     -12.355 -17.580   7.813 +0.00 -0.02    +0.295    13.823
ATOM     38  C   UNL d   1     -10.958  -8.158   9.582 -0.03 -0.00    +0.017    13.823
ATOM     39  C   UNL d   1     -10.039  -7.211   9.336 -0.06 -0.01    +0.092    13.823
ATOM     40  C   UNL d   1     -10.448  -5.809   9.226 -0.01 -0.05    +0.330    13.823
ATOM     41  O   UNL d   1     -11.334  -5.242   9.837 -0.01 +0.03    -0.246    13.823
ATOM     42  O   UNL d   1      -9.682  -5.174   8.324 -0.02 +0.08    -0.477    13.823
ATOM     43  H   UNL d   1      -9.066  -5.868   8.010 +0.13 -0.06    +0.295    13.823
ATOM     44  C   UNL d   1      -5.809 -17.316   6.631 -0.08 -0.03    +0.141    13.823
ATOM     45  C   UNL d   1      -4.463 -17.216   7.299 -0.09 +0.02    +0.306    13.823
ATOM     46  O   UNL d   1      -4.250 -17.139   8.497 -0.08 -0.05    -0.251    13.823
ATOM     47  O   UNL d   1      -3.450 -17.189   6.414 -0.64 -0.23    -0.481    13.823
ATOM     48  H   UNL d   1      -3.875 -16.971   5.558 -0.29 -0.21    +0.295    13.823
ATOM     49  C   UNL d   1      -5.372  -8.246   9.859 -0.44 -0.01    +0.048    13.823
ATOM     50  C   UNL d   1      -6.464  -7.221   9.555 -0.33 -0.02    +0.125    13.823
ATOM     51  C   UNL d   1      -6.518  -6.913   8.086 -0.32 -0.06    +0.305    13.823
ATOM     52  O   UNL d   1      -5.694  -6.306   7.424 -0.28 +0.05    -0.251    13.823
ATOM     53  O   UNL d   1      -7.641  -7.387   7.511 -0.17 +0.13    -0.481    13.823
ATOM     54  H   UNL d   1      -7.459  -7.331   6.550 -0.26 -0.16    +0.295    13.823
TER
ENDMDL
MODEL       13
USER    Run = 13
USER    Cluster Rank = 57
USER    Number of conformations in this cluster = 1
USER  
USER    RMSD from reference structure       = 14.078 A
USER  
USER    Estimated Free Energy of Binding    =   -3.21 kcal/mol  [=(1)+(2)+(3)-(4)]
USER    Estimated Inhibition Constant, Ki   =    4.46 mM (millimolar)  [Temperature = 298.15 K]
USER    
USER    (1) Final Intermolecular Energy     =   -7.08 kcal/mol
USER        vdW + Hbond + desolv Energy     =   -6.69 kcal/mol
USER        Electrostatic Energy            =   -0.40 kcal/mol
USER    (2) Final Total Internal Energy     =   -3.80 kcal/mol
USER    (3) Torsional Free Energy           =   +3.88 kcal/mol
USER    (4) Unbound System's Energy  [=(2)] =   -3.80 kcal/mol
USER    
USER    
USER  
USER    DPF = D:/Protein_go_brrr/autodock/final/mut_K82N/heme/dock.dpf
USER    NEWDPF move	heme_opt.pdbqt
USER    NEWDPF about	0.153000 0.018000 -0.028000
USER    NEWDPF tran0	14.340943 9.830248 -5.341976
USER    NEWDPF axisangle0	0.559346 -0.558416 0.612620 124.052217
USER    NEWDPF quaternion0	0.493993 -0.493172 0.541042 0.469069
USER    NEWDPF dihe0	141.76 5.25 -105.86 -80.60 -136.56 -57.39 121.90 -16.71 19.58 -31.46 -55.07 8.03 20.09 
USER  
USER                              x       y       z    vdW   Elec        q     RMS 
ATOM      1  O   UNL d   1      15.425  15.243  -7.413 -0.01 +0.02    -0.289    14.078
ATOM      2  O   UNL d   1      12.859  12.941  -0.741 -0.20 +0.03    -0.289    14.078
ATOM      3  N   UNL d   1      14.811  11.926  -6.690 -0.09 +0.02    -0.247    14.078
ATOM      4  N   UNL d   1      14.136  11.971  -3.797 -0.14 +0.05    -0.247    14.078
ATOM      5  N   UNL d   1      14.445   9.113  -3.776 -0.12 +0.02    -0.354    14.078
ATOM      6  N   UNL d   1      15.163   9.077  -6.773 -0.07 +0.02    -0.354    14.078
ATOM      7  C   UNL d   1      15.799  13.130  -8.583 -0.04 -0.00    +0.084    14.078
ATOM      8  C   UNL d   1      13.211  14.046  -2.897 -0.20 -0.02    +0.084    14.078
ATOM      9  C   UNL d   1      13.831  13.285  -4.074 -0.19 -0.01    +0.058    14.078
ATOM     10  C   UNL d   1      15.394  11.800  -7.940 -0.10 -0.00    +0.058    14.078
ATOM     11  C   UNL d   1      15.324  14.031  -7.484 -0.03 -0.01    +0.193    14.078
ATOM     12  C   UNL d   1      14.722  13.185  -6.406 -0.11 -0.01    +0.109    14.078
ATOM     13  C   UNL d   1      13.257  12.931  -1.890 -0.14 -0.04    +0.193    14.078
ATOM     14  C   UNL d   1      17.318  13.266  -8.714 -0.01 -0.00    +0.026    14.078
ATOM     15  C   UNL d   1      14.098  13.866  -5.253 -0.17 -0.01    +0.055    14.078
ATOM     16  C   UNL d   1      11.748  14.410  -3.163 -0.25 -0.01    +0.026    14.078
ATOM     17  C   UNL d   1      13.845  11.732  -2.559 -0.16 -0.02    +0.109    14.078
ATOM     18  C   UNL d   1      15.525  10.632  -8.597 -0.13 -0.00    +0.050    14.078
ATOM     19  C   UNL d   1      15.101   9.367  -8.118 -0.11 -0.00    +0.045    14.078
ATOM     20  C   UNL d   1      14.345   9.349  -2.429 -0.23 -0.00    +0.045    14.078
ATOM     21  C   UNL d   1      14.054  10.491  -1.798 -0.25 -0.01    +0.057    14.078
ATOM     22  C   UNL d   1      14.871   7.150  -2.756 -0.17 -0.00    -0.019    14.078
ATOM     23  C   UNL d   1      14.760   7.813  -4.070 -0.16 -0.00    +0.045    14.078
ATOM     24  C   UNL d   1      14.623   8.064  -1.788 -0.18 -0.00    -0.022    14.078
ATOM     25  C   UNL d   1      14.792   7.773  -6.542 -0.14 -0.00    +0.049    14.078
ATOM     26  C   UNL d   1      14.644   8.234  -8.772 -0.13 +0.00    -0.018    14.078
ATOM     27  C   UNL d   1      14.432   7.237  -7.771 -0.14 -0.00    +0.003    14.078
ATOM     28  C   UNL d   1      14.925   7.195  -5.250 -0.20 -0.00    +0.052    14.078
ATOM     29  C   UNL d   1      14.605   7.876  -0.309 -0.17 +0.00    +0.046    14.078
ATOM     30  C   UNL d   1      14.415   8.084 -10.238 -0.17 -0.00    +0.046    14.078
ATOM     31  H   UNL d   1      14.221   9.833  -4.454 +0.05 -0.02    +0.166    14.078
ATOM     32  H   UNL d   1      15.480   9.736  -6.072 +0.04 -0.01    +0.166    14.078
ATOM     33  C   UNL d   1      15.090  13.466  -9.899 -0.05 -0.01    +0.141    14.078
ATOM     34  C   UNL d   1      13.620  13.730  -9.714 -0.09 -0.01    +0.306    14.078
ATOM     35  O   UNL d   1      12.741  12.889  -9.637 -0.17 -0.00    -0.251    14.078
ATOM     36  O   UNL d   1      13.336  15.042  -9.632 -0.01 +0.01    -0.481    14.078
ATOM     37  H   UNL d   1      14.055  15.416  -9.079 +0.04 -0.01    +0.295    14.078
ATOM     38  C   UNL d   1      13.973   5.903  -8.018 -0.21 -0.00    +0.017    14.078
ATOM     39  C   UNL d   1      13.031   5.264  -7.308 -0.30 -0.01    +0.092    14.078
ATOM     40  C   UNL d   1      12.638   3.902  -7.676 -0.17 -0.15    +0.330    14.078
ATOM     41  O   UNL d   1      12.175   3.521  -8.735 -0.19 +0.15    -0.246    14.078
ATOM     42  O   UNL d   1      12.867   3.063  -6.654 -0.11 +0.23    -0.477    14.078
ATOM     43  H   UNL d   1      12.656   2.181  -7.022 -0.46 -0.46    +0.295    14.078
ATOM     44  C   UNL d   1      14.004  15.262  -2.406 -0.07 -0.02    +0.141    14.078
ATOM     45  C   UNL d   1      15.142  14.898  -1.489 -0.01 -0.02    +0.306    14.078
ATOM     46  O   UNL d   1      16.225  14.446  -1.819 -0.01 +0.02    -0.251    14.078
ATOM     47  O   UNL d   1      14.844  15.099  -0.193 +0.00 +0.03    -0.481    14.078
ATOM     48  H   UNL d   1      14.222  14.374   0.033 +0.04 -0.02    +0.295    14.078
ATOM     49  C   UNL d   1      15.221   5.703  -2.569 -0.13 +0.00    +0.048    14.078
ATOM     50  C   UNL d   1      14.165   4.780  -3.176 -0.17 +0.02    +0.125    14.078
ATOM     51  C   UNL d   1      14.791   3.810  -4.138 -0.08 +0.05    +0.305    14.078
ATOM     52  O   UNL d   1      15.846   3.931  -4.735 -0.02 -0.01    -0.251    14.078
ATOM     53  O   UNL d   1      14.028   2.713  -4.315 -0.46 -0.25    -0.481    14.078
ATOM     54  H   UNL d   1      13.551   2.886  -5.154 +0.10 +0.10    +0.295    14.078
TER
ENDMDL
MODEL        1
USER    Run = 1
USER    Cluster Rank = 58
USER    Number of conformations in this cluster = 1
USER  
USER    RMSD from reference structure       = 15.076 A
USER  
USER    Estimated Free Energy of Binding    =   -3.19 kcal/mol  [=(1)+(2)+(3)-(4)]
USER    Estimated Inhibition Constant, Ki   =    4.56 mM (millimolar)  [Temperature = 298.15 K]
USER    
USER    (1) Final Intermolecular Energy     =   -7.07 kcal/mol
USER        vdW + Hbond + desolv Energy     =   -7.00 kcal/mol
USER        Electrostatic Energy            =   -0.07 kcal/mol
USER    (2) Final Total Internal Energy     =   -4.03 kcal/mol
USER    (3) Torsional Free Energy           =   +3.88 kcal/mol
USER    (4) Unbound System's Energy  [=(2)] =   -4.03 kcal/mol
USER    
USER    
USER  
USER    DPF = D:/Protein_go_brrr/autodock/final/mut_K82N/heme/dock.dpf
USER    NEWDPF move	heme_opt.pdbqt
USER    NEWDPF about	0.153000 0.018000 -0.028000
USER    NEWDPF tran0	12.499964 13.821670 -2.864902
USER    NEWDPF axisangle0	-0.674931 0.184208 -0.714518 -125.714506
USER    NEWDPF quaternion0	-0.600603 0.163921 -0.635830 -0.456209
USER    NEWDPF dihe0	145.11 -136.68 -95.94 -24.95 -137.11 35.77 123.00 -106.67 20.12 -34.68 36.34 -90.55 135.60 
USER  
USER                              x       y       z    vdW   Elec        q     RMS 
ATOM      1  O   UNL d   1      12.966  17.507  -7.443 -0.04 +0.02    -0.289    15.076
ATOM      2  O   UNL d   1       8.835  17.919  -1.186 -0.23 +0.03    -0.289    15.076
ATOM      3  N   UNL d   1      12.917  15.005  -5.069 -0.12 +0.02    -0.247    15.076
ATOM      4  N   UNL d   1      11.284  16.174  -2.879 -0.17 +0.06    -0.247    15.076
ATOM      5  N   UNL d   1      12.212  14.050  -1.178 -0.18 +0.06    -0.354    15.076
ATOM      6  N   UNL d   1      13.919  12.855  -3.450 -0.08 +0.07    -0.354    15.076
ATOM      7  C   UNL d   1      14.200  15.422  -7.116 -0.07 -0.00    +0.084    15.076
ATOM      8  C   UNL d   1       9.654  17.888  -3.493 -0.21 -0.02    +0.084    15.076
ATOM      9  C   UNL d   1      10.802  16.959  -3.902 -0.21 -0.01    +0.058    15.076
ATOM     10  C   UNL d   1      13.912  14.528  -5.906 -0.13 -0.00    +0.058    15.076
ATOM     11  C   UNL d   1      13.178  16.479  -6.825 -0.06 -0.01    +0.193    15.076
ATOM     12  C   UNL d   1      12.448  16.100  -5.574 -0.07 -0.01    +0.109    15.076
ATOM     13  C   UNL d   1       9.599  17.511  -2.039 -0.18 -0.04    +0.193    15.076
ATOM     14  C   UNL d   1      15.594  16.049  -7.048 -0.02 -0.00    +0.026    15.076
ATOM     15  C   UNL d   1      11.323  16.952  -5.139 -0.11 -0.00    +0.055    15.076
ATOM     16  C   UNL d   1       8.333  17.485  -4.156 -0.42 -0.01    +0.026    15.076
ATOM     17  C   UNL d   1      10.642  16.470  -1.795 -0.06 -0.03    +0.109    15.076
ATOM     18  C   UNL d   1      14.528  13.341  -5.746 -0.16 -0.00    +0.050    15.076
ATOM     19  C   UNL d   1      14.266  12.412  -4.707 -0.20 -0.01    +0.045    15.076
ATOM     20  C   UNL d   1      11.597  14.846  -0.247 -0.28 -0.01    +0.045    15.076
ATOM     21  C   UNL d   1      10.851  15.938  -0.440 -0.27 -0.01    +0.057    15.076
ATOM     22  C   UNL d   1      12.694  13.158   0.833 -0.18 +0.00    -0.019    15.076
ATOM     23  C   UNL d   1      12.900  13.005  -0.621 -0.22 -0.00    +0.045    15.076
ATOM     24  C   UNL d   1      11.921  14.248   1.048 -0.21 +0.00    -0.022    15.076
ATOM     25  C   UNL d   1      13.801  11.796  -2.580 -0.17 -0.01    +0.049    15.076
ATOM     26  C   UNL d   1      14.339  11.029  -4.662 -0.26 +0.00    -0.018    15.076
ATOM     27  C   UNL d   1      14.025  10.644  -3.321 -0.30 -0.00    +0.003    15.076
ATOM     28  C   UNL d   1      13.603  12.013  -1.190 -0.22 -0.01    +0.052    15.076
ATOM     29  C   UNL d   1      11.432  14.805   2.342 -0.15 -0.00    +0.046    15.076
ATOM     30  C   UNL d   1      14.677  10.117  -5.792 -0.20 -0.00    +0.046    15.076
ATOM     31  H   UNL d   1      12.081  14.205  -2.172 +0.02 -0.04    +0.166    15.076
ATOM     32  H   UNL d   1      13.811  13.833  -3.211 +0.04 -0.03    +0.166    15.076
ATOM     33  C   UNL d   1      13.937  14.781  -8.483 -0.10 -0.00    +0.141    15.076
ATOM     34  C   UNL d   1      12.475  14.527  -8.732 -0.13 +0.00    +0.306    15.076
ATOM     35  O   UNL d   1      11.834  13.565  -8.343 -0.20 -0.02    -0.251    15.076
ATOM     36  O   UNL d   1      11.895  15.501  -9.456 -0.05 -0.00    -0.481    15.076
ATOM     37  H   UNL d   1      12.315  16.328  -9.138 +0.06 -0.01    +0.295    15.076
ATOM     38  C   UNL d   1      14.000   9.298  -2.834 -0.25 -0.00    +0.017    15.076
ATOM     39  C   UNL d   1      14.676   8.849  -1.766 -0.20 -0.00    +0.092    15.076
ATOM     40  C   UNL d   1      14.551   7.446  -1.359 -0.10 +0.03    +0.330    15.076
ATOM     41  O   UNL d   1      14.395   6.476  -2.075 -0.59 -0.06    -0.246    15.076
ATOM     42  O   UNL d   1      14.642   7.343  -0.024 -0.06 -0.02    -0.477    15.076
ATOM     43  H   UNL d   1      14.093   8.083   0.307 +0.06 -0.00    +0.295    15.076
ATOM     44  C   UNL d   1       9.924  19.386  -3.661 -0.10 -0.02    +0.141    15.076
ATOM     45  C   UNL d   1      10.655  19.994  -2.494 -0.05 -0.03    +0.306    15.076
ATOM     46  O   UNL d   1      11.850  19.920  -2.266 -0.02 +0.02    -0.251    15.076
ATOM     47  O   UNL d   1       9.831  20.644  -1.653 -0.04 +0.04    -0.481    15.076
ATOM     48  H   UNL d   1       9.466  19.943  -1.071 +0.08 -0.01    +0.295    15.076
ATOM     49  C   UNL d   1      13.278  12.241   1.868 -0.13 -0.00    +0.048    15.076
ATOM     50  C   UNL d   1      14.787  12.072   1.691 -0.05 -0.00    +0.125    15.076
ATOM     51  C   UNL d   1      15.209  10.664   2.000 -0.02 -0.01    +0.305    15.076
ATOM     52  O   UNL d   1      15.899  10.282   2.928 -0.01 +0.00    -0.251    15.076
ATOM     53  O   UNL d   1      14.737   9.786   1.092 -0.02 +0.01    -0.481    15.076
ATOM     54  H   UNL d   1      15.372   9.039   1.131 +0.03 -0.01    +0.295    15.076
TER
ENDMDL
MODEL       11
USER    Run = 11
USER    Cluster Rank = 59
USER    Number of conformations in this cluster = 1
USER  
USER    RMSD from reference structure       = 14.715 A
USER  
USER    Estimated Free Energy of Binding    =   -3.14 kcal/mol  [=(1)+(2)+(3)-(4)]
USER    Estimated Inhibition Constant, Ki   =    5.00 mM (millimolar)  [Temperature = 298.15 K]
USER    
USER    (1) Final Intermolecular Energy     =   -7.02 kcal/mol
USER        vdW + Hbond + desolv Energy     =   -6.98 kcal/mol
USER        Electrostatic Energy            =   -0.03 kcal/mol
USER    (2) Final Total Internal Energy     =   -4.14 kcal/mol
USER    (3) Torsional Free Energy           =   +3.88 kcal/mol
USER    (4) Unbound System's Energy  [=(2)] =   -4.14 kcal/mol
USER    
USER    
USER  
USER    DPF = D:/Protein_go_brrr/autodock/final/mut_K82N/heme/dock.dpf
USER    NEWDPF move	heme_opt.pdbqt
USER    NEWDPF about	0.153000 0.018000 -0.028000
USER    NEWDPF tran0	13.770508 1.284053 10.849282
USER    NEWDPF axisangle0	0.151806 0.906802 -0.393275 124.138860
USER    NEWDPF quaternion0	0.134123 0.801174 -0.347465 0.468401
USER    NEWDPF dihe0	143.67 -125.12 -117.61 -129.11 -139.47 55.16 120.13 -14.92 14.07 -31.85 121.42 -60.69 36.74 
USER  
USER                              x       y       z    vdW   Elec        q     RMS 
ATOM      1  O   UNL d   1      15.984  -0.807   5.801 -0.02 -0.01    -0.289    14.715
ATOM      2  O   UNL d   1      17.034  -2.973  12.915 -0.09 -0.01    -0.289    14.715
ATOM      3  N   UNL d   1      14.560   0.830   8.482 -0.63 -0.03    -0.247    14.715
ATOM      4  N   UNL d   1      15.277  -0.893  10.794 -0.08 +0.04    -0.247    14.715
ATOM      5  N   UNL d   1      13.343   0.554  12.354 -0.08 +0.08    -0.354    14.715
ATOM      6  N   UNL d   1      12.591   2.324   9.945 -0.09 +0.02    -0.354    14.715
ATOM      7  C   UNL d   1      14.376   1.018   6.045 -0.09 +0.01    +0.084    14.715
ATOM      8  C   UNL d   1      17.292  -2.259  10.587 -0.06 -0.00    +0.084    14.715
ATOM      9  C   UNL d   1      16.284  -1.299   9.947 -0.10 -0.00    +0.058    14.715
ATOM     10  C   UNL d   1      13.951   1.501   7.435 -0.07 +0.00    +0.058    14.715
ATOM     11  C   UNL d   1      15.347  -0.033   6.492 -0.05 +0.01    +0.193    14.715
ATOM     12  C   UNL d   1      15.388  -0.032   7.989 +0.01 +0.01    +0.109    14.715
ATOM     13  C   UNL d   1      16.650  -2.353  11.942 -0.10 -0.00    +0.193    14.715
ATOM     14  C   UNL d   1      13.225   0.342   5.295 -0.23 +0.00    +0.026    14.715
ATOM     15  C   UNL d   1      16.351  -0.929   8.659 -0.09 -0.00    +0.055    14.715
ATOM     16  C   UNL d   1      18.673  -1.614  10.740 -0.02 -0.00    +0.026    14.715
ATOM     17  C   UNL d   1      15.434  -1.484  11.935 -0.17 -0.01    +0.109    14.715
ATOM     18  C   UNL d   1      13.124   2.552   7.591 -0.18 -0.00    +0.050    14.715
ATOM     19  C   UNL d   1      12.743   3.121   8.833 -0.17 -0.00    +0.045    14.715
ATOM     20  C   UNL d   1      13.632  -0.465  13.224 -0.27 -0.01    +0.045    14.715
ATOM     21  C   UNL d   1      14.572  -1.411  13.124 -0.28 -0.01    +0.057    14.715
ATOM     22  C   UNL d   1      11.894   0.754  14.067 -0.32 +0.01    -0.019    14.715
ATOM     23  C   UNL d   1      12.308   1.344  12.778 -0.24 -0.01    +0.045    14.715
ATOM     24  C   UNL d   1      12.683  -0.316  14.326 -0.32 +0.01    -0.022    14.715
ATOM     25  C   UNL d   1      12.132   3.063  11.010 -0.12 -0.00    +0.049    14.715
ATOM     26  C   UNL d   1      12.409   4.417   9.194 -0.16 +0.00    -0.018    14.715
ATOM     27  C   UNL d   1      12.043   4.378  10.575 -0.17 -0.00    +0.003    14.715
ATOM     28  C   UNL d   1      11.750   2.432  12.225 -0.11 -0.00    +0.052    14.715
ATOM     29  C   UNL d   1      12.661  -1.226  15.506 -0.29 -0.01    +0.046    14.715
ATOM     30  C   UNL d   1      12.431   5.620   8.313 -0.14 +0.00    +0.046    14.715
ATOM     31  H   UNL d   1      13.914   0.722  11.532 -0.01 -0.03    +0.166    14.715
ATOM     32  H   UNL d   1      12.760   1.325   9.946 +0.02 -0.02    +0.166    14.715
ATOM     33  C   UNL d   1      15.079   2.063   5.172 -0.03 +0.00    +0.141    14.715
ATOM     34  C   UNL d   1      16.368   2.551   5.778 +0.00 -0.00    +0.306    14.715
ATOM     35  O   UNL d   1      16.485   3.449   6.594 -0.00 +0.00    -0.251    14.715
ATOM     36  O   UNL d   1      17.440   1.878   5.325 +0.01 +0.00    -0.481    14.715
ATOM     37  H   UNL d   1      17.138   0.947   5.259 +0.01 +0.00    +0.295    14.715
ATOM     38  C   UNL d   1      11.614   5.505  11.347 -0.20 -0.00    +0.017    14.715
ATOM     39  C   UNL d   1      10.856   5.443  12.453 -0.25 -0.01    +0.092    14.715
ATOM     40  C   UNL d   1      10.499   6.674  13.163 -0.17 -0.01    +0.330    14.715
ATOM     41  O   UNL d   1       9.978   7.672  12.704 -0.45 -0.02    -0.246    14.715
ATOM     42  O   UNL d   1      10.822   6.568  14.461 -0.06 +0.03    -0.477    14.715
ATOM     43  H   UNL d   1      11.773   6.335  14.448 +0.07 -0.01    +0.295    14.715
ATOM     44  C   UNL d   1      17.395  -3.641   9.933 -0.05 -0.00    +0.141    14.715
ATOM     45  C   UNL d   1      16.316  -4.591  10.378 -0.11 +0.00    +0.306    14.715
ATOM     46  O   UNL d   1      15.151  -4.586  10.021 -0.22 +0.00    -0.251    14.715
ATOM     47  O   UNL d   1      16.759  -5.489  11.277 -0.05 -0.02    -0.481    14.715
ATOM     48  H   UNL d   1      17.050  -4.949  12.043 +0.06 +0.02    +0.295    14.715
ATOM     49  C   UNL d   1      10.768   1.277  14.910 -0.44 -0.02    +0.048    14.715
ATOM     50  C   UNL d   1      10.836   2.795  15.070 -0.33 -0.02    +0.125    14.715
ATOM     51  C   UNL d   1      12.145   3.213  15.678 -0.09 -0.02    +0.305    14.715
ATOM     52  O   UNL d   1      12.911   2.530  16.334 -0.07 +0.01    -0.251    14.715
ATOM     53  O   UNL d   1      12.425   4.508  15.431 +0.00 +0.02    -0.481    14.715
ATOM     54  H   UNL d   1      11.609   4.983  15.695 +0.09 -0.02    +0.295    14.715
TER
ENDMDL
MODEL       26
USER    Run = 26
USER    Cluster Rank = 60
USER    Number of conformations in this cluster = 1
USER  
USER    RMSD from reference structure       = 17.232 A
USER  
USER    Estimated Free Energy of Binding    =   -3.09 kcal/mol  [=(1)+(2)+(3)-(4)]
USER    Estimated Inhibition Constant, Ki   =    5.41 mM (millimolar)  [Temperature = 298.15 K]
USER    
USER    (1) Final Intermolecular Energy     =   -6.97 kcal/mol
USER        vdW + Hbond + desolv Energy     =   -6.93 kcal/mol
USER        Electrostatic Energy            =   -0.04 kcal/mol
USER    (2) Final Total Internal Energy     =   -4.42 kcal/mol
USER    (3) Torsional Free Energy           =   +3.88 kcal/mol
USER    (4) Unbound System's Energy  [=(2)] =   -4.42 kcal/mol
USER    
USER    
USER  
USER    DPF = D:/Protein_go_brrr/autodock/final/mut_K82N/heme/dock.dpf
USER    NEWDPF move	heme_opt.pdbqt
USER    NEWDPF about	0.153000 0.018000 -0.028000
USER    NEWDPF tran0	9.954386 16.894704 -7.797083
USER    NEWDPF axisangle0	0.928121 -0.364123 0.077494 113.383620
USER    NEWDPF quaternion0	0.775658 -0.304308 0.064764 0.549142
USER    NEWDPF dihe0	132.26 -170.49 -109.96 -57.73 -117.01 -65.52 126.28 -103.58 5.29 -19.74 -105.32 26.84 -5.70 
USER  
USER                              x       y       z    vdW   Elec        q     RMS 
ATOM      1  O   UNL d   1       5.034  20.112  -8.243 -0.20 +0.09    -0.289    17.232
ATOM      2  O   UNL d   1       9.068  18.081  -2.243 -0.21 +0.05    -0.289    17.232
ATOM      3  N   UNL d   1       7.811  18.078  -8.460 -0.11 +0.03    -0.247    17.232
ATOM      4  N   UNL d   1       8.884  18.088  -5.689 -0.09 +0.03    -0.247    17.232
ATOM      5  N   UNL d   1      11.303  16.926  -6.721 +0.22 +0.01    -0.354    17.232
ATOM      6  N   UNL d   1      10.190  16.938  -9.595 -0.07 +0.01    -0.354    17.232
ATOM      7  C   UNL d   1       6.320  19.148 -10.085 -0.08 -0.02    +0.084    17.232
ATOM      8  C   UNL d   1       7.299  18.515  -3.879 -0.38 -0.02    +0.084    17.232
ATOM      9  C   UNL d   1       7.587  18.432  -5.381 -0.29 -0.01    +0.058    17.232
ATOM     10  C   UNL d   1       7.541  18.267  -9.805 -0.12 -0.01    +0.058    17.232
ATOM     11  C   UNL d   1       5.937  19.409  -8.659 -0.14 -0.05    +0.193    17.232
ATOM     12  C   UNL d   1       6.901  18.685  -7.771 -0.21 -0.02    +0.109    17.232
ATOM     13  C   UNL d   1       8.683  18.191  -3.391 -0.21 -0.03    +0.193    17.232
ATOM     14  C   UNL d   1       6.708  20.475 -10.743 -0.04 -0.00    +0.026    17.232
ATOM     15  C   UNL d   1       6.665  18.720  -6.313 -0.35 -0.01    +0.055    17.232
ATOM     16  C   UNL d   1       6.345  17.408  -3.421 -0.65 -0.00    +0.026    17.232
ATOM     17  C   UNL d   1       9.550  17.961  -4.587 -0.17 -0.02    +0.109    17.232
ATOM     18  C   UNL d   1       8.219  17.668 -10.802 -0.12 -0.00    +0.050    17.232
ATOM     19  C   UNL d   1       9.305  16.771 -10.636 -0.15 -0.00    +0.045    17.232
ATOM     20  C   UNL d   1      11.708  17.219  -5.444 -0.10 -0.00    +0.045    17.232
ATOM     21  C   UNL d   1      10.980  17.665  -4.416 -0.16 -0.01    +0.057    17.232
ATOM     22  C   UNL d   1      13.515  16.504  -6.646 -0.08 +0.00    -0.019    17.232
ATOM     23  C   UNL d   1      12.325  16.488  -7.520 -0.06 -0.00    +0.045    17.232
ATOM     24  C   UNL d   1      13.143  16.937  -5.418 -0.08 +0.00    -0.022    17.232
ATOM     25  C   UNL d   1      11.210  16.018  -9.676 -0.15 -0.00    +0.049    17.232
ATOM     26  C   UNL d   1       9.740  15.693 -11.391 -0.18 +0.00    -0.018    17.232
ATOM     27  C   UNL d   1      10.933  15.210 -10.770 -0.20 +0.00    +0.003    17.232
ATOM     28  C   UNL d   1      12.329  16.091  -8.802 -0.13 -0.00    +0.052    17.232
ATOM     29  C   UNL d   1      13.981  17.113  -4.197 -0.04 -0.00    +0.046    17.232
ATOM     30  C   UNL d   1       9.089  15.143 -12.615 -0.17 +0.00    +0.046    17.232
ATOM     31  H   UNL d   1      10.325  16.966  -6.984 +0.08 +0.00    +0.166    17.232
ATOM     32  H   UNL d   1      10.106  17.670  -8.900 +0.03 -0.01    +0.166    17.232
ATOM     33  C   UNL d   1       5.173  18.463 -10.834 -0.11 -0.03    +0.141    17.232
ATOM     34  C   UNL d   1       4.734  17.182 -10.175 -0.14 -0.10    +0.306    17.232
ATOM     35  O   UNL d   1       5.415  16.182 -10.021 -0.30 +0.08    -0.251    17.232
ATOM     36  O   UNL d   1       3.462  17.231  -9.744 +0.25 +0.23    -0.481    17.232
ATOM     37  H   UNL d   1       3.408  18.062  -9.225 -0.41 -0.20    +0.295    17.232
ATOM     38  C   UNL d   1      11.720  14.109 -11.238 -0.21 +0.00    +0.017    17.232
ATOM     39  C   UNL d   1      11.921  12.962 -10.572 -0.21 +0.00    +0.092    17.232
ATOM     40  C   UNL d   1      12.736  11.903 -11.172 -0.12 +0.01    +0.330    17.232
ATOM     41  O   UNL d   1      12.477  11.228 -12.151 -0.14 -0.01    -0.246    17.232
ATOM     42  O   UNL d   1      13.879  11.754 -10.485 -0.06 +0.01    -0.477    17.232
ATOM     43  H   UNL d   1      13.747  12.307  -9.687 +0.08 -0.00    +0.295    17.232
ATOM     44  C   UNL d   1       6.845  19.886  -3.368 -0.36 -0.03    +0.141    17.232
ATOM     45  C   UNL d   1       7.934  20.925  -3.404 -0.18 -0.07    +0.306    17.232
ATOM     46  O   UNL d   1       8.279  21.583  -4.371 -0.14 +0.07    -0.251    17.232
ATOM     47  O   UNL d   1       8.554  21.062  -2.219 -0.06 +0.04    -0.481    17.232
ATOM     48  H   UNL d   1       9.055  20.227  -2.103 +0.10 -0.02    +0.295    17.232
ATOM     49  C   UNL d   1      14.893  16.114  -7.091 -0.04 -0.00    +0.048    17.232
ATOM     50  C   UNL d   1      15.150  14.619  -6.901 -0.05 -0.01    +0.125    17.232
ATOM     51  C   UNL d   1      14.444  13.815  -7.956 -0.07 -0.01    +0.305    17.232
ATOM     52  O   UNL d   1      13.481  13.083  -7.811 -0.17 +0.01    -0.251    17.232
ATOM     53  O   UNL d   1      15.011  13.967  -9.169 -0.00 +0.02    -0.481    17.232
ATOM     54  H   UNL d   1      15.261  13.056  -9.431 +0.04 -0.01    +0.295    17.232
TER
ENDMDL
MODEL       77
USER    Run = 77
USER    Cluster Rank = 61
USER    Number of conformations in this cluster = 1
USER  
USER    RMSD from reference structure       = 16.947 A
USER  
USER    Estimated Free Energy of Binding    =   -3.08 kcal/mol  [=(1)+(2)+(3)-(4)]
USER    Estimated Inhibition Constant, Ki   =    5.52 mM (millimolar)  [Temperature = 298.15 K]
USER    
USER    (1) Final Intermolecular Energy     =   -6.96 kcal/mol
USER        vdW + Hbond + desolv Energy     =   -6.88 kcal/mol
USER        Electrostatic Energy            =   -0.08 kcal/mol
USER    (2) Final Total Internal Energy     =   -4.65 kcal/mol
USER    (3) Torsional Free Energy           =   +3.88 kcal/mol
USER    (4) Unbound System's Energy  [=(2)] =   -4.65 kcal/mol
USER    
USER    
USER  
USER    DPF = D:/Protein_go_brrr/autodock/final/mut_K82N/heme/dock.dpf
USER    NEWDPF move	heme_opt.pdbqt
USER    NEWDPF about	0.153000 0.018000 -0.028000
USER    NEWDPF tran0	11.334585 16.794552 -4.356656
USER    NEWDPF axisangle0	0.746278 -0.652544 -0.131361 -92.507657
USER    NEWDPF quaternion0	0.539119 -0.471405 -0.094896 -0.691465
USER    NEWDPF dihe0	-179.37 153.58 104.53 49.31 -150.79 118.70 -49.22 46.86 20.07 -128.32 -84.98 -125.75 7.78 
USER  
USER                              x       y       z    vdW   Elec        q     RMS 
ATOM      1  O   UNL d   1       7.193  20.635  -6.047 -0.13 +0.10    -0.289    16.947
ATOM      2  O   UNL d   1      12.924  17.588  -9.823 -0.01 +0.01    -0.289    16.947
ATOM      3  N   UNL d   1       9.474  18.504  -4.580 -0.09 +0.04    -0.247    16.947
ATOM      4  N   UNL d   1      11.137  17.601  -6.871 -0.05 +0.01    -0.247    16.947
ATOM      5  N   UNL d   1      12.197  15.540  -5.170 -0.06 +0.03    -0.354    16.947
ATOM      6  N   UNL d   1      10.454  16.471  -2.804 -0.05 +0.12    -0.354    16.947
ATOM      7  C   UNL d   1       7.391  19.571  -3.855 -0.32 -0.02    +0.084    16.947
ATOM      8  C   UNL d   1      11.289  19.094  -8.799 -0.03 -0.01    +0.084    16.947
ATOM      9  C   UNL d   1      10.675  18.770  -7.434 -0.07 -0.00    +0.058    16.947
ATOM     10  C   UNL d   1       8.572  18.649  -3.540 -0.25 -0.01    +0.058    16.947
ATOM     11  C   UNL d   1       7.795  19.937  -5.251 -0.15 -0.05    +0.193    16.947
ATOM     12  C   UNL d   1       9.087  19.248  -5.564 -0.11 -0.02    +0.109    16.947
ATOM     13  C   UNL d   1      12.157  17.874  -8.925 -0.04 -0.01    +0.193    16.947
ATOM     14  C   UNL d   1       6.064  18.809  -3.907 -0.61 -0.01    +0.026    16.947
ATOM     15  C   UNL d   1       9.731  19.534  -6.862 -0.08 -0.01    +0.055    16.947
ATOM     16  C   UNL d   1      12.187  20.333  -8.738 -0.01 -0.00    +0.026    16.947
ATOM     17  C   UNL d   1      11.967  17.047  -7.695 -0.06 -0.00    +0.109    16.947
ATOM     18  C   UNL d   1       8.738  18.113  -2.316 -0.36 -0.01    +0.050    16.947
ATOM     19  C   UNL d   1       9.841  17.319  -1.909 -0.22 -0.01    +0.045    16.947
ATOM     20  C   UNL d   1      12.702  15.131  -6.377 -0.04 -0.00    +0.045    16.947
ATOM     21  C   UNL d   1      12.665  15.760  -7.556 -0.11 -0.00    +0.057    16.947
ATOM     22  C   UNL d   1      13.151  13.531  -4.810 -0.28 +0.00    -0.019    16.947
ATOM     23  C   UNL d   1      12.419  14.638  -4.163 -0.25 -0.01    +0.045    16.947
ATOM     24  C   UNL d   1      13.316  13.830  -6.120 -0.23 +0.00    -0.022    16.947
ATOM     25  C   UNL d   1      11.434  15.735  -2.178 -0.21 -0.01    +0.049    16.947
ATOM     26  C   UNL d   1      10.461  17.156  -0.680 -0.22 +0.00    -0.018    16.947
ATOM     27  C   UNL d   1      11.479  16.169  -0.861 -0.22 -0.00    +0.003    16.947
ATOM     28  C   UNL d   1      12.101  14.681  -2.860 -0.33 -0.01    +0.052    16.947
ATOM     29  C   UNL d   1      14.001  13.034  -7.179 -0.21 -0.00    +0.046    16.947
ATOM     30  C   UNL d   1      10.132  17.873   0.585 -0.18 -0.00    +0.046    16.947
ATOM     31  H   UNL d   1      11.780  16.458  -5.057 +0.04 -0.01    +0.166    16.947
ATOM     32  H   UNL d   1      10.179  16.387  -3.775 -0.10 -0.05    +0.166    16.947
ATOM     33  C   UNL d   1       7.284  20.825  -2.980 -0.11 -0.03    +0.141    16.947
ATOM     34  C   UNL d   1       8.405  21.799  -3.225 -0.15 -0.06    +0.306    16.947
ATOM     35  O   UNL d   1       9.430  21.897  -2.573 -0.10 +0.03    -0.251    16.947
ATOM     36  O   UNL d   1       8.175  22.598  -4.282 -0.08 +0.15    -0.481    16.947
ATOM     37  H   UNL d   1       7.314  22.293  -4.639 -0.45 -0.20    +0.295    16.947
ATOM     38  C   UNL d   1      12.354  15.688   0.166 -0.15 -0.00    +0.017    16.947
ATOM     39  C   UNL d   1      12.113  14.629   0.954 -0.18 -0.01    +0.092    16.947
ATOM     40  C   UNL d   1      13.101  14.228   1.959 -0.04 -0.01    +0.330    16.947
ATOM     41  O   UNL d   1      12.968  14.213   3.168 -0.03 +0.00    -0.246    16.947
ATOM     42  O   UNL d   1      14.240  13.845   1.361 -0.00 +0.02    -0.477    16.947
ATOM     43  H   UNL d   1      13.949  13.538   0.477 +0.05 -0.02    +0.295    16.947
ATOM     44  C   UNL d   1      10.298  19.185  -9.964 -0.03 -0.01    +0.141    16.947
ATOM     45  C   UNL d   1      10.961  19.458 -11.288 -0.00 -0.02    +0.306    16.947
ATOM     46  O   UNL d   1      11.138  20.549 -11.801 -0.00 +0.02    -0.251    16.947
ATOM     47  O   UNL d   1      11.343  18.330 -11.914 +0.00 +0.03    -0.481    16.947
ATOM     48  H   UNL d   1      12.153  18.045 -11.440 +0.02 -0.02    +0.295    16.947
ATOM     49  C   UNL d   1      13.603  12.290  -4.098 -0.22 -0.01    +0.048    16.947
ATOM     50  C   UNL d   1      14.829  12.551  -3.224 -0.12 -0.02    +0.125    16.947
ATOM     51  C   UNL d   1      14.427  12.819  -1.801 -0.09 -0.04    +0.305    16.947
ATOM     52  O   UNL d   1      13.564  12.253  -1.154 -0.18 +0.03    -0.251    16.947
ATOM     53  O   UNL d   1      15.144  13.821  -1.255 +0.00 +0.04    -0.481    16.947
ATOM     54  H   UNL d   1      15.444  13.458  -0.395 +0.03 -0.02    +0.295    16.947
TER
ENDMDL
MODEL        3
USER    Run = 3
USER    Cluster Rank = 62
USER    Number of conformations in this cluster = 1
USER  
USER    RMSD from reference structure       = 19.403 A
USER  
USER    Estimated Free Energy of Binding    =   -2.98 kcal/mol  [=(1)+(2)+(3)-(4)]
USER    Estimated Inhibition Constant, Ki   =    6.54 mM (millimolar)  [Temperature = 298.15 K]
USER    
USER    (1) Final Intermolecular Energy     =   -6.86 kcal/mol
USER        vdW + Hbond + desolv Energy     =   -6.89 kcal/mol
USER        Electrostatic Energy            =   +0.03 kcal/mol
USER    (2) Final Total Internal Energy     =   -4.09 kcal/mol
USER    (3) Torsional Free Energy           =   +3.88 kcal/mol
USER    (4) Unbound System's Energy  [=(2)] =   -4.09 kcal/mol
USER    
USER    
USER  
USER    DPF = D:/Protein_go_brrr/autodock/final/mut_K82N/heme/dock.dpf
USER    NEWDPF move	heme_opt.pdbqt
USER    NEWDPF about	0.153000 0.018000 -0.028000
USER    NEWDPF tran0	-2.971224 12.948255 -16.583265
USER    NEWDPF axisangle0	-0.546633 0.826455 -0.134773 124.671042
USER    NEWDPF quaternion0	-0.484143 0.731976 -0.119366 0.464293
USER    NEWDPF dihe0	-104.38 -148.88 123.69 -1.94 34.48 2.66 -51.04 -33.42 133.66 -138.35 56.03 -75.41 127.08 
USER  
USER                              x       y       z    vdW   Elec        q     RMS 
ATOM      1  O   UNL d   1      -4.160  16.748 -20.932 -0.00 +0.08    -0.289    19.403
ATOM      2  O   UNL d   1       2.157  13.087 -19.175 -0.02 +0.09    -0.289    19.403
ATOM      3  N   UNL d   1      -3.895  14.697 -18.171 +0.00 +0.29    -0.247    19.403
ATOM      4  N   UNL d   1      -1.198  13.488 -18.475 -0.08 +0.26    -0.247    19.403
ATOM      5  N   UNL d   1      -1.927  11.580 -16.451 -0.12 +0.28    -0.354    19.403
ATOM      6  N   UNL d   1      -4.730  12.829 -16.156 -0.07 +0.24    -0.354    19.403
ATOM      7  C   UNL d   1      -5.726  15.919 -19.249 -0.02 -0.03    +0.084    19.403
ATOM      8  C   UNL d   1       0.461  14.758 -19.741 -0.04 -0.05    +0.084    19.403
ATOM      9  C   UNL d   1      -0.981  14.607 -19.247 -0.08 -0.05    +0.058    19.403
ATOM     10  C   UNL d   1      -5.248  14.989 -18.130 -0.06 -0.04    +0.058    19.403
ATOM     11  C   UNL d   1      -4.400  16.116 -19.919 -0.02 -0.08    +0.193    19.403
ATOM     12  C   UNL d   1      -3.367  15.346 -19.157 -0.05 -0.09    +0.109    19.403
ATOM     13  C   UNL d   1       1.014  13.498 -19.138 -0.04 -0.10    +0.193    19.403
ATOM     14  C   UNL d   1      -6.672  15.209 -20.221 -0.00 -0.01    +0.026    19.403
ATOM     15  C   UNL d   1      -1.957  15.465 -19.582 -0.07 -0.04    +0.055    19.403
ATOM     16  C   UNL d   1       1.159  15.960 -19.097 -0.06 -0.02    +0.026    19.403
ATOM     17  C   UNL d   1      -0.094  12.816 -18.403 -0.09 -0.08    +0.109    19.403
ATOM     18  C   UNL d   1      -6.078  14.580 -17.152 -0.08 -0.02    +0.050    19.403
ATOM     19  C   UNL d   1      -5.707  13.791 -16.034 -0.13 -0.02    +0.045    19.403
ATOM     20  C   UNL d   1      -0.752  11.025 -16.885 -0.21 -0.03    +0.045    19.403
ATOM     21  C   UNL d   1       0.144  11.524 -17.742 -0.17 -0.03    +0.057    19.403
ATOM     22  C   UNL d   1      -1.751   9.585 -15.420 -0.36 +0.01    -0.019    19.403
ATOM     23  C   UNL d   1      -2.602  10.784 -15.564 -0.27 -0.02    +0.045    19.403
ATOM     24  C   UNL d   1      -0.657   9.734 -16.204 -0.31 +0.01    -0.022    19.403
ATOM     25  C   UNL d   1      -4.595  12.126 -14.982 -0.24 -0.02    +0.049    19.403
ATOM     26  C   UNL d   1      -6.192  13.736 -14.736 -0.24 +0.00    -0.018    19.403
ATOM     27  C   UNL d   1      -5.473  12.696 -14.071 -0.33 -0.00    +0.003    19.403
ATOM     28  C   UNL d   1      -3.758  10.979 -14.911 -0.31 -0.02    +0.052    19.403
ATOM     29  C   UNL d   1       0.492   8.803 -16.388 -0.38 -0.01    +0.046    19.403
ATOM     30  C   UNL d   1      -7.258  14.598 -14.147 -0.11 -0.00    +0.046    19.403
ATOM     31  H   UNL d   1      -2.196  12.521 -16.719 +0.03 -0.21    +0.166    19.403
ATOM     32  H   UNL d   1      -4.222  12.652 -17.015 +0.03 -0.12    +0.166    19.403
ATOM     33  C   UNL d   1      -6.300  17.262 -18.786 -0.01 -0.04    +0.141    19.403
ATOM     34  C   UNL d   1      -6.780  18.112 -19.931 +0.00 -0.05    +0.306    19.403
ATOM     35  O   UNL d   1      -7.896  18.097 -20.422 +0.00 +0.03    -0.251    19.403
ATOM     36  O   UNL d   1      -5.828  18.940 -20.397 +0.00 +0.08    -0.481    19.403
ATOM     37  H   UNL d   1      -5.207  18.355 -20.881 +0.00 -0.05    +0.295    19.403
ATOM     38  C   UNL d   1      -5.673  12.293 -12.712 -0.44 -0.00    +0.017    19.403
ATOM     39  C   UNL d   1      -5.640  11.028 -12.266 -0.35 -0.02    +0.092    19.403
ATOM     40  C   UNL d   1      -5.844  10.750 -10.842 -0.13 -0.06    +0.330    19.403
ATOM     41  O   UNL d   1      -6.062  11.550  -9.952 -0.42 +0.03    -0.246    19.403
ATOM     42  O   UNL d   1      -5.768   9.430 -10.614 -0.09 +0.10    -0.477    19.403
ATOM     43  H   UNL d   1      -5.135   9.111 -11.290 -0.25 -0.12    +0.295    19.403
ATOM     44  C   UNL d   1       0.641  14.763 -21.263 -0.00 -0.04    +0.141    19.403
ATOM     45  C   UNL d   1       2.042  15.104 -21.695 +0.00 -0.06    +0.306    19.403
ATOM     46  O   UNL d   1       2.457  16.205 -22.013 +0.00 +0.04    -0.251    19.403
ATOM     47  O   UNL d   1       2.846  14.027 -21.730 +0.00 +0.07    -0.481    19.403
ATOM     48  H   UNL d   1       2.807  13.658 -20.821 +0.01 -0.05    +0.295    19.403
ATOM     49  C   UNL d   1      -2.091   8.410 -14.550 -0.39 -0.01    +0.048    19.403
ATOM     50  C   UNL d   1      -3.559   8.007 -14.687 -0.39 -0.03    +0.125    19.403
ATOM     51  C   UNL d   1      -4.248   8.030 -13.353 -0.24 -0.06    +0.305    19.403
ATOM     52  O   UNL d   1      -3.802   7.666 -12.279 -0.37 +0.05    -0.251    19.403
ATOM     53  O   UNL d   1      -5.504   8.512 -13.442 -0.06 +0.07    -0.481    19.403
ATOM     54  H   UNL d   1      -5.853   8.439 -12.529 +0.13 -0.04    +0.295    19.403
TER
ENDMDL
MODEL       55
USER    Run = 55
USER    Cluster Rank = 63
USER    Number of conformations in this cluster = 1
USER  
USER    RMSD from reference structure       = 14.111 A
USER  
USER    Estimated Free Energy of Binding    =   -2.95 kcal/mol  [=(1)+(2)+(3)-(4)]
USER    Estimated Inhibition Constant, Ki   =    6.90 mM (millimolar)  [Temperature = 298.15 K]
USER    
USER    (1) Final Intermolecular Energy     =   -6.83 kcal/mol
USER        vdW + Hbond + desolv Energy     =   -6.66 kcal/mol
USER        Electrostatic Energy            =   -0.16 kcal/mol
USER    (2) Final Total Internal Energy     =   -4.42 kcal/mol
USER    (3) Torsional Free Energy           =   +3.88 kcal/mol
USER    (4) Unbound System's Energy  [=(2)] =   -4.42 kcal/mol
USER    
USER    
USER  
USER    DPF = D:/Protein_go_brrr/autodock/final/mut_K82N/heme/dock.dpf
USER    NEWDPF move	heme_opt.pdbqt
USER    NEWDPF about	0.153000 0.018000 -0.028000
USER    NEWDPF tran0	6.753792 -14.862769 -4.966770
USER    NEWDPF axisangle0	-0.460359 -0.351253 0.815286 168.914774
USER    NEWDPF quaternion0	-0.458206 -0.349611 0.811474 0.096586
USER    NEWDPF dihe0	126.25 -126.85 -101.45 -27.88 -133.27 -13.33 -179.12 -155.70 25.93 16.11 -68.76 -44.35 -13.62 
USER  
USER                              x       y       z    vdW   Elec        q     RMS 
ATOM      1  O   UNL d   1      10.272 -17.451  -1.007 -0.05 -0.02    -0.289    14.111
ATOM      2  O   UNL d   1       7.001 -10.691  -1.021 -0.32 -0.02    -0.289    14.111
ATOM      3  N   UNL d   1       8.376 -16.298  -3.648 -0.03 -0.04    -0.247    14.111
ATOM      4  N   UNL d   1       7.280 -13.730  -2.632 -0.09 -0.05    -0.247    14.111
ATOM      5  N   UNL d   1       5.444 -13.746  -4.844 -0.10 -0.26    -0.354    14.111
ATOM      6  N   UNL d   1       6.574 -16.420  -5.880 -0.00 -0.12    -0.354    14.111
ATOM      7  C   UNL d   1       9.456 -18.428  -3.093 -0.06 +0.01    +0.084    14.111
ATOM      8  C   UNL d   1       8.562 -12.573  -0.903 -0.14 +0.01    +0.084    14.111
ATOM      9  C   UNL d   1       8.368 -13.806  -1.792 -0.11 +0.01    +0.058    14.111
ATOM     10  C   UNL d   1       8.606 -17.599  -4.062 -0.05 +0.01    +0.058    14.111
ATOM     11  C   UNL d   1       9.681 -17.358  -2.067 -0.05 +0.02    +0.193    14.111
ATOM     12  C   UNL d   1       8.999 -16.108  -2.530 -0.06 +0.01    +0.109    14.111
ATOM     13  C   UNL d   1       7.360 -11.799  -1.367 -0.22 +0.03    +0.193    14.111
ATOM     14  C   UNL d   1       8.655 -19.566  -2.456 -0.11 +0.00    +0.026    14.111
ATOM     15  C   UNL d   1       9.162 -14.885  -1.718 -0.10 +0.01    +0.055    14.111
ATOM     16  C   UNL d   1       9.825 -11.794  -1.280 -0.11 +0.00    +0.026    14.111
ATOM     17  C   UNL d   1       6.664 -12.613  -2.410 -0.24 +0.03    +0.109    14.111
ATOM     18  C   UNL d   1       8.209 -18.094  -5.249 -0.03 +0.01    +0.050    14.111
ATOM     19  C   UNL d   1       7.495 -17.377  -6.242 -0.01 +0.01    +0.045    14.111
ATOM     20  C   UNL d   1       4.923 -12.710  -4.113 -0.31 +0.03    +0.045    14.111
ATOM     21  C   UNL d   1       5.420 -12.123  -3.020 -0.43 +0.03    +0.057    14.111
ATOM     22  C   UNL d   1       3.513 -13.169  -5.851 -0.23 -0.02    -0.019    14.111
ATOM     23  C   UNL d   1       4.662 -14.094  -5.914 -0.14 +0.04    +0.045    14.111
ATOM     24  C   UNL d   1       3.674 -12.351  -4.784 -0.38 -0.02    -0.022    14.111
ATOM     25  C   UNL d   1       5.937 -15.917  -6.991 -0.02 +0.02    +0.049    14.111
ATOM     26  C   UNL d   1       7.483 -17.473  -7.625 +0.00 -0.00    -0.018    14.111
ATOM     27  C   UNL d   1       6.511 -16.535  -8.094 +0.01 +0.00    +0.003    14.111
ATOM     28  C   UNL d   1       4.836 -15.029  -6.861 -0.09 +0.03    +0.052    14.111
ATOM     29  C   UNL d   1       2.789 -11.248  -4.313 -0.12 +0.02    +0.046    14.111
ATOM     30  C   UNL d   1       8.322 -18.377  -8.462 +0.00 +0.00    +0.046    14.111
ATOM     31  H   UNL d   1       6.356 -14.133  -4.631 +0.05 +0.08    +0.166    14.111
ATOM     32  H   UNL d   1       6.379 -16.165  -4.919 +0.03 +0.08    +0.166    14.111
ATOM     33  C   UNL d   1      10.793 -18.926  -3.653 -0.01 +0.00    +0.141    14.111
ATOM     34  C   UNL d   1      11.814 -17.828  -3.777 +0.00 +0.01    +0.306    14.111
ATOM     35  O   UNL d   1      11.872 -16.995  -4.666 -0.00 -0.00    -0.251    14.111
ATOM     36  O   UNL d   1      12.707 -17.834  -2.772 +0.00 -0.01    -0.481    14.111
ATOM     37  H   UNL d   1      12.163 -17.772  -1.958 +0.01 +0.01    +0.295    14.111
ATOM     38  C   UNL d   1       6.168 -16.319  -9.467 +0.01 +0.00    +0.017    14.111
ATOM     39  C   UNL d   1       5.159 -15.549  -9.901 -0.00 +0.01    +0.092    14.111
ATOM     40  C   UNL d   1       4.923 -15.397 -11.339 +0.01 +0.01    +0.330    14.111
ATOM     41  O   UNL d   1       5.678 -15.678 -12.251 -0.00 +0.00    -0.246    14.111
ATOM     42  O   UNL d   1       3.700 -14.890 -11.555 -0.01 -0.02    -0.477    14.111
ATOM     43  H   UNL d   1       3.680 -14.082 -11.003 +0.08 +0.01    +0.295    14.111
ATOM     44  C   UNL d   1       8.499 -12.831   0.607 -0.27 +0.03    +0.141    14.111
ATOM     45  C   UNL d   1       7.537 -13.926   0.983 -0.26 +0.11    +0.306    14.111
ATOM     46  O   UNL d   1       7.728 -14.814   1.795 -0.63 -0.09    -0.251    14.111
ATOM     47  O   UNL d   1       6.385 -13.860   0.290 -0.63 -0.23    -0.481    14.111
ATOM     48  H   UNL d   1       6.605 -14.229  -0.592 +0.03 +0.08    +0.295    14.111
ATOM     49  C   UNL d   1       2.369 -13.180  -6.822 -0.31 +0.03    +0.048    14.111
ATOM     50  C   UNL d   1       2.550 -12.139  -7.926 -0.36 +0.03    +0.125    14.111
ATOM     51  C   UNL d   1       2.780 -12.801  -9.255 -0.15 +0.06    +0.305    14.111
ATOM     52  O   UNL d   1       3.251 -12.302 -10.262 -0.20 -0.01    -0.251    14.111
ATOM     53  O   UNL d   1       2.382 -14.089  -9.252 -0.55 -0.17    -0.481    14.111
ATOM     54  H   UNL d   1       2.138 -14.264 -10.185 +0.08 +0.06    +0.295    14.111
TER
ENDMDL
MODEL       23
USER    Run = 23
USER    Cluster Rank = 64
USER    Number of conformations in this cluster = 1
USER  
USER    RMSD from reference structure       = 15.698 A
USER  
USER    Estimated Free Energy of Binding    =   -2.62 kcal/mol  [=(1)+(2)+(3)-(4)]
USER    Estimated Inhibition Constant, Ki   =   11.96 mM (millimolar)  [Temperature = 298.15 K]
USER    
USER    (1) Final Intermolecular Energy     =   -6.50 kcal/mol
USER        vdW + Hbond + desolv Energy     =   -6.28 kcal/mol
USER        Electrostatic Energy            =   -0.22 kcal/mol
USER    (2) Final Total Internal Energy     =   -4.54 kcal/mol
USER    (3) Torsional Free Energy           =   +3.88 kcal/mol
USER    (4) Unbound System's Energy  [=(2)] =   -4.54 kcal/mol
USER    
USER    
USER  
USER    DPF = D:/Protein_go_brrr/autodock/final/mut_K82N/heme/dock.dpf
USER    NEWDPF move	heme_opt.pdbqt
USER    NEWDPF about	0.153000 0.018000 -0.028000
USER    NEWDPF tran0	12.835525 9.116777 -11.242243
USER    NEWDPF axisangle0	0.198662 -0.406268 -0.891896 -76.502333
USER    NEWDPF quaternion0	0.122994 -0.251525 -0.552182 -0.785304
USER    NEWDPF dihe0	163.82 -177.00 -123.72 -7.16 -144.59 47.30 129.68 -31.50 17.72 -61.08 -56.49 -101.80 28.54 
USER  
USER                              x       y       z    vdW   Elec        q     RMS 
ATOM      1  O   UNL d   1      12.372  14.993 -11.355 -0.04 +0.00    -0.289    15.698
ATOM      2  O   UNL d   1       9.070   9.708 -15.545 -0.04 -0.21    -0.289    15.698
ATOM      3  N   UNL d   1      13.065  11.632 -11.010 -0.14 -0.00    -0.247    15.698
ATOM      4  N   UNL d   1      11.104  10.340 -12.829 -0.15 -0.03    -0.247    15.698
ATOM      5  N   UNL d   1      11.735   7.830 -11.576 -0.15 +0.03    -0.354    15.698
ATOM      6  N   UNL d   1      13.754   9.182  -9.679 -0.05 +0.02    -0.354    15.698
ATOM      7  C   UNL d   1      13.707  13.663  -9.798 -0.12 -0.00    +0.084    15.698
ATOM      8  C   UNL d   1      10.288  11.662 -14.715 -0.09 +0.01    +0.084    15.698
ATOM      9  C   UNL d   1      11.113  11.580 -13.426 -0.14 +0.01    +0.058    15.698
ATOM     10  C   UNL d   1      13.787  12.141  -9.943 -0.14 -0.00    +0.058    15.698
ATOM     11  C   UNL d   1      12.827  13.927 -10.982 -0.09 -0.00    +0.193    15.698
ATOM     12  C   UNL d   1      12.528  12.620 -11.648 -0.15 +0.00    +0.109    15.698
ATOM     13  C   UNL d   1       9.777  10.249 -14.717 -0.11 +0.07    +0.193    15.698
ATOM     14  C   UNL d   1      12.965  14.081  -8.526 -0.24 -0.00    +0.026    15.698
ATOM     15  C   UNL d   1      11.747  12.640 -12.901 -0.14 +0.00    +0.055    15.698
ATOM     16  C   UNL d   1      11.175  11.868 -15.946 -0.03 +0.00    +0.026    15.698
ATOM     17  C   UNL d   1      10.339   9.555 -13.519 -0.19 +0.02    +0.109    15.698
ATOM     18  C   UNL d   1      14.574  11.398  -9.142 -0.14 -0.00    +0.050    15.698
ATOM     19  C   UNL d   1      14.777   9.999  -9.255 -0.13 -0.00    +0.045    15.698
ATOM     20  C   UNL d   1      10.647   7.454 -12.321 -0.22 -0.00    +0.045    15.698
ATOM     21  C   UNL d   1       9.974   8.160 -13.235 -0.28 +0.01    +0.057    15.698
ATOM     22  C   UNL d   1      11.252   5.715 -10.969 -0.26 +0.01    -0.019    15.698
ATOM     23  C   UNL d   1      12.172   6.846 -10.730 -0.22 -0.01    +0.045    15.698
ATOM     24  C   UNL d   1      10.353   6.081 -11.913 -0.26 +0.01    -0.022    15.698
ATOM     25  C   UNL d   1      14.137   7.862  -9.628 -0.17 -0.00    +0.049    15.698
ATOM     26  C   UNL d   1      15.864   9.194  -8.955 -0.09 +0.00    -0.018    15.698
ATOM     27  C   UNL d   1      15.461   7.847  -9.211 -0.10 -0.00    +0.003    15.698
ATOM     28  C   UNL d   1      13.200   6.820  -9.869 -0.21 -0.01    +0.052    15.698
ATOM     29  C   UNL d   1       9.236   5.284 -12.496 -0.31 -0.03    +0.046    15.698
ATOM     30  C   UNL d   1      17.198   9.645  -8.463 -0.04 -0.00    +0.046    15.698
ATOM     31  H   UNL d   1      12.190   8.724 -11.724 +0.04 -0.01    +0.166    15.698
ATOM     32  H   UNL d   1      12.838   9.523  -9.948 +0.04 -0.00    +0.166    15.698
ATOM     33  C   UNL d   1      15.039  14.408  -9.941 -0.03 -0.01    +0.141    15.698
ATOM     34  C   UNL d   1      15.620  14.295 -11.325 -0.01 -0.01    +0.306    15.698
ATOM     35  O   UNL d   1      16.387  13.431 -11.716 -0.00 +0.01    -0.251    15.698
ATOM     36  O   UNL d   1      15.201  15.275 -12.144 +0.00 +0.02    -0.481    15.698
ATOM     37  H   UNL d   1      14.394  15.630 -11.713 +0.01 -0.01    +0.295    15.698
ATOM     38  C   UNL d   1      16.281   6.689  -9.018 -0.04 -0.00    +0.017    15.698
ATOM     39  C   UNL d   1      16.049   5.716  -8.124 -0.04 -0.01    +0.092    15.698
ATOM     40  C   UNL d   1      16.959   4.571  -8.037 +0.01 -0.03    +0.330    15.698
ATOM     41  O   UNL d   1      18.175   4.587  -8.029 +0.00 +0.02    -0.246    15.698
ATOM     42  O   UNL d   1      16.259   3.429  -7.955 +0.01 +0.05    -0.477    15.698
ATOM     43  H   UNL d   1      15.326   3.720  -8.027 +0.05 -0.04    +0.295    15.698
ATOM     44  C   UNL d   1       9.129  12.664 -14.693 -0.12 +0.03    +0.141    15.698
ATOM     45  C   UNL d   1       7.774  12.006 -14.698 -0.15 +0.15    +0.306    15.698
ATOM     46  O   UNL d   1       7.158  11.605 -13.726 -0.49 -0.15    -0.251    15.698
ATOM     47  O   UNL d   1       7.276  11.863 -15.939 -0.49 -0.28    -0.481    15.698
ATOM     48  H   UNL d   1       7.966  11.366 -16.428 +0.05 +0.15    +0.295    15.698
ATOM     49  C   UNL d   1      11.328   4.400 -10.250 -0.28 -0.02    +0.048    15.698
ATOM     50  C   UNL d   1      12.713   3.764 -10.373 -0.14 -0.05    +0.125    15.698
ATOM     51  C   UNL d   1      13.292   3.473  -9.018 -0.10 -0.13    +0.305    15.698
ATOM     52  O   UNL d   1      13.198   4.149  -8.008 -0.17 +0.08    -0.251    15.698
ATOM     53  O   UNL d   1      13.989   2.319  -9.005 -0.06 +0.24    -0.481    15.698
ATOM     54  H   UNL d   1      14.411   2.306  -8.120 +0.05 -0.11    +0.295    15.698
TER
ENDMDL
MODEL       99
USER    Run = 99
USER    Cluster Rank = 65
USER    Number of conformations in this cluster = 1
USER  
USER    RMSD from reference structure       = 15.643 A
USER  
USER    Estimated Free Energy of Binding    =   -2.61 kcal/mol  [=(1)+(2)+(3)-(4)]
USER    Estimated Inhibition Constant, Ki   =   12.12 mM (millimolar)  [Temperature = 298.15 K]
USER    
USER    (1) Final Intermolecular Energy     =   -6.49 kcal/mol
USER        vdW + Hbond + desolv Energy     =   -6.06 kcal/mol
USER        Electrostatic Energy            =   -0.43 kcal/mol
USER    (2) Final Total Internal Energy     =   -3.66 kcal/mol
USER    (3) Torsional Free Energy           =   +3.88 kcal/mol
USER    (4) Unbound System's Energy  [=(2)] =   -3.66 kcal/mol
USER    
USER    
USER  
USER    DPF = D:/Protein_go_brrr/autodock/final/mut_K82N/heme/dock.dpf
USER    NEWDPF move	heme_opt.pdbqt
USER    NEWDPF about	0.153000 0.018000 -0.028000
USER    NEWDPF tran0	-11.754794 15.520256 3.178850
USER    NEWDPF axisangle0	-0.764405 0.445304 -0.466249 -162.649931
USER    NEWDPF quaternion0	-0.755660 0.440210 -0.460915 -0.150830
USER    NEWDPF dihe0	-179.71 176.39 -103.19 64.32 53.48 -101.49 -179.95 47.11 158.18 14.30 -77.51 65.94 14.58 
USER  
USER                              x       y       z    vdW   Elec        q     RMS 
ATOM      1  O   UNL d   1     -13.159  18.961  -1.398 -0.05 -0.05    -0.289    15.643
ATOM      2  O   UNL d   1     -11.012  20.686   5.588 -0.01 -0.02    -0.289    15.643
ATOM      3  N   UNL d   1     -12.564  16.571   1.017 -0.05 -0.04    -0.247    15.643
ATOM      4  N   UNL d   1     -11.496  18.153   3.294 -0.06 -0.04    -0.247    15.643
ATOM      5  N   UNL d   1     -10.647  15.681   4.493 -0.08 -0.08    -0.354    15.643
ATOM      6  N   UNL d   1     -11.740  14.050   2.117 -0.14 -0.03    -0.354    15.643
ATOM      7  C   UNL d   1     -13.077  16.518  -1.379 -0.15 +0.02    +0.084    15.643
ATOM      8  C   UNL d   1     -12.163  20.500   3.436 -0.05 +0.01    +0.084    15.643
ATOM      9  C   UNL d   1     -12.167  19.177   2.663 -0.09 +0.01    +0.058    15.643
ATOM     10  C   UNL d   1     -12.768  15.758  -0.085 -0.19 +0.01    +0.058    15.643
ATOM     11  C   UNL d   1     -13.029  17.903  -0.809 -0.09 +0.03    +0.193    15.643
ATOM     12  C   UNL d   1     -12.736  17.801   0.656 -0.03 +0.02    +0.109    15.643
ATOM     13  C   UNL d   1     -11.334  20.048   4.605 -0.03 +0.02    +0.193    15.643
ATOM     14  C   UNL d   1     -11.958  16.369  -2.414 -0.23 +0.01    +0.026    15.643
ATOM     15  C   UNL d   1     -12.732  19.044   1.453 -0.10 +0.01    +0.055    15.643
ATOM     16  C   UNL d   1     -13.562  20.869   3.938 -0.02 +0.00    +0.026    15.643
ATOM     17  C   UNL d   1     -10.988  18.610   4.394 -0.09 +0.02    +0.109    15.643
ATOM     18  C   UNL d   1     -12.791  14.413  -0.037 -0.22 +0.01    +0.050    15.643
ATOM     19  C   UNL d   1     -12.601  13.629   1.129 -0.17 +0.00    +0.045    15.643
ATOM     20  C   UNL d   1     -10.023  16.573   5.326 -0.16 +0.01    +0.045    15.643
ATOM     21  C   UNL d   1     -10.139  17.905   5.366 -0.13 +0.02    +0.057    15.643
ATOM     22  C   UNL d   1      -9.330  14.462   5.853 -0.18 -0.01    -0.019    15.643
ATOM     23  C   UNL d   1     -10.291  14.381   4.735 -0.21 +0.01    +0.045    15.643
ATOM     24  C   UNL d   1      -9.176  15.762   6.199 -0.16 -0.01    -0.022    15.643
ATOM     25  C   UNL d   1     -11.640  13.100   3.107 -0.22 +0.00    +0.049    15.643
ATOM     26  C   UNL d   1     -13.101  12.391   1.504 -0.07 -0.00    -0.018    15.643
ATOM     27  C   UNL d   1     -12.506  12.071   2.763 -0.14 +0.00    +0.003    15.643
ATOM     28  C   UNL d   1     -10.691  13.239   4.157 -0.28 +0.01    +0.052    15.643
ATOM     29  C   UNL d   1      -8.325  16.347   7.274 -0.12 +0.04    +0.046    15.643
ATOM     30  C   UNL d   1     -14.074  11.556   0.742 -0.08 +0.01    +0.046    15.643
ATOM     31  H   UNL d   1     -11.355  15.985   3.832 +0.04 +0.03    +0.166    15.643
ATOM     32  H   UNL d   1     -11.229  14.924   2.080 +0.01 +0.02    +0.166    15.643
ATOM     33  C   UNL d   1     -14.452  16.236  -1.994 -0.05 +0.02    +0.141    15.643
ATOM     34  C   UNL d   1     -14.481  16.471  -3.480 -0.03 +0.07    +0.306    15.643
ATOM     35  O   UNL d   1     -14.536  15.612  -4.344 -0.03 -0.07    -0.251    15.643
ATOM     36  O   UNL d   1     -14.444  17.776  -3.799 -0.00 -0.12    -0.481    15.643
ATOM     37  H   UNL d   1     -14.443  18.242  -2.936 +0.03 +0.06    +0.295    15.643
ATOM     38  C   UNL d   1     -12.737  10.868   3.503 -0.18 +0.00    +0.017    15.643
ATOM     39  C   UNL d   1     -13.829  10.609   4.239 -0.09 +0.02    +0.092    15.643
ATOM     40  C   UNL d   1     -13.952   9.326   4.937 -0.02 +0.23    +0.330    15.643
ATOM     41  O   UNL d   1     -14.633   8.370   4.620 -0.48 -0.21    -0.246    15.643
ATOM     42  O   UNL d   1     -13.173   9.319   6.030 -0.45 -0.46    -0.477    15.643
ATOM     43  H   UNL d   1     -12.704  10.178   5.989 +0.06 +0.08    +0.295    15.643
ATOM     44  C   UNL d   1     -11.502  21.681   2.718 -0.05 +0.01    +0.141    15.643
ATOM     45  C   UNL d   1     -10.313  21.281   1.885 -0.07 +0.03    +0.306    15.643
ATOM     46  O   UNL d   1     -10.056  21.661   0.756 -0.09 -0.02    -0.251    15.643
ATOM     47  O   UNL d   1      -9.519  20.396   2.514 -0.07 -0.07    -0.481    15.643
ATOM     48  H   UNL d   1     -10.000  19.543   2.450 +0.07 +0.06    +0.295    15.643
ATOM     49  C   UNL d   1      -8.646  13.274   6.464 -0.20 +0.01    +0.048    15.643
ATOM     50  C   UNL d   1      -9.625  12.387   7.233 -0.14 +0.00    +0.125    15.643
ATOM     51  C   UNL d   1      -9.967  11.155   6.445 -0.16 -0.03    +0.305    15.643
ATOM     52  O   UNL d   1      -9.213  10.465   5.782 -0.34 +0.02    -0.251    15.643
ATOM     53  O   UNL d   1     -11.278  10.852   6.524 -0.07 +0.06    -0.481    15.643
ATOM     54  H   UNL d   1     -11.295   9.985   6.980 -0.16 -0.16    +0.295    15.643
TER
ENDMDL


AVSFLD: # AVS field file
AVSFLD: #
AVSFLD: # Created by AutoDock
AVSFLD: #
AVSFLD: ndim=2           # number of dimensions in the field
AVSFLD: nspace=1         # number of physical coordinates
AVSFLD: veclen=7         # vector size
AVSFLD: dim1=54          # atoms
AVSFLD: dim2=65          # conformations
AVSFLD: data=Real       # data type (byte,integer,Real,double)
AVSFLD: field=uniform    # field coordinate layout
AVSFLD: label= x y z vdW Elec q RMS
AVSFLD: variable 1 file = D:/Protein_go_brrr/autodock/final/mut_K82N/heme/dock.dlg.pdb filetype = ascii offset = 5 stride = 12
AVSFLD: variable 2 file = D:/Protein_go_brrr/autodock/final/mut_K82N/heme/dock.dlg.pdb filetype = ascii offset = 6 stride = 12
AVSFLD: variable 3 file = D:/Protein_go_brrr/autodock/final/mut_K82N/heme/dock.dlg.pdb filetype = ascii offset = 7 stride = 12
AVSFLD: variable 4 file = D:/Protein_go_brrr/autodock/final/mut_K82N/heme/dock.dlg.pdb filetype = ascii offset = 8 stride = 12
AVSFLD: variable 5 file = D:/Protein_go_brrr/autodock/final/mut_K82N/heme/dock.dlg.pdb filetype = ascii offset = 9 stride = 12
AVSFLD: variable 6 file = D:/Protein_go_brrr/autodock/final/mut_K82N/heme/dock.dlg.pdb filetype = ascii offset = 10 stride = 12
AVSFLD: variable 7 file = D:/Protein_go_brrr/autodock/final/mut_K82N/heme/dock.dlg.pdb filetype = ascii offset = 11 stride = 12
AVSFLD: # end of file

>>> Closing the docking parameter file (DPF)...
This docking finished at:			5:47 51" p.m., 10/04/2025


________________________________________________________________________________

D:/autodockScripts/autodock4.exe: Successful Completion on "ACER"

Real= 26h 17m 13.64s,  CPU= 5m 04.55s,  System= 2m 46.83s
________________________________________________________________________________

