          AutoDock 4.2 Release 4.2.6   
         (C) 1989-2012 The Scripps Research Institute
        AutoDock comes with ABSOLUTELY NO WARRANTY.
        AutoDock is free software, and you are welcome
        to redistribute it under certain conditions;
        for details type 'autodock4 -C'

                     main.cc  $Revision: 1.213 $

                   Compiled on Jul 18 2014 at 15:34:58


This file was created at:			10:38 26" a.m., 01/15/2026
                   on host:		"ACER"
Current Working Directory = "D:\Protein_go_brrr\autodock\final\AncA\heme_Co"

      ________________________________________________________________

                   SETTING UP DEFAULT PARAMETER LIBRARY
      ________________________________________________________________


Random number generator was seeded with values 26220, 1768469906.
Docking parameter file (DPF) used for this docking:		D:/Protein_go_brrr/autodock/final/AncA/heme_Co/dock.dpf
DPF> autodock_parameter_version 4.2       # used by autodock to validate parameter set

	Autodock parameter version 4.2.
DPF> outlev 1                             # diagnostic output level

Output Level = 1  ADT-COMPATIBLE OUTPUT DURING DOCKING.
DPF> intelec                              # calculate internal electrostatics

Electrostatic energies will be calculated for all non-bonds between moving atoms.
DPF> seed pid time                        # seeds for random generator

Random number generator was seeded with values 26220, 1768469906.
DPF> ligand_types A C OA N Fe HD          # atoms types in ligand

DPF> fld opt_AncA.maps.fld                # grid_data_file

Opening Grid Map Dimensions file:		opt_AncA.maps.fld
Grid Point Spacing =				0.708 Angstroms

Even Number of User-specified Grid Points =	126 x-points
						126 y-points
						126 z-points

Coordinates of Central Grid Point of Maps =	(-0.462, -1.415, -1.889)
Macromolecule file used to create Grid Maps =	opt_AncA.pdbqt
Grid Parameter file used to create Grid Maps =	D:/Protein_go_brrr/autodock/final/AncA/heme_Co/grid.gpf
Minimum coordinates in grid = (-45.066, -46.019, -46.493)
Maximum coordinates in grid = (44.142, 43.189, 42.715)

DPF> map opt_AncA.A.map                   # atom-specific affinity map

DPF> map opt_AncA.C.map                   # atom-specific affinity map

DPF> map opt_AncA.OA.map                  # atom-specific affinity map

DPF> map opt_AncA.N.map                   # atom-specific affinity map

DPF> map opt_AncA.Fe.map                  # atom-specific affinity map

DPF> map opt_AncA.HD.map                  # atom-specific affinity map

DPF> elecmap opt_AncA.e.map               # electrostatics map

DPF> desolvmap opt_AncA.d.map             # desolvation map

DPF> move heme_Co_opt.pdbqt               # small molecule

1,4-interactions will be _ignored_ in the non-bonded internal energy calculation.

Ligand PDBQT file = "heme_Co_opt.pdbqt"

INPUT LIGAND PDBQT FILE:
________________________

INPUT-LIGAND-PDBQT: REMARK  12 active torsions:
INPUT-LIGAND-PDBQT: REMARK  status: ('A' for Active; 'I' for Inactive)
INPUT-LIGAND-PDBQT: REMARK    1  A    between atoms: C_6  and  C_10 
INPUT-LIGAND-PDBQT: REMARK    2  A    between atoms: C_10  and  C_11 
INPUT-LIGAND-PDBQT: REMARK    3  A    between atoms: C_11  and  C_12 
INPUT-LIGAND-PDBQT: REMARK    4  A    between atoms: C_12  and  O_14 
INPUT-LIGAND-PDBQT: REMARK    5  A    between atoms: C_17  and  C_20 
INPUT-LIGAND-PDBQT: REMARK    6  A    between atoms: C_24  and  C_27 
INPUT-LIGAND-PDBQT: REMARK    7  A    between atoms: C_31  and  C_34 
INPUT-LIGAND-PDBQT: REMARK    8  A    between atoms: C_34  and  C_35 
INPUT-LIGAND-PDBQT: REMARK    9  A    between atoms: C_35  and  C_36 
INPUT-LIGAND-PDBQT: REMARK   10  A    between atoms: C_36  and  O_38 
INPUT-LIGAND-PDBQT: REMARK   11  A    between atoms: FE_43  and  C_44 
INPUT-LIGAND-PDBQT: REMARK   12  A    between atoms: C_44  and  O_45 
INPUT-LIGAND-PDBQT: ROOT
INPUT-LIGAND-PDBQT: ATOM      1  C   UNL d   1       6.846  35.483  -1.586  0.00  0.00     0.064 A 
INPUT-LIGAND-PDBQT: ATOM      2  C   UNL d   1       8.105  32.823   2.149  0.00  0.00     0.064 C 
INPUT-LIGAND-PDBQT: ATOM      3  C   UNL d   1      12.720  33.414   1.062  0.00  0.00     0.064 A 
INPUT-LIGAND-PDBQT: ATOM      4  C   UNL d   1      11.472  36.449  -2.529  0.00  0.00     0.064 A 
INPUT-LIGAND-PDBQT: ATOM      5  C   UNL d   1       6.850  34.683  -0.507  0.00  0.00     0.066 A 
INPUT-LIGAND-PDBQT: ATOM      6  C   UNL d   1       5.664  34.330   0.166  0.00  0.00    -0.021 A 
INPUT-LIGAND-PDBQT: ATOM      7  C   UNL d   1       6.037  33.577   1.262  0.00  0.00    -0.025 A 
INPUT-LIGAND-PDBQT: ATOM      8  C   UNL d   1       7.432  33.489   1.202  0.00  0.00     0.066 A 
INPUT-LIGAND-PDBQT: ATOM      9  C   UNL d   1       5.127  32.958   2.334  0.00  0.00     0.051 C 
INPUT-LIGAND-PDBQT: ATOM     10  C   UNL d   1       9.537  32.657   2.156  0.00  0.00     0.066 A 
INPUT-LIGAND-PDBQT: ATOM     11  C   UNL d   1      10.289  31.854   3.041  0.00  0.00    -0.021 A 
INPUT-LIGAND-PDBQT: ATOM     12  C   UNL d   1      11.631  32.042   2.699  0.00  0.00     0.000 A 
INPUT-LIGAND-PDBQT: ATOM     13  C   UNL d   1      11.598  32.933   1.626  0.00  0.00     0.070 A 
INPUT-LIGAND-PDBQT: ATOM     14  C   UNL d   1       9.736  30.905   4.073  0.00  0.00     0.052 C 
INPUT-LIGAND-PDBQT: ATOM     15  C   UNL d   1      12.870  34.375  -0.013  0.00  0.00     0.066 A 
INPUT-LIGAND-PDBQT: ATOM     16  C   UNL d   1      14.059  34.940  -0.452  0.00  0.00    -0.021 A 
INPUT-LIGAND-PDBQT: ATOM     17  C   UNL d   1      13.704  35.818  -1.486  0.00  0.00     0.000 A 
INPUT-LIGAND-PDBQT: ATOM     18  C   UNL d   1      12.323  35.706  -1.608  0.00  0.00     0.070 A 
INPUT-LIGAND-PDBQT: ATOM     19  C   UNL d   1      15.432  34.638   0.106  0.00  0.00     0.052 C 
INPUT-LIGAND-PDBQT: ATOM     20  C   UNL d   1      10.120  36.421  -2.607  0.00  0.00     0.066 A 
INPUT-LIGAND-PDBQT: ATOM     21  C   UNL d   1       9.411  37.209  -3.511  0.00  0.00    -0.025 A 
INPUT-LIGAND-PDBQT: ATOM     22  C   UNL d   1       8.076  36.930  -3.282  0.00  0.00    -0.021 A 
INPUT-LIGAND-PDBQT: ATOM     23  C   UNL d   1       8.036  35.987  -2.233  0.00  0.00     0.066 A 
INPUT-LIGAND-PDBQT: ATOM     24  C   UNL d   1       9.976  38.195  -4.530  0.00  0.00     0.051 C 
INPUT-LIGAND-PDBQT: ATOM     25  N   UNL d   1       7.962  34.160   0.113  0.00  0.00    -0.248 N 
INPUT-LIGAND-PDBQT: ATOM     26  N   UNL d   1      10.329  33.260   1.263  0.00  0.00    -0.248 N 
INPUT-LIGAND-PDBQT: ATOM     27  N   UNL d   1      11.857  34.861  -0.695  0.00  0.00    -0.248 N 
INPUT-LIGAND-PDBQT: ATOM     28  N   UNL d   1       9.271  35.678  -1.820  0.00  0.00    -0.248 N 
INPUT-LIGAND-PDBQT: ATOM     29 FE   UNL d   1      10.024  34.533  -0.318  0.00  0.00     0.000 Fe
INPUT-LIGAND-PDBQT: ENDROOT
INPUT-LIGAND-PDBQT: BRANCH   6  30
INPUT-LIGAND-PDBQT: ATOM     30  C   UNL d   1       4.249  34.772  -0.192  0.00  0.00     0.052 C 
INPUT-LIGAND-PDBQT: BRANCH  30  31
INPUT-LIGAND-PDBQT: ATOM     31  C   UNL d   1       3.660  33.865  -1.272  0.00  0.00     0.115 C 
INPUT-LIGAND-PDBQT: BRANCH  31  32
INPUT-LIGAND-PDBQT: ATOM     32  C   UNL d   1       2.237  34.239  -1.627  0.00  0.00     0.139 C 
INPUT-LIGAND-PDBQT: ATOM     33  O   UNL d   1       1.374  33.374  -1.641  0.00  0.00    -0.650 OA
INPUT-LIGAND-PDBQT: BRANCH  32  34
INPUT-LIGAND-PDBQT: ATOM     34  O   UNL d   1       1.874  35.517  -1.885  0.00  0.00    -0.776 OA
INPUT-LIGAND-PDBQT: ATOM     35  H   UNL d   1       2.467  36.277  -1.807  0.00  0.00     0.167 HD
INPUT-LIGAND-PDBQT: ENDBRANCH  32  34
INPUT-LIGAND-PDBQT: ENDBRANCH  31  32
INPUT-LIGAND-PDBQT: ENDBRANCH  30  31
INPUT-LIGAND-PDBQT: ENDBRANCH   6  30
INPUT-LIGAND-PDBQT: BRANCH  29  36
INPUT-LIGAND-PDBQT: ATOM     36  C   UNL d   1       9.893  36.149   1.011  0.00  0.00     0.190 C 
INPUT-LIGAND-PDBQT: BRANCH  36  37
INPUT-LIGAND-PDBQT: ATOM     37  O   UNL d   1      10.463  37.389   1.317  0.00  0.00    -0.399 OA
INPUT-LIGAND-PDBQT: ATOM     38  H   UNL d   1      10.901  37.258   2.204  0.00  0.00     0.209 HD
INPUT-LIGAND-PDBQT: ENDBRANCH  36  37
INPUT-LIGAND-PDBQT: ENDBRANCH  29  36
INPUT-LIGAND-PDBQT: BRANCH  22  39
INPUT-LIGAND-PDBQT: ATOM     39  C   UNL d   1       6.906  37.586  -3.991  0.00  0.00     0.052 C 
INPUT-LIGAND-PDBQT: BRANCH  39  40
INPUT-LIGAND-PDBQT: ATOM     40  C   UNL d   1       6.343  36.659  -5.081  0.00  0.00     0.115 C 
INPUT-LIGAND-PDBQT: BRANCH  40  41
INPUT-LIGAND-PDBQT: ATOM     41  C   UNL d   1       5.088  37.175  -5.753  0.00  0.00     0.139 C 
INPUT-LIGAND-PDBQT: ATOM     42  O   UNL d   1       4.969  37.063  -6.965  0.00  0.00    -0.650 OA
INPUT-LIGAND-PDBQT: BRANCH  41  43
INPUT-LIGAND-PDBQT: ATOM     43  O   UNL d   1       4.056  37.678  -5.040  0.00  0.00    -0.776 OA
INPUT-LIGAND-PDBQT: ATOM     44  H   UNL d   1       4.103  37.816  -4.085  0.00  0.00     0.167 HD
INPUT-LIGAND-PDBQT: ENDBRANCH  41  43
INPUT-LIGAND-PDBQT: ENDBRANCH  40  41
INPUT-LIGAND-PDBQT: ENDBRANCH  39  40
INPUT-LIGAND-PDBQT: ENDBRANCH  22  39
INPUT-LIGAND-PDBQT: BRANCH  12  45
INPUT-LIGAND-PDBQT: ATOM     45  C   UNL d   1      12.932  31.471   3.247  0.00  0.00     0.004 C 
INPUT-LIGAND-PDBQT: ATOM     46  C   UNL d   1      13.165  30.727   4.325  0.00  0.00     0.012 C 
INPUT-LIGAND-PDBQT: ENDBRANCH  12  45
INPUT-LIGAND-PDBQT: BRANCH  17  47
INPUT-LIGAND-PDBQT: ATOM     47  C   UNL d   1      14.559  36.745  -2.286  0.00  0.00     0.004 C 
INPUT-LIGAND-PDBQT: ATOM     48  C   UNL d   1      15.750  37.188  -1.876  0.00  0.00     0.012 C 
INPUT-LIGAND-PDBQT: ENDBRANCH  17  47
INPUT-LIGAND-PDBQT: TORSDOF 12
________________________________________________________________________________

Total charge on ligand                               =	-2.002 e
REMARK  12 active torsions:
REMARK  status: ('A' for Active; 'I' for Inactive)
REMARK    1  A    between atoms: C_6  and  C_10 
REMARK    2  A    between atoms: C_10  and  C_11 
REMARK    3  A    between atoms: C_11  and  C_12 
REMARK    4  A    between atoms: C_12  and  O_14 
REMARK    5  A    between atoms: C_17  and  C_20 
REMARK    6  A    between atoms: C_24  and  C_27 
REMARK    7  A    between atoms: C_31  and  C_34 
REMARK    8  A    between atoms: C_34  and  C_35 
REMARK    9  A    between atoms: C_35  and  C_36 
REMARK   10  A    between atoms: C_36  and  O_38 
REMARK   11  A    between atoms: FE_43  and  C_44 
REMARK   12  A    between atoms: C_44  and  O_45 


Number of Rotatable Bonds in Small Molecule =	12 torsions
Number of atoms in ligand:  48

Number of non-hydrogen atoms in ligand:  45

Number of vibrational degrees of freedom of ligand:  138


Number of torsional degrees of freedom = 12
Estimated loss of torsional free energy upon binding = +3.5796 kcal/mol


DPF> about 8.781 34.984 -0.736            # small molecule center

Small molecule center of rotation =	(+8.781, +34.984, -0.736)

DPF> tran0 random                         # initial coordinates/A or random

Initial translation =			(-18.461, -1.761, -45.753) Angstroms
DPF> quaternion0 random                   # initial orientation

Each run will begin with a new, random initial orientation.
Initial quaternion,  (x,y,z,w) =	( 0.578, -0.325, -0.680, 0.313 ),
DPF> dihe0 random                         # initial dihedrals (relative) or random

DPF> torsdof 12                            # torsional degrees of freedom

Number of torsional degrees of freedom = 12
Free energy coefficient for torsional degrees of freedom = 0.2983, the factory default value.

Estimated loss of torsional free energy upon binding = +3.5796 kcal/mol

DPF> rmstol 2.0                           # cluster_tolerance/A

Maximum RMS tolerance for conformational cluster analysis = 2.00 Angstroms
DPF> extnrg 1000.0                        # external grid energy

External grid energy (beyond grid map walls) = 1000.00

DPF> e0max 0.0 10000                      # max initial energy; max number of retries

Using user-specified maximum number of retries for simanneal initialization, 10000 retries.
If the simanneal initial energy is greater than e0max, 0.000,
then a new, random initial state will be created.

DPF> ga_pop_size 150                      # number of individuals in population

A population of 150 individuals will be used
DPF> ga_num_evals 25000000                # maximum number of energy evaluations

There will be at most 25000000 function evaluations used.
DPF> ga_num_generations 27000             # maximum number of generations

The GA will run for at most 27000 generations.
DPF> ga_elitism 1                         # number of top individuals to survive to next generation

The 1 best will be preserved each GA generation.
DPF> ga_mutation_rate 0.02                # rate of gene mutation

The mutation rate is 0.020000.
DPF> ga_crossover_rate 0.8                # rate of crossover

The crossover rate is 0.800000.
DPF> ga_window_size 10                    # 

The GA's selection window is 10 generations.
DPF> ga_cauchy_alpha 0.0                  # Alpha parameter of Cauchy distribution

The alpha parameter (for the Cauchy distribution) is being set to 0.000000.
DPF> ga_cauchy_beta 1.0                   # Beta parameter Cauchy distribution

The beta parameter (for the Cauchy distribution) is being set to 1.000000.
DPF> set_ga                               # set the above parameters for GA or LGA

DPF> sw_max_its 300                       # iterations of Solis & Wets local search

Solis & Wets algorithms will perform at most 300 iterations.
DPF> sw_max_succ 4                        # consecutive successes before changing rho

Solis & Wets algorithms expand rho every 4 in a row successes.
DPF> sw_max_fail 4                        # consecutive failures before changing rho

Solis & Wets algorithms contract rho every 4 in a row failures.
DPF> sw_rho 1.0                           # size of local search space to sample

rho is set to 1.000000.
DPF> sw_lb_rho 0.01                       # lower bound on rho

rho will never get smaller than 0.010000.
DPF> ls_search_freq 0.06                  # probability of performing local search on individual

Local search will be performed with frequency 0.060000.
DPF> set_psw1                             # set the above pseudo-Solis & Wets parameters

Creating a new Local Search object using the pseudo-Solis-Wets algorithm (pSW1) with the current settings.

DPF> unbound_model bound                  # state of unbound ligand

DPF> ga_run 100                           # do this many hybrid GA-LS runs

centering ligand on specified point: 8.781 34.984 -0.736
Furthest true ligand atom from "about" center is 7.934 Angstroms (maxrad).
Number of requested GA dockings = 100 runs
Unbound model to be used is 'same as bound' [AutoDock 4.2 default].

	BEGINNING GENETIC ALGORITHM DOCKING 1 of 100
Run: 1 Seed: 1950991680 40851194 [ Run 1 of 100 GA/GALS ]
Beginning LAMARCKIAN GENETIC ALGORITHM (LGA), with a maximum of 25000000 energy evaluations.

Final-Value: -12.950


	FINAL GENETIC ALGORITHM DOCKED STATE
	_______________________________________________


Detailed state:  trans -0.682 -15.540 -1.978 quatxyzw 0.372825 0.041512 -0.364508 0.852298 center 8.781 34.984 -0.736 ntor 12 -28.8030 153.7020 31.2802 -14.7864 132.1230 119.4671 -155.3667 132.1414 154.7675 25.4741 -166.4724 -30.7351
State:	 -0.682 -15.540  -1.978   0.713  0.079 -0.697 63.075    -28.80  153.70   31.28  -14.79  132.12  119.47 -155.37  132.14  154.77   25.47 -166.47  -30.74

DOCKED: MODEL        1
DOCKED: USER    Run = 1
DOCKED: USER    DPF = D:/Protein_go_brrr/autodock/final/AncA/heme_Co/dock.dpf
DOCKED: USER  
DOCKED: USER    Estimated Free Energy of Binding    =   -7.89 kcal/mol  [=(1)+(2)+(3)-(4)]
DOCKED: USER    Estimated Inhibition Constant, Ki   =    1.66 uM (micromolar)  [Temperature = 298.15 K]
DOCKED: USER    
DOCKED: USER    (1) Final Intermolecular Energy     =  -11.47 kcal/mol
DOCKED: USER        vdW + Hbond + desolv Energy     =   -6.77 kcal/mol
DOCKED: USER        Electrostatic Energy            =   -4.70 kcal/mol
DOCKED: USER    (2) Final Total Internal Energy     =   -1.48 kcal/mol
DOCKED: USER    (3) Torsional Free Energy           =   +3.58 kcal/mol
DOCKED: USER    (4) Unbound System's Energy  [=(2)] =   -1.48 kcal/mol
DOCKED: USER    
DOCKED: USER    
DOCKED: USER    NEWDPF move heme_Co_opt.pdbqt
DOCKED: USER    NEWDPF about 8.781000 34.984000 -0.736000
DOCKED: USER    NEWDPF tran0 -0.682276 -15.539685 -1.977800
DOCKED: USER    NEWDPF quaternion0 0.372825 0.041512 -0.364508 0.852298
DOCKED: USER    NEWDPF axisangle0 0.712782 0.079364 -0.696881 63.075007
DOCKED: USER    NEWDPF quat0 0.712782 0.079364 -0.696881 63.075007
DOCKED: USER    NEWDPF dihe0 -28.80 153.70 31.28 -14.79 132.12 119.47 -155.37 132.14 154.77 25.47 -166.47 -30.74 
DOCKED: USER  keepresnum = 1 
DOCKED: USER  
DOCKED: REMARK  12 active torsions:
DOCKED: REMARK  status: ('A' for Active; 'I' for Inactive)
DOCKED: REMARK    1  A    between atoms: C_6  and  C_10 
DOCKED: REMARK    2  A    between atoms: C_10  and  C_11 
DOCKED: REMARK    3  A    between atoms: C_11  and  C_12 
DOCKED: REMARK    4  A    between atoms: C_12  and  O_14 
DOCKED: REMARK    5  A    between atoms: C_17  and  C_20 
DOCKED: REMARK    6  A    between atoms: C_24  and  C_27 
DOCKED: REMARK    7  A    between atoms: C_31  and  C_34 
DOCKED: REMARK    8  A    between atoms: C_34  and  C_35 
DOCKED: REMARK    9  A    between atoms: C_35  and  C_36 
DOCKED: REMARK   10  A    between atoms: C_36  and  O_38 
DOCKED: REMARK   11  A    between atoms: FE_43  and  C_44 
DOCKED: REMARK   12  A    between atoms: C_44  and  O_45 
DOCKED: USER                              x       y       z     vdW  Elec       q    Type
DOCKED: USER                           _______ _______ _______ _____ _____    ______ ____
DOCKED: ROOT
DOCKED: ATOM      1  C   UNL d   1      -2.100 -17.089  -2.532 -0.04 +0.08    +0.064 A 
DOCKED: ATOM      2  C   UNL d   1      -0.889 -15.220   1.670 -0.05 +0.06    +0.064 C 
DOCKED: ATOM      3  C   UNL d   1       2.507 -12.598  -0.432 -0.15 +0.02    +0.064 A 
DOCKED: ATOM      4  C   UNL d   1       1.034 -14.201  -4.783 -0.22 +0.03    +0.064 A 
DOCKED: ATOM      5  C   UNL d   1      -1.994 -16.798  -1.225 -0.06 +0.07    +0.066 A 
DOCKED: ATOM      6  C   UNL d   1      -2.883 -17.325  -0.268 -0.06 -0.02    -0.021 A 
DOCKED: ATOM      7  C   UNL d   1      -2.541 -16.762   0.946 -0.08 -0.03    -0.025 A 
DOCKED: ATOM      8  C   UNL d   1      -1.449 -15.929   0.681 -0.09 +0.06    +0.066 A 
DOCKED: ATOM      9  C   UNL d   1      -3.208 -16.989   2.312 +0.01 +0.07    +0.051 C 
DOCKED: ATOM     10  C   UNL d   1       0.253 -14.358   1.498 -0.13 +0.04    +0.066 A 
DOCKED: ATOM     11  C   UNL d   1       0.974 -13.698   2.517 -0.18 -0.01    -0.021 A 
DOCKED: ATOM     12  C   UNL d   1       1.961 -12.944   1.876 -0.20 +0.00    +0.000 A 
DOCKED: ATOM     13  C   UNL d   1       1.778 -13.208   0.519 -0.13 +0.03    +0.070 A 
DOCKED: ATOM     14  C   UNL d   1       0.776 -13.867   4.001 -0.20 +0.03    +0.052 C 
DOCKED: ATOM     15  C   UNL d   1       2.418 -12.713  -1.875 -0.13 +0.02    +0.066 A 
DOCKED: ATOM     16  C   UNL d   1       3.104 -11.945  -2.805 -0.22 -0.01    -0.021 A 
DOCKED: ATOM     17  C   UNL d   1       2.680 -12.402  -4.062 -0.25 +0.00    +0.000 A 
DOCKED: ATOM     18  C   UNL d   1       1.779 -13.428  -3.797 -0.17 +0.03    +0.070 A 
DOCKED: ATOM     19  C   UNL d   1       4.094 -10.850  -2.479 -0.23 +0.01    +0.052 C 
DOCKED: ATOM     20  C   UNL d   1       0.089 -15.143  -4.548 -0.17 +0.05    +0.066 A 
DOCKED: ATOM     21  C   UNL d   1      -0.585 -15.793  -5.580 -0.23 -0.02    -0.025 A 
DOCKED: ATOM     22  C   UNL d   1      -1.474 -16.653  -4.961 -0.13 -0.02    -0.021 A 
DOCKED: ATOM     23  C   UNL d   1      -1.306 -16.474  -3.571 -0.09 +0.08    +0.066 A 
DOCKED: ATOM     24  C   UNL d   1      -0.405 -15.591  -7.082 -0.28 +0.03    +0.051 C 
DOCKED: ATOM     25  N   UNL d   1      -1.085 -15.936  -0.654 -0.04 -0.22    -0.248 N 
DOCKED: ATOM     26  N   UNL d   1       0.782 -14.107   0.295 -0.06 -0.13    -0.248 N 
DOCKED: ATOM     27  N   UNL d   1       1.624 -13.565  -2.485 -0.05 -0.11    -0.248 N 
DOCKED: ATOM     28  N   UNL d   1      -0.363 -15.560  -3.317 -0.06 -0.21    -0.248 N 
DOCKED: ATOM     29 FE   UNL d   1       0.349 -14.682  -1.627 -0.02 +0.00    +0.000 Fe
DOCKED: ENDROOT
DOCKED: BRANCH   6  30
DOCKED: ATOM     30  C   UNL d   1      -4.056 -18.263  -0.535 -0.03 +0.05    +0.052 C 
DOCKED: BRANCH  30  31
DOCKED: ATOM     31  C   UNL d   1      -5.280 -17.474  -0.997 -0.06 +0.15    +0.115 C 
DOCKED: BRANCH  31  32
DOCKED: ATOM     32  C   UNL d   1      -5.283 -16.054  -0.475 -0.11 +0.25    +0.139 C 
DOCKED: ATOM     33  O   UNL d   1      -4.532 -15.229  -0.973 +0.05 -1.60    -0.650 OA
DOCKED: BRANCH  32  34
DOCKED: ATOM     34  O   UNL d   1      -6.129 -15.650   0.502 -0.38 -1.61    -0.776 OA
DOCKED: ATOM     35  H   UNL d   1      -7.024 -15.996   0.623 +0.02 +0.24    +0.167 HD
DOCKED: ENDBRANCH  32  34
DOCKED: ENDBRANCH  31  32
DOCKED: ENDBRANCH  30  31
DOCKED: ENDBRANCH   6  30
DOCKED: BRANCH  29  36
DOCKED: ATOM     36  C   UNL d   1      -1.156 -13.225  -1.722 -0.17 +0.17    +0.190 C 
DOCKED: BRANCH  36  37
DOCKED: ATOM     37  O   UNL d   1      -2.534 -13.057  -1.890 -0.35 -0.62    -0.399 OA
DOCKED: ATOM     38  H   UNL d   1      -2.949 -13.795  -1.363 +0.06 +0.39    +0.209 HD
DOCKED: ENDBRANCH  36  37
DOCKED: ENDBRANCH  29  36
DOCKED: BRANCH  22  39
DOCKED: ATOM     39  C   UNL d   1      -2.474 -17.546  -5.672 -0.17 +0.06    +0.052 C 
DOCKED: BRANCH  39  40
DOCKED: ATOM     40  C   UNL d   1      -1.755 -18.697  -6.395 -0.10 +0.11    +0.115 C 
DOCKED: BRANCH  40  41
DOCKED: ATOM     41  C   UNL d   1      -2.567 -19.349  -7.493 -0.02 +0.21    +0.139 C 
DOCKED: ATOM     42  O   UNL d   1      -3.291 -20.296  -7.220 -0.07 -1.16    -0.650 OA
DOCKED: BRANCH  41  43
DOCKED: ATOM     43  O   UNL d   1      -2.582 -18.859  -8.753 -0.31 -1.47    -0.776 OA
DOCKED: ATOM     44  H   UNL d   1      -1.796 -18.488  -9.174 +0.06 +0.17    +0.167 HD
DOCKED: ENDBRANCH  41  43
DOCKED: ENDBRANCH  40  41
DOCKED: ENDBRANCH  39  40
DOCKED: ENDBRANCH  22  39
DOCKED: BRANCH  12  45
DOCKED: ATOM     45  C   UNL d   1       3.061 -12.024   2.389 -0.28 +0.00    +0.004 C 
DOCKED: ATOM     46  C   UNL d   1       3.165 -11.352   3.532 -0.33 +0.00    +0.012 C 
DOCKED: ENDBRANCH  12  45
DOCKED: BRANCH  17  47
DOCKED: ATOM     47  C   UNL d   1       3.032 -11.905  -5.426 -0.36 +0.00    +0.004 C 
DOCKED: ATOM     48  C   UNL d   1       3.780 -12.594  -6.291 -0.50 +0.00    +0.012 C 
DOCKED: ENDBRANCH  17  47
DOCKED: TORSDOF 12
DOCKED: TER
DOCKED: ENDMDL
________________________________________________________________________________


	BEGINNING GENETIC ALGORITHM DOCKING 2 of 100
Run: 2 Seed: 640452618 1065403747 [ Run 2 of 100 GA/GALS ]
Beginning LAMARCKIAN GENETIC ALGORITHM (LGA), with a maximum of 25000000 energy evaluations.

Final-Value: -12.088


	FINAL GENETIC ALGORITHM DOCKED STATE
	_______________________________________________


Detailed state:  trans -11.128 -15.227 -2.611 quatxyzw -0.363294 -0.814975 0.352129 0.282559 center 8.781 34.984 -0.736 ntor 12 -144.4699 77.7773 -102.6450 -97.4502 111.1527 157.0016 47.1973 -172.8484 -89.7803 58.2551 180.0000 -180.0000
State:	-11.128 -15.227  -2.611  -0.379 -0.850  0.367 147.174   -144.47   77.78 -102.64  -97.45  111.15  157.00   47.20 -172.85  -89.78   58.26  180.00 -180.00

DOCKED: MODEL        2
DOCKED: USER    Run = 2
DOCKED: USER    DPF = D:/Protein_go_brrr/autodock/final/AncA/heme_Co/dock.dpf
DOCKED: USER  
DOCKED: USER    Estimated Free Energy of Binding    =   -5.73 kcal/mol  [=(1)+(2)+(3)-(4)]
DOCKED: USER    Estimated Inhibition Constant, Ki   =   62.97 uM (micromolar)  [Temperature = 298.15 K]
DOCKED: USER    
DOCKED: USER    (1) Final Intermolecular Energy     =   -9.31 kcal/mol
DOCKED: USER        vdW + Hbond + desolv Energy     =   -5.37 kcal/mol
DOCKED: USER        Electrostatic Energy            =   -3.94 kcal/mol
DOCKED: USER    (2) Final Total Internal Energy     =   -2.78 kcal/mol
DOCKED: USER    (3) Torsional Free Energy           =   +3.58 kcal/mol
DOCKED: USER    (4) Unbound System's Energy  [=(2)] =   -2.78 kcal/mol
DOCKED: USER    
DOCKED: USER    
DOCKED: USER    NEWDPF move heme_Co_opt.pdbqt
DOCKED: USER    NEWDPF about 8.781000 34.984000 -0.736000
DOCKED: USER    NEWDPF tran0 -11.128131 -15.227445 -2.611318
DOCKED: USER    NEWDPF quaternion0 -0.363294 -0.814975 0.352129 0.282559
DOCKED: USER    NEWDPF axisangle0 -0.378727 -0.849596 0.367087 147.174030
DOCKED: USER    NEWDPF quat0 -0.378727 -0.849596 0.367087 147.174030
DOCKED: USER    NEWDPF dihe0 -144.47 77.78 -102.64 -97.45 111.15 157.00 47.20 -172.85 -89.78 58.26 180.00 -180.00 
DOCKED: USER  keepresnum = 1 
DOCKED: USER  
DOCKED: REMARK  12 active torsions:
DOCKED: REMARK  status: ('A' for Active; 'I' for Inactive)
DOCKED: REMARK    1  A    between atoms: C_6  and  C_10 
DOCKED: REMARK    2  A    between atoms: C_10  and  C_11 
DOCKED: REMARK    3  A    between atoms: C_11  and  C_12 
DOCKED: REMARK    4  A    between atoms: C_12  and  O_14 
DOCKED: REMARK    5  A    between atoms: C_17  and  C_20 
DOCKED: REMARK    6  A    between atoms: C_24  and  C_27 
DOCKED: REMARK    7  A    between atoms: C_31  and  C_34 
DOCKED: REMARK    8  A    between atoms: C_34  and  C_35 
DOCKED: REMARK    9  A    between atoms: C_35  and  C_36 
DOCKED: REMARK   10  A    between atoms: C_36  and  O_38 
DOCKED: REMARK   11  A    between atoms: FE_43  and  C_44 
DOCKED: REMARK   12  A    between atoms: C_44  and  O_45 
DOCKED: USER                              x       y       z     vdW  Elec       q    Type
DOCKED: USER                           _______ _______ _______ _____ _____    ______ ____
DOCKED: ROOT
DOCKED: ATOM      1  C   UNL d   1      -9.792 -15.082  -0.906 -0.08 +0.04    +0.064 A 
DOCKED: ATOM      2  C   UNL d   1     -11.858 -18.796  -3.039 -0.01 +0.02    +0.064 C 
DOCKED: ATOM      3  C   UNL d   1     -14.272 -15.846  -5.919 -0.04 +0.01    +0.064 A 
DOCKED: ATOM      4  C   UNL d   1     -11.887 -12.057  -4.017 -0.26 +0.01    +0.064 A 
DOCKED: ATOM      5  C   UNL d   1     -10.206 -16.312  -1.253 -0.03 +0.03    +0.066 A 
DOCKED: ATOM      6  C   UNL d   1      -9.664 -17.475  -0.671 -0.00 -0.01    -0.021 A 
DOCKED: ATOM      7  C   UNL d   1     -10.251 -18.550  -1.310 +0.00 -0.01    -0.025 A 
DOCKED: ATOM      8  C   UNL d   1     -11.137 -17.998  -2.242 -0.01 +0.02    +0.066 A 
DOCKED: ATOM      9  C   UNL d   1      -9.997 -20.045  -1.065 +0.00 +0.02    +0.051 C 
DOCKED: ATOM     10  C   UNL d   1     -12.813 -18.320  -4.008 -0.01 +0.02    +0.066 A 
DOCKED: ATOM     11  C   UNL d   1     -13.700 -19.105  -4.775 -0.00 -0.00    -0.021 A 
DOCKED: ATOM     12  C   UNL d   1     -14.395 -18.220  -5.603 -0.01 +0.00    +0.000 A 
DOCKED: ATOM     13  C   UNL d   1     -13.891 -16.962  -5.272 -0.02 +0.01    +0.070 A 
DOCKED: ATOM     14  C   UNL d   1     -13.921 -20.590  -4.640 +0.00 +0.01    +0.052 C 
DOCKED: ATOM     15  C   UNL d   1     -13.819 -14.480  -5.744 -0.09 +0.01    +0.066 A 
DOCKED: ATOM     16  C   UNL d   1     -14.147 -13.395  -6.545 -0.15 -0.00    -0.021 A 
DOCKED: ATOM     17  C   UNL d   1     -13.459 -12.300  -6.001 -0.26 +0.00    +0.000 A 
DOCKED: ATOM     18  C   UNL d   1     -12.777 -12.803  -4.898 -0.21 +0.01    +0.070 A 
DOCKED: ATOM     19  C   UNL d   1     -15.063 -13.438  -7.747 -0.12 +0.01    +0.052 C 
DOCKED: ATOM     20  C   UNL d   1     -11.146 -12.542  -2.992 -0.19 +0.02    +0.066 A 
DOCKED: ATOM     21  C   UNL d   1     -10.299 -11.731  -2.239 -0.30 -0.01    -0.025 A 
DOCKED: ATOM     22  C   UNL d   1      -9.703 -12.571  -1.316 -0.24 -0.01    -0.021 A 
DOCKED: ATOM     23  C   UNL d   1     -10.212 -13.864  -1.561 -0.15 +0.03    +0.066 A 
DOCKED: ATOM     24  C   UNL d   1     -10.053 -10.234  -2.404 -0.47 +0.01    +0.051 C 
DOCKED: ATOM     25  N   UNL d   1     -11.134 -16.613  -2.224 -0.02 -0.09    -0.248 N 
DOCKED: ATOM     26  N   UNL d   1     -12.975 -17.018  -4.269 -0.01 -0.06    -0.248 N 
DOCKED: ATOM     27  N   UNL d   1     -12.990 -14.110  -4.794 -0.07 -0.05    -0.248 N 
DOCKED: ATOM     28  N   UNL d   1     -11.083 -13.851  -2.576 -0.11 -0.08    -0.248 N 
DOCKED: ATOM     29 FE   UNL d   1     -12.116 -15.285  -3.583 -0.02 +0.00    +0.000 Fe
DOCKED: ENDROOT
DOCKED: BRANCH   6  30
DOCKED: ATOM     30  C   UNL d   1      -8.572 -17.537   0.391 -0.00 +0.03    +0.052 C 
DOCKED: BRANCH  30  31
DOCKED: ATOM     31  C   UNL d   1      -7.204 -17.747  -0.256 -0.01 +0.10    +0.115 C 
DOCKED: BRANCH  31  32
DOCKED: ATOM     32  C   UNL d   1      -6.536 -16.442  -0.631 -0.07 +0.19    +0.139 C 
DOCKED: ATOM     33  O   UNL d   1      -6.837 -15.892  -1.680 -0.48 -1.10    -0.650 OA
DOCKED: BRANCH  32  34
DOCKED: ATOM     34  O   UNL d   1      -5.643 -15.833   0.184 -0.46 -1.53    -0.776 OA
DOCKED: ATOM     35  H   UNL d   1      -5.520 -14.875   0.237 +0.02 +0.41    +0.167 HD
DOCKED: ENDBRANCH  32  34
DOCKED: ENDBRANCH  31  32
DOCKED: ENDBRANCH  30  31
DOCKED: ENDBRANCH   6  30
DOCKED: BRANCH  29  36
DOCKED: ATOM     36  C   UNL d   1     -10.490 -15.583  -4.872 +0.02 +0.08    +0.190 C 
DOCKED: BRANCH  36  37
DOCKED: ATOM     37  O   UNL d   1      -9.288 -16.286  -5.006 -0.09 -0.25    -0.399 OA
DOCKED: ATOM     38  H   UNL d   1      -8.913 -16.330  -4.082 +0.05 +0.15    +0.209 HD
DOCKED: ENDBRANCH  36  37
DOCKED: ENDBRANCH  29  36
DOCKED: BRANCH  22  39
DOCKED: ATOM     39  C   UNL d   1      -8.655 -12.158  -0.299 -0.28 +0.04    +0.052 C 
DOCKED: BRANCH  39  40
DOCKED: ATOM     40  C   UNL d   1      -7.273 -12.039  -0.963 -0.13 +0.10    +0.115 C 
DOCKED: BRANCH  40  41
DOCKED: ATOM     41  C   UNL d   1      -6.179 -12.827  -0.274 -0.25 +0.19    +0.139 C 
DOCKED: ATOM     42  O   UNL d   1      -6.198 -12.939   0.944 -0.09 -1.18    -0.650 OA
DOCKED: BRANCH  41  43
DOCKED: ATOM     43  O   UNL d   1      -5.228 -13.484  -0.974 -0.03 -1.55    -0.776 OA
DOCKED: ATOM     44  H   UNL d   1      -5.294 -14.425  -1.182 +0.03 +0.42    +0.167 HD
DOCKED: ENDBRANCH  41  43
DOCKED: ENDBRANCH  40  41
DOCKED: ENDBRANCH  39  40
DOCKED: ENDBRANCH  22  39
DOCKED: BRANCH  12  45
DOCKED: ATOM     45  C   UNL d   1     -15.485 -18.414  -6.649 -0.00 +0.00    +0.004 C 
DOCKED: ATOM     46  C   UNL d   1     -15.429 -18.360  -7.977 -0.01 +0.00    +0.012 C 
DOCKED: ENDBRANCH  12  45
DOCKED: BRANCH  17  47
DOCKED: ATOM     47  C   UNL d   1     -13.382 -10.888  -6.482 -0.25 -0.00    +0.004 C 
DOCKED: ATOM     48  C   UNL d   1     -14.241  -9.936  -6.110 -0.44 +0.00    +0.012 C 
DOCKED: ENDBRANCH  17  47
DOCKED: TORSDOF 12
DOCKED: TER
DOCKED: ENDMDL
________________________________________________________________________________


	BEGINNING GENETIC ALGORITHM DOCKING 3 of 100
Run: 3 Seed: 17823906 712064613 [ Run 3 of 100 GA/GALS ]
Beginning LAMARCKIAN GENETIC ALGORITHM (LGA), with a maximum of 25000000 energy evaluations.

Final-Value: -11.949


	FINAL GENETIC ALGORITHM DOCKED STATE
	_______________________________________________


Detailed state:  trans -0.866 -16.478 -1.455 quatxyzw -0.277031 -0.269373 0.383367 -0.838881 center 8.781 34.984 -0.736 ntor 12 97.0298 128.4053 -9.8734 -92.5116 110.2597 140.9890 -129.5299 -172.2963 -132.2478 15.8939 -177.5438 145.5313
State:	 -0.866 -16.478  -1.455  -0.509 -0.495  0.704 -65.956     97.03  128.41   -9.87  -92.51  110.26  140.99 -129.53 -172.30 -132.25   15.89 -177.54  145.53

DOCKED: MODEL        3
DOCKED: USER    Run = 3
DOCKED: USER    DPF = D:/Protein_go_brrr/autodock/final/AncA/heme_Co/dock.dpf
DOCKED: USER  
DOCKED: USER    Estimated Free Energy of Binding    =   -5.83 kcal/mol  [=(1)+(2)+(3)-(4)]
DOCKED: USER    Estimated Inhibition Constant, Ki   =   52.94 uM (micromolar)  [Temperature = 298.15 K]
DOCKED: USER    
DOCKED: USER    (1) Final Intermolecular Energy     =   -9.41 kcal/mol
DOCKED: USER        vdW + Hbond + desolv Energy     =   -5.38 kcal/mol
DOCKED: USER        Electrostatic Energy            =   -4.04 kcal/mol
DOCKED: USER    (2) Final Total Internal Energy     =   -2.54 kcal/mol
DOCKED: USER    (3) Torsional Free Energy           =   +3.58 kcal/mol
DOCKED: USER    (4) Unbound System's Energy  [=(2)] =   -2.54 kcal/mol
DOCKED: USER    
DOCKED: USER    
DOCKED: USER    NEWDPF move heme_Co_opt.pdbqt
DOCKED: USER    NEWDPF about 8.781000 34.984000 -0.736000
DOCKED: USER    NEWDPF tran0 -0.865974 -16.478424 -1.455312
DOCKED: USER    NEWDPF quaternion0 -0.277031 -0.269373 0.383367 -0.838881
DOCKED: USER    NEWDPF axisangle0 -0.508954 -0.494885 0.704311 -65.955720
DOCKED: USER    NEWDPF quat0 -0.508954 -0.494885 0.704311 -65.955720
DOCKED: USER    NEWDPF dihe0 97.03 128.41 -9.87 -92.51 110.26 140.99 -129.53 -172.30 -132.25 15.89 -177.54 145.53 
DOCKED: USER  keepresnum = 1 
DOCKED: USER  
DOCKED: REMARK  12 active torsions:
DOCKED: REMARK  status: ('A' for Active; 'I' for Inactive)
DOCKED: REMARK    1  A    between atoms: C_6  and  C_10 
DOCKED: REMARK    2  A    between atoms: C_10  and  C_11 
DOCKED: REMARK    3  A    between atoms: C_11  and  C_12 
DOCKED: REMARK    4  A    between atoms: C_12  and  O_14 
DOCKED: REMARK    5  A    between atoms: C_17  and  C_20 
DOCKED: REMARK    6  A    between atoms: C_24  and  C_27 
DOCKED: REMARK    7  A    between atoms: C_31  and  C_34 
DOCKED: REMARK    8  A    between atoms: C_34  and  C_35 
DOCKED: REMARK    9  A    between atoms: C_35  and  C_36 
DOCKED: REMARK   10  A    between atoms: C_36  and  O_38 
DOCKED: REMARK   11  A    between atoms: FE_43  and  C_44 
DOCKED: REMARK   12  A    between atoms: C_44  and  O_45 
DOCKED: USER                              x       y       z     vdW  Elec       q    Type
DOCKED: USER                           _______ _______ _______ _____ _____    ______ ____
DOCKED: ROOT
DOCKED: ATOM      1  C   UNL d   1      -1.633 -17.956  -2.850 -0.04 +0.06    +0.064 A 
DOCKED: ATOM      2  C   UNL d   1      -2.094 -17.463   1.857 -0.06 +0.05    +0.064 C 
DOCKED: ATOM      3  C   UNL d   1       0.925 -13.760   1.803 -0.15 +0.03    +0.064 A 
DOCKED: ATOM      4  C   UNL d   1       1.111 -13.999  -3.052 -0.11 +0.03    +0.064 A 
DOCKED: ATOM      5  C   UNL d   1      -1.953 -18.116  -1.555 -0.02 +0.05    +0.066 A 
DOCKED: ATOM      6  C   UNL d   1      -2.891 -19.077  -1.130 -0.00 -0.01    -0.021 A 
DOCKED: ATOM      7  C   UNL d   1      -3.038 -18.914   0.233 -0.01 -0.02    -0.025 A 
DOCKED: ATOM      8  C   UNL d   1      -2.172 -17.873   0.584 -0.03 +0.05    +0.066 A 
DOCKED: ATOM      9  C   UNL d   1      -3.954 -19.701   1.183 -0.00 +0.03    +0.051 C 
DOCKED: ATOM     10  C   UNL d   1      -1.214 -16.418   2.316 -0.07 +0.06    +0.066 A 
DOCKED: ATOM     11  C   UNL d   1      -0.983 -16.038   3.656 -0.06 -0.02    -0.021 A 
DOCKED: ATOM     12  C   UNL d   1      -0.096 -14.958   3.612 -0.13 +0.00    +0.000 A 
DOCKED: ATOM     13  C   UNL d   1       0.158 -14.769   2.253 -0.11 +0.04    +0.070 A 
DOCKED: ATOM     14  C   UNL d   1      -1.510 -16.734   4.885 -0.08 +0.04    +0.052 C 
DOCKED: ATOM     15  C   UNL d   1       1.248 -13.388   0.440 -0.14 +0.03    +0.066 A 
DOCKED: ATOM     16  C   UNL d   1       1.928 -12.247   0.038 -0.24 -0.01    -0.021 A 
DOCKED: ATOM     17  C   UNL d   1       1.982 -12.310  -1.362 -0.20 +0.00    +0.000 A 
DOCKED: ATOM     18  C   UNL d   1       1.344 -13.498  -1.703 -0.09 +0.03    +0.070 A 
DOCKED: ATOM     19  C   UNL d   1       2.476 -11.182   0.961 -0.30 +0.01    +0.052 C 
DOCKED: ATOM     20  C   UNL d   1       0.418 -15.106  -3.412 -0.10 +0.04    +0.066 A 
DOCKED: ATOM     21  C   UNL d   1       0.232 -15.466  -4.744 -0.17 -0.02    -0.025 A 
DOCKED: ATOM     22  C   UNL d   1      -0.531 -16.619  -4.716 -0.12 -0.02    -0.021 A 
DOCKED: ATOM     23  C   UNL d   1      -0.785 -16.901  -3.357 -0.07 +0.06    +0.066 A 
DOCKED: ATOM     24  C   UNL d   1       0.739 -14.737  -5.986 -0.36 +0.03    +0.051 C 
DOCKED: ATOM     25  N   UNL d   1      -1.482 -17.363  -0.503 -0.01 -0.20    -0.248 N 
DOCKED: ATOM     26  N   UNL d   1      -0.474 -15.688   1.475 -0.07 -0.18    -0.248 N 
DOCKED: ATOM     27  N   UNL d   1       0.893 -14.098  -0.607 -0.04 -0.13    -0.248 N 
DOCKED: ATOM     28  N   UNL d   1      -0.214 -15.987  -2.564 -0.03 -0.19    -0.248 N 
DOCKED: ATOM     29 FE   UNL d   1      -0.224 -15.635  -0.562 -0.01 +0.00    +0.000 Fe
DOCKED: ENDROOT
DOCKED: BRANCH   6  30
DOCKED: ATOM     30  C   UNL d   1      -3.665 -20.046  -2.017 -0.00 +0.03    +0.052 C 
DOCKED: BRANCH  30  31
DOCKED: ATOM     31  C   UNL d   1      -5.021 -19.456  -2.402 -0.02 +0.09    +0.115 C 
DOCKED: BRANCH  31  32
DOCKED: ATOM     32  C   UNL d   1      -4.917 -18.014  -2.850 -0.04 +0.19    +0.139 C 
DOCKED: ATOM     33  O   UNL d   1      -4.933 -17.753  -4.043 -0.03 -1.03    -0.650 OA
DOCKED: BRANCH  32  34
DOCKED: ATOM     34  O   UNL d   1      -4.855 -16.991  -1.966 +0.00 -1.54    -0.776 OA
DOCKED: ATOM     35  H   UNL d   1      -4.032 -16.609  -1.633 +0.01 +0.36    +0.167 HD
DOCKED: ENDBRANCH  32  34
DOCKED: ENDBRANCH  31  32
DOCKED: ENDBRANCH  30  31
DOCKED: ENDBRANCH   6  30
DOCKED: BRANCH  29  36
DOCKED: ATOM     36  C   UNL d   1      -1.978 -14.502  -0.746 -0.15 +0.24    +0.190 C 
DOCKED: BRANCH  36  37
DOCKED: ATOM     37  O   UNL d   1      -3.346 -14.604  -1.018 -0.07 -0.82    -0.399 OA
DOCKED: ATOM     38  H   UNL d   1      -3.555 -15.575  -0.924 +0.02 +0.42    +0.209 HD
DOCKED: ENDBRANCH  36  37
DOCKED: ENDBRANCH  29  36
DOCKED: BRANCH  22  39
DOCKED: ATOM     39  C   UNL d   1      -1.041 -17.367  -5.934 -0.16 +0.04    +0.052 C 
DOCKED: BRANCH  39  40
DOCKED: ATOM     40  C   UNL d   1      -2.573 -17.279  -6.023 -0.12 +0.14    +0.115 C 
DOCKED: BRANCH  40  41
DOCKED: ATOM     41  C   UNL d   1      -3.192 -18.193  -7.060 -0.10 +0.21    +0.139 C 
DOCKED: ATOM     42  O   UNL d   1      -2.586 -18.418  -8.098 -0.55 -1.02    -0.650 OA
DOCKED: BRANCH  41  43
DOCKED: ATOM     43  O   UNL d   1      -4.358 -18.838  -6.832 -0.14 -1.46    -0.776 OA
DOCKED: ATOM     44  H   UNL d   1      -4.824 -18.786  -5.988 +0.03 +0.24    +0.167 HD
DOCKED: ENDBRANCH  41  43
DOCKED: ENDBRANCH  40  41
DOCKED: ENDBRANCH  39  40
DOCKED: ENDBRANCH  22  39
DOCKED: BRANCH  12  45
DOCKED: ATOM     45  C   UNL d   1       0.552 -14.102   4.691 -0.21 +0.00    +0.004 C 
DOCKED: ATOM     46  C   UNL d   1       0.245 -12.883   5.130 -0.38 +0.01    +0.012 C 
DOCKED: ENDBRANCH  12  45
DOCKED: BRANCH  17  47
DOCKED: ATOM     47  C   UNL d   1       2.535 -11.327  -2.341 -0.32 +0.00    +0.004 C 
DOCKED: ATOM     48  C   UNL d   1       3.807 -11.326  -2.746 -0.34 +0.00    +0.012 C 
DOCKED: ENDBRANCH  17  47
DOCKED: TORSDOF 12
DOCKED: TER
DOCKED: ENDMDL
________________________________________________________________________________


	BEGINNING GENETIC ALGORITHM DOCKING 4 of 100
Run: 4 Seed: 1203428514 1757915367 [ Run 4 of 100 GA/GALS ]
Beginning LAMARCKIAN GENETIC ALGORITHM (LGA), with a maximum of 25000000 energy evaluations.

Final-Value: -12.149


	FINAL GENETIC ALGORITHM DOCKED STATE
	_______________________________________________


Detailed state:  trans -11.978 -14.288 -1.407 quatxyzw 0.705366 0.581911 -0.400363 -0.059569 center 8.781 34.984 -0.736 ntor 12 -170.9364 121.4625 -30.9794 125.9879 125.5261 132.1586 31.5606 -95.7171 -178.7794 -87.2647 -171.2232 164.9247
State:	-11.978 -14.288  -1.407   0.707  0.583 -0.401 -173.170   -170.94  121.46  -30.98  125.99  125.53  132.16   31.56  -95.72 -178.78  -87.26 -171.22  164.92

DOCKED: MODEL        4
DOCKED: USER    Run = 4
DOCKED: USER    DPF = D:/Protein_go_brrr/autodock/final/AncA/heme_Co/dock.dpf
DOCKED: USER  
DOCKED: USER    Estimated Free Energy of Binding    =   -6.34 kcal/mol  [=(1)+(2)+(3)-(4)]
DOCKED: USER    Estimated Inhibition Constant, Ki   =   22.40 uM (micromolar)  [Temperature = 298.15 K]
DOCKED: USER    
DOCKED: USER    (1) Final Intermolecular Energy     =   -9.92 kcal/mol
DOCKED: USER        vdW + Hbond + desolv Energy     =   -7.07 kcal/mol
DOCKED: USER        Electrostatic Energy            =   -2.85 kcal/mol
DOCKED: USER    (2) Final Total Internal Energy     =   -2.23 kcal/mol
DOCKED: USER    (3) Torsional Free Energy           =   +3.58 kcal/mol
DOCKED: USER    (4) Unbound System's Energy  [=(2)] =   -2.23 kcal/mol
DOCKED: USER    
DOCKED: USER    
DOCKED: USER    NEWDPF move heme_Co_opt.pdbqt
DOCKED: USER    NEWDPF about 8.781000 34.984000 -0.736000
DOCKED: USER    NEWDPF tran0 -11.977683 -14.287756 -1.407280
DOCKED: USER    NEWDPF quaternion0 0.705366 0.581911 -0.400363 -0.059569
DOCKED: USER    NEWDPF axisangle0 0.706621 0.582946 -0.401076 -173.169870
DOCKED: USER    NEWDPF quat0 0.706621 0.582946 -0.401076 -173.169870
DOCKED: USER    NEWDPF dihe0 -170.94 121.46 -30.98 125.99 125.53 132.16 31.56 -95.72 -178.78 -87.26 -171.22 164.92 
DOCKED: USER  keepresnum = 1 
DOCKED: USER  
DOCKED: REMARK  12 active torsions:
DOCKED: REMARK  status: ('A' for Active; 'I' for Inactive)
DOCKED: REMARK    1  A    between atoms: C_6  and  C_10 
DOCKED: REMARK    2  A    between atoms: C_10  and  C_11 
DOCKED: REMARK    3  A    between atoms: C_11  and  C_12 
DOCKED: REMARK    4  A    between atoms: C_12  and  O_14 
DOCKED: REMARK    5  A    between atoms: C_17  and  C_20 
DOCKED: REMARK    6  A    between atoms: C_24  and  C_27 
DOCKED: REMARK    7  A    between atoms: C_31  and  C_34 
DOCKED: REMARK    8  A    between atoms: C_34  and  C_35 
DOCKED: REMARK    9  A    between atoms: C_35  and  C_36 
DOCKED: REMARK   10  A    between atoms: C_36  and  O_38 
DOCKED: REMARK   11  A    between atoms: FE_43  and  C_44 
DOCKED: REMARK   12  A    between atoms: C_44  and  O_45 
DOCKED: USER                              x       y       z     vdW  Elec       q    Type
DOCKED: USER                           _______ _______ _______ _____ _____    ______ ____
DOCKED: ROOT
DOCKED: ATOM      1  C   UNL d   1     -11.127 -15.474   0.201 -0.10 +0.02    +0.064 A 
DOCKED: ATOM      2  C   UNL d   1     -15.286 -15.715  -2.093 -0.13 +0.01    +0.064 C 
DOCKED: ATOM      3  C   UNL d   1     -14.224 -11.735  -4.514 -0.24 +0.00    +0.064 A 
DOCKED: ATOM      4  C   UNL d   1      -9.811 -11.683  -2.468 -0.27 +0.02    +0.064 A 
DOCKED: ATOM      5  C   UNL d   1     -12.357 -15.812  -0.222 -0.09 +0.02    +0.066 A 
DOCKED: ATOM      6  C   UNL d   1     -12.999 -16.988   0.213 -0.08 -0.01    -0.021 A 
DOCKED: ATOM      7  C   UNL d   1     -14.196 -17.064  -0.473 -0.09 -0.00    -0.025 A 
DOCKED: ATOM      8  C   UNL d   1     -14.239 -15.925  -1.284 -0.13 +0.01    +0.066 A 
DOCKED: ATOM      9  C   UNL d   1     -15.267 -18.162  -0.380 -0.04 +0.01    +0.051 C 
DOCKED: ATOM     10  C   UNL d   1     -15.430 -14.559  -2.942 -0.13 +0.01    +0.066 A 
DOCKED: ATOM     11  C   UNL d   1     -16.565 -14.211  -3.708 -0.10 -0.00    -0.021 A 
DOCKED: ATOM     12  C   UNL d   1     -16.229 -13.045  -4.400 -0.13 +0.00    +0.000 A 
DOCKED: ATOM     13  C   UNL d   1     -14.923 -12.761  -3.998 -0.18 +0.01    +0.070 A 
DOCKED: ATOM     14  C   UNL d   1     -17.901 -14.907  -3.688 -0.05 +0.01    +0.052 C 
DOCKED: ATOM     15  C   UNL d   1     -12.856 -11.331  -4.254 -0.28 +0.00    +0.066 A 
DOCKED: ATOM     16  C   UNL d   1     -12.145 -10.349  -4.928 -0.40 -0.00    -0.021 A 
DOCKED: ATOM     17  C   UNL d   1     -10.871 -10.332  -4.343 -0.42 +0.00    +0.000 A 
DOCKED: ATOM     18  C   UNL d   1     -10.911 -11.297  -3.343 -0.30 +0.01    +0.070 A 
DOCKED: ATOM     19  C   UNL d   1     -12.681  -9.499  -6.059 -0.15 +0.00    +0.052 C 
DOCKED: ATOM     20  C   UNL d   1      -9.800 -12.677  -1.547 -0.21 +0.03    +0.066 A 
DOCKED: ATOM     21  C   UNL d   1      -8.669 -12.977  -0.791 -0.21 -0.02    -0.025 A 
DOCKED: ATOM     22  C   UNL d   1      -9.027 -14.047   0.008 -0.14 -0.02    -0.021 A 
DOCKED: ATOM     23  C   UNL d   1     -10.366 -14.357  -0.311 -0.12 +0.03    +0.066 A 
DOCKED: ATOM     24  C   UNL d   1      -7.306 -12.291  -0.841 -0.18 +0.05    +0.051 C 
DOCKED: ATOM     25  N   UNL d   1     -13.116 -15.128  -1.144 -0.09 -0.04    -0.248 N 
DOCKED: ATOM     26  N   UNL d   1     -14.462 -13.646  -3.074 -0.11 -0.02    -0.248 N 
DOCKED: ATOM     27  N   UNL d   1     -12.098 -11.893  -3.338 -0.17 -0.03    -0.248 N 
DOCKED: ATOM     28  N   UNL d   1     -10.837 -13.532  -1.254 -0.04 -0.10    -0.248 N 
DOCKED: ATOM     29 FE   UNL d   1     -12.574 -13.414  -2.304 -0.06 +0.00    +0.000 Fe
DOCKED: ENDROOT
DOCKED: BRANCH   6  30
DOCKED: ATOM     30  C   UNL d   1     -12.441 -18.024   1.182 -0.03 +0.01    +0.052 C 
DOCKED: BRANCH  30  31
DOCKED: ATOM     31  C   UNL d   1     -11.608 -19.065   0.434 -0.00 +0.03    +0.115 C 
DOCKED: BRANCH  31  32
DOCKED: ATOM     32  C   UNL d   1     -11.567 -18.809  -1.057 -0.00 +0.04    +0.139 C 
DOCKED: ATOM     33  O   UNL d   1     -12.324 -19.424  -1.793 +0.01 -0.17    -0.650 OA
DOCKED: BRANCH  32  34
DOCKED: ATOM     34  O   UNL d   1     -10.749 -17.880  -1.604 +0.03 -0.29    -0.776 OA
DOCKED: ATOM     35  H   UNL d   1     -10.745 -17.642  -2.541 +0.02 +0.07    +0.167 HD
DOCKED: ENDBRANCH  32  34
DOCKED: ENDBRANCH  31  32
DOCKED: ENDBRANCH  30  31
DOCKED: ENDBRANCH   6  30
DOCKED: BRANCH  29  36
DOCKED: ATOM     36  C   UNL d   1     -11.829 -14.757  -3.732 -0.10 +0.05    +0.190 C 
DOCKED: BRANCH  36  37
DOCKED: ATOM     37  O   UNL d   1     -11.355 -16.063  -3.893 -0.02 -0.14    -0.399 OA
DOCKED: ATOM     38  H   UNL d   1     -11.532 -16.509  -3.018 +0.03 +0.07    +0.209 HD
DOCKED: ENDBRANCH  36  37
DOCKED: ENDBRANCH  29  36
DOCKED: BRANCH  22  39
DOCKED: ATOM     39  C   UNL d   1      -8.109 -14.769   0.976 -0.12 +0.06    +0.052 C 
DOCKED: BRANCH  39  40
DOCKED: ATOM     40  C   UNL d   1      -7.460 -15.989   0.302 -0.06 +0.13    +0.115 C 
DOCKED: BRANCH  40  41
DOCKED: ATOM     41  C   UNL d   1      -6.177 -15.683  -0.442 -0.11 +0.24    +0.139 C 
DOCKED: ATOM     42  O   UNL d   1      -5.355 -14.934   0.066 -0.55 -1.55    -0.650 OA
DOCKED: BRANCH  41  43
DOCKED: ATOM     43  O   UNL d   1      -5.876 -16.284  -1.615 -0.24 -1.67    -0.776 OA
DOCKED: ATOM     44  H   UNL d   1      -6.239 -17.143  -1.866 +0.01 +0.24    +0.167 HD
DOCKED: ENDBRANCH  41  43
DOCKED: ENDBRANCH  40  41
DOCKED: ENDBRANCH  39  40
DOCKED: ENDBRANCH  22  39
DOCKED: BRANCH  12  45
DOCKED: ATOM     45  C   UNL d   1     -16.994 -12.160  -5.376 -0.12 +0.00    +0.004 C 
DOCKED: ATOM     46  C   UNL d   1     -17.359 -10.884  -5.284 -0.22 +0.00    +0.012 C 
DOCKED: ENDBRANCH  12  45
DOCKED: BRANCH  17  47
DOCKED: ATOM     47  C   UNL d   1      -9.667  -9.523  -4.702 -0.38 +0.00    +0.004 C 
DOCKED: ATOM     48  C   UNL d   1      -9.256  -8.464  -4.001 -0.55 +0.00    +0.012 C 
DOCKED: ENDBRANCH  17  47
DOCKED: TORSDOF 12
DOCKED: TER
DOCKED: ENDMDL
________________________________________________________________________________


	BEGINNING GENETIC ALGORITHM DOCKING 5 of 100
Run: 5 Seed: 1928462456 987055713 [ Run 5 of 100 GA/GALS ]
Beginning LAMARCKIAN GENETIC ALGORITHM (LGA), with a maximum of 25000000 energy evaluations.

Final-Value: -12.783


	FINAL GENETIC ALGORITHM DOCKED STATE
	_______________________________________________


Detailed state:  trans 0.038 -15.241 -2.142 quatxyzw 0.386776 -0.031754 -0.392669 0.833791 center 8.781 34.984 -0.736 ntor 12 49.8908 158.1511 -2.2313 127.6291 135.5995 119.5369 21.5190 -139.5717 -109.3464 43.4153 154.2093 -47.5980
State:	  0.038 -15.241  -2.142   0.701 -0.058 -0.711 67.020     49.89  158.15   -2.23  127.63  135.60  119.54   21.52 -139.57 -109.35   43.42  154.21  -47.60

DOCKED: MODEL        5
DOCKED: USER    Run = 5
DOCKED: USER    DPF = D:/Protein_go_brrr/autodock/final/AncA/heme_Co/dock.dpf
DOCKED: USER  
DOCKED: USER    Estimated Free Energy of Binding    =   -8.40 kcal/mol  [=(1)+(2)+(3)-(4)]
DOCKED: USER    Estimated Inhibition Constant, Ki   =  698.33 nM (nanomolar)  [Temperature = 298.15 K]
DOCKED: USER    
DOCKED: USER    (1) Final Intermolecular Energy     =  -11.98 kcal/mol
DOCKED: USER        vdW + Hbond + desolv Energy     =   -7.12 kcal/mol
DOCKED: USER        Electrostatic Energy            =   -4.86 kcal/mol
DOCKED: USER    (2) Final Total Internal Energy     =   -0.81 kcal/mol
DOCKED: USER    (3) Torsional Free Energy           =   +3.58 kcal/mol
DOCKED: USER    (4) Unbound System's Energy  [=(2)] =   -0.81 kcal/mol
DOCKED: USER    
DOCKED: USER    
DOCKED: USER    NEWDPF move heme_Co_opt.pdbqt
DOCKED: USER    NEWDPF about 8.781000 34.984000 -0.736000
DOCKED: USER    NEWDPF tran0 0.038257 -15.241248 -2.141512
DOCKED: USER    NEWDPF quaternion0 0.386776 -0.031754 -0.392669 0.833791
DOCKED: USER    NEWDPF axisangle0 0.700578 -0.057518 -0.711254 67.019705
DOCKED: USER    NEWDPF quat0 0.700578 -0.057518 -0.711254 67.019705
DOCKED: USER    NEWDPF dihe0 49.89 158.15 -2.23 127.63 135.60 119.54 21.52 -139.57 -109.35 43.42 154.21 -47.60 
DOCKED: USER  keepresnum = 1 
DOCKED: USER  
DOCKED: REMARK  12 active torsions:
DOCKED: REMARK  status: ('A' for Active; 'I' for Inactive)
DOCKED: REMARK    1  A    between atoms: C_6  and  C_10 
DOCKED: REMARK    2  A    between atoms: C_10  and  C_11 
DOCKED: REMARK    3  A    between atoms: C_11  and  C_12 
DOCKED: REMARK    4  A    between atoms: C_12  and  O_14 
DOCKED: REMARK    5  A    between atoms: C_17  and  C_20 
DOCKED: REMARK    6  A    between atoms: C_24  and  C_27 
DOCKED: REMARK    7  A    between atoms: C_31  and  C_34 
DOCKED: REMARK    8  A    between atoms: C_34  and  C_35 
DOCKED: REMARK    9  A    between atoms: C_35  and  C_36 
DOCKED: REMARK   10  A    between atoms: C_36  and  O_38 
DOCKED: REMARK   11  A    between atoms: FE_43  and  C_44 
DOCKED: REMARK   12  A    between atoms: C_44  and  O_45 
DOCKED: USER                              x       y       z     vdW  Elec       q    Type
DOCKED: USER                           _______ _______ _______ _____ _____    ______ ____
DOCKED: ROOT
DOCKED: ATOM      1  C   UNL d   1      -1.422 -16.834  -2.355 -0.06 +0.07    +0.064 A 
DOCKED: ATOM      2  C   UNL d   1       0.317 -14.583   1.456 -0.13 +0.04    +0.064 C 
DOCKED: ATOM      3  C   UNL d   1       3.370 -12.170  -1.317 -0.18 +0.01    +0.064 A 
DOCKED: ATOM      4  C   UNL d   1       1.348 -14.172  -5.263 -0.27 +0.03    +0.064 A 
DOCKED: ATOM      5  C   UNL d   1      -1.146 -16.423  -1.106 -0.05 +0.06    +0.066 A 
DOCKED: ATOM      6  C   UNL d   1      -1.893 -16.858   0.006 -0.06 -0.02    -0.021 A 
DOCKED: ATOM      7  C   UNL d   1      -1.399 -16.184   1.106 -0.08 -0.02    -0.025 A 
DOCKED: ATOM      8  C   UNL d   1      -0.362 -15.380   0.621 -0.09 +0.05    +0.066 A 
DOCKED: ATOM      9  C   UNL d   1      -1.875 -16.283   2.563 +0.05 +0.06    +0.051 C 
DOCKED: ATOM     10  C   UNL d   1       1.415 -13.741   1.053 -0.12 +0.03    +0.066 A 
DOCKED: ATOM     11  C   UNL d   1       2.257 -12.989   1.901 -0.17 -0.01    -0.021 A 
DOCKED: ATOM     12  C   UNL d   1       3.141 -12.298   1.066 -0.21 +0.00    +0.000 A 
DOCKED: ATOM     13  C   UNL d   1       2.782 -12.688  -0.224 -0.14 +0.02    +0.070 A 
DOCKED: ATOM     14  C   UNL d   1       2.262 -13.018   3.407 -0.19 +0.02    +0.052 C 
DOCKED: ATOM     15  C   UNL d   1       3.090 -12.419  -2.717 -0.16 +0.02    +0.066 A 
DOCKED: ATOM     16  C   UNL d   1       3.637 -11.742  -3.798 -0.27 -0.00    -0.021 A 
DOCKED: ATOM     17  C   UNL d   1       3.055 -12.314  -4.939 -0.32 +0.00    +0.000 A 
DOCKED: ATOM     18  C   UNL d   1       2.209 -13.310  -4.462 -0.21 +0.03    +0.070 A 
DOCKED: ATOM     19  C   UNL d   1       4.649 -10.621  -3.711 -0.41 +0.01    +0.052 C 
DOCKED: ATOM     20  C   UNL d   1       0.455 -15.087  -4.818 -0.18 +0.04    +0.066 A 
DOCKED: ATOM     21  C   UNL d   1      -0.343 -15.830  -5.685 -0.24 -0.02    -0.025 A 
DOCKED: ATOM     22  C   UNL d   1      -1.131 -16.628  -4.876 -0.15 -0.02    -0.021 A 
DOCKED: ATOM     23  C   UNL d   1      -0.781 -16.320  -3.544 -0.10 +0.06    +0.066 A 
DOCKED: ATOM     24  C   UNL d   1      -0.368 -15.770  -7.210 -0.25 +0.03    +0.051 C 
DOCKED: ATOM     25  N   UNL d   1      -0.180 -15.512  -0.745 -0.02 -0.17    -0.248 N 
DOCKED: ATOM     26  N   UNL d   1       1.776 -13.603  -0.228 -0.04 -0.10    -0.248 N 
DOCKED: ATOM     27  N   UNL d   1       2.233 -13.323  -3.134 -0.06 -0.09    -0.248 N 
DOCKED: ATOM     28  N   UNL d   1       0.177 -15.386  -3.504 -0.05 -0.18    -0.248 N 
DOCKED: ATOM     29 FE   UNL d   1       1.097 -14.355  -2.013 -0.02 +0.00    +0.000 Fe
DOCKED: ENDROOT
DOCKED: BRANCH   6  30
DOCKED: ATOM     30  C   UNL d   1      -3.079 -17.816  -0.013 -0.05 +0.05    +0.052 C 
DOCKED: BRANCH  30  31
DOCKED: ATOM     31  C   UNL d   1      -4.319 -17.148   0.580 -0.07 +0.16    +0.115 C 
DOCKED: BRANCH  31  32
DOCKED: ATOM     32  C   UNL d   1      -4.853 -16.037  -0.299 -0.07 +0.26    +0.139 C 
DOCKED: ATOM     33  O   UNL d   1      -4.717 -14.875   0.053 -0.45 -1.58    -0.650 OA
DOCKED: BRANCH  32  34
DOCKED: ATOM     34  O   UNL d   1      -5.438 -16.286  -1.493 -0.06 -1.78    -0.776 OA
DOCKED: ATOM     35  H   UNL d   1      -6.102 -16.974  -1.641 +0.01 +0.26    +0.167 HD
DOCKED: ENDBRANCH  32  34
DOCKED: ENDBRANCH  31  32
DOCKED: ENDBRANCH  30  31
DOCKED: ENDBRANCH   6  30
DOCKED: BRANCH  29  36
DOCKED: ATOM     36  C   UNL d   1      -0.425 -12.913  -2.040 -0.16 +0.13    +0.190 C 
DOCKED: BRANCH  36  37
DOCKED: ATOM     37  O   UNL d   1      -1.815 -12.760  -2.036 -0.15 -0.44    -0.399 OA
DOCKED: ATOM     38  H   UNL d   1      -2.140 -13.393  -1.337 +0.07 +0.27    +0.209 HD
DOCKED: ENDBRANCH  36  37
DOCKED: ENDBRANCH  29  36
DOCKED: BRANCH  22  39
DOCKED: ATOM     39  C   UNL d   1      -2.206 -17.582  -5.361 -0.15 +0.06    +0.052 C 
DOCKED: BRANCH  39  40
DOCKED: ATOM     40  C   UNL d   1      -1.636 -18.556  -6.405 -0.10 +0.10    +0.115 C 
DOCKED: BRANCH  40  41
DOCKED: ATOM     41  C   UNL d   1      -2.585 -18.883  -7.539 -0.07 +0.21    +0.139 C 
DOCKED: ATOM     42  O   UNL d   1      -3.706 -18.395  -7.540 -0.37 -1.40    -0.650 OA
DOCKED: BRANCH  41  43
DOCKED: ATOM     43  O   UNL d   1      -2.197 -19.629  -8.597 -0.12 -1.25    -0.776 OA
DOCKED: ATOM     44  H   UNL d   1      -1.323 -20.036  -8.653 +0.03 +0.16    +0.167 HD
DOCKED: ENDBRANCH  41  43
DOCKED: ENDBRANCH  40  41
DOCKED: ENDBRANCH  39  40
DOCKED: ENDBRANCH  22  39
DOCKED: BRANCH  12  45
DOCKED: ATOM     45  C   UNL d   1       4.289 -11.335   1.339 -0.23 +0.00    +0.004 C 
DOCKED: ATOM     46  C   UNL d   1       5.583 -11.425   1.045 -0.24 +0.00    +0.012 C 
DOCKED: ENDBRANCH  12  45
DOCKED: BRANCH  17  47
DOCKED: ATOM     47  C   UNL d   1       3.215 -11.947  -6.378 -0.20 +0.00    +0.004 C 
DOCKED: ATOM     48  C   UNL d   1       3.790 -12.744  -7.282 -0.55 +0.00    +0.012 C 
DOCKED: ENDBRANCH  17  47
DOCKED: TORSDOF 12
DOCKED: TER
DOCKED: ENDMDL
________________________________________________________________________________


	BEGINNING GENETIC ALGORITHM DOCKING 6 of 100
Run: 6 Seed: 362539233 108111571 [ Run 6 of 100 GA/GALS ]
Beginning LAMARCKIAN GENETIC ALGORITHM (LGA), with a maximum of 25000000 energy evaluations.

Final-Value: -12.519


	FINAL GENETIC ALGORITHM DOCKED STATE
	_______________________________________________


Detailed state:  trans -0.742 -15.399 -1.769 quatxyzw -0.343444 -0.073319 0.350591 -0.868192 center 8.781 34.984 -0.736 ntor 12 -134.4469 122.9846 43.7558 -41.6134 151.5545 131.2996 21.9101 136.1727 159.3815 15.8572 -169.2468 -8.5870
State:	 -0.742 -15.399  -1.769  -0.692 -0.148  0.707 -59.502   -134.45  122.98   43.76  -41.61  151.55  131.30   21.91  136.17  159.38   15.86 -169.25   -8.59

DOCKED: MODEL        6
DOCKED: USER    Run = 6
DOCKED: USER    DPF = D:/Protein_go_brrr/autodock/final/AncA/heme_Co/dock.dpf
DOCKED: USER  
DOCKED: USER    Estimated Free Energy of Binding    =   -7.05 kcal/mol  [=(1)+(2)+(3)-(4)]
DOCKED: USER    Estimated Inhibition Constant, Ki   =    6.77 uM (micromolar)  [Temperature = 298.15 K]
DOCKED: USER    
DOCKED: USER    (1) Final Intermolecular Energy     =  -10.63 kcal/mol
DOCKED: USER        vdW + Hbond + desolv Energy     =   -6.40 kcal/mol
DOCKED: USER        Electrostatic Energy            =   -4.23 kcal/mol
DOCKED: USER    (2) Final Total Internal Energy     =   -1.89 kcal/mol
DOCKED: USER    (3) Torsional Free Energy           =   +3.58 kcal/mol
DOCKED: USER    (4) Unbound System's Energy  [=(2)] =   -1.89 kcal/mol
DOCKED: USER    
DOCKED: USER    
DOCKED: USER    NEWDPF move heme_Co_opt.pdbqt
DOCKED: USER    NEWDPF about 8.781000 34.984000 -0.736000
DOCKED: USER    NEWDPF tran0 -0.741772 -15.399282 -1.769458
DOCKED: USER    NEWDPF quaternion0 -0.343444 -0.073319 0.350591 -0.868192
DOCKED: USER    NEWDPF axisangle0 -0.692107 -0.147753 0.706510 -59.501625
DOCKED: USER    NEWDPF quat0 -0.692107 -0.147753 0.706510 -59.501625
DOCKED: USER    NEWDPF dihe0 -134.45 122.98 43.76 -41.61 151.55 131.30 21.91 136.17 159.38 15.86 -169.25 -8.59 
DOCKED: USER  keepresnum = 1 
DOCKED: USER  
DOCKED: REMARK  12 active torsions:
DOCKED: REMARK  status: ('A' for Active; 'I' for Inactive)
DOCKED: REMARK    1  A    between atoms: C_6  and  C_10 
DOCKED: REMARK    2  A    between atoms: C_10  and  C_11 
DOCKED: REMARK    3  A    between atoms: C_11  and  C_12 
DOCKED: REMARK    4  A    between atoms: C_12  and  O_14 
DOCKED: REMARK    5  A    between atoms: C_17  and  C_20 
DOCKED: REMARK    6  A    between atoms: C_24  and  C_27 
DOCKED: REMARK    7  A    between atoms: C_31  and  C_34 
DOCKED: REMARK    8  A    between atoms: C_34  and  C_35 
DOCKED: REMARK    9  A    between atoms: C_35  and  C_36 
DOCKED: REMARK   10  A    between atoms: C_36  and  O_38 
DOCKED: REMARK   11  A    between atoms: FE_43  and  C_44 
DOCKED: REMARK   12  A    between atoms: C_44  and  O_45 
DOCKED: USER                              x       y       z     vdW  Elec       q    Type
DOCKED: USER                           _______ _______ _______ _____ _____    ______ ____
DOCKED: ROOT
DOCKED: ATOM      1  C   UNL d   1      -2.146 -16.879  -2.513 +0.05 +0.09    +0.064 A 
DOCKED: ATOM      2  C   UNL d   1      -1.100 -15.393   1.880 +0.01 +0.06    +0.064 C 
DOCKED: ATOM      3  C   UNL d   1       2.401 -12.637   0.155 -0.16 +0.02    +0.064 A 
DOCKED: ATOM      4  C   UNL d   1       1.101 -13.843  -4.375 -0.20 +0.03    +0.064 A 
DOCKED: ATOM      5  C   UNL d   1      -2.094 -16.703  -1.183 -0.07 +0.07    +0.066 A 
DOCKED: ATOM      6  C   UNL d   1      -3.026 -17.301  -0.313 -0.07 -0.02    -0.021 A 
DOCKED: ATOM      7  C   UNL d   1      -2.732 -16.848   0.959 -0.08 -0.03    -0.025 A 
DOCKED: ATOM      8  C   UNL d   1      -1.623 -16.007   0.812 -0.08 +0.07    +0.066 A 
DOCKED: ATOM      9  C   UNL d   1      -3.457 -17.185   2.270 +0.04 +0.07    +0.051 C 
DOCKED: ATOM     10  C   UNL d   1       0.055 -14.531   1.831 -0.09 +0.04    +0.066 A 
DOCKED: ATOM     11  C   UNL d   1       0.737 -13.969   2.932 -0.14 -0.01    -0.021 A 
DOCKED: ATOM     12  C   UNL d   1       1.755 -13.174   2.400 -0.19 +0.00    +0.000 A 
DOCKED: ATOM     13  C   UNL d   1       1.628 -13.318   1.019 -0.14 +0.03    +0.070 A 
DOCKED: ATOM     14  C   UNL d   1       0.476 -14.263   4.387 -0.18 +0.03    +0.052 C 
DOCKED: ATOM     15  C   UNL d   1       2.372 -12.626  -1.294 -0.14 +0.02    +0.066 A 
DOCKED: ATOM     16  C   UNL d   1       3.102 -11.788  -2.126 -0.22 -0.01    -0.021 A 
DOCKED: ATOM     17  C   UNL d   1       2.728 -12.131  -3.433 -0.24 +0.00    +0.000 A 
DOCKED: ATOM     18  C   UNL d   1       1.809 -13.166  -3.296 -0.15 +0.03    +0.070 A 
DOCKED: ATOM     19  C   UNL d   1       4.086 -10.736  -1.666 -0.03 +0.01    +0.052 C 
DOCKED: ATOM     20  C   UNL d   1       0.140 -14.792  -4.262 -0.17 +0.05    +0.066 A 
DOCKED: ATOM     21  C   UNL d   1      -0.494 -15.343  -5.373 -0.26 -0.02    -0.025 A 
DOCKED: ATOM     22  C   UNL d   1      -1.415 -16.243  -4.868 -0.12 -0.02    -0.021 A 
DOCKED: ATOM     23  C   UNL d   1      -1.305 -16.186  -3.462 -0.08 +0.08    +0.066 A 
DOCKED: ATOM     24  C   UNL d   1      -0.250 -15.015  -6.843 -0.36 +0.03    +0.051 C 
DOCKED: ATOM     25  N   UNL d   1      -1.203 -15.903  -0.503 -0.04 -0.22    -0.248 N 
DOCKED: ATOM     26  N   UNL d   1       0.636 -14.183   0.678 -0.07 -0.14    -0.248 N 
DOCKED: ATOM     27  N   UNL d   1       1.599 -13.413  -2.008 -0.04 -0.10    -0.248 N 
DOCKED: ATOM     28  N   UNL d   1      -0.366 -15.307  -3.091 -0.06 -0.21    -0.248 N 
DOCKED: ATOM     29 FE   UNL d   1       0.280 -14.586  -1.304 -0.02 +0.00    +0.000 Fe
DOCKED: ENDROOT
DOCKED: BRANCH   6  30
DOCKED: ATOM     30  C   UNL d   1      -4.193 -18.200  -0.708 -0.04 +0.05    +0.052 C 
DOCKED: BRANCH  30  31
DOCKED: ATOM     31  C   UNL d   1      -5.413 -17.361  -1.085 -0.07 +0.16    +0.115 C 
DOCKED: BRANCH  31  32
DOCKED: ATOM     32  C   UNL d   1      -5.370 -15.974  -0.480 -0.11 +0.26    +0.139 C 
DOCKED: ATOM     33  O   UNL d   1      -6.124 -15.696   0.440 -0.41 -1.30    -0.650 OA
DOCKED: BRANCH  32  34
DOCKED: ATOM     34  O   UNL d   1      -4.484 -15.038  -0.894 +0.06 -1.89    -0.776 OA
DOCKED: ATOM     35  H   UNL d   1      -4.006 -14.442  -0.301 +0.02 +0.35    +0.167 HD
DOCKED: ENDBRANCH  32  34
DOCKED: ENDBRANCH  31  32
DOCKED: ENDBRANCH  30  31
DOCKED: ENDBRANCH   6  30
DOCKED: BRANCH  29  36
DOCKED: ATOM     36  C   UNL d   1      -1.209 -13.111  -1.334 -0.18 +0.17    +0.190 C 
DOCKED: BRANCH  36  37
DOCKED: ATOM     37  O   UNL d   1      -2.595 -12.927  -1.371 -0.23 -0.55    -0.399 OA
DOCKED: ATOM     38  H   UNL d   1      -2.978 -13.837  -1.225 +0.05 +0.38    +0.209 HD
DOCKED: ENDBRANCH  36  37
DOCKED: ENDBRANCH  29  36
DOCKED: BRANCH  22  39
DOCKED: ATOM     39  C   UNL d   1      -2.390 -17.060  -5.694 -0.12 +0.06    +0.052 C 
DOCKED: BRANCH  39  40
DOCKED: ATOM     40  C   UNL d   1      -1.795 -18.437  -6.032 -0.10 +0.11    +0.115 C 
DOCKED: BRANCH  40  41
DOCKED: ATOM     41  C   UNL d   1      -2.586 -19.227  -7.052 -0.08 +0.19    +0.139 C 
DOCKED: ATOM     42  O   UNL d   1      -3.523 -19.919  -6.678 -0.13 -1.01    -0.650 OA
DOCKED: BRANCH  41  43
DOCKED: ATOM     43  O   UNL d   1      -2.341 -19.122  -8.377 -0.31 -1.32    -0.776 OA
DOCKED: ATOM     44  H   UNL d   1      -1.453 -19.203  -8.749 +0.05 +0.17    +0.167 HD
DOCKED: ENDBRANCH  41  43
DOCKED: ENDBRANCH  40  41
DOCKED: ENDBRANCH  39  40
DOCKED: ENDBRANCH  22  39
DOCKED: BRANCH  12  45
DOCKED: ATOM     45  C   UNL d   1       2.840 -12.313   3.036 -0.26 +0.00    +0.004 C 
DOCKED: ATOM     46  C   UNL d   1       2.762 -11.378   3.978 -0.36 +0.00    +0.012 C 
DOCKED: ENDBRANCH  12  45
DOCKED: BRANCH  17  47
DOCKED: ATOM     47  C   UNL d   1       3.141 -11.523  -4.734 -0.40 +0.00    +0.004 C 
DOCKED: ATOM     48  C   UNL d   1       3.587 -12.234  -5.772 -0.45 +0.00    +0.012 C 
DOCKED: ENDBRANCH  17  47
DOCKED: TORSDOF 12
DOCKED: TER
DOCKED: ENDMDL
________________________________________________________________________________


	BEGINNING GENETIC ALGORITHM DOCKING 7 of 100
Run: 7 Seed: 1246390891 1991737033 [ Run 7 of 100 GA/GALS ]
Beginning LAMARCKIAN GENETIC ALGORITHM (LGA), with a maximum of 25000000 energy evaluations.

Final-Value: -12.600


	FINAL GENETIC ALGORITHM DOCKED STATE
	_______________________________________________


Detailed state:  trans -0.295 -15.499 -1.759 quatxyzw -0.851212 -0.250583 -0.396988 0.234622 center 8.781 34.984 -0.736 ntor 12 -24.0966 113.3895 21.6729 -4.6605 106.6519 129.3269 72.2303 129.1931 -43.6443 -134.7889 23.6110 -13.9157
State:	 -0.295 -15.499  -1.759  -0.876 -0.258 -0.408 152.861    -24.10  113.39   21.67   -4.66  106.65  129.33   72.23  129.19  -43.64 -134.79   23.61  -13.92

DOCKED: MODEL        7
DOCKED: USER    Run = 7
DOCKED: USER    DPF = D:/Protein_go_brrr/autodock/final/AncA/heme_Co/dock.dpf
DOCKED: USER  
DOCKED: USER    Estimated Free Energy of Binding    =   -8.17 kcal/mol  [=(1)+(2)+(3)-(4)]
DOCKED: USER    Estimated Inhibition Constant, Ki   =    1.02 uM (micromolar)  [Temperature = 298.15 K]
DOCKED: USER    
DOCKED: USER    (1) Final Intermolecular Energy     =  -11.75 kcal/mol
DOCKED: USER        vdW + Hbond + desolv Energy     =   -6.90 kcal/mol
DOCKED: USER        Electrostatic Energy            =   -4.86 kcal/mol
DOCKED: USER    (2) Final Total Internal Energy     =   -0.85 kcal/mol
DOCKED: USER    (3) Torsional Free Energy           =   +3.58 kcal/mol
DOCKED: USER    (4) Unbound System's Energy  [=(2)] =   -0.85 kcal/mol
DOCKED: USER    
DOCKED: USER    
DOCKED: USER    NEWDPF move heme_Co_opt.pdbqt
DOCKED: USER    NEWDPF about 8.781000 34.984000 -0.736000
DOCKED: USER    NEWDPF tran0 -0.295249 -15.499296 -1.758551
DOCKED: USER    NEWDPF quaternion0 -0.851212 -0.250583 -0.396988 0.234622
DOCKED: USER    NEWDPF axisangle0 -0.875654 -0.257778 -0.408387 152.861276
DOCKED: USER    NEWDPF quat0 -0.875654 -0.257778 -0.408387 152.861276
DOCKED: USER    NEWDPF dihe0 -24.10 113.39 21.67 -4.66 106.65 129.33 72.23 129.19 -43.64 -134.79 23.61 -13.92 
DOCKED: USER  keepresnum = 1 
DOCKED: USER  
DOCKED: REMARK  12 active torsions:
DOCKED: REMARK  status: ('A' for Active; 'I' for Inactive)
DOCKED: REMARK    1  A    between atoms: C_6  and  C_10 
DOCKED: REMARK    2  A    between atoms: C_10  and  C_11 
DOCKED: REMARK    3  A    between atoms: C_11  and  C_12 
DOCKED: REMARK    4  A    between atoms: C_12  and  O_14 
DOCKED: REMARK    5  A    between atoms: C_17  and  C_20 
DOCKED: REMARK    6  A    between atoms: C_24  and  C_27 
DOCKED: REMARK    7  A    between atoms: C_31  and  C_34 
DOCKED: REMARK    8  A    between atoms: C_34  and  C_35 
DOCKED: REMARK    9  A    between atoms: C_35  and  C_36 
DOCKED: REMARK   10  A    between atoms: C_36  and  O_38 
DOCKED: REMARK   11  A    between atoms: FE_43  and  C_44 
DOCKED: REMARK   12  A    between atoms: C_44  and  O_45 
DOCKED: USER                              x       y       z     vdW  Elec       q    Type
DOCKED: USER                           _______ _______ _______ _____ _____    ______ ____
DOCKED: ROOT
DOCKED: ATOM      1  C   UNL d   1      -1.932 -16.896  -2.052 -0.06 +0.08    +0.064 A 
DOCKED: ATOM      2  C   UNL d   1       1.096 -14.840  -5.087 -0.24 +0.04    +0.064 C 
DOCKED: ATOM      3  C   UNL d   1       2.957 -12.246  -1.532 -0.17 +0.02    +0.064 A 
DOCKED: ATOM      4  C   UNL d   1       0.139 -14.610   1.651 -0.11 +0.04    +0.064 A 
DOCKED: ATOM      5  C   UNL d   1      -1.266 -16.499  -3.148 -0.08 +0.07    +0.066 A 
DOCKED: ATOM      6  C   UNL d   1      -1.480 -17.091  -4.408 -0.12 -0.02    -0.021 A 
DOCKED: ATOM      7  C   UNL d   1      -0.583 -16.506  -5.281 -0.16 -0.02    -0.025 A 
DOCKED: ATOM      8  C   UNL d   1       0.129 -15.572  -4.520 -0.14 +0.05    +0.066 A 
DOCKED: ATOM      9  C   UNL d   1      -0.390 -16.806  -6.775 -0.26 +0.03    +0.051 C 
DOCKED: ATOM     10  C   UNL d   1       1.863 -13.837  -4.391 -0.18 +0.03    +0.066 A 
DOCKED: ATOM     11  C   UNL d   1       2.793 -12.940  -4.960 -0.28 -0.01    -0.021 A 
DOCKED: ATOM     12  C   UNL d   1       3.317 -12.193  -3.902 -0.25 +0.00    +0.000 A 
DOCKED: ATOM     13  C   UNL d   1       2.661 -12.679  -2.771 -0.14 +0.02    +0.070 A 
DOCKED: ATOM     14  C   UNL d   1       3.074 -12.760  -6.430 -0.43 +0.02    +0.052 C 
DOCKED: ATOM     15  C   UNL d   1       2.419 -12.673  -0.256 -0.15 +0.02    +0.066 A 
DOCKED: ATOM     16  C   UNL d   1       2.871 -12.288   0.998 -0.22 -0.01    -0.021 A 
DOCKED: ATOM     17  C   UNL d   1       2.063 -12.969   1.920 -0.19 +0.00    +0.000 A 
DOCKED: ATOM     18  C   UNL d   1       1.167 -13.705   1.152 -0.13 +0.03    +0.070 A 
DOCKED: ATOM     19  C   UNL d   1       4.009 -11.327   1.263 -0.22 +0.01    +0.052 C 
DOCKED: ATOM     20  C   UNL d   1      -0.686 -15.402   0.924 -0.10 +0.05    +0.066 A 
DOCKED: ATOM     21  C   UNL d   1      -1.610 -16.257   1.519 -0.07 -0.02    -0.025 A 
DOCKED: ATOM     22  C   UNL d   1      -2.242 -16.908   0.476 -0.07 -0.02    -0.021 A 
DOCKED: ATOM     23  C   UNL d   1      -1.659 -16.422  -0.714 -0.07 +0.07    +0.066 A 
DOCKED: ATOM     24  C   UNL d   1      -1.866 -16.461   3.010 +0.05 +0.05    +0.051 C 
DOCKED: ATOM     25  N   UNL d   1      -0.278 -15.542  -3.197 -0.06 -0.21    -0.248 N 
DOCKED: ATOM     26  N   UNL d   1       1.742 -13.634  -3.075 -0.06 -0.11    -0.248 N 
DOCKED: ATOM     27  N   UNL d   1       1.428 -13.528  -0.139 -0.05 -0.11    -0.248 N 
DOCKED: ATOM     28  N   UNL d   1      -0.715 -15.512  -0.447 -0.04 -0.20    -0.248 N 
DOCKED: ATOM     29 FE   UNL d   1       0.623 -14.477  -1.575 -0.02 +0.00    +0.000 Fe
DOCKED: ENDROOT
DOCKED: BRANCH   6  30
DOCKED: ATOM     30  C   UNL d   1      -2.449 -18.224  -4.728 -0.11 +0.05    +0.052 C 
DOCKED: BRANCH  30  31
DOCKED: ATOM     31  C   UNL d   1      -3.643 -17.700  -5.525 -0.16 +0.16    +0.115 C 
DOCKED: BRANCH  31  32
DOCKED: ATOM     32  C   UNL d   1      -3.983 -18.585  -6.705 -0.08 +0.23    +0.139 C 
DOCKED: ATOM     33  O   UNL d   1      -3.131 -18.811  -7.552 -0.47 -1.28    -0.650 OA
DOCKED: BRANCH  32  34
DOCKED: ATOM     34  O   UNL d   1      -5.192 -19.180  -6.832 +0.03 -1.55    -0.776 OA
DOCKED: ATOM     35  H   UNL d   1      -5.756 -19.428  -6.087 +0.02 +0.23    +0.167 HD
DOCKED: ENDBRANCH  32  34
DOCKED: ENDBRANCH  31  32
DOCKED: ENDBRANCH  30  31
DOCKED: ENDBRANCH   6  30
DOCKED: BRANCH  29  36
DOCKED: ATOM     36  C   UNL d   1       1.993 -16.058  -1.445 -0.01 +0.08    +0.190 C 
DOCKED: BRANCH  36  37
DOCKED: ATOM     37  O   UNL d   1       2.153 -17.420  -1.724 +0.00 -0.17    -0.399 OA
DOCKED: ATOM     38  H   UNL d   1       1.286 -17.701  -2.131 +0.01 +0.10    +0.209 HD
DOCKED: ENDBRANCH  36  37
DOCKED: ENDBRANCH  29  36
DOCKED: BRANCH  22  39
DOCKED: ATOM     39  C   UNL d   1      -3.301 -17.985   0.622 -0.05 +0.05    +0.052 C 
DOCKED: BRANCH  39  40
DOCKED: ATOM     40  C   UNL d   1      -4.701 -17.358   0.725 -0.06 +0.15    +0.115 C 
DOCKED: BRANCH  40  41
DOCKED: ATOM     41  C   UNL d   1      -4.924 -16.173  -0.191 -0.08 +0.25    +0.139 C 
DOCKED: ATOM     42  O   UNL d   1      -4.709 -15.044   0.228 -0.48 -1.59    -0.650 OA
DOCKED: BRANCH  41  43
DOCKED: ATOM     43  O   UNL d   1      -5.271 -16.333  -1.487 +0.03 -1.77    -0.776 OA
DOCKED: ATOM     44  H   UNL d   1      -5.765 -17.101  -1.801 +0.01 +0.27    +0.167 HD
DOCKED: ENDBRANCH  41  43
DOCKED: ENDBRANCH  40  41
DOCKED: ENDBRANCH  39  40
DOCKED: ENDBRANCH  22  39
DOCKED: BRANCH  12  45
DOCKED: ATOM     45  C   UNL d   1       4.342 -11.069  -3.832 -0.41 +0.00    +0.004 C 
DOCKED: ATOM     46  C   UNL d   1       5.206 -10.627  -4.743 -0.49 +0.00    +0.012 C 
DOCKED: ENDBRANCH  12  45
DOCKED: BRANCH  17  47
DOCKED: ATOM     47  C   UNL d   1       2.129 -12.993   3.412 -0.22 +0.00    +0.004 C 
DOCKED: ATOM     48  C   UNL d   1       1.550 -12.076   4.190 -0.38 +0.00    +0.012 C 
DOCKED: ENDBRANCH  17  47
DOCKED: TORSDOF 12
DOCKED: TER
DOCKED: ENDMDL
________________________________________________________________________________


	BEGINNING GENETIC ALGORITHM DOCKING 8 of 100
Run: 8 Seed: 523900745 1863009119 [ Run 8 of 100 GA/GALS ]
Beginning LAMARCKIAN GENETIC ALGORITHM (LGA), with a maximum of 25000000 energy evaluations.

Final-Value: -12.352


	FINAL GENETIC ALGORITHM DOCKED STATE
	_______________________________________________


Detailed state:  trans -0.510 -15.556 -2.614 quatxyzw 0.828692 0.249499 0.448576 -0.223160 center 8.781 34.984 -0.736 ntor 12 127.3097 99.8102 125.1018 -20.2965 57.0014 124.3034 -179.6888 154.2664 -87.8166 147.6710 21.3217 -3.3555
State:	 -0.510 -15.556  -2.614   0.850  0.256  0.460 -154.211    127.31   99.81  125.10  -20.30   57.00  124.30 -179.69  154.27  -87.82  147.67   21.32   -3.36

DOCKED: MODEL        8
DOCKED: USER    Run = 8
DOCKED: USER    DPF = D:/Protein_go_brrr/autodock/final/AncA/heme_Co/dock.dpf
DOCKED: USER  
DOCKED: USER    Estimated Free Energy of Binding    =   -7.93 kcal/mol  [=(1)+(2)+(3)-(4)]
DOCKED: USER    Estimated Inhibition Constant, Ki   =    1.53 uM (micromolar)  [Temperature = 298.15 K]
DOCKED: USER    
DOCKED: USER    (1) Final Intermolecular Energy     =  -11.51 kcal/mol
DOCKED: USER        vdW + Hbond + desolv Energy     =   -7.37 kcal/mol
DOCKED: USER        Electrostatic Energy            =   -4.14 kcal/mol
DOCKED: USER    (2) Final Total Internal Energy     =   -0.84 kcal/mol
DOCKED: USER    (3) Torsional Free Energy           =   +3.58 kcal/mol
DOCKED: USER    (4) Unbound System's Energy  [=(2)] =   -0.84 kcal/mol
DOCKED: USER    
DOCKED: USER    
DOCKED: USER    NEWDPF move heme_Co_opt.pdbqt
DOCKED: USER    NEWDPF about 8.781000 34.984000 -0.736000
DOCKED: USER    NEWDPF tran0 -0.509649 -15.556446 -2.613779
DOCKED: USER    NEWDPF quaternion0 0.828692 0.249499 0.448576 -0.223160
DOCKED: USER    NEWDPF axisangle0 0.850130 0.255953 0.460181 -154.210635
DOCKED: USER    NEWDPF quat0 0.850130 0.255953 0.460181 -154.210635
DOCKED: USER    NEWDPF dihe0 127.31 99.81 125.10 -20.30 57.00 124.30 -179.69 154.27 -87.82 147.67 21.32 -3.36 
DOCKED: USER  keepresnum = 1 
DOCKED: USER  
DOCKED: REMARK  12 active torsions:
DOCKED: REMARK  status: ('A' for Active; 'I' for Inactive)
DOCKED: REMARK    1  A    between atoms: C_6  and  C_10 
DOCKED: REMARK    2  A    between atoms: C_10  and  C_11 
DOCKED: REMARK    3  A    between atoms: C_11  and  C_12 
DOCKED: REMARK    4  A    between atoms: C_12  and  O_14 
DOCKED: REMARK    5  A    between atoms: C_17  and  C_20 
DOCKED: REMARK    6  A    between atoms: C_24  and  C_27 
DOCKED: REMARK    7  A    between atoms: C_31  and  C_34 
DOCKED: REMARK    8  A    between atoms: C_34  and  C_35 
DOCKED: REMARK    9  A    between atoms: C_35  and  C_36 
DOCKED: REMARK   10  A    between atoms: C_36  and  O_38 
DOCKED: REMARK   11  A    between atoms: FE_43  and  C_44 
DOCKED: REMARK   12  A    between atoms: C_44  and  O_45 
DOCKED: USER                              x       y       z     vdW  Elec       q    Type
DOCKED: USER                           _______ _______ _______ _____ _____    ______ ____
DOCKED: ROOT
DOCKED: ATOM      1  C   UNL d   1      -2.045 -17.007  -3.117 -0.01 +0.09    +0.064 A 
DOCKED: ATOM      2  C   UNL d   1       1.176 -14.716  -5.761 -0.31 +0.03    +0.064 C 
DOCKED: ATOM      3  C   UNL d   1       2.556 -12.183  -1.951 -0.18 +0.02    +0.064 A 
DOCKED: ATOM      4  C   UNL d   1      -0.457 -14.780   0.850 -0.11 +0.05    +0.064 A 
DOCKED: ATOM      5  C   UNL d   1      -1.292 -16.541  -4.127 -0.11 +0.07    +0.066 A 
DOCKED: ATOM      6  C   UNL d   1      -1.353 -17.094  -5.421 -0.15 -0.02    -0.021 A 
DOCKED: ATOM      7  C   UNL d   1      -0.400 -16.441  -6.179 -0.23 -0.02    -0.025 A 
DOCKED: ATOM      8  C   UNL d   1       0.190 -15.507  -5.319 -0.21 +0.04    +0.066 A 
DOCKED: ATOM      9  C   UNL d   1      -0.046 -16.675  -7.655 -0.26 +0.03    +0.051 C 
DOCKED: ATOM     10  C   UNL d   1       1.824 -13.709  -4.958 -0.24 +0.03    +0.066 A 
DOCKED: ATOM     11  C   UNL d   1       2.765 -12.754  -5.400 -0.33 -0.01    -0.021 A 
DOCKED: ATOM     12  C   UNL d   1       3.147 -12.026  -4.269 -0.29 +0.00    +0.000 A 
DOCKED: ATOM     13  C   UNL d   1       2.405 -12.581  -3.227 -0.18 +0.02    +0.070 A 
DOCKED: ATOM     14  C   UNL d   1       3.183 -12.508  -6.827 -0.31 +0.02    +0.052 C 
DOCKED: ATOM     15  C   UNL d   1       1.913 -12.680  -0.751 -0.15 +0.02    +0.066 A 
DOCKED: ATOM     16  C   UNL d   1       2.221 -12.325   0.555 -0.24 -0.01    -0.021 A 
DOCKED: ATOM     17  C   UNL d   1       1.356 -13.073   1.367 -0.20 +0.00    +0.000 A 
DOCKED: ATOM     18  C   UNL d   1       0.575 -13.816   0.488 -0.13 +0.04    +0.070 A 
DOCKED: ATOM     19  C   UNL d   1       3.283 -11.329   0.966 -0.31 +0.01    +0.052 C 
DOCKED: ATOM     20  C   UNL d   1      -1.169 -15.576   0.017 -0.09 +0.06    +0.066 A 
DOCKED: ATOM     21  C   UNL d   1      -2.109 -16.491   0.487 -0.09 -0.03    -0.025 A 
DOCKED: ATOM     22  C   UNL d   1      -2.604 -17.127  -0.636 -0.07 -0.02    -0.021 A 
DOCKED: ATOM     23  C   UNL d   1      -1.928 -16.573  -1.744 -0.07 +0.08    +0.066 A 
DOCKED: ATOM     24  C   UNL d   1      -2.503 -16.760   1.937 +0.05 +0.06    +0.051 C 
DOCKED: ATOM     25  N   UNL d   1      -0.347 -15.544  -4.043 -0.08 -0.21    -0.248 N 
DOCKED: ATOM     26  N   UNL d   1       1.564 -13.561  -3.654 -0.09 -0.11    -0.248 N 
DOCKED: ATOM     27  N   UNL d   1       0.954 -13.579  -0.763 -0.05 -0.12    -0.248 N 
DOCKED: ATOM     28  N   UNL d   1      -1.056 -15.636  -1.352 -0.05 -0.24    -0.248 N 
DOCKED: ATOM     29 FE   UNL d   1       0.339 -14.505  -2.304 -0.02 +0.00    +0.000 Fe
DOCKED: ENDROOT
DOCKED: BRANCH   6  30
DOCKED: ATOM     30  C   UNL d   1      -2.234 -18.253  -5.875 -0.15 +0.05    +0.052 C 
DOCKED: BRANCH  30  31
DOCKED: ATOM     31  C   UNL d   1      -3.398 -17.742  -6.724 -0.24 +0.16    +0.115 C 
DOCKED: BRANCH  31  32
DOCKED: ATOM     32  C   UNL d   1      -3.060 -17.697  -8.199 -0.09 +0.22    +0.139 C 
DOCKED: ATOM     33  O   UNL d   1      -2.585 -18.686  -8.737 -0.40 -1.17    -0.650 OA
DOCKED: BRANCH  32  34
DOCKED: ATOM     34  O   UNL d   1      -3.313 -16.607  -8.960 +0.13 -0.88    -0.776 OA
DOCKED: ATOM     35  H   UNL d   1      -2.642 -16.132  -9.469 +0.06 +0.11    +0.167 HD
DOCKED: ENDBRANCH  32  34
DOCKED: ENDBRANCH  31  32
DOCKED: ENDBRANCH  30  31
DOCKED: ENDBRANCH   6  30
DOCKED: BRANCH  29  36
DOCKED: ATOM     36  C   UNL d   1       1.758 -16.033  -2.089 -0.01 +0.09    +0.190 C 
DOCKED: BRANCH  36  37
DOCKED: ATOM     37  O   UNL d   1       1.976 -17.393  -2.331 +0.00 -0.18    -0.399 OA
DOCKED: ATOM     38  H   UNL d   1       1.074 -17.763  -2.546 +0.01 +0.11    +0.209 HD
DOCKED: ENDBRANCH  36  37
DOCKED: ENDBRANCH  29  36
DOCKED: BRANCH  22  39
DOCKED: ATOM     39  C   UNL d   1      -3.624 -18.251  -0.633 -0.03 +0.05    +0.052 C 
DOCKED: BRANCH  39  40
DOCKED: ATOM     40  C   UNL d   1      -5.034 -17.705  -0.915 -0.06 +0.14    +0.115 C 
DOCKED: BRANCH  40  41
DOCKED: ATOM     41  C   UNL d   1      -5.323 -16.363  -0.275 -0.10 +0.24    +0.139 C 
DOCKED: ATOM     42  O   UNL d   1      -5.402 -16.285   0.943 -0.27 -1.41    -0.650 OA
DOCKED: BRANCH  41  43
DOCKED: ATOM     43  O   UNL d   1      -5.411 -15.231  -1.008 -0.23 -1.90    -0.776 OA
DOCKED: ATOM     44  H   UNL d   1      -6.143 -14.608  -0.915 +0.03 +0.34    +0.167 HD
DOCKED: ENDBRANCH  41  43
DOCKED: ENDBRANCH  40  41
DOCKED: ENDBRANCH  39  40
DOCKED: ENDBRANCH  22  39
DOCKED: BRANCH  12  45
DOCKED: ATOM     45  C   UNL d   1       4.109 -10.865  -4.059 -0.44 +0.00    +0.004 C 
DOCKED: ATOM     46  C   UNL d   1       5.209 -10.520  -4.724 -0.49 +0.00    +0.012 C 
DOCKED: ENDBRANCH  12  45
DOCKED: BRANCH  17  47
DOCKED: ATOM     47  C   UNL d   1       1.274 -13.150   2.856 -0.25 +0.00    +0.004 C 
DOCKED: ATOM     48  C   UNL d   1       1.496 -12.109   3.662 -0.36 +0.00    +0.012 C 
DOCKED: ENDBRANCH  17  47
DOCKED: TORSDOF 12
DOCKED: TER
DOCKED: ENDMDL
________________________________________________________________________________


	BEGINNING GENETIC ALGORITHM DOCKING 9 of 100
Run: 9 Seed: 715927706 282163171 [ Run 9 of 100 GA/GALS ]
Beginning LAMARCKIAN GENETIC ALGORITHM (LGA), with a maximum of 25000000 energy evaluations.

Final-Value: -12.557


	FINAL GENETIC ALGORITHM DOCKED STATE
	_______________________________________________


Detailed state:  trans -0.642 -15.594 -2.032 quatxyzw 0.843737 0.223354 0.443190 -0.204459 center 8.781 34.984 -0.736 ntor 12 -33.6862 105.0052 -143.4843 38.5951 91.6317 133.2397 -179.1501 -52.8887 54.0081 -134.6024 147.3677 -24.3244
State:	 -0.642 -15.594  -2.032   0.862  0.228  0.453 -156.404    -33.69  105.01 -143.48   38.60   91.63  133.24 -179.15  -52.89   54.01 -134.60  147.37  -24.32

DOCKED: MODEL        9
DOCKED: USER    Run = 9
DOCKED: USER    DPF = D:/Protein_go_brrr/autodock/final/AncA/heme_Co/dock.dpf
DOCKED: USER  
DOCKED: USER    Estimated Free Energy of Binding    =   -8.18 kcal/mol  [=(1)+(2)+(3)-(4)]
DOCKED: USER    Estimated Inhibition Constant, Ki   =    1.01 uM (micromolar)  [Temperature = 298.15 K]
DOCKED: USER    
DOCKED: USER    (1) Final Intermolecular Energy     =  -11.76 kcal/mol
DOCKED: USER        vdW + Hbond + desolv Energy     =   -7.46 kcal/mol
DOCKED: USER        Electrostatic Energy            =   -4.29 kcal/mol
DOCKED: USER    (2) Final Total Internal Energy     =   -0.80 kcal/mol
DOCKED: USER    (3) Torsional Free Energy           =   +3.58 kcal/mol
DOCKED: USER    (4) Unbound System's Energy  [=(2)] =   -0.80 kcal/mol
DOCKED: USER    
DOCKED: USER    
DOCKED: USER    NEWDPF move heme_Co_opt.pdbqt
DOCKED: USER    NEWDPF about 8.781000 34.984000 -0.736000
DOCKED: USER    NEWDPF tran0 -0.642093 -15.593799 -2.032106
DOCKED: USER    NEWDPF quaternion0 0.843737 0.223354 0.443190 -0.204459
DOCKED: USER    NEWDPF axisangle0 0.861945 0.228174 0.452755 -156.404352
DOCKED: USER    NEWDPF quat0 0.861945 0.228174 0.452755 -156.404352
DOCKED: USER    NEWDPF dihe0 -33.69 105.01 -143.48 38.60 91.63 133.24 -179.15 -52.89 54.01 -134.60 147.37 -24.32 
DOCKED: USER  keepresnum = 1 
DOCKED: USER  
DOCKED: REMARK  12 active torsions:
DOCKED: REMARK  status: ('A' for Active; 'I' for Inactive)
DOCKED: REMARK    1  A    between atoms: C_6  and  C_10 
DOCKED: REMARK    2  A    between atoms: C_10  and  C_11 
DOCKED: REMARK    3  A    between atoms: C_11  and  C_12 
DOCKED: REMARK    4  A    between atoms: C_12  and  O_14 
DOCKED: REMARK    5  A    between atoms: C_17  and  C_20 
DOCKED: REMARK    6  A    between atoms: C_24  and  C_27 
DOCKED: REMARK    7  A    between atoms: C_31  and  C_34 
DOCKED: REMARK    8  A    between atoms: C_34  and  C_35 
DOCKED: REMARK    9  A    between atoms: C_35  and  C_36 
DOCKED: REMARK   10  A    between atoms: C_36  and  O_38 
DOCKED: REMARK   11  A    between atoms: FE_43  and  C_44 
DOCKED: REMARK   12  A    between atoms: C_44  and  O_45 
DOCKED: USER                              x       y       z     vdW  Elec       q    Type
DOCKED: USER                           _______ _______ _______ _____ _____    ______ ____
DOCKED: ROOT
DOCKED: ATOM      1  C   UNL d   1      -2.240 -16.956  -2.587 +0.02 +0.09    +0.064 A 
DOCKED: ATOM      2  C   UNL d   1       1.013 -14.631  -5.160 -0.27 +0.03    +0.064 C 
DOCKED: ATOM      3  C   UNL d   1       2.558 -12.378  -1.240 -0.16 +0.02    +0.064 A 
DOCKED: ATOM      4  C   UNL d   1      -0.495 -15.025   1.469 -0.10 +0.05    +0.064 A 
DOCKED: ATOM      5  C   UNL d   1      -1.489 -16.459  -3.583 -0.07 +0.08    +0.066 A 
DOCKED: ATOM      6  C   UNL d   1      -1.595 -16.932  -4.906 -0.14 -0.02    -0.021 A 
DOCKED: ATOM      7  C   UNL d   1      -0.633 -16.270  -5.644 -0.20 -0.02    -0.025 A 
DOCKED: ATOM      8  C   UNL d   1       0.007 -15.411  -4.744 -0.17 +0.05    +0.066 A 
DOCKED: ATOM      9  C   UNL d   1      -0.316 -16.430  -7.139 -0.31 +0.03    +0.051 C 
DOCKED: ATOM     10  C   UNL d   1       1.713 -13.697  -4.313 -0.19 +0.03    +0.066 A 
DOCKED: ATOM     11  C   UNL d   1       2.680 -12.751  -4.719 -0.27 -0.01    -0.021 A 
DOCKED: ATOM     12  C   UNL d   1       3.111 -12.106  -3.557 -0.25 +0.00    +0.000 A 
DOCKED: ATOM     13  C   UNL d   1       2.368 -12.694  -2.533 -0.14 +0.02    +0.070 A 
DOCKED: ATOM     14  C   UNL d   1       3.080 -12.437  -6.138 -0.39 +0.02    +0.052 C 
DOCKED: ATOM     15  C   UNL d   1       1.920 -12.921  -0.057 -0.14 +0.02    +0.066 A 
DOCKED: ATOM     16  C   UNL d   1       2.266 -12.654   1.261 -0.20 -0.01    -0.021 A 
DOCKED: ATOM     17  C   UNL d   1       1.390 -13.417   2.046 -0.18 +0.00    +0.000 A 
DOCKED: ATOM     18  C   UNL d   1       0.565 -14.078   1.142 -0.12 +0.04    +0.070 A 
DOCKED: ATOM     19  C   UNL d   1       3.371 -11.723   1.706 -0.26 +0.01    +0.052 C 
DOCKED: ATOM     20  C   UNL d   1      -1.252 -15.745   0.607 -0.09 +0.06    +0.066 A 
DOCKED: ATOM     21  C   UNL d   1      -2.216 -16.651   1.043 -0.08 -0.03    -0.025 A 
DOCKED: ATOM     22  C   UNL d   1      -2.756 -17.202  -0.105 -0.07 -0.02    -0.021 A 
DOCKED: ATOM     23  C   UNL d   1      -2.080 -16.609  -1.193 -0.07 +0.08    +0.066 A 
DOCKED: ATOM     24  C   UNL d   1      -2.591 -16.991   2.482 -0.07 +0.06    +0.051 C 
DOCKED: ATOM     25  N   UNL d   1      -0.506 -15.503  -3.462 -0.07 -0.23    -0.248 N 
DOCKED: ATOM     26  N   UNL d   1       1.484 -13.616  -2.999 -0.06 -0.11    -0.248 N 
DOCKED: ATOM     27  N   UNL d   1       0.929 -13.783  -0.101 -0.06 -0.12    -0.248 N 
DOCKED: ATOM     28  N   UNL d   1      -1.167 -15.728  -0.766 -0.05 -0.23    -0.248 N 
DOCKED: ATOM     29 FE   UNL d   1       0.251 -14.593  -1.680 -0.02 +0.00    +0.000 Fe
DOCKED: ENDROOT
DOCKED: BRANCH   6  30
DOCKED: ATOM     30  C   UNL d   1      -2.527 -18.030  -5.407 -0.15 +0.06    +0.052 C 
DOCKED: BRANCH  30  31
DOCKED: ATOM     31  C   UNL d   1      -1.744 -19.081  -6.194 -0.07 +0.10    +0.115 C 
DOCKED: BRANCH  31  32
DOCKED: ATOM     32  C   UNL d   1      -2.344 -19.348  -7.557 -0.03 +0.20    +0.139 C 
DOCKED: ATOM     33  O   UNL d   1      -2.585 -18.409  -8.302 -0.56 -1.05    -0.650 OA
DOCKED: BRANCH  32  34
DOCKED: ATOM     34  O   UNL d   1      -2.581 -20.603  -8.004 -0.07 -1.22    -0.776 OA
DOCKED: ATOM     35  H   UNL d   1      -2.000 -21.358  -7.838 +0.01 +0.17    +0.167 HD
DOCKED: ENDBRANCH  32  34
DOCKED: ENDBRANCH  31  32
DOCKED: ENDBRANCH  30  31
DOCKED: ENDBRANCH   6  30
DOCKED: BRANCH  29  36
DOCKED: ATOM     36  C   UNL d   1       1.616 -16.181  -1.584 -0.01 +0.09    +0.190 C 
DOCKED: BRANCH  36  37
DOCKED: ATOM     37  O   UNL d   1       1.833 -17.492  -2.022 +0.00 -0.18    -0.399 OA
DOCKED: ATOM     38  H   UNL d   1       0.976 -17.763  -2.456 +0.01 +0.11    +0.209 HD
DOCKED: ENDBRANCH  36  37
DOCKED: ENDBRANCH  29  36
DOCKED: BRANCH  22  39
DOCKED: ATOM     39  C   UNL d   1      -3.816 -18.287  -0.146 -0.03 +0.05    +0.052 C 
DOCKED: BRANCH  39  40
DOCKED: ATOM     40  C   UNL d   1      -5.204 -17.700   0.158 -0.05 +0.13    +0.115 C 
DOCKED: BRANCH  40  41
DOCKED: ATOM     41  C   UNL d   1      -5.462 -16.346  -0.471 -0.11 +0.23    +0.139 C 
DOCKED: ATOM     42  O   UNL d   1      -5.873 -16.289  -1.621 -0.26 -1.40    -0.650 OA
DOCKED: BRANCH  41  43
DOCKED: ATOM     43  O   UNL d   1      -5.332 -15.200   0.234 -0.55 -1.83    -0.776 OA
DOCKED: ATOM     44  H   UNL d   1      -5.970 -14.477   0.171 +0.03 +0.35    +0.167 HD
DOCKED: ENDBRANCH  41  43
DOCKED: ENDBRANCH  40  41
DOCKED: ENDBRANCH  39  40
DOCKED: ENDBRANCH  22  39
DOCKED: BRANCH  12  45
DOCKED: ATOM     45  C   UNL d   1       4.119 -10.994  -3.300 -0.37 +0.00    +0.004 C 
DOCKED: ATOM     46  C   UNL d   1       4.498  -9.974  -4.065 -0.50 +0.00    +0.012 C 
DOCKED: ENDBRANCH  12  45
DOCKED: BRANCH  17  47
DOCKED: ATOM     47  C   UNL d   1       1.333 -13.579   3.529 -0.21 +0.00    +0.004 C 
DOCKED: ATOM     48  C   UNL d   1       0.947 -12.610   4.363 -0.36 +0.01    +0.012 C 
DOCKED: ENDBRANCH  17  47
DOCKED: TORSDOF 12
DOCKED: TER
DOCKED: ENDMDL
________________________________________________________________________________


	BEGINNING GENETIC ALGORITHM DOCKING 10 of 100
Run: 10 Seed: 754532805 1910140486 [ Run 10 of 100 GA/GALS ]
Beginning LAMARCKIAN GENETIC ALGORITHM (LGA), with a maximum of 25000000 energy evaluations.

Final-Value: -13.292


	FINAL GENETIC ALGORITHM DOCKED STATE
	_______________________________________________


Detailed state:  trans -0.254 -15.802 -2.084 quatxyzw 0.415326 0.042638 -0.411880 0.809964 center 8.781 34.984 -0.736 ntor 12 -115.4602 120.0447 -73.2608 43.4568 136.5201 139.8138 33.3330 66.2275 165.9665 -60.9769 -179.8656 178.9896
State:	 -0.254 -15.802  -2.084   0.708  0.073 -0.702 71.815   -115.46  120.04  -73.26   43.46  136.52  139.81   33.33   66.23  165.97  -60.98 -179.87  178.99

DOCKED: MODEL       10
DOCKED: USER    Run = 10
DOCKED: USER    DPF = D:/Protein_go_brrr/autodock/final/AncA/heme_Co/dock.dpf
DOCKED: USER  
DOCKED: USER    Estimated Free Energy of Binding    =   -7.79 kcal/mol  [=(1)+(2)+(3)-(4)]
DOCKED: USER    Estimated Inhibition Constant, Ki   =    1.96 uM (micromolar)  [Temperature = 298.15 K]
DOCKED: USER    
DOCKED: USER    (1) Final Intermolecular Energy     =  -11.37 kcal/mol
DOCKED: USER        vdW + Hbond + desolv Energy     =   -7.00 kcal/mol
DOCKED: USER        Electrostatic Energy            =   -4.36 kcal/mol
DOCKED: USER    (2) Final Total Internal Energy     =   -1.93 kcal/mol
DOCKED: USER    (3) Torsional Free Energy           =   +3.58 kcal/mol
DOCKED: USER    (4) Unbound System's Energy  [=(2)] =   -1.93 kcal/mol
DOCKED: USER    
DOCKED: USER    
DOCKED: USER    NEWDPF move heme_Co_opt.pdbqt
DOCKED: USER    NEWDPF about 8.781000 34.984000 -0.736000
DOCKED: USER    NEWDPF tran0 -0.253527 -15.801586 -2.084475
DOCKED: USER    NEWDPF quaternion0 0.415326 0.042638 -0.411880 0.809964
DOCKED: USER    NEWDPF axisangle0 0.708167 0.072701 -0.702292 71.815224
DOCKED: USER    NEWDPF quat0 0.708167 0.072701 -0.702292 71.815224
DOCKED: USER    NEWDPF dihe0 -115.46 120.04 -73.26 43.46 136.52 139.81 33.33 66.23 165.97 -60.98 -179.87 178.99 
DOCKED: USER  keepresnum = 1 
DOCKED: USER  
DOCKED: REMARK  12 active torsions:
DOCKED: REMARK  status: ('A' for Active; 'I' for Inactive)
DOCKED: REMARK    1  A    between atoms: C_6  and  C_10 
DOCKED: REMARK    2  A    between atoms: C_10  and  C_11 
DOCKED: REMARK    3  A    between atoms: C_11  and  C_12 
DOCKED: REMARK    4  A    between atoms: C_12  and  O_14 
DOCKED: REMARK    5  A    between atoms: C_17  and  C_20 
DOCKED: REMARK    6  A    between atoms: C_24  and  C_27 
DOCKED: REMARK    7  A    between atoms: C_31  and  C_34 
DOCKED: REMARK    8  A    between atoms: C_34  and  C_35 
DOCKED: REMARK    9  A    between atoms: C_35  and  C_36 
DOCKED: REMARK   10  A    between atoms: C_36  and  O_38 
DOCKED: REMARK   11  A    between atoms: FE_43  and  C_44 
DOCKED: REMARK   12  A    between atoms: C_44  and  O_45 
DOCKED: USER                              x       y       z     vdW  Elec       q    Type
DOCKED: USER                           _______ _______ _______ _____ _____    ______ ____
DOCKED: ROOT
DOCKED: ATOM      1  C   UNL d   1      -1.491 -17.546  -2.463 -0.04 +0.06    +0.064 A 
DOCKED: ATOM      2  C   UNL d   1      -0.519 -15.119   1.509 -0.11 +0.05    +0.064 C 
DOCKED: ATOM      3  C   UNL d   1       2.587 -12.383  -0.877 -0.17 +0.02    +0.064 A 
DOCKED: ATOM      4  C   UNL d   1       1.326 -14.592  -5.024 -0.21 +0.03    +0.064 A 
DOCKED: ATOM      5  C   UNL d   1      -1.426 -17.107  -1.195 -0.04 +0.06    +0.066 A 
DOCKED: ATOM      6  C   UNL d   1      -2.259 -17.623  -0.183 -0.04 -0.02    -0.021 A 
DOCKED: ATOM      7  C   UNL d   1      -1.989 -16.900   0.962 -0.07 -0.02    -0.025 A 
DOCKED: ATOM      8  C   UNL d   1      -0.992 -15.986   0.605 -0.08 +0.05    +0.066 A 
DOCKED: ATOM      9  C   UNL d   1      -2.637 -17.051   2.347 -0.06 +0.06    +0.051 C 
DOCKED: ATOM     10  C   UNL d   1       0.524 -14.161   1.240 -0.13 +0.04    +0.066 A 
DOCKED: ATOM     11  C   UNL d   1       1.162 -13.322   2.180 -0.19 -0.01    -0.021 A 
DOCKED: ATOM     12  C   UNL d   1       2.065 -12.538   1.457 -0.24 +0.00    +0.000 A 
DOCKED: ATOM     13  C   UNL d   1       1.922 -12.964   0.137 -0.14 +0.02    +0.070 A 
DOCKED: ATOM     14  C   UNL d   1       0.974 -13.352   3.675 -0.25 +0.03    +0.052 C 
DOCKED: ATOM     15  C   UNL d   1       2.521 -12.660  -2.299 -0.14 +0.02    +0.066 A 
DOCKED: ATOM     16  C   UNL d   1       3.126 -11.926  -3.310 -0.24 -0.01    -0.021 A 
DOCKED: ATOM     17  C   UNL d   1       2.763 -12.557  -4.508 -0.27 +0.00    +0.000 A 
DOCKED: ATOM     18  C   UNL d   1       1.976 -13.641  -4.131 -0.17 +0.03    +0.070 A 
DOCKED: ATOM     19  C   UNL d   1       3.989 -10.701  -3.107 -0.32 +0.01    +0.052 C 
DOCKED: ATOM     20  C   UNL d   1       0.488 -15.600  -4.686 -0.13 +0.04    +0.066 A 
DOCKED: ATOM     21  C   UNL d   1      -0.104 -16.426  -5.639 -0.18 -0.02    -0.025 A 
DOCKED: ATOM     22  C   UNL d   1      -0.899 -17.306  -4.928 -0.11 -0.02    -0.021 A 
DOCKED: ATOM     23  C   UNL d   1      -0.761 -16.963  -3.566 -0.07 +0.06    +0.066 A 
DOCKED: ATOM     24  C   UNL d   1       0.063 -16.368  -7.155 -0.29 +0.03    +0.051 C 
DOCKED: ATOM     25  N   UNL d   1      -0.620 -16.096  -0.724 -0.02 -0.19    -0.248 N 
DOCKED: ATOM     26  N   UNL d   1       1.031 -13.983   0.015 -0.05 -0.12    -0.248 N 
DOCKED: ATOM     27  N   UNL d   1       1.828 -13.653  -2.811 -0.05 -0.10    -0.248 N 
DOCKED: ATOM     28  N   UNL d   1       0.076 -15.929  -3.416 -0.04 -0.18    -0.248 N 
DOCKED: ATOM     29 FE   UNL d   1       0.676 -14.804  -1.832 -0.02 +0.00    +0.000 Fe
DOCKED: ENDROOT
DOCKED: BRANCH   6  30
DOCKED: ATOM     30  C   UNL d   1      -3.321 -18.706  -0.343 -0.02 +0.04    +0.052 C 
DOCKED: BRANCH  30  31
DOCKED: ATOM     31  C   UNL d   1      -4.699 -18.080  -0.558 -0.04 +0.12    +0.115 C 
DOCKED: BRANCH  31  32
DOCKED: ATOM     32  C   UNL d   1      -4.732 -16.615  -0.180 -0.10 +0.23    +0.139 C 
DOCKED: ATOM     33  O   UNL d   1      -5.130 -16.288   0.928 -0.25 -1.41    -0.650 OA
DOCKED: BRANCH  32  34
DOCKED: ATOM     34  O   UNL d   1      -4.288 -15.648  -1.017 +0.04 -1.78    -0.776 OA
DOCKED: ATOM     35  H   UNL d   1      -3.565 -15.040  -0.811 +0.02 +0.34    +0.167 HD
DOCKED: ENDBRANCH  32  34
DOCKED: ENDBRANCH  31  32
DOCKED: ENDBRANCH  30  31
DOCKED: ENDBRANCH   6  30
DOCKED: BRANCH  29  36
DOCKED: ATOM     36  C   UNL d   1      -0.977 -13.538  -2.075 -0.15 +0.18    +0.190 C 
DOCKED: BRANCH  36  37
DOCKED: ATOM     37  O   UNL d   1      -2.370 -13.491  -1.959 -0.27 -0.67    -0.399 OA
DOCKED: ATOM     38  H   UNL d   1      -2.623 -14.361  -1.541 +0.05 +0.39    +0.209 HD
DOCKED: ENDBRANCH  36  37
DOCKED: ENDBRANCH  29  36
DOCKED: BRANCH  22  39
DOCKED: ATOM     39  C   UNL d   1      -1.791 -18.373  -5.535 -0.10 +0.05    +0.052 C 
DOCKED: BRANCH  39  40
DOCKED: ATOM     40  C   UNL d   1      -3.104 -17.757  -6.046 -0.20 +0.15    +0.115 C 
DOCKED: BRANCH  40  41
DOCKED: ATOM     41  C   UNL d   1      -3.272 -17.805  -7.550 -0.15 +0.22    +0.139 C 
DOCKED: ATOM     42  O   UNL d   1      -4.003 -16.991  -8.097 -0.09 -0.99    -0.650 OA
DOCKED: BRANCH  41  43
DOCKED: ATOM     43  O   UNL d   1      -2.568 -18.667  -8.317 -0.47 -1.33    -0.776 OA
DOCKED: ATOM     44  H   UNL d   1      -1.611 -18.602  -8.427 +0.05 +0.17    +0.167 HD
DOCKED: ENDBRANCH  41  43
DOCKED: ENDBRANCH  40  41
DOCKED: ENDBRANCH  39  40
DOCKED: ENDBRANCH  22  39
DOCKED: BRANCH  12  45
DOCKED: ATOM     45  C   UNL d   1       3.056 -11.454   1.863 -0.34 +0.00    +0.004 C 
DOCKED: ATOM     46  C   UNL d   1       3.798 -11.326   2.960 -0.25 +0.00    +0.012 C 
DOCKED: ENDBRANCH  12  45
DOCKED: BRANCH  17  47
DOCKED: ATOM     47  C   UNL d   1       3.068 -12.174  -5.918 -0.36 +0.00    +0.004 C 
DOCKED: ATOM     48  C   UNL d   1       3.824 -12.911  -6.735 -0.52 +0.00    +0.012 C 
DOCKED: ENDBRANCH  17  47
DOCKED: TORSDOF 12
DOCKED: TER
DOCKED: ENDMDL
________________________________________________________________________________


	BEGINNING GENETIC ALGORITHM DOCKING 11 of 100
Run: 11 Seed: 1493965922 98277321 [ Run 11 of 100 GA/GALS ]
Beginning LAMARCKIAN GENETIC ALGORITHM (LGA), with a maximum of 25000000 energy evaluations.

Final-Value: -11.146


	FINAL GENETIC ALGORITHM DOCKED STATE
	_______________________________________________


Detailed state:  trans -0.401 -15.788 -2.577 quatxyzw 0.818556 0.270808 0.454538 -0.223662 center 8.781 34.984 -0.736 ntor 12 -33.5958 135.4587 140.9032 -23.2990 56.3727 86.7097 -76.3783 -37.3849 -68.2763 -155.7617 -27.4662 157.8281
State:	 -0.401 -15.788  -2.577   0.840  0.278  0.466 -154.152    -33.60  135.46  140.90  -23.30   56.37   86.71  -76.38  -37.38  -68.28 -155.76  -27.47  157.83

DOCKED: MODEL       11
DOCKED: USER    Run = 11
DOCKED: USER    DPF = D:/Protein_go_brrr/autodock/final/AncA/heme_Co/dock.dpf
DOCKED: USER  
DOCKED: USER    Estimated Free Energy of Binding    =   -5.43 kcal/mol  [=(1)+(2)+(3)-(4)]
DOCKED: USER    Estimated Inhibition Constant, Ki   =  104.60 uM (micromolar)  [Temperature = 298.15 K]
DOCKED: USER    
DOCKED: USER    (1) Final Intermolecular Energy     =   -9.01 kcal/mol
DOCKED: USER        vdW + Hbond + desolv Energy     =   -6.60 kcal/mol
DOCKED: USER        Electrostatic Energy            =   -2.41 kcal/mol
DOCKED: USER    (2) Final Total Internal Energy     =   -2.14 kcal/mol
DOCKED: USER    (3) Torsional Free Energy           =   +3.58 kcal/mol
DOCKED: USER    (4) Unbound System's Energy  [=(2)] =   -2.14 kcal/mol
DOCKED: USER    
DOCKED: USER    
DOCKED: USER    NEWDPF move heme_Co_opt.pdbqt
DOCKED: USER    NEWDPF about 8.781000 34.984000 -0.736000
DOCKED: USER    NEWDPF tran0 -0.400662 -15.787805 -2.576917
DOCKED: USER    NEWDPF quaternion0 0.818556 0.270808 0.454538 -0.223662
DOCKED: USER    NEWDPF axisangle0 0.839832 0.277846 0.466352 -154.151537
DOCKED: USER    NEWDPF quat0 0.839832 0.277846 0.466352 -154.151537
DOCKED: USER    NEWDPF dihe0 -33.60 135.46 140.90 -23.30 56.37 86.71 -76.38 -37.38 -68.28 -155.76 -27.47 157.83 
DOCKED: USER  keepresnum = 1 
DOCKED: USER  
DOCKED: REMARK  12 active torsions:
DOCKED: REMARK  status: ('A' for Active; 'I' for Inactive)
DOCKED: REMARK    1  A    between atoms: C_6  and  C_10 
DOCKED: REMARK    2  A    between atoms: C_10  and  C_11 
DOCKED: REMARK    3  A    between atoms: C_11  and  C_12 
DOCKED: REMARK    4  A    between atoms: C_12  and  O_14 
DOCKED: REMARK    5  A    between atoms: C_17  and  C_20 
DOCKED: REMARK    6  A    between atoms: C_24  and  C_27 
DOCKED: REMARK    7  A    between atoms: C_31  and  C_34 
DOCKED: REMARK    8  A    between atoms: C_34  and  C_35 
DOCKED: REMARK    9  A    between atoms: C_35  and  C_36 
DOCKED: REMARK   10  A    between atoms: C_36  and  O_38 
DOCKED: REMARK   11  A    between atoms: FE_43  and  C_44 
DOCKED: REMARK   12  A    between atoms: C_44  and  O_45 
DOCKED: USER                              x       y       z     vdW  Elec       q    Type
DOCKED: USER                           _______ _______ _______ _____ _____    ______ ____
DOCKED: ROOT
DOCKED: ATOM      1  C   UNL d   1      -1.868 -17.313  -3.063 -0.07 +0.07    +0.064 A 
DOCKED: ATOM      2  C   UNL d   1       1.279 -14.943  -5.726 -0.29 +0.03    +0.064 C 
DOCKED: ATOM      3  C   UNL d   1       2.512 -12.274  -1.960 -0.17 +0.02    +0.064 A 
DOCKED: ATOM      4  C   UNL d   1      -0.416 -14.936   0.869 -0.11 +0.05    +0.064 A 
DOCKED: ATOM      5  C   UNL d   1      -1.125 -16.837  -4.076 -0.10 +0.07    +0.066 A 
DOCKED: ATOM      6  C   UNL d   1      -1.149 -17.419  -5.358 -0.12 -0.02    -0.021 A 
DOCKED: ATOM      7  C   UNL d   1      -0.217 -16.742  -6.120 -0.19 -0.02    -0.025 A 
DOCKED: ATOM      8  C   UNL d   1       0.324 -15.767  -5.276 -0.18 +0.04    +0.066 A 
DOCKED: ATOM      9  C   UNL d   1       0.161 -16.993  -7.588 -0.27 +0.03    +0.051 C 
DOCKED: ATOM     10  C   UNL d   1       1.876 -13.893  -4.939 -0.23 +0.03    +0.066 A 
DOCKED: ATOM     11  C   UNL d   1       2.780 -12.908  -5.393 -0.32 -0.01    -0.021 A 
DOCKED: ATOM     12  C   UNL d   1       3.120 -12.141  -4.275 -0.28 +0.00    +0.000 A 
DOCKED: ATOM     13  C   UNL d   1       2.391 -12.705  -3.228 -0.17 +0.02    +0.070 A 
DOCKED: ATOM     14  C   UNL d   1       3.202 -12.675  -6.820 -0.40 +0.02    +0.052 C 
DOCKED: ATOM     15  C   UNL d   1       1.878 -12.772  -0.754 -0.14 +0.02    +0.066 A 
DOCKED: ATOM     16  C   UNL d   1       2.157 -12.376   0.546 -0.23 -0.01    -0.021 A 
DOCKED: ATOM     17  C   UNL d   1       1.317 -13.143   1.366 -0.20 +0.00    +0.000 A 
DOCKED: ATOM     18  C   UNL d   1       0.577 -13.937   0.496 -0.12 +0.04    +0.070 A 
DOCKED: ATOM     19  C   UNL d   1       3.172 -11.327   0.945 -0.32 +0.01    +0.052 C 
DOCKED: ATOM     20  C   UNL d   1      -1.085 -15.780   0.048 -0.08 +0.06    +0.066 A 
DOCKED: ATOM     21  C   UNL d   1      -1.990 -16.724   0.529 -0.08 -0.02    -0.025 A 
DOCKED: ATOM     22  C   UNL d   1      -2.447 -17.404  -0.585 -0.05 -0.02    -0.021 A 
DOCKED: ATOM     23  C   UNL d   1      -1.783 -16.846  -1.698 -0.06 +0.07    +0.066 A 
DOCKED: ATOM     24  C   UNL d   1      -2.387 -16.979   1.980 -0.07 +0.05    +0.051 C 
DOCKED: ATOM     25  N   UNL d   1      -0.224 -15.799  -4.005 -0.07 -0.20    -0.248 N 
DOCKED: ATOM     26  N   UNL d   1       1.597 -13.728  -3.641 -0.08 -0.11    -0.248 N 
DOCKED: ATOM     27  N   UNL d   1       0.959 -13.711  -0.756 -0.05 -0.12    -0.248 N 
DOCKED: ATOM     28  N   UNL d   1      -0.956 -15.864  -1.319 -0.04 -0.23    -0.248 N 
DOCKED: ATOM     29 FE   UNL d   1       0.400 -14.694  -2.282 -0.02 +0.00    +0.000 Fe
DOCKED: ENDROOT
DOCKED: BRANCH   6  30
DOCKED: ATOM     30  C   UNL d   1      -1.975 -18.624  -5.795 -0.10 +0.05    +0.052 C 
DOCKED: BRANCH  30  31
DOCKED: ATOM     31  C   UNL d   1      -3.462 -18.376  -5.542 -0.16 +0.14    +0.115 C 
DOCKED: BRANCH  31  32
DOCKED: ATOM     32  C   UNL d   1      -4.244 -18.194  -6.825 -0.13 +0.24    +0.139 C 
DOCKED: ATOM     33  O   UNL d   1      -5.436 -18.460  -6.845 +0.01 -1.15    -0.650 OA
DOCKED: BRANCH  32  34
DOCKED: ATOM     34  O   UNL d   1      -3.674 -17.698  -7.948 -0.27 -1.41    -0.776 OA
DOCKED: ATOM     35  H   UNL d   1      -3.016 -16.990  -7.957 +0.06 +0.20    +0.167 HD
DOCKED: ENDBRANCH  32  34
DOCKED: ENDBRANCH  31  32
DOCKED: ENDBRANCH  30  31
DOCKED: ENDBRANCH   6  30
DOCKED: BRANCH  29  36
DOCKED: ATOM     36  C   UNL d   1       1.880 -16.156  -2.021 -0.01 +0.09    +0.190 C 
DOCKED: BRANCH  36  37
DOCKED: ATOM     37  O   UNL d   1       2.071 -17.502  -1.693 +0.00 -0.17    -0.399 OA
DOCKED: ATOM     38  H   UNL d   1       1.198 -17.941  -1.895 +0.01 +0.10    +0.209 HD
DOCKED: ENDBRANCH  36  37
DOCKED: ENDBRANCH  29  36
DOCKED: BRANCH  22  39
DOCKED: ATOM     39  C   UNL d   1      -3.418 -18.570  -0.567 -0.02 +0.04    +0.052 C 
DOCKED: BRANCH  39  40
DOCKED: ATOM     40  C   UNL d   1      -2.667 -19.903  -0.718 +0.01 +0.06    +0.115 C 
DOCKED: BRANCH  40  41
DOCKED: ATOM     41  C   UNL d   1      -1.188 -19.827  -0.406 +0.01 +0.07    +0.139 C 
DOCKED: ATOM     42  O   UNL d   1      -0.785 -20.216   0.682 +0.01 -0.26    -0.650 OA
DOCKED: BRANCH  41  43
DOCKED: ATOM     43  O   UNL d   1      -0.287 -19.420  -1.328 +0.01 -0.37    -0.776 OA
DOCKED: ATOM     44  H   UNL d   1       0.514 -18.935  -1.092 +0.00 +0.08    +0.167 HD
DOCKED: ENDBRANCH  41  43
DOCKED: ENDBRANCH  40  41
DOCKED: ENDBRANCH  39  40
DOCKED: ENDBRANCH  22  39
DOCKED: BRANCH  12  45
DOCKED: ATOM     45  C   UNL d   1       4.029 -10.935  -4.081 -0.43 +0.00    +0.004 C 
DOCKED: ATOM     46  C   UNL d   1       5.149 -10.585  -4.708 -0.50 +0.00    +0.012 C 
DOCKED: ENDBRANCH  12  45
DOCKED: BRANCH  17  47
DOCKED: ATOM     47  C   UNL d   1       1.224 -13.192   2.856 -0.24 +0.00    +0.004 C 
DOCKED: ATOM     48  C   UNL d   1       1.405 -12.128   3.641 -0.35 +0.00    +0.012 C 
DOCKED: ENDBRANCH  17  47
DOCKED: TORSDOF 12
DOCKED: TER
DOCKED: ENDMDL
________________________________________________________________________________


	BEGINNING GENETIC ALGORITHM DOCKING 12 of 100
Run: 12 Seed: 1958428665 1362426811 [ Run 12 of 100 GA/GALS ]
Beginning LAMARCKIAN GENETIC ALGORITHM (LGA), with a maximum of 25000000 energy evaluations.

Final-Value: -11.555


	FINAL GENETIC ALGORITHM DOCKED STATE
	_______________________________________________


Detailed state:  trans -12.003 -14.187 -1.656 quatxyzw 0.615982 0.636104 -0.457883 -0.079256 center 8.781 34.984 -0.736 ntor 12 -133.4292 118.5475 -172.6212 120.5797 156.1708 130.6227 53.4890 -58.1484 -125.4141 55.2045 -177.3957 -146.3062
State:	-12.003 -14.187  -1.656   0.618  0.638 -0.459 -170.908   -133.43  118.55 -172.62  120.58  156.17  130.62   53.49  -58.15 -125.41   55.20 -177.40 -146.31

DOCKED: MODEL       12
DOCKED: USER    Run = 12
DOCKED: USER    DPF = D:/Protein_go_brrr/autodock/final/AncA/heme_Co/dock.dpf
DOCKED: USER  
DOCKED: USER    Estimated Free Energy of Binding    =   -6.26 kcal/mol  [=(1)+(2)+(3)-(4)]
DOCKED: USER    Estimated Inhibition Constant, Ki   =   25.98 uM (micromolar)  [Temperature = 298.15 K]
DOCKED: USER    
DOCKED: USER    (1) Final Intermolecular Energy     =   -9.84 kcal/mol
DOCKED: USER        vdW + Hbond + desolv Energy     =   -7.16 kcal/mol
DOCKED: USER        Electrostatic Energy            =   -2.67 kcal/mol
DOCKED: USER    (2) Final Total Internal Energy     =   -1.72 kcal/mol
DOCKED: USER    (3) Torsional Free Energy           =   +3.58 kcal/mol
DOCKED: USER    (4) Unbound System's Energy  [=(2)] =   -1.72 kcal/mol
DOCKED: USER    
DOCKED: USER    
DOCKED: USER    NEWDPF move heme_Co_opt.pdbqt
DOCKED: USER    NEWDPF about 8.781000 34.984000 -0.736000
DOCKED: USER    NEWDPF tran0 -12.002641 -14.186544 -1.656457
DOCKED: USER    NEWDPF quaternion0 0.615982 0.636104 -0.457883 -0.079256
DOCKED: USER    NEWDPF axisangle0 0.617926 0.638111 -0.459328 -170.908378
DOCKED: USER    NEWDPF quat0 0.617926 0.638111 -0.459328 -170.908378
DOCKED: USER    NEWDPF dihe0 -133.43 118.55 -172.62 120.58 156.17 130.62 53.49 -58.15 -125.41 55.20 -177.40 -146.31 
DOCKED: USER  keepresnum = 1 
DOCKED: USER  
DOCKED: REMARK  12 active torsions:
DOCKED: REMARK  status: ('A' for Active; 'I' for Inactive)
DOCKED: REMARK    1  A    between atoms: C_6  and  C_10 
DOCKED: REMARK    2  A    between atoms: C_10  and  C_11 
DOCKED: REMARK    3  A    between atoms: C_11  and  C_12 
DOCKED: REMARK    4  A    between atoms: C_12  and  O_14 
DOCKED: REMARK    5  A    between atoms: C_17  and  C_20 
DOCKED: REMARK    6  A    between atoms: C_24  and  C_27 
DOCKED: REMARK    7  A    between atoms: C_31  and  C_34 
DOCKED: REMARK    8  A    between atoms: C_34  and  C_35 
DOCKED: REMARK    9  A    between atoms: C_35  and  C_36 
DOCKED: REMARK   10  A    between atoms: C_36  and  O_38 
DOCKED: REMARK   11  A    between atoms: FE_43  and  C_44 
DOCKED: REMARK   12  A    between atoms: C_44  and  O_45 
DOCKED: USER                              x       y       z     vdW  Elec       q    Type
DOCKED: USER                           _______ _______ _______ _____ _____    ______ ____
DOCKED: ROOT
DOCKED: ATOM      1  C   UNL d   1     -10.739 -15.073  -0.129 -0.10 +0.03    +0.064 A 
DOCKED: ATOM      2  C   UNL d   1     -15.035 -16.244  -1.798 -0.11 +0.01    +0.064 C 
DOCKED: ATOM      3  C   UNL d   1     -15.080 -12.329  -4.536 -0.18 +0.00    +0.064 A 
DOCKED: ATOM      4  C   UNL d   1     -10.533 -11.315  -3.137 -0.28 +0.02    +0.064 A 
DOCKED: ATOM      5  C   UNL d   1     -11.925 -15.662  -0.357 -0.11 +0.02    +0.066 A 
DOCKED: ATOM      6  C   UNL d   1     -12.268 -16.900   0.221 -0.07 -0.01    -0.021 A 
DOCKED: ATOM      7  C   UNL d   1     -13.506 -17.246  -0.285 -0.07 -0.01    -0.025 A 
DOCKED: ATOM      8  C   UNL d   1     -13.872 -16.198  -1.136 -0.12 +0.01    +0.066 A 
DOCKED: ATOM      9  C   UNL d   1     -14.324 -18.512   0.011 -0.03 +0.01    +0.051 C 
DOCKED: ATOM     10  C   UNL d   1     -15.508 -15.201  -2.674 -0.12 +0.01    +0.066 A 
DOCKED: ATOM     11  C   UNL d   1     -16.777 -15.126  -3.287 -0.07 -0.00    -0.021 A 
DOCKED: ATOM     12  C   UNL d   1     -16.764 -13.972  -4.076 -0.08 +0.00    +0.000 A 
DOCKED: ATOM     13  C   UNL d   1     -15.497 -13.425  -3.877 -0.14 +0.01    +0.070 A 
DOCKED: ATOM     14  C   UNL d   1     -17.941 -16.052  -3.046 -0.04 +0.01    +0.052 C 
DOCKED: ATOM     15  C   UNL d   1     -13.794 -11.662  -4.491 -0.25 +0.00    +0.066 A 
DOCKED: ATOM     16  C   UNL d   1     -13.378 -10.619  -5.306 -0.37 -0.00    -0.021 A 
DOCKED: ATOM     17  C   UNL d   1     -12.066 -10.324  -4.908 -0.43 +0.00    +0.000 A 
DOCKED: ATOM     18  C   UNL d   1     -11.790 -11.203  -3.866 -0.31 +0.01    +0.070 A 
DOCKED: ATOM     19  C   UNL d   1     -14.209  -9.968  -6.389 -0.40 -0.00    +0.052 C 
DOCKED: ATOM     20  C   UNL d   1     -10.212 -12.218  -2.181 -0.24 +0.03    +0.066 A 
DOCKED: ATOM     21  C   UNL d   1      -8.956 -12.248  -1.578 -0.26 -0.01    -0.025 A 
DOCKED: ATOM     22  C   UNL d   1      -8.996 -13.303  -0.685 -0.19 -0.01    -0.021 A 
DOCKED: ATOM     23  C   UNL d   1     -10.280 -13.877  -0.797 -0.10 +0.03    +0.066 A 
DOCKED: ATOM     24  C   UNL d   1      -7.769 -11.328  -1.853 -0.12 +0.03    +0.051 C 
DOCKED: ATOM     25  N   UNL d   1     -12.914 -15.200  -1.195 -0.11 -0.05    -0.248 N 
DOCKED: ATOM     26  N   UNL d   1     -14.759 -14.138  -2.986 -0.12 -0.03    -0.248 N 
DOCKED: ATOM     27  N   UNL d   1     -12.830 -12.005  -3.665 -0.15 -0.02    -0.248 N 
DOCKED: ATOM     28  N   UNL d   1     -11.018 -13.224  -1.703 -0.04 -0.08    -0.248 N 
DOCKED: ATOM     29 FE   UNL d   1     -12.867 -13.507  -2.502 -0.06 +0.00    +0.000 Fe
DOCKED: ENDROOT
DOCKED: BRANCH   6  30
DOCKED: ATOM     30  C   UNL d   1     -11.400 -17.741   1.151 -0.02 +0.02    +0.052 C 
DOCKED: BRANCH  30  31
DOCKED: ATOM     31  C   UNL d   1     -10.598 -18.769   0.353 +0.00 +0.04    +0.115 C 
DOCKED: BRANCH  31  32
DOCKED: ATOM     32  C   UNL d   1      -9.814 -18.139  -0.777 +0.00 +0.06    +0.139 C 
DOCKED: ATOM     33  O   UNL d   1     -10.397 -17.794  -1.794 +0.02 -0.27    -0.650 OA
DOCKED: BRANCH  32  34
DOCKED: ATOM     34  O   UNL d   1      -8.486 -17.897  -0.682 +0.03 -0.48    -0.776 OA
DOCKED: ATOM     35  H   UNL d   1      -8.057 -17.087  -0.988 +0.02 +0.14    +0.167 HD
DOCKED: ENDBRANCH  32  34
DOCKED: ENDBRANCH  31  32
DOCKED: ENDBRANCH  30  31
DOCKED: ENDBRANCH   6  30
DOCKED: BRANCH  29  36
DOCKED: ATOM     36  C   UNL d   1     -12.069 -14.792  -3.953 -0.10 +0.05    +0.190 C 
DOCKED: BRANCH  36  37
DOCKED: ATOM     37  O   UNL d   1     -11.358 -15.985  -4.115 -0.03 -0.14    -0.399 OA
DOCKED: ATOM     38  H   UNL d   1     -11.267 -16.356  -3.193 +0.04 +0.08    +0.209 HD
DOCKED: ENDBRANCH  36  37
DOCKED: ENDBRANCH  29  36
DOCKED: BRANCH  22  39
DOCKED: ATOM     39  C   UNL d   1      -7.838 -13.770   0.178 -0.19 +0.06    +0.052 C 
DOCKED: BRANCH  39  40
DOCKED: ATOM     40  C   UNL d   1      -6.541 -13.835  -0.644 -0.19 +0.18    +0.115 C 
DOCKED: BRANCH  40  41
DOCKED: ATOM     41  C   UNL d   1      -5.781 -15.138  -0.510 -0.07 +0.28    +0.139 C 
DOCKED: ATOM     42  O   UNL d   1      -6.146 -16.112  -1.153 -0.44 -1.17    -0.650 OA
DOCKED: BRANCH  41  43
DOCKED: ATOM     43  O   UNL d   1      -4.657 -15.232   0.235 -0.45 -1.83    -0.776 OA
DOCKED: ATOM     44  H   UNL d   1      -4.059 -15.988   0.179 +0.01 +0.31    +0.167 HD
DOCKED: ENDBRANCH  41  43
DOCKED: ENDBRANCH  40  41
DOCKED: ENDBRANCH  39  40
DOCKED: ENDBRANCH  22  39
DOCKED: BRANCH  12  45
DOCKED: ATOM     45  C   UNL d   1     -17.805 -13.318  -4.976 -0.06 +0.00    +0.004 C 
DOCKED: ATOM     46  C   UNL d   1     -18.463 -12.170  -4.845 -0.11 +0.00    +0.012 C 
DOCKED: ENDBRANCH  12  45
DOCKED: BRANCH  17  47
DOCKED: ATOM     47  C   UNL d   1     -11.097  -9.337  -5.472 -0.51 +0.00    +0.004 C 
DOCKED: ATOM     48  C   UNL d   1     -10.362  -8.514  -4.720 -0.45 +0.00    +0.012 C 
DOCKED: ENDBRANCH  17  47
DOCKED: TORSDOF 12
DOCKED: TER
DOCKED: ENDMDL
________________________________________________________________________________


	BEGINNING GENETIC ALGORITHM DOCKING 13 of 100
Run: 13 Seed: 1114287079 1707707448 [ Run 13 of 100 GA/GALS ]
Beginning LAMARCKIAN GENETIC ALGORITHM (LGA), with a maximum of 25000000 energy evaluations.

Final-Value: -12.542


	FINAL GENETIC ALGORITHM DOCKED STATE
	_______________________________________________


Detailed state:  trans -0.198 -15.833 -1.464 quatxyzw 0.393265 0.083210 -0.403832 0.821790 center 8.781 34.984 -0.736 ntor 12 -150.4364 132.0169 -49.6915 5.8084 10.8532 123.0051 33.4781 127.2198 -180.0000 -5.8408 179.9849 -155.7158
State:	 -0.198 -15.833  -1.464   0.690  0.146 -0.709 69.471   -150.44  132.02  -49.69    5.81   10.85  123.01   33.48  127.22 -180.00   -5.84  179.98 -155.72

DOCKED: MODEL       13
DOCKED: USER    Run = 13
DOCKED: USER    DPF = D:/Protein_go_brrr/autodock/final/AncA/heme_Co/dock.dpf
DOCKED: USER  
DOCKED: USER    Estimated Free Energy of Binding    =   -7.08 kcal/mol  [=(1)+(2)+(3)-(4)]
DOCKED: USER    Estimated Inhibition Constant, Ki   =    6.43 uM (micromolar)  [Temperature = 298.15 K]
DOCKED: USER    
DOCKED: USER    (1) Final Intermolecular Energy     =  -10.66 kcal/mol
DOCKED: USER        vdW + Hbond + desolv Energy     =   -6.18 kcal/mol
DOCKED: USER        Electrostatic Energy            =   -4.48 kcal/mol
DOCKED: USER    (2) Final Total Internal Energy     =   -1.88 kcal/mol
DOCKED: USER    (3) Torsional Free Energy           =   +3.58 kcal/mol
DOCKED: USER    (4) Unbound System's Energy  [=(2)] =   -1.88 kcal/mol
DOCKED: USER    
DOCKED: USER    
DOCKED: USER    NEWDPF move heme_Co_opt.pdbqt
DOCKED: USER    NEWDPF about 8.781000 34.984000 -0.736000
DOCKED: USER    NEWDPF tran0 -0.197673 -15.832624 -1.464021
DOCKED: USER    NEWDPF quaternion0 0.393265 0.083210 -0.403832 0.821790
DOCKED: USER    NEWDPF axisangle0 0.690192 0.146035 -0.708738 69.471311
DOCKED: USER    NEWDPF quat0 0.690192 0.146035 -0.708738 69.471311
DOCKED: USER    NEWDPF dihe0 -150.44 132.02 -49.69 5.81 10.85 123.01 33.48 127.22 -180.00 -5.84 179.98 -155.72 
DOCKED: USER  keepresnum = 1 
DOCKED: USER  
DOCKED: REMARK  12 active torsions:
DOCKED: REMARK  status: ('A' for Active; 'I' for Inactive)
DOCKED: REMARK    1  A    between atoms: C_6  and  C_10 
DOCKED: REMARK    2  A    between atoms: C_10  and  C_11 
DOCKED: REMARK    3  A    between atoms: C_11  and  C_12 
DOCKED: REMARK    4  A    between atoms: C_12  and  O_14 
DOCKED: REMARK    5  A    between atoms: C_17  and  C_20 
DOCKED: REMARK    6  A    between atoms: C_24  and  C_27 
DOCKED: REMARK    7  A    between atoms: C_31  and  C_34 
DOCKED: REMARK    8  A    between atoms: C_34  and  C_35 
DOCKED: REMARK    9  A    between atoms: C_35  and  C_36 
DOCKED: REMARK   10  A    between atoms: C_36  and  O_38 
DOCKED: REMARK   11  A    between atoms: FE_43  and  C_44 
DOCKED: REMARK   12  A    between atoms: C_44  and  O_45 
DOCKED: USER                              x       y       z     vdW  Elec       q    Type
DOCKED: USER                           _______ _______ _______ _____ _____    ______ ____
DOCKED: ROOT
DOCKED: ATOM      1  C   UNL d   1      -1.387 -17.554  -2.045 -0.03 +0.06    +0.064 A 
DOCKED: ATOM      2  C   UNL d   1      -0.662 -15.442   2.153 -0.06 +0.05    +0.064 C 
DOCKED: ATOM      3  C   UNL d   1       2.524 -12.491   0.161 -0.18 +0.02    +0.064 A 
DOCKED: ATOM      4  C   UNL d   1       1.517 -14.375  -4.210 -0.14 +0.03    +0.064 A 
DOCKED: ATOM      5  C   UNL d   1      -1.396 -17.218  -0.745 -0.03 +0.05    +0.066 A 
DOCKED: ATOM      6  C   UNL d   1      -2.273 -17.821   0.177 -0.03 -0.02    -0.021 A 
DOCKED: ATOM      7  C   UNL d   1      -2.075 -17.189   1.389 -0.07 -0.02    -0.025 A 
DOCKED: ATOM      8  C   UNL d   1      -1.074 -16.239   1.158 -0.08 +0.05    +0.066 A 
DOCKED: ATOM      9  C   UNL d   1      -2.792 -17.458   2.720 -0.05 +0.05    +0.051 C 
DOCKED: ATOM     10  C   UNL d   1       0.379 -14.455   2.017 -0.12 +0.04    +0.066 A 
DOCKED: ATOM     11  C   UNL d   1       0.954 -13.687   3.053 -0.19 -0.01    -0.021 A 
DOCKED: ATOM     12  C   UNL d   1       1.883 -12.837   2.445 -0.22 +0.00    +0.000 A 
DOCKED: ATOM     13  C   UNL d   1       1.815 -13.158   1.089 -0.15 +0.03    +0.070 A 
DOCKED: ATOM     14  C   UNL d   1       0.688 -13.838   4.529 -0.22 +0.03    +0.052 C 
DOCKED: ATOM     15  C   UNL d   1       2.537 -12.654  -1.280 -0.13 +0.02    +0.066 A 
DOCKED: ATOM     16  C   UNL d   1       3.183 -11.836  -2.195 -0.22 -0.01    -0.021 A 
DOCKED: ATOM     17  C   UNL d   1       2.893 -12.373  -3.457 -0.22 +0.00    +0.000 A 
DOCKED: ATOM     18  C   UNL d   1       2.104 -13.492  -3.210 -0.12 +0.03    +0.070 A 
DOCKED: ATOM     19  C   UNL d   1       4.016 -10.621  -1.850 +0.02 +0.01    +0.052 C 
DOCKED: ATOM     20  C   UNL d   1       0.676 -15.416  -3.998 -0.10 +0.04    +0.066 A 
DOCKED: ATOM     21  C   UNL d   1       0.148 -16.169  -5.044 -0.15 -0.02    -0.025 A 
DOCKED: ATOM     22  C   UNL d   1      -0.670 -17.112  -4.448 -0.09 -0.02    -0.021 A 
DOCKED: ATOM     23  C   UNL d   1      -0.609 -16.877  -3.058 -0.06 +0.05    +0.066 A 
DOCKED: ATOM     24  C   UNL d   1       0.394 -15.988  -6.539 -0.28 +0.03    +0.051 C 
DOCKED: ATOM     25  N   UNL d   1      -0.631 -16.238  -0.153 -0.02 -0.18    -0.248 N 
DOCKED: ATOM     26  N   UNL d   1       0.947 -14.175   0.839 -0.06 -0.12    -0.248 N 
DOCKED: ATOM     27  N   UNL d   1       1.887 -13.611  -1.905 -0.03 -0.10    -0.248 N 
DOCKED: ATOM     28  N   UNL d   1       0.203 -15.850  -2.782 -0.03 -0.17    -0.248 N 
DOCKED: ATOM     29 FE   UNL d   1       0.703 -14.849  -1.084 -0.02 +0.00    +0.000 Fe
DOCKED: ENDROOT
DOCKED: BRANCH   6  30
DOCKED: ATOM     30  C   UNL d   1      -3.309 -18.899  -0.125 -0.01 +0.04    +0.052 C 
DOCKED: BRANCH  30  31
DOCKED: ATOM     31  C   UNL d   1      -4.683 -18.273  -0.360 -0.03 +0.11    +0.115 C 
DOCKED: BRANCH  31  32
DOCKED: ATOM     32  C   UNL d   1      -4.669 -16.770  -0.189 -0.09 +0.21    +0.139 C 
DOCKED: ATOM     33  O   UNL d   1      -5.002 -16.283   0.882 -0.25 -1.40    -0.650 OA
DOCKED: BRANCH  32  34
DOCKED: ATOM     34  O   UNL d   1      -4.252 -15.939  -1.173 +0.04 -1.71    -0.776 OA
DOCKED: ATOM     35  H   UNL d   1      -3.896 -15.053  -1.021 +0.02 +0.39    +0.167 HD
DOCKED: ENDBRANCH  32  34
DOCKED: ENDBRANCH  31  32
DOCKED: ENDBRANCH  30  31
DOCKED: ENDBRANCH   6  30
DOCKED: BRANCH  29  36
DOCKED: ATOM     36  C   UNL d   1      -0.955 -13.585  -1.314 -0.15 +0.17    +0.190 C 
DOCKED: BRANCH  36  37
DOCKED: ATOM     37  O   UNL d   1      -2.339 -13.589  -1.515 -0.19 -0.60    -0.399 OA
DOCKED: ATOM     38  H   UNL d   1      -2.634 -14.505  -1.252 +0.04 +0.36    +0.209 HD
DOCKED: ENDBRANCH  36  37
DOCKED: ENDBRANCH  29  36
DOCKED: BRANCH  22  39
DOCKED: ATOM     39  C   UNL d   1      -1.513 -18.136  -5.185 -0.10 +0.05    +0.052 C 
DOCKED: BRANCH  39  40
DOCKED: ATOM     40  C   UNL d   1      -2.425 -17.450  -6.215 -0.16 +0.13    +0.115 C 
DOCKED: BRANCH  40  41
DOCKED: ATOM     41  C   UNL d   1      -3.100 -18.399  -7.183 +0.01 +0.22    +0.139 C 
DOCKED: ATOM     42  O   UNL d   1      -2.582 -18.613  -8.270 -0.54 -1.11    -0.650 OA
DOCKED: BRANCH  41  43
DOCKED: ATOM     43  O   UNL d   1      -4.214 -19.084  -6.844 -0.15 -1.49    -0.776 OA
DOCKED: ATOM     44  H   UNL d   1      -4.318 -19.516  -5.986 +0.02 +0.22    +0.167 HD
DOCKED: ENDBRANCH  41  43
DOCKED: ENDBRANCH  40  41
DOCKED: ENDBRANCH  39  40
DOCKED: ENDBRANCH  22  39
DOCKED: BRANCH  12  45
DOCKED: ATOM     45  C   UNL d   1       2.834 -11.780   2.988 -0.32 +0.00    +0.004 C 
DOCKED: ATOM     46  C   UNL d   1       3.012 -11.329   4.227 -0.34 +0.00    +0.012 C 
DOCKED: ENDBRANCH  12  45
DOCKED: BRANCH  17  47
DOCKED: ATOM     47  C   UNL d   1       3.266 -11.875  -4.815 -0.38 +0.00    +0.004 C 
DOCKED: ATOM     48  C   UNL d   1       3.799 -10.671  -5.038 -0.52 +0.00    +0.012 C 
DOCKED: ENDBRANCH  17  47
DOCKED: TORSDOF 12
DOCKED: TER
DOCKED: ENDMDL
________________________________________________________________________________


	BEGINNING GENETIC ALGORITHM DOCKING 14 of 100
Run: 14 Seed: 1926075495 290280410 [ Run 14 of 100 GA/GALS ]
Beginning LAMARCKIAN GENETIC ALGORITHM (LGA), with a maximum of 25000000 energy evaluations.

Final-Value: -10.147


	FINAL GENETIC ALGORITHM DOCKED STATE
	_______________________________________________


Detailed state:  trans 16.184 -0.659 5.188 quatxyzw 0.426301 0.145967 0.838801 0.305572 center 8.781 34.984 -0.736 ntor 12 168.7577 112.9890 31.0076 141.2397 122.5456 144.4024 -125.7091 148.0566 -142.0343 47.4043 180.0000 146.0084
State:	 16.184  -0.659   5.188   0.448  0.153  0.881 144.415    168.76  112.99   31.01  141.24  122.55  144.40 -125.71  148.06 -142.03   47.40  180.00  146.01

DOCKED: MODEL       14
DOCKED: USER    Run = 14
DOCKED: USER    DPF = D:/Protein_go_brrr/autodock/final/AncA/heme_Co/dock.dpf
DOCKED: USER  
DOCKED: USER    Estimated Free Energy of Binding    =   -3.90 kcal/mol  [=(1)+(2)+(3)-(4)]
DOCKED: USER    Estimated Inhibition Constant, Ki   =    1.40 mM (millimolar)  [Temperature = 298.15 K]
DOCKED: USER    
DOCKED: USER    (1) Final Intermolecular Energy     =   -7.48 kcal/mol
DOCKED: USER        vdW + Hbond + desolv Energy     =   -5.42 kcal/mol
DOCKED: USER        Electrostatic Energy            =   -2.06 kcal/mol
DOCKED: USER    (2) Final Total Internal Energy     =   -2.67 kcal/mol
DOCKED: USER    (3) Torsional Free Energy           =   +3.58 kcal/mol
DOCKED: USER    (4) Unbound System's Energy  [=(2)] =   -2.67 kcal/mol
DOCKED: USER    
DOCKED: USER    
DOCKED: USER    NEWDPF move heme_Co_opt.pdbqt
DOCKED: USER    NEWDPF about 8.781000 34.984000 -0.736000
DOCKED: USER    NEWDPF tran0 16.183601 -0.659348 5.187650
DOCKED: USER    NEWDPF quaternion0 0.426301 0.145967 0.838801 0.305572
DOCKED: USER    NEWDPF axisangle0 0.447716 0.153299 0.880937 144.414886
DOCKED: USER    NEWDPF quat0 0.447716 0.153299 0.880937 144.414886
DOCKED: USER    NEWDPF dihe0 168.76 112.99 31.01 141.24 122.55 144.40 -125.71 148.06 -142.03 47.40 180.00 146.01 
DOCKED: USER  keepresnum = 1 
DOCKED: USER  
DOCKED: REMARK  12 active torsions:
DOCKED: REMARK  status: ('A' for Active; 'I' for Inactive)
DOCKED: REMARK    1  A    between atoms: C_6  and  C_10 
DOCKED: REMARK    2  A    between atoms: C_10  and  C_11 
DOCKED: REMARK    3  A    between atoms: C_11  and  C_12 
DOCKED: REMARK    4  A    between atoms: C_12  and  O_14 
DOCKED: REMARK    5  A    between atoms: C_17  and  C_20 
DOCKED: REMARK    6  A    between atoms: C_24  and  C_27 
DOCKED: REMARK    7  A    between atoms: C_31  and  C_34 
DOCKED: REMARK    8  A    between atoms: C_34  and  C_35 
DOCKED: REMARK    9  A    between atoms: C_35  and  C_36 
DOCKED: REMARK   10  A    between atoms: C_36  and  O_38 
DOCKED: REMARK   11  A    between atoms: FE_43  and  C_44 
DOCKED: REMARK   12  A    between atoms: C_44  and  O_45 
DOCKED: USER                              x       y       z     vdW  Elec       q    Type
DOCKED: USER                           _______ _______ _______ _____ _____    ______ ____
DOCKED: ROOT
DOCKED: ATOM      1  C   UNL d   1      16.840  -0.722   3.119 -0.17 +0.03    +0.064 A 
DOCKED: ATOM      2  C   UNL d   1      16.917   2.727   6.391 -0.19 +0.01    +0.064 C 
DOCKED: ATOM      3  C   UNL d   1      14.537  -0.070   9.449 -0.08 +0.01    +0.064 A 
DOCKED: ATOM      4  C   UNL d   1      14.784  -3.739   6.264 -0.09 +0.01    +0.064 A 
DOCKED: ATOM      5  C   UNL d   1      17.004   0.438   3.775 -0.18 +0.02    +0.066 A 
DOCKED: ATOM      6  C   UNL d   1      17.734   1.510   3.226 -0.17 -0.01    -0.021 A 
DOCKED: ATOM      7  C   UNL d   1      17.772   2.500   4.189 -0.22 -0.01    -0.025 A 
DOCKED: ATOM      8  C   UNL d   1      17.051   1.996   5.277 -0.20 +0.01    +0.066 A 
DOCKED: ATOM      9  C   UNL d   1      18.458   3.872   4.104 -0.22 +0.01    +0.051 C 
DOCKED: ATOM     10  C   UNL d   1      16.171   2.302   7.550 -0.17 +0.01    +0.066 A 
DOCKED: ATOM     11  C   UNL d   1      15.876   3.076   8.693 -0.15 -0.00    -0.021 A 
DOCKED: ATOM     12  C   UNL d   1      15.178   2.238   9.566 -0.18 +0.00    +0.000 A 
DOCKED: ATOM     13  C   UNL d   1      15.088   1.022   8.889 -0.16 +0.01    +0.070 A 
DOCKED: ATOM     14  C   UNL d   1      16.166   4.544   8.876 -0.13 +0.01    +0.052 C 
DOCKED: ATOM     15  C   UNL d   1      14.409  -1.412   8.916 -0.04 +0.01    +0.066 A 
DOCKED: ATOM     16  C   UNL d   1      13.959  -2.531   9.602 -0.11 -0.00    -0.021 A 
DOCKED: ATOM     17  C   UNL d   1      14.031  -3.592   8.689 -0.12 +0.00    +0.000 A 
DOCKED: ATOM     18  C   UNL d   1      14.505  -3.031   7.508 -0.12 +0.01    +0.070 A 
DOCKED: ATOM     19  C   UNL d   1      13.499  -2.549  11.043 -0.11 -0.00    +0.052 C 
DOCKED: ATOM     20  C   UNL d   1      15.326  -3.232   5.131 -0.10 +0.01    +0.066 A 
DOCKED: ATOM     21  C   UNL d   1      15.581  -4.021   4.011 -0.10 -0.01    -0.025 A 
DOCKED: ATOM     22  C   UNL d   1      16.147  -3.172   3.078 -0.13 -0.01    -0.021 A 
DOCKED: ATOM     23  C   UNL d   1      16.221  -1.900   3.684 -0.16 +0.02    +0.066 A 
DOCKED: ATOM     24  C   UNL d   1      15.317  -5.515   3.845 -0.09 +0.01    +0.051 C 
DOCKED: ATOM     25  N   UNL d   1      16.558   0.723   5.046 -0.15 -0.04    -0.248 N 
DOCKED: ATOM     26  N   UNL d   1      15.640   1.079   7.647 -0.12 -0.04    -0.248 N 
DOCKED: ATOM     27  N   UNL d   1      14.747  -1.738   7.688 -0.01 -0.04    -0.248 N 
DOCKED: ATOM     28  N   UNL d   1      15.727  -1.932   4.927 -0.08 -0.05    -0.248 N 
DOCKED: ATOM     29 FE   UNL d   1      15.599  -0.583   6.443 -0.04 +0.00    +0.000 Fe
DOCKED: ENDROOT
DOCKED: BRANCH   6  30
DOCKED: ATOM     30  C   UNL d   1      18.427   1.538   1.869 -0.12 +0.03    +0.052 C 
DOCKED: BRANCH  30  31
DOCKED: ATOM     31  C   UNL d   1      19.905   1.176   2.013 -0.10 +0.05    +0.115 C 
DOCKED: BRANCH  31  32
DOCKED: ATOM     32  C   UNL d   1      20.140   0.121   3.073 -0.04 +0.04    +0.139 C 
DOCKED: ATOM     33  O   UNL d   1      20.387  -1.027   2.734 +0.01 -0.23    -0.650 OA
DOCKED: BRANCH  32  34
DOCKED: ATOM     34  O   UNL d   1      20.133   0.417   4.394 +0.04 -0.17    -0.776 OA
DOCKED: ATOM     35  H   UNL d   1      20.065  -0.242   5.098 +0.01 +0.03    +0.167 HD
DOCKED: ENDBRANCH  32  34
DOCKED: ENDBRANCH  31  32
DOCKED: ENDBRANCH  30  31
DOCKED: ENDBRANCH   6  30
DOCKED: BRANCH  29  36
DOCKED: ATOM     36  C   UNL d   1      17.519  -1.106   7.101 -0.02 +0.03    +0.190 C 
DOCKED: BRANCH  36  37
DOCKED: ATOM     37  O   UNL d   1      18.877  -0.977   6.792 +0.00 -0.06    -0.399 OA
DOCKED: ATOM     38  H   UNL d   1      18.898  -0.441   5.950 +0.02 +0.04    +0.209 HD
DOCKED: ENDBRANCH  36  37
DOCKED: ENDBRANCH  29  36
DOCKED: BRANCH  22  39
DOCKED: ATOM     39  C   UNL d   1      16.647  -3.582   1.705 -0.18 +0.03    +0.052 C 
DOCKED: BRANCH  39  40
DOCKED: ATOM     40  C   UNL d   1      18.177  -3.451   1.624 -0.10 +0.07    +0.115 C 
DOCKED: BRANCH  40  41
DOCKED: ATOM     41  C   UNL d   1      18.685  -2.860   0.326 +0.07 +0.18    +0.139 C 
DOCKED: ATOM     42  O   UNL d   1      18.666  -3.541  -0.690 -0.31 -0.89    -0.650 OA
DOCKED: BRANCH  41  43
DOCKED: ATOM     43  O   UNL d   1      19.080  -1.570   0.239 -0.31 -1.34    -0.776 OA
DOCKED: ATOM     44  H   UNL d   1      19.554  -1.123   0.952 +0.02 +0.16    +0.167 HD
DOCKED: ENDBRANCH  41  43
DOCKED: ENDBRANCH  40  41
DOCKED: ENDBRANCH  39  40
DOCKED: ENDBRANCH  22  39
DOCKED: BRANCH  12  45
DOCKED: ATOM     45  C   UNL d   1      14.572   2.450  10.947 -0.18 +0.00    +0.004 C 
DOCKED: ATOM     46  C   UNL d   1      13.373   2.126  11.426 -0.24 +0.00    +0.012 C 
DOCKED: ENDBRANCH  12  45
DOCKED: BRANCH  17  47
DOCKED: ATOM     47  C   UNL d   1      13.736  -5.043   8.887 -0.08 +0.00    +0.004 C 
DOCKED: ATOM     48  C   UNL d   1      12.600  -5.624   8.497 -0.12 +0.00    +0.012 C 
DOCKED: ENDBRANCH  17  47
DOCKED: TORSDOF 12
DOCKED: TER
DOCKED: ENDMDL
________________________________________________________________________________


	BEGINNING GENETIC ALGORITHM DOCKING 15 of 100
Run: 15 Seed: 2044317564 1604149484 [ Run 15 of 100 GA/GALS ]
Beginning LAMARCKIAN GENETIC ALGORITHM (LGA), with a maximum of 25000000 energy evaluations.

Final-Value: -13.133


	FINAL GENETIC ALGORITHM DOCKED STATE
	_______________________________________________


Detailed state:  trans -0.427 -15.290 -1.751 quatxyzw -0.347012 -0.055506 0.357227 -0.865385 center 8.781 34.984 -0.736 ntor 12 -180.0000 118.4716 47.2062 -28.3807 147.6244 133.6150 10.3004 111.2999 159.0962 16.5024 -164.6705 -51.8290
State:	 -0.427 -15.290  -1.751  -0.692 -0.111  0.713 -60.147   -180.00  118.47   47.21  -28.38  147.62  133.61   10.30  111.30  159.10   16.50 -164.67  -51.83

DOCKED: MODEL       15
DOCKED: USER    Run = 15
DOCKED: USER    DPF = D:/Protein_go_brrr/autodock/final/AncA/heme_Co/dock.dpf
DOCKED: USER  
DOCKED: USER    Estimated Free Energy of Binding    =   -7.90 kcal/mol  [=(1)+(2)+(3)-(4)]
DOCKED: USER    Estimated Inhibition Constant, Ki   =    1.63 uM (micromolar)  [Temperature = 298.15 K]
DOCKED: USER    
DOCKED: USER    (1) Final Intermolecular Energy     =  -11.48 kcal/mol
DOCKED: USER        vdW + Hbond + desolv Energy     =   -7.31 kcal/mol
DOCKED: USER        Electrostatic Energy            =   -4.16 kcal/mol
DOCKED: USER    (2) Final Total Internal Energy     =   -1.66 kcal/mol
DOCKED: USER    (3) Torsional Free Energy           =   +3.58 kcal/mol
DOCKED: USER    (4) Unbound System's Energy  [=(2)] =   -1.66 kcal/mol
DOCKED: USER    
DOCKED: USER    
DOCKED: USER    NEWDPF move heme_Co_opt.pdbqt
DOCKED: USER    NEWDPF about 8.781000 34.984000 -0.736000
DOCKED: USER    NEWDPF tran0 -0.426821 -15.290397 -1.751301
DOCKED: USER    NEWDPF quaternion0 -0.347012 -0.055506 0.357227 -0.865385
DOCKED: USER    NEWDPF axisangle0 -0.692489 -0.110766 0.712874 -60.146654
DOCKED: USER    NEWDPF quat0 -0.692489 -0.110766 0.712874 -60.146654
DOCKED: USER    NEWDPF dihe0 -180.00 118.47 47.21 -28.38 147.62 133.61 10.30 111.30 159.10 16.50 -164.67 -51.83 
DOCKED: USER  keepresnum = 1 
DOCKED: USER  
DOCKED: REMARK  12 active torsions:
DOCKED: REMARK  status: ('A' for Active; 'I' for Inactive)
DOCKED: REMARK    1  A    between atoms: C_6  and  C_10 
DOCKED: REMARK    2  A    between atoms: C_10  and  C_11 
DOCKED: REMARK    3  A    between atoms: C_11  and  C_12 
DOCKED: REMARK    4  A    between atoms: C_12  and  O_14 
DOCKED: REMARK    5  A    between atoms: C_17  and  C_20 
DOCKED: REMARK    6  A    between atoms: C_24  and  C_27 
DOCKED: REMARK    7  A    between atoms: C_31  and  C_34 
DOCKED: REMARK    8  A    between atoms: C_34  and  C_35 
DOCKED: REMARK    9  A    between atoms: C_35  and  C_36 
DOCKED: REMARK   10  A    between atoms: C_36  and  O_38 
DOCKED: REMARK   11  A    between atoms: FE_43  and  C_44 
DOCKED: REMARK   12  A    between atoms: C_44  and  O_45 
DOCKED: USER                              x       y       z     vdW  Elec       q    Type
DOCKED: USER                           _______ _______ _______ _____ _____    ______ ____
DOCKED: ROOT
DOCKED: ATOM      1  C   UNL d   1      -1.853 -16.787  -2.417 -0.07 +0.08    +0.064 A 
DOCKED: ATOM      2  C   UNL d   1      -0.666 -15.205   1.907 -0.05 +0.05    +0.064 C 
DOCKED: ATOM      3  C   UNL d   1       2.774 -12.486   0.010 -0.17 +0.02    +0.064 A 
DOCKED: ATOM      4  C   UNL d   1       1.328 -13.790  -4.448 -0.20 +0.03    +0.064 A 
DOCKED: ATOM      5  C   UNL d   1      -1.757 -16.582  -1.093 -0.06 +0.07    +0.066 A 
DOCKED: ATOM      6  C   UNL d   1      -2.660 -17.161  -0.180 -0.07 -0.02    -0.021 A 
DOCKED: ATOM      7  C   UNL d   1      -2.325 -16.681   1.071 -0.07 -0.03    -0.025 A 
DOCKED: ATOM      8  C   UNL d   1      -1.223 -15.843   0.870 -0.09 +0.06    +0.066 A 
DOCKED: ATOM      9  C   UNL d   1      -3.007 -16.989   2.412 -0.01 +0.07    +0.051 C 
DOCKED: ATOM     10  C   UNL d   1       0.486 -14.344   1.801 -0.12 +0.04    +0.066 A 
DOCKED: ATOM     11  C   UNL d   1       1.202 -13.759   2.868 -0.17 -0.01    -0.021 A 
DOCKED: ATOM     12  C   UNL d   1       2.202 -12.974   2.286 -0.19 +0.00    +0.000 A 
DOCKED: ATOM     13  C   UNL d   1       2.030 -13.149   0.913 -0.14 +0.03    +0.070 A 
DOCKED: ATOM     14  C   UNL d   1       0.989 -14.021   4.336 -0.18 +0.03    +0.052 C 
DOCKED: ATOM     15  C   UNL d   1       2.698 -12.506  -1.438 -0.14 +0.02    +0.066 A 
DOCKED: ATOM     16  C   UNL d   1       3.399 -11.687  -2.311 -0.24 -0.00    -0.021 A 
DOCKED: ATOM     17  C   UNL d   1       2.984 -12.057  -3.598 -0.25 +0.00    +0.000 A 
DOCKED: ATOM     18  C   UNL d   1       2.071 -13.089  -3.408 -0.16 +0.03    +0.070 A 
DOCKED: ATOM     19  C   UNL d   1       4.397 -10.624  -1.906 -0.15 +0.01    +0.052 C 
DOCKED: ATOM     20  C   UNL d   1       0.373 -14.736  -4.284 -0.16 +0.04    +0.066 A 
DOCKED: ATOM     21  C   UNL d   1      -0.297 -15.312  -5.361 -0.26 -0.02    -0.025 A 
DOCKED: ATOM     22  C   UNL d   1      -1.200 -16.201  -4.807 -0.16 -0.02    -0.021 A 
DOCKED: ATOM     23  C   UNL d   1      -1.044 -16.114  -3.408 -0.11 +0.07    +0.066 A 
DOCKED: ATOM     24  C   UNL d   1      -0.101 -15.016  -6.846 -0.34 +0.03    +0.051 C 
DOCKED: ATOM     25  N   UNL d   1      -0.846 -15.767  -0.460 -0.04 -0.20    -0.248 N 
DOCKED: ATOM     26  N   UNL d   1       1.028 -14.021   0.623 -0.06 -0.12    -0.248 N 
DOCKED: ATOM     27  N   UNL d   1       1.902 -13.309  -2.109 -0.05 -0.10    -0.248 N 
DOCKED: ATOM     28  N   UNL d   1      -0.094 -15.227  -3.086 -0.06 -0.19    -0.248 N 
DOCKED: ATOM     29 FE   UNL d   1       0.609 -14.467  -1.337 -0.02 +0.00    +0.000 Fe
DOCKED: ENDROOT
DOCKED: BRANCH   6  30
DOCKED: ATOM     30  C   UNL d   1      -3.838 -18.069  -0.518 -0.04 +0.05    +0.052 C 
DOCKED: BRANCH  30  31
DOCKED: ATOM     31  C   UNL d   1      -5.037 -17.242  -0.982 -0.07 +0.16    +0.115 C 
DOCKED: BRANCH  31  32
DOCKED: ATOM     32  C   UNL d   1      -4.979 -15.813  -0.488 -0.10 +0.27    +0.139 C 
DOCKED: ATOM     33  O   UNL d   1      -5.872 -15.389   0.232 -0.56 -1.35    -0.650 OA
DOCKED: BRANCH  32  34
DOCKED: ATOM     34  O   UNL d   1      -3.941 -14.995  -0.778 +0.05 -1.71    -0.776 OA
DOCKED: ATOM     35  H   UNL d   1      -3.898 -14.061  -0.528 +0.03 +0.33    +0.167 HD
DOCKED: ENDBRANCH  32  34
DOCKED: ENDBRANCH  31  32
DOCKED: ENDBRANCH  30  31
DOCKED: ENDBRANCH   6  30
DOCKED: BRANCH  29  36
DOCKED: ATOM     36  C   UNL d   1      -0.882 -12.993  -1.351 -0.18 +0.15    +0.190 C 
DOCKED: BRANCH  36  37
DOCKED: ATOM     37  O   UNL d   1      -2.268 -12.810  -1.312 -0.18 -0.47    -0.399 OA
DOCKED: ATOM     38  H   UNL d   1      -2.644 -13.723  -1.172 +0.06 +0.33    +0.209 HD
DOCKED: ENDBRANCH  36  37
DOCKED: ENDBRANCH  29  36
DOCKED: BRANCH  22  39
DOCKED: ATOM     39  C   UNL d   1      -2.201 -17.036  -5.584 -0.14 +0.06    +0.052 C 
DOCKED: BRANCH  39  40
DOCKED: ATOM     40  C   UNL d   1      -1.509 -17.773  -6.743 -0.17 +0.10    +0.115 C 
DOCKED: BRANCH  40  41
DOCKED: ATOM     41  C   UNL d   1      -2.460 -18.421  -7.727 -0.12 +0.19    +0.139 C 
DOCKED: ATOM     42  O   UNL d   1      -2.531 -19.641  -7.775 -0.34 -1.07    -0.650 OA
DOCKED: BRANCH  41  43
DOCKED: ATOM     43  O   UNL d   1      -3.298 -17.688  -8.494 -0.38 -1.35    -0.776 OA
DOCKED: ATOM     44  H   UNL d   1      -2.989 -16.966  -9.056 +0.07 +0.19    +0.167 HD
DOCKED: ENDBRANCH  41  43
DOCKED: ENDBRANCH  40  41
DOCKED: ENDBRANCH  39  40
DOCKED: ENDBRANCH  22  39
DOCKED: BRANCH  12  45
DOCKED: ATOM     45  C   UNL d   1       3.306 -12.100   2.867 -0.24 +0.00    +0.004 C 
DOCKED: ATOM     46  C   UNL d   1       3.313 -11.314   3.940 -0.31 +0.00    +0.012 C 
DOCKED: ENDBRANCH  12  45
DOCKED: BRANCH  17  47
DOCKED: ATOM     47  C   UNL d   1       3.353 -11.477  -4.923 -0.41 +0.00    +0.004 C 
DOCKED: ATOM     48  C   UNL d   1       3.837 -12.201  -5.936 -0.48 +0.00    +0.012 C 
DOCKED: ENDBRANCH  17  47
DOCKED: TORSDOF 12
DOCKED: TER
DOCKED: ENDMDL
________________________________________________________________________________


	BEGINNING GENETIC ALGORITHM DOCKING 16 of 100
Run: 16 Seed: 708118274 1719697715 [ Run 16 of 100 GA/GALS ]
Beginning LAMARCKIAN GENETIC ALGORITHM (LGA), with a maximum of 25000000 energy evaluations.

Final-Value: -13.101


	FINAL GENETIC ALGORITHM DOCKED STATE
	_______________________________________________


Detailed state:  trans -0.319 -15.366 -1.514 quatxyzw 0.340568 0.013225 -0.382065 0.858991 center 8.781 34.984 -0.736 ntor 12 117.3564 128.2603 -8.6381 -17.0906 131.8030 132.4394 -137.4191 -116.1016 -123.0192 34.8588 171.5072 -45.7923
State:	 -0.319 -15.366  -1.514   0.665  0.026 -0.746 61.593    117.36  128.26   -8.64  -17.09  131.80  132.44 -137.42 -116.10 -123.02   34.86  171.51  -45.79

DOCKED: MODEL       16
DOCKED: USER    Run = 16
DOCKED: USER    DPF = D:/Protein_go_brrr/autodock/final/AncA/heme_Co/dock.dpf
DOCKED: USER  
DOCKED: USER    Estimated Free Energy of Binding    =   -7.83 kcal/mol  [=(1)+(2)+(3)-(4)]
DOCKED: USER    Estimated Inhibition Constant, Ki   =    1.81 uM (micromolar)  [Temperature = 298.15 K]
DOCKED: USER    
DOCKED: USER    (1) Final Intermolecular Energy     =  -11.41 kcal/mol
DOCKED: USER        vdW + Hbond + desolv Energy     =   -6.85 kcal/mol
DOCKED: USER        Electrostatic Energy            =   -4.56 kcal/mol
DOCKED: USER    (2) Final Total Internal Energy     =   -1.69 kcal/mol
DOCKED: USER    (3) Torsional Free Energy           =   +3.58 kcal/mol
DOCKED: USER    (4) Unbound System's Energy  [=(2)] =   -1.69 kcal/mol
DOCKED: USER    
DOCKED: USER    
DOCKED: USER    NEWDPF move heme_Co_opt.pdbqt
DOCKED: USER    NEWDPF about 8.781000 34.984000 -0.736000
DOCKED: USER    NEWDPF tran0 -0.319461 -15.365832 -1.514076
DOCKED: USER    NEWDPF quaternion0 0.340568 0.013225 -0.382065 0.858991
DOCKED: USER    NEWDPF axisangle0 0.665183 0.025831 -0.746233 61.593120
DOCKED: USER    NEWDPF quat0 0.665183 0.025831 -0.746233 61.593120
DOCKED: USER    NEWDPF dihe0 117.36 128.26 -8.64 -17.09 131.80 132.44 -137.42 -116.10 -123.02 34.86 171.51 -45.79 
DOCKED: USER  keepresnum = 1 
DOCKED: USER  
DOCKED: REMARK  12 active torsions:
DOCKED: REMARK  status: ('A' for Active; 'I' for Inactive)
DOCKED: REMARK    1  A    between atoms: C_6  and  C_10 
DOCKED: REMARK    2  A    between atoms: C_10  and  C_11 
DOCKED: REMARK    3  A    between atoms: C_11  and  C_12 
DOCKED: REMARK    4  A    between atoms: C_12  and  O_14 
DOCKED: REMARK    5  A    between atoms: C_17  and  C_20 
DOCKED: REMARK    6  A    between atoms: C_24  and  C_27 
DOCKED: REMARK    7  A    between atoms: C_31  and  C_34 
DOCKED: REMARK    8  A    between atoms: C_34  and  C_35 
DOCKED: REMARK    9  A    between atoms: C_35  and  C_36 
DOCKED: REMARK   10  A    between atoms: C_36  and  O_38 
DOCKED: REMARK   11  A    between atoms: FE_43  and  C_44 
DOCKED: REMARK   12  A    between atoms: C_44  and  O_45 
DOCKED: USER                              x       y       z     vdW  Elec       q    Type
DOCKED: USER                           _______ _______ _______ _____ _____    ______ ____
DOCKED: ROOT
DOCKED: ATOM      1  C   UNL d   1      -1.771 -16.905  -2.004 -0.06 +0.07    +0.064 A 
DOCKED: ATOM      2  C   UNL d   1      -0.215 -15.186   2.147 -0.12 +0.04    +0.064 C 
DOCKED: ATOM      3  C   UNL d   1       2.976 -12.458  -0.135 -0.16 +0.02    +0.064 A 
DOCKED: ATOM      4  C   UNL d   1       1.144 -13.909  -4.402 -0.20 +0.03    +0.064 A 
DOCKED: ATOM      5  C   UNL d   1      -1.556 -16.662  -0.700 -0.05 +0.06    +0.066 A 
DOCKED: ATOM      6  C   UNL d   1      -2.357 -17.233   0.308 -0.06 -0.02    -0.021 A 
DOCKED: ATOM      7  C   UNL d   1      -1.916 -16.713   1.509 -0.07 -0.02    -0.025 A 
DOCKED: ATOM      8  C   UNL d   1      -0.855 -15.861   1.184 -0.08 +0.05    +0.066 A 
DOCKED: ATOM      9  C   UNL d   1      -2.463 -16.996   2.916 -0.06 +0.06    +0.051 C 
DOCKED: ATOM     10  C   UNL d   1       0.904 -14.308   1.912 -0.12 +0.03    +0.066 A 
DOCKED: ATOM     11  C   UNL d   1       1.705 -13.681   2.890 -0.15 -0.01    -0.021 A 
DOCKED: ATOM     12  C   UNL d   1       2.630 -12.895   2.197 -0.17 +0.00    +0.000 A 
DOCKED: ATOM     13  C   UNL d   1       2.334 -13.110   0.851 -0.13 +0.02    +0.070 A 
DOCKED: ATOM     14  C   UNL d   1       1.636 -13.907   4.379 -0.15 +0.02    +0.052 C 
DOCKED: ATOM     15  C   UNL d   1       2.764 -12.519  -1.568 -0.14 +0.02    +0.066 A 
DOCKED: ATOM     16  C   UNL d   1       3.364 -11.712  -2.523 -0.24 -0.00    -0.021 A 
DOCKED: ATOM     17  C   UNL d   1       2.837 -12.124  -3.756 -0.26 +0.00    +0.000 A 
DOCKED: ATOM     18  C   UNL d   1       1.967 -13.167  -3.455 -0.16 +0.03    +0.070 A 
DOCKED: ATOM     19  C   UNL d   1       4.373 -10.621  -2.241 -0.21 +0.01    +0.052 C 
DOCKED: ATOM     20  C   UNL d   1       0.227 -14.867  -4.124 -0.15 +0.05    +0.066 A 
DOCKED: ATOM     21  C   UNL d   1      -0.529 -15.483  -5.118 -0.22 -0.02    -0.025 A 
DOCKED: ATOM     22  C   UNL d   1      -1.358 -16.372  -4.459 -0.13 -0.02    -0.021 A 
DOCKED: ATOM     23  C   UNL d   1      -1.072 -16.245  -3.083 -0.10 +0.07    +0.066 A 
DOCKED: ATOM     24  C   UNL d   1      -0.479 -15.223  -6.622 -0.38 +0.03    +0.051 C 
DOCKED: ATOM     25  N   UNL d   1      -0.606 -15.815  -0.177 -0.03 -0.19    -0.248 N 
DOCKED: ATOM     26  N   UNL d   1       1.326 -14.007   0.679 -0.05 -0.11    -0.248 N 
DOCKED: ATOM     27  N   UNL d   1       1.925 -13.354  -2.140 -0.05 -0.10    -0.248 N 
DOCKED: ATOM     28  N   UNL d   1      -0.115 -15.333  -2.876 -0.05 -0.19    -0.248 N 
DOCKED: ATOM     29 FE   UNL d   1       0.734 -14.513  -1.220 -0.02 +0.00    +0.000 Fe
DOCKED: ENDROOT
DOCKED: BRANCH   6  30
DOCKED: ATOM     30  C   UNL d   1      -3.543 -18.170   0.106 -0.04 +0.05    +0.052 C 
DOCKED: BRANCH  30  31
DOCKED: ATOM     31  C   UNL d   1      -4.860 -17.424   0.322 -0.07 +0.14    +0.115 C 
DOCKED: BRANCH  31  32
DOCKED: ATOM     32  C   UNL d   1      -4.978 -16.196  -0.555 -0.07 +0.25    +0.139 C 
DOCKED: ATOM     33  O   UNL d   1      -5.531 -16.283  -1.641 -0.04 -1.55    -0.650 OA
DOCKED: BRANCH  32  34
DOCKED: ATOM     34  O   UNL d   1      -4.530 -14.982  -0.155 -0.33 -1.76    -0.776 OA
DOCKED: ATOM     35  H   UNL d   1      -3.787 -14.516  -0.561 +0.02 +0.34    +0.167 HD
DOCKED: ENDBRANCH  32  34
DOCKED: ENDBRANCH  31  32
DOCKED: ENDBRANCH  30  31
DOCKED: ENDBRANCH   6  30
DOCKED: BRANCH  29  36
DOCKED: ATOM     36  C   UNL d   1      -0.781 -13.067  -1.130 -0.17 +0.15    +0.190 C 
DOCKED: BRANCH  36  37
DOCKED: ATOM     37  O   UNL d   1      -2.163 -12.908  -0.983 -0.14 -0.45    -0.399 OA
DOCKED: ATOM     38  H   UNL d   1      -2.487 -13.789  -0.645 +0.05 +0.29    +0.209 HD
DOCKED: ENDBRANCH  36  37
DOCKED: ENDBRANCH  29  36
DOCKED: BRANCH  22  39
DOCKED: ATOM     39  C   UNL d   1      -2.410 -17.246  -5.116 -0.12 +0.07    +0.052 C 
DOCKED: BRANCH  39  40
DOCKED: ATOM     40  C   UNL d   1      -1.783 -18.113  -6.221 -0.13 +0.11    +0.115 C 
DOCKED: BRANCH  40  41
DOCKED: ATOM     41  C   UNL d   1      -2.727 -18.464  -7.351 -0.06 +0.20    +0.139 C 
DOCKED: ATOM     42  O   UNL d   1      -3.710 -17.764  -7.549 -0.41 -1.12    -0.650 OA
DOCKED: BRANCH  41  43
DOCKED: ATOM     43  O   UNL d   1      -2.467 -19.479  -8.204 -0.29 -1.39    -0.776 OA
DOCKED: ATOM     44  H   UNL d   1      -1.659 -20.006  -8.154 +0.03 +0.19    +0.167 HD
DOCKED: ENDBRANCH  41  43
DOCKED: ENDBRANCH  40  41
DOCKED: ENDBRANCH  39  40
DOCKED: ENDBRANCH  22  39
DOCKED: BRANCH  12  45
DOCKED: ATOM     45  C   UNL d   1       3.765 -11.986   2.649 -0.22 +0.00    +0.004 C 
DOCKED: ATOM     46  C   UNL d   1       3.944 -11.325   3.789 -0.25 +0.00    +0.012 C 
DOCKED: ENDBRANCH  12  45
DOCKED: BRANCH  17  47
DOCKED: ATOM     47  C   UNL d   1       3.068 -11.574  -5.124 -0.38 +0.00    +0.004 C 
DOCKED: ATOM     48  C   UNL d   1       3.748 -12.221  -6.074 -0.50 +0.00    +0.012 C 
DOCKED: ENDBRANCH  17  47
DOCKED: TORSDOF 12
DOCKED: TER
DOCKED: ENDMDL
________________________________________________________________________________


	BEGINNING GENETIC ALGORITHM DOCKING 17 of 100
Run: 17 Seed: 254614005 2104691711 [ Run 17 of 100 GA/GALS ]
Beginning LAMARCKIAN GENETIC ALGORITHM (LGA), with a maximum of 25000000 energy evaluations.

Final-Value: -12.899


	FINAL GENETIC ALGORITHM DOCKED STATE
	_______________________________________________


Detailed state:  trans -0.390 -15.744 -1.649 quatxyzw 0.411303 0.040039 -0.405125 0.815537 center 8.781 34.984 -0.736 ntor 12 138.0622 164.9163 -20.9393 37.4481 136.3210 120.1248 -116.0097 -174.6348 -142.2094 -28.7084 173.6915 164.5705
State:	 -0.390 -15.744  -1.649   0.711  0.069 -0.700 70.719    138.06  164.92  -20.94   37.45  136.32  120.12 -116.01 -174.63 -142.21  -28.71  173.69  164.57

DOCKED: MODEL       17
DOCKED: USER    Run = 17
DOCKED: USER    DPF = D:/Protein_go_brrr/autodock/final/AncA/heme_Co/dock.dpf
DOCKED: USER  
DOCKED: USER    Estimated Free Energy of Binding    =   -7.52 kcal/mol  [=(1)+(2)+(3)-(4)]
DOCKED: USER    Estimated Inhibition Constant, Ki   =    3.10 uM (micromolar)  [Temperature = 298.15 K]
DOCKED: USER    
DOCKED: USER    (1) Final Intermolecular Energy     =  -11.10 kcal/mol
DOCKED: USER        vdW + Hbond + desolv Energy     =   -6.64 kcal/mol
DOCKED: USER        Electrostatic Energy            =   -4.45 kcal/mol
DOCKED: USER    (2) Final Total Internal Energy     =   -1.80 kcal/mol
DOCKED: USER    (3) Torsional Free Energy           =   +3.58 kcal/mol
DOCKED: USER    (4) Unbound System's Energy  [=(2)] =   -1.80 kcal/mol
DOCKED: USER    
DOCKED: USER    
DOCKED: USER    NEWDPF move heme_Co_opt.pdbqt
DOCKED: USER    NEWDPF about 8.781000 34.984000 -0.736000
DOCKED: USER    NEWDPF tran0 -0.390167 -15.743637 -1.649043
DOCKED: USER    NEWDPF quaternion0 0.411303 0.040039 -0.405125 0.815537
DOCKED: USER    NEWDPF axisangle0 0.710730 0.069187 -0.700055 70.719044
DOCKED: USER    NEWDPF quat0 0.710730 0.069187 -0.700055 70.719044
DOCKED: USER    NEWDPF dihe0 138.06 164.92 -20.94 37.45 136.32 120.12 -116.01 -174.63 -142.21 -28.71 173.69 164.57 
DOCKED: USER  keepresnum = 1 
DOCKED: USER  
DOCKED: REMARK  12 active torsions:
DOCKED: REMARK  status: ('A' for Active; 'I' for Inactive)
DOCKED: REMARK    1  A    between atoms: C_6  and  C_10 
DOCKED: REMARK    2  A    between atoms: C_10  and  C_11 
DOCKED: REMARK    3  A    between atoms: C_11  and  C_12 
DOCKED: REMARK    4  A    between atoms: C_12  and  O_14 
DOCKED: REMARK    5  A    between atoms: C_17  and  C_20 
DOCKED: REMARK    6  A    between atoms: C_24  and  C_27 
DOCKED: REMARK    7  A    between atoms: C_31  and  C_34 
DOCKED: REMARK    8  A    between atoms: C_34  and  C_35 
DOCKED: REMARK    9  A    between atoms: C_35  and  C_36 
DOCKED: REMARK   10  A    between atoms: C_36  and  O_38 
DOCKED: REMARK   11  A    between atoms: FE_43  and  C_44 
DOCKED: REMARK   12  A    between atoms: C_44  and  O_45 
DOCKED: USER                              x       y       z     vdW  Elec       q    Type
DOCKED: USER                           _______ _______ _______ _____ _____    ______ ____
DOCKED: ROOT
DOCKED: ATOM      1  C   UNL d   1      -1.658 -17.462  -2.041 -0.04 +0.06    +0.064 A 
DOCKED: ATOM      2  C   UNL d   1      -0.635 -15.091   1.952 -0.05 +0.05    +0.064 C 
DOCKED: ATOM      3  C   UNL d   1       2.512 -12.387  -0.416 -0.18 +0.02    +0.064 A 
DOCKED: ATOM      4  C   UNL d   1       1.204 -14.533  -4.581 -0.18 +0.03    +0.064 A 
DOCKED: ATOM      5  C   UNL d   1      -1.583 -17.037  -0.769 -0.04 +0.06    +0.066 A 
DOCKED: ATOM      6  C   UNL d   1      -2.423 -17.548   0.240 -0.04 -0.02    -0.021 A 
DOCKED: ATOM      7  C   UNL d   1      -2.138 -16.841   1.391 -0.07 -0.03    -0.025 A 
DOCKED: ATOM      8  C   UNL d   1      -1.126 -15.941   1.040 -0.09 +0.06    +0.066 A 
DOCKED: ATOM      9  C   UNL d   1      -2.785 -16.994   2.776 -0.03 +0.06    +0.051 C 
DOCKED: ATOM     10  C   UNL d   1       0.424 -14.149   1.689 -0.13 +0.04    +0.066 A 
DOCKED: ATOM     11  C   UNL d   1       1.078 -13.330   2.635 -0.20 -0.01    -0.021 A 
DOCKED: ATOM     12  C   UNL d   1       1.993 -12.554   1.918 -0.24 +0.00    +0.000 A 
DOCKED: ATOM     13  C   UNL d   1       1.839 -12.965   0.594 -0.16 +0.03    +0.070 A 
DOCKED: ATOM     14  C   UNL d   1       0.893 -13.371   4.130 -0.25 +0.03    +0.052 C 
DOCKED: ATOM     15  C   UNL d   1       2.438 -12.648  -1.840 -0.13 +0.02    +0.066 A 
DOCKED: ATOM     16  C   UNL d   1       3.053 -11.916  -2.845 -0.23 -0.01    -0.021 A 
DOCKED: ATOM     17  C   UNL d   1       2.676 -12.529  -4.049 -0.24 +0.00    +0.000 A 
DOCKED: ATOM     18  C   UNL d   1       1.872 -13.602  -3.680 -0.14 +0.03    +0.070 A 
DOCKED: ATOM     19  C   UNL d   1       3.938 -10.707  -2.633 -0.21 +0.01    +0.052 C 
DOCKED: ATOM     20  C   UNL d   1       0.348 -15.530  -4.250 -0.11 +0.04    +0.066 A 
DOCKED: ATOM     21  C   UNL d   1      -0.260 -16.336  -5.210 -0.16 -0.02    -0.025 A 
DOCKED: ATOM     22  C   UNL d   1      -1.069 -17.209  -4.505 -0.10 -0.02    -0.021 A 
DOCKED: ATOM     23  C   UNL d   1      -0.921 -16.882  -3.141 -0.07 +0.06    +0.066 A 
DOCKED: ATOM     24  C   UNL d   1      -0.095 -16.266  -6.726 -0.30 +0.03    +0.051 C 
DOCKED: ATOM     25  N   UNL d   1      -0.759 -16.045  -0.291 -0.03 -0.19    -0.248 N 
DOCKED: ATOM     26  N   UNL d   1       0.930 -13.968   0.465 -0.06 -0.12    -0.248 N 
DOCKED: ATOM     27  N   UNL d   1       1.727 -13.625  -2.360 -0.04 -0.10    -0.248 N 
DOCKED: ATOM     28  N   UNL d   1      -0.066 -15.864  -2.982 -0.04 -0.19    -0.248 N 
DOCKED: ATOM     29 FE   UNL d   1       0.557 -14.765  -1.390 -0.02 +0.00    +0.000 Fe
DOCKED: ENDROOT
DOCKED: BRANCH   6  30
DOCKED: ATOM     30  C   UNL d   1      -3.504 -18.611   0.073 -0.02 +0.04    +0.052 C 
DOCKED: BRANCH  30  31
DOCKED: ATOM     31  C   UNL d   1      -4.889 -17.966   0.026 -0.04 +0.12    +0.115 C 
DOCKED: BRANCH  31  32
DOCKED: ATOM     32  C   UNL d   1      -4.880 -16.631  -0.686 -0.06 +0.23    +0.139 C 
DOCKED: ATOM     33  O   UNL d   1      -5.489 -16.508  -1.739 -0.02 -1.47    -0.650 OA
DOCKED: BRANCH  32  34
DOCKED: ATOM     34  O   UNL d   1      -4.256 -15.546  -0.171 -0.25 -1.58    -0.776 OA
DOCKED: ATOM     35  H   UNL d   1      -3.677 -14.960  -0.678 +0.02 +0.34    +0.167 HD
DOCKED: ENDBRANCH  32  34
DOCKED: ENDBRANCH  31  32
DOCKED: ENDBRANCH  30  31
DOCKED: ENDBRANCH   6  30
DOCKED: BRANCH  29  36
DOCKED: ATOM     36  C   UNL d   1      -1.074 -13.468  -1.616 -0.16 +0.18    +0.190 C 
DOCKED: BRANCH  36  37
DOCKED: ATOM     37  O   UNL d   1      -2.463 -13.443  -1.782 -0.29 -0.65    -0.399 OA
DOCKED: ATOM     38  H   UNL d   1      -2.819 -14.017  -1.047 +0.05 +0.35    +0.209 HD
DOCKED: ENDBRANCH  36  37
DOCKED: ENDBRANCH  29  36
DOCKED: BRANCH  22  39
DOCKED: ATOM     39  C   UNL d   1      -1.980 -18.255  -5.120 -0.11 +0.05    +0.052 C 
DOCKED: BRANCH  39  40
DOCKED: ATOM     40  C   UNL d   1      -3.403 -17.700  -5.293 -0.15 +0.16    +0.115 C 
DOCKED: BRANCH  40  41
DOCKED: ATOM     41  C   UNL d   1      -4.129 -18.213  -6.519 -0.17 +0.22    +0.139 C 
DOCKED: ATOM     42  O   UNL d   1      -3.501 -18.404  -7.551 -0.46 -1.32    -0.650 OA
DOCKED: BRANCH  41  43
DOCKED: ATOM     43  O   UNL d   1      -5.437 -18.551  -6.480 +0.01 -1.25    -0.776 OA
DOCKED: ATOM     44  H   UNL d   1      -5.916 -18.679  -5.651 +0.03 +0.20    +0.167 HD
DOCKED: ENDBRANCH  41  43
DOCKED: ENDBRANCH  40  41
DOCKED: ENDBRANCH  39  40
DOCKED: ENDBRANCH  22  39
DOCKED: BRANCH  12  45
DOCKED: ATOM     45  C   UNL d   1       3.003 -11.492   2.332 -0.34 +0.00    +0.004 C 
DOCKED: ATOM     46  C   UNL d   1       3.672 -11.330   3.471 -0.28 +0.00    +0.012 C 
DOCKED: ENDBRANCH  12  45
DOCKED: BRANCH  17  47
DOCKED: ATOM     47  C   UNL d   1       2.985 -12.138  -5.456 -0.36 +0.00    +0.004 C 
DOCKED: ATOM     48  C   UNL d   1       3.730 -12.878  -6.281 -0.48 +0.00    +0.012 C 
DOCKED: ENDBRANCH  17  47
DOCKED: TORSDOF 12
DOCKED: TER
DOCKED: ENDMDL
________________________________________________________________________________


	BEGINNING GENETIC ALGORITHM DOCKING 18 of 100
Run: 18 Seed: 1847890443 1050157058 [ Run 18 of 100 GA/GALS ]
Beginning LAMARCKIAN GENETIC ALGORITHM (LGA), with a maximum of 25000000 energy evaluations.

Final-Value: -12.801


	FINAL GENETIC ALGORITHM DOCKED STATE
	_______________________________________________


Detailed state:  trans -0.700 -16.063 -1.480 quatxyzw -0.425029 0.003115 0.420115 -0.801775 center 8.781 34.984 -0.736 ntor 12 165.3541 120.0660 30.3266 40.2745 84.6365 141.1276 -121.0759 1.3848 -156.7881 -52.5281 -172.2331 180.0000
State:	 -0.700 -16.063  -1.480  -0.711  0.005  0.703 -73.400    165.35  120.07   30.33   40.27   84.64  141.13 -121.08    1.38 -156.79  -52.53 -172.23  180.00

DOCKED: MODEL       18
DOCKED: USER    Run = 18
DOCKED: USER    DPF = D:/Protein_go_brrr/autodock/final/AncA/heme_Co/dock.dpf
DOCKED: USER  
DOCKED: USER    Estimated Free Energy of Binding    =   -7.18 kcal/mol  [=(1)+(2)+(3)-(4)]
DOCKED: USER    Estimated Inhibition Constant, Ki   =    5.45 uM (micromolar)  [Temperature = 298.15 K]
DOCKED: USER    
DOCKED: USER    (1) Final Intermolecular Energy     =  -10.76 kcal/mol
DOCKED: USER        vdW + Hbond + desolv Energy     =   -6.33 kcal/mol
DOCKED: USER        Electrostatic Energy            =   -4.43 kcal/mol
DOCKED: USER    (2) Final Total Internal Energy     =   -2.04 kcal/mol
DOCKED: USER    (3) Torsional Free Energy           =   +3.58 kcal/mol
DOCKED: USER    (4) Unbound System's Energy  [=(2)] =   -2.04 kcal/mol
DOCKED: USER    
DOCKED: USER    
DOCKED: USER    NEWDPF move heme_Co_opt.pdbqt
DOCKED: USER    NEWDPF about 8.781000 34.984000 -0.736000
DOCKED: USER    NEWDPF tran0 -0.699805 -16.063494 -1.479975
DOCKED: USER    NEWDPF quaternion0 -0.425029 0.003115 0.420115 -0.801775
DOCKED: USER    NEWDPF axisangle0 -0.711197 0.005212 0.702974 -73.400066
DOCKED: USER    NEWDPF quat0 -0.711197 0.005212 0.702974 -73.400066
DOCKED: USER    NEWDPF dihe0 165.35 120.07 30.33 40.27 84.64 141.13 -121.08 1.38 -156.79 -52.53 -172.23 180.00 
DOCKED: USER  keepresnum = 1 
DOCKED: USER  
DOCKED: REMARK  12 active torsions:
DOCKED: REMARK  status: ('A' for Active; 'I' for Inactive)
DOCKED: REMARK    1  A    between atoms: C_6  and  C_10 
DOCKED: REMARK    2  A    between atoms: C_10  and  C_11 
DOCKED: REMARK    3  A    between atoms: C_11  and  C_12 
DOCKED: REMARK    4  A    between atoms: C_12  and  O_14 
DOCKED: REMARK    5  A    between atoms: C_17  and  C_20 
DOCKED: REMARK    6  A    between atoms: C_24  and  C_27 
DOCKED: REMARK    7  A    between atoms: C_31  and  C_34 
DOCKED: REMARK    8  A    between atoms: C_34  and  C_35 
DOCKED: REMARK    9  A    between atoms: C_35  and  C_36 
DOCKED: REMARK   10  A    between atoms: C_36  and  O_38 
DOCKED: REMARK   11  A    between atoms: FE_43  and  C_44 
DOCKED: REMARK   12  A    between atoms: C_44  and  O_45 
DOCKED: USER                              x       y       z     vdW  Elec       q    Type
DOCKED: USER                           _______ _______ _______ _____ _____    ______ ____
DOCKED: ROOT
DOCKED: ATOM      1  C   UNL d   1      -1.990 -17.801  -1.661 -0.03 +0.06    +0.064 A 
DOCKED: ATOM      2  C   UNL d   1      -0.692 -15.161   2.075 -0.01 +0.05    +0.064 C 
DOCKED: ATOM      3  C   UNL d   1       2.277 -12.639  -0.692 -0.15 +0.02    +0.064 A 
DOCKED: ATOM      4  C   UNL d   1       0.682 -15.066  -4.594 -0.16 +0.04    +0.064 A 
DOCKED: ATOM      5  C   UNL d   1      -1.826 -17.289  -0.430 -0.04 +0.06    +0.066 A 
DOCKED: ATOM      6  C   UNL d   1      -2.592 -17.725   0.669 -0.05 -0.02    -0.021 A 
DOCKED: ATOM      7  C   UNL d   1      -2.227 -16.940   1.745 -0.07 -0.03    -0.025 A 
DOCKED: ATOM      8  C   UNL d   1      -1.244 -16.070   1.261 -0.08 +0.06    +0.066 A 
DOCKED: ATOM      9  C   UNL d   1      -2.775 -16.994   3.179 -0.02 +0.06    +0.051 C 
DOCKED: ATOM     10  C   UNL d   1       0.345 -14.242   1.673 -0.13 +0.04    +0.066 A 
DOCKED: ATOM     11  C   UNL d   1       1.063 -13.362   2.511 -0.19 -0.01    -0.021 A 
DOCKED: ATOM     12  C   UNL d   1       1.924 -12.641   1.679 -0.23 +0.00    +0.000 A 
DOCKED: ATOM     13  C   UNL d   1       1.678 -13.143   0.401 -0.14 +0.03    +0.070 A 
DOCKED: ATOM     14  C   UNL d   1       0.983 -13.298   4.015 -0.26 +0.03    +0.052 C 
DOCKED: ATOM     15  C   UNL d   1       2.103 -12.999  -2.085 -0.12 +0.02    +0.066 A 
DOCKED: ATOM     16  C   UNL d   1       2.645 -12.340  -3.180 -0.21 -0.01    -0.021 A 
DOCKED: ATOM     17  C   UNL d   1       2.185 -13.035  -4.308 -0.24 +0.00    +0.000 A 
DOCKED: ATOM     18  C   UNL d   1       1.411 -14.077  -3.810 -0.13 +0.03    +0.070 A 
DOCKED: ATOM     19  C   UNL d   1       3.541 -11.123  -3.116 -0.29 +0.01    +0.052 C 
DOCKED: ATOM     20  C   UNL d   1      -0.147 -16.035  -4.135 -0.11 +0.05    +0.066 A 
DOCKED: ATOM     21  C   UNL d   1      -0.820 -16.904  -4.991 -0.13 -0.02    -0.025 A 
DOCKED: ATOM     22  C   UNL d   1      -1.576 -17.722  -4.172 -0.08 -0.02    -0.021 A 
DOCKED: ATOM     23  C   UNL d   1      -1.333 -17.301  -2.847 -0.06 +0.06    +0.066 A 
DOCKED: ATOM     24  C   UNL d   1      -0.762 -16.940  -6.516 -0.23 +0.04    +0.051 C 
DOCKED: ATOM     25  N   UNL d   1      -0.971 -16.268  -0.082 -0.03 -0.20    -0.248 N 
DOCKED: ATOM     26  N   UNL d   1       0.764 -14.150   0.407 -0.06 -0.13    -0.248 N 
DOCKED: ATOM     27  N   UNL d   1       1.359 -14.007  -2.484 -0.04 -0.12    -0.248 N 
DOCKED: ATOM     28  N   UNL d   1      -0.470 -16.278  -2.821 -0.04 -0.21    -0.248 N 
DOCKED: ATOM     29 FE   UNL d   1       0.262 -15.072  -1.357 -0.02 +0.00    +0.000 Fe
DOCKED: ENDROOT
DOCKED: BRANCH   6  30
DOCKED: ATOM     30  C   UNL d   1      -3.680 -18.793   0.653 -0.02 +0.04    +0.052 C 
DOCKED: BRANCH  30  31
DOCKED: ATOM     31  C   UNL d   1      -5.035 -18.174   0.311 -0.03 +0.11    +0.115 C 
DOCKED: BRANCH  31  32
DOCKED: ATOM     32  C   UNL d   1      -4.900 -16.849  -0.407 -0.09 +0.21    +0.139 C 
DOCKED: ATOM     33  O   UNL d   1      -5.193 -16.774  -1.591 -0.02 -1.28    -0.650 OA
DOCKED: BRANCH  32  34
DOCKED: ATOM     34  O   UNL d   1      -4.507 -15.722   0.233 -0.41 -1.62    -0.776 OA
DOCKED: ATOM     35  H   UNL d   1      -4.161 -14.937  -0.212 +0.02 +0.36    +0.167 HD
DOCKED: ENDBRANCH  32  34
DOCKED: ENDBRANCH  31  32
DOCKED: ENDBRANCH  30  31
DOCKED: ENDBRANCH   6  30
DOCKED: BRANCH  29  36
DOCKED: ATOM     36  C   UNL d   1      -1.383 -13.789  -1.558 -0.16 +0.20    +0.190 C 
DOCKED: BRANCH  36  37
DOCKED: ATOM     37  O   UNL d   1      -2.760 -13.698  -1.328 -0.17 -0.68    -0.399 OA
DOCKED: ATOM     38  H   UNL d   1      -2.991 -14.527  -0.822 +0.04 +0.37    +0.209 HD
DOCKED: ENDBRANCH  36  37
DOCKED: ENDBRANCH  29  36
DOCKED: BRANCH  22  39
DOCKED: ATOM     39  C   UNL d   1      -2.527 -18.805  -4.647 -0.07 +0.05    +0.052 C 
DOCKED: BRANCH  39  40
DOCKED: ATOM     40  C   UNL d   1      -3.853 -18.191  -5.123 -0.14 +0.15    +0.115 C 
DOCKED: BRANCH  40  41
DOCKED: ATOM     41  C   UNL d   1      -4.210 -18.513  -6.559 -0.11 +0.23    +0.139 C 
DOCKED: ATOM     42  O   UNL d   1      -5.371 -18.773  -6.843 +0.00 -1.22    -0.650 OA
DOCKED: BRANCH  41  43
DOCKED: ATOM     43  O   UNL d   1      -3.297 -18.435  -7.552 -0.51 -1.48    -0.776 OA
DOCKED: ATOM     44  H   UNL d   1      -2.372 -18.685  -7.429 +0.04 +0.22    +0.167 HD
DOCKED: ENDBRANCH  41  43
DOCKED: ENDBRANCH  40  41
DOCKED: ENDBRANCH  39  40
DOCKED: ENDBRANCH  22  39
DOCKED: BRANCH  12  45
DOCKED: ATOM     45  C   UNL d   1       2.959 -11.557   1.946 -0.34 +0.00    +0.004 C 
DOCKED: ATOM     46  C   UNL d   1       3.742 -11.347   3.001 -0.26 +0.00    +0.012 C 
DOCKED: ENDBRANCH  12  45
DOCKED: BRANCH  17  47
DOCKED: ATOM     47  C   UNL d   1       2.393 -12.744  -5.758 -0.28 +0.00    +0.004 C 
DOCKED: ATOM     48  C   UNL d   1       3.592 -12.751  -6.347 -0.49 +0.00    +0.012 C 
DOCKED: ENDBRANCH  17  47
DOCKED: TORSDOF 12
DOCKED: TER
DOCKED: ENDMDL
________________________________________________________________________________


	BEGINNING GENETIC ALGORITHM DOCKING 19 of 100
Run: 19 Seed: 1284678936 446158533 [ Run 19 of 100 GA/GALS ]
Beginning LAMARCKIAN GENETIC ALGORITHM (LGA), with a maximum of 25000000 energy evaluations.

Final-Value: -12.641


	FINAL GENETIC ALGORITHM DOCKED STATE
	_______________________________________________


Detailed state:  trans 0.058 -15.794 -1.741 quatxyzw 0.414843 0.092476 -0.394609 0.814640 center 8.781 34.984 -0.736 ntor 12 -145.3404 112.4429 27.6952 16.6974 -13.1801 137.6295 22.5481 5.2469 174.4047 -9.2646 177.6898 170.0783
State:	  0.058 -15.794  -1.741   0.715  0.159 -0.680 70.896   -145.34  112.44   27.70   16.70  -13.18  137.63   22.55    5.25  174.40   -9.26  177.69  170.08

DOCKED: MODEL       19
DOCKED: USER    Run = 19
DOCKED: USER    DPF = D:/Protein_go_brrr/autodock/final/AncA/heme_Co/dock.dpf
DOCKED: USER  
DOCKED: USER    Estimated Free Energy of Binding    =   -7.20 kcal/mol  [=(1)+(2)+(3)-(4)]
DOCKED: USER    Estimated Inhibition Constant, Ki   =    5.24 uM (micromolar)  [Temperature = 298.15 K]
DOCKED: USER    
DOCKED: USER    (1) Final Intermolecular Energy     =  -10.78 kcal/mol
DOCKED: USER        vdW + Hbond + desolv Energy     =   -6.47 kcal/mol
DOCKED: USER        Electrostatic Energy            =   -4.32 kcal/mol
DOCKED: USER    (2) Final Total Internal Energy     =   -1.86 kcal/mol
DOCKED: USER    (3) Torsional Free Energy           =   +3.58 kcal/mol
DOCKED: USER    (4) Unbound System's Energy  [=(2)] =   -1.86 kcal/mol
DOCKED: USER    
DOCKED: USER    
DOCKED: USER    NEWDPF move heme_Co_opt.pdbqt
DOCKED: USER    NEWDPF about 8.781000 34.984000 -0.736000
DOCKED: USER    NEWDPF tran0 0.058345 -15.794458 -1.741005
DOCKED: USER    NEWDPF quaternion0 0.414843 0.092476 -0.394609 0.814640
DOCKED: USER    NEWDPF axisangle0 0.715286 0.159451 -0.680398 70.896496
DOCKED: USER    NEWDPF quat0 0.715286 0.159451 -0.680398 70.896496
DOCKED: USER    NEWDPF dihe0 -145.34 112.44 27.70 16.70 -13.18 137.63 22.55 5.25 174.40 -9.26 177.69 170.08 
DOCKED: USER  keepresnum = 1 
DOCKED: USER  
DOCKED: REMARK  12 active torsions:
DOCKED: REMARK  status: ('A' for Active; 'I' for Inactive)
DOCKED: REMARK    1  A    between atoms: C_6  and  C_10 
DOCKED: REMARK    2  A    between atoms: C_10  and  C_11 
DOCKED: REMARK    3  A    between atoms: C_11  and  C_12 
DOCKED: REMARK    4  A    between atoms: C_12  and  O_14 
DOCKED: REMARK    5  A    between atoms: C_17  and  C_20 
DOCKED: REMARK    6  A    between atoms: C_24  and  C_27 
DOCKED: REMARK    7  A    between atoms: C_31  and  C_34 
DOCKED: REMARK    8  A    between atoms: C_34  and  C_35 
DOCKED: REMARK    9  A    between atoms: C_35  and  C_36 
DOCKED: REMARK   10  A    between atoms: C_36  and  O_38 
DOCKED: REMARK   11  A    between atoms: FE_43  and  C_44 
DOCKED: REMARK   12  A    between atoms: C_44  and  O_45 
DOCKED: USER                              x       y       z     vdW  Elec       q    Type
DOCKED: USER                           _______ _______ _______ _____ _____    ______ ____
DOCKED: ROOT
DOCKED: ATOM      1  C   UNL d   1      -1.117 -17.528  -2.316 -0.03 +0.05    +0.064 A 
DOCKED: ATOM      2  C   UNL d   1      -0.551 -15.286   1.839 -0.10 +0.05    +0.064 C 
DOCKED: ATOM      3  C   UNL d   1       2.733 -12.416  -0.113 -0.18 +0.02    +0.064 A 
DOCKED: ATOM      4  C   UNL d   1       1.893 -14.434  -4.459 -0.15 +0.03    +0.064 A 
DOCKED: ATOM      5  C   UNL d   1      -1.177 -17.150  -1.028 -0.03 +0.05    +0.066 A 
DOCKED: ATOM      6  C   UNL d   1      -2.096 -17.719  -0.124 -0.03 -0.02    -0.021 A 
DOCKED: ATOM      7  C   UNL d   1      -1.943 -17.049   1.074 -0.07 -0.02    -0.025 A 
DOCKED: ATOM      8  C   UNL d   1      -0.927 -16.112   0.855 -0.07 +0.05    +0.066 A 
DOCKED: ATOM      9  C   UNL d   1      -2.716 -17.271   2.383 -0.06 +0.06    +0.051 C 
DOCKED: ATOM     10  C   UNL d   1       0.501 -14.308   1.715 -0.12 +0.04    +0.066 A 
DOCKED: ATOM     11  C   UNL d   1       1.037 -13.510   2.749 -0.19 -0.01    -0.021 A 
DOCKED: ATOM     12  C   UNL d   1       1.996 -12.686   2.152 -0.23 +0.00    +0.000 A 
DOCKED: ATOM     13  C   UNL d   1       1.982 -13.049   0.806 -0.15 +0.03    +0.070 A 
DOCKED: ATOM     14  C   UNL d   1       0.710 -13.613   4.216 -0.22 +0.03    +0.052 C 
DOCKED: ATOM     15  C   UNL d   1       2.803 -12.626  -1.546 -0.13 +0.02    +0.066 A 
DOCKED: ATOM     16  C   UNL d   1       3.491 -11.840  -2.459 -0.22 -0.00    -0.021 A 
DOCKED: ATOM     17  C   UNL d   1       3.250 -12.417  -3.715 -0.22 +0.00    +0.000 A 
DOCKED: ATOM     18  C   UNL d   1       2.445 -13.523  -3.465 -0.12 +0.03    +0.070 A 
DOCKED: ATOM     19  C   UNL d   1       4.318 -10.620  -2.120 -0.17 +0.01    +0.052 C 
DOCKED: ATOM     20  C   UNL d   1       1.038 -15.464  -4.249 -0.10 +0.04    +0.066 A 
DOCKED: ATOM     21  C   UNL d   1       0.548 -16.248  -5.291 -0.15 -0.02    -0.025 A 
DOCKED: ATOM     22  C   UNL d   1      -0.300 -17.167  -4.700 -0.09 -0.02    -0.021 A 
DOCKED: ATOM     23  C   UNL d   1      -0.294 -16.888  -3.317 -0.05 +0.05    +0.066 A 
DOCKED: ATOM     24  C   UNL d   1       0.856 -16.116  -6.780 -0.21 +0.03    +0.051 C 
DOCKED: ATOM     25  N   UNL d   1      -0.431 -16.156  -0.437 -0.02 -0.18    -0.248 N 
DOCKED: ATOM     26  N   UNL d   1       1.118 -14.069   0.553 -0.05 -0.12    -0.248 N 
DOCKED: ATOM     27  N   UNL d   1       2.174 -13.598  -2.166 -0.03 -0.09    -0.248 N 
DOCKED: ATOM     28  N   UNL d   1       0.513 -15.856  -3.040 -0.02 -0.16    -0.248 N 
DOCKED: ATOM     29 FE   UNL d   1       0.948 -14.803  -1.356 -0.02 +0.00    +0.000 Fe
DOCKED: ENDROOT
DOCKED: BRANCH   6  30
DOCKED: ATOM     30  C   UNL d   1      -3.125 -18.801  -0.434 -0.01 +0.04    +0.052 C 
DOCKED: BRANCH  30  31
DOCKED: ATOM     31  C   UNL d   1      -4.497 -18.179  -0.689 -0.03 +0.12    +0.115 C 
DOCKED: BRANCH  31  32
DOCKED: ATOM     32  C   UNL d   1      -4.523 -16.695  -0.395 -0.10 +0.22    +0.139 C 
DOCKED: ATOM     33  O   UNL d   1      -5.101 -16.290   0.603 -0.31 -1.30    -0.650 OA
DOCKED: BRANCH  32  34
DOCKED: ATOM     34  O   UNL d   1      -3.881 -15.797  -1.178 +0.08 -1.69    -0.776 OA
DOCKED: ATOM     35  H   UNL d   1      -3.508 -14.964  -0.857 +0.02 +0.34    +0.167 HD
DOCKED: ENDBRANCH  32  34
DOCKED: ENDBRANCH  31  32
DOCKED: ENDBRANCH  30  31
DOCKED: ENDBRANCH   6  30
DOCKED: BRANCH  29  36
DOCKED: ATOM     36  C   UNL d   1      -0.690 -13.540  -1.694 -0.14 +0.16    +0.190 C 
DOCKED: BRANCH  36  37
DOCKED: ATOM     37  O   UNL d   1      -2.087 -13.515  -1.740 -0.18 -0.56    -0.399 OA
DOCKED: ATOM     38  H   UNL d   1      -2.367 -14.453  -1.544 +0.05 +0.36    +0.209 HD
DOCKED: ENDBRANCH  36  37
DOCKED: ENDBRANCH  29  36
DOCKED: BRANCH  22  39
DOCKED: ATOM     39  C   UNL d   1      -1.118 -18.210  -5.437 -0.09 +0.04    +0.052 C 
DOCKED: BRANCH  39  40
DOCKED: ATOM     40  C   UNL d   1      -2.484 -17.637  -5.849 -0.17 +0.13    +0.115 C 
DOCKED: BRANCH  40  41
DOCKED: ATOM     41  C   UNL d   1      -3.222 -18.463  -6.881 -0.14 +0.21    +0.139 C 
DOCKED: ATOM     42  O   UNL d   1      -4.440 -18.560  -6.811 -0.20 -1.17    -0.650 OA
DOCKED: BRANCH  41  43
DOCKED: ATOM     43  O   UNL d   1      -2.583 -19.027  -7.930 -0.46 -1.33    -0.776 OA
DOCKED: ATOM     44  H   UNL d   1      -1.678 -19.361  -7.868 +0.04 +0.18    +0.167 HD
DOCKED: ENDBRANCH  41  43
DOCKED: ENDBRANCH  40  41
DOCKED: ENDBRANCH  39  40
DOCKED: ENDBRANCH  22  39
DOCKED: BRANCH  12  45
DOCKED: ATOM     45  C   UNL d   1       2.931 -11.616   2.700 -0.33 +0.00    +0.004 C 
DOCKED: ATOM     46  C   UNL d   1       3.198 -11.258   3.953 -0.32 +0.00    +0.012 C 
DOCKED: ENDBRANCH  12  45
DOCKED: BRANCH  17  47
DOCKED: ATOM     47  C   UNL d   1       3.682 -11.964  -5.071 -0.40 +0.00    +0.004 C 
DOCKED: ATOM     48  C   UNL d   1       3.790 -10.680  -5.420 -0.54 +0.00    +0.012 C 
DOCKED: ENDBRANCH  17  47
DOCKED: TORSDOF 12
DOCKED: TER
DOCKED: ENDMDL
________________________________________________________________________________


	BEGINNING GENETIC ALGORITHM DOCKING 20 of 100
Run: 20 Seed: 956992818 964153057 [ Run 20 of 100 GA/GALS ]
Beginning LAMARCKIAN GENETIC ALGORITHM (LGA), with a maximum of 25000000 energy evaluations.

Final-Value: -13.415


	FINAL GENETIC ALGORITHM DOCKED STATE
	_______________________________________________


Detailed state:  trans -0.318 -15.726 -2.249 quatxyzw 0.413838 0.051852 -0.407292 0.812504 center 8.781 34.984 -0.736 ntor 12 -102.7701 125.7836 11.2182 44.1335 139.2216 140.5642 34.0181 179.1918 164.2964 -39.5888 180.0000 147.9440
State:	 -0.318 -15.726  -2.249   0.710  0.089 -0.699 71.317   -102.77  125.78   11.22   44.13  139.22  140.56   34.02  179.19  164.30  -39.59  180.00  147.94

DOCKED: MODEL       20
DOCKED: USER    Run = 20
DOCKED: USER    DPF = D:/Protein_go_brrr/autodock/final/AncA/heme_Co/dock.dpf
DOCKED: USER  
DOCKED: USER    Estimated Free Energy of Binding    =   -8.02 kcal/mol  [=(1)+(2)+(3)-(4)]
DOCKED: USER    Estimated Inhibition Constant, Ki   =    1.32 uM (micromolar)  [Temperature = 298.15 K]
DOCKED: USER    
DOCKED: USER    (1) Final Intermolecular Energy     =  -11.60 kcal/mol
DOCKED: USER        vdW + Hbond + desolv Energy     =   -6.98 kcal/mol
DOCKED: USER        Electrostatic Energy            =   -4.62 kcal/mol
DOCKED: USER    (2) Final Total Internal Energy     =   -1.81 kcal/mol
DOCKED: USER    (3) Torsional Free Energy           =   +3.58 kcal/mol
DOCKED: USER    (4) Unbound System's Energy  [=(2)] =   -1.81 kcal/mol
DOCKED: USER    
DOCKED: USER    
DOCKED: USER    NEWDPF move heme_Co_opt.pdbqt
DOCKED: USER    NEWDPF about 8.781000 34.984000 -0.736000
DOCKED: USER    NEWDPF tran0 -0.317698 -15.725576 -2.248557
DOCKED: USER    NEWDPF quaternion0 0.413838 0.051852 -0.407292 0.812504
DOCKED: USER    NEWDPF axisangle0 0.709896 0.088947 -0.698667 71.317464
DOCKED: USER    NEWDPF quat0 0.709896 0.088947 -0.698667 71.317464
DOCKED: USER    NEWDPF dihe0 -102.77 125.78 11.22 44.13 139.22 140.56 34.02 179.19 164.30 -39.59 180.00 147.94 
DOCKED: USER  keepresnum = 1 
DOCKED: USER  
DOCKED: REMARK  12 active torsions:
DOCKED: REMARK  status: ('A' for Active; 'I' for Inactive)
DOCKED: REMARK    1  A    between atoms: C_6  and  C_10 
DOCKED: REMARK    2  A    between atoms: C_10  and  C_11 
DOCKED: REMARK    3  A    between atoms: C_11  and  C_12 
DOCKED: REMARK    4  A    between atoms: C_12  and  O_14 
DOCKED: REMARK    5  A    between atoms: C_17  and  C_20 
DOCKED: REMARK    6  A    between atoms: C_24  and  C_27 
DOCKED: REMARK    7  A    between atoms: C_31  and  C_34 
DOCKED: REMARK    8  A    between atoms: C_34  and  C_35 
DOCKED: REMARK    9  A    between atoms: C_35  and  C_36 
DOCKED: REMARK   10  A    between atoms: C_36  and  O_38 
DOCKED: REMARK   11  A    between atoms: FE_43  and  C_44 
DOCKED: REMARK   12  A    between atoms: C_44  and  O_45 
DOCKED: USER                              x       y       z     vdW  Elec       q    Type
DOCKED: USER                           _______ _______ _______ _____ _____    ______ ____
DOCKED: ROOT
DOCKED: ATOM      1  C   UNL d   1      -1.551 -17.462  -2.670 -0.05 +0.06    +0.064 A 
DOCKED: ATOM      2  C   UNL d   1      -0.644 -15.088   1.348 -0.10 +0.05    +0.064 C 
DOCKED: ATOM      3  C   UNL d   1       2.507 -12.328  -0.950 -0.17 +0.02    +0.064 A 
DOCKED: ATOM      4  C   UNL d   1       1.315 -14.482  -5.145 -0.23 +0.03    +0.064 A 
DOCKED: ATOM      5  C   UNL d   1      -1.508 -17.040  -1.396 -0.04 +0.06    +0.066 A 
DOCKED: ATOM      6  C   UNL d   1      -2.359 -17.567  -0.405 -0.04 -0.02    -0.021 A 
DOCKED: ATOM      7  C   UNL d   1      -2.108 -16.858   0.754 -0.07 -0.02    -0.025 A 
DOCKED: ATOM      8  C   UNL d   1      -1.103 -15.942   0.425 -0.08 +0.06    +0.066 A 
DOCKED: ATOM      9  C   UNL d   1      -2.779 -17.026   2.125 -0.06 +0.06    +0.051 C 
DOCKED: ATOM     10  C   UNL d   1       0.405 -14.128   1.109 -0.13 +0.04    +0.066 A 
DOCKED: ATOM     11  C   UNL d   1       1.028 -13.302   2.070 -0.19 -0.01    -0.021 A 
DOCKED: ATOM     12  C   UNL d   1       1.945 -12.510   1.374 -0.24 +0.00    +0.000 A 
DOCKED: ATOM     13  C   UNL d   1       1.824 -12.920   0.045 -0.15 +0.03    +0.070 A 
DOCKED: ATOM     14  C   UNL d   1       0.814 -13.350   3.561 -0.20 +0.03    +0.052 C 
DOCKED: ATOM     15  C   UNL d   1       2.465 -12.586  -2.376 -0.15 +0.02    +0.066 A 
DOCKED: ATOM     16  C   UNL d   1       3.088 -11.841  -3.366 -0.25 -0.01    -0.021 A 
DOCKED: ATOM     17  C   UNL d   1       2.745 -12.457  -4.578 -0.28 +0.00    +0.000 A 
DOCKED: ATOM     18  C   UNL d   1       1.951 -13.544  -4.229 -0.18 +0.03    +0.070 A 
DOCKED: ATOM     19  C   UNL d   1       3.950 -10.620  -3.134 -0.32 +0.01    +0.052 C 
DOCKED: ATOM     20  C   UNL d   1       0.469 -15.493  -4.834 -0.15 +0.04    +0.066 A 
DOCKED: ATOM     21  C   UNL d   1      -0.108 -16.306  -5.808 -0.20 -0.02    -0.025 A 
DOCKED: ATOM     22  C   UNL d   1      -0.917 -17.193  -5.121 -0.12 -0.02    -0.021 A 
DOCKED: ATOM     23  C   UNL d   1      -0.802 -16.867  -3.753 -0.08 +0.06    +0.066 A 
DOCKED: ATOM     24  C   UNL d   1       0.086 -16.229  -7.320 -0.26 +0.03    +0.051 C 
DOCKED: ATOM     25  N   UNL d   1      -0.708 -16.036  -0.899 -0.03 -0.20    -0.248 N 
DOCKED: ATOM     26  N   UNL d   1       0.933 -13.936  -0.104 -0.05 -0.12    -0.248 N 
DOCKED: ATOM     27  N   UNL d   1       1.780 -13.572  -2.912 -0.06 -0.10    -0.248 N 
DOCKED: ATOM     28  N   UNL d   1       0.034 -15.837  -3.575 -0.05 -0.19    -0.248 N 
DOCKED: ATOM     29 FE   UNL d   1       0.609 -14.733  -1.968 -0.02 +0.00    +0.000 Fe
DOCKED: ENDROOT
DOCKED: BRANCH   6  30
DOCKED: ATOM     30  C   UNL d   1      -3.420 -18.646  -0.596 -0.02 +0.04    +0.052 C 
DOCKED: BRANCH  30  31
DOCKED: ATOM     31  C   UNL d   1      -4.793 -18.015  -0.824 -0.04 +0.12    +0.115 C 
DOCKED: BRANCH  31  32
DOCKED: ATOM     32  C   UNL d   1      -4.842 -16.566  -0.389 -0.10 +0.23    +0.139 C 
DOCKED: ATOM     33  O   UNL d   1      -5.259 -16.287   0.725 -0.30 -1.34    -0.650 OA
DOCKED: BRANCH  32  34
DOCKED: ATOM     34  O   UNL d   1      -4.391 -15.564  -1.179 +0.11 -1.91    -0.776 OA
DOCKED: ATOM     35  H   UNL d   1      -3.570 -15.076  -1.023 +0.02 +0.36    +0.167 HD
DOCKED: ENDBRANCH  32  34
DOCKED: ENDBRANCH  31  32
DOCKED: ENDBRANCH  30  31
DOCKED: ENDBRANCH   6  30
DOCKED: BRANCH  29  36
DOCKED: ATOM     36  C   UNL d   1      -1.038 -13.461  -2.223 -0.16 +0.18    +0.190 C 
DOCKED: BRANCH  36  37
DOCKED: ATOM     37  O   UNL d   1      -2.432 -13.409  -2.120 -0.30 -0.70    -0.399 OA
DOCKED: ATOM     38  H   UNL d   1      -2.683 -14.236  -1.621 +0.05 +0.41    +0.209 HD
DOCKED: ENDBRANCH  36  37
DOCKED: ENDBRANCH  29  36
DOCKED: BRANCH  22  39
DOCKED: ATOM     39  C   UNL d   1      -1.799 -18.251  -5.757 -0.12 +0.05    +0.052 C 
DOCKED: BRANCH  39  40
DOCKED: ATOM     40  C   UNL d   1      -3.285 -17.893  -5.584 -0.17 +0.15    +0.115 C 
DOCKED: BRANCH  40  41
DOCKED: ATOM     41  C   UNL d   1      -4.119 -18.067  -6.836 -0.17 +0.23    +0.139 C 
DOCKED: ATOM     42  O   UNL d   1      -3.670 -17.693  -7.911 -0.33 -1.17    -0.650 OA
DOCKED: BRANCH  41  43
DOCKED: ATOM     43  O   UNL d   1      -5.311 -18.703  -6.814 +0.03 -1.43    -0.776 OA
DOCKED: ATOM     44  H   UNL d   1      -5.803 -18.854  -5.996 +0.03 +0.22    +0.167 HD
DOCKED: ENDBRANCH  41  43
DOCKED: ENDBRANCH  40  41
DOCKED: ENDBRANCH  39  40
DOCKED: ENDBRANCH  22  39
DOCKED: BRANCH  12  45
DOCKED: ATOM     45  C   UNL d   1       2.930 -11.434   1.810 -0.36 +0.00    +0.004 C 
DOCKED: ATOM     46  C   UNL d   1       3.662 -11.327   2.916 -0.27 +0.00    +0.012 C 
DOCKED: ENDBRANCH  12  45
DOCKED: BRANCH  17  47
DOCKED: ATOM     47  C   UNL d   1       3.075 -12.057  -5.979 -0.36 +0.00    +0.004 C 
DOCKED: ATOM     48  C   UNL d   1       3.802 -12.809  -6.809 -0.55 +0.00    +0.012 C 
DOCKED: ENDBRANCH  17  47
DOCKED: TORSDOF 12
DOCKED: TER
DOCKED: ENDMDL
________________________________________________________________________________


	BEGINNING GENETIC ALGORITHM DOCKING 21 of 100
Run: 21 Seed: 1340916104 1588401117 [ Run 21 of 100 GA/GALS ]
Beginning LAMARCKIAN GENETIC ALGORITHM (LGA), with a maximum of 25000000 energy evaluations.

Final-Value: -12.371


	FINAL GENETIC ALGORITHM DOCKED STATE
	_______________________________________________


Detailed state:  trans -10.036 -15.855 -1.907 quatxyzw 0.362297 0.856390 -0.216115 -0.297711 center 8.781 34.984 -0.736 ntor 12 133.7249 104.0928 -3.5542 -101.9040 -99.2380 125.8794 -132.8041 -33.6024 -122.0394 173.8043 -176.5663 -179.0585
State:	-10.036 -15.855  -1.907   0.380  0.897 -0.226 -145.360    133.72  104.09   -3.55 -101.90  -99.24  125.88 -132.80  -33.60 -122.04  173.80 -176.57 -179.06

DOCKED: MODEL       21
DOCKED: USER    Run = 21
DOCKED: USER    DPF = D:/Protein_go_brrr/autodock/final/AncA/heme_Co/dock.dpf
DOCKED: USER  
DOCKED: USER    Estimated Free Energy of Binding    =   -5.37 kcal/mol  [=(1)+(2)+(3)-(4)]
DOCKED: USER    Estimated Inhibition Constant, Ki   =  115.98 uM (micromolar)  [Temperature = 298.15 K]
DOCKED: USER    
DOCKED: USER    (1) Final Intermolecular Energy     =   -8.95 kcal/mol
DOCKED: USER        vdW + Hbond + desolv Energy     =   -5.43 kcal/mol
DOCKED: USER        Electrostatic Energy            =   -3.52 kcal/mol
DOCKED: USER    (2) Final Total Internal Energy     =   -3.42 kcal/mol
DOCKED: USER    (3) Torsional Free Energy           =   +3.58 kcal/mol
DOCKED: USER    (4) Unbound System's Energy  [=(2)] =   -3.42 kcal/mol
DOCKED: USER    
DOCKED: USER    
DOCKED: USER    NEWDPF move heme_Co_opt.pdbqt
DOCKED: USER    NEWDPF about 8.781000 34.984000 -0.736000
DOCKED: USER    NEWDPF tran0 -10.036024 -15.855018 -1.907462
DOCKED: USER    NEWDPF quaternion0 0.362297 0.856390 -0.216115 -0.297711
DOCKED: USER    NEWDPF axisangle0 0.379505 0.897066 -0.226380 -145.359622
DOCKED: USER    NEWDPF quat0 0.379505 0.897066 -0.226380 -145.359622
DOCKED: USER    NEWDPF dihe0 133.72 104.09 -3.55 -101.90 -99.24 125.88 -132.80 -33.60 -122.04 173.80 -176.57 -179.06 
DOCKED: USER  keepresnum = 1 
DOCKED: USER  
DOCKED: REMARK  12 active torsions:
DOCKED: REMARK  status: ('A' for Active; 'I' for Inactive)
DOCKED: REMARK    1  A    between atoms: C_6  and  C_10 
DOCKED: REMARK    2  A    between atoms: C_10  and  C_11 
DOCKED: REMARK    3  A    between atoms: C_11  and  C_12 
DOCKED: REMARK    4  A    between atoms: C_12  and  O_14 
DOCKED: REMARK    5  A    between atoms: C_17  and  C_20 
DOCKED: REMARK    6  A    between atoms: C_24  and  C_27 
DOCKED: REMARK    7  A    between atoms: C_31  and  C_34 
DOCKED: REMARK    8  A    between atoms: C_34  and  C_35 
DOCKED: REMARK    9  A    between atoms: C_35  and  C_36 
DOCKED: REMARK   10  A    between atoms: C_36  and  O_38 
DOCKED: REMARK   11  A    between atoms: FE_43  and  C_44 
DOCKED: REMARK   12  A    between atoms: C_44  and  O_45 
DOCKED: USER                              x       y       z     vdW  Elec       q    Type
DOCKED: USER                           _______ _______ _______ _____ _____    ______ ____
DOCKED: ROOT
DOCKED: ATOM      1  C   UNL d   1      -8.878 -15.987  -0.075 -0.03 +0.05    +0.064 A 
DOCKED: ATOM      2  C   UNL d   1     -10.257 -19.270  -3.227 -0.01 +0.02    +0.064 C 
DOCKED: ATOM      3  C   UNL d   1     -12.784 -15.982  -5.602 -0.08 +0.01    +0.064 A 
DOCKED: ATOM      4  C   UNL d   1     -11.079 -12.537  -2.620 -0.21 +0.02    +0.064 A 
DOCKED: ATOM      5  C   UNL d   1      -9.099 -17.133  -0.741 -0.01 +0.04    +0.066 A 
DOCKED: ATOM      6  C   UNL d   1      -8.461 -18.338  -0.387 +0.01 -0.01    -0.021 A 
DOCKED: ATOM      7  C   UNL d   1      -8.847 -19.281  -1.318 +0.01 -0.01    -0.025 A 
DOCKED: ATOM      8  C   UNL d   1      -9.716 -18.617  -2.191 -0.00 +0.03    +0.066 A 
DOCKED: ATOM      9  C   UNL d   1      -8.422 -20.756  -1.398 +0.00 +0.02    +0.051 C 
DOCKED: ATOM     10  C   UNL d   1     -11.181 -18.676  -4.161 -0.02 +0.02    +0.066 A 
DOCKED: ATOM     11  C   UNL d   1     -11.891 -19.342  -5.184 -0.02 -0.01    -0.021 A 
DOCKED: ATOM     12  C   UNL d   1     -12.623 -18.361  -5.858 -0.03 +0.00    +0.000 A 
DOCKED: ATOM     13  C   UNL d   1     -12.316 -17.174  -5.191 -0.05 +0.02    +0.070 A 
DOCKED: ATOM     14  C   UNL d   1     -11.928 -20.830  -5.421 -0.01 +0.01    +0.052 C 
DOCKED: ATOM     15  C   UNL d   1     -12.528 -14.660  -5.066 -0.13 +0.01    +0.066 A 
DOCKED: ATOM     16  C   UNL d   1     -12.925 -13.454  -5.626 -0.21 -0.00    -0.021 A 
DOCKED: ATOM     17  C   UNL d   1     -12.434 -12.457  -4.770 -0.26 +0.00    +0.000 A 
DOCKED: ATOM     18  C   UNL d   1     -11.787 -13.137  -3.744 -0.18 +0.02    +0.070 A 
DOCKED: ATOM     19  C   UNL d   1     -13.724 -13.300  -6.901 -0.23 +0.00    +0.052 C 
DOCKED: ATOM     20  C   UNL d   1     -10.371 -13.175  -1.657 -0.18 +0.03    +0.066 A 
DOCKED: ATOM     21  C   UNL d   1      -9.702 -12.486  -0.647 -0.23 -0.01    -0.025 A 
DOCKED: ATOM     22  C   UNL d   1      -9.083 -13.457   0.119 -0.20 -0.02    -0.021 A 
DOCKED: ATOM     23  C   UNL d   1      -9.396 -14.698  -0.474 -0.09 +0.04    +0.066 A 
DOCKED: ATOM     24  C   UNL d   1      -9.640 -10.976  -0.433 -0.42 +0.02    +0.051 C 
DOCKED: ATOM     25  N   UNL d   1      -9.895 -17.286  -1.854 -0.00 -0.12    -0.248 N 
DOCKED: ATOM     26  N   UNL d   1     -11.489 -17.375  -4.131 -0.02 -0.08    -0.248 N 
DOCKED: ATOM     27  N   UNL d   1     -11.837 -14.445  -3.969 -0.08 -0.07    -0.248 N 
DOCKED: ATOM     28  N   UNL d   1     -10.174 -14.532  -1.551 -0.08 -0.12    -0.248 N 
DOCKED: ATOM     29 FE   UNL d   1     -10.923 -15.779  -2.971 -0.02 +0.00    +0.000 Fe
DOCKED: ENDROOT
DOCKED: BRANCH   6  30
DOCKED: ATOM     30  C   UNL d   1      -7.464 -18.539   0.749 +0.00 +0.03    +0.052 C 
DOCKED: BRANCH  30  31
DOCKED: ATOM     31  C   UNL d   1      -6.032 -18.356   0.246 -0.01 +0.10    +0.115 C 
DOCKED: BRANCH  31  32
DOCKED: ATOM     32  C   UNL d   1      -5.819 -17.010  -0.411 -0.07 +0.18    +0.139 C 
DOCKED: ATOM     33  O   UNL d   1      -5.325 -16.097   0.234 -0.45 -1.24    -0.650 OA
DOCKED: BRANCH  32  34
DOCKED: ATOM     34  O   UNL d   1      -6.115 -16.792  -1.714 -0.24 -1.31    -0.776 OA
DOCKED: ATOM     35  H   UNL d   1      -6.652 -16.054  -2.034 +0.03 +0.33    +0.167 HD
DOCKED: ENDBRANCH  32  34
DOCKED: ENDBRANCH  31  32
DOCKED: ENDBRANCH  30  31
DOCKED: ENDBRANCH   6  30
DOCKED: BRANCH  29  36
DOCKED: ATOM     36  C   UNL d   1      -9.169 -15.581  -4.103 +0.05 +0.13    +0.190 C 
DOCKED: BRANCH  36  37
DOCKED: ATOM     37  O   UNL d   1      -7.779 -15.717  -4.036 -0.06 -0.50    -0.399 OA
DOCKED: ATOM     38  H   UNL d   1      -7.582 -15.867  -3.069 +0.04 +0.29    +0.209 HD
DOCKED: ENDBRANCH  36  37
DOCKED: ENDBRANCH  29  36
DOCKED: BRANCH  22  39
DOCKED: ATOM     39  C   UNL d   1      -8.186 -13.194   1.314 -0.28 +0.05    +0.052 C 
DOCKED: BRANCH  39  40
DOCKED: ATOM     40  C   UNL d   1      -6.788 -12.749   0.857 -0.22 +0.17    +0.115 C 
DOCKED: BRANCH  40  41
DOCKED: ATOM     41  C   UNL d   1      -6.524 -12.938  -0.623 -0.24 +0.18    +0.139 C 
DOCKED: ATOM     42  O   UNL d   1      -6.538 -11.964  -1.362 +0.05 -0.66    -0.650 OA
DOCKED: BRANCH  41  43
DOCKED: ATOM     43  O   UNL d   1      -6.189 -14.143  -1.136 -0.24 -1.53    -0.776 OA
DOCKED: ATOM     44  H   UNL d   1      -6.140 -14.942  -0.595 +0.03 +0.32    +0.167 HD
DOCKED: ENDBRANCH  41  43
DOCKED: ENDBRANCH  40  41
DOCKED: ENDBRANCH  39  40
DOCKED: ENDBRANCH  22  39
DOCKED: BRANCH  12  45
DOCKED: ATOM     45  C   UNL d   1     -13.586 -18.409  -7.037 -0.03 +0.00    +0.004 C 
DOCKED: ATOM     46  C   UNL d   1     -13.455 -17.959  -8.281 -0.07 +0.00    +0.012 C 
DOCKED: ENDBRANCH  12  45
DOCKED: BRANCH  17  47
DOCKED: ATOM     47  C   UNL d   1     -12.501 -10.971  -4.900 -0.45 +0.00    +0.004 C 
DOCKED: ATOM     48  C   UNL d   1     -11.422 -10.185  -4.947 -0.52 +0.00    +0.012 C 
DOCKED: ENDBRANCH  17  47
DOCKED: TORSDOF 12
DOCKED: TER
DOCKED: ENDMDL
________________________________________________________________________________


	BEGINNING GENETIC ALGORITHM DOCKING 22 of 100
Run: 22 Seed: 1811144421 1828570019 [ Run 22 of 100 GA/GALS ]
Beginning LAMARCKIAN GENETIC ALGORITHM (LGA), with a maximum of 25000000 energy evaluations.

Final-Value: -9.244


	FINAL GENETIC ALGORITHM DOCKED STATE
	_______________________________________________


Detailed state:  trans 13.060 0.670 -15.562 quatxyzw 0.909081 0.044483 0.109415 -0.399527 center 8.781 34.984 -0.736 ntor 12 84.1447 80.1808 -163.2755 -96.3566 103.1050 88.2597 -132.2174 115.3165 -134.0689 150.6077 -12.4657 167.7028
State:	 13.060   0.670 -15.562   0.992  0.049  0.119 -132.903     84.14   80.18 -163.28  -96.36  103.11   88.26 -132.22  115.32 -134.07  150.61  -12.47  167.70

DOCKED: MODEL       22
DOCKED: USER    Run = 22
DOCKED: USER    DPF = D:/Protein_go_brrr/autodock/final/AncA/heme_Co/dock.dpf
DOCKED: USER  
DOCKED: USER    Estimated Free Energy of Binding    =   -3.48 kcal/mol  [=(1)+(2)+(3)-(4)]
DOCKED: USER    Estimated Inhibition Constant, Ki   =    2.81 mM (millimolar)  [Temperature = 298.15 K]
DOCKED: USER    
DOCKED: USER    (1) Final Intermolecular Energy     =   -7.06 kcal/mol
DOCKED: USER        vdW + Hbond + desolv Energy     =   -5.62 kcal/mol
DOCKED: USER        Electrostatic Energy            =   -1.44 kcal/mol
DOCKED: USER    (2) Final Total Internal Energy     =   -2.18 kcal/mol
DOCKED: USER    (3) Torsional Free Energy           =   +3.58 kcal/mol
DOCKED: USER    (4) Unbound System's Energy  [=(2)] =   -2.18 kcal/mol
DOCKED: USER    
DOCKED: USER    
DOCKED: USER    NEWDPF move heme_Co_opt.pdbqt
DOCKED: USER    NEWDPF about 8.781000 34.984000 -0.736000
DOCKED: USER    NEWDPF tran0 13.060294 0.670333 -15.561729
DOCKED: USER    NEWDPF quaternion0 0.909081 0.044483 0.109415 -0.399527
DOCKED: USER    NEWDPF axisangle0 0.991665 0.048524 0.119355 -132.902737
DOCKED: USER    NEWDPF quat0 0.991665 0.048524 0.119355 -132.902737
DOCKED: USER    NEWDPF dihe0 84.14 80.18 -163.28 -96.36 103.11 88.26 -132.22 115.32 -134.07 150.61 -12.47 167.70 
DOCKED: USER  keepresnum = 1 
DOCKED: USER  
DOCKED: REMARK  12 active torsions:
DOCKED: REMARK  status: ('A' for Active; 'I' for Inactive)
DOCKED: REMARK    1  A    between atoms: C_6  and  C_10 
DOCKED: REMARK    2  A    between atoms: C_10  and  C_11 
DOCKED: REMARK    3  A    between atoms: C_11  and  C_12 
DOCKED: REMARK    4  A    between atoms: C_12  and  O_14 
DOCKED: REMARK    5  A    between atoms: C_17  and  C_20 
DOCKED: REMARK    6  A    between atoms: C_24  and  C_27 
DOCKED: REMARK    7  A    between atoms: C_31  and  C_34 
DOCKED: REMARK    8  A    between atoms: C_34  and  C_35 
DOCKED: REMARK    9  A    between atoms: C_35  and  C_36 
DOCKED: REMARK   10  A    between atoms: C_36  and  O_38 
DOCKED: REMARK   11  A    between atoms: FE_43  and  C_44 
DOCKED: REMARK   12  A    between atoms: C_44  and  O_45 
DOCKED: USER                              x       y       z     vdW  Elec       q    Type
DOCKED: USER                           _______ _______ _______ _____ _____    ______ ____
DOCKED: ROOT
DOCKED: ATOM      1  C   UNL d   1      10.977   0.616 -14.952 -0.19 +0.01    +0.064 A 
DOCKED: ATOM      2  C   UNL d   1      13.094  -0.048 -19.158 -0.02 +0.01    +0.064 C 
DOCKED: ATOM      3  C   UNL d   1      17.321   1.107 -17.255 -0.03 +0.01    +0.064 A 
DOCKED: ATOM      4  C   UNL d   1      15.246   1.417 -12.866 -0.27 -0.00    +0.064 A 
DOCKED: ATOM      5  C   UNL d   1      11.239   0.385 -16.249 -0.12 +0.02    +0.066 A 
DOCKED: ATOM      6  C   UNL d   1      10.246  -0.058 -17.145 -0.06 -0.01    -0.021 A 
DOCKED: ATOM      7  C   UNL d   1      10.871  -0.271 -18.358 -0.02 -0.00    -0.025 A 
DOCKED: ATOM      8  C   UNL d   1      12.213   0.066 -18.156 -0.04 +0.01    +0.066 A 
DOCKED: ATOM      9  C   UNL d   1      10.241  -0.774 -19.667 -0.00 +0.01    +0.051 C 
DOCKED: ATOM     10  C   UNL d   1      14.489   0.300 -19.051 -0.02 +0.01    +0.066 A 
DOCKED: ATOM     11  C   UNL d   1      15.432   0.336 -20.100 -0.01 -0.00    -0.021 A 
DOCKED: ATOM     12  C   UNL d   1      16.655   0.679 -19.518 -0.01 +0.00    +0.000 A 
DOCKED: ATOM     13  C   UNL d   1      16.366   0.840 -18.163 -0.03 +0.01    +0.070 A 
DOCKED: ATOM     14  C   UNL d   1      15.143   0.145 -21.567 -0.00 +0.00    +0.052 C 
DOCKED: ATOM     15  C   UNL d   1      17.209   1.253 -15.817 -0.05 +0.00    +0.066 A 
DOCKED: ATOM     16  C   UNL d   1      18.258   1.385 -14.918 -0.05 -0.00    -0.021 A 
DOCKED: ATOM     17  C   UNL d   1      17.665   1.472 -13.651 -0.14 +0.00    +0.000 A 
DOCKED: ATOM     18  C   UNL d   1      16.294   1.403 -13.879 -0.16 -0.00    +0.070 A 
DOCKED: ATOM     19  C   UNL d   1      19.725   1.420 -15.283 -0.01 +0.00    +0.052 C 
DOCKED: ATOM     20  C   UNL d   1      13.914   1.264 -13.056 -0.31 +0.00    +0.066 A 
DOCKED: ATOM     21  C   UNL d   1      13.007   1.259 -11.998 -0.49 -0.00    -0.025 A 
DOCKED: ATOM     22  C   UNL d   1      11.765   1.059 -12.572 -0.43 -0.00    -0.021 A 
DOCKED: ATOM     23  C   UNL d   1      11.978   0.939 -13.962 -0.25 +0.01    +0.066 A 
DOCKED: ATOM     24  C   UNL d   1      13.311   1.417 -10.511 -0.48 +0.01    +0.051 C 
DOCKED: ATOM     25  N   UNL d   1      12.469   0.482 -16.860 -0.05 -0.05    -0.248 N 
DOCKED: ATOM     26  N   UNL d   1      15.045   0.665 -17.891 -0.03 -0.03    -0.248 N 
DOCKED: ATOM     27  N   UNL d   1      16.061   1.242 -15.177 -0.07 -0.01    -0.248 N 
DOCKED: ATOM     28  N   UNL d   1      13.278   1.060 -14.259 -0.16 -0.03    -0.248 N 
DOCKED: ATOM     29 FE   UNL d   1      14.370   0.885 -15.965 -0.03 +0.00    +0.000 Fe
DOCKED: ENDROOT
DOCKED: BRANCH   6  30
DOCKED: ATOM     30  C   UNL d   1       8.784  -0.339 -16.816 -0.09 +0.01    +0.052 C 
DOCKED: BRANCH  30  31
DOCKED: ATOM     31  C   UNL d   1       8.029   0.967 -16.567 -0.07 +0.11    +0.115 C 
DOCKED: BRANCH  31  32
DOCKED: ATOM     32  C   UNL d   1       8.365   2.031 -17.589 +0.20 +0.19    +0.139 C 
DOCKED: ATOM     33  O   UNL d   1       7.615   2.212 -18.537 -0.03 -0.59    -0.650 OA
DOCKED: BRANCH  32  34
DOCKED: ATOM     34  O   UNL d   1       9.450   2.830 -17.463 -0.46 -1.28    -0.776 OA
DOCKED: ATOM     35  H   UNL d   1      10.350   2.565 -17.696 +0.02 +0.14    +0.167 HD
DOCKED: ENDBRANCH  32  34
DOCKED: ENDBRANCH  31  32
DOCKED: ENDBRANCH  30  31
DOCKED: ENDBRANCH   6  30
DOCKED: BRANCH  29  36
DOCKED: ATOM     36  C   UNL d   1      14.543  -1.183 -15.670 -0.07 -0.00    +0.190 C 
DOCKED: BRANCH  36  37
DOCKED: ATOM     37  O   UNL d   1      13.993  -2.258 -14.964 -0.04 +0.07    -0.399 OA
DOCKED: ATOM     38  H   UNL d   1      13.701  -1.870 -14.092 -0.15 -0.05    +0.209 HD
DOCKED: ENDBRANCH  36  37
DOCKED: ENDBRANCH  29  36
DOCKED: BRANCH  22  39
DOCKED: ATOM     39  C   UNL d   1      10.457   0.926 -11.815 -0.51 +0.01    +0.052 C 
DOCKED: BRANCH  39  40
DOCKED: ATOM     40  C   UNL d   1      10.172  -0.547 -11.478 -0.24 +0.00    +0.115 C 
DOCKED: BRANCH  40  41
DOCKED: ATOM     41  C   UNL d   1      10.631  -1.529 -12.535 -0.40 +0.01    +0.139 C 
DOCKED: ATOM     42  O   UNL d   1       9.798  -2.077 -13.244 -0.06 -0.05    -0.650 OA
DOCKED: BRANCH  41  43
DOCKED: ATOM     43  O   UNL d   1      11.942  -1.753 -12.776 +0.08 +0.05    -0.776 OA
DOCKED: ATOM     44  H   UNL d   1      12.263  -2.099 -13.619 +0.05 -0.02    +0.167 HD
DOCKED: ENDBRANCH  41  43
DOCKED: ENDBRANCH  40  41
DOCKED: ENDBRANCH  39  40
DOCKED: ENDBRANCH  22  39
DOCKED: BRANCH  12  45
DOCKED: ATOM     45  C   UNL d   1      18.052   0.892 -20.086 -0.01 +0.00    +0.004 C 
DOCKED: ATOM     46  C   UNL d   1      19.135   0.121 -20.033 -0.00 +0.00    +0.012 C 
DOCKED: ENDBRANCH  12  45
DOCKED: BRANCH  17  47
DOCKED: ATOM     47  C   UNL d   1      18.302   1.562 -12.303 -0.12 +0.00    +0.004 C 
DOCKED: ATOM     48  C   UNL d   1      18.765   2.700 -11.781 -0.20 +0.01    +0.012 C 
DOCKED: ENDBRANCH  17  47
DOCKED: TORSDOF 12
DOCKED: TER
DOCKED: ENDMDL
________________________________________________________________________________


	BEGINNING GENETIC ALGORITHM DOCKING 23 of 100
Run: 23 Seed: 1399639844 1512240245 [ Run 23 of 100 GA/GALS ]
Beginning LAMARCKIAN GENETIC ALGORITHM (LGA), with a maximum of 25000000 energy evaluations.

Final-Value: -12.839


	FINAL GENETIC ALGORITHM DOCKED STATE
	_______________________________________________


Detailed state:  trans -0.552 -15.781 -1.321 quatxyzw 0.403973 0.011872 -0.425841 0.809521 center 8.781 34.984 -0.736 ntor 12 170.0932 116.2010 -29.5350 51.7342 124.5315 137.2637 -128.0856 126.4943 -154.6735 -41.1605 -170.0453 -165.0578
State:	 -0.552 -15.781  -1.321   0.688  0.020 -0.725 71.902    170.09  116.20  -29.53   51.73  124.53  137.26 -128.09  126.49 -154.67  -41.16 -170.05 -165.06

DOCKED: MODEL       23
DOCKED: USER    Run = 23
DOCKED: USER    DPF = D:/Protein_go_brrr/autodock/final/AncA/heme_Co/dock.dpf
DOCKED: USER  
DOCKED: USER    Estimated Free Energy of Binding    =   -7.13 kcal/mol  [=(1)+(2)+(3)-(4)]
DOCKED: USER    Estimated Inhibition Constant, Ki   =    5.96 uM (micromolar)  [Temperature = 298.15 K]
DOCKED: USER    
DOCKED: USER    (1) Final Intermolecular Energy     =  -10.71 kcal/mol
DOCKED: USER        vdW + Hbond + desolv Energy     =   -6.19 kcal/mol
DOCKED: USER        Electrostatic Energy            =   -4.51 kcal/mol
DOCKED: USER    (2) Final Total Internal Energy     =   -2.13 kcal/mol
DOCKED: USER    (3) Torsional Free Energy           =   +3.58 kcal/mol
DOCKED: USER    (4) Unbound System's Energy  [=(2)] =   -2.13 kcal/mol
DOCKED: USER    
DOCKED: USER    
DOCKED: USER    NEWDPF move heme_Co_opt.pdbqt
DOCKED: USER    NEWDPF about 8.781000 34.984000 -0.736000
DOCKED: USER    NEWDPF tran0 -0.552392 -15.780930 -1.321429
DOCKED: USER    NEWDPF quaternion0 0.403973 0.011872 -0.425841 0.809521
DOCKED: USER    NEWDPF axisangle0 0.688093 0.020221 -0.725341 71.901656
DOCKED: USER    NEWDPF quat0 0.688093 0.020221 -0.725341 71.901656
DOCKED: USER    NEWDPF dihe0 170.09 116.20 -29.53 51.73 124.53 137.26 -128.09 126.49 -154.67 -41.16 -170.05 -165.06 
DOCKED: USER  keepresnum = 1 
DOCKED: USER  
DOCKED: REMARK  12 active torsions:
DOCKED: REMARK  status: ('A' for Active; 'I' for Inactive)
DOCKED: REMARK    1  A    between atoms: C_6  and  C_10 
DOCKED: REMARK    2  A    between atoms: C_10  and  C_11 
DOCKED: REMARK    3  A    between atoms: C_11  and  C_12 
DOCKED: REMARK    4  A    between atoms: C_12  and  O_14 
DOCKED: REMARK    5  A    between atoms: C_17  and  C_20 
DOCKED: REMARK    6  A    between atoms: C_24  and  C_27 
DOCKED: REMARK    7  A    between atoms: C_31  and  C_34 
DOCKED: REMARK    8  A    between atoms: C_34  and  C_35 
DOCKED: REMARK    9  A    between atoms: C_35  and  C_36 
DOCKED: REMARK   10  A    between atoms: C_36  and  O_38 
DOCKED: REMARK   11  A    between atoms: FE_43  and  C_44 
DOCKED: REMARK   12  A    between atoms: C_44  and  O_45 
DOCKED: USER                              x       y       z     vdW  Elec       q    Type
DOCKED: USER                           _______ _______ _______ _____ _____    ______ ____
DOCKED: ROOT
DOCKED: ATOM      1  C   UNL d   1      -1.816 -17.526  -1.597 -0.04 +0.06    +0.064 A 
DOCKED: ATOM      2  C   UNL d   1      -0.562 -15.068   2.276 -0.05 +0.05    +0.064 C 
DOCKED: ATOM      3  C   UNL d   1       2.371 -12.358  -0.348 -0.19 +0.02    +0.064 A 
DOCKED: ATOM      4  C   UNL d   1       0.817 -14.599  -4.376 -0.17 +0.04    +0.064 A 
DOCKED: ATOM      5  C   UNL d   1      -1.661 -17.077  -0.340 -0.04 +0.06    +0.066 A 
DOCKED: ATOM      6  C   UNL d   1      -2.421 -17.582   0.733 -0.05 -0.02    -0.021 A 
DOCKED: ATOM      7  C   UNL d   1      -2.070 -16.850   1.850 -0.05 -0.02    -0.025 A 
DOCKED: ATOM      8  C   UNL d   1      -1.099 -15.941   1.415 -0.08 +0.06    +0.066 A 
DOCKED: ATOM      9  C   UNL d   1      -2.618 -16.988   3.278 -0.05 +0.06    +0.051 C 
DOCKED: ATOM     10  C   UNL d   1       0.461 -14.114   1.926 -0.13 +0.04    +0.066 A 
DOCKED: ATOM     11  C   UNL d   1       1.164 -13.268   2.811 -0.20 -0.01    -0.021 A 
DOCKED: ATOM     12  C   UNL d   1       2.015 -12.491   2.020 -0.25 +0.00    +0.000 A 
DOCKED: ATOM     13  C   UNL d   1       1.778 -12.928   0.716 -0.17 +0.03    +0.070 A 
DOCKED: ATOM     14  C   UNL d   1       1.082 -13.285   4.316 -0.26 +0.03    +0.052 C 
DOCKED: ATOM     15  C   UNL d   1       2.204 -12.646  -1.758 -0.14 +0.02    +0.066 A 
DOCKED: ATOM     16  C   UNL d   1       2.737 -11.922  -2.815 -0.23 -0.01    -0.021 A 
DOCKED: ATOM     17  C   UNL d   1       2.289 -12.563  -3.980 -0.25 +0.00    +0.000 A 
DOCKED: ATOM     18  C   UNL d   1       1.530 -13.642  -3.539 -0.14 +0.03    +0.070 A 
DOCKED: ATOM     19  C   UNL d   1       3.614 -10.697  -2.685 -0.12 +0.01    +0.052 C 
DOCKED: ATOM     20  C   UNL d   1       0.003 -15.603  -3.971 -0.11 +0.05    +0.066 A 
DOCKED: ATOM     21  C   UNL d   1      -0.656 -16.436  -4.872 -0.14 -0.02    -0.025 A 
DOCKED: ATOM     22  C   UNL d   1      -1.400 -17.308  -4.099 -0.10 -0.02    -0.021 A 
DOCKED: ATOM     23  C   UNL d   1      -1.165 -16.954  -2.754 -0.06 +0.06    +0.066 A 
DOCKED: ATOM     24  C   UNL d   1      -0.596 -16.390  -6.397 -0.27 +0.04    +0.051 C 
DOCKED: ATOM     25  N   UNL d   1      -0.822 -16.063   0.064 -0.04 -0.19    -0.248 N 
DOCKED: ATOM     26  N   UNL d   1       0.880 -13.948   0.667 -0.07 -0.13    -0.248 N 
DOCKED: ATOM     27  N   UNL d   1       1.476 -13.643  -2.211 -0.04 -0.11    -0.248 N 
DOCKED: ATOM     28  N   UNL d   1      -0.318 -15.921  -2.671 -0.04 -0.20    -0.248 N 
DOCKED: ATOM     29 FE   UNL d   1       0.394 -14.783  -1.144 -0.02 +0.00    +0.000 Fe
DOCKED: ENDROOT
DOCKED: BRANCH   6  30
DOCKED: ATOM     30  C   UNL d   1      -3.493 -18.665   0.658 -0.02 +0.04    +0.052 C 
DOCKED: BRANCH  30  31
DOCKED: ATOM     31  C   UNL d   1      -4.847 -18.056   0.293 -0.04 +0.12    +0.115 C 
DOCKED: BRANCH  31  32
DOCKED: ATOM     32  C   UNL d   1      -4.709 -16.734  -0.432 -0.10 +0.22    +0.139 C 
DOCKED: ATOM     33  O   UNL d   1      -4.861 -16.695  -1.644 +0.17 -1.38    -0.650 OA
DOCKED: BRANCH  32  34
DOCKED: ATOM     34  O   UNL d   1      -4.468 -15.576   0.226 -0.43 -1.68    -0.776 OA
DOCKED: ATOM     35  H   UNL d   1      -4.183 -14.757  -0.202 +0.02 +0.36    +0.167 HD
DOCKED: ENDBRANCH  32  34
DOCKED: ENDBRANCH  31  32
DOCKED: ENDBRANCH  30  31
DOCKED: ENDBRANCH   6  30
DOCKED: BRANCH  29  36
DOCKED: ATOM     36  C   UNL d   1      -1.271 -13.516  -1.280 -0.17 +0.18    +0.190 C 
DOCKED: BRANCH  36  37
DOCKED: ATOM     37  O   UNL d   1      -2.657 -13.476  -1.102 -0.18 -0.60    -0.399 OA
DOCKED: ATOM     38  H   UNL d   1      -2.898 -14.381  -0.757 +0.04 +0.35    +0.209 HD
DOCKED: ENDBRANCH  36  37
DOCKED: ENDBRANCH  29  36
DOCKED: BRANCH  22  39
DOCKED: ATOM     39  C   UNL d   1      -2.333 -18.379  -4.632 -0.09 +0.05    +0.052 C 
DOCKED: BRANCH  39  40
DOCKED: ATOM     40  C   UNL d   1      -3.498 -17.744  -5.411 -0.15 +0.16    +0.115 C 
DOCKED: BRANCH  40  41
DOCKED: ATOM     41  C   UNL d   1      -3.784 -18.395  -6.748 -0.16 +0.22    +0.139 C 
DOCKED: ATOM     42  O   UNL d   1      -3.293 -17.919  -7.762 -0.41 -1.13    -0.650 OA
DOCKED: BRANCH  41  43
DOCKED: ATOM     43  O   UNL d   1      -4.496 -19.540  -6.843 +0.01 -1.57    -0.776 OA
DOCKED: ATOM     44  H   UNL d   1      -4.577 -20.163  -6.109 +0.01 +0.22    +0.167 HD
DOCKED: ENDBRANCH  41  43
DOCKED: ENDBRANCH  40  41
DOCKED: ENDBRANCH  39  40
DOCKED: ENDBRANCH  22  39
DOCKED: BRANCH  12  45
DOCKED: ATOM     45  C   UNL d   1       3.033 -11.407   2.345 -0.34 +0.00    +0.004 C 
DOCKED: ATOM     46  C   UNL d   1       3.951 -11.341   3.306 -0.25 +0.00    +0.012 C 
DOCKED: ENDBRANCH  12  45
DOCKED: BRANCH  17  47
DOCKED: ATOM     47  C   UNL d   1       2.494 -12.192  -5.412 -0.15 +0.00    +0.004 C 
DOCKED: ATOM     48  C   UNL d   1       3.370 -12.803  -6.213 -0.47 +0.00    +0.012 C 
DOCKED: ENDBRANCH  17  47
DOCKED: TORSDOF 12
DOCKED: TER
DOCKED: ENDMDL
________________________________________________________________________________


	BEGINNING GENETIC ALGORITHM DOCKING 24 of 100
Run: 24 Seed: 782355784 2137190538 [ Run 24 of 100 GA/GALS ]
Beginning LAMARCKIAN GENETIC ALGORITHM (LGA), with a maximum of 25000000 energy evaluations.

Final-Value: -10.856


	FINAL GENETIC ALGORITHM DOCKED STATE
	_______________________________________________


Detailed state:  trans -7.884 -17.555 -3.682 quatxyzw 0.672839 -0.233564 -0.654267 -0.254305 center 8.781 34.984 -0.736 ntor 12 80.7161 115.6477 -97.3416 126.0996 108.8993 139.7452 -160.6341 29.6636 129.1475 -67.8649 16.7639 0.1938
State:	 -7.884 -17.555  -3.682   0.696 -0.242 -0.677 -150.535     80.72  115.65  -97.34  126.10  108.90  139.75 -160.63   29.66  129.15  -67.86   16.76    0.19

DOCKED: MODEL       24
DOCKED: USER    Run = 24
DOCKED: USER    DPF = D:/Protein_go_brrr/autodock/final/AncA/heme_Co/dock.dpf
DOCKED: USER  
DOCKED: USER    Estimated Free Energy of Binding    =   -4.98 kcal/mol  [=(1)+(2)+(3)-(4)]
DOCKED: USER    Estimated Inhibition Constant, Ki   =  224.12 uM (micromolar)  [Temperature = 298.15 K]
DOCKED: USER    
DOCKED: USER    (1) Final Intermolecular Energy     =   -8.56 kcal/mol
DOCKED: USER        vdW + Hbond + desolv Energy     =   -4.63 kcal/mol
DOCKED: USER        Electrostatic Energy            =   -3.93 kcal/mol
DOCKED: USER    (2) Final Total Internal Energy     =   -2.30 kcal/mol
DOCKED: USER    (3) Torsional Free Energy           =   +3.58 kcal/mol
DOCKED: USER    (4) Unbound System's Energy  [=(2)] =   -2.30 kcal/mol
DOCKED: USER    
DOCKED: USER    
DOCKED: USER    NEWDPF move heme_Co_opt.pdbqt
DOCKED: USER    NEWDPF about 8.781000 34.984000 -0.736000
DOCKED: USER    NEWDPF tran0 -7.883824 -17.554674 -3.681783
DOCKED: USER    NEWDPF quaternion0 0.672839 -0.233564 -0.654267 -0.254305
DOCKED: USER    NEWDPF axisangle0 0.695711 -0.241504 -0.676508 -150.535201
DOCKED: USER    NEWDPF quat0 0.695711 -0.241504 -0.676508 -150.535201
DOCKED: USER    NEWDPF dihe0 80.72 115.65 -97.34 126.10 108.90 139.75 -160.63 29.66 129.15 -67.86 16.76 0.19 
DOCKED: USER  keepresnum = 1 
DOCKED: USER  
DOCKED: REMARK  12 active torsions:
DOCKED: REMARK  status: ('A' for Active; 'I' for Inactive)
DOCKED: REMARK    1  A    between atoms: C_6  and  C_10 
DOCKED: REMARK    2  A    between atoms: C_10  and  C_11 
DOCKED: REMARK    3  A    between atoms: C_11  and  C_12 
DOCKED: REMARK    4  A    between atoms: C_12  and  O_14 
DOCKED: REMARK    5  A    between atoms: C_17  and  C_20 
DOCKED: REMARK    6  A    between atoms: C_24  and  C_27 
DOCKED: REMARK    7  A    between atoms: C_31  and  C_34 
DOCKED: REMARK    8  A    between atoms: C_34  and  C_35 
DOCKED: REMARK    9  A    between atoms: C_35  and  C_36 
DOCKED: REMARK   10  A    between atoms: C_36  and  O_38 
DOCKED: REMARK   11  A    between atoms: FE_43  and  C_44 
DOCKED: REMARK   12  A    between atoms: C_44  and  O_45 
DOCKED: USER                              x       y       z     vdW  Elec       q    Type
DOCKED: USER                           _______ _______ _______ _____ _____    ______ ____
DOCKED: ROOT
DOCKED: ATOM      1  C   UNL d   1      -7.093 -16.652  -1.872 -0.05 +0.08    +0.064 A 
DOCKED: ATOM      2  C   UNL d   1     -10.830 -15.577  -4.609 -0.09 +0.03    +0.064 C 
DOCKED: ATOM      3  C   UNL d   1      -9.572 -18.974  -7.725 -0.15 +0.04    +0.064 A 
DOCKED: ATOM      4  C   UNL d   1      -5.972 -20.346  -4.756 -0.04 +0.05    +0.064 A 
DOCKED: ATOM      5  C   UNL d   1      -8.185 -16.084  -2.409 -0.09 +0.06    +0.066 A 
DOCKED: ATOM      6  C   UNL d   1      -8.906 -15.073  -1.745 -0.10 -0.02    -0.021 A 
DOCKED: ATOM      7  C   UNL d   1     -10.002 -14.781  -2.532 -0.12 -0.01    -0.025 A 
DOCKED: ATOM      8  C   UNL d   1      -9.895 -15.614  -3.651 -0.07 +0.04    +0.066 A 
DOCKED: ATOM      9  C   UNL d   1     -11.116 -13.760  -2.256 -0.19 +0.02    +0.051 C 
DOCKED: ATOM     10  C   UNL d   1     -10.790 -16.378  -5.807 -0.17 +0.03    +0.066 A 
DOCKED: ATOM     11  C   UNL d   1     -11.663 -16.285  -6.913 -0.20 -0.01    -0.021 A 
DOCKED: ATOM     12  C   UNL d   1     -11.271 -17.284  -7.808 -0.20 +0.00    +0.000 A 
DOCKED: ATOM     13  C   UNL d   1     -10.184 -17.902  -7.190 -0.18 +0.04    +0.070 A 
DOCKED: ATOM     14  C   UNL d   1     -12.731 -15.242  -7.122 -0.16 +0.01    +0.052 C 
DOCKED: ATOM     15  C   UNL d   1      -8.475 -19.763  -7.201 -0.12 +0.06    +0.066 A 
DOCKED: ATOM     16  C   UNL d   1      -7.985 -20.947  -7.734 -0.07 -0.02    -0.021 A 
DOCKED: ATOM     17  C   UNL d   1      -6.948 -21.348  -6.880 -0.06 +0.00    +0.000 A 
DOCKED: ATOM     18  C   UNL d   1      -6.876 -20.365  -5.899 -0.08 +0.07    +0.070 A 
DOCKED: ATOM     19  C   UNL d   1      -8.500 -21.626  -8.984 -0.10 +0.04    +0.052 C 
DOCKED: ATOM     20  C   UNL d   1      -5.941 -19.447  -3.743 -0.04 +0.05    +0.066 A 
DOCKED: ATOM     21  C   UNL d   1      -5.048 -19.555  -2.680 -0.02 -0.02    -0.025 A 
DOCKED: ATOM     22  C   UNL d   1      -5.328 -18.487  -1.847 -0.04 -0.02    -0.021 A 
DOCKED: ATOM     23  C   UNL d   1      -6.395 -17.782  -2.443 -0.07 +0.08    +0.066 A 
DOCKED: ATOM     24  C   UNL d   1      -3.992 -20.634  -2.457 +0.00 +0.03    +0.051 C 
DOCKED: ATOM     25  N   UNL d   1      -8.776 -16.428  -3.604 -0.07 -0.19    -0.248 N 
DOCKED: ATOM     26  N   UNL d   1      -9.859 -17.317  -6.007 -0.10 -0.13    -0.248 N 
DOCKED: ATOM     27  N   UNL d   1      -7.820 -19.453  -6.105 -0.08 -0.22    -0.248 N 
DOCKED: ATOM     28  N   UNL d   1      -6.771 -18.361  -3.590 -0.05 -0.24    -0.248 N 
DOCKED: ATOM     29 FE   UNL d   1      -8.267 -18.031  -4.927 -0.03 +0.00    +0.000 Fe
DOCKED: ENDROOT
DOCKED: BRANCH   6  30
DOCKED: ATOM     30  C   UNL d   1      -8.589 -14.481  -0.375 -0.12 +0.04    +0.052 C 
DOCKED: BRANCH  30  31
DOCKED: ATOM     31  C   UNL d   1      -7.888 -13.130  -0.523 -0.20 +0.11    +0.115 C 
DOCKED: BRANCH  31  32
DOCKED: ATOM     32  C   UNL d   1      -6.677 -13.204  -1.428 -0.18 +0.20    +0.139 C 
DOCKED: ATOM     33  O   UNL d   1      -6.834 -13.380  -2.627 -0.07 -1.08    -0.650 OA
DOCKED: BRANCH  32  34
DOCKED: ATOM     34  O   UNL d   1      -5.419 -13.034  -0.959 -0.01 -1.33    -0.776 OA
DOCKED: ATOM     35  H   UNL d   1      -4.928 -13.704  -0.466 +0.04 +0.33    +0.167 HD
DOCKED: ENDBRANCH  32  34
DOCKED: ENDBRANCH  31  32
DOCKED: ENDBRANCH  30  31
DOCKED: ENDBRANCH   6  30
DOCKED: BRANCH  29  36
DOCKED: ATOM     36  C   UNL d   1      -9.569 -19.225  -3.799 -0.01 +0.09    +0.190 C 
DOCKED: BRANCH  36  37
DOCKED: ATOM     37  O   UNL d   1     -10.263 -19.279  -2.586 +0.00 -0.15    -0.399 OA
DOCKED: ATOM     38  H   UNL d   1     -10.063 -18.411  -2.137 +0.01 +0.09    +0.209 HD
DOCKED: ENDBRANCH  36  37
DOCKED: ENDBRANCH  29  36
DOCKED: BRANCH  22  39
DOCKED: ATOM     39  C   UNL d   1      -4.648 -18.204  -0.521 -0.04 +0.05    +0.052 C 
DOCKED: BRANCH  39  40
DOCKED: ATOM     40  C   UNL d   1      -3.599 -17.090  -0.676 -0.08 +0.15    +0.115 C 
DOCKED: BRANCH  40  41
DOCKED: ATOM     41  C   UNL d   1      -4.007 -15.760  -0.078 -0.08 +0.26    +0.139 C 
DOCKED: ATOM     42  O   UNL d   1      -3.168 -14.881   0.053 -0.07 -1.13    -0.650 OA
DOCKED: BRANCH  41  43
DOCKED: ATOM     43  O   UNL d   1      -5.293 -15.486   0.234 -0.56 -1.75    -0.776 OA
DOCKED: ATOM     44  H   UNL d   1      -5.902 -15.069  -0.389 +0.02 +0.33    +0.167 HD
DOCKED: ENDBRANCH  41  43
DOCKED: ENDBRANCH  40  41
DOCKED: ENDBRANCH  39  40
DOCKED: ENDBRANCH  22  39
DOCKED: BRANCH  12  45
DOCKED: ATOM     45  C   UNL d   1     -11.784 -17.711  -9.177 -0.20 +0.00    +0.004 C 
DOCKED: ATOM     46  C   UNL d   1     -11.183 -17.716 -10.364 -0.26 +0.00    +0.012 C 
DOCKED: ENDBRANCH  12  45
DOCKED: BRANCH  17  47
DOCKED: ATOM     47  C   UNL d   1      -6.102 -22.578  -6.919 -0.05 +0.00    +0.004 C 
DOCKED: ATOM     48  C   UNL d   1      -4.972 -22.673  -7.624 -0.06 +0.01    +0.012 C 
DOCKED: ENDBRANCH  17  47
DOCKED: TORSDOF 12
DOCKED: TER
DOCKED: ENDMDL
________________________________________________________________________________


	BEGINNING GENETIC ALGORITHM DOCKING 25 of 100
Run: 25 Seed: 1082893517 559325047 [ Run 25 of 100 GA/GALS ]
Beginning LAMARCKIAN GENETIC ALGORITHM (LGA), with a maximum of 25000000 energy evaluations.

Final-Value: -12.922


	FINAL GENETIC ALGORITHM DOCKED STATE
	_______________________________________________


Detailed state:  trans -0.001 -15.675 -1.964 quatxyzw 0.427720 -0.047396 -0.402473 0.807976 center 8.781 34.984 -0.736 ntor 12 126.5552 134.4228 -21.5985 133.1673 79.4396 135.3359 -117.7214 60.6356 -129.6232 -54.8596 168.2849 -177.0163
State:	 -0.001 -15.675  -1.964   0.726 -0.080 -0.683 72.203    126.56  134.42  -21.60  133.17   79.44  135.34 -117.72   60.64 -129.62  -54.86  168.28 -177.02

DOCKED: MODEL       25
DOCKED: USER    Run = 25
DOCKED: USER    DPF = D:/Protein_go_brrr/autodock/final/AncA/heme_Co/dock.dpf
DOCKED: USER  
DOCKED: USER    Estimated Free Energy of Binding    =   -7.35 kcal/mol  [=(1)+(2)+(3)-(4)]
DOCKED: USER    Estimated Inhibition Constant, Ki   =    4.10 uM (micromolar)  [Temperature = 298.15 K]
DOCKED: USER    
DOCKED: USER    (1) Final Intermolecular Energy     =  -10.93 kcal/mol
DOCKED: USER        vdW + Hbond + desolv Energy     =   -6.57 kcal/mol
DOCKED: USER        Electrostatic Energy            =   -4.36 kcal/mol
DOCKED: USER    (2) Final Total Internal Energy     =   -1.99 kcal/mol
DOCKED: USER    (3) Torsional Free Energy           =   +3.58 kcal/mol
DOCKED: USER    (4) Unbound System's Energy  [=(2)] =   -1.99 kcal/mol
DOCKED: USER    
DOCKED: USER    
DOCKED: USER    NEWDPF move heme_Co_opt.pdbqt
DOCKED: USER    NEWDPF about 8.781000 34.984000 -0.736000
DOCKED: USER    NEWDPF tran0 -0.000649 -15.675216 -1.964025
DOCKED: USER    NEWDPF quaternion0 0.427720 -0.047396 -0.402473 0.807976
DOCKED: USER    NEWDPF axisangle0 0.725914 -0.080439 -0.683066 72.202771
DOCKED: USER    NEWDPF quat0 0.725914 -0.080439 -0.683066 72.202771
DOCKED: USER    NEWDPF dihe0 126.56 134.42 -21.60 133.17 79.44 135.34 -117.72 60.64 -129.62 -54.86 168.28 -177.02 
DOCKED: USER  keepresnum = 1 
DOCKED: USER  
DOCKED: REMARK  12 active torsions:
DOCKED: REMARK  status: ('A' for Active; 'I' for Inactive)
DOCKED: REMARK    1  A    between atoms: C_6  and  C_10 
DOCKED: REMARK    2  A    between atoms: C_10  and  C_11 
DOCKED: REMARK    3  A    between atoms: C_11  and  C_12 
DOCKED: REMARK    4  A    between atoms: C_12  and  O_14 
DOCKED: REMARK    5  A    between atoms: C_17  and  C_20 
DOCKED: REMARK    6  A    between atoms: C_24  and  C_27 
DOCKED: REMARK    7  A    between atoms: C_31  and  C_34 
DOCKED: REMARK    8  A    between atoms: C_34  and  C_35 
DOCKED: REMARK    9  A    between atoms: C_35  and  C_36 
DOCKED: REMARK   10  A    between atoms: C_36  and  O_38 
DOCKED: REMARK   11  A    between atoms: FE_43  and  C_44 
DOCKED: REMARK   12  A    between atoms: C_44  and  O_45 
DOCKED: USER                              x       y       z     vdW  Elec       q    Type
DOCKED: USER                           _______ _______ _______ _____ _____    ______ ____
DOCKED: ROOT
DOCKED: ATOM      1  C   UNL d   1      -1.417 -17.320  -2.011 -0.04 +0.06    +0.064 A 
DOCKED: ATOM      2  C   UNL d   1       0.266 -14.654   1.548 -0.13 +0.04    +0.064 C 
DOCKED: ATOM      3  C   UNL d   1       3.248 -12.449  -1.465 -0.14 +0.02    +0.064 A 
DOCKED: ATOM      4  C   UNL d   1       1.274 -14.887  -5.182 -0.21 +0.03    +0.064 A 
DOCKED: ATOM      5  C   UNL d   1      -1.151 -16.779  -0.811 -0.04 +0.05    +0.066 A 
DOCKED: ATOM      6  C   UNL d   1      -1.883 -17.121   0.343 -0.05 -0.02    -0.021 A 
DOCKED: ATOM      7  C   UNL d   1      -1.406 -16.328   1.368 -0.08 -0.02    -0.025 A 
DOCKED: ATOM      8  C   UNL d   1      -0.392 -15.548   0.800 -0.08 +0.05    +0.066 A 
DOCKED: ATOM      9  C   UNL d   1      -1.876 -16.293   2.830 +0.07 +0.05    +0.051 C 
DOCKED: ATOM     10  C   UNL d   1       1.341 -13.827   1.058 -0.11 +0.03    +0.066 A 
DOCKED: ATOM     11  C   UNL d   1       2.164 -12.972   1.823 -0.18 -0.01    -0.021 A 
DOCKED: ATOM     12  C   UNL d   1       3.026 -12.344   0.920 -0.21 +0.00    +0.000 A 
DOCKED: ATOM     13  C   UNL d   1       2.676 -12.871  -0.323 -0.12 +0.02    +0.070 A 
DOCKED: ATOM     14  C   UNL d   1       2.172 -12.851   3.326 -0.22 +0.02    +0.052 C 
DOCKED: ATOM     15  C   UNL d   1       2.972 -12.843  -2.832 -0.13 +0.02    +0.066 A 
DOCKED: ATOM     16  C   UNL d   1       3.498 -12.263  -3.978 -0.23 -0.01    -0.021 A 
DOCKED: ATOM     17  C   UNL d   1       2.930 -12.961  -5.053 -0.30 +0.00    +0.000 A 
DOCKED: ATOM     18  C   UNL d   1       2.113 -13.927  -4.475 -0.18 +0.03    +0.070 A 
DOCKED: ATOM     19  C   UNL d   1       4.479 -11.112  -4.007 -0.38 +0.01    +0.052 C 
DOCKED: ATOM     20  C   UNL d   1       0.407 -15.778  -4.644 -0.12 +0.04    +0.066 A 
DOCKED: ATOM     21  C   UNL d   1      -0.372 -16.625  -5.429 -0.15 -0.02    -0.025 A 
DOCKED: ATOM     22  C   UNL d   1      -1.137 -17.358  -4.541 -0.10 -0.02    -0.021 A 
DOCKED: ATOM     23  C   UNL d   1      -0.793 -16.910  -3.248 -0.07 +0.06    +0.066 A 
DOCKED: ATOM     24  C   UNL d   1      -0.401 -16.718  -6.953 -0.28 +0.03    +0.051 C 
DOCKED: ATOM     25  N   UNL d   1      -0.209 -15.811  -0.547 -0.02 -0.17    -0.248 N 
DOCKED: ATOM     26  N   UNL d   1       1.695 -13.808  -0.231 -0.04 -0.10    -0.248 N 
DOCKED: ATOM     27  N   UNL d   1       2.139 -13.808  -3.153 -0.05 -0.10    -0.248 N 
DOCKED: ATOM     28  N   UNL d   1       0.139 -15.952  -3.306 -0.03 -0.18    -0.248 N 
DOCKED: ATOM     29 FE   UNL d   1       1.034 -14.752  -1.929 -0.02 +0.00    +0.000 Fe
DOCKED: ENDROOT
DOCKED: BRANCH   6  30
DOCKED: ATOM     30  C   UNL d   1      -3.043 -18.108   0.424 -0.04 +0.04    +0.052 C 
DOCKED: BRANCH  30  31
DOCKED: ATOM     31  C   UNL d   1      -4.367 -17.367   0.613 -0.07 +0.15    +0.115 C 
DOCKED: BRANCH  31  32
DOCKED: ATOM     32  C   UNL d   1      -4.533 -16.224  -0.365 -0.11 +0.25    +0.139 C 
DOCKED: ATOM     33  O   UNL d   1      -5.397 -16.292  -1.227 -0.26 -1.33    -0.650 OA
DOCKED: BRANCH  32  34
DOCKED: ATOM     34  O   UNL d   1      -3.784 -15.099  -0.289 -0.12 -1.52    -0.776 OA
DOCKED: ATOM     35  H   UNL d   1      -3.226 -14.768  -1.005 +0.02 +0.33    +0.167 HD
DOCKED: ENDBRANCH  32  34
DOCKED: ENDBRANCH  31  32
DOCKED: ENDBRANCH  30  31
DOCKED: ENDBRANCH   6  30
DOCKED: BRANCH  29  36
DOCKED: ATOM     36  C   UNL d   1      -0.526 -13.362  -2.093 -0.14 +0.15    +0.190 C 
DOCKED: BRANCH  36  37
DOCKED: ATOM     37  O   UNL d   1      -1.897 -13.194  -1.873 -0.15 -0.49    -0.399 OA
DOCKED: ATOM     38  H   UNL d   1      -2.138 -13.897  -1.206 +0.06 +0.28    +0.209 HD
DOCKED: ENDBRANCH  36  37
DOCKED: ENDBRANCH  29  36
DOCKED: BRANCH  22  39
DOCKED: ATOM     39  C   UNL d   1      -2.186 -18.386  -4.923 -0.10 +0.05    +0.052 C 
DOCKED: BRANCH  39  40
DOCKED: ATOM     40  C   UNL d   1      -3.465 -17.694  -5.423 -0.15 +0.16    +0.115 C 
DOCKED: BRANCH  40  41
DOCKED: ATOM     41  C   UNL d   1      -3.847 -18.041  -6.847 -0.19 +0.22    +0.139 C 
DOCKED: ATOM     42  O   UNL d   1      -4.618 -17.311  -7.455 +0.09 -1.10    -0.650 OA
DOCKED: BRANCH  41  43
DOCKED: ATOM     43  O   UNL d   1      -3.291 -19.087  -7.497 -0.36 -1.70    -0.776 OA
DOCKED: ATOM     44  H   UNL d   1      -2.490 -19.527  -7.184 +0.03 +0.23    +0.167 HD
DOCKED: ENDBRANCH  41  43
DOCKED: ENDBRANCH  40  41
DOCKED: ENDBRANCH  39  40
DOCKED: ENDBRANCH  22  39
DOCKED: BRANCH  12  45
DOCKED: ATOM     45  C   UNL d   1       4.148 -11.328   1.091 -0.24 +0.00    +0.004 C 
DOCKED: ATOM     46  C   UNL d   1       5.423 -11.374   0.713 -0.26 +0.00    +0.012 C 
DOCKED: ENDBRANCH  12  45
DOCKED: BRANCH  17  47
DOCKED: ATOM     47  C   UNL d   1       3.078 -12.736  -6.522 -0.45 +0.00    +0.004 C 
DOCKED: ATOM     48  C   UNL d   1       4.253 -12.751  -7.155 -0.50 +0.00    +0.012 C 
DOCKED: ENDBRANCH  17  47
DOCKED: TORSDOF 12
DOCKED: TER
DOCKED: ENDMDL
________________________________________________________________________________


	BEGINNING GENETIC ALGORITHM DOCKING 26 of 100
Run: 26 Seed: 12652607 560993841 [ Run 26 of 100 GA/GALS ]
Beginning LAMARCKIAN GENETIC ALGORITHM (LGA), with a maximum of 25000000 energy evaluations.

Final-Value: -10.168


	FINAL GENETIC ALGORITHM DOCKED STATE
	_______________________________________________


Detailed state:  trans -21.190 -1.018 3.550 quatxyzw -0.742290 0.550279 0.226543 0.308021 center 8.781 34.984 -0.736 ntor 12 38.3790 111.4606 -138.2333 -84.2788 -73.4194 152.9638 179.9469 141.0946 -175.4412 -112.4107 -5.1686 -6.3939
State:	-21.190  -1.018   3.550  -0.780  0.578  0.238 144.120     38.38  111.46 -138.23  -84.28  -73.42  152.96  179.95  141.09 -175.44 -112.41   -5.17   -6.39

DOCKED: MODEL       26
DOCKED: USER    Run = 26
DOCKED: USER    DPF = D:/Protein_go_brrr/autodock/final/AncA/heme_Co/dock.dpf
DOCKED: USER  
DOCKED: USER    Estimated Free Energy of Binding    =   -4.72 kcal/mol  [=(1)+(2)+(3)-(4)]
DOCKED: USER    Estimated Inhibition Constant, Ki   =  348.26 uM (micromolar)  [Temperature = 298.15 K]
DOCKED: USER    
DOCKED: USER    (1) Final Intermolecular Energy     =   -8.30 kcal/mol
DOCKED: USER        vdW + Hbond + desolv Energy     =   -5.47 kcal/mol
DOCKED: USER        Electrostatic Energy            =   -2.82 kcal/mol
DOCKED: USER    (2) Final Total Internal Energy     =   -1.87 kcal/mol
DOCKED: USER    (3) Torsional Free Energy           =   +3.58 kcal/mol
DOCKED: USER    (4) Unbound System's Energy  [=(2)] =   -1.87 kcal/mol
DOCKED: USER    
DOCKED: USER    
DOCKED: USER    NEWDPF move heme_Co_opt.pdbqt
DOCKED: USER    NEWDPF about 8.781000 34.984000 -0.736000
DOCKED: USER    NEWDPF tran0 -21.189772 -1.018498 3.550060
DOCKED: USER    NEWDPF quaternion0 -0.742290 0.550279 0.226543 0.308021
DOCKED: USER    NEWDPF axisangle0 -0.780225 0.578401 0.238121 144.119985
DOCKED: USER    NEWDPF quat0 -0.780225 0.578401 0.238121 144.119985
DOCKED: USER    NEWDPF dihe0 38.38 111.46 -138.23 -84.28 -73.42 152.96 179.95 141.09 -175.44 -112.41 -5.17 -6.39 
DOCKED: USER  keepresnum = 1 
DOCKED: USER  
DOCKED: REMARK  12 active torsions:
DOCKED: REMARK  status: ('A' for Active; 'I' for Inactive)
DOCKED: REMARK    1  A    between atoms: C_6  and  C_10 
DOCKED: REMARK    2  A    between atoms: C_10  and  C_11 
DOCKED: REMARK    3  A    between atoms: C_11  and  C_12 
DOCKED: REMARK    4  A    between atoms: C_12  and  O_14 
DOCKED: REMARK    5  A    between atoms: C_17  and  C_20 
DOCKED: REMARK    6  A    between atoms: C_24  and  C_27 
DOCKED: REMARK    7  A    between atoms: C_31  and  C_34 
DOCKED: REMARK    8  A    between atoms: C_34  and  C_35 
DOCKED: REMARK    9  A    between atoms: C_35  and  C_36 
DOCKED: REMARK   10  A    between atoms: C_36  and  O_38 
DOCKED: REMARK   11  A    between atoms: FE_43  and  C_44 
DOCKED: REMARK   12  A    between atoms: C_44  and  O_45 
DOCKED: USER                              x       y       z     vdW  Elec       q    Type
DOCKED: USER                           _______ _______ _______ _____ _____    ______ ____
DOCKED: ROOT
DOCKED: ATOM      1  C   UNL d   1     -21.518   0.907   4.499 +0.03 +0.07    +0.064 A 
DOCKED: ATOM      2  C   UNL d   1     -21.871  -0.530  -0.020 -0.17 +0.02    +0.064 C 
DOCKED: ATOM      3  C   UNL d   1     -20.191  -4.839   1.179 -0.26 +0.01    +0.064 A 
DOCKED: ATOM      4  C   UNL d   1     -20.186  -3.519   5.861 -0.13 +0.01    +0.064 A 
DOCKED: ATOM      5  C   UNL d   1     -21.704   0.842   3.170 -0.07 +0.07    +0.066 A 
DOCKED: ATOM      6  C   UNL d   1     -22.265   1.909   2.441 -0.10 -0.01    -0.021 A 
DOCKED: ATOM      7  C   UNL d   1     -22.387   1.479   1.135 -0.11 -0.01    -0.025 A 
DOCKED: ATOM      8  C   UNL d   1     -21.879   0.175   1.119 -0.14 +0.04    +0.066 A 
DOCKED: ATOM      9  C   UNL d   1     -22.957   2.253  -0.064 -0.08 +0.01    +0.051 C 
DOCKED: ATOM     10  C   UNL d   1     -21.346  -1.867  -0.139 -0.18 +0.02    +0.066 A 
DOCKED: ATOM     11  C   UNL d   1     -21.180  -2.606  -1.330 -0.24 -0.01    -0.021 A 
DOCKED: ATOM     12  C   UNL d   1     -20.685  -3.857  -0.952 -0.29 +0.00    +0.000 A 
DOCKED: ATOM     13  C   UNL d   1     -20.574  -3.784   0.437 -0.21 +0.02    +0.070 A 
DOCKED: ATOM     14  C   UNL d   1     -21.396  -2.097  -2.732 -0.20 +0.01    +0.052 C 
DOCKED: ATOM     15  C   UNL d   1     -20.073  -4.955   2.619 -0.22 +0.01    +0.066 A 
DOCKED: ATOM     16  C   UNL d   1     -19.812  -6.117   3.332 -0.30 -0.00    -0.021 A 
DOCKED: ATOM     17  C   UNL d   1     -19.812  -5.742   4.683 -0.27 +0.00    +0.000 A 
DOCKED: ATOM     18  C   UNL d   1     -20.057  -4.373   4.687 -0.16 +0.01    +0.070 A 
DOCKED: ATOM     19  C   UNL d   1     -19.584  -7.484   2.728 -0.02 -0.00    +0.052 C 
DOCKED: ATOM     20  C   UNL d   1     -20.509  -2.204   5.893 -0.10 +0.03    +0.066 A 
DOCKED: ATOM     21  C   UNL d   1     -20.639  -1.499   7.088 -0.05 -0.01    -0.025 A 
DOCKED: ATOM     22  C   UNL d   1     -20.994  -0.213   6.725 -0.05 -0.01    -0.021 A 
DOCKED: ATOM     23  C   UNL d   1     -21.076  -0.200   5.316 -0.07 +0.06    +0.066 A 
DOCKED: ATOM     24  C   UNL d   1     -20.454  -2.030   8.507 -0.05 +0.01    +0.051 C 
DOCKED: ATOM     25  N   UNL d   1     -21.444  -0.243   2.365 -0.08 -0.25    -0.248 N 
DOCKED: ATOM     26  N   UNL d   1     -20.920  -2.562   0.922 -0.11 -0.10    -0.248 N 
DOCKED: ATOM     27  N   UNL d   1     -20.237  -3.944   3.442 -0.11 -0.08    -0.248 N 
DOCKED: ATOM     28  N   UNL d   1     -20.785  -1.404   4.809 -0.09 -0.21    -0.248 N 
DOCKED: ATOM     29 FE   UNL d   1     -20.804  -2.202   2.939 -0.04 +0.00    +0.000 Fe
DOCKED: ENDROOT
DOCKED: BRANCH   6  30
DOCKED: ATOM     30  C   UNL d   1     -22.736   3.247   3.003 -0.05 +0.02    +0.052 C 
DOCKED: BRANCH  30  31
DOCKED: ATOM     31  C   UNL d   1     -21.547   4.176   3.245 -0.09 +0.06    +0.115 C 
DOCKED: BRANCH  31  32
DOCKED: ATOM     32  C   UNL d   1     -20.235   3.560   2.809 -0.16 +0.15    +0.139 C 
DOCKED: ATOM     33  O   UNL d   1     -20.141   3.076   1.691 -0.08 -0.74    -0.650 OA
DOCKED: BRANCH  32  34
DOCKED: ATOM     34  O   UNL d   1     -19.138   3.570   3.602 -0.11 -1.16    -0.776 OA
DOCKED: ATOM     35  H   UNL d   1     -19.164   3.500   4.566 +0.04 +0.23    +0.167 HD
DOCKED: ENDBRANCH  32  34
DOCKED: ENDBRANCH  31  32
DOCKED: ENDBRANCH  30  31
DOCKED: ENDBRANCH   6  30
DOCKED: BRANCH  29  36
DOCKED: ATOM     36  C   UNL d   1     -22.834  -2.684   3.140 -0.03 +0.05    +0.190 C 
DOCKED: BRANCH  36  37
DOCKED: ATOM     37  O   UNL d   1     -24.122  -2.147   3.041 +0.00 -0.09    -0.399 OA
DOCKED: ATOM     38  H   UNL d   1     -23.982  -1.187   2.808 +0.01 +0.05    +0.209 HD
DOCKED: ENDBRANCH  36  37
DOCKED: ENDBRANCH  29  36
DOCKED: BRANCH  22  39
DOCKED: ATOM     39  C   UNL d   1     -21.301   0.919   7.687 -0.01 +0.02    +0.052 C 
DOCKED: BRANCH  39  40
DOCKED: ATOM     40  C   UNL d   1     -20.052   1.784   7.924 -0.02 +0.04    +0.115 C 
DOCKED: BRANCH  40  41
DOCKED: ATOM     41  C   UNL d   1     -19.519   2.467   6.682 -0.09 +0.10    +0.139 C 
DOCKED: ATOM     42  O   UNL d   1     -18.821   1.833   5.904 +0.01 -1.00    -0.650 OA
DOCKED: BRANCH  41  43
DOCKED: ATOM     43  O   UNL d   1     -19.866   3.734   6.365 +0.03 -0.41    -0.776 OA
DOCKED: ATOM     44  H   UNL d   1     -20.162   3.985   5.480 +0.03 +0.10    +0.167 HD
DOCKED: ENDBRANCH  41  43
DOCKED: ENDBRANCH  40  41
DOCKED: ENDBRANCH  39  40
DOCKED: ENDBRANCH  22  39
DOCKED: BRANCH  12  45
DOCKED: ATOM     45  C   UNL d   1     -20.289  -5.098  -1.740 -0.33 +0.00    +0.004 C 
DOCKED: ATOM     46  C   UNL d   1     -20.995  -6.177  -2.068 -0.30 +0.00    +0.012 C 
DOCKED: ENDBRANCH  12  45
DOCKED: BRANCH  17  47
DOCKED: ATOM     47  C   UNL d   1     -19.650  -6.583   5.907 -0.30 -0.00    +0.004 C 
DOCKED: ATOM     48  C   UNL d   1     -20.677  -7.072   6.606 -0.15 -0.00    +0.012 C 
DOCKED: ENDBRANCH  17  47
DOCKED: TORSDOF 12
DOCKED: TER
DOCKED: ENDMDL
________________________________________________________________________________


	BEGINNING GENETIC ALGORITHM DOCKING 27 of 100
Run: 27 Seed: 280287837 1175847255 [ Run 27 of 100 GA/GALS ]
Beginning LAMARCKIAN GENETIC ALGORITHM (LGA), with a maximum of 25000000 energy evaluations.

Final-Value: -12.513


	FINAL GENETIC ALGORITHM DOCKED STATE
	_______________________________________________


Detailed state:  trans -11.017 -13.854 -1.102 quatxyzw -0.497075 -0.648555 0.559856 0.137310 center 8.781 34.984 -0.736 ntor 12 113.7647 109.5147 69.2976 116.5910 156.3997 89.8337 92.7083 -77.0493 -58.0565 125.0030 -157.5417 178.7579
State:	-11.017 -13.854  -1.102  -0.502 -0.655  0.565 164.216    113.76  109.51   69.30  116.59  156.40   89.83   92.71  -77.05  -58.06  125.00 -157.54  178.76

DOCKED: MODEL       27
DOCKED: USER    Run = 27
DOCKED: USER    DPF = D:/Protein_go_brrr/autodock/final/AncA/heme_Co/dock.dpf
DOCKED: USER  
DOCKED: USER    Estimated Free Energy of Binding    =   -6.52 kcal/mol  [=(1)+(2)+(3)-(4)]
DOCKED: USER    Estimated Inhibition Constant, Ki   =   16.51 uM (micromolar)  [Temperature = 298.15 K]
DOCKED: USER    
DOCKED: USER    (1) Final Intermolecular Energy     =  -10.10 kcal/mol
DOCKED: USER        vdW + Hbond + desolv Energy     =   -6.03 kcal/mol
DOCKED: USER        Electrostatic Energy            =   -4.08 kcal/mol
DOCKED: USER    (2) Final Total Internal Energy     =   -2.41 kcal/mol
DOCKED: USER    (3) Torsional Free Energy           =   +3.58 kcal/mol
DOCKED: USER    (4) Unbound System's Energy  [=(2)] =   -2.41 kcal/mol
DOCKED: USER    
DOCKED: USER    
DOCKED: USER    NEWDPF move heme_Co_opt.pdbqt
DOCKED: USER    NEWDPF about 8.781000 34.984000 -0.736000
DOCKED: USER    NEWDPF tran0 -11.017094 -13.853863 -1.102118
DOCKED: USER    NEWDPF quaternion0 -0.497075 -0.648555 0.559856 0.137310
DOCKED: USER    NEWDPF axisangle0 -0.501829 -0.654756 0.565210 164.215517
DOCKED: USER    NEWDPF quat0 -0.501829 -0.654756 0.565210 164.215517
DOCKED: USER    NEWDPF dihe0 113.76 109.51 69.30 116.59 156.40 89.83 92.71 -77.05 -58.06 125.00 -157.54 178.76 
DOCKED: USER  keepresnum = 1 
DOCKED: USER  
DOCKED: REMARK  12 active torsions:
DOCKED: REMARK  status: ('A' for Active; 'I' for Inactive)
DOCKED: REMARK    1  A    between atoms: C_6  and  C_10 
DOCKED: REMARK    2  A    between atoms: C_10  and  C_11 
DOCKED: REMARK    3  A    between atoms: C_11  and  C_12 
DOCKED: REMARK    4  A    between atoms: C_12  and  O_14 
DOCKED: REMARK    5  A    between atoms: C_17  and  C_20 
DOCKED: REMARK    6  A    between atoms: C_24  and  C_27 
DOCKED: REMARK    7  A    between atoms: C_31  and  C_34 
DOCKED: REMARK    8  A    between atoms: C_34  and  C_35 
DOCKED: REMARK    9  A    between atoms: C_35  and  C_36 
DOCKED: REMARK   10  A    between atoms: C_36  and  O_38 
DOCKED: REMARK   11  A    between atoms: FE_43  and  C_44 
DOCKED: REMARK   12  A    between atoms: C_44  and  O_45 
DOCKED: USER                              x       y       z     vdW  Elec       q    Type
DOCKED: USER                           _______ _______ _______ _____ _____    ______ ____
DOCKED: ROOT
DOCKED: ATOM      1  C   UNL d   1      -9.391 -14.131   0.310 -0.14 +0.04    +0.064 A 
DOCKED: ATOM      2  C   UNL d   1     -13.518 -16.413  -0.299 -0.13 +0.01    +0.064 C 
DOCKED: ATOM      3  C   UNL d   1     -14.795 -13.281  -3.673 -0.16 +0.01    +0.064 A 
DOCKED: ATOM      4  C   UNL d   1     -10.428 -11.163  -3.342 -0.27 +0.02    +0.064 A 
DOCKED: ATOM      5  C   UNL d   1     -10.440 -14.963   0.417 -0.11 +0.03    +0.066 A 
DOCKED: ATOM      6  C   UNL d   1     -10.422 -16.083   1.271 -0.06 -0.01    -0.021 A 
DOCKED: ATOM      7  C   UNL d   1     -11.612 -16.755   1.073 -0.06 -0.01    -0.025 A 
DOCKED: ATOM      8  C   UNL d   1     -12.313 -16.007   0.121 -0.08 +0.02    +0.066 A 
DOCKED: ATOM      9  C   UNL d   1     -12.086 -18.051   1.747 -0.02 +0.01    +0.051 C 
DOCKED: ATOM     10  C   UNL d   1     -14.324 -15.696  -1.255 -0.14 +0.01    +0.066 A 
DOCKED: ATOM     11  C   UNL d   1     -15.652 -15.993  -1.631 -0.12 -0.00    -0.021 A 
DOCKED: ATOM     12  C   UNL d   1     -16.001 -15.062  -2.613 -0.14 +0.00    +0.000 A 
DOCKED: ATOM     13  C   UNL d   1     -14.867 -14.260  -2.755 -0.15 +0.01    +0.070 A 
DOCKED: ATOM     14  C   UNL d   1     -16.541 -17.040  -1.011 -0.07 +0.01    +0.052 C 
DOCKED: ATOM     15  C   UNL d   1     -13.691 -12.396  -3.990 -0.22 +0.00    +0.066 A 
DOCKED: ATOM     16  C   UNL d   1     -13.630 -11.502  -5.049 -0.30 -0.00    -0.021 A 
DOCKED: ATOM     17  C   UNL d   1     -12.372 -10.891  -4.959 -0.41 +0.00    +0.000 A 
DOCKED: ATOM     18  C   UNL d   1     -11.769 -11.450  -3.838 -0.30 +0.01    +0.070 A 
DOCKED: ATOM     19  C   UNL d   1     -14.726 -11.273  -6.067 -0.26 +0.00    +0.052 C 
DOCKED: ATOM     20  C   UNL d   1      -9.788 -11.756  -2.306 -0.26 +0.03    +0.066 A 
DOCKED: ATOM     21  C   UNL d   1      -8.485 -11.420  -1.946 -0.26 -0.01    -0.025 A 
DOCKED: ATOM     22  C   UNL d   1      -8.170 -12.239  -0.878 -0.22 -0.02    -0.021 A 
DOCKED: ATOM     23  C   UNL d   1      -9.301 -13.050  -0.644 -0.20 +0.04    +0.066 A 
DOCKED: ATOM     24  C   UNL d   1      -7.577 -10.383  -2.601 -0.10 +0.03    +0.051 C 
DOCKED: ATOM     25  N   UNL d   1     -11.613 -14.889  -0.299 -0.07 -0.08    -0.248 N 
DOCKED: ATOM     26  N   UNL d   1     -13.875 -14.610  -1.893 -0.10 -0.03    -0.248 N 
DOCKED: ATOM     27  N   UNL d   1     -12.571 -12.364  -3.303 -0.14 -0.03    -0.248 N 
DOCKED: ATOM     28  N   UNL d   1     -10.282 -12.762  -1.508 -0.14 -0.11    -0.248 N 
DOCKED: ATOM     29 FE   UNL d   1     -12.117 -13.550  -1.890 -0.06 +0.00    +0.000 Fe
DOCKED: ENDROOT
DOCKED: BRANCH   6  30
DOCKED: ATOM     30  C   UNL d   1      -9.271 -16.523   2.170 -0.03 +0.03    +0.052 C 
DOCKED: BRANCH  30  31
DOCKED: ATOM     31  C   UNL d   1      -8.138 -17.124   1.338 -0.02 +0.09    +0.115 C 
DOCKED: BRANCH  31  32
DOCKED: ATOM     32  C   UNL d   1      -6.838 -16.366   1.501 +0.03 +0.22    +0.139 C 
DOCKED: ATOM     33  O   UNL d   1      -6.861 -15.150   1.615 +0.29 -1.49    -0.650 OA
DOCKED: BRANCH  32  34
DOCKED: ATOM     34  O   UNL d   1      -5.643 -16.998   1.572 -0.05 -1.30    -0.776 OA
DOCKED: ATOM     35  H   UNL d   1      -4.971 -16.972   0.877 +0.01 +0.26    +0.167 HD
DOCKED: ENDBRANCH  32  34
DOCKED: ENDBRANCH  31  32
DOCKED: ENDBRANCH  30  31
DOCKED: ENDBRANCH   6  30
DOCKED: BRANCH  29  36
DOCKED: ATOM     36  C   UNL d   1     -11.269 -14.956  -3.192 -0.10 +0.07    +0.190 C 
DOCKED: BRANCH  36  37
DOCKED: ATOM     37  O   UNL d   1     -10.060 -15.572  -3.533 -0.04 -0.21    -0.399 OA
DOCKED: ATOM     38  H   UNL d   1      -9.376 -15.131  -2.956 +0.05 +0.14    +0.209 HD
DOCKED: ENDBRANCH  36  37
DOCKED: ENDBRANCH  29  36
DOCKED: BRANCH  22  39
DOCKED: ATOM     39  C   UNL d   1      -6.830 -12.281  -0.167 +0.08 +0.06    +0.052 C 
DOCKED: BRANCH  39  40
DOCKED: ATOM     40  C   UNL d   1      -5.816 -13.114  -0.970 -0.21 +0.19    +0.115 C 
DOCKED: BRANCH  40  41
DOCKED: ATOM     41  C   UNL d   1      -6.219 -14.558  -1.178 +0.21 +0.29    +0.139 C 
DOCKED: ATOM     42  O   UNL d   1      -7.248 -14.810  -1.789 -0.32 -1.04    -0.650 OA
DOCKED: BRANCH  41  43
DOCKED: ATOM     43  O   UNL d   1      -5.428 -15.580  -0.783 -0.32 -1.71    -0.776 OA
DOCKED: ATOM     44  H   UNL d   1      -5.344 -15.844   0.143 +0.01 +0.34    +0.167 HD
DOCKED: ENDBRANCH  41  43
DOCKED: ENDBRANCH  40  41
DOCKED: ENDBRANCH  39  40
DOCKED: ENDBRANCH  22  39
DOCKED: BRANCH  12  45
DOCKED: ATOM     45  C   UNL d   1     -17.273 -14.827  -3.416 -0.09 +0.00    +0.004 C 
DOCKED: ATOM     46  C   UNL d   1     -18.178 -13.855  -3.340 -0.13 +0.00    +0.012 C 
DOCKED: ENDBRANCH  12  45
DOCKED: BRANCH  17  47
DOCKED: ATOM     47  C   UNL d   1     -11.729  -9.893  -5.866 -0.52 +0.00    +0.004 C 
DOCKED: ATOM     48  C   UNL d   1     -11.090  -8.805  -5.429 -0.17 +0.00    +0.012 C 
DOCKED: ENDBRANCH  17  47
DOCKED: TORSDOF 12
DOCKED: TER
DOCKED: ENDMDL
________________________________________________________________________________


	BEGINNING GENETIC ALGORITHM DOCKING 28 of 100
Run: 28 Seed: 1296423882 1106215530 [ Run 28 of 100 GA/GALS ]
Beginning LAMARCKIAN GENETIC ALGORITHM (LGA), with a maximum of 25000000 energy evaluations.

Final-Value: -13.234


	FINAL GENETIC ALGORITHM DOCKED STATE
	_______________________________________________


Detailed state:  trans -0.249 -15.855 -1.760 quatxyzw 0.411540 0.053411 -0.421650 0.806222 center 8.781 34.984 -0.736 ntor 12 -145.8819 130.1736 3.0013 43.6464 135.7296 121.5521 33.9466 54.6432 174.8372 -37.1026 -178.2587 158.8911
State:	 -0.249 -15.855  -1.760   0.696  0.090 -0.713 72.543   -145.88  130.17    3.00   43.65  135.73  121.55   33.95   54.64  174.84  -37.10 -178.26  158.89

DOCKED: MODEL       28
DOCKED: USER    Run = 28
DOCKED: USER    DPF = D:/Protein_go_brrr/autodock/final/AncA/heme_Co/dock.dpf
DOCKED: USER  
DOCKED: USER    Estimated Free Energy of Binding    =   -7.60 kcal/mol  [=(1)+(2)+(3)-(4)]
DOCKED: USER    Estimated Inhibition Constant, Ki   =    2.68 uM (micromolar)  [Temperature = 298.15 K]
DOCKED: USER    
DOCKED: USER    (1) Final Intermolecular Energy     =  -11.18 kcal/mol
DOCKED: USER        vdW + Hbond + desolv Energy     =   -6.49 kcal/mol
DOCKED: USER        Electrostatic Energy            =   -4.69 kcal/mol
DOCKED: USER    (2) Final Total Internal Energy     =   -2.05 kcal/mol
DOCKED: USER    (3) Torsional Free Energy           =   +3.58 kcal/mol
DOCKED: USER    (4) Unbound System's Energy  [=(2)] =   -2.05 kcal/mol
DOCKED: USER    
DOCKED: USER    
DOCKED: USER    NEWDPF move heme_Co_opt.pdbqt
DOCKED: USER    NEWDPF about 8.781000 34.984000 -0.736000
DOCKED: USER    NEWDPF tran0 -0.249400 -15.855176 -1.760442
DOCKED: USER    NEWDPF quaternion0 0.411540 0.053411 -0.421650 0.806222
DOCKED: USER    NEWDPF axisangle0 0.695623 0.090280 -0.712712 72.543165
DOCKED: USER    NEWDPF quat0 0.695623 0.090280 -0.712712 72.543165
DOCKED: USER    NEWDPF dihe0 -145.88 130.17 3.00 43.65 135.73 121.55 33.95 54.64 174.84 -37.10 -178.26 158.89 
DOCKED: USER  keepresnum = 1 
DOCKED: USER  
DOCKED: REMARK  12 active torsions:
DOCKED: REMARK  status: ('A' for Active; 'I' for Inactive)
DOCKED: REMARK    1  A    between atoms: C_6  and  C_10 
DOCKED: REMARK    2  A    between atoms: C_10  and  C_11 
DOCKED: REMARK    3  A    between atoms: C_11  and  C_12 
DOCKED: REMARK    4  A    between atoms: C_12  and  O_14 
DOCKED: REMARK    5  A    between atoms: C_17  and  C_20 
DOCKED: REMARK    6  A    between atoms: C_24  and  C_27 
DOCKED: REMARK    7  A    between atoms: C_31  and  C_34 
DOCKED: REMARK    8  A    between atoms: C_34  and  C_35 
DOCKED: REMARK    9  A    between atoms: C_35  and  C_36 
DOCKED: REMARK   10  A    between atoms: C_36  and  O_38 
DOCKED: REMARK   11  A    between atoms: FE_43  and  C_44 
DOCKED: REMARK   12  A    between atoms: C_44  and  O_45 
DOCKED: USER                              x       y       z     vdW  Elec       q    Type
DOCKED: USER                           _______ _______ _______ _____ _____    ______ ____
DOCKED: ROOT
DOCKED: ATOM      1  C   UNL d   1      -1.434 -17.629  -2.166 -0.03 +0.06    +0.064 A 
DOCKED: ATOM      2  C   UNL d   1      -0.557 -15.221   1.839 -0.09 +0.05    +0.064 C 
DOCKED: ATOM      3  C   UNL d   1       2.486 -12.372  -0.497 -0.18 +0.02    +0.064 A 
DOCKED: ATOM      4  C   UNL d   1       1.314 -14.569  -4.676 -0.18 +0.03    +0.064 A 
DOCKED: ATOM      5  C   UNL d   1      -1.391 -17.203  -0.893 -0.03 +0.05    +0.066 A 
DOCKED: ATOM      6  C   UNL d   1      -2.215 -17.753   0.108 -0.03 -0.02    -0.021 A 
DOCKED: ATOM      7  C   UNL d   1      -1.973 -17.036   1.262 -0.07 -0.02    -0.025 A 
DOCKED: ATOM      8  C   UNL d   1      -1.000 -16.090   0.921 -0.08 +0.05    +0.066 A 
DOCKED: ATOM      9  C   UNL d   1      -2.625 -17.221   2.641 -0.06 +0.05    +0.051 C 
DOCKED: ATOM     10  C   UNL d   1       0.461 -14.230   1.587 -0.13 +0.04    +0.066 A 
DOCKED: ATOM     11  C   UNL d   1       1.068 -13.384   2.540 -0.19 -0.01    -0.021 A 
DOCKED: ATOM     12  C   UNL d   1       1.954 -12.567   1.833 -0.24 +0.00    +0.000 A 
DOCKED: ATOM     13  C   UNL d   1       1.831 -12.982   0.506 -0.15 +0.03    +0.070 A 
DOCKED: ATOM     14  C   UNL d   1       0.871 -13.436   4.033 -0.24 +0.03    +0.052 C 
DOCKED: ATOM     15  C   UNL d   1       2.436 -12.634  -1.922 -0.14 +0.02    +0.066 A 
DOCKED: ATOM     16  C   UNL d   1       3.027 -11.872  -2.920 -0.23 -0.01    -0.021 A 
DOCKED: ATOM     17  C   UNL d   1       2.690 -12.501  -4.128 -0.25 +0.00    +0.000 A 
DOCKED: ATOM     18  C   UNL d   1       1.932 -13.610  -3.768 -0.15 +0.03    +0.070 A 
DOCKED: ATOM     19  C   UNL d   1       3.854 -10.626  -2.699 -0.19 +0.01    +0.052 C 
DOCKED: ATOM     20  C   UNL d   1       0.502 -15.604  -4.355 -0.11 +0.04    +0.066 A 
DOCKED: ATOM     21  C   UNL d   1      -0.060 -16.435  -5.321 -0.15 -0.02    -0.025 A 
DOCKED: ATOM     22  C   UNL d   1      -0.834 -17.345  -4.625 -0.09 -0.02    -0.021 A 
DOCKED: ATOM     23  C   UNL d   1      -0.715 -17.014  -3.258 -0.06 +0.06    +0.066 A 
DOCKED: ATOM     24  C   UNL d   1       0.115 -16.355  -6.835 -0.30 +0.03    +0.051 C 
DOCKED: ATOM     25  N   UNL d   1      -0.616 -16.175  -0.406 -0.02 -0.18    -0.248 N 
DOCKED: ATOM     26  N   UNL d   1       0.970 -14.025   0.368 -0.06 -0.12    -0.248 N 
DOCKED: ATOM     27  N   UNL d   1       1.776 -13.641  -2.449 -0.04 -0.10    -0.248 N 
DOCKED: ATOM     28  N   UNL d   1       0.092 -15.959  -3.091 -0.03 -0.18    -0.248 N 
DOCKED: ATOM     29 FE   UNL d   1       0.650 -14.835  -1.491 -0.02 +0.00    +0.000 Fe
DOCKED: ENDROOT
DOCKED: BRANCH   6  30
DOCKED: ATOM     30  C   UNL d   1      -3.245 -18.864  -0.071 -0.01 +0.04    +0.052 C 
DOCKED: BRANCH  30  31
DOCKED: ATOM     31  C   UNL d   1      -4.631 -18.275  -0.328 -0.03 +0.11    +0.115 C 
DOCKED: BRANCH  31  32
DOCKED: ATOM     32  C   UNL d   1      -4.657 -16.769  -0.170 -0.09 +0.21    +0.139 C 
DOCKED: ATOM     33  O   UNL d   1      -5.007 -16.283   0.895 -0.24 -1.40    -0.650 OA
DOCKED: BRANCH  32  34
DOCKED: ATOM     34  O   UNL d   1      -4.258 -15.937  -1.160 +0.04 -1.71    -0.776 OA
DOCKED: ATOM     35  H   UNL d   1      -3.866 -15.065  -1.012 +0.02 +0.38    +0.167 HD
DOCKED: ENDBRANCH  32  34
DOCKED: ENDBRANCH  31  32
DOCKED: ENDBRANCH  30  31
DOCKED: ENDBRANCH   6  30
DOCKED: BRANCH  29  36
DOCKED: ATOM     36  C   UNL d   1      -1.037 -13.614  -1.731 -0.15 +0.18    +0.190 C 
DOCKED: BRANCH  36  37
DOCKED: ATOM     37  O   UNL d   1      -2.426 -13.651  -1.888 -0.25 -0.69    -0.399 OA
DOCKED: ATOM     38  H   UNL d   1      -2.692 -14.568  -1.600 +0.04 +0.42    +0.209 HD
DOCKED: ENDBRANCH  36  37
DOCKED: ENDBRANCH  29  36
DOCKED: BRANCH  22  39
DOCKED: ATOM     39  C   UNL d   1      -1.692 -18.430  -5.249 -0.09 +0.05    +0.052 C 
DOCKED: BRANCH  39  40
DOCKED: ATOM     40  C   UNL d   1      -3.165 -17.993  -5.305 -0.15 +0.14    +0.115 C 
DOCKED: BRANCH  40  41
DOCKED: ATOM     41  C   UNL d   1      -3.866 -18.325  -6.605 -0.17 +0.22    +0.139 C 
DOCKED: ATOM     42  O   UNL d   1      -4.954 -17.820  -6.845 -0.08 -1.07    -0.650 OA
DOCKED: BRANCH  41  43
DOCKED: ATOM     43  O   UNL d   1      -3.284 -19.098  -7.549 -0.36 -1.74    -0.776 OA
DOCKED: ATOM     44  H   UNL d   1      -2.461 -19.579  -7.391 +0.03 +0.24    +0.167 HD
DOCKED: ENDBRANCH  41  43
DOCKED: ENDBRANCH  40  41
DOCKED: ENDBRANCH  39  40
DOCKED: ENDBRANCH  22  39
DOCKED: BRANCH  12  45
DOCKED: ATOM     45  C   UNL d   1       2.911 -11.461   2.257 -0.35 +0.00    +0.004 C 
DOCKED: ATOM     46  C   UNL d   1       3.644 -11.326   3.358 -0.28 +0.00    +0.012 C 
DOCKED: ENDBRANCH  12  45
DOCKED: BRANCH  17  47
DOCKED: ATOM     47  C   UNL d   1       2.993 -12.093  -5.532 -0.32 +0.00    +0.004 C 
DOCKED: ATOM     48  C   UNL d   1       3.787 -12.791  -6.347 -0.50 +0.00    +0.012 C 
DOCKED: ENDBRANCH  17  47
DOCKED: TORSDOF 12
DOCKED: TER
DOCKED: ENDMDL
________________________________________________________________________________


	BEGINNING GENETIC ALGORITHM DOCKING 29 of 100
Run: 29 Seed: 1598563292 820972427 [ Run 29 of 100 GA/GALS ]
Beginning LAMARCKIAN GENETIC ALGORITHM (LGA), with a maximum of 25000000 energy evaluations.

Final-Value: -12.475


	FINAL GENETIC ALGORITHM DOCKED STATE
	_______________________________________________


Detailed state:  trans 0.281 -15.956 -0.193 quatxyzw 0.471213 0.082366 -0.411407 0.775834 center 8.781 34.984 -0.736 ntor 12 131.7396 103.6183 -40.9522 23.0646 -34.4074 121.6232 -116.2855 -28.1250 -125.8424 -167.4022 174.4809 163.8388
State:	  0.281 -15.956  -0.193   0.747  0.131 -0.652 78.239    131.74  103.62  -40.95   23.06  -34.41  121.62 -116.29  -28.13 -125.84 -167.40  174.48  163.84

DOCKED: MODEL       29
DOCKED: USER    Run = 29
DOCKED: USER    DPF = D:/Protein_go_brrr/autodock/final/AncA/heme_Co/dock.dpf
DOCKED: USER  
DOCKED: USER    Estimated Free Energy of Binding    =   -5.04 kcal/mol  [=(1)+(2)+(3)-(4)]
DOCKED: USER    Estimated Inhibition Constant, Ki   =  202.09 uM (micromolar)  [Temperature = 298.15 K]
DOCKED: USER    
DOCKED: USER    (1) Final Intermolecular Energy     =   -8.62 kcal/mol
DOCKED: USER        vdW + Hbond + desolv Energy     =   -4.82 kcal/mol
DOCKED: USER        Electrostatic Energy            =   -3.79 kcal/mol
DOCKED: USER    (2) Final Total Internal Energy     =   -3.86 kcal/mol
DOCKED: USER    (3) Torsional Free Energy           =   +3.58 kcal/mol
DOCKED: USER    (4) Unbound System's Energy  [=(2)] =   -3.86 kcal/mol
DOCKED: USER    
DOCKED: USER    
DOCKED: USER    NEWDPF move heme_Co_opt.pdbqt
DOCKED: USER    NEWDPF about 8.781000 34.984000 -0.736000
DOCKED: USER    NEWDPF tran0 0.280976 -15.955522 -0.192968
DOCKED: USER    NEWDPF quaternion0 0.471213 0.082366 -0.411407 0.775834
DOCKED: USER    NEWDPF axisangle0 0.746846 0.130546 -0.652057 78.238675
DOCKED: USER    NEWDPF quat0 0.746846 0.130546 -0.652057 78.238675
DOCKED: USER    NEWDPF dihe0 131.74 103.62 -40.95 23.06 -34.41 121.62 -116.29 -28.13 -125.84 -167.40 174.48 163.84 
DOCKED: USER  keepresnum = 1 
DOCKED: USER  
DOCKED: REMARK  12 active torsions:
DOCKED: REMARK  status: ('A' for Active; 'I' for Inactive)
DOCKED: REMARK    1  A    between atoms: C_6  and  C_10 
DOCKED: REMARK    2  A    between atoms: C_10  and  C_11 
DOCKED: REMARK    3  A    between atoms: C_11  and  C_12 
DOCKED: REMARK    4  A    between atoms: C_12  and  O_14 
DOCKED: REMARK    5  A    between atoms: C_17  and  C_20 
DOCKED: REMARK    6  A    between atoms: C_24  and  C_27 
DOCKED: REMARK    7  A    between atoms: C_31  and  C_34 
DOCKED: REMARK    8  A    between atoms: C_34  and  C_35 
DOCKED: REMARK    9  A    between atoms: C_35  and  C_36 
DOCKED: REMARK   10  A    between atoms: C_36  and  O_38 
DOCKED: REMARK   11  A    between atoms: FE_43  and  C_44 
DOCKED: REMARK   12  A    between atoms: C_44  and  O_45 
DOCKED: USER                              x       y       z     vdW  Elec       q    Type
DOCKED: USER                           _______ _______ _______ _____ _____    ______ ____
DOCKED: ROOT
DOCKED: ATOM      1  C   UNL d   1      -0.814 -17.796  -0.550 -0.01 +0.04    +0.064 A 
DOCKED: ATOM      2  C   UNL d   1      -0.433 -14.995   3.274 -0.12 +0.05    +0.064 C 
DOCKED: ATOM      3  C   UNL d   1       2.787 -12.284   1.013 -0.21 +0.02    +0.064 A 
DOCKED: ATOM      4  C   UNL d   1       2.127 -14.900  -3.035 -0.05 +0.03    +0.064 A 
DOCKED: ATOM      5  C   UNL d   1      -0.919 -17.252   0.674 -0.03 +0.04    +0.066 A 
DOCKED: ATOM      6  C   UNL d   1      -1.837 -17.731   1.629 -0.04 -0.02    -0.021 A 
DOCKED: ATOM      7  C   UNL d   1      -1.738 -16.901   2.728 -0.06 -0.02    -0.025 A 
DOCKED: ATOM      8  C   UNL d   1      -0.754 -15.961   2.403 -0.06 +0.05    +0.066 A 
DOCKED: ATOM      9  C   UNL d   1      -2.533 -16.976   4.040 -0.06 +0.05    +0.051 C 
DOCKED: ATOM     10  C   UNL d   1       0.585 -14.002   3.038 -0.12 +0.04    +0.066 A 
DOCKED: ATOM     11  C   UNL d   1       1.066 -13.051   3.964 -0.26 -0.01    -0.021 A 
DOCKED: ATOM     12  C   UNL d   1       2.006 -12.276   3.280 -0.29 +0.00    +0.000 A 
DOCKED: ATOM     13  C   UNL d   1       2.039 -12.818   1.994 -0.19 +0.03    +0.070 A 
DOCKED: ATOM     14  C   UNL d   1       0.708 -12.968   5.426 -0.29 +0.03    +0.052 C 
DOCKED: ATOM     15  C   UNL d   1       2.899 -12.681  -0.377 -0.13 +0.02    +0.066 A 
DOCKED: ATOM     16  C   UNL d   1       3.579 -11.998  -1.376 -0.21 -0.00    -0.021 A 
DOCKED: ATOM     17  C   UNL d   1       3.390 -12.747  -2.546 -0.14 +0.00    +0.000 A 
DOCKED: ATOM     18  C   UNL d   1       2.621 -13.841  -2.163 -0.06 +0.02    +0.070 A 
DOCKED: ATOM     19  C   UNL d   1       4.350 -10.710  -1.189 -0.07 +0.01    +0.052 C 
DOCKED: ATOM     20  C   UNL d   1       1.307 -15.926  -2.704 -0.03 +0.03    +0.066 A 
DOCKED: ATOM     21  C   UNL d   1       0.872 -16.862  -3.639 -0.04 -0.01    -0.025 A 
DOCKED: ATOM     22  C   UNL d   1       0.046 -17.726  -2.945 -0.02 -0.01    -0.021 A 
DOCKED: ATOM     23  C   UNL d   1       0.008 -17.264  -1.613 -0.01 +0.04    +0.066 A 
DOCKED: ATOM     24  C   UNL d   1       1.211 -16.919  -5.127 -0.11 +0.03    +0.051 C 
DOCKED: ATOM     25  N   UNL d   1      -0.225 -16.158   1.139 -0.04 -0.16    -0.248 N 
DOCKED: ATOM     26  N   UNL d   1       1.220 -13.896   1.866 -0.08 -0.12    -0.248 N 
DOCKED: ATOM     27  N   UNL d   1       2.322 -13.753  -0.872 -0.03 -0.09    -0.248 N 
DOCKED: ATOM     28  N   UNL d   1       0.768 -16.173  -1.463 -0.00 -0.14    -0.248 N 
DOCKED: ATOM     29 FE   UNL d   1       1.124 -14.886   0.071 -0.02 +0.00    +0.000 Fe
DOCKED: ENDROOT
DOCKED: BRANCH   6  30
DOCKED: ATOM     30  C   UNL d   1      -2.817 -18.886   1.449 -0.02 +0.03    +0.052 C 
DOCKED: BRANCH  30  31
DOCKED: ATOM     31  C   UNL d   1      -4.223 -18.358   1.165 -0.03 +0.10    +0.115 C 
DOCKED: BRANCH  31  32
DOCKED: ATOM     32  C   UNL d   1      -4.247 -17.368   0.020 -0.07 +0.17    +0.139 C 
DOCKED: ATOM     33  O   UNL d   1      -4.833 -17.658  -1.012 -0.00 -0.80    -0.650 OA
DOCKED: BRANCH  32  34
DOCKED: ATOM     34  O   UNL d   1      -3.678 -16.144   0.117 -0.10 -1.27    -0.776 OA
DOCKED: ATOM     35  H   UNL d   1      -3.040 -15.789  -0.518 +0.02 +0.26    +0.167 HD
DOCKED: ENDBRANCH  32  34
DOCKED: ENDBRANCH  31  32
DOCKED: ENDBRANCH  30  31
DOCKED: ENDBRANCH   6  30
DOCKED: BRANCH  29  36
DOCKED: ATOM     36  C   UNL d   1      -0.552 -13.747  -0.465 -0.14 +0.14    +0.190 C 
DOCKED: BRANCH  36  37
DOCKED: ATOM     37  O   UNL d   1      -1.915 -13.843  -0.765 -0.11 -0.47    -0.399 OA
DOCKED: ATOM     38  H   UNL d   1      -2.093 -14.822  -0.842 +0.04 +0.28    +0.209 HD
DOCKED: ENDBRANCH  36  37
DOCKED: ENDBRANCH  29  36
DOCKED: BRANCH  22  39
DOCKED: ATOM     39  C   UNL d   1      -0.715 -18.892  -3.550 -0.01 +0.03    +0.052 C 
DOCKED: BRANCH  39  40
DOCKED: ATOM     40  C   UNL d   1      -2.147 -18.472  -3.919 -0.06 +0.11    +0.115 C 
DOCKED: BRANCH  40  41
DOCKED: ATOM     41  C   UNL d   1      -2.424 -16.991  -3.764 +0.12 +0.23    +0.139 C 
DOCKED: ATOM     42  O   UNL d   1      -2.587 -16.305  -4.763 -0.04 -1.24    -0.650 OA
DOCKED: BRANCH  41  43
DOCKED: ATOM     43  O   UNL d   1      -2.583 -16.422  -2.549 -0.38 -1.60    -0.776 OA
DOCKED: ATOM     44  H   UNL d   1      -3.003 -16.883  -1.810 +0.01 +0.27    +0.167 HD
DOCKED: ENDBRANCH  41  43
DOCKED: ENDBRANCH  40  41
DOCKED: ENDBRANCH  39  40
DOCKED: ENDBRANCH  22  39
DOCKED: BRANCH  12  45
DOCKED: ATOM     45  C   UNL d   1       2.887 -11.105   3.695 -0.28 +0.00    +0.004 C 
DOCKED: ATOM     46  C   UNL d   1       3.198 -10.641   4.902 -0.33 +0.00    +0.012 C 
DOCKED: ENDBRANCH  12  45
DOCKED: BRANCH  17  47
DOCKED: ATOM     47  C   UNL d   1       3.836 -12.464  -3.942 -0.25 +0.00    +0.004 C 
DOCKED: ATOM     48  C   UNL d   1       3.534 -11.342  -4.600 -0.42 +0.00    +0.012 C 
DOCKED: ENDBRANCH  17  47
DOCKED: TORSDOF 12
DOCKED: TER
DOCKED: ENDMDL
________________________________________________________________________________


	BEGINNING GENETIC ALGORITHM DOCKING 30 of 100
Run: 30 Seed: 1762869001 2132959436 [ Run 30 of 100 GA/GALS ]
Beginning LAMARCKIAN GENETIC ALGORITHM (LGA), with a maximum of 25000000 energy evaluations.

Final-Value: -11.462


	FINAL GENETIC ALGORITHM DOCKED STATE
	_______________________________________________


Detailed state:  trans -11.998 -15.157 1.632 quatxyzw 0.234090 0.333818 -0.879685 -0.244789 center 8.781 34.984 -0.736 ntor 12 -138.8802 112.9966 -2.1812 116.6840 137.1320 132.0077 20.4698 -178.7032 62.7674 50.7280 -12.8729 177.3419
State:	-11.998 -15.157   1.632   0.241  0.344 -0.907 -151.661   -138.88  113.00   -2.18  116.68  137.13  132.01   20.47 -178.70   62.77   50.73  -12.87  177.34

DOCKED: MODEL       30
DOCKED: USER    Run = 30
DOCKED: USER    DPF = D:/Protein_go_brrr/autodock/final/AncA/heme_Co/dock.dpf
DOCKED: USER  
DOCKED: USER    Estimated Free Energy of Binding    =   -6.78 kcal/mol  [=(1)+(2)+(3)-(4)]
DOCKED: USER    Estimated Inhibition Constant, Ki   =   10.76 uM (micromolar)  [Temperature = 298.15 K]
DOCKED: USER    
DOCKED: USER    (1) Final Intermolecular Energy     =  -10.36 kcal/mol
DOCKED: USER        vdW + Hbond + desolv Energy     =   -6.55 kcal/mol
DOCKED: USER        Electrostatic Energy            =   -3.80 kcal/mol
DOCKED: USER    (2) Final Total Internal Energy     =   -1.10 kcal/mol
DOCKED: USER    (3) Torsional Free Energy           =   +3.58 kcal/mol
DOCKED: USER    (4) Unbound System's Energy  [=(2)] =   -1.10 kcal/mol
DOCKED: USER    
DOCKED: USER    
DOCKED: USER    NEWDPF move heme_Co_opt.pdbqt
DOCKED: USER    NEWDPF about 8.781000 34.984000 -0.736000
DOCKED: USER    NEWDPF tran0 -11.997731 -15.156553 1.631560
DOCKED: USER    NEWDPF quaternion0 0.234090 0.333818 -0.879685 -0.244789
DOCKED: USER    NEWDPF axisangle0 0.241435 0.344293 -0.907288 -151.661237
DOCKED: USER    NEWDPF quat0 0.241435 0.344293 -0.907288 -151.661237
DOCKED: USER    NEWDPF dihe0 -138.88 113.00 -2.18 116.68 137.13 132.01 20.47 -178.70 62.77 50.73 -12.87 177.34 
DOCKED: USER  keepresnum = 1 
DOCKED: USER  
DOCKED: REMARK  12 active torsions:
DOCKED: REMARK  status: ('A' for Active; 'I' for Inactive)
DOCKED: REMARK    1  A    between atoms: C_6  and  C_10 
DOCKED: REMARK    2  A    between atoms: C_10  and  C_11 
DOCKED: REMARK    3  A    between atoms: C_11  and  C_12 
DOCKED: REMARK    4  A    between atoms: C_12  and  O_14 
DOCKED: REMARK    5  A    between atoms: C_17  and  C_20 
DOCKED: REMARK    6  A    between atoms: C_24  and  C_27 
DOCKED: REMARK    7  A    between atoms: C_31  and  C_34 
DOCKED: REMARK    8  A    between atoms: C_34  and  C_35 
DOCKED: REMARK    9  A    between atoms: C_35  and  C_36 
DOCKED: REMARK   10  A    between atoms: C_36  and  O_38 
DOCKED: REMARK   11  A    between atoms: FE_43  and  C_44 
DOCKED: REMARK   12  A    between atoms: C_44  and  O_45 
DOCKED: USER                              x       y       z     vdW  Elec       q    Type
DOCKED: USER                           _______ _______ _______ _____ _____    ______ ____
DOCKED: ROOT
DOCKED: ATOM      1  C   UNL d   1     -10.003 -14.357   1.941 -0.17 +0.04    +0.064 A 
DOCKED: ATOM      2  C   UNL d   1     -13.462 -15.576   4.968 -0.18 +0.02    +0.064 C 
DOCKED: ATOM      3  C   UNL d   1     -16.401 -16.467   1.308 -0.09 +0.01    +0.064 A 
DOCKED: ATOM      4  C   UNL d   1     -12.766 -15.599  -1.806 -0.13 +0.01    +0.064 A 
DOCKED: ATOM      5  C   UNL d   1     -10.743 -14.590   3.038 -0.18 +0.03    +0.066 A 
DOCKED: ATOM      6  C   UNL d   1     -10.204 -14.505   4.336 -0.20 -0.01    -0.021 A 
DOCKED: ATOM      7  C   UNL d   1     -11.206 -14.881   5.209 -0.19 -0.01    -0.025 A 
DOCKED: ATOM      8  C   UNL d   1     -12.317 -15.164   4.408 -0.19 +0.02    +0.066 A 
DOCKED: ATOM      9  C   UNL d   1     -11.134 -14.977   6.741 -0.18 +0.02    +0.051 C 
DOCKED: ATOM     10  C   UNL d   1     -14.665 -15.864   4.227 -0.20 +0.01    +0.066 A 
DOCKED: ATOM     11  C   UNL d   1     -15.935 -16.164   4.765 -0.15 -0.00    -0.021 A 
DOCKED: ATOM     12  C   UNL d   1     -16.774 -16.416   3.676 -0.14 +0.00    +0.000 A 
DOCKED: ATOM     13  C   UNL d   1     -15.959 -16.239   2.557 -0.14 +0.01    +0.070 A 
DOCKED: ATOM     14  C   UNL d   1     -16.322 -16.113   6.221 -0.13 +0.00    +0.052 C 
DOCKED: ATOM     15  C   UNL d   1     -15.686 -16.386   0.050 -0.11 +0.01    +0.066 A 
DOCKED: ATOM     16  C   UNL d   1     -16.161 -16.775  -1.194 -0.08 -0.00    -0.021 A 
DOCKED: ATOM     17  C   UNL d   1     -15.115 -16.529  -2.095 -0.08 +0.00    +0.000 A 
DOCKED: ATOM     18  C   UNL d   1     -14.087 -15.991  -1.329 -0.12 +0.01    +0.070 A 
DOCKED: ATOM     19  C   UNL d   1     -17.535 -17.345  -1.469 -0.04 +0.01    +0.052 C 
DOCKED: ATOM     20  C   UNL d   1     -11.721 -15.155  -1.067 -0.11 +0.02    +0.066 A 
DOCKED: ATOM     21  C   UNL d   1     -10.488 -14.844  -1.635 -0.12 -0.01    -0.025 A 
DOCKED: ATOM     22  C   UNL d   1      -9.680 -14.455  -0.582 -0.12 -0.01    -0.021 A 
DOCKED: ATOM     23  C   UNL d   1     -10.463 -14.561   0.587 -0.07 +0.03    +0.066 A 
DOCKED: ATOM     24  C   UNL d   1     -10.091 -14.932  -3.106 -0.10 +0.03    +0.051 C 
DOCKED: ATOM     25  N   UNL d   1     -12.061 -14.986   3.059 -0.14 -0.08    -0.248 N 
DOCKED: ATOM     26  N   UNL d   1     -14.699 -15.851   2.890 -0.14 -0.04    -0.248 N 
DOCKED: ATOM     27  N   UNL d   1     -14.450 -15.949  -0.052 -0.06 -0.05    -0.248 N 
DOCKED: ATOM     28  N   UNL d   1     -11.699 -14.986   0.298 -0.01 -0.08    -0.248 N 
DOCKED: ATOM     29 FE   UNL d   1     -13.324 -15.495   1.409 -0.05 +0.00    +0.000 Fe
DOCKED: ENDROOT
DOCKED: BRANCH   6  30
DOCKED: ATOM     30  C   UNL d   1      -8.765 -14.156   4.702 -0.23 +0.04    +0.052 C 
DOCKED: BRANCH  30  31
DOCKED: ATOM     31  C   UNL d   1      -8.489 -12.675   4.442 -0.42 +0.08    +0.115 C 
DOCKED: BRANCH  31  32
DOCKED: ATOM     32  C   UNL d   1      -7.390 -12.463   3.423 -0.17 +0.18    +0.139 C 
DOCKED: ATOM     33  O   UNL d   1      -6.306 -12.033   3.788 -0.57 -0.94    -0.650 OA
DOCKED: BRANCH  32  34
DOCKED: ATOM     34  O   UNL d   1      -7.551 -12.782   2.117 -0.48 -1.08    -0.776 OA
DOCKED: ATOM     35  H   UNL d   1      -6.854 -13.153   1.558 +0.05 +0.32    +0.167 HD
DOCKED: ENDBRANCH  32  34
DOCKED: ENDBRANCH  31  32
DOCKED: ENDBRANCH  30  31
DOCKED: ENDBRANCH   6  30
DOCKED: BRANCH  29  36
DOCKED: ATOM     36  C   UNL d   1     -12.605 -17.454   1.607 -0.04 +0.05    +0.190 C 
DOCKED: BRANCH  36  37
DOCKED: ATOM     37  O   UNL d   1     -11.532 -18.202   2.104 +0.01 -0.12    -0.399 OA
DOCKED: ATOM     38  H   UNL d   1     -10.907 -17.528   2.492 +0.02 +0.07    +0.209 HD
DOCKED: ENDBRANCH  36  37
DOCKED: ENDBRANCH  29  36
DOCKED: BRANCH  22  39
DOCKED: ATOM     39  C   UNL d   1      -8.217 -14.068  -0.693 -0.15 +0.05    +0.052 C 
DOCKED: BRANCH  39  40
DOCKED: ATOM     40  C   UNL d   1      -7.326 -15.320  -0.739 -0.10 +0.15    +0.115 C 
DOCKED: BRANCH  40  41
DOCKED: ATOM     41  C   UNL d   1      -6.104 -15.251   0.152 +0.06 +0.28    +0.139 C 
DOCKED: ATOM     42  O   UNL d   1      -5.476 -14.204   0.227 -0.42 -1.52    -0.650 OA
DOCKED: BRANCH  41  43
DOCKED: ATOM     43  O   UNL d   1      -5.737 -16.289   0.936 -0.26 -1.57    -0.776 OA
DOCKED: ATOM     44  H   UNL d   1      -6.197 -17.138   0.922 +0.01 +0.22    +0.167 HD
DOCKED: ENDBRANCH  41  43
DOCKED: ENDBRANCH  40  41
DOCKED: ENDBRANCH  39  40
DOCKED: ENDBRANCH  22  39
DOCKED: BRANCH  12  45
DOCKED: ATOM     45  C   UNL d   1     -18.248 -16.782   3.563 -0.09 +0.00    +0.004 C 
DOCKED: ATOM     46  C   UNL d   1     -19.289 -16.066   3.146 -0.10 +0.00    +0.012 C 
DOCKED: ENDBRANCH  12  45
DOCKED: BRANCH  17  47
DOCKED: ATOM     47  C   UNL d   1     -15.031 -16.811  -3.560 -0.03 +0.00    +0.004 C 
DOCKED: ATOM     48  C   UNL d   1     -14.927 -15.859  -4.489 -0.04 +0.00    +0.012 C 
DOCKED: ENDBRANCH  17  47
DOCKED: TORSDOF 12
DOCKED: TER
DOCKED: ENDMDL
________________________________________________________________________________


	BEGINNING GENETIC ALGORITHM DOCKING 31 of 100
Run: 31 Seed: 1554362804 1626954748 [ Run 31 of 100 GA/GALS ]
Beginning LAMARCKIAN GENETIC ALGORITHM (LGA), with a maximum of 25000000 energy evaluations.

Final-Value: -12.539


	FINAL GENETIC ALGORITHM DOCKED STATE
	_______________________________________________


Detailed state:  trans 0.228 -14.758 -2.072 quatxyzw -0.885868 -0.195819 -0.359969 0.217520 center 8.781 34.984 -0.736 ntor 12 25.9798 94.4230 -84.7642 107.4664 124.3323 88.8496 93.4564 -0.6504 35.6530 85.2285 149.9984 46.0615
State:	  0.228 -14.758  -2.072  -0.908 -0.201 -0.369 154.873     25.98   94.42  -84.76  107.47  124.33   88.85   93.46   -0.65   35.65   85.23  150.00   46.06

DOCKED: MODEL       31
DOCKED: USER    Run = 31
DOCKED: USER    DPF = D:/Protein_go_brrr/autodock/final/AncA/heme_Co/dock.dpf
DOCKED: USER  
DOCKED: USER    Estimated Free Energy of Binding    =   -8.33 kcal/mol  [=(1)+(2)+(3)-(4)]
DOCKED: USER    Estimated Inhibition Constant, Ki   =  783.45 nM (nanomolar)  [Temperature = 298.15 K]
DOCKED: USER    
DOCKED: USER    (1) Final Intermolecular Energy     =  -11.91 kcal/mol
DOCKED: USER        vdW + Hbond + desolv Energy     =   -7.60 kcal/mol
DOCKED: USER        Electrostatic Energy            =   -4.31 kcal/mol
DOCKED: USER    (2) Final Total Internal Energy     =   -0.63 kcal/mol
DOCKED: USER    (3) Torsional Free Energy           =   +3.58 kcal/mol
DOCKED: USER    (4) Unbound System's Energy  [=(2)] =   -0.63 kcal/mol
DOCKED: USER    
DOCKED: USER    
DOCKED: USER    NEWDPF move heme_Co_opt.pdbqt
DOCKED: USER    NEWDPF about 8.781000 34.984000 -0.736000
DOCKED: USER    NEWDPF tran0 0.227865 -14.758448 -2.071960
DOCKED: USER    NEWDPF quaternion0 -0.885868 -0.195819 -0.359969 0.217520
DOCKED: USER    NEWDPF axisangle0 -0.907600 -0.200622 -0.368800 154.873126
DOCKED: USER    NEWDPF quat0 -0.907600 -0.200622 -0.368800 154.873126
DOCKED: USER    NEWDPF dihe0 25.98 94.42 -84.76 107.47 124.33 88.85 93.46 -0.65 35.65 85.23 150.00 46.06 
DOCKED: USER  keepresnum = 1 
DOCKED: USER  
DOCKED: REMARK  12 active torsions:
DOCKED: REMARK  status: ('A' for Active; 'I' for Inactive)
DOCKED: REMARK    1  A    between atoms: C_6  and  C_10 
DOCKED: REMARK    2  A    between atoms: C_10  and  C_11 
DOCKED: REMARK    3  A    between atoms: C_11  and  C_12 
DOCKED: REMARK    4  A    between atoms: C_12  and  O_14 
DOCKED: REMARK    5  A    between atoms: C_17  and  C_20 
DOCKED: REMARK    6  A    between atoms: C_24  and  C_27 
DOCKED: REMARK    7  A    between atoms: C_31  and  C_34 
DOCKED: REMARK    8  A    between atoms: C_34  and  C_35 
DOCKED: REMARK    9  A    between atoms: C_35  and  C_36 
DOCKED: REMARK   10  A    between atoms: C_36  and  O_38 
DOCKED: REMARK   11  A    between atoms: FE_43  and  C_44 
DOCKED: REMARK   12  A    between atoms: C_44  and  O_45 
DOCKED: USER                              x       y       z     vdW  Elec       q    Type
DOCKED: USER                           _______ _______ _______ _____ _____    ______ ____
DOCKED: ROOT
DOCKED: ATOM      1  C   UNL d   1      -1.577 -15.939  -2.329 -0.06 +0.09    +0.064 A 
DOCKED: ATOM      2  C   UNL d   1       1.453 -14.013  -5.447 -0.32 +0.03    +0.064 C 
DOCKED: ATOM      3  C   UNL d   1       3.845 -11.913  -1.884 -0.20 +0.01    +0.064 A 
DOCKED: ATOM      4  C   UNL d   1       0.998 -14.179   1.345 -0.11 +0.03    +0.064 A 
DOCKED: ATOM      5  C   UNL d   1      -0.946 -15.537  -3.445 -0.13 +0.07    +0.066 A 
DOCKED: ATOM      6  C   UNL d   1      -1.315 -16.006  -4.721 -0.11 -0.02    -0.021 A 
DOCKED: ATOM      7  C   UNL d   1      -0.418 -15.463  -5.620 -0.27 -0.02    -0.025 A 
DOCKED: ATOM      8  C   UNL d   1       0.448 -14.673  -4.857 -0.22 +0.04    +0.066 A 
DOCKED: ATOM      9  C   UNL d   1      -0.365 -15.670  -7.141 -0.26 +0.03    +0.051 C 
DOCKED: ATOM     10  C   UNL d   1       2.378 -13.156  -4.748 -0.24 +0.02    +0.066 A 
DOCKED: ATOM     11  C   UNL d   1       3.364 -12.328  -5.327 -0.34 -0.01    -0.021 A 
DOCKED: ATOM     12  C   UNL d   1       4.044 -11.725  -4.265 -0.31 +0.00    +0.000 A 
DOCKED: ATOM     13  C   UNL d   1       3.416 -12.218  -3.121 -0.18 +0.02    +0.070 A 
DOCKED: ATOM     14  C   UNL d   1       3.562 -12.073  -6.799 -0.39 +0.01    +0.052 C 
DOCKED: ATOM     15  C   UNL d   1       3.350 -12.372  -0.600 -0.16 +0.02    +0.066 A 
DOCKED: ATOM     16  C   UNL d   1       3.930 -12.134   0.638 -0.19 -0.00    -0.021 A 
DOCKED: ATOM     17  C   UNL d   1       3.114 -12.787   1.572 -0.15 +0.00    +0.000 A 
DOCKED: ATOM     18  C   UNL d   1       2.087 -13.360   0.829 -0.11 +0.03    +0.070 A 
DOCKED: ATOM     19  C   UNL d   1       5.188 -11.328   0.877 -0.23 +0.01    +0.052 C 
DOCKED: ATOM     20  C   UNL d   1       0.038 -14.818   0.633 -0.10 +0.04    +0.066 A 
DOCKED: ATOM     21  C   UNL d   1      -0.936 -15.607   1.241 -0.10 -0.02    -0.025 A 
DOCKED: ATOM     22  C   UNL d   1      -1.711 -16.104   0.208 -0.10 -0.02    -0.021 A 
DOCKED: ATOM     23  C   UNL d   1      -1.158 -15.599  -0.988 -0.08 +0.06    +0.066 A 
DOCKED: ATOM     24  C   UNL d   1      -1.110 -15.890   2.730 -0.03 +0.04    +0.051 C 
DOCKED: ATOM     25  N   UNL d   1       0.141 -14.696  -3.507 -0.07 -0.18    -0.248 N 
DOCKED: ATOM     26  N   UNL d   1       2.373 -13.039  -3.416 -0.09 -0.09    -0.248 N 
DOCKED: ATOM     27  N   UNL d   1       2.277 -13.118  -0.463 -0.05 -0.08    -0.248 N 
DOCKED: ATOM     28  N   UNL d   1      -0.098 -14.822  -0.735 -0.04 -0.17    -0.248 N 
DOCKED: ATOM     29 FE   UNL d   1       1.270 -13.861  -1.893 -0.03 +0.00    +0.000 Fe
DOCKED: ENDROOT
DOCKED: BRANCH   6  30
DOCKED: ATOM     30  C   UNL d   1      -2.429 -16.998  -5.039 -0.09 +0.07    +0.052 C 
DOCKED: BRANCH  30  31
DOCKED: ATOM     31  C   UNL d   1      -1.888 -18.170  -5.857 -0.12 +0.11    +0.115 C 
DOCKED: BRANCH  31  32
DOCKED: ATOM     32  C   UNL d   1      -2.902 -18.700  -6.848 -0.14 +0.19    +0.139 C 
DOCKED: ATOM     33  O   UNL d   1      -4.085 -18.721  -6.544 -0.19 -1.06    -0.650 OA
DOCKED: BRANCH  32  34
DOCKED: ATOM     34  O   UNL d   1      -2.548 -19.109  -8.088 -0.43 -1.39    -0.776 OA
DOCKED: ATOM     35  H   UNL d   1      -1.654 -19.383  -8.336 +0.04 +0.19    +0.167 HD
DOCKED: ENDBRANCH  32  34
DOCKED: ENDBRANCH  31  32
DOCKED: ENDBRANCH  30  31
DOCKED: ENDBRANCH   6  30
DOCKED: BRANCH  29  36
DOCKED: ATOM     36  C   UNL d   1       2.451 -15.591  -1.973 -0.01 +0.08    +0.190 C 
DOCKED: BRANCH  36  37
DOCKED: ATOM     37  O   UNL d   1       2.417 -16.974  -1.770 +0.00 -0.16    -0.399 OA
DOCKED: ATOM     38  H   UNL d   1       1.611 -17.130  -1.202 +0.01 +0.09    +0.209 HD
DOCKED: ENDBRANCH  36  37
DOCKED: ENDBRANCH  29  36
DOCKED: BRANCH  22  39
DOCKED: ATOM     39  C   UNL d   1      -2.875 -17.063   0.365 -0.08 +0.06    +0.052 C 
DOCKED: BRANCH  39  40
DOCKED: ATOM     40  C   UNL d   1      -3.944 -16.799  -0.708 -0.09 +0.17    +0.115 C 
DOCKED: BRANCH  40  41
DOCKED: ATOM     41  C   UNL d   1      -5.132 -15.994  -0.223 -0.04 +0.26    +0.139 C 
DOCKED: ATOM     42  O   UNL d   1      -5.584 -15.108  -0.933 -0.31 -1.52    -0.650 OA
DOCKED: BRANCH  41  43
DOCKED: ATOM     43  O   UNL d   1      -5.761 -16.286   0.937 -0.26 -1.57    -0.776 OA
DOCKED: ATOM     44  H   UNL d   1      -6.391 -17.013   1.018 +0.01 +0.22    +0.167 HD
DOCKED: ENDBRANCH  41  43
DOCKED: ENDBRANCH  40  41
DOCKED: ENDBRANCH  39  40
DOCKED: ENDBRANCH  22  39
DOCKED: BRANCH  12  45
DOCKED: ATOM     45  C   UNL d   1       5.196 -10.731  -4.201 -0.44 +0.00    +0.004 C 
DOCKED: ATOM     46  C   UNL d   1       5.193  -9.413  -4.020 -0.34 +0.00    +0.012 C 
DOCKED: ENDBRANCH  12  45
DOCKED: BRANCH  17  47
DOCKED: ATOM     47  C   UNL d   1       3.280 -12.929   3.049 -0.15 +0.00    +0.004 C 
DOCKED: ATOM     48  C   UNL d   1       2.590 -12.214   3.941 -0.29 +0.00    +0.012 C 
DOCKED: ENDBRANCH  17  47
DOCKED: TORSDOF 12
DOCKED: TER
DOCKED: ENDMDL
________________________________________________________________________________


	BEGINNING GENETIC ALGORITHM DOCKING 32 of 100
Run: 32 Seed: 759758257 1493784272 [ Run 32 of 100 GA/GALS ]
Beginning LAMARCKIAN GENETIC ALGORITHM (LGA), with a maximum of 25000000 energy evaluations.

Final-Value: -11.153


	FINAL GENETIC ALGORITHM DOCKED STATE
	_______________________________________________


Detailed state:  trans -11.733 -15.169 6.032 quatxyzw 0.038635 -0.260786 0.961945 0.071826 center 8.781 34.984 -0.736 ntor 12 41.6740 94.3186 10.2727 107.3719 132.9363 150.0930 -124.0443 29.2254 -41.2864 -61.9647 -178.6610 4.0365
State:	-11.733 -15.169   6.032   0.039 -0.261  0.964 171.762     41.67   94.32   10.27  107.37  132.94  150.09 -124.04   29.23  -41.29  -61.96 -178.66    4.04

DOCKED: MODEL       32
DOCKED: USER    Run = 32
DOCKED: USER    DPF = D:/Protein_go_brrr/autodock/final/AncA/heme_Co/dock.dpf
DOCKED: USER  
DOCKED: USER    Estimated Free Energy of Binding    =   -5.86 kcal/mol  [=(1)+(2)+(3)-(4)]
DOCKED: USER    Estimated Inhibition Constant, Ki   =   51.06 uM (micromolar)  [Temperature = 298.15 K]
DOCKED: USER    
DOCKED: USER    (1) Final Intermolecular Energy     =   -9.43 kcal/mol
DOCKED: USER        vdW + Hbond + desolv Energy     =   -5.93 kcal/mol
DOCKED: USER        Electrostatic Energy            =   -3.51 kcal/mol
DOCKED: USER    (2) Final Total Internal Energy     =   -1.72 kcal/mol
DOCKED: USER    (3) Torsional Free Energy           =   +3.58 kcal/mol
DOCKED: USER    (4) Unbound System's Energy  [=(2)] =   -1.72 kcal/mol
DOCKED: USER    
DOCKED: USER    
DOCKED: USER    NEWDPF move heme_Co_opt.pdbqt
DOCKED: USER    NEWDPF about 8.781000 34.984000 -0.736000
DOCKED: USER    NEWDPF tran0 -11.733299 -15.168716 6.031901
DOCKED: USER    NEWDPF quaternion0 0.038635 -0.260786 0.961945 0.071826
DOCKED: USER    NEWDPF axisangle0 0.038735 -0.261462 0.964436 171.762309
DOCKED: USER    NEWDPF quat0 0.038735 -0.261462 0.964436 171.762309
DOCKED: USER    NEWDPF dihe0 41.67 94.32 10.27 107.37 132.94 150.09 -124.04 29.23 -41.29 -61.96 -178.66 4.04 
DOCKED: USER  keepresnum = 1 
DOCKED: USER  
DOCKED: REMARK  12 active torsions:
DOCKED: REMARK  status: ('A' for Active; 'I' for Inactive)
DOCKED: REMARK    1  A    between atoms: C_6  and  C_10 
DOCKED: REMARK    2  A    between atoms: C_10  and  C_11 
DOCKED: REMARK    3  A    between atoms: C_11  and  C_12 
DOCKED: REMARK    4  A    between atoms: C_12  and  O_14 
DOCKED: REMARK    5  A    between atoms: C_17  and  C_20 
DOCKED: REMARK    6  A    between atoms: C_24  and  C_27 
DOCKED: REMARK    7  A    between atoms: C_31  and  C_34 
DOCKED: REMARK    8  A    between atoms: C_34  and  C_35 
DOCKED: REMARK    9  A    between atoms: C_35  and  C_36 
DOCKED: REMARK   10  A    between atoms: C_36  and  O_38 
DOCKED: REMARK   11  A    between atoms: FE_43  and  C_44 
DOCKED: REMARK   12  A    between atoms: C_44  and  O_45 
DOCKED: USER                              x       y       z     vdW  Elec       q    Type
DOCKED: USER                           _______ _______ _______ _____ _____    ______ ____
DOCKED: ROOT
DOCKED: ATOM      1  C   UNL d   1      -9.860 -14.867   4.976 -0.14 +0.03    +0.064 A 
DOCKED: ATOM      2  C   UNL d   1     -10.999 -14.648   9.587 -0.19 +0.02    +0.064 C 
DOCKED: ATOM      3  C   UNL d   1     -15.604 -15.344   8.522 -0.12 +0.00    +0.064 A 
DOCKED: ATOM      4  C   UNL d   1     -14.416 -15.956   3.844 -0.19 +0.01    +0.064 A 
DOCKED: ATOM      5  C   UNL d   1      -9.838 -14.720   6.311 -0.17 +0.03    +0.066 A 
DOCKED: ATOM      6  C   UNL d   1      -8.634 -14.564   7.025 -0.18 -0.01    -0.021 A 
DOCKED: ATOM      7  C   UNL d   1      -8.969 -14.524   8.365 -0.21 -0.01    -0.025 A 
DOCKED: ATOM      8  C   UNL d   1     -10.362 -14.640   8.409 -0.17 +0.02    +0.066 A 
DOCKED: ATOM      9  C   UNL d   1      -8.024 -14.384   9.568 -0.22 +0.01    +0.051 C 
DOCKED: ATOM     10  C   UNL d   1     -12.431 -14.737   9.730 -0.10 +0.01    +0.066 A 
DOCKED: ATOM     11  C   UNL d   1     -13.168 -14.610  10.927 -0.13 -0.00    -0.021 A 
DOCKED: ATOM     12  C   UNL d   1     -14.509 -14.813  10.587 -0.11 +0.00    +0.000 A 
DOCKED: ATOM     13  C   UNL d   1     -14.491 -15.036   9.210 -0.12 +0.01    +0.070 A 
DOCKED: ATOM     14  C   UNL d   1     -12.619 -14.224  12.277 -0.14 +0.01    +0.052 C 
DOCKED: ATOM     15  C   UNL d   1     -15.759 -15.655   7.114 -0.13 +0.00    +0.066 A 
DOCKED: ATOM     16  C   UNL d   1     -16.915 -16.108   6.493 -0.09 -0.00    -0.021 A 
DOCKED: ATOM     17  C   UNL d   1     -16.576 -16.288   5.145 -0.12 +0.00    +0.000 A 
DOCKED: ATOM     18  C   UNL d   1     -15.240 -15.913   5.045 -0.16 +0.01    +0.070 A 
DOCKED: ATOM     19  C   UNL d   1     -18.243 -16.344   7.178 -0.04 +0.00    +0.052 C 
DOCKED: ATOM     20  C   UNL d   1     -13.094 -15.679   3.741 -0.19 +0.02    +0.066 A 
DOCKED: ATOM     21  C   UNL d   1     -12.403 -15.791   2.537 -0.13 -0.01    -0.025 A 
DOCKED: ATOM     22  C   UNL d   1     -11.093 -15.455   2.827 -0.13 -0.01    -0.021 A 
DOCKED: ATOM     23  C   UNL d   1     -11.047 -15.164   4.207 -0.15 +0.03    +0.066 A 
DOCKED: ATOM     24  C   UNL d   1     -12.958 -16.217   1.180 -0.09 +0.01    +0.051 C 
DOCKED: ATOM     25  N   UNL d   1     -10.928 -14.757   7.151 -0.10 -0.10    -0.248 N 
DOCKED: ATOM     26  N   UNL d   1     -13.241 -14.934   8.685 -0.10 -0.05    -0.248 N 
DOCKED: ATOM     27  N   UNL d   1     -14.778 -15.571   6.243 -0.09 -0.03    -0.248 N 
DOCKED: ATOM     28  N   UNL d   1     -12.256 -15.301   4.765 -0.10 -0.09    -0.248 N 
DOCKED: ATOM     29 FE   UNL d   1     -12.966 -15.188   6.666 -0.05 +0.00    +0.000 Fe
DOCKED: ENDROOT
DOCKED: BRANCH   6  30
DOCKED: ATOM     30  C   UNL d   1      -7.226 -14.540   6.441 -0.11 +0.04    +0.052 C 
DOCKED: BRANCH  30  31
DOCKED: ATOM     31  C   UNL d   1      -6.600 -15.933   6.490 -0.09 +0.08    +0.115 C 
DOCKED: BRANCH  31  32
DOCKED: ATOM     32  C   UNL d   1      -5.870 -16.284   5.211 +0.04 +0.19    +0.139 C 
DOCKED: ATOM     33  O   UNL d   1      -4.648 -16.291   5.199 -0.42 -1.01    -0.650 OA
DOCKED: BRANCH  32  34
DOCKED: ATOM     34  O   UNL d   1      -6.529 -16.640   4.084 -0.10 -1.24    -0.776 OA
DOCKED: ATOM     35  H   UNL d   1      -7.364 -16.247   3.795 +0.02 +0.22    +0.167 HD
DOCKED: ENDBRANCH  32  34
DOCKED: ENDBRANCH  31  32
DOCKED: ENDBRANCH  30  31
DOCKED: ENDBRANCH   6  30
DOCKED: BRANCH  29  36
DOCKED: ATOM     36  C   UNL d   1     -12.498 -17.206   6.986 -0.03 +0.04    +0.190 C 
DOCKED: BRANCH  36  37
DOCKED: ATOM     37  O   UNL d   1     -11.438 -18.072   7.274 +0.00 -0.08    -0.399 OA
DOCKED: ATOM     38  H   UNL d   1     -10.615 -17.558   7.038 +0.02 +0.05    +0.209 HD
DOCKED: ENDBRANCH  36  37
DOCKED: ENDBRANCH  29  36
DOCKED: BRANCH  22  39
DOCKED: ATOM     39  C   UNL d   1      -9.940 -15.478   1.840 -0.10 +0.03    +0.052 C 
DOCKED: BRANCH  39  40
DOCKED: ATOM     40  C   UNL d   1      -9.550 -14.049   1.428 -0.18 +0.08    +0.115 C 
DOCKED: BRANCH  40  41
DOCKED: ATOM     41  C   UNL d   1      -8.186 -13.609   1.915 -0.21 +0.16    +0.139 C 
DOCKED: ATOM     42  O   UNL d   1      -7.685 -12.593   1.454 -0.46 -0.79    -0.650 OA
DOCKED: BRANCH  41  43
DOCKED: ATOM     43  O   UNL d   1      -7.542 -14.259   2.910 -0.04 -1.44    -0.776 OA
DOCKED: ATOM     44  H   UNL d   1      -7.791 -15.148   3.195 +0.04 +0.25    +0.167 HD
DOCKED: ENDBRANCH  41  43
DOCKED: ENDBRANCH  40  41
DOCKED: ENDBRANCH  39  40
DOCKED: ENDBRANCH  22  39
DOCKED: BRANCH  12  45
DOCKED: ATOM     45  C   UNL d   1     -15.798 -14.803  11.396 -0.07 +0.00    +0.004 C 
DOCKED: ATOM     46  C   UNL d   1     -16.716 -13.853  11.552 -0.10 -0.00    +0.012 C 
DOCKED: ENDBRANCH  12  45
DOCKED: BRANCH  17  47
DOCKED: ATOM     47  C   UNL d   1     -17.400 -16.818   4.017 -0.10 +0.00    +0.004 C 
DOCKED: ATOM     48  C   UNL d   1     -17.820 -16.068   2.995 -0.16 +0.00    +0.012 C 
DOCKED: ENDBRANCH  17  47
DOCKED: TORSDOF 12
DOCKED: TER
DOCKED: ENDMDL
________________________________________________________________________________


	BEGINNING GENETIC ALGORITHM DOCKING 33 of 100
Run: 33 Seed: 581820955 1651877946 [ Run 33 of 100 GA/GALS ]
Beginning LAMARCKIAN GENETIC ALGORITHM (LGA), with a maximum of 25000000 energy evaluations.

Final-Value: -10.621


	FINAL GENETIC ALGORITHM DOCKED STATE
	_______________________________________________


Detailed state:  trans -5.900 -0.191 -16.238 quatxyzw -0.414075 0.742493 -0.033365 -0.525483 center 8.781 34.984 -0.736 ntor 12 128.9162 104.1996 57.3611 133.1441 105.7991 87.3439 -179.2380 -73.3210 -74.6553 147.0781 169.2187 178.1881
State:	 -5.900  -0.191 -16.238  -0.487  0.873 -0.039 -116.598    128.92  104.20   57.36  133.14  105.80   87.34 -179.24  -73.32  -74.66  147.08  169.22  178.19

DOCKED: MODEL       33
DOCKED: USER    Run = 33
DOCKED: USER    DPF = D:/Protein_go_brrr/autodock/final/AncA/heme_Co/dock.dpf
DOCKED: USER  
DOCKED: USER    Estimated Free Energy of Binding    =   -4.25 kcal/mol  [=(1)+(2)+(3)-(4)]
DOCKED: USER    Estimated Inhibition Constant, Ki   =  768.68 uM (micromolar)  [Temperature = 298.15 K]
DOCKED: USER    
DOCKED: USER    (1) Final Intermolecular Energy     =   -7.83 kcal/mol
DOCKED: USER        vdW + Hbond + desolv Energy     =   -7.48 kcal/mol
DOCKED: USER        Electrostatic Energy            =   -0.35 kcal/mol
DOCKED: USER    (2) Final Total Internal Energy     =   -2.79 kcal/mol
DOCKED: USER    (3) Torsional Free Energy           =   +3.58 kcal/mol
DOCKED: USER    (4) Unbound System's Energy  [=(2)] =   -2.79 kcal/mol
DOCKED: USER    
DOCKED: USER    
DOCKED: USER    NEWDPF move heme_Co_opt.pdbqt
DOCKED: USER    NEWDPF about 8.781000 34.984000 -0.736000
DOCKED: USER    NEWDPF tran0 -5.900370 -0.190706 -16.238214
DOCKED: USER    NEWDPF quaternion0 -0.414075 0.742493 -0.033365 -0.525483
DOCKED: USER    NEWDPF axisangle0 -0.486687 0.872696 -0.039216 -116.598422
DOCKED: USER    NEWDPF quat0 -0.486687 0.872696 -0.039216 -116.598422
DOCKED: USER    NEWDPF dihe0 128.92 104.20 57.36 133.14 105.80 87.34 -179.24 -73.32 -74.66 147.08 169.22 178.19 
DOCKED: USER  keepresnum = 1 
DOCKED: USER  
DOCKED: REMARK  12 active torsions:
DOCKED: REMARK  status: ('A' for Active; 'I' for Inactive)
DOCKED: REMARK    1  A    between atoms: C_6  and  C_10 
DOCKED: REMARK    2  A    between atoms: C_10  and  C_11 
DOCKED: REMARK    3  A    between atoms: C_11  and  C_12 
DOCKED: REMARK    4  A    between atoms: C_12  and  O_14 
DOCKED: REMARK    5  A    between atoms: C_17  and  C_20 
DOCKED: REMARK    6  A    between atoms: C_24  and  C_27 
DOCKED: REMARK    7  A    between atoms: C_31  and  C_34 
DOCKED: REMARK    8  A    between atoms: C_34  and  C_35 
DOCKED: REMARK    9  A    between atoms: C_35  and  C_36 
DOCKED: REMARK   10  A    between atoms: C_36  and  O_38 
DOCKED: REMARK   11  A    between atoms: FE_43  and  C_44 
DOCKED: REMARK   12  A    between atoms: C_44  and  O_45 
DOCKED: USER                              x       y       z     vdW  Elec       q    Type
DOCKED: USER                           _______ _______ _______ _____ _____    ______ ____
DOCKED: ROOT
DOCKED: ATOM      1  C   UNL d   1      -6.674   1.066 -14.645 -0.13 -0.01    +0.064 A 
DOCKED: ATOM      2  C   UNL d   1      -2.246  -0.054 -15.967 -0.22 -0.00    +0.064 C 
DOCKED: ATOM      3  C   UNL d   1      -3.950  -3.086 -19.243 -0.21 -0.01    +0.064 A 
DOCKED: ATOM      4  C   UNL d   1      -8.481  -1.672 -18.175 -0.11 -0.01    +0.064 A 
DOCKED: ATOM      5  C   UNL d   1      -5.338   0.956 -14.741 -0.16 -0.00    +0.066 A 
DOCKED: ATOM      6  C   UNL d   1      -4.466   1.755 -13.977 -0.25 +0.00    -0.021 A 
DOCKED: ATOM      7  C   UNL d   1      -3.183   1.442 -14.381 -0.23 +0.00    -0.025 A 
DOCKED: ATOM      8  C   UNL d   1      -3.326   0.454 -15.362 -0.19 -0.00    +0.066 A 
DOCKED: ATOM      9  C   UNL d   1      -1.862   2.041 -13.873 -0.30 -0.00    +0.051 C 
DOCKED: ATOM     10  C   UNL d   1      -2.294  -1.091 -16.968 -0.03 +0.00    +0.066 A 
DOCKED: ATOM     11  C   UNL d   1      -1.192  -1.764 -17.539 -0.27 +0.00    -0.021 A 
DOCKED: ATOM     12  C   UNL d   1      -1.718  -2.645 -18.488 -0.26 -0.00    +0.000 A 
DOCKED: ATOM     13  C   UNL d   1      -3.098  -2.454 -18.417 -0.21 -0.01    +0.070 A 
DOCKED: ATOM     14  C   UNL d   1       0.250  -1.628 -17.122 -0.32 -0.00    +0.052 C 
DOCKED: ATOM     15  C   UNL d   1      -5.392  -2.968 -19.343 -0.17 -0.01    +0.066 A 
DOCKED: ATOM     16  C   UNL d   1      -6.199  -3.540 -20.316 -0.19 +0.01    -0.021 A 
DOCKED: ATOM     17  C   UNL d   1      -7.506  -3.134 -20.014 -0.13 -0.00    +0.000 A 
DOCKED: ATOM     18  C   UNL d   1      -7.395  -2.356 -18.866 -0.11 -0.01    +0.070 A 
DOCKED: ATOM     19  C   UNL d   1      -5.717  -4.415 -21.452 -0.22 -0.03    +0.052 C 
DOCKED: ATOM     20  C   UNL d   1      -8.386  -0.841 -17.109 -0.16 -0.02    +0.066 A 
DOCKED: ATOM     21  C   UNL d   1      -9.499  -0.213 -16.555 -0.21 +0.01    -0.025 A 
DOCKED: ATOM     22  C   UNL d   1      -9.012   0.560 -15.517 -0.31 +0.01    -0.021 A 
DOCKED: ATOM     23  C   UNL d   1      -7.613   0.373 -15.497 -0.18 -0.02    +0.066 A 
DOCKED: ATOM     24  C   UNL d   1     -10.953  -0.328 -17.004 -0.13 -0.03    +0.051 C 
DOCKED: ATOM     25  N   UNL d   1      -4.651   0.129 -15.601 -0.13 +0.01    -0.248 N 
DOCKED: ATOM     26  N   UNL d   1      -3.448  -1.555 -17.458 -0.13 +0.01    -0.248 N 
DOCKED: ATOM     27  N   UNL d   1      -6.118  -2.255 -18.512 -0.09 +0.03    -0.248 N 
DOCKED: ATOM     28  N   UNL d   1      -7.230  -0.473 -16.461 -0.10 +0.04    -0.248 N 
DOCKED: ATOM     29 FE   UNL d   1      -5.431  -1.133 -17.141 -0.05 -0.00    +0.000 Fe
DOCKED: ENDROOT
DOCKED: BRANCH   6  30
DOCKED: ATOM     30  C   UNL d   1      -4.863   2.826 -12.967 -0.33 +0.00    +0.052 C 
DOCKED: BRANCH  30  31
DOCKED: ATOM     31  C   UNL d   1      -4.603   4.221 -13.533 -0.14 +0.02    +0.115 C 
DOCKED: BRANCH  31  32
DOCKED: ATOM     32  C   UNL d   1      -5.874   4.904 -13.991 -0.13 +0.03    +0.139 C 
DOCKED: ATOM     33  O   UNL d   1      -6.830   4.966 -13.231 -0.52 -0.21    -0.650 OA
DOCKED: BRANCH  32  34
DOCKED: ATOM     34  O   UNL d   1      -5.974   5.496 -15.204 +0.05 -0.12    -0.776 OA
DOCKED: ATOM     35  H   UNL d   1      -6.656   5.286 -15.856 +0.03 +0.02    +0.167 HD
DOCKED: ENDBRANCH  32  34
DOCKED: ENDBRANCH  31  32
DOCKED: ENDBRANCH  30  31
DOCKED: ENDBRANCH   6  30
DOCKED: BRANCH  29  36
DOCKED: ATOM     36  C   UNL d   1      -5.281   0.523 -18.418 -0.03 -0.01    +0.190 C 
DOCKED: BRANCH  36  37
DOCKED: ATOM     37  O   UNL d   1      -5.809   1.795 -18.660 +0.00 +0.01    -0.399 OA
DOCKED: ATOM     38  H   UNL d   1      -6.598   1.865 -18.052 +0.02 -0.01    +0.209 HD
DOCKED: ENDBRANCH  36  37
DOCKED: ENDBRANCH  29  36
DOCKED: BRANCH  22  39
DOCKED: ATOM     39  C   UNL d   1      -9.842   1.477 -14.638 -0.17 -0.04    +0.052 C 
DOCKED: BRANCH  39  40
DOCKED: ATOM     40  C   UNL d   1     -10.114   2.812 -15.351 -0.17 -0.03    +0.115 C 
DOCKED: BRANCH  40  41
DOCKED: ATOM     41  C   UNL d   1      -8.947   3.338 -16.159 -0.08 -0.01    +0.139 C 
DOCKED: ATOM     42  O   UNL d   1      -8.559   2.705 -17.131 +0.04 +0.07    -0.650 OA
DOCKED: BRANCH  41  43
DOCKED: ATOM     43  O   UNL d   1      -8.376   4.532 -15.888 +0.03 -0.01    -0.776 OA
DOCKED: ATOM     44  H   UNL d   1      -7.924   4.714 -15.053 +0.03 +0.02    +0.167 HD
DOCKED: ENDBRANCH  41  43
DOCKED: ENDBRANCH  40  41
DOCKED: ENDBRANCH  39  40
DOCKED: ENDBRANCH  22  39
DOCKED: BRANCH  12  45
DOCKED: ATOM     45  C   UNL d   1      -1.080  -3.653 -19.434 -0.30 -0.00    +0.004 C 
DOCKED: ATOM     46  C   UNL d   1      -1.303  -4.956 -19.590 -0.38 -0.00    +0.012 C 
DOCKED: ENDBRANCH  12  45
DOCKED: BRANCH  17  47
DOCKED: ATOM     47  C   UNL d   1      -8.779  -3.391 -20.750 -0.10 -0.00    +0.004 C 
DOCKED: ATOM     48  C   UNL d   1      -9.506  -4.501 -20.602 -0.13 -0.01    +0.012 C 
DOCKED: ENDBRANCH  17  47
DOCKED: TORSDOF 12
DOCKED: TER
DOCKED: ENDMDL
________________________________________________________________________________


	BEGINNING GENETIC ALGORITHM DOCKING 34 of 100
Run: 34 Seed: 166807549 898525985 [ Run 34 of 100 GA/GALS ]
Beginning LAMARCKIAN GENETIC ALGORITHM (LGA), with a maximum of 25000000 energy evaluations.

Final-Value: -12.160


	FINAL GENETIC ALGORITHM DOCKED STATE
	_______________________________________________


Detailed state:  trans -0.195 -15.695 -2.204 quatxyzw -0.414678 -0.034094 0.413815 -0.809714 center 8.781 34.984 -0.736 ntor 12 -124.0863 157.3841 -26.6458 120.7923 126.9970 129.6174 67.6120 161.1022 -82.3857 28.0290 175.0885 172.0345
State:	 -0.195 -15.695  -2.204  -0.707 -0.058  0.705 -71.864   -124.09  157.38  -26.65  120.79  127.00  129.62   67.61  161.10  -82.39   28.03  175.09  172.03

DOCKED: MODEL       34
DOCKED: USER    Run = 34
DOCKED: USER    DPF = D:/Protein_go_brrr/autodock/final/AncA/heme_Co/dock.dpf
DOCKED: USER  
DOCKED: USER    Estimated Free Energy of Binding    =   -6.21 kcal/mol  [=(1)+(2)+(3)-(4)]
DOCKED: USER    Estimated Inhibition Constant, Ki   =   28.01 uM (micromolar)  [Temperature = 298.15 K]
DOCKED: USER    
DOCKED: USER    (1) Final Intermolecular Energy     =   -9.79 kcal/mol
DOCKED: USER        vdW + Hbond + desolv Energy     =   -6.20 kcal/mol
DOCKED: USER        Electrostatic Energy            =   -3.59 kcal/mol
DOCKED: USER    (2) Final Total Internal Energy     =   -2.37 kcal/mol
DOCKED: USER    (3) Torsional Free Energy           =   +3.58 kcal/mol
DOCKED: USER    (4) Unbound System's Energy  [=(2)] =   -2.37 kcal/mol
DOCKED: USER    
DOCKED: USER    
DOCKED: USER    NEWDPF move heme_Co_opt.pdbqt
DOCKED: USER    NEWDPF about 8.781000 34.984000 -0.736000
DOCKED: USER    NEWDPF tran0 -0.194935 -15.695214 -2.203916
DOCKED: USER    NEWDPF quaternion0 -0.414678 -0.034094 0.413815 -0.809714
DOCKED: USER    NEWDPF axisangle0 -0.706647 -0.058099 0.705177 -71.863971
DOCKED: USER    NEWDPF quat0 -0.706647 -0.058099 0.705177 -71.863971
DOCKED: USER    NEWDPF dihe0 -124.09 157.38 -26.65 120.79 127.00 129.62 67.61 161.10 -82.39 28.03 175.09 172.03 
DOCKED: USER  keepresnum = 1 
DOCKED: USER  
DOCKED: REMARK  12 active torsions:
DOCKED: REMARK  status: ('A' for Active; 'I' for Inactive)
DOCKED: REMARK    1  A    between atoms: C_6  and  C_10 
DOCKED: REMARK    2  A    between atoms: C_10  and  C_11 
DOCKED: REMARK    3  A    between atoms: C_11  and  C_12 
DOCKED: REMARK    4  A    between atoms: C_12  and  O_14 
DOCKED: REMARK    5  A    between atoms: C_17  and  C_20 
DOCKED: REMARK    6  A    between atoms: C_24  and  C_27 
DOCKED: REMARK    7  A    between atoms: C_31  and  C_34 
DOCKED: REMARK    8  A    between atoms: C_34  and  C_35 
DOCKED: REMARK    9  A    between atoms: C_35  and  C_36 
DOCKED: REMARK   10  A    between atoms: C_36  and  O_38 
DOCKED: REMARK   11  A    between atoms: FE_43  and  C_44 
DOCKED: REMARK   12  A    between atoms: C_44  and  O_45 
DOCKED: USER                              x       y       z     vdW  Elec       q    Type
DOCKED: USER                           _______ _______ _______ _____ _____    ______ ____
DOCKED: ROOT
DOCKED: ATOM      1  C   UNL d   1      -1.444 -17.437  -2.552 -0.05 +0.06    +0.064 A 
DOCKED: ATOM      2  C   UNL d   1      -0.400 -14.989   1.389 -0.12 +0.05    +0.064 C 
DOCKED: ATOM      3  C   UNL d   1       2.677 -12.280  -1.064 -0.17 +0.02    +0.064 A 
DOCKED: ATOM      4  C   UNL d   1       1.342 -14.510  -5.176 -0.23 +0.03    +0.064 A 
DOCKED: ATOM      5  C   UNL d   1      -1.358 -16.991  -1.287 -0.04 +0.06    +0.066 A 
DOCKED: ATOM      6  C   UNL d   1      -2.177 -17.497  -0.259 -0.04 -0.02    -0.021 A 
DOCKED: ATOM      7  C   UNL d   1      -1.886 -16.768   0.877 -0.08 -0.02    -0.025 A 
DOCKED: ATOM      8  C   UNL d   1      -0.891 -15.859   0.498 -0.08 +0.05    +0.066 A 
DOCKED: ATOM      9  C   UNL d   1      -2.512 -16.908   2.273 +0.00 +0.06    +0.051 C 
DOCKED: ATOM     10  C   UNL d   1       0.642 -14.036   1.097 -0.12 +0.04    +0.066 A 
DOCKED: ATOM     11  C   UNL d   1       1.297 -13.194   2.021 -0.19 -0.01    -0.021 A 
DOCKED: ATOM     12  C   UNL d   1       2.192 -12.418   1.280 -0.25 +0.00    +0.000 A 
DOCKED: ATOM     13  C   UNL d   1       2.026 -12.851  -0.036 -0.14 +0.02    +0.070 A 
DOCKED: ATOM     14  C   UNL d   1       1.133 -13.214   3.519 -0.25 +0.02    +0.052 C 
DOCKED: ATOM     15  C   UNL d   1       2.587 -12.565  -2.483 -0.15 +0.02    +0.066 A 
DOCKED: ATOM     16  C   UNL d   1       3.178 -11.840  -3.507 -0.26 -0.01    -0.021 A 
DOCKED: ATOM     17  C   UNL d   1       2.794 -12.478  -4.696 -0.29 +0.00    +0.000 A 
DOCKED: ATOM     18  C   UNL d   1       2.010 -13.556  -4.299 -0.19 +0.03    +0.070 A 
DOCKED: ATOM     19  C   UNL d   1       4.049 -10.617  -3.327 -0.37 +0.01    +0.052 C 
DOCKED: ATOM     20  C   UNL d   1       0.505 -15.513  -4.818 -0.15 +0.04    +0.066 A 
DOCKED: ATOM     21  C   UNL d   1      -0.105 -16.343  -5.756 -0.19 -0.02    -0.025 A 
DOCKED: ATOM     22  C   UNL d   1      -0.892 -17.215  -5.027 -0.12 -0.02    -0.021 A 
DOCKED: ATOM     23  C   UNL d   1      -0.730 -16.864  -3.670 -0.07 +0.06    +0.066 A 
DOCKED: ATOM     24  C   UNL d   1       0.039 -16.294  -7.275 -0.29 +0.03    +0.051 C 
DOCKED: ATOM     25  N   UNL d   1      -0.541 -15.979  -0.836 -0.02 -0.19    -0.248 N 
DOCKED: ATOM     26  N   UNL d   1       1.129 -13.869  -0.136 -0.05 -0.12    -0.248 N 
DOCKED: ATOM     27  N   UNL d   1       1.883 -13.559  -2.977 -0.06 -0.10    -0.248 N 
DOCKED: ATOM     28  N   UNL d   1       0.113 -15.833  -3.539 -0.04 -0.18    -0.248 N 
DOCKED: ATOM     29 FE   UNL d   1       0.742 -14.700  -1.973 -0.02 +0.00    +0.000 Fe
DOCKED: ENDROOT
DOCKED: BRANCH   6  30
DOCKED: ATOM     30  C   UNL d   1      -3.245 -18.577  -0.395 -0.02 +0.04    +0.052 C 
DOCKED: BRANCH  30  31
DOCKED: ATOM     31  C   UNL d   1      -4.637 -17.950  -0.467 -0.04 +0.12    +0.115 C 
DOCKED: BRANCH  31  32
DOCKED: ATOM     32  C   UNL d   1      -5.115 -17.768  -1.891 -0.06 +0.18    +0.139 C 
DOCKED: ATOM     33  O   UNL d   1      -4.491 -17.038  -2.646 +0.27 -1.54    -0.650 OA
DOCKED: BRANCH  32  34
DOCKED: ATOM     34  O   UNL d   1      -6.192 -18.430  -2.376 +0.02 -0.74    -0.776 OA
DOCKED: ATOM     35  H   UNL d   1      -6.190 -18.945  -3.195 +0.02 +0.15    +0.167 HD
DOCKED: ENDBRANCH  32  34
DOCKED: ENDBRANCH  31  32
DOCKED: ENDBRANCH  30  31
DOCKED: ENDBRANCH   6  30
DOCKED: BRANCH  29  36
DOCKED: ATOM     36  C   UNL d   1      -0.910 -13.429  -2.197 -0.16 +0.17    +0.190 C 
DOCKED: BRANCH  36  37
DOCKED: ATOM     37  O   UNL d   1      -2.309 -13.411  -2.205 -0.27 -0.68    -0.399 OA
DOCKED: ATOM     38  H   UNL d   1      -2.577 -13.976  -1.427 +0.05 +0.36    +0.209 HD
DOCKED: ENDBRANCH  36  37
DOCKED: ENDBRANCH  29  36
DOCKED: BRANCH  22  39
DOCKED: ATOM     39  C   UNL d   1      -1.797 -18.283  -5.613 -0.11 +0.05    +0.052 C 
DOCKED: BRANCH  39  40
DOCKED: ATOM     40  C   UNL d   1      -3.179 -17.698  -5.948 -0.20 +0.15    +0.115 C 
DOCKED: BRANCH  40  41
DOCKED: ATOM     41  C   UNL d   1      -4.290 -18.724  -6.022 -0.17 +0.19    +0.139 C 
DOCKED: ATOM     42  O   UNL d   1      -4.218 -19.626  -6.845 -0.08 -1.27    -0.650 OA
DOCKED: BRANCH  41  43
DOCKED: ATOM     43  O   UNL d   1      -5.318 -18.723  -5.144 +0.01 -0.92    -0.776 OA
DOCKED: ATOM     44  H   UNL d   1      -5.266 -18.283  -4.285 +0.02 +0.21    +0.167 HD
DOCKED: ENDBRANCH  41  43
DOCKED: ENDBRANCH  40  41
DOCKED: ENDBRANCH  39  40
DOCKED: ENDBRANCH  22  39
DOCKED: BRANCH  12  45
DOCKED: ATOM     45  C   UNL d   1       3.193 -11.335   1.663 -0.34 +0.00    +0.004 C 
DOCKED: ATOM     46  C   UNL d   1       4.523 -11.334   1.628 -0.21 +0.00    +0.012 C 
DOCKED: ENDBRANCH  12  45
DOCKED: BRANCH  17  47
DOCKED: ATOM     47  C   UNL d   1       3.078 -12.105  -6.114 -0.36 +0.00    +0.004 C 
DOCKED: ATOM     48  C   UNL d   1       3.962 -12.746  -6.882 -0.55 +0.00    +0.012 C 
DOCKED: ENDBRANCH  17  47
DOCKED: TORSDOF 12
DOCKED: TER
DOCKED: ENDMDL
________________________________________________________________________________


	BEGINNING GENETIC ALGORITHM DOCKING 35 of 100
Run: 35 Seed: 356562202 1342561799 [ Run 35 of 100 GA/GALS ]
Beginning LAMARCKIAN GENETIC ALGORITHM (LGA), with a maximum of 25000000 energy evaluations.

Final-Value: -12.998


	FINAL GENETIC ALGORITHM DOCKED STATE
	_______________________________________________


Detailed state:  trans -0.282 -15.580 -1.677 quatxyzw -0.388644 -0.041558 0.393949 -0.831885 center 8.781 34.984 -0.736 ntor 12 129.2057 139.8996 35.7630 18.1931 141.9175 134.8053 -114.2465 -105.6488 -133.4052 -27.8278 165.0422 -148.4480
State:	 -0.282 -15.580  -1.677  -0.700 -0.075  0.710 -67.414    129.21  139.90   35.76   18.19  141.92  134.81 -114.25 -105.65 -133.41  -27.83  165.04 -148.45

DOCKED: MODEL       35
DOCKED: USER    Run = 35
DOCKED: USER    DPF = D:/Protein_go_brrr/autodock/final/AncA/heme_Co/dock.dpf
DOCKED: USER  
DOCKED: USER    Estimated Free Energy of Binding    =   -7.71 kcal/mol  [=(1)+(2)+(3)-(4)]
DOCKED: USER    Estimated Inhibition Constant, Ki   =    2.22 uM (micromolar)  [Temperature = 298.15 K]
DOCKED: USER    
DOCKED: USER    (1) Final Intermolecular Energy     =  -11.29 kcal/mol
DOCKED: USER        vdW + Hbond + desolv Energy     =   -6.88 kcal/mol
DOCKED: USER        Electrostatic Energy            =   -4.41 kcal/mol
DOCKED: USER    (2) Final Total Internal Energy     =   -1.71 kcal/mol
DOCKED: USER    (3) Torsional Free Energy           =   +3.58 kcal/mol
DOCKED: USER    (4) Unbound System's Energy  [=(2)] =   -1.71 kcal/mol
DOCKED: USER    
DOCKED: USER    
DOCKED: USER    NEWDPF move heme_Co_opt.pdbqt
DOCKED: USER    NEWDPF about 8.781000 34.984000 -0.736000
DOCKED: USER    NEWDPF tran0 -0.282457 -15.579694 -1.676915
DOCKED: USER    NEWDPF quaternion0 -0.388644 -0.041558 0.393949 -0.831885
DOCKED: USER    NEWDPF axisangle0 -0.700325 -0.074886 0.709885 -67.414232
DOCKED: USER    NEWDPF quat0 -0.700325 -0.074886 0.709885 -67.414232
DOCKED: USER    NEWDPF dihe0 129.21 139.90 35.76 18.19 141.92 134.81 -114.25 -105.65 -133.41 -27.83 165.04 -148.45 
DOCKED: USER  keepresnum = 1 
DOCKED: USER  
DOCKED: REMARK  12 active torsions:
DOCKED: REMARK  status: ('A' for Active; 'I' for Inactive)
DOCKED: REMARK    1  A    between atoms: C_6  and  C_10 
DOCKED: REMARK    2  A    between atoms: C_10  and  C_11 
DOCKED: REMARK    3  A    between atoms: C_11  and  C_12 
DOCKED: REMARK    4  A    between atoms: C_12  and  O_14 
DOCKED: REMARK    5  A    between atoms: C_17  and  C_20 
DOCKED: REMARK    6  A    between atoms: C_24  and  C_27 
DOCKED: REMARK    7  A    between atoms: C_31  and  C_34 
DOCKED: REMARK    8  A    between atoms: C_34  and  C_35 
DOCKED: REMARK    9  A    between atoms: C_35  and  C_36 
DOCKED: REMARK   10  A    between atoms: C_36  and  O_38 
DOCKED: REMARK   11  A    between atoms: FE_43  and  C_44 
DOCKED: REMARK   12  A    between atoms: C_44  and  O_45 
DOCKED: USER                              x       y       z     vdW  Elec       q    Type
DOCKED: USER                           _______ _______ _______ _____ _____    ______ ____
DOCKED: ROOT
DOCKED: ATOM      1  C   UNL d   1      -1.602 -17.239  -2.147 -0.05 +0.06    +0.064 A 
DOCKED: ATOM      2  C   UNL d   1      -0.483 -15.111   1.955 -0.11 +0.05    +0.064 C 
DOCKED: ATOM      3  C   UNL d   1       2.724 -12.375  -0.296 -0.18 +0.02    +0.064 A 
DOCKED: ATOM      4  C   UNL d   1       1.324 -14.262  -4.555 -0.19 +0.03    +0.064 A 
DOCKED: ATOM      5  C   UNL d   1      -1.506 -16.884  -0.856 -0.04 +0.06    +0.066 A 
DOCKED: ATOM      6  C   UNL d   1      -2.352 -17.423   0.133 -0.05 -0.02    -0.021 A 
DOCKED: ATOM      7  C   UNL d   1      -2.038 -16.786   1.317 -0.07 -0.02    -0.025 A 
DOCKED: ATOM      8  C   UNL d   1      -1.004 -15.897   1.004 -0.09 +0.05    +0.066 A 
DOCKED: ATOM      9  C   UNL d   1      -2.680 -16.993   2.698 -0.05 +0.06    +0.051 C 
DOCKED: ATOM     10  C   UNL d   1       0.601 -14.186   1.733 -0.13 +0.04    +0.066 A 
DOCKED: ATOM     11  C   UNL d   1       1.285 -13.437   2.715 -0.18 -0.01    -0.021 A 
DOCKED: ATOM     12  C   UNL d   1       2.217 -12.651   2.032 -0.22 +0.00    +0.000 A 
DOCKED: ATOM     13  C   UNL d   1       2.042 -12.987   0.689 -0.15 +0.02    +0.070 A 
DOCKED: ATOM     14  C   UNL d   1       1.110 -13.551   4.207 -0.22 +0.03    +0.052 C 
DOCKED: ATOM     15  C   UNL d   1       2.631 -12.560  -1.730 -0.14 +0.02    +0.066 A 
DOCKED: ATOM     16  C   UNL d   1       3.260 -11.792  -2.701 -0.23 -0.01    -0.021 A 
DOCKED: ATOM     17  C   UNL d   1       2.857 -12.331  -3.931 -0.25 +0.00    +0.000 A 
DOCKED: ATOM     18  C   UNL d   1       2.025 -13.399  -3.613 -0.15 +0.03    +0.070 A 
DOCKED: ATOM     19  C   UNL d   1       4.181 -10.623  -2.434 -0.20 +0.01    +0.052 C 
DOCKED: ATOM     20  C   UNL d   1       0.443 -15.250  -4.270 -0.13 +0.04    +0.066 A 
DOCKED: ATOM     21  C   UNL d   1      -0.195 -15.988  -5.265 -0.19 -0.02    -0.025 A 
DOCKED: ATOM     22  C   UNL d   1      -1.023 -16.873  -4.600 -0.12 -0.02    -0.021 A 
DOCKED: ATOM     23  C   UNL d   1      -0.857 -16.622  -3.221 -0.08 +0.06    +0.066 A 
DOCKED: ATOM     24  C   UNL d   1      -0.039 -15.843  -6.776 -0.34 +0.03    +0.051 C 
DOCKED: ATOM     25  N   UNL d   1      -0.650 -15.941  -0.333 -0.03 -0.19    -0.248 N 
DOCKED: ATOM     26  N   UNL d   1       1.104 -13.956   0.516 -0.06 -0.12    -0.248 N 
DOCKED: ATOM     27  N   UNL d   1       1.889 -13.487  -2.294 -0.04 -0.10    -0.248 N 
DOCKED: ATOM     28  N   UNL d   1       0.028 -15.639  -3.017 -0.04 -0.19    -0.248 N 
DOCKED: ATOM     29 FE   UNL d   1       0.695 -14.643  -1.375 -0.02 +0.00    +0.000 Fe
DOCKED: ENDROOT
DOCKED: BRANCH   6  30
DOCKED: ATOM     30  C   UNL d   1      -3.464 -18.445  -0.081 -0.02 +0.04    +0.052 C 
DOCKED: BRANCH  30  31
DOCKED: ATOM     31  C   UNL d   1      -4.834 -17.800   0.131 -0.05 +0.12    +0.115 C 
DOCKED: BRANCH  31  32
DOCKED: ATOM     32  C   UNL d   1      -4.947 -16.450  -0.543 -0.09 +0.24    +0.139 C 
DOCKED: ATOM     33  O   UNL d   1      -5.754 -16.295  -1.447 -0.26 -1.35    -0.650 OA
DOCKED: BRANCH  32  34
DOCKED: ATOM     34  O   UNL d   1      -4.213 -15.385  -0.144 -0.25 -1.61    -0.776 OA
DOCKED: ATOM     35  H   UNL d   1      -3.640 -14.869  -0.729 +0.02 +0.35    +0.167 HD
DOCKED: ENDBRANCH  32  34
DOCKED: ENDBRANCH  31  32
DOCKED: ENDBRANCH  30  31
DOCKED: ENDBRANCH   6  30
DOCKED: BRANCH  29  36
DOCKED: ATOM     36  C   UNL d   1      -0.901 -13.291  -1.519 -0.16 +0.16    +0.190 C 
DOCKED: BRANCH  36  37
DOCKED: ATOM     37  O   UNL d   1      -2.296 -13.202  -1.456 -0.20 -0.54    -0.399 OA
DOCKED: ATOM     38  H   UNL d   1      -2.574 -13.960  -0.868 +0.05 +0.32    +0.209 HD
DOCKED: ENDBRANCH  36  37
DOCKED: ENDBRANCH  29  36
DOCKED: BRANCH  22  39
DOCKED: ATOM     39  C   UNL d   1      -1.969 -17.859  -5.261 -0.14 +0.05    +0.052 C 
DOCKED: BRANCH  39  40
DOCKED: ATOM     40  C   UNL d   1      -2.782 -17.171  -6.369 -0.06 +0.14    +0.115 C 
DOCKED: BRANCH  40  41
DOCKED: ATOM     41  C   UNL d   1      -3.111 -18.063  -7.548 -0.00 +0.22    +0.139 C 
DOCKED: ATOM     42  O   UNL d   1      -3.293 -19.258  -7.361 -0.33 -1.35    -0.650 OA
DOCKED: BRANCH  41  43
DOCKED: ATOM     43  O   UNL d   1      -3.296 -17.561  -8.789 -0.26 -1.30    -0.776 OA
DOCKED: ATOM     44  H   UNL d   1      -2.730 -16.871  -9.160 +0.07 +0.16    +0.167 HD
DOCKED: ENDBRANCH  41  43
DOCKED: ENDBRANCH  40  41
DOCKED: ENDBRANCH  39  40
DOCKED: ENDBRANCH  22  39
DOCKED: BRANCH  12  45
DOCKED: ATOM     45  C   UNL d   1       3.260 -11.641   2.492 -0.29 +0.00    +0.004 C 
DOCKED: ATOM     46  C   UNL d   1       3.695 -11.341   3.712 -0.28 +0.00    +0.012 C 
DOCKED: ENDBRANCH  12  45
DOCKED: BRANCH  17  47
DOCKED: ATOM     47  C   UNL d   1       3.167 -11.875  -5.319 -0.41 +0.00    +0.004 C 
DOCKED: ATOM     48  C   UNL d   1       3.791 -12.634  -6.223 -0.49 +0.00    +0.012 C 
DOCKED: ENDBRANCH  17  47
DOCKED: TORSDOF 12
DOCKED: TER
DOCKED: ENDMDL
________________________________________________________________________________


	BEGINNING GENETIC ALGORITHM DOCKING 36 of 100
Run: 36 Seed: 455492343 671838934 [ Run 36 of 100 GA/GALS ]
Beginning LAMARCKIAN GENETIC ALGORITHM (LGA), with a maximum of 25000000 energy evaluations.

Final-Value: -12.823


	FINAL GENETIC ALGORITHM DOCKED STATE
	_______________________________________________


Detailed state:  trans -0.221 -15.667 -1.457 quatxyzw 0.370838 0.069551 -0.391222 0.839397 center 8.781 34.984 -0.736 ntor 12 -124.3267 121.3152 -38.5145 -22.8125 150.8145 115.0284 47.6692 77.3282 150.9848 -2.3269 -156.2575 -144.5546
State:	 -0.221 -15.667  -1.457   0.682  0.128 -0.720 65.847   -124.33  121.32  -38.51  -22.81  150.81  115.03   47.67   77.33  150.98   -2.33 -156.26 -144.55

DOCKED: MODEL       36
DOCKED: USER    Run = 36
DOCKED: USER    DPF = D:/Protein_go_brrr/autodock/final/AncA/heme_Co/dock.dpf
DOCKED: USER  
DOCKED: USER    Estimated Free Energy of Binding    =   -7.25 kcal/mol  [=(1)+(2)+(3)-(4)]
DOCKED: USER    Estimated Inhibition Constant, Ki   =    4.84 uM (micromolar)  [Temperature = 298.15 K]
DOCKED: USER    
DOCKED: USER    (1) Final Intermolecular Energy     =  -10.83 kcal/mol
DOCKED: USER        vdW + Hbond + desolv Energy     =   -6.41 kcal/mol
DOCKED: USER        Electrostatic Energy            =   -4.42 kcal/mol
DOCKED: USER    (2) Final Total Internal Energy     =   -1.99 kcal/mol
DOCKED: USER    (3) Torsional Free Energy           =   +3.58 kcal/mol
DOCKED: USER    (4) Unbound System's Energy  [=(2)] =   -1.99 kcal/mol
DOCKED: USER    
DOCKED: USER    
DOCKED: USER    NEWDPF move heme_Co_opt.pdbqt
DOCKED: USER    NEWDPF about 8.781000 34.984000 -0.736000
DOCKED: USER    NEWDPF tran0 -0.220752 -15.667449 -1.457484
DOCKED: USER    NEWDPF quaternion0 0.370838 0.069551 -0.391222 0.839397
DOCKED: USER    NEWDPF axisangle0 0.682291 0.127965 -0.719794 65.847038
DOCKED: USER    NEWDPF quat0 0.682291 0.127965 -0.719794 65.847038
DOCKED: USER    NEWDPF dihe0 -124.33 121.32 -38.51 -22.81 150.81 115.03 47.67 77.33 150.98 -2.33 -156.26 -144.55 
DOCKED: USER  keepresnum = 1 
DOCKED: USER  
DOCKED: REMARK  12 active torsions:
DOCKED: REMARK  status: ('A' for Active; 'I' for Inactive)
DOCKED: REMARK    1  A    between atoms: C_6  and  C_10 
DOCKED: REMARK    2  A    between atoms: C_10  and  C_11 
DOCKED: REMARK    3  A    between atoms: C_11  and  C_12 
DOCKED: REMARK    4  A    between atoms: C_12  and  O_14 
DOCKED: REMARK    5  A    between atoms: C_17  and  C_20 
DOCKED: REMARK    6  A    between atoms: C_24  and  C_27 
DOCKED: REMARK    7  A    between atoms: C_31  and  C_34 
DOCKED: REMARK    8  A    between atoms: C_34  and  C_35 
DOCKED: REMARK    9  A    between atoms: C_35  and  C_36 
DOCKED: REMARK   10  A    between atoms: C_36  and  O_38 
DOCKED: REMARK   11  A    between atoms: FE_43  and  C_44 
DOCKED: REMARK   12  A    between atoms: C_44  and  O_45 
DOCKED: USER                              x       y       z     vdW  Elec       q    Type
DOCKED: USER                           _______ _______ _______ _____ _____    ______ ____
DOCKED: ROOT
DOCKED: ATOM      1  C   UNL d   1      -1.501 -17.312  -2.068 -0.04 +0.06    +0.064 A 
DOCKED: ATOM      2  C   UNL d   1      -0.549 -15.412   2.186 -0.09 +0.05    +0.064 C 
DOCKED: ATOM      3  C   UNL d   1       2.693 -12.513   0.208 -0.17 +0.02    +0.064 A 
DOCKED: ATOM      4  C   UNL d   1       1.463 -14.166  -4.198 -0.16 +0.03    +0.064 A 
DOCKED: ATOM      5  C   UNL d   1      -1.453 -17.031  -0.755 -0.04 +0.06    +0.066 A 
DOCKED: ATOM      6  C   UNL d   1      -2.325 -17.637   0.171 -0.04 -0.02    -0.021 A 
DOCKED: ATOM      7  C   UNL d   1      -2.060 -17.065   1.400 -0.07 -0.02    -0.025 A 
DOCKED: ATOM      8  C   UNL d   1      -1.028 -16.148   1.175 -0.08 +0.05    +0.066 A 
DOCKED: ATOM      9  C   UNL d   1      -2.744 -17.360   2.744 -0.05 +0.05    +0.051 C 
DOCKED: ATOM     10  C   UNL d   1       0.528 -14.464   2.055 -0.12 +0.04    +0.066 A 
DOCKED: ATOM     11  C   UNL d   1       1.168 -13.764   3.102 -0.17 -0.01    -0.021 A 
DOCKED: ATOM     12  C   UNL d   1       2.112 -12.929   2.497 -0.20 +0.00    +0.000 A 
DOCKED: ATOM     13  C   UNL d   1       1.987 -13.189   1.132 -0.14 +0.03    +0.070 A 
DOCKED: ATOM     14  C   UNL d   1       0.944 -13.967   4.578 -0.19 +0.03    +0.052 C 
DOCKED: ATOM     15  C   UNL d   1       2.651 -12.615  -1.237 -0.14 +0.02    +0.066 A 
DOCKED: ATOM     16  C   UNL d   1       3.302 -11.786  -2.140 -0.23 -0.00    -0.021 A 
DOCKED: ATOM     17  C   UNL d   1       2.948 -12.257  -3.412 -0.23 +0.00    +0.000 A 
DOCKED: ATOM     18  C   UNL d   1       2.121 -13.351  -3.184 -0.13 +0.03    +0.070 A 
DOCKED: ATOM     19  C   UNL d   1       4.197 -10.623  -1.774 -0.05 +0.01    +0.052 C 
DOCKED: ATOM     20  C   UNL d   1       0.587 -15.180  -4.001 -0.11 +0.04    +0.066 A 
DOCKED: ATOM     21  C   UNL d   1      -0.007 -15.866  -5.058 -0.18 -0.02    -0.025 A 
DOCKED: ATOM     22  C   UNL d   1      -0.845 -16.798  -4.474 -0.12 -0.02    -0.021 A 
DOCKED: ATOM     23  C   UNL d   1      -0.728 -16.626  -3.078 -0.07 +0.06    +0.066 A 
DOCKED: ATOM     24  C   UNL d   1       0.197 -15.632  -6.552 -0.34 +0.03    +0.051 C 
DOCKED: ATOM     25  N   UNL d   1      -0.628 -16.110  -0.150 -0.03 -0.18    -0.248 N 
DOCKED: ATOM     26  N   UNL d   1       1.068 -14.157   0.871 -0.06 -0.12    -0.248 N 
DOCKED: ATOM     27  N   UNL d   1       1.942 -13.517  -1.878 -0.03 -0.10    -0.248 N 
DOCKED: ATOM     28  N   UNL d   1       0.136 -15.646  -2.788 -0.03 -0.18    -0.248 N 
DOCKED: ATOM     29 FE   UNL d   1       0.733 -14.738  -1.069 -0.02 +0.00    +0.000 Fe
DOCKED: ENDROOT
DOCKED: BRANCH   6  30
DOCKED: ATOM     30  C   UNL d   1      -3.415 -18.657  -0.139 -0.02 +0.04    +0.052 C 
DOCKED: BRANCH  30  31
DOCKED: ATOM     31  C   UNL d   1      -4.586 -17.991  -0.860 -0.04 +0.13    +0.115 C 
DOCKED: BRANCH  31  32
DOCKED: ATOM     32  C   UNL d   1      -4.767 -16.545  -0.452 -0.11 +0.23    +0.139 C 
DOCKED: ATOM     33  O   UNL d   1      -5.370 -16.282   0.578 -0.33 -1.29    -0.650 OA
DOCKED: BRANCH  32  34
DOCKED: ATOM     34  O   UNL d   1      -4.239 -15.525  -1.168 +0.13 -1.88    -0.776 OA
DOCKED: ATOM     35  H   UNL d   1      -3.695 -14.820  -0.791 +0.02 +0.35    +0.167 HD
DOCKED: ENDBRANCH  32  34
DOCKED: ENDBRANCH  31  32
DOCKED: ENDBRANCH  30  31
DOCKED: ENDBRANCH   6  30
DOCKED: BRANCH  29  36
DOCKED: ATOM     36  C   UNL d   1      -0.876 -13.399  -1.189 -0.16 +0.16    +0.190 C 
DOCKED: BRANCH  36  37
DOCKED: ATOM     37  O   UNL d   1      -2.246 -13.325  -1.458 -0.19 -0.55    -0.399 OA
DOCKED: ATOM     38  H   UNL d   1      -2.546 -14.275  -1.527 +0.05 +0.38    +0.209 HD
DOCKED: ENDBRANCH  36  37
DOCKED: ENDBRANCH  29  36
DOCKED: BRANCH  22  39
DOCKED: ATOM     39  C   UNL d   1      -1.754 -17.755  -5.222 -0.13 +0.05    +0.052 C 
DOCKED: BRANCH  39  40
DOCKED: ATOM     40  C   UNL d   1      -2.466 -17.034  -6.379 -0.14 +0.13    +0.115 C 
DOCKED: BRANCH  40  41
DOCKED: ATOM     41  C   UNL d   1      -3.248 -17.949  -7.297 -0.10 +0.22    +0.139 C 
DOCKED: ATOM     42  O   UNL d   1      -3.294 -17.699  -8.494 -0.45 -1.13    -0.650 OA
DOCKED: BRANCH  41  43
DOCKED: ATOM     43  O   UNL d   1      -3.826 -19.084  -6.846 -0.24 -1.40    -0.776 OA
DOCKED: ATOM     44  H   UNL d   1      -3.449 -19.609  -6.128 +0.02 +0.21    +0.167 HD
DOCKED: ENDBRANCH  41  43
DOCKED: ENDBRANCH  40  41
DOCKED: ENDBRANCH  39  40
DOCKED: ENDBRANCH  22  39
DOCKED: BRANCH  12  45
DOCKED: ATOM     45  C   UNL d   1       3.125 -11.936   3.050 -0.27 +0.00    +0.004 C 
DOCKED: ATOM     46  C   UNL d   1       3.081 -11.168   4.135 -0.32 +0.00    +0.012 C 
DOCKED: ENDBRANCH  12  45
DOCKED: BRANCH  17  47
DOCKED: ATOM     47  C   UNL d   1       3.298 -11.718  -4.760 -0.39 +0.00    +0.004 C 
DOCKED: ATOM     48  C   UNL d   1       3.807 -12.464  -5.743 -0.44 +0.00    +0.012 C 
DOCKED: ENDBRANCH  17  47
DOCKED: TORSDOF 12
DOCKED: TER
DOCKED: ENDMDL
________________________________________________________________________________


	BEGINNING GENETIC ALGORITHM DOCKING 37 of 100
Run: 37 Seed: 949110788 57363848 [ Run 37 of 100 GA/GALS ]
Beginning LAMARCKIAN GENETIC ALGORITHM (LGA), with a maximum of 25000000 energy evaluations.

Final-Value: -13.587


	FINAL GENETIC ALGORITHM DOCKED STATE
	_______________________________________________


Detailed state:  trans -0.410 -15.285 -1.745 quatxyzw 0.337382 0.034660 -0.365289 0.866912 center 8.781 34.984 -0.736 ntor 12 -125.7521 92.9224 -13.9062 -27.5956 140.0952 130.2048 33.7976 -93.5000 145.9273 29.0293 -150.4055 -37.9208
State:	 -0.410 -15.285  -1.745   0.677  0.070 -0.733 59.797   -125.75   92.92  -13.91  -27.60  140.10  130.20   33.80  -93.50  145.93   29.03 -150.41  -37.92

DOCKED: MODEL       37
DOCKED: USER    Run = 37
DOCKED: USER    DPF = D:/Protein_go_brrr/autodock/final/AncA/heme_Co/dock.dpf
DOCKED: USER  
DOCKED: USER    Estimated Free Energy of Binding    =   -7.83 kcal/mol  [=(1)+(2)+(3)-(4)]
DOCKED: USER    Estimated Inhibition Constant, Ki   =    1.82 uM (micromolar)  [Temperature = 298.15 K]
DOCKED: USER    
DOCKED: USER    (1) Final Intermolecular Energy     =  -11.41 kcal/mol
DOCKED: USER        vdW + Hbond + desolv Energy     =   -7.02 kcal/mol
DOCKED: USER        Electrostatic Energy            =   -4.39 kcal/mol
DOCKED: USER    (2) Final Total Internal Energy     =   -2.18 kcal/mol
DOCKED: USER    (3) Torsional Free Energy           =   +3.58 kcal/mol
DOCKED: USER    (4) Unbound System's Energy  [=(2)] =   -2.18 kcal/mol
DOCKED: USER    
DOCKED: USER    
DOCKED: USER    NEWDPF move heme_Co_opt.pdbqt
DOCKED: USER    NEWDPF about 8.781000 34.984000 -0.736000
DOCKED: USER    NEWDPF tran0 -0.410353 -15.285328 -1.744806
DOCKED: USER    NEWDPF quaternion0 0.337382 0.034660 -0.365289 0.866912
DOCKED: USER    NEWDPF axisangle0 0.676846 0.069534 -0.732833 59.796533
DOCKED: USER    NEWDPF quat0 0.676846 0.069534 -0.732833 59.796533
DOCKED: USER    NEWDPF dihe0 -125.75 92.92 -13.91 -27.60 140.10 130.20 33.80 -93.50 145.93 29.03 -150.41 -37.92 
DOCKED: USER  keepresnum = 1 
DOCKED: USER  
DOCKED: REMARK  12 active torsions:
DOCKED: REMARK  status: ('A' for Active; 'I' for Inactive)
DOCKED: REMARK    1  A    between atoms: C_6  and  C_10 
DOCKED: REMARK    2  A    between atoms: C_10  and  C_11 
DOCKED: REMARK    3  A    between atoms: C_11  and  C_12 
DOCKED: REMARK    4  A    between atoms: C_12  and  O_14 
DOCKED: REMARK    5  A    between atoms: C_17  and  C_20 
DOCKED: REMARK    6  A    between atoms: C_24  and  C_27 
DOCKED: REMARK    7  A    between atoms: C_31  and  C_34 
DOCKED: REMARK    8  A    between atoms: C_34  and  C_35 
DOCKED: REMARK    9  A    between atoms: C_35  and  C_36 
DOCKED: REMARK   10  A    between atoms: C_36  and  O_38 
DOCKED: REMARK   11  A    between atoms: FE_43  and  C_44 
DOCKED: REMARK   12  A    between atoms: C_44  and  O_45 
DOCKED: USER                              x       y       z     vdW  Elec       q    Type
DOCKED: USER                           _______ _______ _______ _____ _____    ______ ____
DOCKED: ROOT
DOCKED: ATOM      1  C   UNL d   1      -1.868 -16.780  -2.343 -0.07 +0.08    +0.064 A 
DOCKED: ATOM      2  C   UNL d   1      -0.471 -15.207   1.921 -0.12 +0.05    +0.064 C 
DOCKED: ATOM      3  C   UNL d   1       2.874 -12.486  -0.136 -0.16 +0.02    +0.064 A 
DOCKED: ATOM      4  C   UNL d   1       1.212 -13.781  -4.521 -0.21 +0.03    +0.064 A 
DOCKED: ATOM      5  C   UNL d   1      -1.708 -16.577  -1.025 -0.06 +0.07    +0.066 A 
DOCKED: ATOM      6  C   UNL d   1      -2.566 -17.158  -0.070 -0.07 -0.02    -0.021 A 
DOCKED: ATOM      7  C   UNL d   1      -2.170 -16.680   1.164 -0.07 -0.03    -0.025 A 
DOCKED: ATOM      8  C   UNL d   1      -1.078 -15.842   0.911 -0.09 +0.06    +0.066 A 
DOCKED: ATOM      9  C   UNL d   1      -2.786 -16.991   2.536 -0.04 +0.06    +0.051 C 
DOCKED: ATOM     10  C   UNL d   1       0.675 -14.347   1.761 -0.12 +0.04    +0.066 A 
DOCKED: ATOM     11  C   UNL d   1       1.443 -13.763   2.792 -0.15 -0.01    -0.021 A 
DOCKED: ATOM     12  C   UNL d   1       2.414 -12.978   2.164 -0.17 +0.00    +0.000 A 
DOCKED: ATOM     13  C   UNL d   1       2.175 -13.150   0.800 -0.13 +0.02    +0.070 A 
DOCKED: ATOM     14  C   UNL d   1       1.301 -14.029   4.269 -0.16 +0.02    +0.052 C 
DOCKED: ATOM     15  C   UNL d   1       2.727 -12.503  -1.579 -0.14 +0.02    +0.066 A 
DOCKED: ATOM     16  C   UNL d   1       3.386 -11.682  -2.483 -0.24 -0.00    -0.021 A 
DOCKED: ATOM     17  C   UNL d   1       2.908 -12.050  -3.749 -0.26 +0.00    +0.000 A 
DOCKED: ATOM     18  C   UNL d   1       2.005 -13.082  -3.517 -0.17 +0.03    +0.070 A 
DOCKED: ATOM     19  C   UNL d   1       4.403 -10.621  -2.125 -0.20 +0.01    +0.052 C 
DOCKED: ATOM     20  C   UNL d   1       0.265 -14.727  -4.312 -0.17 +0.04    +0.066 A 
DOCKED: ATOM     21  C   UNL d   1      -0.456 -15.300  -5.357 -0.27 -0.02    -0.025 A 
DOCKED: ATOM     22  C   UNL d   1      -1.332 -16.190  -4.761 -0.13 -0.02    -0.021 A 
DOCKED: ATOM     23  C   UNL d   1      -1.108 -16.105  -3.371 -0.11 +0.07    +0.066 A 
DOCKED: ATOM     24  C   UNL d   1      -0.333 -15.001  -6.848 -0.36 +0.03    +0.051 C 
DOCKED: ATOM     25  N   UNL d   1      -0.766 -15.765  -0.436 -0.04 -0.20    -0.248 N 
DOCKED: ATOM     26  N   UNL d   1       1.160 -14.021   0.558 -0.05 -0.12    -0.248 N 
DOCKED: ATOM     27  N   UNL d   1       1.900 -13.304  -2.212 -0.05 -0.10    -0.248 N 
DOCKED: ATOM     28  N   UNL d   1      -0.143 -15.219  -3.094 -0.06 -0.20    -0.248 N 
DOCKED: ATOM     29 FE   UNL d   1       0.645 -14.463  -1.379 -0.02 +0.00    +0.000 Fe
DOCKED: ENDROOT
DOCKED: BRANCH   6  30
DOCKED: ATOM     30  C   UNL d   1      -3.759 -18.064  -0.352 -0.04 +0.05    +0.052 C 
DOCKED: BRANCH  30  31
DOCKED: ATOM     31  C   UNL d   1      -4.857 -17.294  -1.085 -0.07 +0.16    +0.115 C 
DOCKED: BRANCH  31  32
DOCKED: ATOM     32  C   UNL d   1      -4.962 -15.857  -0.621 +0.08 +0.28    +0.139 C 
DOCKED: ATOM     33  O   UNL d   1      -5.782 -15.560   0.235 -0.57 -1.34    -0.650 OA
DOCKED: BRANCH  32  34
DOCKED: ATOM     34  O   UNL d   1      -4.141 -14.890  -1.091 +0.24 -1.94    -0.776 OA
DOCKED: ATOM     35  H   UNL d   1      -3.650 -14.273  -0.529 +0.03 +0.32    +0.167 HD
DOCKED: ENDBRANCH  32  34
DOCKED: ENDBRANCH  31  32
DOCKED: ENDBRANCH  30  31
DOCKED: ENDBRANCH   6  30
DOCKED: BRANCH  29  36
DOCKED: ATOM     36  C   UNL d   1      -0.844 -12.988  -1.318 -0.18 +0.15    +0.190 C 
DOCKED: BRANCH  36  37
DOCKED: ATOM     37  O   UNL d   1      -2.229 -12.806  -1.262 -0.17 -0.46    -0.399 OA
DOCKED: ATOM     38  H   UNL d   1      -2.615 -13.669  -1.582 +0.06 +0.36    +0.209 HD
DOCKED: ENDBRANCH  36  37
DOCKED: ENDBRANCH  29  36
DOCKED: BRANCH  22  39
DOCKED: ATOM     39  C   UNL d   1      -2.370 -17.023  -5.489 -0.11 +0.06    +0.052 C 
DOCKED: BRANCH  39  40
DOCKED: ATOM     40  C   UNL d   1      -1.693 -18.014  -6.451 -0.14 +0.11    +0.115 C 
DOCKED: BRANCH  40  41
DOCKED: ATOM     41  C   UNL d   1      -2.573 -18.477  -7.593 -0.13 +0.20    +0.139 C 
DOCKED: ATOM     42  O   UNL d   1      -3.246 -17.656  -8.201 -0.47 -1.07    -0.650 OA
DOCKED: BRANCH  41  43
DOCKED: ATOM     43  O   UNL d   1      -2.570 -19.760  -8.016 -0.26 -1.40    -0.776 OA
DOCKED: ATOM     44  H   UNL d   1      -1.939 -20.414  -7.688 +0.02 +0.19    +0.167 HD
DOCKED: ENDBRANCH  41  43
DOCKED: ENDBRANCH  40  41
DOCKED: ENDBRANCH  39  40
DOCKED: ENDBRANCH  22  39
DOCKED: BRANCH  12  45
DOCKED: ATOM     45  C   UNL d   1       3.545 -12.106   2.692 -0.22 +0.00    +0.004 C 
DOCKED: ATOM     46  C   UNL d   1       3.610 -11.333   3.773 -0.29 +0.00    +0.012 C 
DOCKED: ENDBRANCH  12  45
DOCKED: BRANCH  17  47
DOCKED: ATOM     47  C   UNL d   1       3.213 -11.468  -5.090 -0.40 +0.00    +0.004 C 
DOCKED: ATOM     48  C   UNL d   1       3.782 -12.158  -6.081 -0.52 +0.00    +0.012 C 
DOCKED: ENDBRANCH  17  47
DOCKED: TORSDOF 12
DOCKED: TER
DOCKED: ENDMDL
________________________________________________________________________________


	BEGINNING GENETIC ALGORITHM DOCKING 38 of 100
Run: 38 Seed: 579932529 1465918462 [ Run 38 of 100 GA/GALS ]
Beginning LAMARCKIAN GENETIC ALGORITHM (LGA), with a maximum of 25000000 energy evaluations.

Final-Value: -12.364


	FINAL GENETIC ALGORITHM DOCKED STATE
	_______________________________________________


Detailed state:  trans -0.320 -15.344 -2.714 quatxyzw 0.829694 0.229143 0.459779 -0.218413 center 8.781 34.984 -0.736 ntor 12 -41.6017 93.4670 132.8332 13.4176 64.0438 121.1799 156.7005 158.6692 53.6160 142.5002 140.6941 -6.5556
State:	 -0.320 -15.344  -2.714   0.850  0.235  0.471 -154.768    -41.60   93.47  132.83   13.42   64.04  121.18  156.70  158.67   53.62  142.50  140.69   -6.56

DOCKED: MODEL       38
DOCKED: USER    Run = 38
DOCKED: USER    DPF = D:/Protein_go_brrr/autodock/final/AncA/heme_Co/dock.dpf
DOCKED: USER  
DOCKED: USER    Estimated Free Energy of Binding    =   -8.10 kcal/mol  [=(1)+(2)+(3)-(4)]
DOCKED: USER    Estimated Inhibition Constant, Ki   =    1.15 uM (micromolar)  [Temperature = 298.15 K]
DOCKED: USER    
DOCKED: USER    (1) Final Intermolecular Energy     =  -11.68 kcal/mol
DOCKED: USER        vdW + Hbond + desolv Energy     =   -7.64 kcal/mol
DOCKED: USER        Electrostatic Energy            =   -4.04 kcal/mol
DOCKED: USER    (2) Final Total Internal Energy     =   -0.68 kcal/mol
DOCKED: USER    (3) Torsional Free Energy           =   +3.58 kcal/mol
DOCKED: USER    (4) Unbound System's Energy  [=(2)] =   -0.68 kcal/mol
DOCKED: USER    
DOCKED: USER    
DOCKED: USER    NEWDPF move heme_Co_opt.pdbqt
DOCKED: USER    NEWDPF about 8.781000 34.984000 -0.736000
DOCKED: USER    NEWDPF tran0 -0.319839 -15.343787 -2.713582
DOCKED: USER    NEWDPF quaternion0 0.829694 0.229143 0.459779 -0.218413
DOCKED: USER    NEWDPF axisangle0 0.850222 0.234812 0.471154 -154.768298
DOCKED: USER    NEWDPF quat0 0.850222 0.234812 0.471154 -154.768298
DOCKED: USER    NEWDPF dihe0 -41.60 93.47 132.83 13.42 64.04 121.18 156.70 158.67 53.62 142.50 140.69 -6.56 
DOCKED: USER  keepresnum = 1 
DOCKED: USER  
DOCKED: REMARK  12 active torsions:
DOCKED: REMARK  status: ('A' for Active; 'I' for Inactive)
DOCKED: REMARK    1  A    between atoms: C_6  and  C_10 
DOCKED: REMARK    2  A    between atoms: C_10  and  C_11 
DOCKED: REMARK    3  A    between atoms: C_11  and  C_12 
DOCKED: REMARK    4  A    between atoms: C_12  and  O_14 
DOCKED: REMARK    5  A    between atoms: C_17  and  C_20 
DOCKED: REMARK    6  A    between atoms: C_24  and  C_27 
DOCKED: REMARK    7  A    between atoms: C_31  and  C_34 
DOCKED: REMARK    8  A    between atoms: C_34  and  C_35 
DOCKED: REMARK    9  A    between atoms: C_35  and  C_36 
DOCKED: REMARK   10  A    between atoms: C_36  and  O_38 
DOCKED: REMARK   11  A    between atoms: FE_43  and  C_44 
DOCKED: REMARK   12  A    between atoms: C_44  and  O_45 
DOCKED: USER                              x       y       z     vdW  Elec       q    Type
DOCKED: USER                           _______ _______ _______ _____ _____    ______ ____
DOCKED: ROOT
DOCKED: ATOM      1  C   UNL d   1      -1.878 -16.738  -3.301 -0.05 +0.09    +0.064 A 
DOCKED: ATOM      2  C   UNL d   1       1.463 -14.446  -5.790 -0.32 +0.03    +0.064 C 
DOCKED: ATOM      3  C   UNL d   1       2.810 -12.072  -1.869 -0.18 +0.02    +0.064 A 
DOCKED: ATOM      4  C   UNL d   1      -0.334 -14.679   0.774 -0.11 +0.05    +0.064 A 
DOCKED: ATOM      5  C   UNL d   1      -1.088 -16.260  -4.276 -0.13 +0.07    +0.066 A 
DOCKED: ATOM      6  C   UNL d   1      -1.131 -16.769  -5.589 -0.18 -0.02    -0.021 A 
DOCKED: ATOM      7  C   UNL d   1      -0.144 -16.116  -6.302 -0.26 -0.02    -0.025 A 
DOCKED: ATOM      8  C   UNL d   1       0.448 -15.226  -5.398 -0.23 +0.04    +0.066 A 
DOCKED: ATOM      9  C   UNL d   1       0.241 -16.313  -7.776 -0.08 +0.03    +0.051 C 
DOCKED: ATOM     10  C   UNL d   1       2.116 -13.483  -4.940 -0.25 +0.03    +0.066 A 
DOCKED: ATOM     11  C   UNL d   1       3.090 -12.538  -5.328 -0.34 -0.01    -0.021 A 
DOCKED: ATOM     12  C   UNL d   1       3.463 -11.857  -4.166 -0.29 +0.00    +0.000 A 
DOCKED: ATOM     13  C   UNL d   1       2.681 -12.425  -3.160 -0.18 +0.02    +0.070 A 
DOCKED: ATOM     14  C   UNL d   1       3.550 -12.257  -6.735 -0.42 +0.01    +0.052 C 
DOCKED: ATOM     15  C   UNL d   1       2.126 -12.591  -0.701 -0.16 +0.02    +0.066 A 
DOCKED: ATOM     16  C   UNL d   1       2.410 -12.285   0.623 -0.24 -0.01    -0.021 A 
DOCKED: ATOM     17  C   UNL d   1       1.507 -13.036   1.389 -0.20 +0.00    +0.000 A 
DOCKED: ATOM     18  C   UNL d   1       0.730 -13.731   0.468 -0.13 +0.04    +0.070 A 
DOCKED: ATOM     19  C   UNL d   1       3.485 -11.330   1.091 -0.28 +0.01    +0.052 C 
DOCKED: ATOM     20  C   UNL d   1      -1.045 -15.431  -0.101 -0.09 +0.06    +0.066 A 
DOCKED: ATOM     21  C   UNL d   1      -2.018 -16.336   0.316 -0.09 -0.03    -0.025 A 
DOCKED: ATOM     22  C   UNL d   1      -2.501 -16.923  -0.839 -0.07 -0.02    -0.021 A 
DOCKED: ATOM     23  C   UNL d   1      -1.784 -16.352  -1.911 -0.08 +0.08    +0.066 A 
DOCKED: ATOM     24  C   UNL d   1      -2.454 -16.641   1.747 +0.02 +0.06    +0.051 C 
DOCKED: ATOM     25  N   UNL d   1      -0.122 -15.290  -4.138 -0.09 -0.19    -0.248 N 
DOCKED: ATOM     26  N   UNL d   1       1.827 -13.369  -3.639 -0.09 -0.10    -0.248 N 
DOCKED: ATOM     27  N   UNL d   1       1.146 -13.464  -0.765 -0.05 -0.11    -0.248 N 
DOCKED: ATOM     28  N   UNL d   1      -0.900 -15.449  -1.469 -0.05 -0.23    -0.248 N 
DOCKED: ATOM     29 FE   UNL d   1       0.547 -14.324  -2.350 -0.03 +0.00    +0.000 Fe
DOCKED: ENDROOT
DOCKED: BRANCH   6  30
DOCKED: ATOM     30  C   UNL d   1      -2.028 -17.890  -6.101 -0.17 +0.05    +0.052 C 
DOCKED: BRANCH  30  31
DOCKED: ATOM     31  C   UNL d   1      -1.229 -18.867  -6.963 -0.09 +0.10    +0.115 C 
DOCKED: BRANCH  31  32
DOCKED: ATOM     32  C   UNL d   1      -1.877 -19.114  -8.309 -0.12 +0.17    +0.139 C 
DOCKED: ATOM     33  O   UNL d   1      -2.587 -18.249  -8.801 -0.42 -1.03    -0.650 OA
DOCKED: BRANCH  32  34
DOCKED: ATOM     34  O   UNL d   1      -1.657 -20.247  -9.014 -0.01 -0.88    -0.776 OA
DOCKED: ATOM     35  H   UNL d   1      -0.784 -20.640  -9.154 +0.03 +0.13    +0.167 HD
DOCKED: ENDBRANCH  32  34
DOCKED: ENDBRANCH  31  32
DOCKED: ENDBRANCH  30  31
DOCKED: ENDBRANCH   6  30
DOCKED: BRANCH  29  36
DOCKED: ATOM     36  C   UNL d   1       1.922 -15.894  -2.150 -0.01 +0.09    +0.190 C 
DOCKED: BRANCH  36  37
DOCKED: ATOM     37  O   UNL d   1       2.094 -17.261  -2.390 +0.00 -0.18    -0.399 OA
DOCKED: ATOM     38  H   UNL d   1       1.169 -17.624  -2.485 +0.01 +0.11    +0.209 HD
DOCKED: ENDBRANCH  36  37
DOCKED: ENDBRANCH  29  36
DOCKED: BRANCH  22  39
DOCKED: ATOM     39  C   UNL d   1      -3.548 -18.020  -0.897 -0.05 +0.05    +0.052 C 
DOCKED: BRANCH  39  40
DOCKED: ATOM     40  C   UNL d   1      -4.948 -17.423  -1.115 -0.07 +0.16    +0.115 C 
DOCKED: BRANCH  40  41
DOCKED: ATOM     41  C   UNL d   1      -5.238 -16.191  -0.284 -0.09 +0.25    +0.139 C 
DOCKED: ATOM     42  O   UNL d   1      -5.258 -16.283   0.936 -0.26 -1.42    -0.650 OA
DOCKED: BRANCH  41  43
DOCKED: ATOM     43  O   UNL d   1      -5.391 -14.973  -0.848 -0.27 -1.86    -0.776 OA
DOCKED: ATOM     44  H   UNL d   1      -6.068 -14.347  -0.559 +0.03 +0.32    +0.167 HD
DOCKED: ENDBRANCH  41  43
DOCKED: ENDBRANCH  40  41
DOCKED: ENDBRANCH  39  40
DOCKED: ENDBRANCH  22  39
DOCKED: BRANCH  12  45
DOCKED: ATOM     45  C   UNL d   1       4.448 -10.727  -3.895 -0.45 +0.00    +0.004 C 
DOCKED: ATOM     46  C   UNL d   1       5.185 -10.002  -4.731 -0.49 +0.00    +0.012 C 
DOCKED: ENDBRANCH  12  45
DOCKED: BRANCH  17  47
DOCKED: ATOM     47  C   UNL d   1       1.387 -13.159   2.872 -0.24 +0.00    +0.004 C 
DOCKED: ATOM     48  C   UNL d   1       1.480 -12.122   3.708 -0.36 +0.00    +0.012 C 
DOCKED: ENDBRANCH  17  47
DOCKED: TORSDOF 12
DOCKED: TER
DOCKED: ENDMDL
________________________________________________________________________________


	BEGINNING GENETIC ALGORITHM DOCKING 39 of 100
Run: 39 Seed: 188840891 1441745671 [ Run 39 of 100 GA/GALS ]
Beginning LAMARCKIAN GENETIC ALGORITHM (LGA), with a maximum of 25000000 energy evaluations.

Final-Value: -12.161


	FINAL GENETIC ALGORITHM DOCKED STATE
	_______________________________________________


Detailed state:  trans -12.021 -14.506 -1.347 quatxyzw 0.663416 0.614572 -0.420895 -0.070909 center 8.781 34.984 -0.736 ntor 12 157.8897 148.4254 -37.6568 121.6235 141.9993 123.3966 -131.5488 -101.0409 -131.8381 -70.5908 -175.0555 158.4531
State:	-12.021 -14.506  -1.347   0.665  0.616 -0.422 -171.868    157.89  148.43  -37.66  121.62  142.00  123.40 -131.55 -101.04 -131.84  -70.59 -175.06  158.45

DOCKED: MODEL       39
DOCKED: USER    Run = 39
DOCKED: USER    DPF = D:/Protein_go_brrr/autodock/final/AncA/heme_Co/dock.dpf
DOCKED: USER  
DOCKED: USER    Estimated Free Energy of Binding    =   -6.40 kcal/mol  [=(1)+(2)+(3)-(4)]
DOCKED: USER    Estimated Inhibition Constant, Ki   =   20.32 uM (micromolar)  [Temperature = 298.15 K]
DOCKED: USER    
DOCKED: USER    (1) Final Intermolecular Energy     =   -9.98 kcal/mol
DOCKED: USER        vdW + Hbond + desolv Energy     =   -6.93 kcal/mol
DOCKED: USER        Electrostatic Energy            =   -3.05 kcal/mol
DOCKED: USER    (2) Final Total Internal Energy     =   -2.18 kcal/mol
DOCKED: USER    (3) Torsional Free Energy           =   +3.58 kcal/mol
DOCKED: USER    (4) Unbound System's Energy  [=(2)] =   -2.18 kcal/mol
DOCKED: USER    
DOCKED: USER    
DOCKED: USER    NEWDPF move heme_Co_opt.pdbqt
DOCKED: USER    NEWDPF about 8.781000 34.984000 -0.736000
DOCKED: USER    NEWDPF tran0 -12.020839 -14.505641 -1.347146
DOCKED: USER    NEWDPF quaternion0 0.663416 0.614572 -0.420895 -0.070909
DOCKED: USER    NEWDPF axisangle0 0.665090 0.616123 -0.421957 -171.867645
DOCKED: USER    NEWDPF quat0 0.665090 0.616123 -0.421957 -171.867645
DOCKED: USER    NEWDPF dihe0 157.89 148.43 -37.66 121.62 142.00 123.40 -131.55 -101.04 -131.84 -70.59 -175.06 158.45 
DOCKED: USER  keepresnum = 1 
DOCKED: USER  
DOCKED: REMARK  12 active torsions:
DOCKED: REMARK  status: ('A' for Active; 'I' for Inactive)
DOCKED: REMARK    1  A    between atoms: C_6  and  C_10 
DOCKED: REMARK    2  A    between atoms: C_10  and  C_11 
DOCKED: REMARK    3  A    between atoms: C_11  and  C_12 
DOCKED: REMARK    4  A    between atoms: C_12  and  O_14 
DOCKED: REMARK    5  A    between atoms: C_17  and  C_20 
DOCKED: REMARK    6  A    between atoms: C_24  and  C_27 
DOCKED: REMARK    7  A    between atoms: C_31  and  C_34 
DOCKED: REMARK    8  A    between atoms: C_34  and  C_35 
DOCKED: REMARK    9  A    between atoms: C_35  and  C_36 
DOCKED: REMARK   10  A    between atoms: C_36  and  O_38 
DOCKED: REMARK   11  A    between atoms: FE_43  and  C_44 
DOCKED: REMARK   12  A    between atoms: C_44  and  O_45 
DOCKED: USER                              x       y       z     vdW  Elec       q    Type
DOCKED: USER                           _______ _______ _______ _____ _____    ______ ____
DOCKED: ROOT
DOCKED: ATOM      1  C   UNL d   1     -10.971 -15.565   0.231 -0.10 +0.03    +0.064 A 
DOCKED: ATOM      2  C   UNL d   1     -15.198 -16.274  -1.830 -0.11 +0.01    +0.064 C 
DOCKED: ATOM      3  C   UNL d   1     -14.674 -12.260  -4.369 -0.21 +0.00    +0.064 A 
DOCKED: ATOM      4  C   UNL d   1     -10.189 -11.719  -2.565 -0.27 +0.02    +0.064 A 
DOCKED: ATOM      5  C   UNL d   1     -12.180 -16.034  -0.119 -0.09 +0.02    +0.066 A 
DOCKED: ATOM      6  C   UNL d   1     -12.676 -17.259   0.369 -0.06 -0.01    -0.021 A 
DOCKED: ATOM      7  C   UNL d   1     -13.893 -17.471  -0.250 -0.06 -0.01    -0.025 A 
DOCKED: ATOM      8  C   UNL d   1     -14.095 -16.359  -1.075 -0.11 +0.01    +0.066 A 
DOCKED: ATOM      9  C   UNL d   1     -14.840 -18.669  -0.082 -0.02 +0.01    +0.051 C 
DOCKED: ATOM     10  C   UNL d   1     -15.503 -15.157  -2.689 -0.12 +0.01    +0.066 A 
DOCKED: ATOM     11  C   UNL d   1     -16.706 -14.941  -3.397 -0.07 -0.00    -0.021 A 
DOCKED: ATOM     12  C   UNL d   1     -16.527 -13.762  -4.125 -0.10 +0.00    +0.000 A 
DOCKED: ATOM     13  C   UNL d   1     -15.238 -13.340  -3.799 -0.15 +0.01    +0.070 A 
DOCKED: ATOM     14  C   UNL d   1     -17.962 -15.768  -3.294 -0.04 +0.01    +0.052 C 
DOCKED: ATOM     15  C   UNL d   1     -13.343 -11.715  -4.189 -0.25 +0.00    +0.066 A 
DOCKED: ATOM     16  C   UNL d   1     -12.772 -10.680  -4.917 -0.37 -0.00    -0.021 A 
DOCKED: ATOM     17  C   UNL d   1     -11.478 -10.522  -4.402 -0.42 +0.00    +0.000 A 
DOCKED: ATOM     18  C   UNL d   1     -11.367 -11.465  -3.385 -0.29 +0.01    +0.070 A 
DOCKED: ATOM     19  C   UNL d   1     -13.450  -9.913  -6.030 -0.45 -0.00    +0.052 C 
DOCKED: ATOM     20  C   UNL d   1     -10.028 -12.687  -1.631 -0.20 +0.03    +0.066 A 
DOCKED: ATOM     21  C   UNL d   1      -8.835 -12.855  -0.932 -0.22 -0.02    -0.025 A 
DOCKED: ATOM     22  C   UNL d   1      -9.041 -13.938  -0.097 -0.15 -0.02    -0.021 A 
DOCKED: ATOM     23  C   UNL d   1     -10.356 -14.389  -0.339 -0.12 +0.03    +0.066 A 
DOCKED: ATOM     24  C   UNL d   1      -7.554 -12.036  -1.066 -0.20 +0.04    +0.051 C 
DOCKED: ATOM     25  N   UNL d   1     -13.052 -15.450  -1.009 -0.09 -0.05    -0.248 N 
DOCKED: ATOM     26  N   UNL d   1     -14.642 -14.154  -2.888 -0.13 -0.03    -0.248 N 
DOCKED: ATOM     27  N   UNL d   1     -12.485 -12.177  -3.307 -0.15 -0.02    -0.248 N 
DOCKED: ATOM     28  N   UNL d   1     -10.956 -13.635  -1.268 -0.04 -0.09    -0.248 N 
DOCKED: ATOM     29 FE   UNL d   1     -12.749 -13.716  -2.224 -0.06 +0.00    +0.000 Fe
DOCKED: ENDROOT
DOCKED: BRANCH   6  30
DOCKED: ATOM     30  C   UNL d   1     -11.966 -18.214   1.323 -0.02 +0.01    +0.052 C 
DOCKED: BRANCH  30  31
DOCKED: ATOM     31  C   UNL d   1     -11.145 -19.241   0.543 +0.00 +0.03    +0.115 C 
DOCKED: BRANCH  31  32
DOCKED: ATOM     32  C   UNL d   1     -10.323 -18.607  -0.559 +0.00 +0.05    +0.139 C 
DOCKED: ATOM     33  O   UNL d   1      -9.139 -18.374  -0.367 +0.02 -0.32    -0.650 OA
DOCKED: BRANCH  32  34
DOCKED: ATOM     34  O   UNL d   1     -10.846 -18.331  -1.776 +0.02 -0.28    -0.776 OA
DOCKED: ATOM     35  H   UNL d   1     -10.519 -17.636  -2.363 +0.02 +0.07    +0.167 HD
DOCKED: ENDBRANCH  32  34
DOCKED: ENDBRANCH  31  32
DOCKED: ENDBRANCH  30  31
DOCKED: ENDBRANCH   6  30
DOCKED: BRANCH  29  36
DOCKED: ATOM     36  C   UNL d   1     -11.947 -15.007  -3.669 -0.09 +0.05    +0.190 C 
DOCKED: BRANCH  36  37
DOCKED: ATOM     37  O   UNL d   1     -11.237 -16.202  -3.824 -0.02 -0.14    -0.399 OA
DOCKED: ATOM     38  H   UNL d   1     -11.558 -16.789  -3.083 +0.03 +0.07    +0.209 HD
DOCKED: ENDBRANCH  36  37
DOCKED: ENDBRANCH  29  36
DOCKED: BRANCH  22  39
DOCKED: ATOM     39  C   UNL d   1      -8.004 -14.543   0.831 -0.14 +0.06    +0.052 C 
DOCKED: BRANCH  39  40
DOCKED: ATOM     40  C   UNL d   1      -7.384 -15.803   0.205 -0.07 +0.14    +0.115 C 
DOCKED: BRANCH  40  41
DOCKED: ATOM     41  C   UNL d   1      -5.992 -15.602  -0.355 -0.09 +0.26    +0.139 C 
DOCKED: ATOM     42  O   UNL d   1      -5.211 -14.865   0.232 -0.55 -1.62    -0.650 OA
DOCKED: BRANCH  41  43
DOCKED: ATOM     43  O   UNL d   1      -5.556 -16.283  -1.438 -0.15 -1.69    -0.776 OA
DOCKED: ATOM     44  H   UNL d   1      -5.858 -17.177  -1.645 +0.01 +0.25    +0.167 HD
DOCKED: ENDBRANCH  41  43
DOCKED: ENDBRANCH  40  41
DOCKED: ENDBRANCH  39  40
DOCKED: ENDBRANCH  22  39
DOCKED: BRANCH  12  45
DOCKED: ATOM     45  C   UNL d   1     -17.428 -12.980  -5.072 -0.08 +0.00    +0.004 C 
DOCKED: ATOM     46  C   UNL d   1     -17.978 -11.775  -4.946 -0.15 +0.00    +0.012 C 
DOCKED: ENDBRANCH  12  45
DOCKED: BRANCH  17  47
DOCKED: ATOM     47  C   UNL d   1     -10.383  -9.604  -4.838 -0.48 +0.00    +0.004 C 
DOCKED: ATOM     48  C   UNL d   1      -9.830  -8.686  -4.041 -0.56 +0.00    +0.012 C 
DOCKED: ENDBRANCH  17  47
DOCKED: TORSDOF 12
DOCKED: TER
DOCKED: ENDMDL
________________________________________________________________________________


	BEGINNING GENETIC ALGORITHM DOCKING 40 of 100
Run: 40 Seed: 1009118654 1179799710 [ Run 40 of 100 GA/GALS ]
Beginning LAMARCKIAN GENETIC ALGORITHM (LGA), with a maximum of 25000000 energy evaluations.

Final-Value: -10.688


	FINAL GENETIC ALGORITHM DOCKED STATE
	_______________________________________________


Detailed state:  trans -10.885 -15.365 -3.036 quatxyzw 0.304982 0.854007 -0.340532 -0.248386 center 8.781 34.984 -0.736 ntor 12 16.9002 143.5058 58.3961 -96.3660 141.8366 -58.4008 178.7843 -19.1571 11.3285 -35.4014 -137.6492 22.0583
State:	-10.885 -15.365  -3.036   0.315  0.882 -0.352 -151.236     16.90  143.51   58.40  -96.37  141.84  -58.40  178.78  -19.16   11.33  -35.40 -137.65   22.06

DOCKED: MODEL       40
DOCKED: USER    Run = 40
DOCKED: USER    DPF = D:/Protein_go_brrr/autodock/final/AncA/heme_Co/dock.dpf
DOCKED: USER  
DOCKED: USER    Estimated Free Energy of Binding    =   -5.54 kcal/mol  [=(1)+(2)+(3)-(4)]
DOCKED: USER    Estimated Inhibition Constant, Ki   =   87.57 uM (micromolar)  [Temperature = 298.15 K]
DOCKED: USER    
DOCKED: USER    (1) Final Intermolecular Energy     =   -9.12 kcal/mol
DOCKED: USER        vdW + Hbond + desolv Energy     =   -5.50 kcal/mol
DOCKED: USER        Electrostatic Energy            =   -3.62 kcal/mol
DOCKED: USER    (2) Final Total Internal Energy     =   -1.57 kcal/mol
DOCKED: USER    (3) Torsional Free Energy           =   +3.58 kcal/mol
DOCKED: USER    (4) Unbound System's Energy  [=(2)] =   -1.57 kcal/mol
DOCKED: USER    
DOCKED: USER    
DOCKED: USER    NEWDPF move heme_Co_opt.pdbqt
DOCKED: USER    NEWDPF about 8.781000 34.984000 -0.736000
DOCKED: USER    NEWDPF tran0 -10.885090 -15.364526 -3.035642
DOCKED: USER    NEWDPF quaternion0 0.304982 0.854007 -0.340532 -0.248386
DOCKED: USER    NEWDPF axisangle0 0.314849 0.881637 -0.351549 -151.235959
DOCKED: USER    NEWDPF quat0 0.314849 0.881637 -0.351549 -151.235959
DOCKED: USER    NEWDPF dihe0 16.90 143.51 58.40 -96.37 141.84 -58.40 178.78 -19.16 11.33 -35.40 -137.65 22.06 
DOCKED: USER  keepresnum = 1 
DOCKED: USER  
DOCKED: REMARK  12 active torsions:
DOCKED: REMARK  status: ('A' for Active; 'I' for Inactive)
DOCKED: REMARK    1  A    between atoms: C_6  and  C_10 
DOCKED: REMARK    2  A    between atoms: C_10  and  C_11 
DOCKED: REMARK    3  A    between atoms: C_11  and  C_12 
DOCKED: REMARK    4  A    between atoms: C_12  and  O_14 
DOCKED: REMARK    5  A    between atoms: C_17  and  C_20 
DOCKED: REMARK    6  A    between atoms: C_24  and  C_27 
DOCKED: REMARK    7  A    between atoms: C_31  and  C_34 
DOCKED: REMARK    8  A    between atoms: C_34  and  C_35 
DOCKED: REMARK    9  A    between atoms: C_35  and  C_36 
DOCKED: REMARK   10  A    between atoms: C_36  and  O_38 
DOCKED: REMARK   11  A    between atoms: FE_43  and  C_44 
DOCKED: REMARK   12  A    between atoms: C_44  and  O_45 
DOCKED: USER                              x       y       z     vdW  Elec       q    Type
DOCKED: USER                           _______ _______ _______ _____ _____    ______ ____
DOCKED: ROOT
DOCKED: ATOM      1  C   UNL d   1      -9.389 -15.132  -1.479 -0.08 +0.04    +0.064 A 
DOCKED: ATOM      2  C   UNL d   1     -11.285 -18.975  -3.539 -0.01 +0.02    +0.064 C 
DOCKED: ATOM      3  C   UNL d   1     -14.299 -16.211  -6.009 -0.03 +0.01    +0.064 A 
DOCKED: ATOM      4  C   UNL d   1     -12.121 -12.251  -4.210 -0.24 +0.01    +0.064 A 
DOCKED: ATOM      5  C   UNL d   1      -9.710 -16.387  -1.833 -0.03 +0.04    +0.066 A 
DOCKED: ATOM      6  C   UNL d   1      -8.989 -17.503  -1.366 -0.01 -0.01    -0.021 A 
DOCKED: ATOM      7  C   UNL d   1      -9.528 -18.613  -1.984 +0.00 -0.01    -0.025 A 
DOCKED: ATOM      8  C   UNL d   1     -10.566 -18.130  -2.789 -0.01 +0.03    +0.066 A 
DOCKED: ATOM      9  C   UNL d   1      -9.095 -20.080  -1.834 +0.00 +0.02    +0.051 C 
DOCKED: ATOM     10  C   UNL d   1     -12.387 -18.573  -4.377 -0.01 +0.02    +0.066 A 
DOCKED: ATOM     11  C   UNL d   1     -13.269 -19.425  -5.077 -0.01 -0.01    -0.021 A 
DOCKED: ATOM     12  C   UNL d   1     -14.140 -18.593  -5.786 -0.01 +0.00    +0.000 A 
DOCKED: ATOM     13  C   UNL d   1     -13.734 -17.299  -5.456 -0.02 +0.02    +0.070 A 
DOCKED: ATOM     14  C   UNL d   1     -13.318 -20.928  -4.985 -0.00 +0.01    +0.052 C 
DOCKED: ATOM     15  C   UNL d   1     -13.973 -14.811  -5.824 -0.07 +0.01    +0.066 A 
DOCKED: ATOM     16  C   UNL d   1     -14.499 -13.742  -6.535 -0.11 -0.00    -0.021 A 
DOCKED: ATOM     17  C   UNL d   1     -13.872 -12.598  -6.022 -0.21 +0.00    +0.000 A 
DOCKED: ATOM     18  C   UNL d   1     -13.022 -13.059  -5.022 -0.19 +0.01    +0.070 A 
DOCKED: ATOM     19  C   UNL d   1     -15.535 -13.844  -7.633 -0.07 +0.01    +0.052 C 
DOCKED: ATOM     20  C   UNL d   1     -11.223 -12.685  -3.294 -0.18 +0.02    +0.066 A 
DOCKED: ATOM     21  C   UNL d   1     -10.386 -11.813  -2.602 -0.29 -0.01    -0.025 A 
DOCKED: ATOM     22  C   UNL d   1      -9.607 -12.613  -1.786 -0.24 -0.01    -0.021 A 
DOCKED: ATOM     23  C   UNL d   1     -10.003 -13.945  -2.031 -0.14 +0.03    +0.066 A 
DOCKED: ATOM     24  C   UNL d   1     -10.316 -10.294  -2.726 -0.47 +0.01    +0.051 C 
DOCKED: ATOM     25  N   UNL d   1     -10.704 -16.755  -2.711 -0.02 -0.10    -0.248 N 
DOCKED: ATOM     26  N   UNL d   1     -12.711 -17.289  -4.561 -0.01 -0.06    -0.248 N 
DOCKED: ATOM     27  N   UNL d   1     -13.085 -14.384  -4.953 -0.06 -0.05    -0.248 N 
DOCKED: ATOM     28  N   UNL d   1     -10.979 -13.994  -2.945 -0.09 -0.09    -0.248 N 
DOCKED: ATOM     29 FE   UNL d   1     -11.964 -15.496  -3.897 -0.02 +0.00    +0.000 Fe
DOCKED: ENDROOT
DOCKED: BRANCH   6  30
DOCKED: ATOM     30  C   UNL d   1      -7.784 -17.481  -0.431 -0.02 +0.04    +0.052 C 
DOCKED: BRANCH  30  31
DOCKED: ATOM     31  C   UNL d   1      -6.702 -16.546  -0.971 -0.07 +0.15    +0.115 C 
DOCKED: BRANCH  31  32
DOCKED: ATOM     32  C   UNL d   1      -5.402 -16.663  -0.204 -0.09 +0.22    +0.139 C 
DOCKED: ATOM     33  O   UNL d   1      -4.926 -17.769   0.006 +0.01 -0.71    -0.650 OA
DOCKED: BRANCH  32  34
DOCKED: ATOM     34  O   UNL d   1      -4.718 -15.575   0.220 -0.49 -1.74    -0.776 OA
DOCKED: ATOM     35  H   UNL d   1      -5.077 -14.677   0.228 +0.02 +0.41    +0.167 HD
DOCKED: ENDBRANCH  32  34
DOCKED: ENDBRANCH  31  32
DOCKED: ENDBRANCH  30  31
DOCKED: ENDBRANCH   6  30
DOCKED: BRANCH  29  36
DOCKED: ATOM     36  C   UNL d   1     -10.471 -15.576  -5.366 +0.10 +0.08    +0.190 C 
DOCKED: BRANCH  36  37
DOCKED: ATOM     37  O   UNL d   1     -10.268 -15.577  -6.750 -0.19 -0.16    -0.399 OA
DOCKED: ATOM     38  H   UNL d   1     -11.023 -15.040  -7.120 -0.03 +0.04    +0.209 HD
DOCKED: ENDBRANCH  36  37
DOCKED: ENDBRANCH  29  36
DOCKED: BRANCH  22  39
DOCKED: ATOM     39  C   UNL d   1      -8.499 -12.123  -0.871 -0.28 +0.03    +0.052 C 
DOCKED: BRANCH  39  40
DOCKED: ATOM     40  C   UNL d   1      -8.759 -12.563   0.579 -0.26 +0.09    +0.115 C 
DOCKED: BRANCH  40  41
DOCKED: ATOM     41  C   UNL d   1      -7.525 -13.034   1.319 -0.22 +0.18    +0.139 C 
DOCKED: ATOM     42  O   UNL d   1      -7.166 -12.437   2.325 -0.58 -1.02    -0.650 OA
DOCKED: BRANCH  41  43
DOCKED: ATOM     43  O   UNL d   1      -6.857 -14.149   0.950 -0.08 -1.50    -0.776 OA
DOCKED: ATOM     44  H   UNL d   1      -6.404 -14.225   0.100 +0.04 +0.31    +0.167 HD
DOCKED: ENDBRANCH  41  43
DOCKED: ENDBRANCH  40  41
DOCKED: ENDBRANCH  39  40
DOCKED: ENDBRANCH  22  39
DOCKED: BRANCH  12  45
DOCKED: ATOM     45  C   UNL d   1     -15.313 -18.869  -6.716 -0.00 +0.00    +0.004 C 
DOCKED: ATOM     46  C   UNL d   1     -15.408 -18.785  -8.040 -0.01 +0.00    +0.012 C 
DOCKED: ENDBRANCH  12  45
DOCKED: BRANCH  17  47
DOCKED: ATOM     47  C   UNL d   1     -13.996 -11.171  -6.445 -0.34 -0.00    +0.004 C 
DOCKED: ATOM     48  C   UNL d   1     -14.415 -10.195  -5.636 -0.39 +0.00    +0.012 C 
DOCKED: ENDBRANCH  17  47
DOCKED: TORSDOF 12
DOCKED: TER
DOCKED: ENDMDL
________________________________________________________________________________


	BEGINNING GENETIC ALGORITHM DOCKING 41 of 100
Run: 41 Seed: 2055733979 1019207032 [ Run 41 of 100 GA/GALS ]
Beginning LAMARCKIAN GENETIC ALGORITHM (LGA), with a maximum of 25000000 energy evaluations.

Final-Value: -12.773


	FINAL GENETIC ALGORITHM DOCKED STATE
	_______________________________________________


Detailed state:  trans 0.283 -14.949 -2.481 quatxyzw -0.874891 -0.207825 -0.376899 0.222086 center 8.781 34.984 -0.736 ntor 12 -25.4352 94.4780 144.2942 126.9341 122.9414 93.7773 -151.2291 -173.9014 39.5556 91.4997 150.7579 35.2710
State:	  0.283 -14.949  -2.481  -0.897 -0.213 -0.387 154.337    -25.44   94.48  144.29  126.93  122.94   93.78 -151.23 -173.90   39.56   91.50  150.76   35.27

DOCKED: MODEL       41
DOCKED: USER    Run = 41
DOCKED: USER    DPF = D:/Protein_go_brrr/autodock/final/AncA/heme_Co/dock.dpf
DOCKED: USER  
DOCKED: USER    Estimated Free Energy of Binding    =   -8.45 kcal/mol  [=(1)+(2)+(3)-(4)]
DOCKED: USER    Estimated Inhibition Constant, Ki   =  638.67 nM (nanomolar)  [Temperature = 298.15 K]
DOCKED: USER    
DOCKED: USER    (1) Final Intermolecular Energy     =  -12.03 kcal/mol
DOCKED: USER        vdW + Hbond + desolv Energy     =   -7.68 kcal/mol
DOCKED: USER        Electrostatic Energy            =   -4.35 kcal/mol
DOCKED: USER    (2) Final Total Internal Energy     =   -0.74 kcal/mol
DOCKED: USER    (3) Torsional Free Energy           =   +3.58 kcal/mol
DOCKED: USER    (4) Unbound System's Energy  [=(2)] =   -0.74 kcal/mol
DOCKED: USER    
DOCKED: USER    
DOCKED: USER    NEWDPF move heme_Co_opt.pdbqt
DOCKED: USER    NEWDPF about 8.781000 34.984000 -0.736000
DOCKED: USER    NEWDPF tran0 0.282981 -14.949022 -2.481140
DOCKED: USER    NEWDPF quaternion0 -0.874891 -0.207825 -0.376899 0.222086
DOCKED: USER    NEWDPF axisangle0 -0.897299 -0.213148 -0.386552 154.336798
DOCKED: USER    NEWDPF quat0 -0.897299 -0.213148 -0.386552 154.336798
DOCKED: USER    NEWDPF dihe0 -25.44 94.48 144.29 126.93 122.94 93.78 -151.23 -173.90 39.56 91.50 150.76 35.27 
DOCKED: USER  keepresnum = 1 
DOCKED: USER  
DOCKED: REMARK  12 active torsions:
DOCKED: REMARK  status: ('A' for Active; 'I' for Inactive)
DOCKED: REMARK    1  A    between atoms: C_6  and  C_10 
DOCKED: REMARK    2  A    between atoms: C_10  and  C_11 
DOCKED: REMARK    3  A    between atoms: C_11  and  C_12 
DOCKED: REMARK    4  A    between atoms: C_12  and  O_14 
DOCKED: REMARK    5  A    between atoms: C_17  and  C_20 
DOCKED: REMARK    6  A    between atoms: C_24  and  C_27 
DOCKED: REMARK    7  A    between atoms: C_31  and  C_34 
DOCKED: REMARK    8  A    between atoms: C_34  and  C_35 
DOCKED: REMARK    9  A    between atoms: C_35  and  C_36 
DOCKED: REMARK   10  A    between atoms: C_36  and  O_38 
DOCKED: REMARK   11  A    between atoms: FE_43  and  C_44 
DOCKED: REMARK   12  A    between atoms: C_44  and  O_45 
DOCKED: USER                              x       y       z     vdW  Elec       q    Type
DOCKED: USER                           _______ _______ _______ _____ _____    ______ ____
DOCKED: ROOT
DOCKED: ATOM      1  C   UNL d   1      -1.476 -16.186  -2.782 -0.06 +0.08    +0.064 A 
DOCKED: ATOM      2  C   UNL d   1       1.602 -14.216  -5.824 -0.34 +0.03    +0.064 C 
DOCKED: ATOM      3  C   UNL d   1       3.806 -11.995  -2.213 -0.19 +0.01    +0.064 A 
DOCKED: ATOM      4  C   UNL d   1       0.917 -14.298   0.951 -0.10 +0.03    +0.064 A 
DOCKED: ATOM      5  C   UNL d   1      -0.820 -15.782  -3.882 -0.13 +0.07    +0.066 A 
DOCKED: ATOM      6  C   UNL d   1      -1.129 -16.281  -5.162 -0.19 -0.02    -0.021 A 
DOCKED: ATOM      7  C   UNL d   1      -0.218 -15.723  -6.038 -0.28 -0.02    -0.025 A 
DOCKED: ATOM      8  C   UNL d   1       0.597 -14.897  -5.258 -0.24 +0.04    +0.066 A 
DOCKED: ATOM      9  C   UNL d   1      -0.107 -15.950  -7.553 -0.13 +0.03    +0.051 C 
DOCKED: ATOM     10  C   UNL d   1       2.476 -13.322  -5.106 -0.26 +0.03    +0.066 A 
DOCKED: ATOM     11  C   UNL d   1       3.458 -12.473  -5.664 -0.37 -0.01    -0.021 A 
DOCKED: ATOM     12  C   UNL d   1       4.082 -11.835  -4.589 -0.32 +0.00    +0.000 A 
DOCKED: ATOM     13  C   UNL d   1       3.430 -12.329  -3.460 -0.18 +0.02    +0.070 A 
DOCKED: ATOM     14  C   UNL d   1       3.699 -12.233  -7.132 -0.40 +0.01    +0.052 C 
DOCKED: ATOM     15  C   UNL d   1       3.281 -12.449  -0.940 -0.15 +0.02    +0.066 A 
DOCKED: ATOM     16  C   UNL d   1       3.810 -12.176   0.313 -0.19 -0.00    -0.021 A 
DOCKED: ATOM     17  C   UNL d   1       2.982 -12.840   1.229 -0.15 +0.00    +0.000 A 
DOCKED: ATOM     18  C   UNL d   1       1.999 -13.454   0.460 -0.10 +0.03    +0.070 A 
DOCKED: ATOM     19  C   UNL d   1       5.035 -11.330   0.583 -0.24 +0.01    +0.052 C 
DOCKED: ATOM     20  C   UNL d   1       0.001 -14.975   0.217 -0.08 +0.04    +0.066 A 
DOCKED: ATOM     21  C   UNL d   1      -0.970 -15.784   0.802 -0.09 -0.02    -0.025 A 
DOCKED: ATOM     22  C   UNL d   1      -1.693 -16.319  -0.248 -0.08 -0.02    -0.021 A 
DOCKED: ATOM     23  C   UNL d   1      -1.115 -15.815  -1.433 -0.08 +0.06    +0.066 A 
DOCKED: ATOM     24  C   UNL d   1      -1.187 -16.051   2.289 -0.06 +0.04    +0.051 C 
DOCKED: ATOM     25  N   UNL d   1       0.244 -14.909  -3.919 -0.08 -0.17    -0.248 N 
DOCKED: ATOM     26  N   UNL d   1       2.422 -13.186  -3.777 -0.09 -0.09    -0.248 N 
DOCKED: ATOM     27  N   UNL d   1       2.226 -13.225  -0.829 -0.05 -0.09    -0.248 N 
DOCKED: ATOM     28  N   UNL d   1      -0.087 -15.003  -1.156 -0.03 -0.18    -0.248 N 
DOCKED: ATOM     29 FE   UNL d   1       1.291 -14.018  -2.280 -0.03 +0.00    +0.000 Fe
DOCKED: ENDROOT
DOCKED: BRANCH   6  30
DOCKED: ATOM     30  C   UNL d   1      -2.203 -17.309  -5.503 -0.15 +0.06    +0.052 C 
DOCKED: BRANCH  30  31
DOCKED: ATOM     31  C   UNL d   1      -1.596 -18.485  -6.267 -0.10 +0.10    +0.115 C 
DOCKED: BRANCH  31  32
DOCKED: ATOM     32  C   UNL d   1      -2.515 -19.005  -7.351 -0.07 +0.20    +0.139 C 
DOCKED: ATOM     33  O   UNL d   1      -2.587 -18.409  -8.416 -0.54 -1.06    -0.650 OA
DOCKED: BRANCH  32  34
DOCKED: ATOM     34  O   UNL d   1      -3.231 -20.144  -7.200 -0.08 -1.38    -0.776 OA
DOCKED: ATOM     35  H   UNL d   1      -2.952 -20.894  -6.657 +0.01 +0.19    +0.167 HD
DOCKED: ENDBRANCH  32  34
DOCKED: ENDBRANCH  31  32
DOCKED: ENDBRANCH  30  31
DOCKED: ENDBRANCH   6  30
DOCKED: BRANCH  29  36
DOCKED: ATOM     36  C   UNL d   1       2.525 -15.713  -2.294 -0.01 +0.08    +0.190 C 
DOCKED: BRANCH  36  37
DOCKED: ATOM     37  O   UNL d   1       2.510 -17.103  -2.141 +0.00 -0.16    -0.399 OA
DOCKED: ATOM     38  H   UNL d   1       1.654 -17.300  -1.667 +0.01 +0.09    +0.209 HD
DOCKED: ENDBRANCH  36  37
DOCKED: ENDBRANCH  29  36
DOCKED: BRANCH  22  39
DOCKED: ATOM     39  C   UNL d   1      -2.834 -17.310  -0.117 -0.07 +0.05    +0.052 C 
DOCKED: BRANCH  39  40
DOCKED: ATOM     40  C   UNL d   1      -3.994 -16.930  -1.052 -0.07 +0.18    +0.115 C 
DOCKED: BRANCH  40  41
DOCKED: ATOM     41  C   UNL d   1      -5.069 -16.085  -0.402 -0.10 +0.26    +0.139 C 
DOCKED: ATOM     42  O   UNL d   1      -5.361 -16.284   0.769 -0.30 -1.35    -0.650 OA
DOCKED: BRANCH  41  43
DOCKED: ATOM     43  O   UNL d   1      -5.656 -15.057  -1.054 -0.27 -1.85    -0.776 OA
DOCKED: ATOM     44  H   UNL d   1      -6.563 -14.778  -0.874 +0.03 +0.30    +0.167 HD
DOCKED: ENDBRANCH  41  43
DOCKED: ENDBRANCH  40  41
DOCKED: ENDBRANCH  39  40
DOCKED: ENDBRANCH  22  39
DOCKED: BRANCH  12  45
DOCKED: ATOM     45  C   UNL d   1       5.201 -10.805  -4.501 -0.46 +0.00    +0.004 C 
DOCKED: ATOM     46  C   UNL d   1       5.203  -9.568  -4.012 -0.37 +0.00    +0.012 C 
DOCKED: ENDBRANCH  12  45
DOCKED: BRANCH  17  47
DOCKED: ATOM     47  C   UNL d   1       3.101 -12.956   2.713 -0.16 +0.00    +0.004 C 
DOCKED: ATOM     48  C   UNL d   1       2.378 -12.230   3.569 -0.31 +0.00    +0.012 C 
DOCKED: ENDBRANCH  17  47
DOCKED: TORSDOF 12
DOCKED: TER
DOCKED: ENDMDL
________________________________________________________________________________


	BEGINNING GENETIC ALGORITHM DOCKING 42 of 100
Run: 42 Seed: 1164674016 666456865 [ Run 42 of 100 GA/GALS ]
Beginning LAMARCKIAN GENETIC ALGORITHM (LGA), with a maximum of 25000000 energy evaluations.

Final-Value: -10.723


	FINAL GENETIC ALGORITHM DOCKED STATE
	_______________________________________________


Detailed state:  trans -0.062 -15.143 0.172 quatxyzw 0.886399 0.339853 0.101276 -0.297557 center 8.781 34.984 -0.736 ntor 12 34.8597 104.9724 -93.4736 -64.0129 165.4457 141.4715 19.0508 33.0235 -145.7319 65.3891 -13.9281 81.1476
State:	 -0.062 -15.143   0.172   0.928  0.356  0.106 -145.378     34.86  104.97  -93.47  -64.01  165.45  141.47   19.05   33.02 -145.73   65.39  -13.93   81.15

DOCKED: MODEL       42
DOCKED: USER    Run = 42
DOCKED: USER    DPF = D:/Protein_go_brrr/autodock/final/AncA/heme_Co/dock.dpf
DOCKED: USER  
DOCKED: USER    Estimated Free Energy of Binding    =   -6.82 kcal/mol  [=(1)+(2)+(3)-(4)]
DOCKED: USER    Estimated Inhibition Constant, Ki   =    9.95 uM (micromolar)  [Temperature = 298.15 K]
DOCKED: USER    
DOCKED: USER    (1) Final Intermolecular Energy     =  -10.40 kcal/mol
DOCKED: USER        vdW + Hbond + desolv Energy     =   -6.07 kcal/mol
DOCKED: USER        Electrostatic Energy            =   -4.34 kcal/mol
DOCKED: USER    (2) Final Total Internal Energy     =   -0.32 kcal/mol
DOCKED: USER    (3) Torsional Free Energy           =   +3.58 kcal/mol
DOCKED: USER    (4) Unbound System's Energy  [=(2)] =   -0.32 kcal/mol
DOCKED: USER    
DOCKED: USER    
DOCKED: USER    NEWDPF move heme_Co_opt.pdbqt
DOCKED: USER    NEWDPF about 8.781000 34.984000 -0.736000
DOCKED: USER    NEWDPF tran0 -0.061941 -15.143335 0.172052
DOCKED: USER    NEWDPF quaternion0 0.886399 0.339853 0.101276 -0.297557
DOCKED: USER    NEWDPF axisangle0 0.928454 0.355978 0.106081 -145.378107
DOCKED: USER    NEWDPF quat0 0.928454 0.355978 0.106081 -145.378107
DOCKED: USER    NEWDPF dihe0 34.86 104.97 -93.47 -64.01 165.45 141.47 19.05 33.02 -145.73 65.39 -13.93 81.15 
DOCKED: USER  keepresnum = 1 
DOCKED: USER  
DOCKED: REMARK  12 active torsions:
DOCKED: REMARK  status: ('A' for Active; 'I' for Inactive)
DOCKED: REMARK    1  A    between atoms: C_6  and  C_10 
DOCKED: REMARK    2  A    between atoms: C_10  and  C_11 
DOCKED: REMARK    3  A    between atoms: C_11  and  C_12 
DOCKED: REMARK    4  A    between atoms: C_12  and  O_14 
DOCKED: REMARK    5  A    between atoms: C_17  and  C_20 
DOCKED: REMARK    6  A    between atoms: C_24  and  C_27 
DOCKED: REMARK    7  A    between atoms: C_31  and  C_34 
DOCKED: REMARK    8  A    between atoms: C_34  and  C_35 
DOCKED: REMARK    9  A    between atoms: C_35  and  C_36 
DOCKED: REMARK   10  A    between atoms: C_36  and  O_38 
DOCKED: REMARK   11  A    between atoms: FE_43  and  C_44 
DOCKED: REMARK   12  A    between atoms: C_44  and  O_45 
DOCKED: USER                              x       y       z     vdW  Elec       q    Type
DOCKED: USER                           _______ _______ _______ _____ _____    ______ ____
DOCKED: ROOT
DOCKED: ATOM      1  C   UNL d   1      -1.564 -16.331   1.196 -0.08 +0.06    +0.064 A 
DOCKED: ATOM      2  C   UNL d   1      -0.638 -15.635  -3.416 -0.14 +0.06    +0.064 C 
DOCKED: ATOM      3  C   UNL d   1       2.722 -12.428  -2.296 -0.16 +0.02    +0.064 A 
DOCKED: ATOM      4  C   UNL d   1       2.062 -13.405   2.423 -0.13 +0.02    +0.064 A 
DOCKED: ATOM      5  C   UNL d   1      -1.583 -16.350  -0.147 -0.07 +0.06    +0.066 A 
DOCKED: ATOM      6  C   UNL d   1      -2.405 -17.236  -0.871 -0.06 -0.02    -0.021 A 
DOCKED: ATOM      7  C   UNL d   1      -2.116 -17.046  -2.208 -0.05 -0.03    -0.025 A 
DOCKED: ATOM      8  C   UNL d   1      -1.142 -16.041  -2.244 -0.08 +0.07    +0.066 A 
DOCKED: ATOM      9  C   UNL d   1      -2.723 -17.774  -3.417 -0.08 +0.07    +0.051 C 
DOCKED: ATOM     10  C   UNL d   1       0.346 -14.591  -3.553 -0.13 +0.04    +0.066 A 
DOCKED: ATOM     11  C   UNL d   1       0.812 -14.024  -4.759 -0.24 -0.01    -0.021 A 
DOCKED: ATOM     12  C   UNL d   1       1.787 -13.089  -4.403 -0.25 +0.00    +0.000 A 
DOCKED: ATOM     13  C   UNL d   1       1.836 -13.146  -3.010 -0.14 +0.03    +0.070 A 
DOCKED: ATOM     14  C   UNL d   1       0.277 -14.302  -6.141 -0.40 +0.03    +0.052 C 
DOCKED: ATOM     15  C   UNL d   1       2.944 -12.404  -0.864 -0.16 +0.02    +0.066 A 
DOCKED: ATOM     16  C   UNL d   1       3.973 -11.749  -0.202 -0.23 -0.00    -0.021 A 
DOCKED: ATOM     17  C   UNL d   1       3.789 -12.030   1.159 -0.20 +0.00    +0.000 A 
DOCKED: ATOM     18  C   UNL d   1       2.648 -12.823   1.222 -0.15 +0.02    +0.070 A 
DOCKED: ATOM     19  C   UNL d   1       5.050 -10.917  -0.861 -0.15 +0.00    +0.052 C 
DOCKED: ATOM     20  C   UNL d   1       1.005 -14.248   2.500 -0.13 +0.03    +0.066 A 
DOCKED: ATOM     21  C   UNL d   1       0.557 -14.770   3.711 -0.12 -0.01    -0.025 A 
DOCKED: ATOM     22  C   UNL d   1      -0.507 -15.595   3.391 -0.10 -0.02    -0.021 A 
DOCKED: ATOM     23  C   UNL d   1      -0.647 -15.544   1.988 -0.08 +0.05    +0.066 A 
DOCKED: ATOM     24  C   UNL d   1       1.125 -14.512   5.104 -0.13 +0.03    +0.051 C 
DOCKED: ATOM     25  N   UNL d   1      -0.798 -15.588  -0.982 -0.04 -0.21    -0.248 N 
DOCKED: ATOM     26  N   UNL d   1       0.925 -14.014  -2.495 -0.04 -0.13    -0.248 N 
DOCKED: ATOM     27  N   UNL d   1       2.189 -13.051  -0.004 -0.06 -0.08    -0.248 N 
DOCKED: ATOM     28  N   UNL d   1       0.267 -14.732   1.445 -0.08 -0.15    -0.248 N 
DOCKED: ATOM     29 FE   UNL d   1       0.783 -14.244  -0.461 -0.02 +0.00    +0.000 Fe
DOCKED: ENDROOT
DOCKED: BRANCH   6  30
DOCKED: ATOM     30  C   UNL d   1      -3.361 -18.271  -0.288 -0.03 +0.05    +0.052 C 
DOCKED: BRANCH  30  31
DOCKED: ATOM     31  C   UNL d   1      -4.562 -17.586   0.364 -0.06 +0.13    +0.115 C 
DOCKED: BRANCH  31  32
DOCKED: ATOM     32  C   UNL d   1      -4.942 -16.298  -0.335 -0.11 +0.24    +0.139 C 
DOCKED: ATOM     33  O   UNL d   1      -4.757 -15.231   0.230 -0.50 -1.54    -0.650 OA
DOCKED: BRANCH  32  34
DOCKED: ATOM     34  O   UNL d   1      -5.439 -16.285  -1.594 +0.01 -1.86    -0.776 OA
DOCKED: ATOM     35  H   UNL d   1      -5.972 -16.995  -1.976 +0.01 +0.28    +0.167 HD
DOCKED: ENDBRANCH  32  34
DOCKED: ENDBRANCH  31  32
DOCKED: ENDBRANCH  30  31
DOCKED: ENDBRANCH   6  30
DOCKED: BRANCH  29  36
DOCKED: ATOM     36  C   UNL d   1       2.069 -15.897  -0.560 -0.01 +0.08    +0.190 C 
DOCKED: BRANCH  36  37
DOCKED: ATOM     37  O   UNL d   1       2.085 -17.294  -0.624 +0.00 -0.16    -0.399 OA
DOCKED: ATOM     38  H   UNL d   1       1.136 -17.568  -0.479 +0.01 +0.09    +0.209 HD
DOCKED: ENDBRANCH  36  37
DOCKED: ENDBRANCH  29  36
DOCKED: BRANCH  22  39
DOCKED: ATOM     39  C   UNL d   1      -1.297 -16.433   4.378 -0.09 +0.04    +0.052 C 
DOCKED: BRANCH  39  40
DOCKED: ATOM     40  C   UNL d   1      -2.360 -17.272   3.649 -0.06 +0.10    +0.115 C 
DOCKED: BRANCH  40  41
DOCKED: ATOM     41  C   UNL d   1      -3.783 -16.992   4.083 +0.21 +0.21    +0.139 C 
DOCKED: ATOM     42  O   UNL d   1      -4.708 -17.485   3.453 -0.29 -1.00    -0.650 OA
DOCKED: BRANCH  41  43
DOCKED: ATOM     43  O   UNL d   1      -4.059 -16.284   5.200 -0.32 -1.09    -0.776 OA
DOCKED: ATOM     44  H   UNL d   1      -4.126 -16.694   6.072 +0.02 +0.14    +0.167 HD
DOCKED: ENDBRANCH  41  43
DOCKED: ENDBRANCH  40  41
DOCKED: ENDBRANCH  39  40
DOCKED: ENDBRANCH  22  39
DOCKED: BRANCH  12  45
DOCKED: ATOM     45  C   UNL d   1       2.661 -12.140  -5.213 -0.25 +0.00    +0.004 C 
DOCKED: ATOM     46  C   UNL d   1       3.708 -12.383  -5.997 -0.48 +0.00    +0.012 C 
DOCKED: ENDBRANCH  12  45
DOCKED: BRANCH  17  47
DOCKED: ATOM     47  C   UNL d   1       4.626 -11.645   2.335 -0.19 +0.00    +0.004 C 
DOCKED: ATOM     48  C   UNL d   1       4.119 -11.332   3.530 -0.24 +0.00    +0.012 C 
DOCKED: ENDBRANCH  17  47
DOCKED: TORSDOF 12
DOCKED: TER
DOCKED: ENDMDL
________________________________________________________________________________


	BEGINNING GENETIC ALGORITHM DOCKING 43 of 100
Run: 43 Seed: 663801135 453888441 [ Run 43 of 100 GA/GALS ]
Beginning LAMARCKIAN GENETIC ALGORITHM (LGA), with a maximum of 25000000 energy evaluations.

Final-Value: -12.302


	FINAL GENETIC ALGORITHM DOCKED STATE
	_______________________________________________


Detailed state:  trans -0.125 -15.735 -1.766 quatxyzw 0.420469 0.049069 -0.410579 0.807603 center 8.781 34.984 -0.736 ntor 12 -78.1934 136.6886 68.0556 59.2164 147.5085 120.7425 172.7413 -79.0589 -138.3881 -47.3772 161.0148 179.9294
State:	 -0.125 -15.735  -1.766   0.713  0.083 -0.696 72.275    -78.19  136.69   68.06   59.22  147.51  120.74  172.74  -79.06 -138.39  -47.38  161.01  179.93

DOCKED: MODEL       43
DOCKED: USER    Run = 43
DOCKED: USER    DPF = D:/Protein_go_brrr/autodock/final/AncA/heme_Co/dock.dpf
DOCKED: USER  
DOCKED: USER    Estimated Free Energy of Binding    =   -7.65 kcal/mol  [=(1)+(2)+(3)-(4)]
DOCKED: USER    Estimated Inhibition Constant, Ki   =    2.45 uM (micromolar)  [Temperature = 298.15 K]
DOCKED: USER    
DOCKED: USER    (1) Final Intermolecular Energy     =  -11.23 kcal/mol
DOCKED: USER        vdW + Hbond + desolv Energy     =   -6.66 kcal/mol
DOCKED: USER        Electrostatic Energy            =   -4.57 kcal/mol
DOCKED: USER    (2) Final Total Internal Energy     =   -1.07 kcal/mol
DOCKED: USER    (3) Torsional Free Energy           =   +3.58 kcal/mol
DOCKED: USER    (4) Unbound System's Energy  [=(2)] =   -1.07 kcal/mol
DOCKED: USER    
DOCKED: USER    
DOCKED: USER    NEWDPF move heme_Co_opt.pdbqt
DOCKED: USER    NEWDPF about 8.781000 34.984000 -0.736000
DOCKED: USER    NEWDPF tran0 -0.124945 -15.734522 -1.766071
DOCKED: USER    NEWDPF quaternion0 0.420469 0.049069 -0.410579 0.807603
DOCKED: USER    NEWDPF axisangle0 0.712991 0.083207 -0.696219 72.275174
DOCKED: USER    NEWDPF quat0 0.712991 0.083207 -0.696219 72.275174
DOCKED: USER    NEWDPF dihe0 -78.19 136.69 68.06 59.22 147.51 120.74 172.74 -79.06 -138.39 -47.38 161.01 179.93 
DOCKED: USER  keepresnum = 1 
DOCKED: USER  
DOCKED: REMARK  12 active torsions:
DOCKED: REMARK  status: ('A' for Active; 'I' for Inactive)
DOCKED: REMARK    1  A    between atoms: C_6  and  C_10 
DOCKED: REMARK    2  A    between atoms: C_10  and  C_11 
DOCKED: REMARK    3  A    between atoms: C_11  and  C_12 
DOCKED: REMARK    4  A    between atoms: C_12  and  O_14 
DOCKED: REMARK    5  A    between atoms: C_17  and  C_20 
DOCKED: REMARK    6  A    between atoms: C_24  and  C_27 
DOCKED: REMARK    7  A    between atoms: C_31  and  C_34 
DOCKED: REMARK    8  A    between atoms: C_34  and  C_35 
DOCKED: REMARK    9  A    between atoms: C_35  and  C_36 
DOCKED: REMARK   10  A    between atoms: C_36  and  O_38 
DOCKED: REMARK   11  A    between atoms: FE_43  and  C_44 
DOCKED: REMARK   12  A    between atoms: C_44  and  O_45 
DOCKED: USER                              x       y       z     vdW  Elec       q    Type
DOCKED: USER                           _______ _______ _______ _____ _____    ______ ____
DOCKED: ROOT
DOCKED: ATOM      1  C   UNL d   1      -1.348 -17.486  -2.156 -0.04 +0.06    +0.064 A 
DOCKED: ATOM      2  C   UNL d   1      -0.451 -15.036   1.819 -0.12 +0.05    +0.064 C 
DOCKED: ATOM      3  C   UNL d   1       2.680 -12.297  -0.531 -0.18 +0.02    +0.064 A 
DOCKED: ATOM      4  C   UNL d   1       1.496 -14.531  -4.686 -0.18 +0.03    +0.064 A 
DOCKED: ATOM      5  C   UNL d   1      -1.306 -17.042  -0.889 -0.03 +0.05    +0.066 A 
DOCKED: ATOM      6  C   UNL d   1      -2.152 -17.556   0.112 -0.04 -0.02    -0.021 A 
DOCKED: ATOM      7  C   UNL d   1      -1.904 -16.826   1.258 -0.07 -0.02    -0.025 A 
DOCKED: ATOM      8  C   UNL d   1      -0.906 -15.909   0.912 -0.08 +0.05    +0.066 A 
DOCKED: ATOM      9  C   UNL d   1      -2.573 -16.974   2.633 -0.04 +0.06    +0.051 C 
DOCKED: ATOM     10  C   UNL d   1       0.592 -14.074   1.562 -0.13 +0.04    +0.066 A 
DOCKED: ATOM     11  C   UNL d   1       1.210 -13.227   2.508 -0.20 -0.01    -0.021 A 
DOCKED: ATOM     12  C   UNL d   1       2.122 -12.442   1.796 -0.25 +0.00    +0.000 A 
DOCKED: ATOM     13  C   UNL d   1       2.002 -12.875   0.476 -0.16 +0.02    +0.070 A 
DOCKED: ATOM     14  C   UNL d   1       0.999 -13.251   4.000 -0.26 +0.03    +0.052 C 
DOCKED: ATOM     15  C   UNL d   1       2.638 -12.581  -1.952 -0.14 +0.02    +0.066 A 
DOCKED: ATOM     16  C   UNL d   1       3.255 -11.849  -2.956 -0.23 -0.01    -0.021 A 
DOCKED: ATOM     17  C   UNL d   1       2.914 -12.488  -4.157 -0.25 +0.00    +0.000 A 
DOCKED: ATOM     18  C   UNL d   1       2.127 -13.573  -3.787 -0.15 +0.03    +0.070 A 
DOCKED: ATOM     19  C   UNL d   1       4.109 -10.618  -2.746 -0.25 +0.01    +0.052 C 
DOCKED: ATOM     20  C   UNL d   1       0.657 -15.542  -4.357 -0.11 +0.04    +0.066 A 
DOCKED: ATOM     21  C   UNL d   1       0.084 -16.375  -5.315 -0.15 -0.02    -0.025 A 
DOCKED: ATOM     22  C   UNL d   1      -0.718 -17.256  -4.612 -0.09 -0.02    -0.021 A 
DOCKED: ATOM     23  C   UNL d   1      -0.603 -16.905  -3.250 -0.06 +0.06    +0.066 A 
DOCKED: ATOM     24  C   UNL d   1       0.275 -16.323  -6.828 -0.29 +0.03    +0.051 C 
DOCKED: ATOM     25  N   UNL d   1      -0.512 -16.024  -0.411 -0.02 -0.18    -0.248 N 
DOCKED: ATOM     26  N   UNL d   1       1.117 -13.900   0.345 -0.06 -0.12    -0.248 N 
DOCKED: ATOM     27  N   UNL d   1       1.958 -13.580  -2.470 -0.04 -0.10    -0.248 N 
DOCKED: ATOM     28  N   UNL d   1       0.226 -15.867  -3.091 -0.03 -0.17    -0.248 N 
DOCKED: ATOM     29 FE   UNL d   1       0.796 -14.731  -1.504 -0.02 +0.00    +0.000 Fe
DOCKED: ENDROOT
DOCKED: BRANCH   6  30
DOCKED: ATOM     30  C   UNL d   1      -3.206 -18.645  -0.059 -0.02 +0.04    +0.052 C 
DOCKED: BRANCH  30  31
DOCKED: ATOM     31  C   UNL d   1      -4.607 -18.078   0.173 -0.04 +0.11    +0.115 C 
DOCKED: BRANCH  31  32
DOCKED: ATOM     32  C   UNL d   1      -4.775 -16.695  -0.419 -0.10 +0.22    +0.139 C 
DOCKED: ATOM     33  O   UNL d   1      -4.331 -16.460  -1.533 +0.26 -1.45    -0.650 OA
DOCKED: BRANCH  32  34
DOCKED: ATOM     34  O   UNL d   1      -5.447 -15.715   0.228 -0.53 -1.64    -0.776 OA
DOCKED: ATOM     35  H   UNL d   1      -6.409 -15.619   0.220 +0.02 +0.29    +0.167 HD
DOCKED: ENDBRANCH  32  34
DOCKED: ENDBRANCH  31  32
DOCKED: ENDBRANCH  30  31
DOCKED: ENDBRANCH   6  30
DOCKED: BRANCH  29  36
DOCKED: ATOM     36  C   UNL d   1      -0.859 -13.475  -1.779 -0.15 +0.17    +0.190 C 
DOCKED: BRANCH  36  37
DOCKED: ATOM     37  O   UNL d   1      -2.246 -13.483  -1.961 -0.24 -0.63    -0.399 OA
DOCKED: ATOM     38  H   UNL d   1      -2.551 -14.350  -1.574 +0.05 +0.39    +0.209 HD
DOCKED: ENDBRANCH  36  37
DOCKED: ENDBRANCH  29  36
DOCKED: BRANCH  22  39
DOCKED: ATOM     39  C   UNL d   1      -1.595 -18.330  -5.228 -0.09 +0.04    +0.052 C 
DOCKED: BRANCH  39  40
DOCKED: ATOM     40  C   UNL d   1      -2.892 -17.719  -5.784 -0.18 +0.14    +0.115 C 
DOCKED: BRANCH  40  41
DOCKED: ATOM     41  C   UNL d   1      -3.177 -18.068  -7.230 -0.08 +0.21    +0.139 C 
DOCKED: ATOM     42  O   UNL d   1      -3.293 -19.242  -7.551 -0.33 -1.47    -0.650 OA
DOCKED: BRANCH  41  43
DOCKED: ATOM     43  O   UNL d   1      -3.393 -17.112  -8.161 -0.14 -1.09    -0.776 OA
DOCKED: ATOM     44  H   UNL d   1      -2.681 -16.570  -8.523 +0.07 +0.16    +0.167 HD
DOCKED: ENDBRANCH  41  43
DOCKED: ENDBRANCH  40  41
DOCKED: ENDBRANCH  39  40
DOCKED: ENDBRANCH  22  39
DOCKED: BRANCH  12  45
DOCKED: ATOM     45  C   UNL d   1       3.100 -11.352   2.213 -0.34 +0.00    +0.004 C 
DOCKED: ATOM     46  C   UNL d   1       4.023 -11.337   3.171 -0.24 +0.00    +0.012 C 
DOCKED: ENDBRANCH  12  45
DOCKED: BRANCH  17  47
DOCKED: ATOM     47  C   UNL d   1       3.240 -12.110  -5.565 -0.42 +0.00    +0.004 C 
DOCKED: ATOM     48  C   UNL d   1       3.831 -12.936  -6.432 -0.49 +0.00    +0.012 C 
DOCKED: ENDBRANCH  17  47
DOCKED: TORSDOF 12
DOCKED: TER
DOCKED: ENDMDL
________________________________________________________________________________


	BEGINNING GENETIC ALGORITHM DOCKING 44 of 100
Run: 44 Seed: 1152877593 1306477672 [ Run 44 of 100 GA/GALS ]
Beginning LAMARCKIAN GENETIC ALGORITHM (LGA), with a maximum of 25000000 energy evaluations.

Final-Value: -12.671


	FINAL GENETIC ALGORITHM DOCKED STATE
	_______________________________________________


Detailed state:  trans -10.312 -14.993 -3.144 quatxyzw 0.469147 -0.408036 -0.781373 -0.053511 center 8.781 34.984 -0.736 ntor 12 55.3983 143.8612 -119.8108 122.1285 136.2217 137.7651 -143.6717 97.1424 -19.5534 -78.6253 180.0000 17.8067
State:	-10.312 -14.993  -3.144   0.470 -0.409 -0.782 -173.865     55.40  143.86 -119.81  122.13  136.22  137.77 -143.67   97.14  -19.55  -78.63  180.00   17.81

DOCKED: MODEL       44
DOCKED: USER    Run = 44
DOCKED: USER    DPF = D:/Protein_go_brrr/autodock/final/AncA/heme_Co/dock.dpf
DOCKED: USER  
DOCKED: USER    Estimated Free Energy of Binding    =   -7.26 kcal/mol  [=(1)+(2)+(3)-(4)]
DOCKED: USER    Estimated Inhibition Constant, Ki   =    4.80 uM (micromolar)  [Temperature = 298.15 K]
DOCKED: USER    
DOCKED: USER    (1) Final Intermolecular Energy     =  -10.84 kcal/mol
DOCKED: USER        vdW + Hbond + desolv Energy     =   -6.72 kcal/mol
DOCKED: USER        Electrostatic Energy            =   -4.12 kcal/mol
DOCKED: USER    (2) Final Total Internal Energy     =   -1.83 kcal/mol
DOCKED: USER    (3) Torsional Free Energy           =   +3.58 kcal/mol
DOCKED: USER    (4) Unbound System's Energy  [=(2)] =   -1.83 kcal/mol
DOCKED: USER    
DOCKED: USER    
DOCKED: USER    NEWDPF move heme_Co_opt.pdbqt
DOCKED: USER    NEWDPF about 8.781000 34.984000 -0.736000
DOCKED: USER    NEWDPF tran0 -10.312096 -14.992517 -3.144039
DOCKED: USER    NEWDPF quaternion0 0.469147 -0.408036 -0.781373 -0.053511
DOCKED: USER    NEWDPF axisangle0 0.469820 -0.408622 -0.782494 -173.865188
DOCKED: USER    NEWDPF quat0 0.469820 -0.408622 -0.782494 -173.865188
DOCKED: USER    NEWDPF dihe0 55.40 143.86 -119.81 122.13 136.22 137.77 -143.67 97.14 -19.55 -78.63 180.00 17.81 
DOCKED: USER  keepresnum = 1 
DOCKED: USER  
DOCKED: REMARK  12 active torsions:
DOCKED: REMARK  status: ('A' for Active; 'I' for Inactive)
DOCKED: REMARK    1  A    between atoms: C_6  and  C_10 
DOCKED: REMARK    2  A    between atoms: C_10  and  C_11 
DOCKED: REMARK    3  A    between atoms: C_11  and  C_12 
DOCKED: REMARK    4  A    between atoms: C_12  and  O_14 
DOCKED: REMARK    5  A    between atoms: C_17  and  C_20 
DOCKED: REMARK    6  A    between atoms: C_24  and  C_27 
DOCKED: REMARK    7  A    between atoms: C_31  and  C_34 
DOCKED: REMARK    8  A    between atoms: C_34  and  C_35 
DOCKED: REMARK    9  A    between atoms: C_35  and  C_36 
DOCKED: REMARK   10  A    between atoms: C_36  and  O_38 
DOCKED: REMARK   11  A    between atoms: FE_43  and  C_44 
DOCKED: REMARK   12  A    between atoms: C_44  and  O_45 
DOCKED: USER                              x       y       z     vdW  Elec       q    Type
DOCKED: USER                           _______ _______ _______ _____ _____    ______ ____
DOCKED: ROOT
DOCKED: ATOM      1  C   UNL d   1      -8.729 -14.919  -1.659 -0.09 +0.05    +0.064 A 
DOCKED: ATOM      2  C   UNL d   1     -11.532 -11.553  -3.510 -0.32 +0.01    +0.064 C 
DOCKED: ATOM      3  C   UNL d   1     -13.422 -14.736  -6.532 -0.14 +0.01    +0.064 A 
DOCKED: ATOM      4  C   UNL d   1     -10.849 -18.270  -4.398 -0.03 +0.02    +0.064 A 
DOCKED: ATOM      5  C   UNL d   1      -9.330 -13.758  -1.968 -0.14 +0.04    +0.066 A 
DOCKED: ATOM      6  C   UNL d   1      -9.090 -12.576  -1.240 -0.24 -0.01    -0.021 A 
DOCKED: ATOM      7  C   UNL d   1      -9.923 -11.608  -1.767 -0.31 -0.01    -0.025 A 
DOCKED: ATOM      8  C   UNL d   1     -10.623 -12.236  -2.803 -0.17 +0.02    +0.066 A 
DOCKED: ATOM      9  C   UNL d   1     -10.066 -10.145  -1.322 -0.46 +0.01    +0.051 C 
DOCKED: ATOM     10  C   UNL d   1     -12.281 -12.107  -4.610 -0.25 +0.01    +0.066 A 
DOCKED: ATOM     11  C   UNL d   1     -13.145 -11.407  -5.480 -0.35 -0.00    -0.021 A 
DOCKED: ATOM     12  C   UNL d   1     -13.679 -12.359  -6.354 -0.24 +0.00    +0.000 A 
DOCKED: ATOM     13  C   UNL d   1     -13.094 -13.563  -5.961 -0.19 +0.01    +0.070 A 
DOCKED: ATOM     14  C   UNL d   1     -13.356  -9.916  -5.518 -0.42 +0.00    +0.052 C 
DOCKED: ATOM     15  C   UNL d   1     -12.957 -16.073  -6.218 -0.09 +0.01    +0.066 A 
DOCKED: ATOM     16  C   UNL d   1     -13.444 -17.259  -6.749 -0.05 -0.00    -0.021 A 
DOCKED: ATOM     17  C   UNL d   1     -12.707 -18.281  -6.135 -0.03 +0.00    +0.000 A 
DOCKED: ATOM     18  C   UNL d   1     -11.813 -17.634  -5.287 -0.04 +0.02    +0.070 A 
DOCKED: ATOM     19  C   UNL d   1     -14.548 -17.372  -7.777 -0.04 +0.01    +0.052 C 
DOCKED: ATOM     20  C   UNL d   1     -10.031 -17.667  -3.503 -0.04 +0.03    +0.066 A 
DOCKED: ATOM     21  C   UNL d   1      -9.171 -18.388  -2.677 -0.01 -0.01    -0.025 A 
DOCKED: ATOM     22  C   UNL d   1      -8.526 -17.446  -1.897 -0.03 -0.01    -0.021 A 
DOCKED: ATOM     23  C   UNL d   1      -9.037 -16.188  -2.280 -0.06 +0.05    +0.066 A 
DOCKED: ATOM     24  C   UNL d   1      -8.988 -19.902  -2.620 +0.00 +0.02    +0.051 C 
DOCKED: ATOM     25  N   UNL d   1     -10.271 -13.567  -2.954 +0.01 -0.11    -0.248 N 
DOCKED: ATOM     26  N   UNL d   1     -12.207 -13.400  -4.944 -0.09 -0.05    -0.248 N 
DOCKED: ATOM     27  N   UNL d   1     -12.011 -16.322  -5.340 -0.05 -0.07    -0.248 N 
DOCKED: ATOM     28  N   UNL d   1      -9.949 -16.317  -3.250 -0.04 -0.13    -0.248 N 
DOCKED: ATOM     29 FE   UNL d   1     -11.191 -15.029  -4.216 -0.03 +0.00    +0.000 Fe
DOCKED: ENDROOT
DOCKED: BRANCH   6  30
DOCKED: ATOM     30  C   UNL d   1      -8.160 -12.419  -0.042 -0.21 +0.04    +0.052 C 
DOCKED: BRANCH  30  31
DOCKED: ATOM     31  C   UNL d   1      -8.942 -12.548   1.265 -0.30 +0.09    +0.115 C 
DOCKED: BRANCH  31  32
DOCKED: ATOM     32  C   UNL d   1      -8.054 -12.916   2.435 -0.29 +0.16    +0.139 C 
DOCKED: ATOM     33  O   UNL d   1      -7.490 -12.033   3.062 -0.65 -0.75    -0.650 OA
DOCKED: BRANCH  32  34
DOCKED: ATOM     34  O   UNL d   1      -7.900 -14.197   2.843 -0.00 -1.18    -0.776 OA
DOCKED: ATOM     35  H   UNL d   1      -7.665 -14.930   2.258 +0.04 +0.27    +0.167 HD
DOCKED: ENDBRANCH  32  34
DOCKED: ENDBRANCH  31  32
DOCKED: ENDBRANCH  30  31
DOCKED: ENDBRANCH   6  30
DOCKED: BRANCH  29  36
DOCKED: ATOM     36  C   UNL d   1     -12.634 -15.255  -2.713 -0.11 +0.04    +0.190 C 
DOCKED: BRANCH  36  37
DOCKED: ATOM     37  O   UNL d   1     -12.886 -14.995  -1.362 -0.11 -0.07    -0.399 OA
DOCKED: ATOM     38  H   UNL d   1     -12.378 -14.159  -1.163 +0.05 +0.03    +0.209 HD
DOCKED: ENDBRANCH  36  37
DOCKED: ENDBRANCH  29  36
DOCKED: BRANCH  22  39
DOCKED: ATOM     39  C   UNL d   1      -7.523 -17.751  -0.800 -0.02 +0.04    +0.052 C 
DOCKED: BRANCH  39  40
DOCKED: ATOM     40  C   UNL d   1      -6.160 -17.114  -1.118 -0.07 +0.15    +0.115 C 
DOCKED: BRANCH  40  41
DOCKED: ATOM     41  C   UNL d   1      -5.933 -15.766  -0.467 -0.11 +0.25    +0.139 C 
DOCKED: ATOM     42  O   UNL d   1      -5.642 -14.805  -1.165 -0.23 -1.61    -0.650 OA
DOCKED: BRANCH  41  43
DOCKED: ATOM     43  O   UNL d   1      -6.128 -15.575   0.857 -0.25 -1.86    -0.776 OA
DOCKED: ATOM     44  H   UNL d   1      -6.830 -15.007   1.202 +0.03 +0.35    +0.167 HD
DOCKED: ENDBRANCH  41  43
DOCKED: ENDBRANCH  40  41
DOCKED: ENDBRANCH  39  40
DOCKED: ENDBRANCH  22  39
DOCKED: BRANCH  12  45
DOCKED: ATOM     45  C   UNL d   1     -14.655 -12.266  -7.519 -0.22 +0.00    +0.004 C 
DOCKED: ATOM     46  C   UNL d   1     -14.472 -12.476  -8.820 -0.27 +0.00    +0.012 C 
DOCKED: ENDBRANCH  12  45
DOCKED: BRANCH  17  47
DOCKED: ATOM     47  C   UNL d   1     -12.836 -19.763  -6.268 -0.02 +0.00    +0.004 C 
DOCKED: ATOM     48  C   UNL d   1     -11.891 -20.541  -6.802 -0.02 +0.00    +0.012 C 
DOCKED: ENDBRANCH  17  47
DOCKED: TORSDOF 12
DOCKED: TER
DOCKED: ENDMDL
________________________________________________________________________________


	BEGINNING GENETIC ALGORITHM DOCKING 45 of 100
Run: 45 Seed: 721386382 1715195425 [ Run 45 of 100 GA/GALS ]
Beginning LAMARCKIAN GENETIC ALGORITHM (LGA), with a maximum of 25000000 energy evaluations.

Final-Value: -13.033


	FINAL GENETIC ALGORITHM DOCKED STATE
	_______________________________________________


Detailed state:  trans -0.405 -15.497 -1.958 quatxyzw 0.372543 0.035569 -0.385221 0.843535 center 8.781 34.984 -0.736 ntor 12 -137.8712 126.7961 -45.6397 4.1815 136.8490 115.9183 14.4744 -59.8696 166.5804 21.3711 -166.7244 -33.4978
State:	 -0.405 -15.497  -1.958   0.694  0.066 -0.717 64.969   -137.87  126.80  -45.64    4.18  136.85  115.92   14.47  -59.87  166.58   21.37 -166.72  -33.50

DOCKED: MODEL       45
DOCKED: USER    Run = 45
DOCKED: USER    DPF = D:/Protein_go_brrr/autodock/final/AncA/heme_Co/dock.dpf
DOCKED: USER  
DOCKED: USER    Estimated Free Energy of Binding    =   -7.65 kcal/mol  [=(1)+(2)+(3)-(4)]
DOCKED: USER    Estimated Inhibition Constant, Ki   =    2.48 uM (micromolar)  [Temperature = 298.15 K]
DOCKED: USER    
DOCKED: USER    (1) Final Intermolecular Energy     =  -11.23 kcal/mol
DOCKED: USER        vdW + Hbond + desolv Energy     =   -7.01 kcal/mol
DOCKED: USER        Electrostatic Energy            =   -4.22 kcal/mol
DOCKED: USER    (2) Final Total Internal Energy     =   -1.81 kcal/mol
DOCKED: USER    (3) Torsional Free Energy           =   +3.58 kcal/mol
DOCKED: USER    (4) Unbound System's Energy  [=(2)] =   -1.81 kcal/mol
DOCKED: USER    
DOCKED: USER    
DOCKED: USER    NEWDPF move heme_Co_opt.pdbqt
DOCKED: USER    NEWDPF about 8.781000 34.984000 -0.736000
DOCKED: USER    NEWDPF tran0 -0.404730 -15.496782 -1.957826
DOCKED: USER    NEWDPF quaternion0 0.372543 0.035569 -0.385221 0.843535
DOCKED: USER    NEWDPF axisangle0 0.693653 0.066227 -0.717259 64.969302
DOCKED: USER    NEWDPF quat0 0.693653 0.066227 -0.717259 64.969302
DOCKED: USER    NEWDPF dihe0 -137.87 126.80 -45.64 4.18 136.85 115.92 14.47 -59.87 166.58 21.37 -166.72 -33.50 
DOCKED: USER  keepresnum = 1 
DOCKED: USER  
DOCKED: REMARK  12 active torsions:
DOCKED: REMARK  status: ('A' for Active; 'I' for Inactive)
DOCKED: REMARK    1  A    between atoms: C_6  and  C_10 
DOCKED: REMARK    2  A    between atoms: C_10  and  C_11 
DOCKED: REMARK    3  A    between atoms: C_11  and  C_12 
DOCKED: REMARK    4  A    between atoms: C_12  and  O_14 
DOCKED: REMARK    5  A    between atoms: C_17  and  C_20 
DOCKED: REMARK    6  A    between atoms: C_24  and  C_27 
DOCKED: REMARK    7  A    between atoms: C_31  and  C_34 
DOCKED: REMARK    8  A    between atoms: C_34  and  C_35 
DOCKED: REMARK    9  A    between atoms: C_35  and  C_36 
DOCKED: REMARK   10  A    between atoms: C_36  and  O_38 
DOCKED: REMARK   11  A    between atoms: FE_43  and  C_44 
DOCKED: REMARK   12  A    between atoms: C_44  and  O_45 
DOCKED: USER                              x       y       z     vdW  Elec       q    Type
DOCKED: USER                           _______ _______ _______ _____ _____    ______ ____
DOCKED: ROOT
DOCKED: ATOM      1  C   UNL d   1      -1.777 -17.104  -2.458 -0.06 +0.07    +0.064 A 
DOCKED: ATOM      2  C   UNL d   1      -0.532 -15.140   1.690 -0.11 +0.05    +0.064 C 
DOCKED: ATOM      3  C   UNL d   1       2.710 -12.420  -0.528 -0.17 +0.02    +0.064 A 
DOCKED: ATOM      4  C   UNL d   1       1.190 -14.131  -4.820 -0.22 +0.03    +0.064 A 
DOCKED: ATOM      5  C   UNL d   1      -1.650 -16.793  -1.157 -0.05 +0.06    +0.066 A 
DOCKED: ATOM      6  C   UNL d   1      -2.494 -17.341  -0.172 -0.05 -0.02    -0.021 A 
DOCKED: ATOM      7  C   UNL d   1      -2.144 -16.751   1.026 -0.08 -0.03    -0.025 A 
DOCKED: ATOM      8  C   UNL d   1      -1.091 -15.881   0.724 -0.09 +0.06    +0.066 A 
DOCKED: ATOM      9  C   UNL d   1      -2.767 -16.985   2.411 -0.03 +0.06    +0.051 C 
DOCKED: ATOM     10  C   UNL d   1       0.572 -14.237   1.479 -0.12 +0.04    +0.066 A 
DOCKED: ATOM     11  C   UNL d   1       1.292 -13.539   2.472 -0.17 -0.01    -0.021 A 
DOCKED: ATOM     12  C   UNL d   1       2.234 -12.756   1.798 -0.20 +0.00    +0.000 A 
DOCKED: ATOM     13  C   UNL d   1       2.028 -13.045   0.448 -0.14 +0.02    +0.070 A 
DOCKED: ATOM     14  C   UNL d   1       1.138 -13.696   3.963 -0.20 +0.03    +0.052 C 
DOCKED: ATOM     15  C   UNL d   1       2.589 -12.556  -1.966 -0.14 +0.02    +0.066 A 
DOCKED: ATOM     16  C   UNL d   1       3.222 -11.775  -2.923 -0.24 -0.01    -0.021 A 
DOCKED: ATOM     17  C   UNL d   1       2.785 -12.263  -4.162 -0.27 +0.00    +0.000 A 
DOCKED: ATOM     18  C   UNL d   1       1.930 -13.318  -3.863 -0.17 +0.03    +0.070 A 
DOCKED: ATOM     19  C   UNL d   1       4.179 -10.639  -2.635 -0.25 +0.01    +0.052 C 
DOCKED: ATOM     20  C   UNL d   1       0.287 -15.104  -4.551 -0.16 +0.04    +0.066 A 
DOCKED: ATOM     21  C   UNL d   1      -0.387 -15.792  -5.558 -0.24 -0.02    -0.025 A 
DOCKED: ATOM     22  C   UNL d   1      -1.228 -16.676  -4.907 -0.15 -0.02    -0.021 A 
DOCKED: ATOM     23  C   UNL d   1      -1.032 -16.474  -3.524 -0.10 +0.07    +0.066 A 
DOCKED: ATOM     24  C   UNL d   1      -0.253 -15.602  -7.067 -0.26 +0.03    +0.051 C 
DOCKED: ATOM     25  N   UNL d   1      -0.760 -15.891  -0.620 -0.03 -0.20    -0.248 N 
DOCKED: ATOM     26  N   UNL d   1       1.061 -13.982   0.261 -0.05 -0.12    -0.248 N 
DOCKED: ATOM     27  N   UNL d   1       1.813 -13.444  -2.546 -0.05 -0.10    -0.248 N 
DOCKED: ATOM     28  N   UNL d   1      -0.118 -15.522  -3.305 -0.05 -0.20    -0.248 N 
DOCKED: ATOM     29 FE   UNL d   1       0.602 -14.597  -1.643 -0.02 +0.00    +0.000 Fe
DOCKED: ENDROOT
DOCKED: BRANCH   6  30
DOCKED: ATOM     30  C   UNL d   1      -3.637 -18.325  -0.398 -0.03 +0.05    +0.052 C 
DOCKED: BRANCH  30  31
DOCKED: ATOM     31  C   UNL d   1      -4.903 -17.588  -0.833 -0.06 +0.14    +0.115 C 
DOCKED: BRANCH  31  32
DOCKED: ATOM     32  C   UNL d   1      -4.821 -16.099  -0.574 -0.04 +0.26    +0.139 C 
DOCKED: ATOM     33  O   UNL d   1      -5.581 -15.587   0.235 -0.58 -1.39    -0.650 OA
DOCKED: BRANCH  32  34
DOCKED: ATOM     34  O   UNL d   1      -3.896 -15.315  -1.175 +0.17 -1.83    -0.776 OA
DOCKED: ATOM     35  H   UNL d   1      -3.443 -14.579  -0.742 +0.03 +0.33    +0.167 HD
DOCKED: ENDBRANCH  32  34
DOCKED: ENDBRANCH  31  32
DOCKED: ENDBRANCH  30  31
DOCKED: ENDBRANCH   6  30
DOCKED: BRANCH  29  36
DOCKED: ATOM     36  C   UNL d   1      -0.958 -13.199  -1.717 -0.17 +0.16    +0.190 C 
DOCKED: BRANCH  36  37
DOCKED: ATOM     37  O   UNL d   1      -2.339 -13.079  -1.904 -0.29 -0.58    -0.399 OA
DOCKED: ATOM     38  H   UNL d   1      -2.690 -14.010  -1.826 +0.05 +0.43    +0.209 HD
DOCKED: ENDBRANCH  36  37
DOCKED: ENDBRANCH  29  36
DOCKED: BRANCH  22  39
DOCKED: ATOM     39  C   UNL d   1      -2.211 -17.614  -5.582 -0.17 +0.06    +0.052 C 
DOCKED: BRANCH  39  40
DOCKED: ATOM     40  C   UNL d   1      -1.466 -18.707  -6.366 -0.09 +0.10    +0.115 C 
DOCKED: BRANCH  40  41
DOCKED: ATOM     41  C   UNL d   1      -2.325 -19.454  -7.365 -0.05 +0.19    +0.139 C 
DOCKED: ATOM     42  O   UNL d   1      -2.585 -18.931  -8.439 -0.44 -1.22    -0.650 OA
DOCKED: BRANCH  41  43
DOCKED: ATOM     43  O   UNL d   1      -2.739 -20.720  -7.139 -0.02 -0.99    -0.776 OA
DOCKED: ATOM     44  H   UNL d   1      -2.173 -21.387  -6.728 +0.01 +0.14    +0.167 HD
DOCKED: ENDBRANCH  41  43
DOCKED: ENDBRANCH  40  41
DOCKED: ENDBRANCH  39  40
DOCKED: ENDBRANCH  22  39
DOCKED: BRANCH  12  45
DOCKED: ATOM     45  C   UNL d   1       3.312 -11.790   2.271 -0.28 +0.00    +0.004 C 
DOCKED: ATOM     46  C   UNL d   1       3.610 -11.358   3.494 -0.28 +0.00    +0.012 C 
DOCKED: ENDBRANCH  12  45
DOCKED: BRANCH  17  47
DOCKED: ATOM     47  C   UNL d   1       3.084 -11.771  -5.540 -0.36 +0.00    +0.004 C 
DOCKED: ATOM     48  C   UNL d   1       3.759 -12.482  -6.447 -0.53 +0.00    +0.012 C 
DOCKED: ENDBRANCH  17  47
DOCKED: TORSDOF 12
DOCKED: TER
DOCKED: ENDMDL
________________________________________________________________________________


	BEGINNING GENETIC ALGORITHM DOCKING 46 of 100
Run: 46 Seed: 1454442368 1046737311 [ Run 46 of 100 GA/GALS ]
Beginning LAMARCKIAN GENETIC ALGORITHM (LGA), with a maximum of 25000000 energy evaluations.

Final-Value: -10.240


	FINAL GENETIC ALGORITHM DOCKED STATE
	_______________________________________________


Detailed state:  trans -12.377 -16.512 -8.925 quatxyzw -0.121561 -0.098216 0.866055 -0.474895 center 8.781 34.984 -0.736 ntor 12 87.2370 109.0830 -63.5645 115.0822 -94.5864 157.6627 -117.7480 155.3389 -49.6579 121.9341 -19.6089 -14.5627
State:	-12.377 -16.512  -8.925  -0.138 -0.112  0.984 -123.295     87.24  109.08  -63.56  115.08  -94.59  157.66 -117.75  155.34  -49.66  121.93  -19.61  -14.56

DOCKED: MODEL       46
DOCKED: USER    Run = 46
DOCKED: USER    DPF = D:/Protein_go_brrr/autodock/final/AncA/heme_Co/dock.dpf
DOCKED: USER  
DOCKED: USER    Estimated Free Energy of Binding    =   -5.82 kcal/mol  [=(1)+(2)+(3)-(4)]
DOCKED: USER    Estimated Inhibition Constant, Ki   =   53.84 uM (micromolar)  [Temperature = 298.15 K]
DOCKED: USER    
DOCKED: USER    (1) Final Intermolecular Energy     =   -9.40 kcal/mol
DOCKED: USER        vdW + Hbond + desolv Energy     =   -7.07 kcal/mol
DOCKED: USER        Electrostatic Energy            =   -2.34 kcal/mol
DOCKED: USER    (2) Final Total Internal Energy     =   -0.84 kcal/mol
DOCKED: USER    (3) Torsional Free Energy           =   +3.58 kcal/mol
DOCKED: USER    (4) Unbound System's Energy  [=(2)] =   -0.84 kcal/mol
DOCKED: USER    
DOCKED: USER    
DOCKED: USER    NEWDPF move heme_Co_opt.pdbqt
DOCKED: USER    NEWDPF about 8.781000 34.984000 -0.736000
DOCKED: USER    NEWDPF tran0 -12.377496 -16.511519 -8.924926
DOCKED: USER    NEWDPF quaternion0 -0.121561 -0.098216 0.866055 -0.474895
DOCKED: USER    NEWDPF axisangle0 -0.138131 -0.111604 0.984106 -123.294911
DOCKED: USER    NEWDPF quat0 -0.138131 -0.111604 0.984106 -123.294911
DOCKED: USER    NEWDPF dihe0 87.24 109.08 -63.56 115.08 -94.59 157.66 -117.75 155.34 -49.66 121.93 -19.61 -14.56 
DOCKED: USER  keepresnum = 1 
DOCKED: USER  
DOCKED: REMARK  12 active torsions:
DOCKED: REMARK  status: ('A' for Active; 'I' for Inactive)
DOCKED: REMARK    1  A    between atoms: C_6  and  C_10 
DOCKED: REMARK    2  A    between atoms: C_10  and  C_11 
DOCKED: REMARK    3  A    between atoms: C_11  and  C_12 
DOCKED: REMARK    4  A    between atoms: C_12  and  O_14 
DOCKED: REMARK    5  A    between atoms: C_17  and  C_20 
DOCKED: REMARK    6  A    between atoms: C_24  and  C_27 
DOCKED: REMARK    7  A    between atoms: C_31  and  C_34 
DOCKED: REMARK    8  A    between atoms: C_34  and  C_35 
DOCKED: REMARK    9  A    between atoms: C_35  and  C_36 
DOCKED: REMARK   10  A    between atoms: C_36  and  O_38 
DOCKED: REMARK   11  A    between atoms: FE_43  and  C_44 
DOCKED: REMARK   12  A    between atoms: C_44  and  O_45 
DOCKED: USER                              x       y       z     vdW  Elec       q    Type
DOCKED: USER                           _______ _______ _______ _____ _____    ______ ____
DOCKED: ROOT
DOCKED: ATOM      1  C   UNL d   1     -11.513 -18.367  -9.649 -0.15 +0.02    +0.064 A 
DOCKED: ATOM      2  C   UNL d   1     -11.177 -16.097  -5.484 -0.15 +0.02    +0.064 C 
DOCKED: ATOM      3  C   UNL d   1     -13.716 -12.444  -7.228 -0.18 +0.00    +0.064 A 
DOCKED: ATOM      4  C   UNL d   1     -14.400 -14.912 -11.364 -0.19 +0.03    +0.064 A 
DOCKED: ATOM      5  C   UNL d   1     -11.204 -17.999  -8.395 -0.16 +0.02    +0.066 A 
DOCKED: ATOM      6  C   UNL d   1     -10.510 -18.853  -7.515 -0.12 -0.01    -0.021 A 
DOCKED: ATOM      7  C   UNL d   1     -10.436 -18.198  -6.301 -0.11 -0.01    -0.025 A 
DOCKED: ATOM      8  C   UNL d   1     -11.072 -16.967  -6.496 -0.16 +0.02    +0.066 A 
DOCKED: ATOM      9  C   UNL d   1      -9.794 -18.699  -4.998 -0.06 +0.03    +0.051 C 
DOCKED: ATOM     10  C   UNL d   1     -11.790 -14.797  -5.598 -0.15 +0.02    +0.066 A 
DOCKED: ATOM     11  C   UNL d   1     -11.808 -13.784  -4.615 -0.06 -0.01    -0.021 A 
DOCKED: ATOM     12  C   UNL d   1     -12.552 -12.729  -5.152 -0.26 +0.00    +0.000 A 
DOCKED: ATOM     13  C   UNL d   1     -12.920 -13.170  -6.423 -0.24 +0.01    +0.070 A 
DOCKED: ATOM     14  C   UNL d   1     -11.077 -13.806  -3.298 -0.16 +0.02    +0.052 C 
DOCKED: ATOM     15  C   UNL d   1     -14.235 -12.767  -8.543 -0.24 +0.00    +0.066 A 
DOCKED: ATOM     16  C   UNL d   1     -15.170 -12.036  -9.261 -0.21 -0.00    -0.021 A 
DOCKED: ATOM     17  C   UNL d   1     -15.373 -12.745 -10.454 -0.20 +0.00    +0.000 A 
DOCKED: ATOM     18  C   UNL d   1     -14.529 -13.848 -10.376 -0.23 +0.02    +0.070 A 
DOCKED: ATOM     19  C   UNL d   1     -15.811 -10.745  -8.805 -0.19 +0.00    +0.052 C 
DOCKED: ATOM     20  C   UNL d   1     -13.652 -16.037 -11.272 -0.21 +0.03    +0.066 A 
DOCKED: ATOM     21  C   UNL d   1     -13.639 -17.005 -12.274 -0.17 -0.01    -0.025 A 
DOCKED: ATOM     22  C   UNL d   1     -12.792 -18.000 -11.820 -0.12 -0.01    -0.021 A 
DOCKED: ATOM     23  C   UNL d   1     -12.337 -17.592 -10.548 -0.16 +0.02    +0.066 A 
DOCKED: ATOM     24  C   UNL d   1     -14.410 -16.993 -13.591 -0.01 +0.04    +0.051 C 
DOCKED: ATOM     25  N   UNL d   1     -11.552 -16.815  -7.786 -0.12 -0.06    -0.248 N 
DOCKED: ATOM     26  N   UNL d   1     -12.412 -14.397  -6.713 -0.18 -0.04    -0.248 N 
DOCKED: ATOM     27  N   UNL d   1     -13.889 -13.845  -9.212 -0.17 -0.02    -0.248 N 
DOCKED: ATOM     28  N   UNL d   1     -12.857 -16.405 -10.212 -0.06 -0.05    -0.248 N 
DOCKED: ATOM     29 FE   UNL d   1     -12.790 -15.243  -8.544 -0.05 -0.00    +0.000 Fe
DOCKED: ENDROOT
DOCKED: BRANCH   6  30
DOCKED: ATOM     30  C   UNL d   1     -10.020 -20.265  -7.815 -0.08 +0.03    +0.052 C 
DOCKED: BRANCH  30  31
DOCKED: ATOM     31  C   UNL d   1      -8.950 -20.241  -8.907 -0.13 +0.10    +0.115 C 
DOCKED: BRANCH  31  32
DOCKED: ATOM     32  C   UNL d   1      -7.698 -20.990  -8.505 +0.16 +0.20    +0.139 C 
DOCKED: ATOM     33  O   UNL d   1      -7.401 -22.022  -9.089 -0.13 -0.77    -0.650 OA
DOCKED: BRANCH  32  34
DOCKED: ATOM     34  O   UNL d   1      -6.862 -20.529  -7.545 -0.49 -1.57    -0.776 OA
DOCKED: ATOM     35  H   UNL d   1      -6.997 -20.663  -6.597 +0.01 +0.20    +0.167 HD
DOCKED: ENDBRANCH  32  34
DOCKED: ENDBRANCH  31  32
DOCKED: ENDBRANCH  30  31
DOCKED: ENDBRANCH   6  30
DOCKED: BRANCH  29  36
DOCKED: ATOM     36  C   UNL d   1     -14.416 -16.283  -7.726 -0.05 +0.03    +0.190 C 
DOCKED: BRANCH  36  37
DOCKED: ATOM     37  O   UNL d   1     -14.752 -17.412  -6.973 -0.00 -0.08    -0.399 OA
DOCKED: ATOM     38  H   UNL d   1     -13.888 -17.892  -6.831 +0.02 +0.05    +0.209 HD
DOCKED: ENDBRANCH  36  37
DOCKED: ENDBRANCH  29  36
DOCKED: BRANCH  22  39
DOCKED: ATOM     39  C   UNL d   1     -12.493 -19.299 -12.544 -0.05 +0.02    +0.052 C 
DOCKED: BRANCH  39  40
DOCKED: ATOM     40  C   UNL d   1     -11.330 -19.113 -13.533 -0.07 +0.05    +0.115 C 
DOCKED: BRANCH  40  41
DOCKED: ATOM     41  C   UNL d   1     -11.616 -18.140 -14.658 -0.12 +0.07    +0.139 C 
DOCKED: ATOM     42  O   UNL d   1     -12.465 -18.422 -15.491 -0.00 -0.36    -0.650 OA
DOCKED: BRANCH  41  43
DOCKED: ATOM     43  O   UNL d   1     -11.020 -16.929 -14.717 -0.18 -0.47    -0.776 OA
DOCKED: ATOM     44  H   UNL d   1     -11.085 -16.282 -14.003 -0.46 +0.07    +0.167 HD
DOCKED: ENDBRANCH  41  43
DOCKED: ENDBRANCH  40  41
DOCKED: ENDBRANCH  39  40
DOCKED: ENDBRANCH  22  39
DOCKED: BRANCH  12  45
DOCKED: ATOM     45  C   UNL d   1     -12.938 -11.355  -4.620 -0.40 +0.00    +0.004 C 
DOCKED: ATOM     46  C   UNL d   1     -12.492 -10.144  -4.944 -0.38 +0.00    +0.012 C 
DOCKED: ENDBRANCH  12  45
DOCKED: BRANCH  17  47
DOCKED: ATOM     47  C   UNL d   1     -16.314 -12.469 -11.580 -0.16 +0.00    +0.004 C 
DOCKED: ATOM     48  C   UNL d   1     -17.316 -13.284 -11.920 -0.10 +0.01    +0.012 C 
DOCKED: ENDBRANCH  17  47
DOCKED: TORSDOF 12
DOCKED: TER
DOCKED: ENDMDL
________________________________________________________________________________


	BEGINNING GENETIC ALGORITHM DOCKING 47 of 100
Run: 47 Seed: 1598033996 2142301151 [ Run 47 of 100 GA/GALS ]
Beginning LAMARCKIAN GENETIC ALGORITHM (LGA), with a maximum of 25000000 energy evaluations.

Final-Value: -10.934


	FINAL GENETIC ALGORITHM DOCKED STATE
	_______________________________________________


Detailed state:  trans -4.864 -0.116 -16.312 quatxyzw -0.416010 0.773863 -0.078524 -0.471069 center 8.781 34.984 -0.736 ntor 12 -37.3770 98.3779 173.1842 -114.1039 98.3894 120.5156 -88.7419 -52.8892 -15.5232 86.1159 168.6464 164.1261
State:	 -4.864  -0.116 -16.312  -0.472  0.877 -0.089 -123.793    -37.38   98.38  173.18 -114.10   98.39  120.52  -88.74  -52.89  -15.52   86.12  168.65  164.13

DOCKED: MODEL       47
DOCKED: USER    Run = 47
DOCKED: USER    DPF = D:/Protein_go_brrr/autodock/final/AncA/heme_Co/dock.dpf
DOCKED: USER  
DOCKED: USER    Estimated Free Energy of Binding    =   -5.01 kcal/mol  [=(1)+(2)+(3)-(4)]
DOCKED: USER    Estimated Inhibition Constant, Ki   =  211.07 uM (micromolar)  [Temperature = 298.15 K]
DOCKED: USER    
DOCKED: USER    (1) Final Intermolecular Energy     =   -8.59 kcal/mol
DOCKED: USER        vdW + Hbond + desolv Energy     =   -7.78 kcal/mol
DOCKED: USER        Electrostatic Energy            =   -0.82 kcal/mol
DOCKED: USER    (2) Final Total Internal Energy     =   -2.34 kcal/mol
DOCKED: USER    (3) Torsional Free Energy           =   +3.58 kcal/mol
DOCKED: USER    (4) Unbound System's Energy  [=(2)] =   -2.34 kcal/mol
DOCKED: USER    
DOCKED: USER    
DOCKED: USER    NEWDPF move heme_Co_opt.pdbqt
DOCKED: USER    NEWDPF about 8.781000 34.984000 -0.736000
DOCKED: USER    NEWDPF tran0 -4.863806 -0.116397 -16.312421
DOCKED: USER    NEWDPF quaternion0 -0.416010 0.773863 -0.078524 -0.471069
DOCKED: USER    NEWDPF axisangle0 -0.471615 0.877300 -0.089019 -123.792564
DOCKED: USER    NEWDPF quat0 -0.471615 0.877300 -0.089019 -123.792564
DOCKED: USER    NEWDPF dihe0 -37.38 98.38 173.18 -114.10 98.39 120.52 -88.74 -52.89 -15.52 86.12 168.65 164.13 
DOCKED: USER  keepresnum = 1 
DOCKED: USER  
DOCKED: REMARK  12 active torsions:
DOCKED: REMARK  status: ('A' for Active; 'I' for Inactive)
DOCKED: REMARK    1  A    between atoms: C_6  and  C_10 
DOCKED: REMARK    2  A    between atoms: C_10  and  C_11 
DOCKED: REMARK    3  A    between atoms: C_11  and  C_12 
DOCKED: REMARK    4  A    between atoms: C_12  and  O_14 
DOCKED: REMARK    5  A    between atoms: C_17  and  C_20 
DOCKED: REMARK    6  A    between atoms: C_24  and  C_27 
DOCKED: REMARK    7  A    between atoms: C_31  and  C_34 
DOCKED: REMARK    8  A    between atoms: C_34  and  C_35 
DOCKED: REMARK    9  A    between atoms: C_35  and  C_36 
DOCKED: REMARK   10  A    between atoms: C_36  and  O_38 
DOCKED: REMARK   11  A    between atoms: FE_43  and  C_44 
DOCKED: REMARK   12  A    between atoms: C_44  and  O_45 
DOCKED: USER                              x       y       z     vdW  Elec       q    Type
DOCKED: USER                           _______ _______ _______ _____ _____    ______ ____
DOCKED: ROOT
DOCKED: ATOM      1  C   UNL d   1      -5.417   1.363 -14.822 -0.21 -0.00    +0.064 A 
DOCKED: ATOM      2  C   UNL d   1      -1.198  -0.237 -16.323 -0.28 +0.00    +0.064 C 
DOCKED: ATOM      3  C   UNL d   1      -3.368  -3.465 -19.099 -0.27 -0.01    +0.064 A 
DOCKED: ATOM      4  C   UNL d   1      -7.688  -1.593 -17.876 -0.14 -0.01    +0.064 A 
DOCKED: ATOM      5  C   UNL d   1      -4.105   1.139 -15.001 -0.18 -0.00    +0.066 A 
DOCKED: ATOM      6  C   UNL d   1      -3.120   1.945 -14.398 -0.18 +0.00    -0.021 A 
DOCKED: ATOM      7  C   UNL d   1      -1.898   1.491 -14.855 -0.24 +0.00    -0.025 A 
DOCKED: ATOM      8  C   UNL d   1      -2.189   0.417 -15.703 -0.21 -0.00    +0.066 A 
DOCKED: ATOM      9  C   UNL d   1      -0.503   2.037 -14.516 -0.16 -0.00    +0.051 C 
DOCKED: ATOM     10  C   UNL d   1      -1.399  -1.370 -17.192 -0.17 +0.00    +0.066 A 
DOCKED: ATOM     11  C   UNL d   1      -0.396  -2.186 -17.760 -0.33 +0.00    -0.021 A 
DOCKED: ATOM     12  C   UNL d   1      -1.057  -3.121 -18.562 -0.26 -0.00    +0.000 A 
DOCKED: ATOM     13  C   UNL d   1      -2.410  -2.816 -18.414 -0.24 -0.01    +0.070 A 
DOCKED: ATOM     14  C   UNL d   1       1.081  -2.118 -17.467 -0.34 -0.01    +0.052 C 
DOCKED: ATOM     15  C   UNL d   1      -4.801  -3.247 -19.107 -0.22 -0.01    +0.066 A 
DOCKED: ATOM     16  C   UNL d   1      -5.722  -3.857 -19.948 -0.23 +0.01    -0.021 A 
DOCKED: ATOM     17  C   UNL d   1      -6.969  -3.318 -19.600 -0.18 -0.00    +0.000 A 
DOCKED: ATOM     18  C   UNL d   1      -6.712  -2.432 -18.560 -0.15 -0.01    +0.070 A 
DOCKED: ATOM     19  C   UNL d   1      -5.395  -4.885 -21.007 -0.20 -0.03    +0.052 C 
DOCKED: ATOM     20  C   UNL d   1      -7.450  -0.662 -16.921 -0.17 -0.01    +0.066 A 
DOCKED: ATOM     21  C   UNL d   1      -8.469   0.108 -16.364 -0.23 +0.01    -0.025 A 
DOCKED: ATOM     22  C   UNL d   1      -7.847   0.950 -15.459 -0.28 +0.01    -0.021 A 
DOCKED: ATOM     23  C   UNL d   1      -6.468   0.657 -15.519 -0.14 -0.01    +0.066 A 
DOCKED: ATOM     24  C   UNL d   1      -9.959   0.060 -16.691 -0.19 -0.03    +0.051 C 
DOCKED: ATOM     25  N   UNL d   1      -3.548   0.172 -15.807 -0.12 +0.01    -0.248 N 
DOCKED: ATOM     26  N   UNL d   1      -2.618  -1.793 -17.542 -0.14 +0.01    -0.248 N 
DOCKED: ATOM     27  N   UNL d   1      -5.407  -2.392 -18.313 -0.12 +0.03    -0.248 N 
DOCKED: ATOM     28  N   UNL d   1      -6.223  -0.316 -16.404 -0.08 +0.02    -0.248 N 
DOCKED: ATOM     29 FE   UNL d   1      -4.536  -1.185 -17.133 -0.05 -0.00    +0.000 Fe
DOCKED: ENDROOT
DOCKED: BRANCH   6  30
DOCKED: ATOM     30  C   UNL d   1      -3.359   3.148 -13.491 -0.17 +0.00    +0.052 C 
DOCKED: BRANCH  30  31
DOCKED: ATOM     31  C   UNL d   1      -3.036   4.448 -14.227 -0.06 +0.02    +0.115 C 
DOCKED: BRANCH  31  32
DOCKED: ATOM     32  C   UNL d   1      -3.639   5.660 -13.550 -0.10 +0.04    +0.139 C 
DOCKED: ATOM     33  O   UNL d   1      -3.004   6.703 -13.507 -0.03 -0.30    -0.650 OA
DOCKED: BRANCH  32  34
DOCKED: ATOM     34  O   UNL d   1      -4.887   5.643 -13.028 +0.04 -0.32    -0.776 OA
DOCKED: ATOM     35  H   UNL d   1      -5.650   5.228 -13.454 +0.05 +0.05    +0.167 HD
DOCKED: ENDBRANCH  32  34
DOCKED: ENDBRANCH  31  32
DOCKED: ENDBRANCH  30  31
DOCKED: ENDBRANCH   6  30
DOCKED: BRANCH  29  36
DOCKED: ATOM     36  C   UNL d   1      -4.373   0.305 -18.599 -0.03 -0.01    +0.190 C 
DOCKED: BRANCH  36  37
DOCKED: ATOM     37  O   UNL d   1      -4.388   1.691 -18.785 +0.00 +0.00    -0.399 OA
DOCKED: ATOM     38  H   UNL d   1      -4.767   2.060 -17.939 +0.02 -0.00    +0.209 HD
DOCKED: ENDBRANCH  36  37
DOCKED: ENDBRANCH  29  36
DOCKED: BRANCH  22  39
DOCKED: ATOM     39  C   UNL d   1      -8.539   2.019 -14.634 -0.26 -0.01    +0.052 C 
DOCKED: BRANCH  39  40
DOCKED: ATOM     40  C   UNL d   1      -8.463   3.383 -15.339 -0.16 -0.01    +0.115 C 
DOCKED: BRANCH  40  41
DOCKED: ATOM     41  C   UNL d   1      -7.375   4.297 -14.816 -0.14 +0.01    +0.139 C 
DOCKED: ATOM     42  O   UNL d   1      -6.240   4.191 -15.260 +0.04 -0.05    -0.650 OA
DOCKED: BRANCH  41  43
DOCKED: ATOM     43  O   UNL d   1      -7.641   5.286 -13.935 -0.50 -0.23    -0.776 OA
DOCKED: ATOM     44  H   UNL d   1      -6.955   5.872 -13.589 +0.04 +0.06    +0.167 HD
DOCKED: ENDBRANCH  41  43
DOCKED: ENDBRANCH  40  41
DOCKED: ENDBRANCH  39  40
DOCKED: ENDBRANCH  22  39
DOCKED: BRANCH  12  45
DOCKED: ATOM     45  C   UNL d   1      -0.570  -4.273 -19.430 -0.28 -0.00    +0.004 C 
DOCKED: ATOM     46  C   UNL d   1      -0.746  -4.515 -20.726 -0.21 -0.00    +0.012 C 
DOCKED: ENDBRANCH  12  45
DOCKED: BRANCH  17  47
DOCKED: ATOM     47  C   UNL d   1      -8.312  -3.554 -20.209 -0.14 -0.00    +0.004 C 
DOCKED: ATOM     48  C   UNL d   1      -9.038  -4.653 -19.990 -0.19 -0.01    +0.012 C 
DOCKED: ENDBRANCH  17  47
DOCKED: TORSDOF 12
DOCKED: TER
DOCKED: ENDMDL
________________________________________________________________________________


	BEGINNING GENETIC ALGORITHM DOCKING 48 of 100
Run: 48 Seed: 369590509 1892436860 [ Run 48 of 100 GA/GALS ]
Beginning LAMARCKIAN GENETIC ALGORITHM (LGA), with a maximum of 25000000 energy evaluations.

Final-Value: -9.921


	FINAL GENETIC ALGORITHM DOCKED STATE
	_______________________________________________


Detailed state:  trans -20.786 4.433 -2.079 quatxyzw -0.604318 0.119770 0.435084 -0.656626 center 8.781 34.984 -0.736 ntor 12 -12.3143 108.5336 77.5956 115.4692 75.6018 161.6529 180.0000 -80.3270 -144.6583 -90.2655 -30.2752 -12.6769
State:	-20.786   4.433  -2.079  -0.801  0.159  0.577 -97.914    -12.31  108.53   77.60  115.47   75.60  161.65  180.00  -80.33 -144.66  -90.27  -30.28  -12.68

DOCKED: MODEL       48
DOCKED: USER    Run = 48
DOCKED: USER    DPF = D:/Protein_go_brrr/autodock/final/AncA/heme_Co/dock.dpf
DOCKED: USER  
DOCKED: USER    Estimated Free Energy of Binding    =   -4.16 kcal/mol  [=(1)+(2)+(3)-(4)]
DOCKED: USER    Estimated Inhibition Constant, Ki   =  888.09 uM (micromolar)  [Temperature = 298.15 K]
DOCKED: USER    
DOCKED: USER    (1) Final Intermolecular Energy     =   -7.74 kcal/mol
DOCKED: USER        vdW + Hbond + desolv Energy     =   -5.92 kcal/mol
DOCKED: USER        Electrostatic Energy            =   -1.82 kcal/mol
DOCKED: USER    (2) Final Total Internal Energy     =   -2.18 kcal/mol
DOCKED: USER    (3) Torsional Free Energy           =   +3.58 kcal/mol
DOCKED: USER    (4) Unbound System's Energy  [=(2)] =   -2.18 kcal/mol
DOCKED: USER    
DOCKED: USER    
DOCKED: USER    NEWDPF move heme_Co_opt.pdbqt
DOCKED: USER    NEWDPF about 8.781000 34.984000 -0.736000
DOCKED: USER    NEWDPF tran0 -20.786336 4.433456 -2.078619
DOCKED: USER    NEWDPF quaternion0 -0.604318 0.119770 0.435084 -0.656626
DOCKED: USER    NEWDPF axisangle0 -0.801252 0.158800 0.576868 -97.913909
DOCKED: USER    NEWDPF quat0 -0.801252 0.158800 0.576868 -97.913909
DOCKED: USER    NEWDPF dihe0 -12.31 108.53 77.60 115.47 75.60 161.65 180.00 -80.33 -144.66 -90.27 -30.28 -12.68 
DOCKED: USER  keepresnum = 1 
DOCKED: USER  
DOCKED: REMARK  12 active torsions:
DOCKED: REMARK  status: ('A' for Active; 'I' for Inactive)
DOCKED: REMARK    1  A    between atoms: C_6  and  C_10 
DOCKED: REMARK    2  A    between atoms: C_10  and  C_11 
DOCKED: REMARK    3  A    between atoms: C_11  and  C_12 
DOCKED: REMARK    4  A    between atoms: C_12  and  O_14 
DOCKED: REMARK    5  A    between atoms: C_17  and  C_20 
DOCKED: REMARK    6  A    between atoms: C_24  and  C_27 
DOCKED: REMARK    7  A    between atoms: C_31  and  C_34 
DOCKED: REMARK    8  A    between atoms: C_34  and  C_35 
DOCKED: REMARK    9  A    between atoms: C_35  and  C_36 
DOCKED: REMARK   10  A    between atoms: C_36  and  O_38 
DOCKED: REMARK   11  A    between atoms: FE_43  and  C_44 
DOCKED: REMARK   12  A    between atoms: C_44  and  O_45 
DOCKED: USER                              x       y       z     vdW  Elec       q    Type
DOCKED: USER                           _______ _______ _______ _____ _____    ______ ____
DOCKED: ROOT
DOCKED: ATOM      1  C   UNL d   1     -21.977   2.790  -1.306 -0.10 +0.02    +0.064 A 
DOCKED: ATOM      2  C   UNL d   1     -20.703   6.971   0.568 -0.09 +0.01    +0.064 C 
DOCKED: ATOM      3  C   UNL d   1     -17.990   7.899  -3.254 -0.18 +0.00    +0.064 A 
DOCKED: ATOM      4  C   UNL d   1     -19.580   3.812  -5.359 -0.21 +0.01    +0.064 A 
DOCKED: ATOM      5  C   UNL d   1     -21.800   3.848  -0.497 -0.08 +0.02    +0.066 A 
DOCKED: ATOM      6  C   UNL d   1     -22.498   3.985   0.719 -0.08 -0.01    -0.021 A 
DOCKED: ATOM      7  C   UNL d   1     -22.142   5.210   1.247 -0.07 -0.01    -0.025 A 
DOCKED: ATOM      8  C   UNL d   1     -21.230   5.761   0.340 -0.05 +0.02    +0.066 A 
DOCKED: ATOM      9  C   UNL d   1     -22.633   5.852   2.554 -0.03 +0.01    +0.051 C 
DOCKED: ATOM     10  C   UNL d   1     -19.738   7.606  -0.294 -0.08 +0.01    +0.066 A 
DOCKED: ATOM     11  C   UNL d   1     -19.043   8.809  -0.041 -0.11 -0.00    -0.021 A 
DOCKED: ATOM     12  C   UNL d   1     -18.256   9.054  -1.170 -0.14 +0.00    +0.000 A 
DOCKED: ATOM     13  C   UNL d   1     -18.518   7.979  -2.020 -0.15 +0.00    +0.070 A 
DOCKED: ATOM     14  C   UNL d   1     -19.072   9.603   1.240 -0.07 +0.00    +0.052 C 
DOCKED: ATOM     15  C   UNL d   1     -18.193   6.893  -4.278 -0.21 +0.00    +0.066 A 
DOCKED: ATOM     16  C   UNL d   1     -17.731   6.945  -5.586 -0.17 +0.00    -0.021 A 
DOCKED: ATOM     17  C   UNL d   1     -18.189   5.769  -6.197 -0.19 -0.00    +0.000 A 
DOCKED: ATOM     18  C   UNL d   1     -18.883   5.083  -5.206 -0.24 +0.00    +0.070 A 
DOCKED: ATOM     19  C   UNL d   1     -16.907   8.065  -6.181 -0.12 +0.00    +0.052 C 
DOCKED: ATOM     20  C   UNL d   1     -20.332   3.168  -4.435 -0.26 +0.01    +0.066 A 
DOCKED: ATOM     21  C   UNL d   1     -20.984   1.968  -4.711 -0.21 -0.00    -0.025 A 
DOCKED: ATOM     22  C   UNL d   1     -21.659   1.635  -3.552 -0.18 -0.00    -0.021 A 
DOCKED: ATOM     23  C   UNL d   1     -21.394   2.662  -2.622 -0.16 +0.01    +0.066 A 
DOCKED: ATOM     24  C   UNL d   1     -20.979   1.187  -6.023 -0.17 +0.01    +0.051 C 
DOCKED: ATOM     25  N   UNL d   1     -20.995   4.936  -0.747 +0.02 -0.07    -0.248 N 
DOCKED: ATOM     26  N   UNL d   1     -19.371   7.077  -1.466 -0.05 -0.03    -0.248 N 
DOCKED: ATOM     27  N   UNL d   1     -18.890   5.796  -4.085 -0.20 -0.01    -0.248 N 
DOCKED: ATOM     28  N   UNL d   1     -20.593   3.594  -3.153 -0.14 -0.05    -0.248 N 
DOCKED: ATOM     29 FE   UNL d   1     -19.881   5.388  -2.516 -0.06 +0.00    +0.000 Fe
DOCKED: ENDROOT
DOCKED: BRANCH   6  30
DOCKED: ATOM     30  C   UNL d   1     -23.521   3.012   1.295 -0.04 +0.01    +0.052 C 
DOCKED: BRANCH  30  31
DOCKED: ATOM     31  C   UNL d   1     -22.934   1.603   1.381 -0.06 +0.05    +0.115 C 
DOCKED: BRANCH  31  32
DOCKED: ATOM     32  C   UNL d   1     -21.450   1.614   1.679 -0.09 +0.14    +0.139 C 
DOCKED: ATOM     33  O   UNL d   1     -21.030   2.278   2.615 -0.43 -0.92    -0.650 OA
DOCKED: BRANCH  32  34
DOCKED: ATOM     34  O   UNL d   1     -20.570   0.870   0.969 -0.24 -0.87    -0.776 OA
DOCKED: ATOM     35  H   UNL d   1     -20.819   0.129   0.399 +0.05 +0.12    +0.167 HD
DOCKED: ENDBRANCH  32  34
DOCKED: ENDBRANCH  31  32
DOCKED: ENDBRANCH  30  31
DOCKED: ENDBRANCH   6  30
DOCKED: BRANCH  29  36
DOCKED: ATOM     36  C   UNL d   1     -21.605   6.349  -3.221 -0.05 +0.02    +0.190 C 
DOCKED: BRANCH  36  37
DOCKED: ATOM     37  O   UNL d   1     -22.891   6.749  -2.843 -0.00 -0.04    -0.399 OA
DOCKED: ATOM     38  H   UNL d   1     -23.012   6.386  -1.921 +0.01 +0.02    +0.209 HD
DOCKED: ENDBRANCH  36  37
DOCKED: ENDBRANCH  29  36
DOCKED: BRANCH  22  39
DOCKED: ATOM     39  C   UNL d   1     -22.561   0.427  -3.376 -0.10 +0.01    +0.052 C 
DOCKED: BRANCH  39  40
DOCKED: ATOM     40  C   UNL d   1     -21.751  -0.792  -2.905 -0.17 +0.02    +0.115 C 
DOCKED: BRANCH  40  41
DOCKED: ATOM     41  C   UNL d   1     -21.526  -0.853  -1.409 -0.19 +0.03    +0.139 C 
DOCKED: ATOM     42  O   UNL d   1     -22.492  -0.864  -0.659 +0.04 -0.17    -0.650 OA
DOCKED: BRANCH  41  43
DOCKED: ATOM     43  O   UNL d   1     -20.289  -0.984  -0.881 -0.00 -0.25    -0.776 OA
DOCKED: ATOM     44  H   UNL d   1     -19.704  -0.229  -0.735 -0.22 +0.05    +0.167 HD
DOCKED: ENDBRANCH  41  43
DOCKED: ENDBRANCH  40  41
DOCKED: ENDBRANCH  39  40
DOCKED: ENDBRANCH  22  39
DOCKED: BRANCH  12  45
DOCKED: ATOM     45  C   UNL d   1     -17.278  10.163  -1.533 -0.12 -0.00    +0.004 C 
DOCKED: ATOM     46  C   UNL d   1     -15.950  10.157  -1.606 -0.18 -0.00    +0.012 C 
DOCKED: ENDBRANCH  12  45
DOCKED: BRANCH  17  47
DOCKED: ATOM     47  C   UNL d   1     -18.051   5.315  -7.613 -0.17 +0.00    +0.004 C 
DOCKED: ATOM     48  C   UNL d   1     -16.880   5.225  -8.248 -0.17 +0.00    +0.012 C 
DOCKED: ENDBRANCH  17  47
DOCKED: TORSDOF 12
DOCKED: TER
DOCKED: ENDMDL
________________________________________________________________________________


	BEGINNING GENETIC ALGORITHM DOCKING 49 of 100
Run: 49 Seed: 1552391419 671901078 [ Run 49 of 100 GA/GALS ]
Beginning LAMARCKIAN GENETIC ALGORITHM (LGA), with a maximum of 25000000 energy evaluations.

Final-Value: -10.401


	FINAL GENETIC ALGORITHM DOCKED STATE
	_______________________________________________


Detailed state:  trans 1.886 -18.605 -6.985 quatxyzw 0.630218 -0.326080 -0.026009 -0.704145 center 8.781 34.984 -0.736 ntor 12 0.2954 112.9223 -148.1182 -97.1413 -88.7563 128.2848 63.0409 -171.2358 154.3295 115.2292 -155.7495 175.8124
State:	  1.886 -18.605  -6.985   0.888 -0.459 -0.037 -90.479      0.30  112.92 -148.12  -97.14  -88.76  128.28   63.04 -171.24  154.33  115.23 -155.75  175.81

DOCKED: MODEL       49
DOCKED: USER    Run = 49
DOCKED: USER    DPF = D:/Protein_go_brrr/autodock/final/AncA/heme_Co/dock.dpf
DOCKED: USER  
DOCKED: USER    Estimated Free Energy of Binding    =   -3.70 kcal/mol  [=(1)+(2)+(3)-(4)]
DOCKED: USER    Estimated Inhibition Constant, Ki   =    1.94 mM (millimolar)  [Temperature = 298.15 K]
DOCKED: USER    
DOCKED: USER    (1) Final Intermolecular Energy     =   -7.28 kcal/mol
DOCKED: USER        vdW + Hbond + desolv Energy     =   -3.94 kcal/mol
DOCKED: USER        Electrostatic Energy            =   -3.34 kcal/mol
DOCKED: USER    (2) Final Total Internal Energy     =   -3.12 kcal/mol
DOCKED: USER    (3) Torsional Free Energy           =   +3.58 kcal/mol
DOCKED: USER    (4) Unbound System's Energy  [=(2)] =   -3.12 kcal/mol
DOCKED: USER    
DOCKED: USER    
DOCKED: USER    NEWDPF move heme_Co_opt.pdbqt
DOCKED: USER    NEWDPF about 8.781000 34.984000 -0.736000
DOCKED: USER    NEWDPF tran0 1.885569 -18.605472 -6.985041
DOCKED: USER    NEWDPF quaternion0 0.630218 -0.326080 -0.026009 -0.704145
DOCKED: USER    NEWDPF axisangle0 0.887561 -0.459231 -0.036630 -90.478983
DOCKED: USER    NEWDPF quat0 0.887561 -0.459231 -0.036630 -90.478983
DOCKED: USER    NEWDPF dihe0 0.30 112.92 -148.12 -97.14 -88.76 128.28 63.04 -171.24 154.33 115.23 -155.75 175.81 
DOCKED: USER  keepresnum = 1 
DOCKED: USER  
DOCKED: REMARK  12 active torsions:
DOCKED: REMARK  status: ('A' for Active; 'I' for Inactive)
DOCKED: REMARK    1  A    between atoms: C_6  and  C_10 
DOCKED: REMARK    2  A    between atoms: C_10  and  C_11 
DOCKED: REMARK    3  A    between atoms: C_11  and  C_12 
DOCKED: REMARK    4  A    between atoms: C_12  and  O_14 
DOCKED: REMARK    5  A    between atoms: C_17  and  C_20 
DOCKED: REMARK    6  A    between atoms: C_24  and  C_27 
DOCKED: REMARK    7  A    between atoms: C_31  and  C_34 
DOCKED: REMARK    8  A    between atoms: C_34  and  C_35 
DOCKED: REMARK    9  A    between atoms: C_35  and  C_36 
DOCKED: REMARK   10  A    between atoms: C_36  and  O_38 
DOCKED: REMARK   11  A    between atoms: FE_43  and  C_44 
DOCKED: REMARK   12  A    between atoms: C_44  and  O_45 
DOCKED: USER                              x       y       z     vdW  Elec       q    Type
DOCKED: USER                           _______ _______ _______ _____ _____    ______ ____
DOCKED: ROOT
DOCKED: ATOM      1  C   UNL d   1       0.596 -16.897  -7.353 -0.11 +0.04    +0.064 A 
DOCKED: ATOM      2  C   UNL d   1       0.744 -21.256  -9.248 -0.03 +0.04    +0.064 C 
DOCKED: ATOM      3  C   UNL d   1       4.685 -22.255  -6.738 -0.04 +0.05    +0.064 A 
DOCKED: ATOM      4  C   UNL d   1       4.334 -17.950  -4.500 -0.06 +0.04    +0.064 A 
DOCKED: ATOM      5  C   UNL d   1       0.368 -18.002  -8.082 -0.17 +0.04    +0.066 A 
DOCKED: ATOM      6  C   UNL d   1      -0.763 -18.129  -8.912 -0.22 -0.01    -0.021 A 
DOCKED: ATOM      7  C   UNL d   1      -0.727 -19.404  -9.442 -0.12 -0.02    -0.025 A 
DOCKED: ATOM      8  C   UNL d   1       0.431 -19.994  -8.926 -0.07 +0.04    +0.066 A 
DOCKED: ATOM      9  C   UNL d   1      -1.738 -20.056 -10.397 -0.11 +0.05    +0.051 C 
DOCKED: ATOM     10  C   UNL d   1       1.928 -21.937  -8.788 -0.03 +0.04    +0.066 A 
DOCKED: ATOM     11  C   UNL d   1       2.384 -23.208  -9.200 -0.01 -0.01    -0.021 A 
DOCKED: ATOM     12  C   UNL d   1       3.537 -23.473  -8.455 -0.01 +0.00    +0.000 A 
DOCKED: ATOM     13  C   UNL d   1       3.705 -22.342  -7.655 -0.05 +0.05    +0.070 A 
DOCKED: ATOM     14  C   UNL d   1       1.797 -24.053 -10.301 +0.00 +0.02    +0.052 C 
DOCKED: ATOM     15  C   UNL d   1       4.972 -21.190  -5.797 -0.05 +0.06    +0.066 A 
DOCKED: ATOM     16  C   UNL d   1       5.911 -21.224  -4.776 -0.02 -0.01    -0.021 A 
DOCKED: ATOM     17  C   UNL d   1       5.812 -19.986  -4.126 -0.03 +0.00    +0.000 A 
DOCKED: ATOM     18  C   UNL d   1       4.828 -19.284  -4.815 -0.06 +0.06    +0.070 A 
DOCKED: ATOM     19  C   UNL d   1       6.828 -22.386  -4.468 -0.00 +0.02    +0.052 C 
DOCKED: ATOM     20  C   UNL d   1       3.321 -17.282  -5.101 -0.09 +0.04    +0.066 A 
DOCKED: ATOM     21  C   UNL d   1       2.913 -16.017  -4.684 -0.10 -0.01    -0.025 A 
DOCKED: ATOM     22  C   UNL d   1       1.856 -15.676  -5.508 -0.18 -0.01    -0.021 A 
DOCKED: ATOM     23  C   UNL d   1       1.661 -16.764  -6.385 -0.10 +0.04    +0.066 A 
DOCKED: ATOM     24  C   UNL d   1       3.489 -15.181  -3.545 -0.06 +0.02    +0.051 C 
DOCKED: ATOM     25  N   UNL d   1       1.133 -19.146  -8.086 -0.09 -0.18    -0.248 N 
DOCKED: ATOM     26  N   UNL d   1       2.764 -21.391  -7.898 -0.06 -0.21    -0.248 N 
DOCKED: ATOM     27  N   UNL d   1       4.329 -20.043  -5.785 -0.05 -0.29    -0.248 N 
DOCKED: ATOM     28  N   UNL d   1       2.544 -17.739  -6.141 -0.09 -0.20    -0.248 N 
DOCKED: ATOM     29 FE   UNL d   1       2.826 -19.618  -6.866 -0.02 +0.00    +0.000 Fe
DOCKED: ENDROOT
DOCKED: BRANCH   6  30
DOCKED: ATOM     30  C   UNL d   1      -1.865 -17.094  -9.113 -0.41 +0.04    +0.052 C 
DOCKED: BRANCH  30  31
DOCKED: ATOM     31  C   UNL d   1      -2.737 -16.987  -7.863 -0.29 +0.13    +0.115 C 
DOCKED: BRANCH  31  32
DOCKED: ATOM     32  C   UNL d   1      -2.766 -18.275  -7.068 -0.15 +0.19    +0.139 C 
DOCKED: ATOM     33  O   UNL d   1      -3.292 -19.267  -7.549 -0.32 -1.47    -0.650 OA
DOCKED: BRANCH  32  34
DOCKED: ATOM     34  O   UNL d   1      -2.181 -18.381  -5.852 +0.04 -0.77    -0.776 OA
DOCKED: ATOM     35  H   UNL d   1      -1.667 -17.677  -5.432 +0.04 +0.16    +0.167 HD
DOCKED: ENDBRANCH  32  34
DOCKED: ENDBRANCH  31  32
DOCKED: ENDBRANCH  30  31
DOCKED: ENDBRANCH   6  30
DOCKED: BRANCH  29  36
DOCKED: ATOM     36  C   UNL d   1       1.464 -20.386  -5.469 -0.01 +0.11    +0.190 C 
DOCKED: BRANCH  36  37
DOCKED: ATOM     37  O   UNL d   1       0.143 -20.274  -5.023 +0.01 -0.22    -0.399 OA
DOCKED: ATOM     38  H   UNL d   1      -0.261 -19.563  -5.594 +0.03 +0.13    +0.209 HD
DOCKED: ENDBRANCH  36  37
DOCKED: ENDBRANCH  29  36
DOCKED: BRANCH  22  39
DOCKED: ATOM     39  C   UNL d   1       1.039 -14.401  -5.408 -0.32 +0.03    +0.052 C 
DOCKED: BRANCH  39  40
DOCKED: ATOM     40  C   UNL d   1      -0.054 -14.539  -4.336 -0.21 +0.09    +0.115 C 
DOCKED: BRANCH  40  41
DOCKED: ATOM     41  C   UNL d   1      -1.178 -15.483  -4.708 -0.16 +0.15    +0.139 C 
DOCKED: ATOM     42  O   UNL d   1      -1.517 -15.578  -5.879 +0.22 -0.67    -0.650 OA
DOCKED: BRANCH  41  43
DOCKED: ATOM     43  O   UNL d   1      -1.759 -16.290  -3.793 -0.39 -1.16    -0.776 OA
DOCKED: ATOM     44  H   UNL d   1      -2.033 -17.194  -3.997 +0.02 +0.22    +0.167 HD
DOCKED: ENDBRANCH  41  43
DOCKED: ENDBRANCH  40  41
DOCKED: ENDBRANCH  39  40
DOCKED: ENDBRANCH  22  39
DOCKED: BRANCH  12  45
DOCKED: ATOM     45  C   UNL d   1       4.504 -24.649  -8.420 -0.00 +0.00    +0.004 C 
DOCKED: ATOM     46  C   UNL d   1       4.658 -25.617  -7.521 +0.00 +0.00    +0.012 C 
DOCKED: ENDBRANCH  12  45
DOCKED: BRANCH  17  47
DOCKED: ATOM     47  C   UNL d   1       6.530 -19.483  -2.917 -0.00 +0.00    +0.004 C 
DOCKED: ATOM     48  C   UNL d   1       5.938 -19.281  -1.738 +0.00 +0.00    +0.012 C 
DOCKED: ENDBRANCH  17  47
DOCKED: TORSDOF 12
DOCKED: TER
DOCKED: ENDMDL
________________________________________________________________________________


	BEGINNING GENETIC ALGORITHM DOCKING 50 of 100
Run: 50 Seed: 19003715 940574879 [ Run 50 of 100 GA/GALS ]
Beginning LAMARCKIAN GENETIC ALGORITHM (LGA), with a maximum of 25000000 energy evaluations.

Final-Value: -12.721


	FINAL GENETIC ALGORITHM DOCKED STATE
	_______________________________________________


Detailed state:  trans -0.493 -15.589 -1.860 quatxyzw -0.826827 -0.258385 -0.456329 0.203365 center 8.781 34.984 -0.736 ntor 12 -11.5682 104.1125 20.2686 14.3747 79.1693 133.1157 84.7893 146.4190 -37.1640 -150.0436 -13.1328 -14.8692
State:	 -0.493 -15.589  -1.860  -0.844 -0.264 -0.466 156.532    -11.57  104.11   20.27   14.37   79.17  133.12   84.79  146.42  -37.16 -150.04  -13.13  -14.87

DOCKED: MODEL       50
DOCKED: USER    Run = 50
DOCKED: USER    DPF = D:/Protein_go_brrr/autodock/final/AncA/heme_Co/dock.dpf
DOCKED: USER  
DOCKED: USER    Estimated Free Energy of Binding    =   -8.43 kcal/mol  [=(1)+(2)+(3)-(4)]
DOCKED: USER    Estimated Inhibition Constant, Ki   =  664.90 nM (nanomolar)  [Temperature = 298.15 K]
DOCKED: USER    
DOCKED: USER    (1) Final Intermolecular Energy     =  -12.01 kcal/mol
DOCKED: USER        vdW + Hbond + desolv Energy     =   -7.22 kcal/mol
DOCKED: USER        Electrostatic Energy            =   -4.79 kcal/mol
DOCKED: USER    (2) Final Total Internal Energy     =   -0.71 kcal/mol
DOCKED: USER    (3) Torsional Free Energy           =   +3.58 kcal/mol
DOCKED: USER    (4) Unbound System's Energy  [=(2)] =   -0.71 kcal/mol
DOCKED: USER    
DOCKED: USER    
DOCKED: USER    NEWDPF move heme_Co_opt.pdbqt
DOCKED: USER    NEWDPF about 8.781000 34.984000 -0.736000
DOCKED: USER    NEWDPF tran0 -0.492979 -15.589362 -1.859689
DOCKED: USER    NEWDPF quaternion0 -0.826827 -0.258385 -0.456329 0.203365
DOCKED: USER    NEWDPF axisangle0 -0.844474 -0.263900 -0.466069 156.532388
DOCKED: USER    NEWDPF quat0 -0.844474 -0.263900 -0.466069 156.532388
DOCKED: USER    NEWDPF dihe0 -11.57 104.11 20.27 14.37 79.17 133.12 84.79 146.42 -37.16 -150.04 -13.13 -14.87 
DOCKED: USER  keepresnum = 1 
DOCKED: USER  
DOCKED: REMARK  12 active torsions:
DOCKED: REMARK  status: ('A' for Active; 'I' for Inactive)
DOCKED: REMARK    1  A    between atoms: C_6  and  C_10 
DOCKED: REMARK    2  A    between atoms: C_10  and  C_11 
DOCKED: REMARK    3  A    between atoms: C_11  and  C_12 
DOCKED: REMARK    4  A    between atoms: C_12  and  O_14 
DOCKED: REMARK    5  A    between atoms: C_17  and  C_20 
DOCKED: REMARK    6  A    between atoms: C_24  and  C_27 
DOCKED: REMARK    7  A    between atoms: C_31  and  C_34 
DOCKED: REMARK    8  A    between atoms: C_34  and  C_35 
DOCKED: REMARK    9  A    between atoms: C_35  and  C_36 
DOCKED: REMARK   10  A    between atoms: C_36  and  O_38 
DOCKED: REMARK   11  A    between atoms: FE_43  and  C_44 
DOCKED: REMARK   12  A    between atoms: C_44  and  O_45 
DOCKED: USER                              x       y       z     vdW  Elec       q    Type
DOCKED: USER                           _______ _______ _______ _____ _____    ______ ____
DOCKED: ROOT
DOCKED: ATOM      1  C   UNL d   1      -1.974 -17.081  -2.405 -0.06 +0.08    +0.064 A 
DOCKED: ATOM      2  C   UNL d   1       1.161 -14.600  -4.980 -0.24 +0.03    +0.064 C 
DOCKED: ATOM      3  C   UNL d   1       2.446 -12.125  -1.100 -0.20 +0.02    +0.064 A 
DOCKED: ATOM      4  C   UNL d   1      -0.469 -14.908   1.624 -0.11 +0.05    +0.064 A 
DOCKED: ATOM      5  C   UNL d   1      -1.238 -16.560  -3.401 -0.09 +0.07    +0.066 A 
DOCKED: ATOM      6  C   UNL d   1      -1.278 -17.078  -4.710 -0.12 -0.02    -0.021 A 
DOCKED: ATOM      7  C   UNL d   1      -0.350 -16.369  -5.448 -0.17 -0.02    -0.025 A 
DOCKED: ATOM      8  C   UNL d   1       0.205 -15.439  -4.562 -0.14 +0.05    +0.066 A 
DOCKED: ATOM      9  C   UNL d   1       0.012 -16.549  -6.930 -0.28 +0.03    +0.051 C 
DOCKED: ATOM     10  C   UNL d   1       1.771 -13.593  -4.148 -0.18 +0.03    +0.066 A 
DOCKED: ATOM     11  C   UNL d   1       2.676 -12.591  -4.562 -0.26 -0.01    -0.021 A 
DOCKED: ATOM     12  C   UNL d   1       3.032 -11.882  -3.412 -0.26 +0.00    +0.000 A 
DOCKED: ATOM     13  C   UNL d   1       2.310 -12.493  -2.386 -0.16 +0.02    +0.070 A 
DOCKED: ATOM     14  C   UNL d   1       3.085 -12.290  -5.981 -0.37 +0.02    +0.052 C 
DOCKED: ATOM     15  C   UNL d   1       1.821 -12.679   0.086 -0.18 +0.02    +0.066 A 
DOCKED: ATOM     16  C   UNL d   1       2.116 -12.349   1.401 -0.25 -0.01    -0.021 A 
DOCKED: ATOM     17  C   UNL d   1       1.279 -13.150   2.191 -0.21 +0.00    +0.000 A 
DOCKED: ATOM     18  C   UNL d   1       0.526 -13.897   1.291 -0.13 +0.04    +0.070 A 
DOCKED: ATOM     19  C   UNL d   1       3.140 -11.327   1.841 -0.32 +0.01    +0.052 C 
DOCKED: ATOM     20  C   UNL d   1      -1.152 -15.707   0.769 -0.09 +0.06    +0.066 A 
DOCKED: ATOM     21  C   UNL d   1      -2.057 -16.668   1.212 -0.07 -0.03    -0.025 A 
DOCKED: ATOM     22  C   UNL d   1      -2.529 -17.291   0.071 -0.06 -0.02    -0.021 A 
DOCKED: ATOM     23  C   UNL d   1      -1.873 -16.682  -1.020 -0.06 +0.07    +0.066 A 
DOCKED: ATOM     24  C   UNL d   1      -2.441 -16.992   2.654 -0.07 +0.06    +0.051 C 
DOCKED: ATOM     25  N   UNL d   1      -0.331 -15.531  -3.288 -0.06 -0.21    -0.248 N 
DOCKED: ATOM     26  N   UNL d   1       1.506 -13.490  -2.842 -0.06 -0.11    -0.248 N 
DOCKED: ATOM     27  N   UNL d   1       0.897 -13.612   0.047 -0.07 -0.12    -0.248 N 
DOCKED: ATOM     28  N   UNL d   1      -1.037 -15.724  -0.601 -0.04 -0.22    -0.248 N 
DOCKED: ATOM     29 FE   UNL d   1       0.317 -14.516  -1.520 -0.02 +0.00    +0.000 Fe
DOCKED: ENDROOT
DOCKED: BRANCH   6  30
DOCKED: ATOM     30  C   UNL d   1      -2.116 -18.255  -5.197 -0.11 +0.05    +0.052 C 
DOCKED: BRANCH  30  31
DOCKED: ATOM     31  C   UNL d   1      -3.596 -17.877  -5.248 -0.14 +0.16    +0.115 C 
DOCKED: BRANCH  31  32
DOCKED: ATOM     32  C   UNL d   1      -4.299 -18.458  -6.456 -0.14 +0.22    +0.139 C 
DOCKED: ATOM     33  O   UNL d   1      -3.762 -18.395  -7.551 -0.34 -1.44    -0.650 OA
DOCKED: BRANCH  32  34
DOCKED: ATOM     34  O   UNL d   1      -5.491 -19.091  -6.357 +0.00 -1.23    -0.776 OA
DOCKED: ATOM     35  H   UNL d   1      -5.869 -19.411  -5.526 +0.03 +0.19    +0.167 HD
DOCKED: ENDBRANCH  32  34
DOCKED: ENDBRANCH  31  32
DOCKED: ENDBRANCH  30  31
DOCKED: ENDBRANCH   6  30
DOCKED: BRANCH  29  36
DOCKED: ATOM     36  C   UNL d   1       1.791 -15.996  -1.346 -0.01 +0.08    +0.190 C 
DOCKED: BRANCH  36  37
DOCKED: ATOM     37  O   UNL d   1       2.112 -17.300  -1.736 +0.00 -0.17    -0.399 OA
DOCKED: ATOM     38  H   UNL d   1       1.282 -17.652  -2.165 +0.01 +0.10    +0.209 HD
DOCKED: ENDBRANCH  36  37
DOCKED: ENDBRANCH  29  36
DOCKED: BRANCH  22  39
DOCKED: ATOM     39  C   UNL d   1      -3.506 -18.451   0.041 -0.02 +0.04    +0.052 C 
DOCKED: BRANCH  39  40
DOCKED: ATOM     40  C   UNL d   1      -4.956 -17.939   0.061 -0.04 +0.12    +0.115 C 
DOCKED: BRANCH  40  41
DOCKED: ATOM     41  C   UNL d   1      -5.129 -16.531  -0.467 -0.10 +0.23    +0.139 C 
DOCKED: ATOM     42  O   UNL d   1      -4.789 -15.585   0.229 -0.52 -1.45    -0.650 OA
DOCKED: BRANCH  41  43
DOCKED: ATOM     43  O   UNL d   1      -5.569 -16.292  -1.723 +0.01 -1.88    -0.776 OA
DOCKED: ATOM     44  H   UNL d   1      -6.131 -16.914  -2.203 +0.01 +0.29    +0.167 HD
DOCKED: ENDBRANCH  41  43
DOCKED: ENDBRANCH  40  41
DOCKED: ENDBRANCH  39  40
DOCKED: ENDBRANCH  22  39
DOCKED: BRANCH  12  45
DOCKED: ATOM     45  C   UNL d   1       3.950 -10.692  -3.168 -0.36 +0.00    +0.004 C 
DOCKED: ATOM     46  C   UNL d   1       4.609  -9.917  -4.025 -0.49 +0.00    +0.012 C 
DOCKED: ENDBRANCH  12  45
DOCKED: BRANCH  17  47
DOCKED: ATOM     47  C   UNL d   1       1.200 -13.273   3.677 -0.26 +0.00    +0.004 C 
DOCKED: ATOM     48  C   UNL d   1       0.956 -12.242   4.489 -0.40 +0.01    +0.012 C 
DOCKED: ENDBRANCH  17  47
DOCKED: TORSDOF 12
DOCKED: TER
DOCKED: ENDMDL
________________________________________________________________________________


	BEGINNING GENETIC ALGORITHM DOCKING 51 of 100
Run: 51 Seed: 263605391 1769785727 [ Run 51 of 100 GA/GALS ]
Beginning LAMARCKIAN GENETIC ALGORITHM (LGA), with a maximum of 25000000 energy evaluations.

Final-Value: -13.178


	FINAL GENETIC ALGORITHM DOCKED STATE
	_______________________________________________


Detailed state:  trans -10.305 -14.854 -3.430 quatxyzw -0.506876 0.378780 0.771964 0.060609 center 8.781 34.984 -0.736 ntor 12 68.9884 109.6648 -91.3647 130.0135 132.3192 157.3215 -140.3707 119.3896 -34.3575 -54.6547 -149.5201 3.7924
State:	-10.305 -14.854  -3.430  -0.508  0.379  0.773 173.050     68.99  109.66  -91.36  130.01  132.32  157.32 -140.37  119.39  -34.36  -54.65 -149.52    3.79

DOCKED: MODEL       51
DOCKED: USER    Run = 51
DOCKED: USER    DPF = D:/Protein_go_brrr/autodock/final/AncA/heme_Co/dock.dpf
DOCKED: USER  
DOCKED: USER    Estimated Free Energy of Binding    =   -7.39 kcal/mol  [=(1)+(2)+(3)-(4)]
DOCKED: USER    Estimated Inhibition Constant, Ki   =    3.81 uM (micromolar)  [Temperature = 298.15 K]
DOCKED: USER    
DOCKED: USER    (1) Final Intermolecular Energy     =  -10.97 kcal/mol
DOCKED: USER        vdW + Hbond + desolv Energy     =   -6.80 kcal/mol
DOCKED: USER        Electrostatic Energy            =   -4.17 kcal/mol
DOCKED: USER    (2) Final Total Internal Energy     =   -2.20 kcal/mol
DOCKED: USER    (3) Torsional Free Energy           =   +3.58 kcal/mol
DOCKED: USER    (4) Unbound System's Energy  [=(2)] =   -2.20 kcal/mol
DOCKED: USER    
DOCKED: USER    
DOCKED: USER    NEWDPF move heme_Co_opt.pdbqt
DOCKED: USER    NEWDPF about 8.781000 34.984000 -0.736000
DOCKED: USER    NEWDPF tran0 -10.304783 -14.853788 -3.429833
DOCKED: USER    NEWDPF quaternion0 -0.506876 0.378780 0.771964 0.060609
DOCKED: USER    NEWDPF axisangle0 -0.507810 0.379477 0.773386 173.050482
DOCKED: USER    NEWDPF quat0 -0.507810 0.379477 0.773386 173.050482
DOCKED: USER    NEWDPF dihe0 68.99 109.66 -91.36 130.01 132.32 157.32 -140.37 119.39 -34.36 -54.65 -149.52 3.79 
DOCKED: USER  keepresnum = 1 
DOCKED: USER  
DOCKED: REMARK  12 active torsions:
DOCKED: REMARK  status: ('A' for Active; 'I' for Inactive)
DOCKED: REMARK    1  A    between atoms: C_6  and  C_10 
DOCKED: REMARK    2  A    between atoms: C_10  and  C_11 
DOCKED: REMARK    3  A    between atoms: C_11  and  C_12 
DOCKED: REMARK    4  A    between atoms: C_12  and  O_14 
DOCKED: REMARK    5  A    between atoms: C_17  and  C_20 
DOCKED: REMARK    6  A    between atoms: C_24  and  C_27 
DOCKED: REMARK    7  A    between atoms: C_31  and  C_34 
DOCKED: REMARK    8  A    between atoms: C_34  and  C_35 
DOCKED: REMARK    9  A    between atoms: C_35  and  C_36 
DOCKED: REMARK   10  A    between atoms: C_36  and  O_38 
DOCKED: REMARK   11  A    between atoms: FE_43  and  C_44 
DOCKED: REMARK   12  A    between atoms: C_44  and  O_45 
DOCKED: USER                              x       y       z     vdW  Elec       q    Type
DOCKED: USER                           _______ _______ _______ _____ _____    ______ ____
DOCKED: ROOT
DOCKED: ATOM      1  C   UNL d   1      -8.819 -14.727  -1.851 -0.11 +0.05    +0.064 A 
DOCKED: ATOM      2  C   UNL d   1     -11.744 -11.496  -3.754 -0.34 +0.01    +0.064 C 
DOCKED: ATOM      3  C   UNL d   1     -13.224 -14.686  -6.988 -0.17 +0.01    +0.064 A 
DOCKED: ATOM      4  C   UNL d   1     -10.533 -18.111  -4.823 -0.05 +0.03    +0.064 A 
DOCKED: ATOM      5  C   UNL d   1      -9.483 -13.599  -2.156 -0.14 +0.04    +0.066 A 
DOCKED: ATOM      6  C   UNL d   1      -9.370 -12.432  -1.377 -0.26 -0.01    -0.021 A 
DOCKED: ATOM      7  C   UNL d   1     -10.238 -11.505  -1.920 -0.32 -0.01    -0.025 A 
DOCKED: ATOM      8  C   UNL d   1     -10.830 -12.140  -3.016 -0.18 +0.02    +0.066 A 
DOCKED: ATOM      9  C   UNL d   1     -10.510 -10.072  -1.436 -0.45 +0.01    +0.051 C 
DOCKED: ATOM     10  C   UNL d   1     -12.387 -12.059  -4.914 -0.27 +0.01    +0.066 A 
DOCKED: ATOM     11  C   UNL d   1     -13.247 -11.388  -5.811 -0.34 -0.00    -0.021 A 
DOCKED: ATOM     12  C   UNL d   1     -13.661 -12.341  -6.746 -0.25 +0.00    +0.000 A 
DOCKED: ATOM     13  C   UNL d   1     -13.015 -13.515  -6.360 -0.22 +0.01    +0.070 A 
DOCKED: ATOM     14  C   UNL d   1     -13.562  -9.914  -5.811 -0.42 +0.00    +0.052 C 
DOCKED: ATOM     15  C   UNL d   1     -12.685 -15.998  -6.692 -0.13 +0.01    +0.066 A 
DOCKED: ATOM     16  C   UNL d   1     -13.054 -17.195  -7.290 -0.08 -0.00    -0.021 A 
DOCKED: ATOM     17  C   UNL d   1     -12.283 -18.186  -6.667 -0.06 +0.00    +0.000 A 
DOCKED: ATOM     18  C   UNL d   1     -11.488 -17.511  -5.746 -0.07 +0.02    +0.070 A 
DOCKED: ATOM     19  C   UNL d   1     -14.086 -17.345  -8.385 -0.06 +0.01    +0.052 C 
DOCKED: ATOM     20  C   UNL d   1      -9.813 -17.487  -3.860 -0.05 +0.03    +0.066 A 
DOCKED: ATOM     21  C   UNL d   1      -8.954 -18.177  -3.009 -0.03 -0.01    -0.025 A 
DOCKED: ATOM     22  C   UNL d   1      -8.423 -17.223  -2.160 -0.04 -0.02    -0.021 A 
DOCKED: ATOM     23  C   UNL d   1      -8.999 -15.989  -2.531 -0.08 +0.05    +0.066 A 
DOCKED: ATOM     24  C   UNL d   1      -8.666 -19.676  -2.991 -0.01 +0.03    +0.051 C 
DOCKED: ATOM     25  N   UNL d   1     -10.377 -13.437  -3.190 +0.04 -0.10    -0.248 N 
DOCKED: ATOM     26  N   UNL d   1     -12.201 -13.330  -5.286 -0.08 -0.05    -0.248 N 
DOCKED: ATOM     27  N   UNL d   1     -11.776 -16.215  -5.767 -0.08 -0.07    -0.248 N 
DOCKED: ATOM     28  N   UNL d   1      -9.843 -16.145  -3.558 -0.05 -0.14    -0.248 N 
DOCKED: ATOM     29 FE   UNL d   1     -11.115 -14.910  -4.554 -0.04 +0.00    +0.000 Fe
DOCKED: ENDROOT
DOCKED: BRANCH   6  30
DOCKED: ATOM     30  C   UNL d   1      -8.524 -12.255  -0.120 -0.26 +0.04    +0.052 C 
DOCKED: BRANCH  30  31
DOCKED: ATOM     31  C   UNL d   1      -9.040 -13.152   1.005 -0.25 +0.09    +0.115 C 
DOCKED: BRANCH  31  32
DOCKED: ATOM     32  C   UNL d   1      -7.921 -13.709   1.859 -0.16 +0.19    +0.139 C 
DOCKED: ATOM     33  O   UNL d   1      -7.546 -13.085   2.840 -0.47 -1.00    -0.650 OA
DOCKED: BRANCH  32  34
DOCKED: ATOM     34  O   UNL d   1      -7.349 -14.907   1.598 +0.15 -1.40    -0.776 OA
DOCKED: ATOM     35  H   UNL d   1      -6.838 -15.104   0.801 +0.03 +0.31    +0.167 HD
DOCKED: ENDBRANCH  32  34
DOCKED: ENDBRANCH  31  32
DOCKED: ENDBRANCH  30  31
DOCKED: ENDBRANCH   6  30
DOCKED: BRANCH  29  36
DOCKED: ATOM     36  C   UNL d   1     -12.623 -15.293  -3.148 -0.09 +0.04    +0.190 C 
DOCKED: BRANCH  36  37
DOCKED: ATOM     37  O   UNL d   1     -13.122 -14.879  -1.909 -0.11 -0.07    -0.399 OA
DOCKED: ATOM     38  H   UNL d   1     -12.484 -14.177  -1.597 +0.05 +0.03    +0.209 HD
DOCKED: ENDBRANCH  36  37
DOCKED: ENDBRANCH  29  36
DOCKED: BRANCH  22  39
DOCKED: ATOM     39  C   UNL d   1      -7.466 -17.498  -1.015 -0.03 +0.05    +0.052 C 
DOCKED: BRANCH  39  40
DOCKED: ATOM     40  C   UNL d   1      -6.039 -17.058  -1.383 -0.06 +0.16    +0.115 C 
DOCKED: BRANCH  40  41
DOCKED: ATOM     41  C   UNL d   1      -5.459 -15.997  -0.472 -0.11 +0.25    +0.139 C 
DOCKED: ATOM     42  O   UNL d   1      -5.423 -14.835  -0.853 -0.30 -1.57    -0.650 OA
DOCKED: BRANCH  41  43
DOCKED: ATOM     43  O   UNL d   1      -5.058 -16.283   0.786 -0.25 -1.63    -0.776 OA
DOCKED: ATOM     44  H   UNL d   1      -5.667 -16.291   1.536 +0.01 +0.42    +0.167 HD
DOCKED: ENDBRANCH  41  43
DOCKED: ENDBRANCH  40  41
DOCKED: ENDBRANCH  39  40
DOCKED: ENDBRANCH  22  39
DOCKED: BRANCH  12  45
DOCKED: ATOM     45  C   UNL d   1     -14.572 -12.272  -7.965 -0.24 +0.00    +0.004 C 
DOCKED: ATOM     46  C   UNL d   1     -14.332 -12.555  -9.242 -0.30 +0.00    +0.012 C 
DOCKED: ENDBRANCH  12  45
DOCKED: BRANCH  17  47
DOCKED: ATOM     47  C   UNL d   1     -12.299 -19.667  -6.857 -0.03 +0.00    +0.004 C 
DOCKED: ATOM     48  C   UNL d   1     -11.302 -20.348  -7.428 -0.04 +0.00    +0.012 C 
DOCKED: ENDBRANCH  17  47
DOCKED: TORSDOF 12
DOCKED: TER
DOCKED: ENDMDL
________________________________________________________________________________


	BEGINNING GENETIC ALGORITHM DOCKING 52 of 100
Run: 52 Seed: 9495369 1857283121 [ Run 52 of 100 GA/GALS ]
Beginning LAMARCKIAN GENETIC ALGORITHM (LGA), with a maximum of 25000000 energy evaluations.

Final-Value: -10.216


	FINAL GENETIC ALGORITHM DOCKED STATE
	_______________________________________________


Detailed state:  trans 8.789 7.435 -17.170 quatxyzw -0.590409 -0.131733 -0.032634 -0.795612 center 8.781 34.984 -0.736 ntor 12 38.9113 105.7919 -146.9663 131.3251 147.4315 156.6661 -168.4564 146.2610 -171.7151 -115.5449 -4.4709 -8.9981
State:	  8.789   7.435 -17.170  -0.975 -0.217 -0.054 -74.574     38.91  105.79 -146.97  131.33  147.43  156.67 -168.46  146.26 -171.72 -115.54   -4.47   -9.00

DOCKED: MODEL       52
DOCKED: USER    Run = 52
DOCKED: USER    DPF = D:/Protein_go_brrr/autodock/final/AncA/heme_Co/dock.dpf
DOCKED: USER  
DOCKED: USER    Estimated Free Energy of Binding    =   -4.36 kcal/mol  [=(1)+(2)+(3)-(4)]
DOCKED: USER    Estimated Inhibition Constant, Ki   =  635.33 uM (micromolar)  [Temperature = 298.15 K]
DOCKED: USER    
DOCKED: USER    (1) Final Intermolecular Energy     =   -7.94 kcal/mol
DOCKED: USER        vdW + Hbond + desolv Energy     =   -5.19 kcal/mol
DOCKED: USER        Electrostatic Energy            =   -2.75 kcal/mol
DOCKED: USER    (2) Final Total Internal Energy     =   -2.27 kcal/mol
DOCKED: USER    (3) Torsional Free Energy           =   +3.58 kcal/mol
DOCKED: USER    (4) Unbound System's Energy  [=(2)] =   -2.27 kcal/mol
DOCKED: USER    
DOCKED: USER    
DOCKED: USER    NEWDPF move heme_Co_opt.pdbqt
DOCKED: USER    NEWDPF about 8.781000 34.984000 -0.736000
DOCKED: USER    NEWDPF tran0 8.788611 7.434818 -17.170391
DOCKED: USER    NEWDPF quaternion0 -0.590409 -0.131733 -0.032634 -0.795612
DOCKED: USER    NEWDPF axisangle0 -0.974584 -0.217451 -0.053868 -74.573767
DOCKED: USER    NEWDPF quat0 -0.974584 -0.217451 -0.053868 -74.573767
DOCKED: USER    NEWDPF dihe0 38.91 105.79 -146.97 131.33 147.43 156.67 -168.46 146.26 -171.72 -115.54 -4.47 -9.00 
DOCKED: USER  keepresnum = 1 
DOCKED: USER  
DOCKED: REMARK  12 active torsions:
DOCKED: REMARK  status: ('A' for Active; 'I' for Inactive)
DOCKED: REMARK    1  A    between atoms: C_6  and  C_10 
DOCKED: REMARK    2  A    between atoms: C_10  and  C_11 
DOCKED: REMARK    3  A    between atoms: C_11  and  C_12 
DOCKED: REMARK    4  A    between atoms: C_12  and  O_14 
DOCKED: REMARK    5  A    between atoms: C_17  and  C_20 
DOCKED: REMARK    6  A    between atoms: C_24  and  C_27 
DOCKED: REMARK    7  A    between atoms: C_31  and  C_34 
DOCKED: REMARK    8  A    between atoms: C_34  and  C_35 
DOCKED: REMARK    9  A    between atoms: C_35  and  C_36 
DOCKED: REMARK   10  A    between atoms: C_36  and  O_38 
DOCKED: REMARK   11  A    between atoms: FE_43  and  C_44 
DOCKED: REMARK   12  A    between atoms: C_44  and  O_45 
DOCKED: USER                              x       y       z     vdW  Elec       q    Type
DOCKED: USER                           _______ _______ _______ _____ _____    ______ ____
DOCKED: ROOT
DOCKED: ATOM      1  C   UNL d   1       7.174   6.578 -18.343 -0.10 +0.05    +0.064 A 
DOCKED: ATOM      2  C   UNL d   1       7.196   9.450 -14.553 -0.11 +0.03    +0.064 C 
DOCKED: ATOM      3  C   UNL d   1      11.949   9.076 -14.249 -0.17 +0.01    +0.064 A 
DOCKED: ATOM      4  C   UNL d   1      11.991   6.454 -18.347 -0.09 +0.02    +0.064 A 
DOCKED: ATOM      5  C   UNL d   1       6.827   7.361 -17.308 -0.12 +0.05    +0.066 A 
DOCKED: ATOM      6  C   UNL d   1       5.496   7.770 -17.093 -0.10 -0.01    -0.021 A 
DOCKED: ATOM      7  C   UNL d   1       5.512   8.622 -16.006 -0.12 -0.01    -0.025 A 
DOCKED: ATOM      8  C   UNL d   1       6.848   8.683 -15.594 -0.14 +0.04    +0.066 A 
DOCKED: ATOM      9  C   UNL d   1       4.324   9.358 -15.368 -0.08 +0.01    +0.051 C 
DOCKED: ATOM     10  C   UNL d   1       8.539   9.555 -14.041 -0.13 +0.03    +0.066 A 
DOCKED: ATOM     11  C   UNL d   1       8.945  10.231 -12.870 -0.22 -0.01    -0.021 A 
DOCKED: ATOM     12  C   UNL d   1      10.336  10.102 -12.804 -0.24 +0.00    +0.000 A 
DOCKED: ATOM     13  C   UNL d   1      10.672   9.349 -13.929 -0.22 +0.02    +0.070 A 
DOCKED: ATOM     14  C   UNL d   1       8.039  10.866 -11.847 -0.17 +0.02    +0.052 C 
DOCKED: ATOM     15  C   UNL d   1      12.477   8.361 -15.395 -0.19 +0.02    +0.066 A 
DOCKED: ATOM     16  C   UNL d   1      13.814   8.238 -15.744 -0.15 -0.00    -0.021 A 
DOCKED: ATOM     17  C   UNL d   1      13.832   7.485 -16.926 -0.09 +0.00    +0.000 A 
DOCKED: ATOM     18  C   UNL d   1      12.499   7.192 -17.197 -0.08 +0.02    +0.070 A 
DOCKED: ATOM     19  C   UNL d   1      14.979   8.818 -14.972 -0.14 +0.01    +0.052 C 
DOCKED: ATOM     20  C   UNL d   1      10.697   6.232 -18.677 -0.12 +0.03    +0.066 A 
DOCKED: ATOM     21  C   UNL d   1      10.332   5.538 -19.829 -0.06 -0.01    -0.025 A 
DOCKED: ATOM     22  C   UNL d   1       8.949   5.533 -19.839 -0.05 -0.01    -0.021 A 
DOCKED: ATOM     23  C   UNL d   1       8.535   6.240 -18.690 -0.10 +0.05    +0.066 A 
DOCKED: ATOM     24  C   UNL d   1      11.255   4.927 -20.880 -0.03 +0.01    +0.051 C 
DOCKED: ATOM     25  N   UNL d   1       7.684   7.907 -16.379 -0.13 -0.20    -0.248 N 
DOCKED: ATOM     26  N   UNL d   1       9.580   8.972 -14.645 -0.16 -0.12    -0.248 N 
DOCKED: ATOM     27  N   UNL d   1      11.719   7.755 -16.282 -0.17 -0.11    -0.248 N 
DOCKED: ATOM     28  N   UNL d   1       9.590   6.667 -17.985 -0.12 -0.19    -0.248 N 
DOCKED: ATOM     29 FE   UNL d   1       9.821   7.824 -16.330 -0.04 +0.00    +0.000 Fe
DOCKED: ENDROOT
DOCKED: BRANCH   6  30
DOCKED: ATOM     30  C   UNL d   1       4.287   7.417 -17.952 -0.04 +0.02    +0.052 C 
DOCKED: BRANCH  30  31
DOCKED: ATOM     31  C   UNL d   1       3.783   6.013 -17.619 -0.05 +0.05    +0.115 C 
DOCKED: BRANCH  31  32
DOCKED: ATOM     32  C   UNL d   1       4.505   5.406 -16.435 -0.14 +0.12    +0.139 C 
DOCKED: ATOM     33  O   UNL d   1       4.426   5.947 -15.342 -0.08 -0.48    -0.650 OA
DOCKED: BRANCH  32  34
DOCKED: ATOM     34  O   UNL d   1       5.201   4.250 -16.534 -0.40 -1.32    -0.776 OA
DOCKED: ATOM     35  H   UNL d   1       5.698   3.980 -17.319 +0.04 +0.31    +0.167 HD
DOCKED: ENDBRANCH  32  34
DOCKED: ENDBRANCH  31  32
DOCKED: ENDBRANCH  30  31
DOCKED: ENDBRANCH   6  30
DOCKED: BRANCH  29  36
DOCKED: ATOM     36  C   UNL d   1       9.802   9.557 -17.510 -0.03 +0.06    +0.190 C 
DOCKED: BRANCH  36  37
DOCKED: ATOM     37  O   UNL d   1       8.948  10.488 -18.109 +0.00 -0.09    -0.399 OA
DOCKED: ATOM     38  H   UNL d   1       8.031  10.122 -17.969 +0.02 +0.05    +0.209 HD
DOCKED: ENDBRANCH  36  37
DOCKED: ENDBRANCH  29  36
DOCKED: BRANCH  22  39
DOCKED: ATOM     39  C   UNL d   1       8.079   4.937 -20.931 -0.01 +0.02    +0.052 C 
DOCKED: BRANCH  39  40
DOCKED: ATOM     40  C   UNL d   1       7.715   3.480 -20.599 -0.02 +0.05    +0.115 C 
DOCKED: BRANCH  40  41
DOCKED: ATOM     41  C   UNL d   1       6.973   3.304 -19.291 -0.06 +0.10    +0.139 C 
DOCKED: ATOM     42  O   UNL d   1       7.590   3.384 -18.238 -0.00 -1.10    -0.650 OA
DOCKED: BRANCH  41  43
DOCKED: ATOM     43  O   UNL d   1       5.631   3.148 -19.250 +0.02 -0.42    -0.776 OA
DOCKED: ATOM     44  H   UNL d   1       5.081   3.560 -18.571 +0.02 +0.11    +0.167 HD
DOCKED: ENDBRANCH  41  43
DOCKED: ENDBRANCH  40  41
DOCKED: ENDBRANCH  39  40
DOCKED: ENDBRANCH  22  39
DOCKED: BRANCH  12  45
DOCKED: ATOM     45  C   UNL d   1      11.376  10.585 -11.802 -0.25 +0.00    +0.004 C 
DOCKED: ATOM     46  C   UNL d   1      12.276   9.907 -11.094 -0.36 +0.01    +0.012 C 
DOCKED: ENDBRANCH  12  45
DOCKED: BRANCH  17  47
DOCKED: ATOM     47  C   UNL d   1      14.984   7.094 -17.791 -0.11 +0.00    +0.004 C 
DOCKED: ATOM     48  C   UNL d   1      15.250   5.832 -18.140 -0.10 +0.00    +0.012 C 
DOCKED: ENDBRANCH  17  47
DOCKED: TORSDOF 12
DOCKED: TER
DOCKED: ENDMDL
________________________________________________________________________________


	BEGINNING GENETIC ALGORITHM DOCKING 53 of 100
Run: 53 Seed: 263477309 842898577 [ Run 53 of 100 GA/GALS ]
Beginning LAMARCKIAN GENETIC ALGORITHM (LGA), with a maximum of 25000000 energy evaluations.

Final-Value: -12.241


	FINAL GENETIC ALGORITHM DOCKED STATE
	_______________________________________________


Detailed state:  trans -0.205 -15.730 -1.719 quatxyzw 0.418337 0.039580 -0.415117 0.806911 center 8.781 34.984 -0.736 ntor 12 -75.3262 141.2509 74.4964 66.8741 138.7085 114.5071 179.9924 -81.3342 -137.2727 -50.7970 167.1811 -176.3441
State:	 -0.205 -15.730  -1.719   0.708  0.067 -0.703 72.410    -75.33  141.25   74.50   66.87  138.71  114.51  179.99  -81.33 -137.27  -50.80  167.18 -176.34

DOCKED: MODEL       53
DOCKED: USER    Run = 53
DOCKED: USER    DPF = D:/Protein_go_brrr/autodock/final/AncA/heme_Co/dock.dpf
DOCKED: USER  
DOCKED: USER    Estimated Free Energy of Binding    =   -7.57 kcal/mol  [=(1)+(2)+(3)-(4)]
DOCKED: USER    Estimated Inhibition Constant, Ki   =    2.81 uM (micromolar)  [Temperature = 298.15 K]
DOCKED: USER    
DOCKED: USER    (1) Final Intermolecular Energy     =  -11.15 kcal/mol
DOCKED: USER        vdW + Hbond + desolv Energy     =   -6.59 kcal/mol
DOCKED: USER        Electrostatic Energy            =   -4.56 kcal/mol
DOCKED: USER    (2) Final Total Internal Energy     =   -1.09 kcal/mol
DOCKED: USER    (3) Torsional Free Energy           =   +3.58 kcal/mol
DOCKED: USER    (4) Unbound System's Energy  [=(2)] =   -1.09 kcal/mol
DOCKED: USER    
DOCKED: USER    
DOCKED: USER    NEWDPF move heme_Co_opt.pdbqt
DOCKED: USER    NEWDPF about 8.781000 34.984000 -0.736000
DOCKED: USER    NEWDPF tran0 -0.205030 -15.730191 -1.718596
DOCKED: USER    NEWDPF quaternion0 0.418337 0.039580 -0.415117 0.806911
DOCKED: USER    NEWDPF axisangle0 0.708238 0.067008 -0.702786 72.409517
DOCKED: USER    NEWDPF quat0 0.708238 0.067008 -0.702786 72.409517
DOCKED: USER    NEWDPF dihe0 -75.33 141.25 74.50 66.87 138.71 114.51 179.99 -81.33 -137.27 -50.80 167.18 -176.34 
DOCKED: USER  keepresnum = 1 
DOCKED: USER  
DOCKED: REMARK  12 active torsions:
DOCKED: REMARK  status: ('A' for Active; 'I' for Inactive)
DOCKED: REMARK    1  A    between atoms: C_6  and  C_10 
DOCKED: REMARK    2  A    between atoms: C_10  and  C_11 
DOCKED: REMARK    3  A    between atoms: C_11  and  C_12 
DOCKED: REMARK    4  A    between atoms: C_12  and  O_14 
DOCKED: REMARK    5  A    between atoms: C_17  and  C_20 
DOCKED: REMARK    6  A    between atoms: C_24  and  C_27 
DOCKED: REMARK    7  A    between atoms: C_31  and  C_34 
DOCKED: REMARK    8  A    between atoms: C_34  and  C_35 
DOCKED: REMARK    9  A    between atoms: C_35  and  C_36 
DOCKED: REMARK   10  A    between atoms: C_36  and  O_38 
DOCKED: REMARK   11  A    between atoms: FE_43  and  C_44 
DOCKED: REMARK   12  A    between atoms: C_44  and  O_45 
DOCKED: USER                              x       y       z     vdW  Elec       q    Type
DOCKED: USER                           _______ _______ _______ _____ _____    ______ ____
DOCKED: ROOT
DOCKED: ATOM      1  C   UNL d   1      -1.435 -17.484  -2.073 -0.04 +0.06    +0.064 A 
DOCKED: ATOM      2  C   UNL d   1      -0.456 -15.012   1.869 -0.12 +0.05    +0.064 C 
DOCKED: ATOM      3  C   UNL d   1       2.625 -12.286  -0.560 -0.19 +0.02    +0.064 A 
DOCKED: ATOM      4  C   UNL d   1       1.354 -14.543  -4.678 -0.18 +0.03    +0.064 A 
DOCKED: ATOM      5  C   UNL d   1      -1.367 -17.033  -0.810 -0.03 +0.06    +0.066 A 
DOCKED: ATOM      6  C   UNL d   1      -2.192 -17.542   0.211 -0.04 -0.02    -0.021 A 
DOCKED: ATOM      7  C   UNL d   1      -1.920 -16.806   1.348 -0.07 -0.02    -0.025 A 
DOCKED: ATOM      8  C   UNL d   1      -0.930 -15.890   0.976 -0.08 +0.05    +0.066 A 
DOCKED: ATOM      9  C   UNL d   1      -2.560 -16.946   2.737 +0.00 +0.06    +0.051 C 
DOCKED: ATOM     10  C   UNL d   1       0.581 -14.052   1.585 -0.13 +0.04    +0.066 A 
DOCKED: ATOM     11  C   UNL d   1       1.219 -13.200   2.513 -0.20 -0.01    -0.021 A 
DOCKED: ATOM     12  C   UNL d   1       2.115 -12.419   1.778 -0.26 +0.00    +0.000 A 
DOCKED: ATOM     13  C   UNL d   1       1.967 -12.859   0.463 -0.16 +0.02    +0.070 A 
DOCKED: ATOM     14  C   UNL d   1       1.038 -13.216   4.009 -0.26 +0.03    +0.052 C 
DOCKED: ATOM     15  C   UNL d   1       2.552 -12.577  -1.979 -0.14 +0.02    +0.066 A 
DOCKED: ATOM     16  C   UNL d   1       3.149 -11.851  -3.000 -0.24 -0.01    -0.021 A 
DOCKED: ATOM     17  C   UNL d   1       2.783 -12.496  -4.190 -0.25 +0.00    +0.000 A 
DOCKED: ATOM     18  C   UNL d   1       2.004 -13.580  -3.798 -0.15 +0.03    +0.070 A 
DOCKED: ATOM     19  C   UNL d   1       4.007 -10.619  -2.814 -0.25 +0.01    +0.052 C 
DOCKED: ATOM     20  C   UNL d   1       0.523 -15.552  -4.326 -0.11 +0.04    +0.066 A 
DOCKED: ATOM     21  C   UNL d   1      -0.070 -16.390  -5.267 -0.15 -0.02    -0.025 A 
DOCKED: ATOM     22  C   UNL d   1      -0.857 -17.267  -4.543 -0.09 -0.02    -0.021 A 
DOCKED: ATOM     23  C   UNL d   1      -0.714 -16.909  -3.186 -0.06 +0.06    +0.066 A 
DOCKED: ATOM     24  C   UNL d   1       0.090 -16.346  -6.785 -0.30 +0.03    +0.051 C 
DOCKED: ATOM     25  N   UNL d   1      -0.564 -16.012  -0.354 -0.02 -0.18    -0.248 N 
DOCKED: ATOM     26  N   UNL d   1       1.080 -13.884   0.356 -0.06 -0.12    -0.248 N 
DOCKED: ATOM     27  N   UNL d   1       1.863 -13.579  -2.477 -0.04 -0.10    -0.248 N 
DOCKED: ATOM     28  N   UNL d   1       0.118 -15.870  -3.050 -0.03 -0.18    -0.248 N 
DOCKED: ATOM     29 FE   UNL d   1       0.721 -14.726  -1.481 -0.02 +0.00    +0.000 Fe
DOCKED: ENDROOT
DOCKED: BRANCH   6  30
DOCKED: ATOM     30  C   UNL d   1      -3.250 -18.632   0.068 -0.02 +0.04    +0.052 C 
DOCKED: BRANCH  30  31
DOCKED: ATOM     31  C   UNL d   1      -4.653 -18.036   0.174 -0.04 +0.12    +0.115 C 
DOCKED: BRANCH  31  32
DOCKED: ATOM     32  C   UNL d   1      -4.777 -16.716  -0.557 -0.09 +0.22    +0.139 C 
DOCKED: ATOM     33  O   UNL d   1      -4.397 -16.633  -1.715 +0.28 -1.45    -0.650 OA
DOCKED: BRANCH  32  34
DOCKED: ATOM     34  O   UNL d   1      -5.343 -15.629   0.017 -0.49 -1.65    -0.776 OA
DOCKED: ATOM     35  H   UNL d   1      -6.297 -15.489   0.092 +0.02 +0.30    +0.167 HD
DOCKED: ENDBRANCH  32  34
DOCKED: ENDBRANCH  31  32
DOCKED: ENDBRANCH  30  31
DOCKED: ENDBRANCH   6  30
DOCKED: BRANCH  29  36
DOCKED: ATOM     36  C   UNL d   1      -0.940 -13.471  -1.729 -0.15 +0.17    +0.190 C 
DOCKED: BRANCH  36  37
DOCKED: ATOM     37  O   UNL d   1      -2.317 -13.480  -1.973 -0.26 -0.65    -0.399 OA
DOCKED: ATOM     38  H   UNL d   1      -2.637 -14.349  -1.601 +0.05 +0.40    +0.209 HD
DOCKED: ENDBRANCH  36  37
DOCKED: ENDBRANCH  29  36
DOCKED: BRANCH  22  39
DOCKED: ATOM     39  C   UNL d   1      -1.746 -18.344  -5.135 -0.09 +0.05    +0.052 C 
DOCKED: BRANCH  39  40
DOCKED: ATOM     40  C   UNL d   1      -3.013 -17.726  -5.750 -0.18 +0.14    +0.115 C 
DOCKED: BRANCH  40  41
DOCKED: ATOM     41  C   UNL d   1      -3.227 -18.064  -7.210 -0.08 +0.22    +0.139 C 
DOCKED: ATOM     42  O   UNL d   1      -3.289 -19.237  -7.550 -0.34 -1.47    -0.650 OA
DOCKED: BRANCH  41  43
DOCKED: ATOM     43  O   UNL d   1      -3.440 -17.104  -8.138 -0.13 -1.10    -0.776 OA
DOCKED: ATOM     44  H   UNL d   1      -2.720 -16.594  -8.531 +0.07 +0.16    +0.167 HD
DOCKED: ENDBRANCH  41  43
DOCKED: ENDBRANCH  40  41
DOCKED: ENDBRANCH  39  40
DOCKED: ENDBRANCH  22  39
DOCKED: BRANCH  12  45
DOCKED: ATOM     45  C   UNL d   1       3.102 -11.326   2.168 -0.34 +0.00    +0.004 C 
DOCKED: ATOM     46  C   UNL d   1       4.130 -11.349   3.012 -0.23 +0.00    +0.012 C 
DOCKED: ENDBRANCH  12  45
DOCKED: BRANCH  17  47
DOCKED: ATOM     47  C   UNL d   1       3.079 -12.126  -5.606 -0.40 +0.00    +0.004 C 
DOCKED: ATOM     48  C   UNL d   1       3.801 -12.888  -6.432 -0.49 +0.00    +0.012 C 
DOCKED: ENDBRANCH  17  47
DOCKED: TORSDOF 12
DOCKED: TER
DOCKED: ENDMDL
________________________________________________________________________________


	BEGINNING GENETIC ALGORITHM DOCKING 54 of 100
Run: 54 Seed: 1719396877 790963799 [ Run 54 of 100 GA/GALS ]
Beginning LAMARCKIAN GENETIC ALGORITHM (LGA), with a maximum of 25000000 energy evaluations.

Final-Value: -11.993


	FINAL GENETIC ALGORITHM DOCKED STATE
	_______________________________________________


Detailed state:  trans -11.047 -15.292 -2.642 quatxyzw -0.363566 -0.820298 0.336701 0.285595 center 8.781 34.984 -0.736 ntor 12 166.3500 92.7778 -115.3835 -97.5706 110.7410 162.1437 12.6705 -177.5293 -88.6691 61.6999 178.4274 -177.5929
State:	-11.047 -15.292  -2.642  -0.379 -0.856  0.351 146.811    166.35   92.78 -115.38  -97.57  110.74  162.14   12.67 -177.53  -88.67   61.70  178.43 -177.59

DOCKED: MODEL       54
DOCKED: USER    Run = 54
DOCKED: USER    DPF = D:/Protein_go_brrr/autodock/final/AncA/heme_Co/dock.dpf
DOCKED: USER  
DOCKED: USER    Estimated Free Energy of Binding    =   -5.93 kcal/mol  [=(1)+(2)+(3)-(4)]
DOCKED: USER    Estimated Inhibition Constant, Ki   =   44.78 uM (micromolar)  [Temperature = 298.15 K]
DOCKED: USER    
DOCKED: USER    (1) Final Intermolecular Energy     =   -9.51 kcal/mol
DOCKED: USER        vdW + Hbond + desolv Energy     =   -5.23 kcal/mol
DOCKED: USER        Electrostatic Energy            =   -4.28 kcal/mol
DOCKED: USER    (2) Final Total Internal Energy     =   -2.48 kcal/mol
DOCKED: USER    (3) Torsional Free Energy           =   +3.58 kcal/mol
DOCKED: USER    (4) Unbound System's Energy  [=(2)] =   -2.48 kcal/mol
DOCKED: USER    
DOCKED: USER    
DOCKED: USER    NEWDPF move heme_Co_opt.pdbqt
DOCKED: USER    NEWDPF about 8.781000 34.984000 -0.736000
DOCKED: USER    NEWDPF tran0 -11.046899 -15.292242 -2.642429
DOCKED: USER    NEWDPF quaternion0 -0.363566 -0.820298 0.336701 0.285595
DOCKED: USER    NEWDPF axisangle0 -0.379366 -0.855947 0.351334 146.811188
DOCKED: USER    NEWDPF quat0 -0.379366 -0.855947 0.351334 146.811188
DOCKED: USER    NEWDPF dihe0 166.35 92.78 -115.38 -97.57 110.74 162.14 12.67 -177.53 -88.67 61.70 178.43 -177.59 
DOCKED: USER  keepresnum = 1 
DOCKED: USER  
DOCKED: REMARK  12 active torsions:
DOCKED: REMARK  status: ('A' for Active; 'I' for Inactive)
DOCKED: REMARK    1  A    between atoms: C_6  and  C_10 
DOCKED: REMARK    2  A    between atoms: C_10  and  C_11 
DOCKED: REMARK    3  A    between atoms: C_11  and  C_12 
DOCKED: REMARK    4  A    between atoms: C_12  and  O_14 
DOCKED: REMARK    5  A    between atoms: C_17  and  C_20 
DOCKED: REMARK    6  A    between atoms: C_24  and  C_27 
DOCKED: REMARK    7  A    between atoms: C_31  and  C_34 
DOCKED: REMARK    8  A    between atoms: C_34  and  C_35 
DOCKED: REMARK    9  A    between atoms: C_35  and  C_36 
DOCKED: REMARK   10  A    between atoms: C_36  and  O_38 
DOCKED: REMARK   11  A    between atoms: FE_43  and  C_44 
DOCKED: REMARK   12  A    between atoms: C_44  and  O_45 
DOCKED: USER                              x       y       z     vdW  Elec       q    Type
DOCKED: USER                           _______ _______ _______ _____ _____    ______ ____
DOCKED: ROOT
DOCKED: ATOM      1  C   UNL d   1      -9.736 -15.174  -0.915 -0.08 +0.04    +0.064 A 
DOCKED: ATOM      2  C   UNL d   1     -11.719 -18.858  -3.175 -0.01 +0.02    +0.064 C 
DOCKED: ATOM      3  C   UNL d   1     -14.138 -15.866  -6.008 -0.04 +0.01    +0.064 A 
DOCKED: ATOM      4  C   UNL d   1     -11.833 -12.096  -3.973 -0.26 +0.01    +0.064 A 
DOCKED: ATOM      5  C   UNL d   1     -10.128 -16.400  -1.301 -0.03 +0.03    +0.066 A 
DOCKED: ATOM      6  C   UNL d   1      -9.576 -17.570  -0.744 -0.00 -0.01    -0.021 A 
DOCKED: ATOM      7  C   UNL d   1     -10.139 -18.636  -1.419 +0.00 -0.01    -0.025 A 
DOCKED: ATOM      8  C   UNL d   1     -11.020 -18.071  -2.347 -0.01 +0.02    +0.066 A 
DOCKED: ATOM      9  C   UNL d   1      -9.866 -20.133  -1.210 +0.00 +0.02    +0.051 C 
DOCKED: ATOM     10  C   UNL d   1     -12.668 -18.369  -4.144 -0.01 +0.02    +0.066 A 
DOCKED: ATOM     11  C   UNL d   1     -13.534 -19.146  -4.944 -0.01 -0.00    -0.021 A 
DOCKED: ATOM     12  C   UNL d   1     -14.231 -18.248  -5.757 -0.01 +0.00    +0.000 A 
DOCKED: ATOM     13  C   UNL d   1     -13.749 -16.993  -5.386 -0.02 +0.02    +0.070 A 
DOCKED: ATOM     14  C   UNL d   1     -13.735 -20.637  -4.852 -0.00 +0.01    +0.052 C 
DOCKED: ATOM     15  C   UNL d   1     -13.707 -14.499  -5.791 -0.10 +0.01    +0.066 A 
DOCKED: ATOM     16  C   UNL d   1     -14.040 -13.397  -6.566 -0.16 -0.00    -0.021 A 
DOCKED: ATOM     17  C   UNL d   1     -13.375 -12.308  -5.984 -0.27 +0.00    +0.000 A 
DOCKED: ATOM     18  C   UNL d   1     -12.700 -12.831  -4.886 -0.21 +0.01    +0.070 A 
DOCKED: ATOM     19  C   UNL d   1     -14.939 -13.420  -7.782 -0.14 +0.01    +0.052 C 
DOCKED: ATOM     20  C   UNL d   1     -11.099 -12.598  -2.951 -0.19 +0.02    +0.066 A 
DOCKED: ATOM     21  C   UNL d   1     -10.273 -11.796  -2.166 -0.30 -0.01    -0.025 A 
DOCKED: ATOM     22  C   UNL d   1      -9.678 -12.652  -1.257 -0.24 -0.01    -0.021 A 
DOCKED: ATOM     23  C   UNL d   1     -10.164 -13.945  -1.543 -0.15 +0.03    +0.066 A 
DOCKED: ATOM     24  C   UNL d   1     -10.047 -10.292  -2.287 -0.47 +0.01    +0.051 C 
DOCKED: ATOM     25  N   UNL d   1     -11.038 -16.688  -2.292 -0.01 -0.09    -0.248 N 
DOCKED: ATOM     26  N   UNL d   1     -12.846 -17.063  -4.372 -0.01 -0.06    -0.248 N 
DOCKED: ATOM     27  N   UNL d   1     -12.896 -14.143  -4.819 -0.07 -0.05    -0.248 N 
DOCKED: ATOM     28  N   UNL d   1     -11.023 -13.917  -2.570 -0.11 -0.09    -0.248 N 
DOCKED: ATOM     29 FE   UNL d   1     -12.021 -15.337  -3.629 -0.02 +0.00    +0.000 Fe
DOCKED: ENDROOT
DOCKED: BRANCH   6  30
DOCKED: ATOM     30  C   UNL d   1      -8.498 -17.645   0.332 -0.00 +0.03    +0.052 C 
DOCKED: BRANCH  30  31
DOCKED: ATOM     31  C   UNL d   1      -7.123 -17.858  -0.301 -0.01 +0.10    +0.115 C 
DOCKED: BRANCH  31  32
DOCKED: ATOM     32  C   UNL d   1      -6.432 -16.553  -0.633 -0.07 +0.19    +0.139 C 
DOCKED: ATOM     33  O   UNL d   1      -6.177 -16.288  -1.798 -0.41 -1.34    -0.650 OA
DOCKED: BRANCH  32  34
DOCKED: ATOM     34  O   UNL d   1      -6.127 -15.640   0.318 -0.45 -1.51    -0.776 OA
DOCKED: ATOM     35  H   UNL d   1      -5.484 -14.927   0.201 +0.02 +0.40    +0.167 HD
DOCKED: ENDBRANCH  32  34
DOCKED: ENDBRANCH  31  32
DOCKED: ENDBRANCH  30  31
DOCKED: ENDBRANCH   6  30
DOCKED: BRANCH  29  36
DOCKED: ATOM     36  C   UNL d   1     -10.374 -15.578  -4.903 +0.06 +0.09    +0.190 C 
DOCKED: BRANCH  36  37
DOCKED: ATOM     37  O   UNL d   1      -9.198 -16.314  -5.077 -0.09 -0.26    -0.399 OA
DOCKED: ATOM     38  H   UNL d   1      -8.985 -16.675  -4.171 +0.05 +0.14    +0.209 HD
DOCKED: ENDBRANCH  36  37
DOCKED: ENDBRANCH  29  36
DOCKED: BRANCH  22  39
DOCKED: ATOM     39  C   UNL d   1      -8.649 -12.252  -0.216 -0.28 +0.04    +0.052 C 
DOCKED: BRANCH  39  40
DOCKED: ATOM     40  C   UNL d   1      -7.273 -12.037  -0.867 -0.11 +0.10    +0.115 C 
DOCKED: BRANCH  40  41
DOCKED: ATOM     41  C   UNL d   1      -6.162 -12.876  -0.273 -0.25 +0.20    +0.139 C 
DOCKED: ATOM     42  O   UNL d   1      -6.125 -13.049   0.938 -0.06 -1.25    -0.650 OA
DOCKED: BRANCH  41  43
DOCKED: ATOM     43  O   UNL d   1      -5.259 -13.513  -1.050 -0.02 -1.58    -0.776 OA
DOCKED: ATOM     44  H   UNL d   1      -5.249 -14.473  -1.155 +0.03 +0.42    +0.167 HD
DOCKED: ENDBRANCH  41  43
DOCKED: ENDBRANCH  40  41
DOCKED: ENDBRANCH  39  40
DOCKED: ENDBRANCH  22  39
DOCKED: BRANCH  12  45
DOCKED: ATOM     45  C   UNL d   1     -15.303 -18.430  -6.823 -0.00 +0.00    +0.004 C 
DOCKED: ATOM     46  C   UNL d   1     -15.232 -18.337  -8.148 -0.01 +0.00    +0.012 C 
DOCKED: ENDBRANCH  12  45
DOCKED: BRANCH  17  47
DOCKED: ATOM     47  C   UNL d   1     -13.313 -10.883  -6.426 -0.26 -0.00    +0.004 C 
DOCKED: ATOM     48  C   UNL d   1     -14.194  -9.954  -6.047 -0.43 +0.00    +0.012 C 
DOCKED: ENDBRANCH  17  47
DOCKED: TORSDOF 12
DOCKED: TER
DOCKED: ENDMDL
________________________________________________________________________________


	BEGINNING GENETIC ALGORITHM DOCKING 55 of 100
Run: 55 Seed: 986834860 1744709592 [ Run 55 of 100 GA/GALS ]
Beginning LAMARCKIAN GENETIC ALGORITHM (LGA), with a maximum of 25000000 energy evaluations.

Final-Value: -13.181


	FINAL GENETIC ALGORITHM DOCKED STATE
	_______________________________________________


Detailed state:  trans -0.466 -15.670 -1.645 quatxyzw -0.379854 -0.025273 0.403616 -0.831966 center 8.781 34.984 -0.736 ntor 12 -102.1680 121.6898 -23.4490 10.6868 115.4471 128.0873 46.4475 -93.1454 144.9784 47.4590 -156.9631 -57.0094
State:	 -0.466 -15.670  -1.645  -0.685 -0.046  0.727 -67.398   -102.17  121.69  -23.45   10.69  115.45  128.09   46.45  -93.15  144.98   47.46 -156.96  -57.01

DOCKED: MODEL       55
DOCKED: USER    Run = 55
DOCKED: USER    DPF = D:/Protein_go_brrr/autodock/final/AncA/heme_Co/dock.dpf
DOCKED: USER  
DOCKED: USER    Estimated Free Energy of Binding    =   -7.62 kcal/mol  [=(1)+(2)+(3)-(4)]
DOCKED: USER    Estimated Inhibition Constant, Ki   =    2.61 uM (micromolar)  [Temperature = 298.15 K]
DOCKED: USER    
DOCKED: USER    (1) Final Intermolecular Energy     =  -11.20 kcal/mol
DOCKED: USER        vdW + Hbond + desolv Energy     =   -6.62 kcal/mol
DOCKED: USER        Electrostatic Energy            =   -4.57 kcal/mol
DOCKED: USER    (2) Final Total Internal Energy     =   -1.98 kcal/mol
DOCKED: USER    (3) Torsional Free Energy           =   +3.58 kcal/mol
DOCKED: USER    (4) Unbound System's Energy  [=(2)] =   -1.98 kcal/mol
DOCKED: USER    
DOCKED: USER    
DOCKED: USER    NEWDPF move heme_Co_opt.pdbqt
DOCKED: USER    NEWDPF about 8.781000 34.984000 -0.736000
DOCKED: USER    NEWDPF tran0 -0.465500 -15.669760 -1.645312
DOCKED: USER    NEWDPF quaternion0 -0.379854 -0.025273 0.403616 -0.831966
DOCKED: USER    NEWDPF axisangle0 -0.684634 -0.045551 0.727462 -67.397649
DOCKED: USER    NEWDPF quat0 -0.684634 -0.045551 0.727462 -67.397649
DOCKED: USER    NEWDPF dihe0 -102.17 121.69 -23.45 10.69 115.45 128.09 46.45 -93.15 144.98 47.46 -156.96 -57.01 
DOCKED: USER  keepresnum = 1 
DOCKED: USER  
DOCKED: REMARK  12 active torsions:
DOCKED: REMARK  status: ('A' for Active; 'I' for Inactive)
DOCKED: REMARK    1  A    between atoms: C_6  and  C_10 
DOCKED: REMARK    2  A    between atoms: C_10  and  C_11 
DOCKED: REMARK    3  A    between atoms: C_11  and  C_12 
DOCKED: REMARK    4  A    between atoms: C_12  and  O_14 
DOCKED: REMARK    5  A    between atoms: C_17  and  C_20 
DOCKED: REMARK    6  A    between atoms: C_24  and  C_27 
DOCKED: REMARK    7  A    between atoms: C_31  and  C_34 
DOCKED: REMARK    8  A    between atoms: C_34  and  C_35 
DOCKED: REMARK    9  A    between atoms: C_35  and  C_36 
DOCKED: REMARK   10  A    between atoms: C_36  and  O_38 
DOCKED: REMARK   11  A    between atoms: FE_43  and  C_44 
DOCKED: REMARK   12  A    between atoms: C_44  and  O_45 
DOCKED: USER                              x       y       z     vdW  Elec       q    Type
DOCKED: USER                           _______ _______ _______ _____ _____    ______ ____
DOCKED: ROOT
DOCKED: ATOM      1  C   UNL d   1      -1.797 -17.334  -2.063 -0.05 +0.07    +0.064 A 
DOCKED: ATOM      2  C   UNL d   1      -0.517 -15.205   1.992 -0.10 +0.05    +0.064 C 
DOCKED: ATOM      3  C   UNL d   1       2.582 -12.454  -0.386 -0.17 +0.02    +0.064 A 
DOCKED: ATOM      4  C   UNL d   1       1.015 -14.343  -4.586 -0.19 +0.03    +0.064 A 
DOCKED: ATOM      5  C   UNL d   1      -1.648 -16.980  -0.775 -0.04 +0.06    +0.066 A 
DOCKED: ATOM      6  C   UNL d   1      -2.451 -17.523   0.247 -0.05 -0.02    -0.021 A 
DOCKED: ATOM      7  C   UNL d   1      -2.091 -16.886   1.418 -0.07 -0.02    -0.025 A 
DOCKED: ATOM      8  C   UNL d   1      -1.074 -15.993   1.063 -0.08 +0.06    +0.066 A 
DOCKED: ATOM      9  C   UNL d   1      -2.673 -17.097   2.823 -0.05 +0.06    +0.051 C 
DOCKED: ATOM     10  C   UNL d   1       0.553 -14.276   1.727 -0.12 +0.04    +0.066 A 
DOCKED: ATOM     11  C   UNL d   1       1.274 -13.525   2.680 -0.18 -0.01    -0.021 A 
DOCKED: ATOM     12  C   UNL d   1       2.174 -12.734   1.960 -0.21 +0.00    +0.000 A 
DOCKED: ATOM     13  C   UNL d   1       1.945 -13.070   0.625 -0.14 +0.03    +0.070 A 
DOCKED: ATOM     14  C   UNL d   1       1.161 -13.642   4.178 -0.21 +0.03    +0.052 C 
DOCKED: ATOM     15  C   UNL d   1       2.431 -12.638  -1.816 -0.13 +0.02    +0.066 A 
DOCKED: ATOM     16  C   UNL d   1       3.016 -11.867  -2.811 -0.23 -0.01    -0.021 A 
DOCKED: ATOM     17  C   UNL d   1       2.565 -12.406  -4.025 -0.25 +0.00    +0.000 A 
DOCKED: ATOM     18  C   UNL d   1       1.751 -13.478  -3.673 -0.16 +0.03    +0.070 A 
DOCKED: ATOM     19  C   UNL d   1       3.942 -10.694  -2.581 -0.19 +0.01    +0.052 C 
DOCKED: ATOM     20  C   UNL d   1       0.150 -15.335  -4.266 -0.14 +0.05    +0.066 A 
DOCKED: ATOM     21  C   UNL d   1      -0.526 -16.074  -5.234 -0.19 -0.02    -0.025 A 
DOCKED: ATOM     22  C   UNL d   1      -1.322 -16.964  -4.536 -0.12 -0.02    -0.021 A 
DOCKED: ATOM     23  C   UNL d   1      -1.099 -16.713  -3.166 -0.08 +0.07    +0.066 A 
DOCKED: ATOM     24  C   UNL d   1      -0.433 -15.927  -6.751 -0.35 +0.03    +0.051 C 
DOCKED: ATOM     25  N   UNL d   1      -0.775 -16.034  -0.288 -0.03 -0.19    -0.248 N 
DOCKED: ATOM     26  N   UNL d   1       1.004 -14.043   0.490 -0.06 -0.12    -0.248 N 
DOCKED: ATOM     27  N   UNL d   1       1.670 -13.567  -2.350 -0.04 -0.10    -0.248 N 
DOCKED: ATOM     28  N   UNL d   1      -0.211 -15.727  -2.998 -0.04 -0.20    -0.248 N 
DOCKED: ATOM     29 FE   UNL d   1       0.519 -14.729  -1.383 -0.02 +0.00    +0.000 Fe
DOCKED: ENDROOT
DOCKED: BRANCH   6  30
DOCKED: ATOM     30  C   UNL d   1      -3.567 -18.549   0.078 -0.02 +0.04    +0.052 C 
DOCKED: BRANCH  30  31
DOCKED: ATOM     31  C   UNL d   1      -4.791 -17.909  -0.574 -0.05 +0.12    +0.115 C 
DOCKED: BRANCH  31  32
DOCKED: ATOM     32  C   UNL d   1      -5.016 -16.486  -0.109 -0.09 +0.23    +0.139 C 
DOCKED: ATOM     33  O   UNL d   1      -5.608 -16.284   0.941 -0.28 -1.36    -0.650 OA
DOCKED: BRANCH  32  34
DOCKED: ATOM     34  O   UNL d   1      -4.537 -15.423  -0.796 -0.06 -1.78    -0.776 OA
DOCKED: ATOM     35  H   UNL d   1      -3.784 -14.887  -0.513 +0.02 +0.33    +0.167 HD
DOCKED: ENDBRANCH  32  34
DOCKED: ENDBRANCH  31  32
DOCKED: ENDBRANCH  30  31
DOCKED: ENDBRANCH   6  30
DOCKED: BRANCH  29  36
DOCKED: ATOM     36  C   UNL d   1      -1.086 -13.384  -1.459 -0.16 +0.17    +0.190 C 
DOCKED: BRANCH  36  37
DOCKED: ATOM     37  O   UNL d   1      -2.483 -13.313  -1.436 -0.22 -0.59    -0.399 OA
DOCKED: ATOM     38  H   UNL d   1      -2.783 -14.238  -1.212 +0.05 +0.37    +0.209 HD
DOCKED: ENDBRANCH  36  37
DOCKED: ENDBRANCH  29  36
DOCKED: BRANCH  22  39
DOCKED: ATOM     39  C   UNL d   1      -2.290 -17.953  -5.158 -0.14 +0.06    +0.052 C 
DOCKED: BRANCH  39  40
DOCKED: ATOM     40  C   UNL d   1      -1.643 -18.664  -6.358 -0.10 +0.10    +0.115 C 
DOCKED: BRANCH  40  41
DOCKED: ATOM     41  C   UNL d   1      -2.557 -18.830  -7.554 -0.08 +0.21    +0.139 C 
DOCKED: ATOM     42  O   UNL d   1      -3.242 -17.884  -7.919 -0.38 -1.13    -0.650 OA
DOCKED: BRANCH  41  43
DOCKED: ATOM     43  O   UNL d   1      -2.574 -19.967  -8.283 -0.17 -1.47    -0.776 OA
DOCKED: ATOM     44  H   UNL d   1      -1.863 -20.620  -8.243 +0.02 +0.19    +0.167 HD
DOCKED: ENDBRANCH  41  43
DOCKED: ENDBRANCH  40  41
DOCKED: ENDBRANCH  39  40
DOCKED: ENDBRANCH  22  39
DOCKED: BRANCH  12  45
DOCKED: ATOM     45  C   UNL d   1       3.231 -11.721   2.377 -0.29 +0.00    +0.004 C 
DOCKED: ATOM     46  C   UNL d   1       3.623 -11.326   3.586 -0.28 +0.00    +0.012 C 
DOCKED: ENDBRANCH  12  45
DOCKED: BRANCH  17  47
DOCKED: ATOM     47  C   UNL d   1       2.814 -11.947  -5.424 -0.19 +0.00    +0.004 C 
DOCKED: ATOM     48  C   UNL d   1       3.797 -12.424  -6.191 -0.51 +0.00    +0.012 C 
DOCKED: ENDBRANCH  17  47
DOCKED: TORSDOF 12
DOCKED: TER
DOCKED: ENDMDL
________________________________________________________________________________


	BEGINNING GENETIC ALGORITHM DOCKING 56 of 100
Run: 56 Seed: 164595024 784892489 [ Run 56 of 100 GA/GALS ]
Beginning LAMARCKIAN GENETIC ALGORITHM (LGA), with a maximum of 25000000 energy evaluations.

Final-Value: -12.323


	FINAL GENETIC ALGORITHM DOCKED STATE
	_______________________________________________


Detailed state:  trans -0.240 -15.167 -2.442 quatxyzw -0.848961 -0.217623 -0.432132 0.212526 center 8.781 34.984 -0.736 ntor 12 75.3045 94.1830 79.3230 19.3353 85.4673 116.5500 -27.2918 -23.9243 43.5371 -132.9329 172.1323 -32.8524
State:	 -0.240 -15.167  -2.442  -0.869 -0.223 -0.442 155.459     75.30   94.18   79.32   19.34   85.47  116.55  -27.29  -23.92   43.54 -132.93  172.13  -32.85

DOCKED: MODEL       56
DOCKED: USER    Run = 56
DOCKED: USER    DPF = D:/Protein_go_brrr/autodock/final/AncA/heme_Co/dock.dpf
DOCKED: USER  
DOCKED: USER    Estimated Free Energy of Binding    =   -7.99 kcal/mol  [=(1)+(2)+(3)-(4)]
DOCKED: USER    Estimated Inhibition Constant, Ki   =    1.39 uM (micromolar)  [Temperature = 298.15 K]
DOCKED: USER    
DOCKED: USER    (1) Final Intermolecular Energy     =  -11.57 kcal/mol
DOCKED: USER        vdW + Hbond + desolv Energy     =   -7.68 kcal/mol
DOCKED: USER        Electrostatic Energy            =   -3.89 kcal/mol
DOCKED: USER    (2) Final Total Internal Energy     =   -0.75 kcal/mol
DOCKED: USER    (3) Torsional Free Energy           =   +3.58 kcal/mol
DOCKED: USER    (4) Unbound System's Energy  [=(2)] =   -0.75 kcal/mol
DOCKED: USER    
DOCKED: USER    
DOCKED: USER    NEWDPF move heme_Co_opt.pdbqt
DOCKED: USER    NEWDPF about 8.781000 34.984000 -0.736000
DOCKED: USER    NEWDPF tran0 -0.239705 -15.166520 -2.441631
DOCKED: USER    NEWDPF quaternion0 -0.848961 -0.217623 -0.432132 0.212526
DOCKED: USER    NEWDPF axisangle0 -0.868808 -0.222711 -0.442235 155.459126
DOCKED: USER    NEWDPF quat0 -0.868808 -0.222711 -0.442235 155.459126
DOCKED: USER    NEWDPF dihe0 75.30 94.18 79.32 19.34 85.47 116.55 -27.29 -23.92 43.54 -132.93 172.13 -32.85 
DOCKED: USER  keepresnum = 1 
DOCKED: USER  
DOCKED: REMARK  12 active torsions:
DOCKED: REMARK  status: ('A' for Active; 'I' for Inactive)
DOCKED: REMARK    1  A    between atoms: C_6  and  C_10 
DOCKED: REMARK    2  A    between atoms: C_10  and  C_11 
DOCKED: REMARK    3  A    between atoms: C_11  and  C_12 
DOCKED: REMARK    4  A    between atoms: C_12  and  O_14 
DOCKED: REMARK    5  A    between atoms: C_17  and  C_20 
DOCKED: REMARK    6  A    between atoms: C_24  and  C_27 
DOCKED: REMARK    7  A    between atoms: C_31  and  C_34 
DOCKED: REMARK    8  A    between atoms: C_34  and  C_35 
DOCKED: REMARK    9  A    between atoms: C_35  and  C_36 
DOCKED: REMARK   10  A    between atoms: C_36  and  O_38 
DOCKED: REMARK   11  A    between atoms: FE_43  and  C_44 
DOCKED: REMARK   12  A    between atoms: C_44  and  O_45 
DOCKED: USER                              x       y       z     vdW  Elec       q    Type
DOCKED: USER                           _______ _______ _______ _____ _____    ______ ____
DOCKED: ROOT
DOCKED: ATOM      1  C   UNL d   1      -1.878 -16.497  -2.953 -0.03 +0.09    +0.064 A 
DOCKED: ATOM      2  C   UNL d   1       1.383 -14.278  -5.608 -0.33 +0.03    +0.064 C 
DOCKED: ATOM      3  C   UNL d   1       3.049 -12.019  -1.742 -0.19 +0.02    +0.064 A 
DOCKED: ATOM      4  C   UNL d   1      -0.018 -14.562   1.049 -0.11 +0.04    +0.064 A 
DOCKED: ATOM      5  C   UNL d   1      -1.133 -16.029  -3.968 -0.13 +0.07    +0.066 A 
DOCKED: ATOM      6  C   UNL d   1      -1.274 -16.514  -5.283 -0.16 -0.02    -0.021 A 
DOCKED: ATOM      7  C   UNL d   1      -0.310 -15.883  -6.045 -0.27 -0.02    -0.025 A 
DOCKED: ATOM      8  C   UNL d   1       0.366 -15.029  -5.166 -0.23 +0.04    +0.066 A 
DOCKED: ATOM      9  C   UNL d   1      -0.023 -16.067  -7.543 -0.17 +0.03    +0.051 C 
DOCKED: ATOM     10  C   UNL d   1       2.119 -13.352  -4.785 -0.24 +0.03    +0.066 A 
DOCKED: ATOM     11  C   UNL d   1       3.101 -12.434  -5.218 -0.33 -0.01    -0.021 A 
DOCKED: ATOM     12  C   UNL d   1       3.567 -11.786  -4.071 -0.29 +0.00    +0.000 A 
DOCKED: ATOM     13  C   UNL d   1       2.829 -12.345  -3.028 -0.18 +0.02    +0.070 A 
DOCKED: ATOM     14  C   UNL d   1       3.484 -12.145  -6.647 -0.37 +0.01    +0.052 C 
DOCKED: ATOM     15  C   UNL d   1       2.419 -12.533  -0.542 -0.16 +0.02    +0.066 A 
DOCKED: ATOM     16  C   UNL d   1       2.794 -12.260   0.766 -0.22 -0.01    -0.021 A 
DOCKED: ATOM     17  C   UNL d   1       1.914 -12.993   1.575 -0.19 +0.00    +0.000 A 
DOCKED: ATOM     18  C   UNL d   1       1.058 -13.645   0.693 -0.13 +0.03    +0.070 A 
DOCKED: ATOM     19  C   UNL d   1       3.929 -11.351   1.182 -0.23 +0.01    +0.052 C 
DOCKED: ATOM     20  C   UNL d   1      -0.806 -15.274   0.209 -0.09 +0.05    +0.066 A 
DOCKED: ATOM     21  C   UNL d   1      -1.784 -16.152   0.672 -0.09 -0.03    -0.025 A 
DOCKED: ATOM     22  C   UNL d   1      -2.357 -16.703  -0.460 -0.08 -0.02    -0.021 A 
DOCKED: ATOM     23  C   UNL d   1      -1.686 -16.137  -1.566 -0.08 +0.08    +0.066 A 
DOCKED: ATOM     24  C   UNL d   1      -2.142 -16.467   2.122 +0.12 +0.06    +0.051 C 
DOCKED: ATOM     25  N   UNL d   1      -0.127 -15.095  -3.874 -0.09 -0.20    -0.248 N 
DOCKED: ATOM     26  N   UNL d   1       1.915 -13.251  -3.467 -0.09 -0.10    -0.248 N 
DOCKED: ATOM     27  N   UNL d   1       1.407 -13.372  -0.559 -0.05 -0.11    -0.248 N 
DOCKED: ATOM     28  N   UNL d   1      -0.746 -15.274  -1.165 -0.04 -0.21    -0.248 N 
DOCKED: ATOM     29 FE   UNL d   1       0.683 -14.184  -2.116 -0.03 +0.00    +0.000 Fe
DOCKED: ENDROOT
DOCKED: BRANCH   6  30
DOCKED: ATOM     30  C   UNL d   1      -2.240 -17.595  -5.756 -0.17 +0.06    +0.052 C 
DOCKED: BRANCH  30  31
DOCKED: ATOM     31  C   UNL d   1      -1.502 -18.914  -5.979 -0.07 +0.10    +0.115 C 
DOCKED: BRANCH  31  32
DOCKED: ATOM     32  C   UNL d   1      -1.957 -19.625  -7.235 -0.08 +0.15    +0.139 C 
DOCKED: ATOM     33  O   UNL d   1      -1.798 -20.833  -7.333 +0.01 -0.61    -0.650 OA
DOCKED: BRANCH  32  34
DOCKED: ATOM     34  O   UNL d   1      -2.582 -18.972  -8.242 -0.45 -1.43    -0.776 OA
DOCKED: ATOM     35  H   UNL d   1      -2.147 -18.346  -8.838 +0.05 +0.22    +0.167 HD
DOCKED: ENDBRANCH  32  34
DOCKED: ENDBRANCH  31  32
DOCKED: ENDBRANCH  30  31
DOCKED: ENDBRANCH   6  30
DOCKED: BRANCH  29  36
DOCKED: ATOM     36  C   UNL d   1       2.012 -15.803  -2.026 -0.01 +0.08    +0.190 C 
DOCKED: BRANCH  36  37
DOCKED: ATOM     37  O   UNL d   1       2.101 -17.183  -2.231 +0.00 -0.18    -0.399 OA
DOCKED: ATOM     38  H   UNL d   1       1.158 -17.507  -2.211 +0.01 +0.10    +0.209 HD
DOCKED: ENDBRANCH  36  37
DOCKED: ENDBRANCH  29  36
DOCKED: BRANCH  22  39
DOCKED: ATOM     39  C   UNL d   1      -3.443 -17.762  -0.470 -0.05 +0.05    +0.052 C 
DOCKED: BRANCH  39  40
DOCKED: ATOM     40  C   UNL d   1      -4.768 -17.185   0.055 -0.08 +0.15    +0.115 C 
DOCKED: BRANCH  40  41
DOCKED: ATOM     41  C   UNL d   1      -5.082 -15.790  -0.441 -0.10 +0.27    +0.139 C 
DOCKED: ATOM     42  O   UNL d   1      -6.046 -15.618  -1.174 -0.49 -1.36    -0.650 OA
DOCKED: BRANCH  41  43
DOCKED: ATOM     43  O   UNL d   1      -4.378 -14.713  -0.027 -0.27 -1.76    -0.776 OA
DOCKED: ATOM     44  H   UNL d   1      -3.554 -14.438  -0.449 +0.03 +0.31    +0.167 HD
DOCKED: ENDBRANCH  41  43
DOCKED: ENDBRANCH  40  41
DOCKED: ENDBRANCH  39  40
DOCKED: ENDBRANCH  22  39
DOCKED: BRANCH  12  45
DOCKED: ATOM     45  C   UNL d   1       4.606 -10.695  -3.844 -0.44 +0.00    +0.004 C 
DOCKED: ATOM     46  C   UNL d   1       5.241  -9.910  -4.710 -0.48 +0.00    +0.012 C 
DOCKED: ENDBRANCH  12  45
DOCKED: BRANCH  17  47
DOCKED: ATOM     47  C   UNL d   1       1.880 -13.138   3.061 -0.22 +0.00    +0.004 C 
DOCKED: ATOM     48  C   UNL d   1       1.647 -12.121   3.895 -0.38 +0.00    +0.012 C 
DOCKED: ENDBRANCH  17  47
DOCKED: TORSDOF 12
DOCKED: TER
DOCKED: ENDMDL
________________________________________________________________________________


	BEGINNING GENETIC ALGORITHM DOCKING 57 of 100
Run: 57 Seed: 1138880608 1781601428 [ Run 57 of 100 GA/GALS ]
Beginning LAMARCKIAN GENETIC ALGORITHM (LGA), with a maximum of 25000000 energy evaluations.

Final-Value: -10.697


	FINAL GENETIC ALGORITHM DOCKED STATE
	_______________________________________________


Detailed state:  trans 4.672 16.171 6.797 quatxyzw 0.087006 0.729932 0.085861 0.672501 center 8.781 34.984 -0.736 ntor 12 137.6311 89.9167 -68.3589 112.3052 132.6160 122.4034 -120.7760 -31.7767 -127.0113 -151.5090 179.9130 155.7071
State:	  4.672  16.171   6.797   0.118  0.986  0.116 95.479    137.63   89.92  -68.36  112.31  132.62  122.40 -120.78  -31.78 -127.01 -151.51  179.91  155.71

DOCKED: MODEL       57
DOCKED: USER    Run = 57
DOCKED: USER    DPF = D:/Protein_go_brrr/autodock/final/AncA/heme_Co/dock.dpf
DOCKED: USER  
DOCKED: USER    Estimated Free Energy of Binding    =   -2.97 kcal/mol  [=(1)+(2)+(3)-(4)]
DOCKED: USER    Estimated Inhibition Constant, Ki   =    6.66 mM (millimolar)  [Temperature = 298.15 K]
DOCKED: USER    
DOCKED: USER    (1) Final Intermolecular Energy     =   -6.55 kcal/mol
DOCKED: USER        vdW + Hbond + desolv Energy     =   -6.68 kcal/mol
DOCKED: USER        Electrostatic Energy            =   +0.13 kcal/mol
DOCKED: USER    (2) Final Total Internal Energy     =   -4.15 kcal/mol
DOCKED: USER    (3) Torsional Free Energy           =   +3.58 kcal/mol
DOCKED: USER    (4) Unbound System's Energy  [=(2)] =   -4.15 kcal/mol
DOCKED: USER    
DOCKED: USER    
DOCKED: USER    NEWDPF move heme_Co_opt.pdbqt
DOCKED: USER    NEWDPF about 8.781000 34.984000 -0.736000
DOCKED: USER    NEWDPF tran0 4.672229 16.171065 6.796527
DOCKED: USER    NEWDPF quaternion0 0.087006 0.729932 0.085861 0.672501
DOCKED: USER    NEWDPF axisangle0 0.117561 0.986266 0.116014 95.479224
DOCKED: USER    NEWDPF quat0 0.117561 0.986266 0.116014 95.479224
DOCKED: USER    NEWDPF dihe0 137.63 89.92 -68.36 112.31 132.62 122.40 -120.78 -31.78 -127.01 -151.51 179.91 155.71 
DOCKED: USER  keepresnum = 1 
DOCKED: USER  
DOCKED: REMARK  12 active torsions:
DOCKED: REMARK  status: ('A' for Active; 'I' for Inactive)
DOCKED: REMARK    1  A    between atoms: C_6  and  C_10 
DOCKED: REMARK    2  A    between atoms: C_10  and  C_11 
DOCKED: REMARK    3  A    between atoms: C_11  and  C_12 
DOCKED: REMARK    4  A    between atoms: C_12  and  O_14 
DOCKED: REMARK    5  A    between atoms: C_17  and  C_20 
DOCKED: REMARK    6  A    between atoms: C_24  and  C_27 
DOCKED: REMARK    7  A    between atoms: C_31  and  C_34 
DOCKED: REMARK    8  A    between atoms: C_34  and  C_35 
DOCKED: REMARK    9  A    between atoms: C_35  and  C_36 
DOCKED: REMARK   10  A    between atoms: C_36  and  O_38 
DOCKED: REMARK   11  A    between atoms: FE_43  and  C_44 
DOCKED: REMARK   12  A    between atoms: C_44  and  O_45 
DOCKED: USER                              x       y       z     vdW  Elec       q    Type
DOCKED: USER                           _______ _______ _______ _____ _____    ______ ____
DOCKED: ROOT
DOCKED: ATOM      1  C   UNL d   1       5.770  16.427   4.941 -0.30 -0.02    +0.064 A 
DOCKED: ATOM      2  C   UNL d   1       1.413  14.766   5.872 -0.17 -0.00    +0.064 C 
DOCKED: ATOM      3  C   UNL d   1       2.237  15.129  10.564 -0.13 -0.00    +0.064 A 
DOCKED: ATOM      4  C   UNL d   1       6.545  17.189   9.636 -0.15 -0.01    +0.064 A 
DOCKED: ATOM      5  C   UNL d   1       4.533  15.912   4.851 -0.24 -0.02    +0.066 A 
DOCKED: ATOM      6  C   UNL d   1       3.892  15.719   3.612 -0.30 +0.00    -0.021 A 
DOCKED: ATOM      7  C   UNL d   1       2.620  15.259   3.889 -0.22 +0.00    -0.025 A 
DOCKED: ATOM      8  C   UNL d   1       2.544  15.175   5.283 -0.19 -0.01    +0.066 A 
DOCKED: ATOM      9  C   UNL d   1       1.506  14.908   2.890 -0.23 -0.00    +0.051 C 
DOCKED: ATOM     10  C   UNL d   1       1.251  14.623   7.297 -0.19 -0.01    +0.066 A 
DOCKED: ATOM     11  C   UNL d   1       0.140  14.067   7.969 -0.22 +0.00    -0.021 A 
DOCKED: ATOM     12  C   UNL d   1       0.409  14.182   9.335 -0.23 -0.00    +0.000 A 
DOCKED: ATOM     13  C   UNL d   1       1.665  14.786   9.396 -0.18 -0.01    +0.070 A 
DOCKED: ATOM     14  C   UNL d   1      -1.043  13.391   7.326 -0.29 -0.00    +0.052 C 
DOCKED: ATOM     15  C   UNL d   1       3.497  15.803  10.809 -0.11 +0.00    +0.066 A 
DOCKED: ATOM     16  C   UNL d   1       3.963  16.258  12.034 -0.10 -0.00    -0.021 A 
DOCKED: ATOM     17  C   UNL d   1       5.204  16.855  11.771 -0.13 -0.00    +0.000 A 
DOCKED: ATOM     18  C   UNL d   1       5.406  16.701  10.403 -0.11 -0.00    +0.070 A 
DOCKED: ATOM     19  C   UNL d   1       3.240  16.116  13.355 -0.04 -0.00    +0.052 C 
DOCKED: ATOM     20  C   UNL d   1       6.722  17.127   8.294 -0.19 -0.01    +0.066 A 
DOCKED: ATOM     21  C   UNL d   1       7.844  17.664   7.667 -0.21 +0.00    -0.025 A 
DOCKED: ATOM     22  C   UNL d   1       7.662  17.434   6.316 -0.28 +0.00    -0.021 A 
DOCKED: ATOM     23  C   UNL d   1       6.423  16.773   6.183 -0.28 -0.02    +0.066 A 
DOCKED: ATOM     24  C   UNL d   1       9.023  18.380   8.321 -0.14 -0.01    +0.051 C 
DOCKED: ATOM     25  N   UNL d   1       3.717  15.568   5.905 -0.14 +0.04    -0.248 N 
DOCKED: ATOM     26  N   UNL d   1       2.197  15.001   8.164 -0.14 +0.02    -0.248 N 
DOCKED: ATOM     27  N   UNL d   1       4.356  16.097   9.858 -0.06 +0.00    -0.248 N 
DOCKED: ATOM     28  N   UNL d   1       5.849  16.587   7.378 -0.06 +0.07    -0.248 N 
DOCKED: ATOM     29 FE   UNL d   1       4.059  15.849   7.998 -0.05 -0.00    +0.000 Fe
DOCKED: ENDROOT
DOCKED: BRANCH   6  30
DOCKED: ATOM     30  C   UNL d   1       4.459  16.045   2.234 -0.42 -0.01    +0.052 C 
DOCKED: BRANCH  30  31
DOCKED: ATOM     31  C   UNL d   1       3.985  17.422   1.770 -0.17 -0.01    +0.115 C 
DOCKED: BRANCH  31  32
DOCKED: ATOM     32  C   UNL d   1       4.226  18.496   2.809 -0.11 -0.01    +0.139 C 
DOCKED: ATOM     33  O   UNL d   1       5.082  19.344   2.608 +0.04 +0.02    -0.650 OA
DOCKED: BRANCH  32  34
DOCKED: ATOM     34  O   UNL d   1       3.488  18.578   3.940 +0.04 +0.04    -0.776 OA
DOCKED: ATOM     35  H   UNL d   1       3.860  18.704   4.824 +0.03 -0.01    +0.167 HD
DOCKED: ENDBRANCH  32  34
DOCKED: ENDBRANCH  31  32
DOCKED: ENDBRANCH  30  31
DOCKED: ENDBRANCH   6  30
DOCKED: BRANCH  29  36
DOCKED: ATOM     36  C   UNL d   1       3.176  17.737   7.773 -0.03 -0.01    +0.190 C 
DOCKED: BRANCH  36  37
DOCKED: ATOM     37  O   UNL d   1       3.015  18.792   6.868 +0.00 +0.02    -0.399 OA
DOCKED: ATOM     38  H   UNL d   1       3.785  18.709   6.239 +0.03 -0.01    +0.209 HD
DOCKED: ENDBRANCH  36  37
DOCKED: ENDBRANCH  29  36
DOCKED: BRANCH  22  39
DOCKED: ATOM     39  C   UNL d   1       8.601  17.885   5.212 -0.25 -0.00    +0.052 C 
DOCKED: BRANCH  39  40
DOCKED: ATOM     40  C   UNL d   1       8.037  19.120   4.491 -0.09 -0.01    +0.115 C 
DOCKED: BRANCH  40  41
DOCKED: ATOM     41  C   UNL d   1       7.047  19.923   5.309 -0.08 -0.01    +0.139 C 
DOCKED: ATOM     42  O   UNL d   1       7.391  21.000   5.776 +0.02 +0.04    -0.650 OA
DOCKED: BRANCH  41  43
DOCKED: ATOM     43  O   UNL d   1       5.765  19.524   5.465 +0.04 +0.05    -0.776 OA
DOCKED: ATOM     44  H   UNL d   1       5.156  19.431   4.721 +0.03 -0.01    +0.167 HD
DOCKED: ENDBRANCH  41  43
DOCKED: ENDBRANCH  40  41
DOCKED: ENDBRANCH  39  40
DOCKED: ENDBRANCH  22  39
DOCKED: BRANCH  12  45
DOCKED: ATOM     45  C   UNL d   1      -0.364  13.776  10.583 -0.24 -0.00    +0.004 C 
DOCKED: ATOM     46  C   UNL d   1      -0.186  12.756  11.418 -0.24 -0.00    +0.012 C 
DOCKED: ENDBRANCH  12  45
DOCKED: BRANCH  17  47
DOCKED: ATOM     47  C   UNL d   1       6.134  17.570  12.695 -0.08 -0.00    +0.004 C 
DOCKED: ATOM     48  C   UNL d   1       7.324  17.089  13.061 -0.10 +0.00    +0.012 C 
DOCKED: ENDBRANCH  17  47
DOCKED: TORSDOF 12
DOCKED: TER
DOCKED: ENDMDL
________________________________________________________________________________


	BEGINNING GENETIC ALGORITHM DOCKING 58 of 100
Run: 58 Seed: 906028420 321731840 [ Run 58 of 100 GA/GALS ]
Beginning LAMARCKIAN GENETIC ALGORITHM (LGA), with a maximum of 25000000 energy evaluations.

Final-Value: -9.610


	FINAL GENETIC ALGORITHM DOCKED STATE
	_______________________________________________


Detailed state:  trans 8.991 8.686 -15.899 quatxyzw -0.528281 0.266930 -0.040619 -0.804996 center 8.781 34.984 -0.736 ntor 12 156.0497 121.1961 32.5616 118.9095 133.7462 140.8983 -129.3700 -180.0000 -134.9149 154.1001 -179.8901 8.0672
State:	  8.991   8.686 -15.899  -0.890  0.450 -0.068 -72.780    156.05  121.20   32.56  118.91  133.75  140.90 -129.37 -180.00 -134.91  154.10 -179.89    8.07

DOCKED: MODEL       58
DOCKED: USER    Run = 58
DOCKED: USER    DPF = D:/Protein_go_brrr/autodock/final/AncA/heme_Co/dock.dpf
DOCKED: USER  
DOCKED: USER    Estimated Free Energy of Binding    =   -3.79 kcal/mol  [=(1)+(2)+(3)-(4)]
DOCKED: USER    Estimated Inhibition Constant, Ki   =    1.67 mM (millimolar)  [Temperature = 298.15 K]
DOCKED: USER    
DOCKED: USER    (1) Final Intermolecular Energy     =   -7.37 kcal/mol
DOCKED: USER        vdW + Hbond + desolv Energy     =   -5.42 kcal/mol
DOCKED: USER        Electrostatic Energy            =   -1.95 kcal/mol
DOCKED: USER    (2) Final Total Internal Energy     =   -2.24 kcal/mol
DOCKED: USER    (3) Torsional Free Energy           =   +3.58 kcal/mol
DOCKED: USER    (4) Unbound System's Energy  [=(2)] =   -2.24 kcal/mol
DOCKED: USER    
DOCKED: USER    
DOCKED: USER    NEWDPF move heme_Co_opt.pdbqt
DOCKED: USER    NEWDPF about 8.781000 34.984000 -0.736000
DOCKED: USER    NEWDPF tran0 8.990982 8.685566 -15.898518
DOCKED: USER    NEWDPF quaternion0 -0.528281 0.266930 -0.040619 -0.804996
DOCKED: USER    NEWDPF axisangle0 -0.890440 0.449921 -0.068464 -72.780317
DOCKED: USER    NEWDPF quat0 -0.890440 0.449921 -0.068464 -72.780317
DOCKED: USER    NEWDPF dihe0 156.05 121.20 32.56 118.91 133.75 140.90 -129.37 -180.00 -134.91 154.10 -179.89 8.07 
DOCKED: USER  keepresnum = 1 
DOCKED: USER  
DOCKED: REMARK  12 active torsions:
DOCKED: REMARK  status: ('A' for Active; 'I' for Inactive)
DOCKED: REMARK    1  A    between atoms: C_6  and  C_10 
DOCKED: REMARK    2  A    between atoms: C_10  and  C_11 
DOCKED: REMARK    3  A    between atoms: C_11  and  C_12 
DOCKED: REMARK    4  A    between atoms: C_12  and  O_14 
DOCKED: REMARK    5  A    between atoms: C_17  and  C_20 
DOCKED: REMARK    6  A    between atoms: C_24  and  C_27 
DOCKED: REMARK    7  A    between atoms: C_31  and  C_34 
DOCKED: REMARK    8  A    between atoms: C_34  and  C_35 
DOCKED: REMARK    9  A    between atoms: C_35  and  C_36 
DOCKED: REMARK   10  A    between atoms: C_36  and  O_38 
DOCKED: REMARK   11  A    between atoms: FE_43  and  C_44 
DOCKED: REMARK   12  A    between atoms: C_44  and  O_45 
DOCKED: USER                              x       y       z     vdW  Elec       q    Type
DOCKED: USER                           _______ _______ _______ _____ _____    ______ ____
DOCKED: ROOT
DOCKED: ATOM      1  C   UNL d   1       6.828   8.872 -15.840 -0.14 +0.03    +0.064 A 
DOCKED: ATOM      2  C   UNL d   1      10.245  10.364 -12.889 -0.21 +0.02    +0.064 C 
DOCKED: ATOM      3  C   UNL d   1      13.546   8.119 -15.515 -0.12 +0.01    +0.064 A 
DOCKED: ATOM      4  C   UNL d   1      10.125   6.907 -18.754 -0.09 +0.03    +0.064 A 
DOCKED: ATOM      5  C   UNL d   1       7.515   9.414 -14.820 -0.14 +0.03    +0.066 A 
DOCKED: ATOM      6  C   UNL d   1       6.896  10.229 -13.852 -0.11 -0.01    -0.021 A 
DOCKED: ATOM      7  C   UNL d   1       7.896  10.678 -13.012 -0.18 -0.01    -0.025 A 
DOCKED: ATOM      8  C   UNL d   1       9.079  10.105 -13.493 -0.18 +0.02    +0.066 A 
DOCKED: ATOM      9  C   UNL d   1       7.760  11.611 -11.799 -0.16 +0.02    +0.051 C 
DOCKED: ATOM     10  C   UNL d   1      11.508   9.799 -13.296 -0.18 +0.02    +0.066 A 
DOCKED: ATOM     11  C   UNL d   1      12.742   9.920 -12.621 -0.21 -0.00    -0.021 A 
DOCKED: ATOM     12  C   UNL d   1      13.686   9.252 -13.407 -0.22 +0.00    +0.000 A 
DOCKED: ATOM     13  C   UNL d   1      12.958   8.765 -14.492 -0.17 +0.01    +0.070 A 
DOCKED: ATOM     14  C   UNL d   1      12.963  10.551 -11.271 -0.28 +0.02    +0.052 C 
DOCKED: ATOM     15  C   UNL d   1      12.957   7.597 -16.733 -0.07 +0.02    +0.066 A 
DOCKED: ATOM     16  C   UNL d   1      13.643   7.068 -17.817 -0.10 -0.00    -0.021 A 
DOCKED: ATOM     17  C   UNL d   1      12.661   6.719 -18.755 -0.08 +0.00    +0.000 A 
DOCKED: ATOM     18  C   UNL d   1      11.448   7.049 -18.159 -0.12 +0.03    +0.070 A 
DOCKED: ATOM     19  C   UNL d   1      15.145   6.921 -17.918 -0.10 +0.01    +0.052 C 
DOCKED: ATOM     20  C   UNL d   1       8.939   7.300 -18.230 -0.11 +0.04    +0.066 A 
DOCKED: ATOM     21  C   UNL d   1       7.735   7.142 -18.914 -0.07 -0.01    -0.025 A 
DOCKED: ATOM     22  C   UNL d   1       6.764   7.674 -18.085 -0.08 -0.01    -0.021 A 
DOCKED: ATOM     23  C   UNL d   1       7.430   8.143 -16.933 -0.13 +0.04    +0.066 A 
DOCKED: ATOM     24  C   UNL d   1       7.523   6.534 -20.297 -0.02 +0.02    +0.051 C 
DOCKED: ATOM     25  N   UNL d   1       8.871   9.312 -14.609 -0.14 -0.11    -0.248 N 
DOCKED: ATOM     26  N   UNL d   1      11.632   9.049 -14.395 -0.15 -0.07    -0.248 N 
DOCKED: ATOM     27  N   UNL d   1      11.665   7.597 -16.969 -0.14 -0.10    -0.248 N 
DOCKED: ATOM     28  N   UNL d   1       8.747   7.921 -17.018 -0.12 -0.17    -0.248 N 
DOCKED: ATOM     29 FE   UNL d   1      10.348   8.402 -15.861 -0.04 +0.00    +0.000 Fe
DOCKED: ENDROOT
DOCKED: BRANCH   6  30
DOCKED: ATOM     30  C   UNL d   1       5.423  10.618 -13.798 -0.09 +0.01    +0.052 C 
DOCKED: BRANCH  30  31
DOCKED: ATOM     31  C   UNL d   1       5.201  11.979 -14.457 -0.04 +0.01    +0.115 C 
DOCKED: BRANCH  31  32
DOCKED: ATOM     32  C   UNL d   1       5.970  12.124 -15.753 -0.02 +0.02    +0.139 C 
DOCKED: ATOM     33  O   UNL d   1       5.386  11.983 -16.817 +0.01 -0.09    -0.650 OA
DOCKED: BRANCH  32  34
DOCKED: ATOM     34  O   UNL d   1       7.282  12.455 -15.776 +0.02 -0.12    -0.776 OA
DOCKED: ATOM     35  H   UNL d   1       7.896  12.196 -16.476 +0.01 +0.03    +0.167 HD
DOCKED: ENDBRANCH  32  34
DOCKED: ENDBRANCH  31  32
DOCKED: ENDBRANCH  30  31
DOCKED: ENDBRANCH   6  30
DOCKED: BRANCH  29  36
DOCKED: ATOM     36  C   UNL d   1      10.514  10.258 -16.822 -0.03 +0.05    +0.190 C 
DOCKED: BRANCH  36  37
DOCKED: ATOM     37  O   UNL d   1       9.887  11.500 -16.962 +0.00 -0.07    -0.399 OA
DOCKED: ATOM     38  H   UNL d   1       9.153  11.495 -16.286 +0.02 +0.04    +0.209 HD
DOCKED: ENDBRANCH  36  37
DOCKED: ENDBRANCH  29  36
DOCKED: BRANCH  22  39
DOCKED: ATOM     39  C   UNL d   1       5.287   7.780 -18.417 -0.04 +0.02    +0.052 C 
DOCKED: BRANCH  39  40
DOCKED: ATOM     40  C   UNL d   1       4.467   6.797 -17.565 -0.07 +0.06    +0.115 C 
DOCKED: BRANCH  40  41
DOCKED: ATOM     41  C   UNL d   1       5.199   5.521 -17.206 -0.05 +0.15    +0.139 C 
DOCKED: ATOM     42  O   UNL d   1       5.880   4.963 -18.055 -0.29 -0.80    -0.650 OA
DOCKED: BRANCH  41  43
DOCKED: ATOM     43  O   UNL d   1       5.190   5.027 -15.948 -0.40 -1.28    -0.776 OA
DOCKED: ATOM     44  H   UNL d   1       4.405   5.051 -15.386 +0.04 +0.14    +0.167 HD
DOCKED: ENDBRANCH  41  43
DOCKED: ENDBRANCH  40  41
DOCKED: ENDBRANCH  39  40
DOCKED: ENDBRANCH  22  39
DOCKED: BRANCH  12  45
DOCKED: ATOM     45  C   UNL d   1      15.180   9.004 -13.248 -0.24 +0.00    +0.004 C 
DOCKED: ATOM     46  C   UNL d   1      15.850   7.882 -12.998 -0.30 +0.00    +0.012 C 
DOCKED: ENDBRANCH  12  45
DOCKED: BRANCH  17  47
DOCKED: ATOM     47  C   UNL d   1      12.812   6.166 -20.134 -0.05 +0.00    +0.004 C 
DOCKED: ATOM     48  C   UNL d   1      12.442   4.930 -20.476 -0.04 +0.00    +0.012 C 
DOCKED: ENDBRANCH  17  47
DOCKED: TORSDOF 12
DOCKED: TER
DOCKED: ENDMDL
________________________________________________________________________________


	BEGINNING GENETIC ALGORITHM DOCKING 59 of 100
Run: 59 Seed: 431917719 1770587903 [ Run 59 of 100 GA/GALS ]
Beginning LAMARCKIAN GENETIC ALGORITHM (LGA), with a maximum of 25000000 energy evaluations.

Final-Value: -12.692


	FINAL GENETIC ALGORITHM DOCKED STATE
	_______________________________________________


Detailed state:  trans 0.117 -15.900 -2.203 quatxyzw 0.429696 -0.025909 -0.423945 0.796844 center 8.781 34.984 -0.736 ntor 12 109.4304 109.9110 -10.5159 126.9749 83.1860 132.5912 -134.0841 -160.8847 -144.8753 -53.7169 -172.5757 163.9982
State:	  0.117 -15.900  -2.203   0.711 -0.043 -0.702 74.340    109.43  109.91  -10.52  126.97   83.19  132.59 -134.08 -160.88 -144.88  -53.72 -172.58  164.00

DOCKED: MODEL       59
DOCKED: USER    Run = 59
DOCKED: USER    DPF = D:/Protein_go_brrr/autodock/final/AncA/heme_Co/dock.dpf
DOCKED: USER  
DOCKED: USER    Estimated Free Energy of Binding    =   -6.98 kcal/mol  [=(1)+(2)+(3)-(4)]
DOCKED: USER    Estimated Inhibition Constant, Ki   =    7.63 uM (micromolar)  [Temperature = 298.15 K]
DOCKED: USER    
DOCKED: USER    (1) Final Intermolecular Energy     =  -10.56 kcal/mol
DOCKED: USER        vdW + Hbond + desolv Energy     =   -6.12 kcal/mol
DOCKED: USER        Electrostatic Energy            =   -4.44 kcal/mol
DOCKED: USER    (2) Final Total Internal Energy     =   -2.13 kcal/mol
DOCKED: USER    (3) Torsional Free Energy           =   +3.58 kcal/mol
DOCKED: USER    (4) Unbound System's Energy  [=(2)] =   -2.13 kcal/mol
DOCKED: USER    
DOCKED: USER    
DOCKED: USER    NEWDPF move heme_Co_opt.pdbqt
DOCKED: USER    NEWDPF about 8.781000 34.984000 -0.736000
DOCKED: USER    NEWDPF tran0 0.117209 -15.900373 -2.203170
DOCKED: USER    NEWDPF quaternion0 0.429696 -0.025909 -0.423945 0.796844
DOCKED: USER    NEWDPF axisangle0 0.711200 -0.042883 -0.701681 74.340410
DOCKED: USER    NEWDPF quat0 0.711200 -0.042883 -0.701681 74.340410
DOCKED: USER    NEWDPF dihe0 109.43 109.91 -10.52 126.97 83.19 132.59 -134.08 -160.88 -144.88 -53.72 -172.58 164.00 
DOCKED: USER  keepresnum = 1 
DOCKED: USER  
DOCKED: REMARK  12 active torsions:
DOCKED: REMARK  status: ('A' for Active; 'I' for Inactive)
DOCKED: REMARK    1  A    between atoms: C_6  and  C_10 
DOCKED: REMARK    2  A    between atoms: C_10  and  C_11 
DOCKED: REMARK    3  A    between atoms: C_11  and  C_12 
DOCKED: REMARK    4  A    between atoms: C_12  and  O_14 
DOCKED: REMARK    5  A    between atoms: C_17  and  C_20 
DOCKED: REMARK    6  A    between atoms: C_24  and  C_27 
DOCKED: REMARK    7  A    between atoms: C_31  and  C_34 
DOCKED: REMARK    8  A    between atoms: C_34  and  C_35 
DOCKED: REMARK    9  A    between atoms: C_35  and  C_36 
DOCKED: REMARK   10  A    between atoms: C_36  and  O_38 
DOCKED: REMARK   11  A    between atoms: FE_43  and  C_44 
DOCKED: REMARK   12  A    between atoms: C_44  and  O_45 
DOCKED: USER                              x       y       z     vdW  Elec       q    Type
DOCKED: USER                           _______ _______ _______ _____ _____    ______ ____
DOCKED: ROOT
DOCKED: ATOM      1  C   UNL d   1      -1.193 -17.630  -2.284 -0.03 +0.05    +0.064 A 
DOCKED: ATOM      2  C   UNL d   1       0.261 -14.889   1.319 -0.11 +0.04    +0.064 C 
DOCKED: ATOM      3  C   UNL d   1       3.150 -12.482  -1.629 -0.14 +0.02    +0.064 A 
DOCKED: ATOM      4  C   UNL d   1       1.394 -15.012  -5.394 -0.22 +0.03    +0.064 A 
DOCKED: ATOM      5  C   UNL d   1      -0.981 -17.082  -1.076 -0.03 +0.05    +0.066 A 
DOCKED: ATOM      6  C   UNL d   1      -1.710 -17.477   0.062 -0.03 -0.02    -0.021 A 
DOCKED: ATOM      7  C   UNL d   1      -1.300 -16.663   1.100 -0.07 -0.02    -0.025 A 
DOCKED: ATOM      8  C   UNL d   1      -0.328 -15.818   0.555 -0.06 +0.05    +0.066 A 
DOCKED: ATOM      9  C   UNL d   1      -1.796 -16.668   2.554 -0.03 +0.05    +0.051 C 
DOCKED: ATOM     10  C   UNL d   1       1.290 -13.994   0.853 -0.10 +0.03    +0.066 A 
DOCKED: ATOM     11  C   UNL d   1       2.045 -13.095   1.637 -0.17 -0.01    -0.021 A 
DOCKED: ATOM     12  C   UNL d   1       2.882 -12.409   0.753 -0.20 +0.00    +0.000 A 
DOCKED: ATOM     13  C   UNL d   1       2.586 -12.947  -0.500 -0.11 +0.02    +0.070 A 
DOCKED: ATOM     14  C   UNL d   1       2.021 -12.984   3.140 -0.21 +0.02    +0.052 C 
DOCKED: ATOM     15  C   UNL d   1       2.922 -12.883  -3.003 -0.13 +0.02    +0.066 A 
DOCKED: ATOM     16  C   UNL d   1       3.430 -12.263  -4.136 -0.24 -0.01    -0.021 A 
DOCKED: ATOM     17  C   UNL d   1       2.924 -12.988  -5.225 -0.31 +0.00    +0.000 A 
DOCKED: ATOM     18  C   UNL d   1       2.159 -14.007  -4.667 -0.19 +0.03    +0.070 A 
DOCKED: ATOM     19  C   UNL d   1       4.338 -11.054  -4.142 -0.40 +0.01    +0.052 C 
DOCKED: ATOM     20  C   UNL d   1       0.575 -15.958  -4.876 -0.13 +0.04    +0.066 A 
DOCKED: ATOM     21  C   UNL d   1      -0.136 -16.846  -5.680 -0.15 -0.02    -0.025 A 
DOCKED: ATOM     22  C   UNL d   1      -0.869 -17.633  -4.809 -0.08 -0.02    -0.021 A 
DOCKED: ATOM     23  C   UNL d   1      -0.575 -17.173  -3.508 -0.05 +0.05    +0.066 A 
DOCKED: ATOM     24  C   UNL d   1      -0.134 -16.930  -7.204 -0.27 +0.03    +0.051 C 
DOCKED: ATOM     25  N   UNL d   1      -0.105 -16.059  -0.790 -0.01 -0.17    -0.248 N 
DOCKED: ATOM     26  N   UNL d   1       1.664 -13.944  -0.430 -0.03 -0.10    -0.248 N 
DOCKED: ATOM     27  N   UNL d   1       2.156 -13.895  -3.344 -0.05 -0.10    -0.248 N 
DOCKED: ATOM     28  N   UNL d   1       0.296 -16.158  -3.544 -0.03 -0.17    -0.248 N 
DOCKED: ATOM     29 FE   UNL d   1       1.091 -14.915  -2.145 -0.02 +0.00    +0.000 Fe
DOCKED: ENDROOT
DOCKED: BRANCH   6  30
DOCKED: ATOM     30  C   UNL d   1      -2.807 -18.534   0.118 -0.02 +0.04    +0.052 C 
DOCKED: BRANCH  30  31
DOCKED: ATOM     31  C   UNL d   1      -4.170 -17.912  -0.186 -0.05 +0.12    +0.115 C 
DOCKED: BRANCH  31  32
DOCKED: ATOM     32  C   UNL d   1      -4.076 -16.774  -1.180 -0.03 +0.24    +0.139 C 
DOCKED: ATOM     33  O   UNL d   1      -4.290 -16.991  -2.363 +0.09 -1.46    -0.650 OA
DOCKED: BRANCH  32  34
DOCKED: ATOM     34  O   UNL d   1      -3.807 -15.505  -0.795 +0.01 -1.60    -0.776 OA
DOCKED: ATOM     35  H   UNL d   1      -2.955 -15.066  -0.924 +0.02 +0.30    +0.167 HD
DOCKED: ENDBRANCH  32  34
DOCKED: ENDBRANCH  31  32
DOCKED: ENDBRANCH  30  31
DOCKED: ENDBRANCH   6  30
DOCKED: BRANCH  29  36
DOCKED: ATOM     36  C   UNL d   1      -0.549 -13.623  -2.327 -0.14 +0.16    +0.190 C 
DOCKED: BRANCH  36  37
DOCKED: ATOM     37  O   UNL d   1      -1.937 -13.555  -2.167 -0.17 -0.57    -0.399 OA
DOCKED: ATOM     38  H   UNL d   1      -2.211 -14.479  -1.908 +0.04 +0.37    +0.209 HD
DOCKED: ENDBRANCH  36  37
DOCKED: ENDBRANCH  29  36
DOCKED: BRANCH  22  39
DOCKED: ATOM     39  C   UNL d   1      -1.846 -18.720  -5.216 -0.08 +0.04    +0.052 C 
DOCKED: BRANCH  39  40
DOCKED: ATOM     40  C   UNL d   1      -3.279 -18.167  -5.279 -0.14 +0.14    +0.115 C 
DOCKED: BRANCH  40  41
DOCKED: ATOM     41  C   UNL d   1      -3.939 -18.294  -6.636 -0.17 +0.22    +0.139 C 
DOCKED: ATOM     42  O   UNL d   1      -3.239 -18.400  -7.634 -0.46 -1.25    -0.650 OA
DOCKED: BRANCH  41  43
DOCKED: ATOM     43  O   UNL d   1      -5.281 -18.381  -6.768 +0.01 -1.34    -0.776 OA
DOCKED: ATOM     44  H   UNL d   1      -5.876 -18.425  -6.008 +0.03 +0.22    +0.167 HD
DOCKED: ENDBRANCH  41  43
DOCKED: ENDBRANCH  40  41
DOCKED: ENDBRANCH  39  40
DOCKED: ENDBRANCH  22  39
DOCKED: BRANCH  12  45
DOCKED: ATOM     45  C   UNL d   1       3.936 -11.326   0.948 -0.25 +0.00    +0.004 C 
DOCKED: ATOM     46  C   UNL d   1       5.241 -11.331   0.691 -0.26 +0.00    +0.012 C 
DOCKED: ENDBRANCH  12  45
DOCKED: BRANCH  17  47
DOCKED: ATOM     47  C   UNL d   1       3.082 -12.743  -6.690 -0.45 +0.00    +0.004 C 
DOCKED: ATOM     48  C   UNL d   1       4.262 -12.752  -7.316 -0.50 +0.00    +0.012 C 
DOCKED: ENDBRANCH  17  47
DOCKED: TORSDOF 12
DOCKED: TER
DOCKED: ENDMDL
________________________________________________________________________________


	BEGINNING GENETIC ALGORITHM DOCKING 60 of 100
Run: 60 Seed: 540471089 1358658103 [ Run 60 of 100 GA/GALS ]
Beginning LAMARCKIAN GENETIC ALGORITHM (LGA), with a maximum of 25000000 energy evaluations.

Final-Value: -11.717


	FINAL GENETIC ALGORITHM DOCKED STATE
	_______________________________________________


Detailed state:  trans -12.060 -14.209 -1.647 quatxyzw -0.620903 -0.629875 0.461713 0.067509 center 8.781 34.984 -0.736 ntor 12 -161.9768 116.9318 60.3122 120.0964 152.3412 135.0270 27.2121 147.0621 -173.2417 -25.5766 -176.6236 149.1704
State:	-12.060 -14.209  -1.647  -0.622 -0.631  0.463 172.258   -161.98  116.93   60.31  120.10  152.34  135.03   27.21  147.06 -173.24  -25.58 -176.62  149.17

DOCKED: MODEL       60
DOCKED: USER    Run = 60
DOCKED: USER    DPF = D:/Protein_go_brrr/autodock/final/AncA/heme_Co/dock.dpf
DOCKED: USER  
DOCKED: USER    Estimated Free Energy of Binding    =   -5.97 kcal/mol  [=(1)+(2)+(3)-(4)]
DOCKED: USER    Estimated Inhibition Constant, Ki   =   42.01 uM (micromolar)  [Temperature = 298.15 K]
DOCKED: USER    
DOCKED: USER    (1) Final Intermolecular Energy     =   -9.55 kcal/mol
DOCKED: USER        vdW + Hbond + desolv Energy     =   -6.66 kcal/mol
DOCKED: USER        Electrostatic Energy            =   -2.89 kcal/mol
DOCKED: USER    (2) Final Total Internal Energy     =   -2.17 kcal/mol
DOCKED: USER    (3) Torsional Free Energy           =   +3.58 kcal/mol
DOCKED: USER    (4) Unbound System's Energy  [=(2)] =   -2.17 kcal/mol
DOCKED: USER    
DOCKED: USER    
DOCKED: USER    NEWDPF move heme_Co_opt.pdbqt
DOCKED: USER    NEWDPF about 8.781000 34.984000 -0.736000
DOCKED: USER    NEWDPF tran0 -12.060280 -14.208530 -1.646850
DOCKED: USER    NEWDPF quaternion0 -0.620903 -0.629875 0.461713 0.067509
DOCKED: USER    NEWDPF axisangle0 -0.622323 -0.631315 0.462769 172.258100
DOCKED: USER    NEWDPF quat0 -0.622323 -0.631315 0.462769 172.258100
DOCKED: USER    NEWDPF dihe0 -161.98 116.93 60.31 120.10 152.34 135.03 27.21 147.06 -173.24 -25.58 -176.62 149.17 
DOCKED: USER  keepresnum = 1 
DOCKED: USER  
DOCKED: REMARK  12 active torsions:
DOCKED: REMARK  status: ('A' for Active; 'I' for Inactive)
DOCKED: REMARK    1  A    between atoms: C_6  and  C_10 
DOCKED: REMARK    2  A    between atoms: C_10  and  C_11 
DOCKED: REMARK    3  A    between atoms: C_11  and  C_12 
DOCKED: REMARK    4  A    between atoms: C_12  and  O_14 
DOCKED: REMARK    5  A    between atoms: C_17  and  C_20 
DOCKED: REMARK    6  A    between atoms: C_24  and  C_27 
DOCKED: REMARK    7  A    between atoms: C_31  and  C_34 
DOCKED: REMARK    8  A    between atoms: C_34  and  C_35 
DOCKED: REMARK    9  A    between atoms: C_35  and  C_36 
DOCKED: REMARK   10  A    between atoms: C_36  and  O_38 
DOCKED: REMARK   11  A    between atoms: FE_43  and  C_44 
DOCKED: REMARK   12  A    between atoms: C_44  and  O_45 
DOCKED: USER                              x       y       z     vdW  Elec       q    Type
DOCKED: USER                           _______ _______ _______ _____ _____    ______ ____
DOCKED: ROOT
DOCKED: ATOM      1  C   UNL d   1     -10.798 -15.134  -0.141 -0.10 +0.03    +0.064 A 
DOCKED: ATOM      2  C   UNL d   1     -15.145 -16.188  -1.755 -0.12 +0.01    +0.064 C 
DOCKED: ATOM      3  C   UNL d   1     -15.130 -12.260  -4.474 -0.19 +0.00    +0.064 A 
DOCKED: ATOM      4  C   UNL d   1     -10.539 -11.367  -3.136 -0.27 +0.02    +0.064 A 
DOCKED: ATOM      5  C   UNL d   1     -12.002 -15.692  -0.355 -0.11 +0.02    +0.066 A 
DOCKED: ATOM      6  C   UNL d   1     -12.368 -16.923   0.222 -0.07 -0.01    -0.021 A 
DOCKED: ATOM      7  C   UNL d   1     -13.621 -17.236  -0.268 -0.07 -0.01    -0.025 A 
DOCKED: ATOM      8  C   UNL d   1     -13.973 -16.174  -1.108 -0.12 +0.01    +0.066 A 
DOCKED: ATOM      9  C   UNL d   1     -14.467 -18.482   0.034 -0.03 +0.01    +0.051 C 
DOCKED: ATOM     10  C   UNL d   1     -15.604 -15.130  -2.619 -0.12 +0.01    +0.066 A 
DOCKED: ATOM     11  C   UNL d   1     -16.880 -15.019  -3.214 -0.08 -0.00    -0.021 A 
DOCKED: ATOM     12  C   UNL d   1     -16.849 -13.862  -3.998 -0.09 +0.00    +0.000 A 
DOCKED: ATOM     13  C   UNL d   1     -15.565 -13.348  -3.814 -0.15 +0.01    +0.070 A 
DOCKED: ATOM     14  C   UNL d   1     -18.063 -15.916  -2.960 -0.04 +0.01    +0.052 C 
DOCKED: ATOM     15  C   UNL d   1     -13.827 -11.626  -4.444 -0.25 +0.00    +0.066 A 
DOCKED: ATOM     16  C   UNL d   1     -13.396 -10.590  -5.260 -0.35 +0.00    -0.021 A 
DOCKED: ATOM     17  C   UNL d   1     -12.072 -10.330  -4.880 -0.42 +0.00    +0.000 A 
DOCKED: ATOM     18  C   UNL d   1     -11.803 -11.221  -3.846 -0.31 +0.01    +0.070 A 
DOCKED: ATOM     19  C   UNL d   1     -14.226  -9.913  -6.329 -0.41 -0.00    +0.052 C 
DOCKED: ATOM     20  C   UNL d   1     -10.227 -12.283  -2.188 -0.23 +0.03    +0.066 A 
DOCKED: ATOM     21  C   UNL d   1      -8.965 -12.348  -1.603 -0.25 -0.01    -0.025 A 
DOCKED: ATOM     22  C   UNL d   1      -9.019 -13.406  -0.714 -0.18 -0.01    -0.021 A 
DOCKED: ATOM     23  C   UNL d   1     -10.318 -13.947  -0.811 -0.11 +0.03    +0.066 A 
DOCKED: ATOM     24  C   UNL d   1      -7.759 -11.457  -1.890 -0.18 +0.03    +0.051 C 
DOCKED: ATOM     25  N   UNL d   1     -12.991 -15.200  -1.177 -0.11 -0.04    -0.248 N 
DOCKED: ATOM     26  N   UNL d   1     -14.833 -14.084  -2.936 -0.12 -0.03    -0.248 N 
DOCKED: ATOM     27  N   UNL d   1     -12.860 -11.997  -3.634 -0.14 -0.02    -0.248 N 
DOCKED: ATOM     28  N   UNL d   1     -11.053 -13.271  -1.703 -0.05 -0.08    -0.248 N 
DOCKED: ATOM     29 FE   UNL d   1     -12.919 -13.503  -2.477 -0.06 +0.00    +0.000 Fe
DOCKED: ENDROOT
DOCKED: BRANCH   6  30
DOCKED: ATOM     30  C   UNL d   1     -11.509 -17.791   1.135 -0.02 +0.02    +0.052 C 
DOCKED: BRANCH  30  31
DOCKED: ATOM     31  C   UNL d   1     -10.730 -18.823   0.320 +0.00 +0.04    +0.115 C 
DOCKED: BRANCH  31  32
DOCKED: ATOM     32  C   UNL d   1     -10.918 -18.642  -1.171 -0.00 +0.05    +0.139 C 
DOCKED: ATOM     33  O   UNL d   1     -11.675 -19.386  -1.776 +0.01 -0.19    -0.650 OA
DOCKED: BRANCH  32  34
DOCKED: ATOM     34  O   UNL d   1     -10.309 -17.645  -1.855 +0.03 -0.33    -0.776 OA
DOCKED: ATOM     35  H   UNL d   1     -10.547 -17.378  -2.754 +0.02 +0.07    +0.167 HD
DOCKED: ENDBRANCH  32  34
DOCKED: ENDBRANCH  31  32
DOCKED: ENDBRANCH  30  31
DOCKED: ENDBRANCH   6  30
DOCKED: BRANCH  29  36
DOCKED: ATOM     36  C   UNL d   1     -12.174 -14.801  -3.945 -0.10 +0.05    +0.190 C 
DOCKED: BRANCH  36  37
DOCKED: ATOM     37  O   UNL d   1     -11.554 -16.041  -4.125 -0.02 -0.13    -0.399 OA
DOCKED: ATOM     38  H   UNL d   1     -11.499 -16.436  -3.210 +0.03 +0.07    +0.209 HD
DOCKED: ENDBRANCH  36  37
DOCKED: ENDBRANCH  29  36
DOCKED: BRANCH  22  39
DOCKED: ATOM     39  C   UNL d   1      -7.861 -13.906   0.130 -0.18 +0.06    +0.052 C 
DOCKED: BRANCH  39  40
DOCKED: ATOM     40  C   UNL d   1      -7.371 -15.272  -0.377 -0.10 +0.15    +0.115 C 
DOCKED: BRANCH  40  41
DOCKED: ATOM     41  C   UNL d   1      -5.891 -15.520  -0.171 -0.01 +0.27    +0.139 C 
DOCKED: ATOM     42  O   UNL d   1      -5.083 -14.954  -0.894 -0.14 -1.61    -0.650 OA
DOCKED: BRANCH  41  43
DOCKED: ATOM     43  O   UNL d   1      -5.433 -16.283   0.846 -0.27 -1.64    -0.776 OA
DOCKED: ATOM     44  H   UNL d   1      -5.601 -17.233   0.899 +0.01 +0.23    +0.167 HD
DOCKED: ENDBRANCH  41  43
DOCKED: ENDBRANCH  40  41
DOCKED: ENDBRANCH  39  40
DOCKED: ENDBRANCH  22  39
DOCKED: BRANCH  12  45
DOCKED: ATOM     45  C   UNL d   1     -17.885 -13.178  -4.880 -0.07 +0.00    +0.004 C 
DOCKED: ATOM     46  C   UNL d   1     -18.518 -12.017  -4.730 -0.13 +0.00    +0.012 C 
DOCKED: ENDBRANCH  12  45
DOCKED: BRANCH  17  47
DOCKED: ATOM     47  C   UNL d   1     -11.086  -9.365  -5.453 -0.53 +0.00    +0.004 C 
DOCKED: ATOM     48  C   UNL d   1     -10.373  -8.513  -4.712 -0.45 +0.00    +0.012 C 
DOCKED: ENDBRANCH  17  47
DOCKED: TORSDOF 12
DOCKED: TER
DOCKED: ENDMDL
________________________________________________________________________________


	BEGINNING GENETIC ALGORITHM DOCKING 61 of 100
Run: 61 Seed: 75497913 1398840724 [ Run 61 of 100 GA/GALS ]
Beginning LAMARCKIAN GENETIC ALGORITHM (LGA), with a maximum of 25000000 energy evaluations.

Final-Value: -12.861


	FINAL GENETIC ALGORITHM DOCKED STATE
	_______________________________________________


Detailed state:  trans -0.242 -15.683 -2.261 quatxyzw -0.417014 -0.037897 0.410021 -0.810275 center 8.781 34.984 -0.736 ntor 12 -90.1251 111.0365 -119.2596 122.0284 129.4510 145.1651 37.9130 122.8122 151.3083 49.2754 -168.6364 180.0000
State:	 -0.242 -15.683  -2.261  -0.712 -0.065  0.700 -71.754    -90.13  111.04 -119.26  122.03  129.45  145.17   37.91  122.81  151.31   49.28 -168.64  180.00

DOCKED: MODEL       61
DOCKED: USER    Run = 61
DOCKED: USER    DPF = D:/Protein_go_brrr/autodock/final/AncA/heme_Co/dock.dpf
DOCKED: USER  
DOCKED: USER    Estimated Free Energy of Binding    =   -7.39 kcal/mol  [=(1)+(2)+(3)-(4)]
DOCKED: USER    Estimated Inhibition Constant, Ki   =    3.84 uM (micromolar)  [Temperature = 298.15 K]
DOCKED: USER    
DOCKED: USER    (1) Final Intermolecular Energy     =  -10.97 kcal/mol
DOCKED: USER        vdW + Hbond + desolv Energy     =   -6.74 kcal/mol
DOCKED: USER        Electrostatic Energy            =   -4.23 kcal/mol
DOCKED: USER    (2) Final Total Internal Energy     =   -1.89 kcal/mol
DOCKED: USER    (3) Torsional Free Energy           =   +3.58 kcal/mol
DOCKED: USER    (4) Unbound System's Energy  [=(2)] =   -1.89 kcal/mol
DOCKED: USER    
DOCKED: USER    
DOCKED: USER    NEWDPF move heme_Co_opt.pdbqt
DOCKED: USER    NEWDPF about 8.781000 34.984000 -0.736000
DOCKED: USER    NEWDPF tran0 -0.241872 -15.682840 -2.261187
DOCKED: USER    NEWDPF quaternion0 -0.417014 -0.037897 0.410021 -0.810275
DOCKED: USER    NEWDPF axisangle0 -0.711568 -0.064665 0.699635 -71.754324
DOCKED: USER    NEWDPF quat0 -0.711568 -0.064665 0.699635 -71.754324
DOCKED: USER    NEWDPF dihe0 -90.13 111.04 -119.26 122.03 129.45 145.17 37.91 122.81 151.31 49.28 -168.64 180.00 
DOCKED: USER  keepresnum = 1 
DOCKED: USER  
DOCKED: REMARK  12 active torsions:
DOCKED: REMARK  status: ('A' for Active; 'I' for Inactive)
DOCKED: REMARK    1  A    between atoms: C_6  and  C_10 
DOCKED: REMARK    2  A    between atoms: C_10  and  C_11 
DOCKED: REMARK    3  A    between atoms: C_11  and  C_12 
DOCKED: REMARK    4  A    between atoms: C_12  and  O_14 
DOCKED: REMARK    5  A    between atoms: C_17  and  C_20 
DOCKED: REMARK    6  A    between atoms: C_24  and  C_27 
DOCKED: REMARK    7  A    between atoms: C_31  and  C_34 
DOCKED: REMARK    8  A    between atoms: C_34  and  C_35 
DOCKED: REMARK    9  A    between atoms: C_35  and  C_36 
DOCKED: REMARK   10  A    between atoms: C_36  and  O_38 
DOCKED: REMARK   11  A    between atoms: FE_43  and  C_44 
DOCKED: REMARK   12  A    between atoms: C_44  and  O_45 
DOCKED: USER                              x       y       z     vdW  Elec       q    Type
DOCKED: USER                           _______ _______ _______ _____ _____    ______ ____
DOCKED: ROOT
DOCKED: ATOM      1  C   UNL d   1      -1.494 -17.420  -2.623 -0.05 +0.06    +0.064 A 
DOCKED: ATOM      2  C   UNL d   1      -0.485 -14.976   1.329 -0.12 +0.05    +0.064 C 
DOCKED: ATOM      3  C   UNL d   1       2.630 -12.278  -1.089 -0.18 +0.02    +0.064 A 
DOCKED: ATOM      4  C   UNL d   1       1.333 -14.503  -5.216 -0.24 +0.03    +0.064 A 
DOCKED: ATOM      5  C   UNL d   1      -1.420 -16.974  -1.358 -0.04 +0.06    +0.066 A 
DOCKED: ATOM      6  C   UNL d   1      -2.252 -17.478  -0.339 -0.04 -0.02    -0.021 A 
DOCKED: ATOM      7  C   UNL d   1      -1.971 -16.749   0.801 -0.08 -0.02    -0.025 A 
DOCKED: ATOM      8  C   UNL d   1      -0.969 -15.845   0.432 -0.08 +0.05    +0.066 A 
DOCKED: ATOM      9  C   UNL d   1      -2.613 -16.887   2.190 +0.03 +0.06    +0.051 C 
DOCKED: ATOM     10  C   UNL d   1       0.564 -14.027   1.049 -0.13 +0.04    +0.066 A 
DOCKED: ATOM     11  C   UNL d   1       1.212 -13.187   1.981 -0.20 -0.01    -0.021 A 
DOCKED: ATOM     12  C   UNL d   1       2.118 -12.414   1.249 -0.25 +0.00    +0.000 A 
DOCKED: ATOM     13  C   UNL d   1       1.965 -12.847  -0.068 -0.15 +0.02    +0.070 A 
DOCKED: ATOM     14  C   UNL d   1       1.031 -13.206   3.477 -0.25 +0.02    +0.052 C 
DOCKED: ATOM     15  C   UNL d   1       2.554 -12.563  -2.508 -0.15 +0.02    +0.066 A 
DOCKED: ATOM     16  C   UNL d   1       3.160 -11.840  -3.526 -0.26 -0.01    -0.021 A 
DOCKED: ATOM     17  C   UNL d   1       2.786 -12.476  -4.719 -0.29 +0.00    +0.000 A 
DOCKED: ATOM     18  C   UNL d   1       1.994 -13.551  -4.331 -0.19 +0.03    +0.070 A 
DOCKED: ATOM     19  C   UNL d   1       4.033 -10.620  -3.336 -0.37 +0.01    +0.052 C 
DOCKED: ATOM     20  C   UNL d   1       0.488 -15.503  -4.868 -0.16 +0.04    +0.066 A 
DOCKED: ATOM     21  C   UNL d   1      -0.114 -16.330  -5.813 -0.20 -0.02    -0.025 A 
DOCKED: ATOM     22  C   UNL d   1      -0.912 -17.200  -5.092 -0.12 -0.02    -0.021 A 
DOCKED: ATOM     23  C   UNL d   1      -0.765 -16.850  -3.733 -0.08 +0.06    +0.066 A 
DOCKED: ATOM     24  C   UNL d   1       0.046 -16.283  -7.330 -0.28 +0.03    +0.051 C 
DOCKED: ATOM     25  N   UNL d   1      -0.604 -15.966  -0.898 -0.02 -0.19    -0.248 N 
DOCKED: ATOM     26  N   UNL d   1       1.066 -13.861  -0.179 -0.05 -0.12    -0.248 N 
DOCKED: ATOM     27  N   UNL d   1       1.852 -13.554  -3.011 -0.06 -0.10    -0.248 N 
DOCKED: ATOM     28  N   UNL d   1       0.080 -15.821  -3.593 -0.04 -0.18    -0.248 N 
DOCKED: ATOM     29 FE   UNL d   1       0.696 -14.691  -2.020 -0.02 +0.00    +0.000 Fe
DOCKED: ENDROOT
DOCKED: BRANCH   6  30
DOCKED: ATOM     30  C   UNL d   1      -3.322 -18.554  -0.487 -0.02 +0.04    +0.052 C 
DOCKED: BRANCH  30  31
DOCKED: ATOM     31  C   UNL d   1      -4.636 -17.941  -0.972 -0.05 +0.13    +0.115 C 
DOCKED: BRANCH  31  32
DOCKED: ATOM     32  C   UNL d   1      -4.818 -16.515  -0.499 -0.10 +0.23    +0.139 C 
DOCKED: ATOM     33  O   UNL d   1      -5.405 -16.300   0.551 -0.34 -1.27    -0.650 OA
DOCKED: BRANCH  32  34
DOCKED: ATOM     34  O   UNL d   1      -4.306 -15.463  -1.179 +0.15 -1.91    -0.776 OA
DOCKED: ATOM     35  H   UNL d   1      -3.449 -15.057  -0.989 +0.02 +0.35    +0.167 HD
DOCKED: ENDBRANCH  32  34
DOCKED: ENDBRANCH  31  32
DOCKED: ENDBRANCH  30  31
DOCKED: ENDBRANCH   6  30
DOCKED: BRANCH  29  36
DOCKED: ATOM     36  C   UNL d   1      -0.949 -13.414  -2.262 -0.16 +0.18    +0.190 C 
DOCKED: BRANCH  36  37
DOCKED: ATOM     37  O   UNL d   1      -2.331 -13.329  -2.067 -0.28 -0.64    -0.399 OA
DOCKED: ATOM     38  H   UNL d   1      -2.594 -14.220  -1.702 +0.05 +0.41    +0.209 HD
DOCKED: ENDBRANCH  36  37
DOCKED: ENDBRANCH  29  36
DOCKED: BRANCH  22  39
DOCKED: ATOM     39  C   UNL d   1      -1.815 -18.264  -5.688 -0.12 +0.05    +0.052 C 
DOCKED: BRANCH  39  40
DOCKED: ATOM     40  C   UNL d   1      -3.115 -17.638  -6.220 -0.18 +0.15    +0.115 C 
DOCKED: BRANCH  40  41
DOCKED: ATOM     41  C   UNL d   1      -4.369 -18.413  -5.874 -0.19 +0.19    +0.139 C 
DOCKED: ATOM     42  O   UNL d   1      -4.860 -19.160  -6.709 -0.02 -1.25    -0.650 OA
DOCKED: BRANCH  41  43
DOCKED: ATOM     43  O   UNL d   1      -4.912 -18.370  -4.637 +0.01 -0.97    -0.776 OA
DOCKED: ATOM     44  H   UNL d   1      -4.930 -19.138  -4.051 +0.02 +0.16    +0.167 HD
DOCKED: ENDBRANCH  41  43
DOCKED: ENDBRANCH  40  41
DOCKED: ENDBRANCH  39  40
DOCKED: ENDBRANCH  22  39
DOCKED: BRANCH  12  45
DOCKED: ATOM     45  C   UNL d   1       3.118 -11.336   1.644 -0.35 +0.00    +0.004 C 
DOCKED: ATOM     46  C   UNL d   1       4.448 -11.331   1.604 -0.21 +0.00    +0.012 C 
DOCKED: ENDBRANCH  12  45
DOCKED: BRANCH  17  47
DOCKED: ATOM     47  C   UNL d   1       3.088 -12.104  -6.133 -0.36 +0.00    +0.004 C 
DOCKED: ATOM     48  C   UNL d   1       3.942 -12.777  -6.907 -0.54 +0.00    +0.012 C 
DOCKED: ENDBRANCH  17  47
DOCKED: TORSDOF 12
DOCKED: TER
DOCKED: ENDMDL
________________________________________________________________________________


	BEGINNING GENETIC ALGORITHM DOCKING 62 of 100
Run: 62 Seed: 1523536904 840127646 [ Run 62 of 100 GA/GALS ]
Beginning LAMARCKIAN GENETIC ALGORITHM (LGA), with a maximum of 25000000 energy evaluations.

Final-Value: -12.573


	FINAL GENETIC ALGORITHM DOCKED STATE
	_______________________________________________


Detailed state:  trans -0.125 -15.830 -1.878 quatxyzw -0.420057 -0.044666 0.424662 -0.800762 center 8.781 34.984 -0.736 ntor 12 -4.3933 126.6329 -11.0286 68.6445 139.9954 119.9854 23.6775 100.3796 -165.0445 69.1149 180.0000 -171.4528
State:	 -0.125 -15.830  -1.878  -0.701 -0.075  0.709 -73.594     -4.39  126.63  -11.03   68.64  140.00  119.99   23.68  100.38 -165.04   69.11  180.00 -171.45

DOCKED: MODEL       62
DOCKED: USER    Run = 62
DOCKED: USER    DPF = D:/Protein_go_brrr/autodock/final/AncA/heme_Co/dock.dpf
DOCKED: USER  
DOCKED: USER    Estimated Free Energy of Binding    =   -6.48 kcal/mol  [=(1)+(2)+(3)-(4)]
DOCKED: USER    Estimated Inhibition Constant, Ki   =   17.93 uM (micromolar)  [Temperature = 298.15 K]
DOCKED: USER    
DOCKED: USER    (1) Final Intermolecular Energy     =  -10.05 kcal/mol
DOCKED: USER        vdW + Hbond + desolv Energy     =   -5.91 kcal/mol
DOCKED: USER        Electrostatic Energy            =   -4.15 kcal/mol
DOCKED: USER    (2) Final Total Internal Energy     =   -2.52 kcal/mol
DOCKED: USER    (3) Torsional Free Energy           =   +3.58 kcal/mol
DOCKED: USER    (4) Unbound System's Energy  [=(2)] =   -2.52 kcal/mol
DOCKED: USER    
DOCKED: USER    
DOCKED: USER    NEWDPF move heme_Co_opt.pdbqt
DOCKED: USER    NEWDPF about 8.781000 34.984000 -0.736000
DOCKED: USER    NEWDPF tran0 -0.125158 -15.829970 -1.878069
DOCKED: USER    NEWDPF quaternion0 -0.420057 -0.044666 0.424662 -0.800762
DOCKED: USER    NEWDPF axisangle0 -0.701284 -0.074570 0.708972 -73.594122
DOCKED: USER    NEWDPF quat0 -0.701284 -0.074570 0.708972 -73.594122
DOCKED: USER    NEWDPF dihe0 -4.39 126.63 -11.03 68.64 140.00 119.99 23.68 100.38 -165.04 69.11 180.00 -171.45 
DOCKED: USER  keepresnum = 1 
DOCKED: USER  
DOCKED: REMARK  12 active torsions:
DOCKED: REMARK  status: ('A' for Active; 'I' for Inactive)
DOCKED: REMARK    1  A    between atoms: C_6  and  C_10 
DOCKED: REMARK    2  A    between atoms: C_10  and  C_11 
DOCKED: REMARK    3  A    between atoms: C_11  and  C_12 
DOCKED: REMARK    4  A    between atoms: C_12  and  O_14 
DOCKED: REMARK    5  A    between atoms: C_17  and  C_20 
DOCKED: REMARK    6  A    between atoms: C_24  and  C_27 
DOCKED: REMARK    7  A    between atoms: C_31  and  C_34 
DOCKED: REMARK    8  A    between atoms: C_34  and  C_35 
DOCKED: REMARK    9  A    between atoms: C_35  and  C_36 
DOCKED: REMARK   10  A    between atoms: C_36  and  O_38 
DOCKED: REMARK   11  A    between atoms: FE_43  and  C_44 
DOCKED: REMARK   12  A    between atoms: C_44  and  O_45 
DOCKED: USER                              x       y       z     vdW  Elec       q    Type
DOCKED: USER                           _______ _______ _______ _____ _____    ______ ____
DOCKED: ROOT
DOCKED: ATOM      1  C   UNL d   1      -1.311 -17.615  -2.227 -0.03 +0.05    +0.064 A 
DOCKED: ATOM      2  C   UNL d   1      -0.402 -15.103   1.706 -0.12 +0.05    +0.064 C 
DOCKED: ATOM      3  C   UNL d   1       2.616 -12.312  -0.730 -0.18 +0.02    +0.064 A 
DOCKED: ATOM      4  C   UNL d   1       1.411 -14.617  -4.840 -0.19 +0.03    +0.064 A 
DOCKED: ATOM      5  C   UNL d   1      -1.257 -17.157  -0.966 -0.03 +0.05    +0.066 A 
DOCKED: ATOM      6  C   UNL d   1      -2.072 -17.682   0.056 -0.03 -0.02    -0.021 A 
DOCKED: ATOM      7  C   UNL d   1      -1.820 -16.934   1.189 -0.07 -0.02    -0.025 A 
DOCKED: ATOM      8  C   UNL d   1      -0.852 -15.996   0.816 -0.08 +0.05    +0.066 A 
DOCKED: ATOM      9  C   UNL d   1      -2.460 -17.084   2.578 -0.07 +0.05    +0.051 C 
DOCKED: ATOM     10  C   UNL d   1       0.612 -14.118   1.420 -0.13 +0.04    +0.066 A 
DOCKED: ATOM     11  C   UNL d   1       1.227 -13.247   2.345 -0.19 -0.01    -0.021 A 
DOCKED: ATOM     12  C   UNL d   1       2.105 -12.447   1.609 -0.25 +0.00    +0.000 A 
DOCKED: ATOM     13  C   UNL d   1       1.971 -12.896   0.295 -0.15 +0.02    +0.070 A 
DOCKED: ATOM     14  C   UNL d   1       1.043 -13.260   3.841 -0.26 +0.03    +0.052 C 
DOCKED: ATOM     15  C   UNL d   1       2.554 -12.611  -2.147 -0.14 +0.02    +0.066 A 
DOCKED: ATOM     16  C   UNL d   1       3.135 -11.875  -3.170 -0.24 -0.01    -0.021 A 
DOCKED: ATOM     17  C   UNL d   1       2.788 -12.534  -4.357 -0.26 +0.00    +0.000 A 
DOCKED: ATOM     18  C   UNL d   1       2.035 -13.635  -3.962 -0.15 +0.03    +0.070 A 
DOCKED: ATOM     19  C   UNL d   1       3.962 -10.622  -2.988 -0.28 +0.01    +0.052 C 
DOCKED: ATOM     20  C   UNL d   1       0.604 -15.645  -4.484 -0.12 +0.04    +0.066 A 
DOCKED: ATOM     21  C   UNL d   1       0.034 -16.502  -5.424 -0.15 -0.02    -0.025 A 
DOCKED: ATOM     22  C   UNL d   1      -0.733 -17.395  -4.697 -0.09 -0.02    -0.021 A 
DOCKED: ATOM     23  C   UNL d   1      -0.602 -17.028  -3.341 -0.06 +0.05    +0.066 A 
DOCKED: ATOM     24  C   UNL d   1       0.196 -16.461  -6.941 -0.28 +0.03    +0.051 C 
DOCKED: ATOM     25  N   UNL d   1      -0.480 -16.115  -0.513 -0.02 -0.18    -0.248 N 
DOCKED: ATOM     26  N   UNL d   1       1.110 -13.944   0.191 -0.05 -0.12    -0.248 N 
DOCKED: ATOM     27  N   UNL d   1       1.891 -13.632  -2.642 -0.05 -0.10    -0.248 N 
DOCKED: ATOM     28  N   UNL d   1       0.204 -15.968  -3.208 -0.03 -0.17    -0.248 N 
DOCKED: ATOM     29 FE   UNL d   1       0.775 -14.802  -1.643 -0.02 +0.00    +0.000 Fe
DOCKED: ENDROOT
DOCKED: BRANCH   6  30
DOCKED: ATOM     30  C   UNL d   1      -3.101 -18.798  -0.085 -0.01 +0.04    +0.052 C 
DOCKED: BRANCH  30  31
DOCKED: ATOM     31  C   UNL d   1      -4.498 -18.216  -0.302 -0.03 +0.11    +0.115 C 
DOCKED: BRANCH  31  32
DOCKED: ATOM     32  C   UNL d   1      -4.463 -16.740  -0.635 -0.08 +0.22    +0.139 C 
DOCKED: ATOM     33  O   UNL d   1      -4.800 -15.925   0.210 -0.44 -1.32    -0.650 OA
DOCKED: BRANCH  32  34
DOCKED: ATOM     34  O   UNL d   1      -4.022 -16.284  -1.831 +0.61 -2.04    -0.776 OA
DOCKED: ATOM     35  H   UNL d   1      -3.594 -16.837  -2.499 +0.05 +0.41    +0.167 HD
DOCKED: ENDBRANCH  32  34
DOCKED: ENDBRANCH  31  32
DOCKED: ENDBRANCH  30  31
DOCKED: ENDBRANCH   6  30
DOCKED: BRANCH  29  36
DOCKED: ATOM     36  C   UNL d   1      -0.916 -13.589  -1.900 -0.15 +0.17    +0.190 C 
DOCKED: BRANCH  36  37
DOCKED: ATOM     37  O   UNL d   1      -2.303 -13.634  -2.067 -0.20 -0.68    -0.399 OA
DOCKED: ATOM     38  H   UNL d   1      -2.560 -14.569  -1.833 +0.04 +0.42    +0.209 HD
DOCKED: ENDBRANCH  36  37
DOCKED: ENDBRANCH  29  36
DOCKED: BRANCH  22  39
DOCKED: ATOM     39  C   UNL d   1      -1.594 -18.496  -5.286 -0.08 +0.04    +0.052 C 
DOCKED: BRANCH  39  40
DOCKED: ATOM     40  C   UNL d   1      -2.813 -17.903  -6.012 -0.18 +0.14    +0.115 C 
DOCKED: BRANCH  40  41
DOCKED: ATOM     41  C   UNL d   1      -4.147 -18.281  -5.405 -0.16 +0.18    +0.139 C 
DOCKED: ATOM     42  O   UNL d   1      -4.974 -18.864  -6.091 -0.05 -0.93    -0.650 OA
DOCKED: BRANCH  41  43
DOCKED: ATOM     43  O   UNL d   1      -4.418 -18.068  -4.098 -0.04 -1.11    -0.776 OA
DOCKED: ATOM     44  H   UNL d   1      -3.758 -17.729  -3.479 +0.01 +0.27    +0.167 HD
DOCKED: ENDBRANCH  41  43
DOCKED: ENDBRANCH  40  41
DOCKED: ENDBRANCH  39  40
DOCKED: ENDBRANCH  22  39
DOCKED: BRANCH  12  45
DOCKED: ATOM     45  C   UNL d   1       3.064 -11.329   1.996 -0.35 +0.00    +0.004 C 
DOCKED: ATOM     46  C   UNL d   1       4.109 -11.331   2.819 -0.23 +0.00    +0.012 C 
DOCKED: ENDBRANCH  12  45
DOCKED: BRANCH  17  47
DOCKED: ATOM     47  C   UNL d   1       3.078 -12.163  -5.774 -0.39 +0.00    +0.004 C 
DOCKED: ATOM     48  C   UNL d   1       3.799 -12.923  -6.603 -0.51 +0.00    +0.012 C 
DOCKED: ENDBRANCH  17  47
DOCKED: TORSDOF 12
DOCKED: TER
DOCKED: ENDMDL
________________________________________________________________________________


	BEGINNING GENETIC ALGORITHM DOCKING 63 of 100
Run: 63 Seed: 366984807 382805957 [ Run 63 of 100 GA/GALS ]
Beginning LAMARCKIAN GENETIC ALGORITHM (LGA), with a maximum of 25000000 energy evaluations.

Final-Value: -10.983


	FINAL GENETIC ALGORITHM DOCKED STATE
	_______________________________________________


Detailed state:  trans -11.900 -16.352 -7.343 quatxyzw 0.427975 -0.148284 -0.870561 0.192283 center 8.781 34.984 -0.736 ntor 12 -37.2749 121.1330 -48.7805 100.8106 133.4219 115.6093 52.4205 -144.7889 -89.0876 -51.7818 -2.0881 -62.1384
State:	-11.900 -16.352  -7.343   0.436 -0.151 -0.887 157.828    -37.27  121.13  -48.78  100.81  133.42  115.61   52.42 -144.79  -89.09  -51.78   -2.09  -62.14

DOCKED: MODEL       63
DOCKED: USER    Run = 63
DOCKED: USER    DPF = D:/Protein_go_brrr/autodock/final/AncA/heme_Co/dock.dpf
DOCKED: USER  
DOCKED: USER    Estimated Free Energy of Binding    =   -6.77 kcal/mol  [=(1)+(2)+(3)-(4)]
DOCKED: USER    Estimated Inhibition Constant, Ki   =   10.99 uM (micromolar)  [Temperature = 298.15 K]
DOCKED: USER    
DOCKED: USER    (1) Final Intermolecular Energy     =  -10.35 kcal/mol
DOCKED: USER        vdW + Hbond + desolv Energy     =   -6.72 kcal/mol
DOCKED: USER        Electrostatic Energy            =   -3.62 kcal/mol
DOCKED: USER    (2) Final Total Internal Energy     =   -0.64 kcal/mol
DOCKED: USER    (3) Torsional Free Energy           =   +3.58 kcal/mol
DOCKED: USER    (4) Unbound System's Energy  [=(2)] =   -0.64 kcal/mol
DOCKED: USER    
DOCKED: USER    
DOCKED: USER    NEWDPF move heme_Co_opt.pdbqt
DOCKED: USER    NEWDPF about 8.781000 34.984000 -0.736000
DOCKED: USER    NEWDPF tran0 -11.899628 -16.352369 -7.343070
DOCKED: USER    NEWDPF quaternion0 0.427975 -0.148284 -0.870561 0.192283
DOCKED: USER    NEWDPF axisangle0 0.436113 -0.151104 -0.887115 157.827917
DOCKED: USER    NEWDPF quat0 0.436113 -0.151104 -0.887115 157.827917
DOCKED: USER    NEWDPF dihe0 -37.27 121.13 -48.78 100.81 133.42 115.61 52.42 -144.79 -89.09 -51.78 -2.09 -62.14 
DOCKED: USER  keepresnum = 1 
DOCKED: USER  
DOCKED: REMARK  12 active torsions:
DOCKED: REMARK  status: ('A' for Active; 'I' for Inactive)
DOCKED: REMARK    1  A    between atoms: C_6  and  C_10 
DOCKED: REMARK    2  A    between atoms: C_10  and  C_11 
DOCKED: REMARK    3  A    between atoms: C_11  and  C_12 
DOCKED: REMARK    4  A    between atoms: C_12  and  O_14 
DOCKED: REMARK    5  A    between atoms: C_17  and  C_20 
DOCKED: REMARK    6  A    between atoms: C_24  and  C_27 
DOCKED: REMARK    7  A    between atoms: C_31  and  C_34 
DOCKED: REMARK    8  A    between atoms: C_34  and  C_35 
DOCKED: REMARK    9  A    between atoms: C_35  and  C_36 
DOCKED: REMARK   10  A    between atoms: C_36  and  O_38 
DOCKED: REMARK   11  A    between atoms: FE_43  and  C_44 
DOCKED: REMARK   12  A    between atoms: C_44  and  O_45 
DOCKED: USER                              x       y       z     vdW  Elec       q    Type
DOCKED: USER                           _______ _______ _______ _____ _____    ______ ____
DOCKED: ROOT
DOCKED: ATOM      1  C   UNL d   1     -10.462 -17.554  -6.245 -0.14 +0.03    +0.064 A 
DOCKED: ATOM      2  C   UNL d   1     -12.509 -13.367  -5.302 -0.23 +0.01    +0.064 C 
DOCKED: ATOM      3  C   UNL d   1     -14.617 -13.389  -9.590 -0.22 +0.01    +0.064 A 
DOCKED: ATOM      4  C   UNL d   1     -12.848 -17.843 -10.422 -0.11 +0.02    +0.064 A 
DOCKED: ATOM      5  C   UNL d   1     -10.837 -16.391  -5.687 -0.15 +0.03    +0.066 A 
DOCKED: ATOM      6  C   UNL d   1     -10.474 -16.042  -4.372 -0.09 -0.01    -0.021 A 
DOCKED: ATOM      7  C   UNL d   1     -11.089 -14.837  -4.095 -0.04 -0.01    -0.025 A 
DOCKED: ATOM      8  C   UNL d   1     -11.788 -14.495  -5.258 -0.08 +0.02    +0.066 A 
DOCKED: ATOM      9  C   UNL d   1     -11.032 -14.027  -2.791 -0.18 +0.02    +0.051 C 
DOCKED: ATOM     10  C   UNL d   1     -13.238 -12.920  -6.462 -0.24 +0.01    +0.066 A 
DOCKED: ATOM     11  C   UNL d   1     -13.898 -11.681  -6.618 -0.26 -0.00    -0.021 A 
DOCKED: ATOM     12  C   UNL d   1     -14.500 -11.713  -7.879 -0.18 -0.00    +0.000 A 
DOCKED: ATOM     13  C   UNL d   1     -14.155 -12.959  -8.402 -0.23 +0.00    +0.070 A 
DOCKED: ATOM     14  C   UNL d   1     -13.860 -10.523  -5.655 -0.40 +0.00    +0.052 C 
DOCKED: ATOM     15  C   UNL d   1     -14.405 -14.660 -10.254 -0.19 +0.02    +0.066 A 
DOCKED: ATOM     16  C   UNL d   1     -15.029 -15.096 -11.414 -0.17 -0.01    -0.021 A 
DOCKED: ATOM     17  C   UNL d   1     -14.524 -16.382 -11.656 -0.15 +0.00    +0.000 A 
DOCKED: ATOM     18  C   UNL d   1     -13.615 -16.622 -10.631 -0.14 +0.02    +0.070 A 
DOCKED: ATOM     19  C   UNL d   1     -16.042 -14.309 -12.214 -0.08 +0.04    +0.052 C 
DOCKED: ATOM     20  C   UNL d   1     -12.025 -18.133  -9.386 -0.13 +0.02    +0.066 A 
DOCKED: ATOM     21  C   UNL d   1     -11.370 -19.357  -9.277 -0.09 -0.01    -0.025 A 
DOCKED: ATOM     22  C   UNL d   1     -10.652 -19.292  -8.097 -0.11 -0.01    -0.021 A 
DOCKED: ATOM     23  C   UNL d   1     -10.916 -18.025  -7.534 -0.15 +0.03    +0.066 A 
DOCKED: ATOM     24  C   UNL d   1     -11.440 -20.540 -10.238 -0.04 +0.02    +0.051 C 
DOCKED: ATOM     25  N   UNL d   1     -11.645 -15.437  -6.263 -0.14 -0.06    -0.248 N 
DOCKED: ATOM     26  N   UNL d   1     -13.346 -13.665  -7.567 -0.18 -0.01    -0.248 N 
DOCKED: ATOM     27  N   UNL d   1     -13.593 -15.587  -9.798 -0.05 -0.03    -0.248 N 
DOCKED: ATOM     28  N   UNL d   1     -11.748 -17.321  -8.310 -0.12 -0.07    -0.248 N 
DOCKED: ATOM     29 FE   UNL d   1     -12.675 -15.519  -8.136 -0.05 +0.00    +0.000 Fe
DOCKED: ENDROOT
DOCKED: BRANCH   6  30
DOCKED: ATOM     30  C   UNL d   1      -9.639 -16.877  -3.407 -0.08 +0.03    +0.052 C 
DOCKED: BRANCH  30  31
DOCKED: ATOM     31  C   UNL d   1      -8.148 -16.696  -3.690 -0.13 +0.11    +0.115 C 
DOCKED: BRANCH  31  32
DOCKED: ATOM     32  C   UNL d   1      -7.551 -15.539  -2.919 -0.04 +0.20    +0.139 C 
DOCKED: ATOM     33  O   UNL d   1      -7.752 -14.395  -3.301 -0.04 -0.87    -0.650 OA
DOCKED: BRANCH  32  34
DOCKED: ATOM     34  O   UNL d   1      -6.836 -15.724  -1.785 -0.51 -1.40    -0.776 OA
DOCKED: ATOM     35  H   UNL d   1      -7.074 -16.353  -1.089 +0.02 +0.21    +0.167 HD
DOCKED: ENDBRANCH  32  34
DOCKED: ENDBRANCH  31  32
DOCKED: ENDBRANCH  30  31
DOCKED: ENDBRANCH   6  30
DOCKED: BRANCH  29  36
DOCKED: ATOM     36  C   UNL d   1     -14.262 -16.410  -7.096 -0.04 +0.04    +0.190 C 
DOCKED: BRANCH  36  37
DOCKED: ATOM     37  O   UNL d   1     -14.554 -17.326  -6.079 +0.00 -0.08    -0.399 OA
DOCKED: ATOM     38  H   UNL d   1     -13.670 -17.547  -5.673 +0.02 +0.05    +0.209 HD
DOCKED: ENDBRANCH  36  37
DOCKED: ENDBRANCH  29  36
DOCKED: BRANCH  22  39
DOCKED: ATOM     39  C   UNL d   1      -9.812 -20.413  -7.515 -0.08 +0.03    +0.052 C 
DOCKED: BRANCH  39  40
DOCKED: ATOM     40  C   UNL d   1      -9.054 -21.157  -8.627 -0.09 +0.08    +0.115 C 
DOCKED: BRANCH  40  41
DOCKED: ATOM     41  C   UNL d   1      -7.550 -21.180  -8.452 +0.06 +0.20    +0.139 C 
DOCKED: ATOM     42  O   UNL d   1      -7.043 -20.528  -7.550 -0.51 -1.20    -0.650 OA
DOCKED: BRANCH  41  43
DOCKED: ATOM     43  O   UNL d   1      -6.758 -21.970  -9.210 -0.14 -1.24    -0.776 OA
DOCKED: ATOM     44  H   UNL d   1      -6.988 -22.884  -9.423 +0.01 +0.16    +0.167 HD
DOCKED: ENDBRANCH  41  43
DOCKED: ENDBRANCH  40  41
DOCKED: ENDBRANCH  39  40
DOCKED: ENDBRANCH  22  39
DOCKED: BRANCH  12  45
DOCKED: ATOM     45  C   UNL d   1     -15.342 -10.707  -8.653 -0.26 +0.00    +0.004 C 
DOCKED: ATOM     46  C   UNL d   1     -14.986  -9.776  -9.534 -0.35 -0.00    +0.012 C 
DOCKED: ENDBRANCH  12  45
DOCKED: BRANCH  17  47
DOCKED: ATOM     47  C   UNL d   1     -14.880 -17.360 -12.727 -0.11 +0.00    +0.004 C 
DOCKED: ATOM     48  C   UNL d   1     -14.049 -17.711 -13.711 -0.12 +0.01    +0.012 C 
DOCKED: ENDBRANCH  17  47
DOCKED: TORSDOF 12
DOCKED: TER
DOCKED: ENDMDL
________________________________________________________________________________


	BEGINNING GENETIC ALGORITHM DOCKING 64 of 100
Run: 64 Seed: 2004693555 1613024571 [ Run 64 of 100 GA/GALS ]
Beginning LAMARCKIAN GENETIC ALGORITHM (LGA), with a maximum of 25000000 energy evaluations.

Final-Value: -11.410


	FINAL GENETIC ALGORITHM DOCKED STATE
	_______________________________________________


Detailed state:  trans -0.426 -15.675 -1.656 quatxyzw -0.804261 -0.169578 -0.541363 0.177012 center 8.781 34.984 -0.736 ntor 12 -40.1301 105.7203 -31.1994 -102.7155 96.5330 138.2371 -8.6235 -31.9880 -14.7377 169.3251 41.4303 -12.7624
State:	 -0.426 -15.675  -1.656  -0.817 -0.172 -0.550 159.609    -40.13  105.72  -31.20 -102.72   96.53  138.24   -8.62  -31.99  -14.74  169.33   41.43  -12.76

DOCKED: MODEL       64
DOCKED: USER    Run = 64
DOCKED: USER    DPF = D:/Protein_go_brrr/autodock/final/AncA/heme_Co/dock.dpf
DOCKED: USER  
DOCKED: USER    Estimated Free Energy of Binding    =   -7.07 kcal/mol  [=(1)+(2)+(3)-(4)]
DOCKED: USER    Estimated Inhibition Constant, Ki   =    6.56 uM (micromolar)  [Temperature = 298.15 K]
DOCKED: USER    
DOCKED: USER    (1) Final Intermolecular Energy     =  -10.65 kcal/mol
DOCKED: USER        vdW + Hbond + desolv Energy     =   -6.20 kcal/mol
DOCKED: USER        Electrostatic Energy            =   -4.45 kcal/mol
DOCKED: USER    (2) Final Total Internal Energy     =   -0.76 kcal/mol
DOCKED: USER    (3) Torsional Free Energy           =   +3.58 kcal/mol
DOCKED: USER    (4) Unbound System's Energy  [=(2)] =   -0.76 kcal/mol
DOCKED: USER    
DOCKED: USER    
DOCKED: USER    NEWDPF move heme_Co_opt.pdbqt
DOCKED: USER    NEWDPF about 8.781000 34.984000 -0.736000
DOCKED: USER    NEWDPF tran0 -0.426200 -15.675194 -1.655518
DOCKED: USER    NEWDPF quaternion0 -0.804261 -0.169578 -0.541363 0.177012
DOCKED: USER    NEWDPF axisangle0 -0.817165 -0.172299 -0.550049 159.608503
DOCKED: USER    NEWDPF quat0 -0.817165 -0.172299 -0.550049 159.608503
DOCKED: USER    NEWDPF dihe0 -40.13 105.72 -31.20 -102.72 96.53 138.24 -8.62 -31.99 -14.74 169.33 41.43 -12.76 
DOCKED: USER  keepresnum = 1 
DOCKED: USER  
DOCKED: REMARK  12 active torsions:
DOCKED: REMARK  status: ('A' for Active; 'I' for Inactive)
DOCKED: REMARK    1  A    between atoms: C_6  and  C_10 
DOCKED: REMARK    2  A    between atoms: C_10  and  C_11 
DOCKED: REMARK    3  A    between atoms: C_11  and  C_12 
DOCKED: REMARK    4  A    between atoms: C_12  and  O_14 
DOCKED: REMARK    5  A    between atoms: C_17  and  C_20 
DOCKED: REMARK    6  A    between atoms: C_24  and  C_27 
DOCKED: REMARK    7  A    between atoms: C_31  and  C_34 
DOCKED: REMARK    8  A    between atoms: C_34  and  C_35 
DOCKED: REMARK    9  A    between atoms: C_35  and  C_36 
DOCKED: REMARK   10  A    between atoms: C_36  and  O_38 
DOCKED: REMARK   11  A    between atoms: FE_43  and  C_44 
DOCKED: REMARK   12  A    between atoms: C_44  and  O_45 
DOCKED: USER                              x       y       z     vdW  Elec       q    Type
DOCKED: USER                           _______ _______ _______ _____ _____    ______ ____
DOCKED: ROOT
DOCKED: ATOM      1  C   UNL d   1      -1.866 -16.927  -2.692 -0.07 +0.08    +0.064 A 
DOCKED: ATOM      2  C   UNL d   1       1.843 -14.380  -4.229 -0.16 +0.03    +0.064 C 
DOCKED: ATOM      3  C   UNL d   1       2.524 -12.646   0.171 -0.16 +0.02    +0.064 A 
DOCKED: ATOM      4  C   UNL d   1      -1.017 -15.533   1.842 -0.05 +0.06    +0.064 A 
DOCKED: ATOM      5  C   UNL d   1      -0.926 -16.330  -3.442 -0.10 +0.07    +0.066 A 
DOCKED: ATOM      6  C   UNL d   1      -0.750 -16.639  -4.806 -0.13 -0.02    -0.021 A 
DOCKED: ATOM      7  C   UNL d   1       0.342 -15.914  -5.241 -0.18 -0.02    -0.025 A 
DOCKED: ATOM      8  C   UNL d   1       0.776 -15.182  -4.130 -0.11 +0.04    +0.066 A 
DOCKED: ATOM      9  C   UNL d   1       0.965 -15.900  -6.645 -0.18 +0.03    +0.051 C 
DOCKED: ATOM     10  C   UNL d   1       2.346 -13.569  -3.148 -0.11 +0.02    +0.066 A 
DOCKED: ATOM     11  C   UNL d   1       3.373 -12.603  -3.225 -0.17 -0.01    -0.021 A 
DOCKED: ATOM     12  C   UNL d   1       3.548 -12.110  -1.929 -0.20 +0.00    +0.000 A 
DOCKED: ATOM     13  C   UNL d   1       2.610 -12.801  -1.162 -0.12 +0.02    +0.070 A 
DOCKED: ATOM     14  C   UNL d   1       4.060 -12.129  -4.480 -0.30 +0.01    +0.052 C 
DOCKED: ATOM     15  C   UNL d   1       1.654 -13.313   1.121 -0.14 +0.03    +0.066 A 
DOCKED: ATOM     16  C   UNL d   1       1.715 -13.214   2.503 -0.19 -0.01    -0.021 A 
DOCKED: ATOM     17  C   UNL d   1       0.698 -14.047   2.990 -0.15 +0.00    +0.000 A 
DOCKED: ATOM     18  C   UNL d   1       0.083 -14.577   1.861 -0.10 +0.05    +0.070 A 
DOCKED: ATOM     19  C   UNL d   1       2.699 -12.367   3.279 -0.24 +0.02    +0.052 C 
DOCKED: ATOM     20  C   UNL d   1      -1.574 -16.128   0.760 -0.08 +0.06    +0.066 A 
DOCKED: ATOM     21  C   UNL d   1      -2.604 -17.060   0.872 -0.08 -0.03    -0.025 A 
DOCKED: ATOM     22  C   UNL d   1      -2.889 -17.457  -0.422 -0.06 -0.02    -0.021 A 
DOCKED: ATOM     23  C   UNL d   1      -2.004 -16.752  -1.264 -0.06 +0.07    +0.066 A 
DOCKED: ATOM     24  C   UNL d   1      -3.271 -17.562   2.150 -0.06 +0.06    +0.051 C 
DOCKED: ATOM     25  N   UNL d   1       0.005 -15.416  -3.004 -0.04 -0.19    -0.248 N 
DOCKED: ATOM     26  N   UNL d   1       1.846 -13.642  -1.910 -0.03 -0.10    -0.248 N 
DOCKED: ATOM     27  N   UNL d   1       0.698 -14.143   0.766 -0.07 -0.13    -0.248 N 
DOCKED: ATOM     28  N   UNL d   1      -1.204 -15.949  -0.553 -0.04 -0.22    -0.248 N 
DOCKED: ATOM     29 FE   UNL d   1       0.369 -14.743  -1.006 -0.02 +0.00    +0.000 Fe
DOCKED: ENDROOT
DOCKED: BRANCH   6  30
DOCKED: ATOM     30  C   UNL d   1      -1.552 -17.648  -5.620 -0.15 +0.05    +0.052 C 
DOCKED: BRANCH  30  31
DOCKED: ATOM     31  C   UNL d   1      -2.136 -16.989  -6.869 -0.22 +0.12    +0.115 C 
DOCKED: BRANCH  31  32
DOCKED: ATOM     32  C   UNL d   1      -2.587 -18.002  -7.900 -0.17 +0.19    +0.139 C 
DOCKED: ATOM     33  O   UNL d   1      -2.351 -17.802  -9.082 -0.22 -0.77    -0.650 OA
DOCKED: BRANCH  32  34
DOCKED: ATOM     34  O   UNL d   1      -3.205 -19.154  -7.551 -0.36 -1.69    -0.776 OA
DOCKED: ATOM     35  H   UNL d   1      -2.920 -19.725  -6.824 +0.02 +0.23    +0.167 HD
DOCKED: ENDBRANCH  32  34
DOCKED: ENDBRANCH  31  32
DOCKED: ENDBRANCH  30  31
DOCKED: ENDBRANCH   6  30
DOCKED: BRANCH  29  36
DOCKED: ATOM     36  C   UNL d   1       1.691 -16.360  -0.822 -0.00 +0.08    +0.190 C 
DOCKED: BRANCH  36  37
DOCKED: ATOM     37  O   UNL d   1       2.047 -17.580  -1.406 +0.00 -0.16    -0.399 OA
DOCKED: ATOM     38  H   UNL d   1       1.354 -17.741  -2.106 +0.01 +0.10    +0.209 HD
DOCKED: ENDBRANCH  36  37
DOCKED: ENDBRANCH  29  36
DOCKED: BRANCH  22  39
DOCKED: ATOM     39  C   UNL d   1      -3.913 -18.506  -0.814 -0.03 +0.05    +0.052 C 
DOCKED: BRANCH  39  40
DOCKED: ATOM     40  C   UNL d   1      -5.296 -17.866  -1.017 -0.05 +0.13    +0.115 C 
DOCKED: BRANCH  40  41
DOCKED: ATOM     41  C   UNL d   1      -5.435 -16.478  -0.426 -0.10 +0.23    +0.139 C 
DOCKED: ATOM     42  O   UNL d   1      -5.451 -15.509  -1.172 -0.27 -1.60    -0.650 OA
DOCKED: BRANCH  41  43
DOCKED: ATOM     43  O   UNL d   1      -5.628 -16.286   0.897 -0.26 -1.60    -0.776 OA
DOCKED: ATOM     44  H   UNL d   1      -6.027 -16.956   1.467 +0.01 +0.26    +0.167 HD
DOCKED: ENDBRANCH  41  43
DOCKED: ENDBRANCH  40  41
DOCKED: ENDBRANCH  39  40
DOCKED: ENDBRANCH  22  39
DOCKED: BRANCH  12  45
DOCKED: ATOM     45  C   UNL d   1       4.475 -11.059  -1.334 -0.27 +0.00    +0.004 C 
DOCKED: ATOM     46  C   UNL d   1       5.505 -11.185  -0.500 -0.25 +0.00    +0.012 C 
DOCKED: ENDBRANCH  12  45
DOCKED: BRANCH  17  47
DOCKED: ATOM     47  C   UNL d   1       0.333 -14.384   4.398 -0.19 +0.00    +0.004 C 
DOCKED: ATOM     48  C   UNL d   1      -0.309 -13.545   5.215 -0.32 +0.01    +0.012 C 
DOCKED: ENDBRANCH  17  47
DOCKED: TORSDOF 12
DOCKED: TER
DOCKED: ENDMDL
________________________________________________________________________________


	BEGINNING GENETIC ALGORITHM DOCKING 65 of 100
Run: 65 Seed: 584321349 1070010707 [ Run 65 of 100 GA/GALS ]
Beginning LAMARCKIAN GENETIC ALGORITHM (LGA), with a maximum of 25000000 energy evaluations.

Final-Value: -12.840


	FINAL GENETIC ALGORITHM DOCKED STATE
	_______________________________________________


Detailed state:  trans -0.197 -15.868 -1.944 quatxyzw -0.429510 -0.037074 0.418949 -0.799142 center 8.781 34.984 -0.736 ntor 12 150.0973 132.3631 11.0978 113.6121 132.3243 135.0072 -131.8607 171.4414 -142.9400 -48.1408 -179.7171 157.2524
State:	 -0.197 -15.868  -1.944  -0.714 -0.062  0.697 -73.903    150.10  132.36   11.10  113.61  132.32  135.01 -131.86  171.44 -142.94  -48.14 -179.72  157.25

DOCKED: MODEL       65
DOCKED: USER    Run = 65
DOCKED: USER    DPF = D:/Protein_go_brrr/autodock/final/AncA/heme_Co/dock.dpf
DOCKED: USER  
DOCKED: USER    Estimated Free Energy of Binding    =   -7.14 kcal/mol  [=(1)+(2)+(3)-(4)]
DOCKED: USER    Estimated Inhibition Constant, Ki   =    5.85 uM (micromolar)  [Temperature = 298.15 K]
DOCKED: USER    
DOCKED: USER    (1) Final Intermolecular Energy     =  -10.72 kcal/mol
DOCKED: USER        vdW + Hbond + desolv Energy     =   -6.30 kcal/mol
DOCKED: USER        Electrostatic Energy            =   -4.42 kcal/mol
DOCKED: USER    (2) Final Total Internal Energy     =   -2.12 kcal/mol
DOCKED: USER    (3) Torsional Free Energy           =   +3.58 kcal/mol
DOCKED: USER    (4) Unbound System's Energy  [=(2)] =   -2.12 kcal/mol
DOCKED: USER    
DOCKED: USER    
DOCKED: USER    NEWDPF move heme_Co_opt.pdbqt
DOCKED: USER    NEWDPF about 8.781000 34.984000 -0.736000
DOCKED: USER    NEWDPF tran0 -0.196670 -15.867924 -1.944132
DOCKED: USER    NEWDPF quaternion0 -0.429510 -0.037074 0.418949 -0.799142
DOCKED: USER    NEWDPF axisangle0 -0.714491 -0.061672 0.696921 -73.903436
DOCKED: USER    NEWDPF quat0 -0.714491 -0.061672 0.696921 -73.903436
DOCKED: USER    NEWDPF dihe0 150.10 132.36 11.10 113.61 132.32 135.01 -131.86 171.44 -142.94 -48.14 -179.72 157.25 
DOCKED: USER  keepresnum = 1 
DOCKED: USER  
DOCKED: REMARK  12 active torsions:
DOCKED: REMARK  status: ('A' for Active; 'I' for Inactive)
DOCKED: REMARK    1  A    between atoms: C_6  and  C_10 
DOCKED: REMARK    2  A    between atoms: C_10  and  C_11 
DOCKED: REMARK    3  A    between atoms: C_11  and  C_12 
DOCKED: REMARK    4  A    between atoms: C_12  and  O_14 
DOCKED: REMARK    5  A    between atoms: C_17  and  C_20 
DOCKED: REMARK    6  A    between atoms: C_24  and  C_27 
DOCKED: REMARK    7  A    between atoms: C_31  and  C_34 
DOCKED: REMARK    8  A    between atoms: C_34  and  C_35 
DOCKED: REMARK    9  A    between atoms: C_35  and  C_36 
DOCKED: REMARK   10  A    between atoms: C_36  and  O_38 
DOCKED: REMARK   11  A    between atoms: FE_43  and  C_44 
DOCKED: REMARK   12  A    between atoms: C_44  and  O_45 
DOCKED: USER                              x       y       z     vdW  Elec       q    Type
DOCKED: USER                           _______ _______ _______ _____ _____    ______ ____
DOCKED: ROOT
DOCKED: ATOM      1  C   UNL d   1      -1.409 -17.643  -2.255 -0.03 +0.06    +0.064 A 
DOCKED: ATOM      2  C   UNL d   1      -0.465 -15.056   1.622 -0.12 +0.05    +0.064 C 
DOCKED: ATOM      3  C   UNL d   1       2.596 -12.366  -0.872 -0.17 +0.02    +0.064 A 
DOCKED: ATOM      4  C   UNL d   1       1.360 -14.745  -4.931 -0.19 +0.03    +0.064 A 
DOCKED: ATOM      5  C   UNL d   1      -1.349 -17.157  -1.004 -0.03 +0.06    +0.066 A 
DOCKED: ATOM      6  C   UNL d   1      -2.172 -17.646   0.029 -0.03 -0.02    -0.021 A 
DOCKED: ATOM      7  C   UNL d   1      -1.910 -16.877   1.146 -0.07 -0.02    -0.025 A 
DOCKED: ATOM      8  C   UNL d   1      -0.927 -15.963   0.752 -0.08 +0.05    +0.066 A 
DOCKED: ATOM      9  C   UNL d   1      -2.553 -16.986   2.537 -0.06 +0.06    +0.051 C 
DOCKED: ATOM     10  C   UNL d   1       0.564 -14.094   1.315 -0.13 +0.04    +0.066 A 
DOCKED: ATOM     11  C   UNL d   1       1.191 -13.211   2.221 -0.20 -0.01    -0.021 A 
DOCKED: ATOM     12  C   UNL d   1       2.082 -12.441   1.468 -0.25 +0.00    +0.000 A 
DOCKED: ATOM     13  C   UNL d   1       1.942 -12.918   0.165 -0.15 +0.02    +0.070 A 
DOCKED: ATOM     14  C   UNL d   1       1.006 -13.188   3.717 -0.26 +0.02    +0.052 C 
DOCKED: ATOM     15  C   UNL d   1       2.531 -12.696  -2.282 -0.13 +0.02    +0.066 A 
DOCKED: ATOM     16  C   UNL d   1       3.123 -11.992  -3.321 -0.24 -0.01    -0.021 A 
DOCKED: ATOM     17  C   UNL d   1       2.767 -12.673  -4.494 -0.26 +0.00    +0.000 A 
DOCKED: ATOM     18  C   UNL d   1       1.997 -13.753  -4.075 -0.16 +0.03    +0.070 A 
DOCKED: ATOM     19  C   UNL d   1       3.969 -10.748  -3.166 -0.33 +0.01    +0.052 C 
DOCKED: ATOM     20  C   UNL d   1       0.536 -15.753  -4.553 -0.12 +0.04    +0.066 A 
DOCKED: ATOM     21  C   UNL d   1      -0.045 -16.622  -5.474 -0.15 -0.02    -0.025 A 
DOCKED: ATOM     22  C   UNL d   1      -0.826 -17.486  -4.728 -0.09 -0.02    -0.021 A 
DOCKED: ATOM     23  C   UNL d   1      -0.690 -17.091  -3.380 -0.06 +0.06    +0.066 A 
DOCKED: ATOM     24  C   UNL d   1       0.118 -16.617  -6.991 -0.27 +0.03    +0.051 C 
DOCKED: ATOM     25  N   UNL d   1      -0.556 -16.117  -0.573 -0.02 -0.18    -0.248 N 
DOCKED: ATOM     26  N   UNL d   1       1.065 -13.955   0.083 -0.05 -0.12    -0.248 N 
DOCKED: ATOM     27  N   UNL d   1       1.852 -13.718  -2.755 -0.05 -0.10    -0.248 N 
DOCKED: ATOM     28  N   UNL d   1       0.132 -16.040  -3.270 -0.03 -0.18    -0.248 N 
DOCKED: ATOM     29 FE   UNL d   1       0.719 -14.848  -1.732 -0.02 +0.00    +0.000 Fe
DOCKED: ENDROOT
DOCKED: BRANCH   6  30
DOCKED: ATOM     30  C   UNL d   1      -3.218 -18.750  -0.088 -0.01 +0.04    +0.052 C 
DOCKED: BRANCH  30  31
DOCKED: ATOM     31  C   UNL d   1      -4.605 -18.152  -0.326 -0.03 +0.11    +0.115 C 
DOCKED: BRANCH  31  32
DOCKED: ATOM     32  C   UNL d   1      -4.557 -16.907  -1.186 -0.04 +0.23    +0.139 C 
DOCKED: ATOM     33  O   UNL d   1      -4.802 -16.992  -2.380 +0.19 -1.45    -0.650 OA
DOCKED: BRANCH  32  34
DOCKED: ATOM     34  O   UNL d   1      -4.297 -15.686  -0.665 -0.08 -1.60    -0.776 OA
DOCKED: ATOM     35  H   UNL d   1      -3.809 -14.990  -1.127 +0.02 +0.39    +0.167 HD
DOCKED: ENDBRANCH  32  34
DOCKED: ENDBRANCH  31  32
DOCKED: ENDBRANCH  30  31
DOCKED: ENDBRANCH   6  30
DOCKED: BRANCH  29  36
DOCKED: ATOM     36  C   UNL d   1      -0.953 -13.617  -2.017 -0.15 +0.18    +0.190 C 
DOCKED: BRANCH  36  37
DOCKED: ATOM     37  O   UNL d   1      -2.351 -13.606  -1.967 -0.23 -0.68    -0.399 OA
DOCKED: ATOM     38  H   UNL d   1      -2.593 -14.395  -1.405 +0.05 +0.37    +0.209 HD
DOCKED: ENDBRANCH  36  37
DOCKED: ENDBRANCH  29  36
DOCKED: BRANCH  22  39
DOCKED: ATOM     39  C   UNL d   1      -1.703 -18.588  -5.293 -0.08 +0.04    +0.052 C 
DOCKED: BRANCH  39  40
DOCKED: ATOM     40  C   UNL d   1      -3.177 -18.148  -5.320 -0.14 +0.14    +0.115 C 
DOCKED: BRANCH  40  41
DOCKED: ATOM     41  C   UNL d   1      -3.842 -18.280  -6.674 -0.17 +0.22    +0.139 C 
DOCKED: ATOM     42  O   UNL d   1      -3.294 -17.806  -7.659 -0.45 -1.05    -0.650 OA
DOCKED: BRANCH  41  43
DOCKED: ATOM     43  O   UNL d   1      -4.985 -18.983  -6.838 +0.01 -1.53    -0.776 OA
DOCKED: ATOM     44  H   UNL d   1      -5.559 -19.221  -6.099 +0.02 +0.23    +0.167 HD
DOCKED: ENDBRANCH  41  43
DOCKED: ENDBRANCH  40  41
DOCKED: ENDBRANCH  39  40
DOCKED: ENDBRANCH  22  39
DOCKED: BRANCH  12  45
DOCKED: ATOM     45  C   UNL d   1       3.057 -11.329   1.831 -0.35 +0.00    +0.004 C 
DOCKED: ATOM     46  C   UNL d   1       4.383 -11.341   1.935 -0.21 +0.00    +0.012 C 
DOCKED: ENDBRANCH  12  45
DOCKED: BRANCH  17  47
DOCKED: ATOM     47  C   UNL d   1       3.064 -12.338  -5.919 -0.38 +0.00    +0.004 C 
DOCKED: ATOM     48  C   UNL d   1       3.893 -13.049  -6.686 -0.49 +0.00    +0.012 C 
DOCKED: ENDBRANCH  17  47
DOCKED: TORSDOF 12
DOCKED: TER
DOCKED: ENDMDL
________________________________________________________________________________


	BEGINNING GENETIC ALGORITHM DOCKING 66 of 100
Run: 66 Seed: 2028301284 1299481400 [ Run 66 of 100 GA/GALS ]
Beginning LAMARCKIAN GENETIC ALGORITHM (LGA), with a maximum of 25000000 energy evaluations.

Final-Value: -12.221


	FINAL GENETIC ALGORITHM DOCKED STATE
	_______________________________________________


Detailed state:  trans -0.030 -15.233 -1.929 quatxyzw 0.843620 0.227645 0.442661 -0.201329 center 8.781 34.984 -0.736 ntor 12 61.4562 110.4244 -49.1724 30.9373 121.5663 133.9105 178.8881 129.2705 -35.1357 132.3327 46.8635 12.7270
State:	 -0.030 -15.233  -1.929   0.861  0.232  0.452 -156.771     61.46  110.42  -49.17   30.94  121.57  133.91  178.89  129.27  -35.14  132.33   46.86   12.73

DOCKED: MODEL       66
DOCKED: USER    Run = 66
DOCKED: USER    DPF = D:/Protein_go_brrr/autodock/final/AncA/heme_Co/dock.dpf
DOCKED: USER  
DOCKED: USER    Estimated Free Energy of Binding    =   -7.81 kcal/mol  [=(1)+(2)+(3)-(4)]
DOCKED: USER    Estimated Inhibition Constant, Ki   =    1.87 uM (micromolar)  [Temperature = 298.15 K]
DOCKED: USER    
DOCKED: USER    (1) Final Intermolecular Energy     =  -11.39 kcal/mol
DOCKED: USER        vdW + Hbond + desolv Energy     =   -7.20 kcal/mol
DOCKED: USER        Electrostatic Energy            =   -4.19 kcal/mol
DOCKED: USER    (2) Final Total Internal Energy     =   -0.83 kcal/mol
DOCKED: USER    (3) Torsional Free Energy           =   +3.58 kcal/mol
DOCKED: USER    (4) Unbound System's Energy  [=(2)] =   -0.83 kcal/mol
DOCKED: USER    
DOCKED: USER    
DOCKED: USER    NEWDPF move heme_Co_opt.pdbqt
DOCKED: USER    NEWDPF about 8.781000 34.984000 -0.736000
DOCKED: USER    NEWDPF tran0 -0.030278 -15.232646 -1.928906
DOCKED: USER    NEWDPF quaternion0 0.843620 0.227645 0.442661 -0.201329
DOCKED: USER    NEWDPF axisangle0 0.861256 0.232404 0.451915 -156.770657
DOCKED: USER    NEWDPF quat0 0.861256 0.232404 0.451915 -156.770657
DOCKED: USER    NEWDPF dihe0 61.46 110.42 -49.17 30.94 121.57 133.91 178.89 129.27 -35.14 132.33 46.86 12.73 
DOCKED: USER  keepresnum = 1 
DOCKED: USER  
DOCKED: REMARK  12 active torsions:
DOCKED: REMARK  status: ('A' for Active; 'I' for Inactive)
DOCKED: REMARK    1  A    between atoms: C_6  and  C_10 
DOCKED: REMARK    2  A    between atoms: C_10  and  C_11 
DOCKED: REMARK    3  A    between atoms: C_11  and  C_12 
DOCKED: REMARK    4  A    between atoms: C_12  and  O_14 
DOCKED: REMARK    5  A    between atoms: C_17  and  C_20 
DOCKED: REMARK    6  A    between atoms: C_24  and  C_27 
DOCKED: REMARK    7  A    between atoms: C_31  and  C_34 
DOCKED: REMARK    8  A    between atoms: C_34  and  C_35 
DOCKED: REMARK    9  A    between atoms: C_35  and  C_36 
DOCKED: REMARK   10  A    between atoms: C_36  and  O_38 
DOCKED: REMARK   11  A    between atoms: FE_43  and  C_44 
DOCKED: REMARK   12  A    between atoms: C_44  and  O_45 
DOCKED: USER                              x       y       z     vdW  Elec       q    Type
DOCKED: USER                           _______ _______ _______ _____ _____    ______ ____
DOCKED: ROOT
DOCKED: ATOM      1  C   UNL d   1      -1.616 -16.610  -2.479 -0.07 +0.08    +0.064 A 
DOCKED: ATOM      2  C   UNL d   1       1.603 -14.250  -5.062 -0.27 +0.03    +0.064 C 
DOCKED: ATOM      3  C   UNL d   1       3.141 -11.986  -1.145 -0.20 +0.02    +0.064 A 
DOCKED: ATOM      4  C   UNL d   1       0.125 -14.666   1.572 -0.11 +0.04    +0.064 A 
DOCKED: ATOM      5  C   UNL d   1      -0.874 -16.105  -3.478 -0.11 +0.07    +0.066 A 
DOCKED: ATOM      6  C   UNL d   1      -0.981 -16.577  -4.801 -0.15 -0.02    -0.021 A 
DOCKED: ATOM      7  C   UNL d   1      -0.029 -15.905  -5.541 -0.21 -0.02    -0.025 A 
DOCKED: ATOM      8  C   UNL d   1       0.607 -15.040  -4.643 -0.16 +0.04    +0.066 A 
DOCKED: ATOM      9  C   UNL d   1       0.284 -16.060  -7.038 -0.23 +0.03    +0.051 C 
DOCKED: ATOM     10  C   UNL d   1       2.297 -13.310  -4.217 -0.19 +0.03    +0.066 A 
DOCKED: ATOM     11  C   UNL d   1       3.253 -12.355  -4.626 -0.28 -0.01    -0.021 A 
DOCKED: ATOM     12  C   UNL d   1       3.682 -11.706  -3.464 -0.27 +0.00    +0.000 A 
DOCKED: ATOM     13  C   UNL d   1       2.949 -12.303  -2.438 -0.16 +0.02    +0.070 A 
DOCKED: ATOM     14  C   UNL d   1       3.644 -12.034  -6.045 -0.46 +0.01    +0.052 C 
DOCKED: ATOM     15  C   UNL d   1       2.513 -12.537   0.040 -0.17 +0.02    +0.066 A 
DOCKED: ATOM     16  C   UNL d   1       2.861 -12.268   1.356 -0.22 -0.01    -0.021 A 
DOCKED: ATOM     17  C   UNL d   1       1.996 -13.041   2.143 -0.19 +0.00    +0.000 A 
DOCKED: ATOM     18  C   UNL d   1       1.174 -13.709   1.242 -0.13 +0.03    +0.070 A 
DOCKED: ATOM     19  C   UNL d   1       3.960 -11.327   1.798 -0.22 +0.01    +0.052 C 
DOCKED: ATOM     20  C   UNL d   1      -0.628 -15.393   0.712 -0.09 +0.05    +0.066 A 
DOCKED: ATOM     21  C   UNL d   1      -1.581 -16.309   1.151 -0.09 -0.02    -0.025 A 
DOCKED: ATOM     22  C   UNL d   1      -2.120 -16.864   0.004 -0.07 -0.02    -0.021 A 
DOCKED: ATOM     23  C   UNL d   1      -1.455 -16.263  -1.085 -0.07 +0.07    +0.066 A 
DOCKED: ATOM     24  C   UNL d   1      -1.948 -16.654   2.592 +0.02 +0.05    +0.051 C 
DOCKED: ATOM     25  N   UNL d   1       0.099 -15.139  -3.359 -0.06 -0.18    -0.248 N 
DOCKED: ATOM     26  N   UNL d   1       2.072 -13.233  -2.901 -0.07 -0.09    -0.248 N 
DOCKED: ATOM     27  N   UNL d   1       1.530 -13.408  -0.002 -0.06 -0.10    -0.248 N 
DOCKED: ATOM     28  N   UNL d   1      -0.549 -15.373  -0.661 -0.04 -0.19    -0.248 N 
DOCKED: ATOM     29 FE   UNL d   1       0.854 -14.224  -1.579 -0.02 +0.00    +0.000 Fe
DOCKED: ENDROOT
DOCKED: BRANCH   6  30
DOCKED: ATOM     30  C   UNL d   1      -1.904 -17.683  -5.300 -0.15 +0.05    +0.052 C 
DOCKED: BRANCH  30  31
DOCKED: ATOM     31  C   UNL d   1      -2.661 -17.230  -6.548 -0.15 +0.14    +0.115 C 
DOCKED: BRANCH  31  32
DOCKED: ATOM     32  C   UNL d   1      -2.840 -18.347  -7.552 +0.00 +0.22    +0.139 C 
DOCKED: ATOM     33  O   UNL d   1      -3.273 -19.427  -7.179 -0.28 -1.23    -0.650 OA
DOCKED: BRANCH  32  34
DOCKED: ATOM     34  O   UNL d   1      -2.583 -18.176  -8.870 -0.34 -1.20    -0.776 OA
DOCKED: ATOM     35  H   UNL d   1      -1.730 -17.889  -9.224 +0.07 +0.14    +0.167 HD
DOCKED: ENDBRANCH  32  34
DOCKED: ENDBRANCH  31  32
DOCKED: ENDBRANCH  30  31
DOCKED: ENDBRANCH   6  30
DOCKED: BRANCH  29  36
DOCKED: ATOM     36  C   UNL d   1       2.235 -15.798  -1.491 -0.01 +0.08    +0.190 C 
DOCKED: BRANCH  36  37
DOCKED: ATOM     37  O   UNL d   1       2.468 -17.103  -1.939 +0.00 -0.16    -0.399 OA
DOCKED: ATOM     38  H   UNL d   1       1.651 -17.346  -2.457 +0.01 +0.10    +0.209 HD
DOCKED: ENDBRANCH  36  37
DOCKED: ENDBRANCH  29  36
DOCKED: BRANCH  22  39
DOCKED: ATOM     39  C   UNL d   1      -3.170 -17.959  -0.034 -0.04 +0.05    +0.052 C 
DOCKED: BRANCH  39  40
DOCKED: ATOM     40  C   UNL d   1      -4.484 -17.431  -0.634 -0.07 +0.15    +0.115 C 
DOCKED: BRANCH  40  41
DOCKED: ATOM     41  C   UNL d   1      -5.016 -16.179   0.032 -0.04 +0.26    +0.139 C 
DOCKED: ATOM     42  O   UNL d   1      -5.818 -16.284   0.950 -0.28 -1.30    -0.650 OA
DOCKED: BRANCH  41  43
DOCKED: ATOM     43  O   UNL d   1      -4.563 -14.950  -0.301 -0.31 -1.73    -0.776 OA
DOCKED: ATOM     44  H   UNL d   1      -3.626 -14.762  -0.441 +0.02 +0.32    +0.167 HD
DOCKED: ENDBRANCH  41  43
DOCKED: ENDBRANCH  40  41
DOCKED: ENDBRANCH  39  40
DOCKED: ENDBRANCH  22  39
DOCKED: BRANCH  12  45
DOCKED: ATOM     45  C   UNL d   1       4.680 -10.585  -3.210 -0.36 +0.00    +0.004 C 
DOCKED: ATOM     46  C   UNL d   1       5.146  -9.639  -4.021 -0.38 +0.00    +0.012 C 
DOCKED: ENDBRANCH  12  45
DOCKED: BRANCH  17  47
DOCKED: ATOM     47  C   UNL d   1       1.947 -13.205   3.627 -0.21 +0.00    +0.004 C 
DOCKED: ATOM     48  C   UNL d   1       1.080 -12.562   4.412 -0.36 +0.01    +0.012 C 
DOCKED: ENDBRANCH  17  47
DOCKED: TORSDOF 12
DOCKED: TER
DOCKED: ENDMDL
________________________________________________________________________________


	BEGINNING GENETIC ALGORITHM DOCKING 67 of 100
Run: 67 Seed: 1584402458 1781898084 [ Run 67 of 100 GA/GALS ]
Beginning LAMARCKIAN GENETIC ALGORITHM (LGA), with a maximum of 25000000 energy evaluations.

Final-Value: -11.533


	FINAL GENETIC ALGORITHM DOCKED STATE
	_______________________________________________


Detailed state:  trans -0.527 -16.067 -2.797 quatxyzw -0.405420 -0.086774 0.393417 -0.820566 center 8.781 34.984 -0.736 ntor 12 -81.4489 143.5672 -153.3859 -9.4326 126.9432 -176.9309 157.6624 167.0673 103.1371 64.3391 -125.6562 -175.2884
State:	 -0.527 -16.067  -2.797  -0.709 -0.152  0.688 -69.717    -81.45  143.57 -153.39   -9.43  126.94 -176.93  157.66  167.07  103.14   64.34 -125.66 -175.29

DOCKED: MODEL       67
DOCKED: USER    Run = 67
DOCKED: USER    DPF = D:/Protein_go_brrr/autodock/final/AncA/heme_Co/dock.dpf
DOCKED: USER  
DOCKED: USER    Estimated Free Energy of Binding    =   -6.39 kcal/mol  [=(1)+(2)+(3)-(4)]
DOCKED: USER    Estimated Inhibition Constant, Ki   =   20.68 uM (micromolar)  [Temperature = 298.15 K]
DOCKED: USER    
DOCKED: USER    (1) Final Intermolecular Energy     =   -9.97 kcal/mol
DOCKED: USER        vdW + Hbond + desolv Energy     =   -6.13 kcal/mol
DOCKED: USER        Electrostatic Energy            =   -3.84 kcal/mol
DOCKED: USER    (2) Final Total Internal Energy     =   -1.56 kcal/mol
DOCKED: USER    (3) Torsional Free Energy           =   +3.58 kcal/mol
DOCKED: USER    (4) Unbound System's Energy  [=(2)] =   -1.56 kcal/mol
DOCKED: USER    
DOCKED: USER    
DOCKED: USER    NEWDPF move heme_Co_opt.pdbqt
DOCKED: USER    NEWDPF about 8.781000 34.984000 -0.736000
DOCKED: USER    NEWDPF tran0 -0.527187 -16.067473 -2.796981
DOCKED: USER    NEWDPF quaternion0 -0.405420 -0.086774 0.393417 -0.820566
DOCKED: USER    NEWDPF axisangle0 -0.709331 -0.151822 0.688331 -69.717052
DOCKED: USER    NEWDPF quat0 -0.709331 -0.151822 0.688331 -69.717052
DOCKED: USER    NEWDPF dihe0 -81.45 143.57 -153.39 -9.43 126.94 -176.93 157.66 167.07 103.14 64.34 -125.66 -175.29 
DOCKED: USER  keepresnum = 1 
DOCKED: USER  
DOCKED: REMARK  12 active torsions:
DOCKED: REMARK  status: ('A' for Active; 'I' for Inactive)
DOCKED: REMARK    1  A    between atoms: C_6  and  C_10 
DOCKED: REMARK    2  A    between atoms: C_10  and  C_11 
DOCKED: REMARK    3  A    between atoms: C_11  and  C_12 
DOCKED: REMARK    4  A    between atoms: C_12  and  O_14 
DOCKED: REMARK    5  A    between atoms: C_17  and  C_20 
DOCKED: REMARK    6  A    between atoms: C_24  and  C_27 
DOCKED: REMARK    7  A    between atoms: C_31  and  C_34 
DOCKED: REMARK    8  A    between atoms: C_34  and  C_35 
DOCKED: REMARK    9  A    between atoms: C_35  and  C_36 
DOCKED: REMARK   10  A    between atoms: C_36  and  O_38 
DOCKED: REMARK   11  A    between atoms: FE_43  and  C_44 
DOCKED: REMARK   12  A    between atoms: C_44  and  O_45 
DOCKED: USER                              x       y       z     vdW  Elec       q    Type
DOCKED: USER                           _______ _______ _______ _____ _____    ______ ____
DOCKED: ROOT
DOCKED: ATOM      1  C   UNL d   1      -1.729 -17.780  -3.379 -0.06 +0.06    +0.064 A 
DOCKED: ATOM      2  C   UNL d   1      -1.072 -15.611   0.801 -0.11 +0.06    +0.064 C 
DOCKED: ATOM      3  C   UNL d   1       2.207 -12.741  -1.161 -0.13 +0.02    +0.064 A 
DOCKED: ATOM      4  C   UNL d   1       1.275 -14.681  -5.524 -0.26 +0.03    +0.064 A 
DOCKED: ATOM      5  C   UNL d   1      -1.764 -17.422  -2.085 -0.05 +0.07    +0.066 A 
DOCKED: ATOM      6  C   UNL d   1      -2.672 -17.997  -1.175 -0.04 -0.02    -0.021 A 
DOCKED: ATOM      7  C   UNL d   1      -2.493 -17.348   0.031 -0.05 -0.02    -0.025 A 
DOCKED: ATOM      8  C   UNL d   1      -1.472 -16.417  -0.190 -0.06 +0.06    +0.066 A 
DOCKED: ATOM      9  C   UNL d   1      -3.246 -17.584   1.349 -0.07 +0.05    +0.051 C 
DOCKED: ATOM     10  C   UNL d   1      -0.012 -14.641   0.674 -0.11 +0.04    +0.066 A 
DOCKED: ATOM     11  C   UNL d   1       0.549 -13.865   1.711 -0.13 -0.01    -0.021 A 
DOCKED: ATOM     12  C   UNL d   1       1.505 -13.040   1.112 -0.20 +0.00    +0.000 A 
DOCKED: ATOM     13  C   UNL d   1       1.465 -13.382  -0.240 -0.11 +0.03    +0.070 A 
DOCKED: ATOM     14  C   UNL d   1       0.246 -13.988   3.183 -0.13 +0.03    +0.052 C 
DOCKED: ATOM     15  C   UNL d   1       2.251 -12.928  -2.598 -0.13 +0.02    +0.066 A 
DOCKED: ATOM     16  C   UNL d   1       2.932 -12.135  -3.510 -0.23 -0.01    -0.021 A 
DOCKED: ATOM     17  C   UNL d   1       2.664 -12.689  -4.770 -0.29 +0.00    +0.000 A 
DOCKED: ATOM     18  C   UNL d   1       1.852 -13.791  -4.524 -0.20 +0.03    +0.070 A 
DOCKED: ATOM     19  C   UNL d   1       3.775 -10.928  -3.165 -0.31 +0.01    +0.052 C 
DOCKED: ATOM     20  C   UNL d   1       0.414 -15.706  -5.315 -0.18 +0.04    +0.066 A 
DOCKED: ATOM     21  C   UNL d   1      -0.101 -16.468  -6.362 -0.23 -0.02    -0.025 A 
DOCKED: ATOM     22  C   UNL d   1      -0.948 -17.389  -5.771 -0.14 -0.02    -0.021 A 
DOCKED: ATOM     23  C   UNL d   1      -0.917 -17.132  -4.384 -0.09 +0.06    +0.066 A 
DOCKED: ATOM     24  C   UNL d   1       0.183 -16.316  -7.853 -0.05 +0.03    +0.051 C 
DOCKED: ATOM     25  N   UNL d   1      -0.998 -16.445  -1.491 -0.03 -0.22    -0.248 N 
DOCKED: ATOM     26  N   UNL d   1       0.588 -14.389  -0.494 -0.04 -0.14    -0.248 N 
DOCKED: ATOM     27  N   UNL d   1       1.602 -13.885  -3.223 -0.06 -0.11    -0.248 N 
DOCKED: ATOM     28  N   UNL d   1      -0.095 -16.113  -4.104 -0.05 -0.19    -0.248 N 
DOCKED: ATOM     29 FE   UNL d   1       0.379 -15.091  -2.411 -0.02 +0.00    +0.000 Fe
DOCKED: ENDROOT
DOCKED: BRANCH   6  30
DOCKED: ATOM     30  C   UNL d   1      -3.717 -19.064  -1.484 -0.02 +0.04    +0.052 C 
DOCKED: BRANCH  30  31
DOCKED: ATOM     31  C   UNL d   1      -4.398 -18.777  -2.822 -0.05 +0.12    +0.115 C 
DOCKED: BRANCH  31  32
DOCKED: ATOM     32  C   UNL d   1      -5.455 -17.699  -2.713 -0.05 +0.20    +0.139 C 
DOCKED: ATOM     33  O   UNL d   1      -5.347 -16.837  -1.853 -0.06 -1.31    -0.650 OA
DOCKED: BRANCH  32  34
DOCKED: ATOM     34  O   UNL d   1      -6.499 -17.628  -3.571 +0.02 -0.98    -0.776 OA
DOCKED: ATOM     35  H   UNL d   1      -6.469 -17.180  -4.428 +0.03 +0.24    +0.167 HD
DOCKED: ENDBRANCH  32  34
DOCKED: ENDBRANCH  31  32
DOCKED: ENDBRANCH  30  31
DOCKED: ENDBRANCH   6  30
DOCKED: BRANCH  29  36
DOCKED: ATOM     36  C   UNL d   1      -1.252 -13.807  -2.702 -0.16 +0.22    +0.190 C 
DOCKED: BRANCH  36  37
DOCKED: ATOM     37  O   UNL d   1      -2.498 -13.450  -2.174 -0.31 -0.74    -0.399 OA
DOCKED: ATOM     38  H   UNL d   1      -2.416 -13.612  -1.192 +0.06 +0.30    +0.209 HD
DOCKED: ENDBRANCH  36  37
DOCKED: ENDBRANCH  29  36
DOCKED: BRANCH  22  39
DOCKED: ATOM     39  C   UNL d   1      -1.789 -18.412  -6.511 -0.14 +0.05    +0.052 C 
DOCKED: BRANCH  39  40
DOCKED: ATOM     40  C   UNL d   1      -2.983 -17.736  -7.203 -0.23 +0.16    +0.115 C 
DOCKED: BRANCH  40  41
DOCKED: ATOM     41  C   UNL d   1      -4.336 -18.259  -6.767 -0.12 +0.24    +0.139 C 
DOCKED: ATOM     42  O   UNL d   1      -4.567 -19.457  -6.845 -0.01 -1.32    -0.650 OA
DOCKED: BRANCH  41  43
DOCKED: ATOM     43  O   UNL d   1      -5.266 -17.450  -6.213 +0.07 -1.17    -0.776 OA
DOCKED: ATOM     44  H   UNL d   1      -5.886 -17.757  -5.539 +0.04 +0.22    +0.167 HD
DOCKED: ENDBRANCH  41  43
DOCKED: ENDBRANCH  40  41
DOCKED: ENDBRANCH  39  40
DOCKED: ENDBRANCH  22  39
DOCKED: BRANCH  12  45
DOCKED: ATOM     45  C   UNL d   1       2.460 -11.988   1.661 -0.33 +0.00    +0.004 C 
DOCKED: ATOM     46  C   UNL d   1       2.448 -11.326   2.815 -0.42 +0.00    +0.012 C 
DOCKED: ENDBRANCH  12  45
DOCKED: BRANCH  17  47
DOCKED: ATOM     47  C   UNL d   1       3.077 -12.219  -6.126 -0.38 +0.00    +0.004 C 
DOCKED: ATOM     48  C   UNL d   1       4.033 -12.806  -6.850 -0.53 +0.00    +0.012 C 
DOCKED: ENDBRANCH  17  47
DOCKED: TORSDOF 12
DOCKED: TER
DOCKED: ENDMDL
________________________________________________________________________________


	BEGINNING GENETIC ALGORITHM DOCKING 68 of 100
Run: 68 Seed: 208110559 1379232437 [ Run 68 of 100 GA/GALS ]
Beginning LAMARCKIAN GENETIC ALGORITHM (LGA), with a maximum of 25000000 energy evaluations.

Final-Value: -10.094


	FINAL GENETIC ALGORITHM DOCKED STATE
	_______________________________________________


Detailed state:  trans -12.502 8.840 -6.275 quatxyzw 0.355039 0.628609 -0.138241 0.678003 center 8.781 34.984 -0.736 ntor 12 -174.8920 121.1141 36.3233 113.7857 137.7526 131.6954 33.1333 130.4790 180.0000 -50.4683 -171.0536 -164.2361
State:	-12.502   8.840  -6.275   0.483  0.855 -0.188 94.624   -174.89  121.11   36.32  113.79  137.75  131.70   33.13  130.48  180.00  -50.47 -171.05 -164.24

DOCKED: MODEL       68
DOCKED: USER    Run = 68
DOCKED: USER    DPF = D:/Protein_go_brrr/autodock/final/AncA/heme_Co/dock.dpf
DOCKED: USER  
DOCKED: USER    Estimated Free Energy of Binding    =   -4.29 kcal/mol  [=(1)+(2)+(3)-(4)]
DOCKED: USER    Estimated Inhibition Constant, Ki   =  719.83 uM (micromolar)  [Temperature = 298.15 K]
DOCKED: USER    
DOCKED: USER    (1) Final Intermolecular Energy     =   -7.87 kcal/mol
DOCKED: USER        vdW + Hbond + desolv Energy     =   -6.21 kcal/mol
DOCKED: USER        Electrostatic Energy            =   -1.66 kcal/mol
DOCKED: USER    (2) Final Total Internal Energy     =   -2.23 kcal/mol
DOCKED: USER    (3) Torsional Free Energy           =   +3.58 kcal/mol
DOCKED: USER    (4) Unbound System's Energy  [=(2)] =   -2.23 kcal/mol
DOCKED: USER    
DOCKED: USER    
DOCKED: USER    NEWDPF move heme_Co_opt.pdbqt
DOCKED: USER    NEWDPF about 8.781000 34.984000 -0.736000
DOCKED: USER    NEWDPF tran0 -12.502328 8.840125 -6.275367
DOCKED: USER    NEWDPF quaternion0 0.355039 0.628609 -0.138241 0.678003
DOCKED: USER    NEWDPF axisangle0 0.483008 0.855181 -0.188068 94.624463
DOCKED: USER    NEWDPF quat0 0.483008 0.855181 -0.188068 94.624463
DOCKED: USER    NEWDPF dihe0 -174.89 121.11 36.32 113.79 137.75 131.70 33.13 130.48 180.00 -50.47 -171.05 -164.24 
DOCKED: USER  keepresnum = 1 
DOCKED: USER  
DOCKED: REMARK  12 active torsions:
DOCKED: REMARK  status: ('A' for Active; 'I' for Inactive)
DOCKED: REMARK    1  A    between atoms: C_6  and  C_10 
DOCKED: REMARK    2  A    between atoms: C_10  and  C_11 
DOCKED: REMARK    3  A    between atoms: C_11  and  C_12 
DOCKED: REMARK    4  A    between atoms: C_12  and  O_14 
DOCKED: REMARK    5  A    between atoms: C_17  and  C_20 
DOCKED: REMARK    6  A    between atoms: C_24  and  C_27 
DOCKED: REMARK    7  A    between atoms: C_31  and  C_34 
DOCKED: REMARK    8  A    between atoms: C_34  and  C_35 
DOCKED: REMARK    9  A    between atoms: C_35  and  C_36 
DOCKED: REMARK   10  A    between atoms: C_36  and  O_38 
DOCKED: REMARK   11  A    between atoms: FE_43  and  C_44 
DOCKED: REMARK   12  A    between atoms: C_44  and  O_45 
DOCKED: USER                              x       y       z     vdW  Elec       q    Type
DOCKED: USER                           _______ _______ _______ _____ _____    ______ ____
DOCKED: ROOT
DOCKED: ATOM      1  C   UNL d   1     -11.897   7.706  -8.026 -0.18 +0.01    +0.064 A 
DOCKED: ATOM      2  C   UNL d   1     -15.920   7.766  -5.492 -0.25 -0.00    +0.064 C 
DOCKED: ATOM      3  C   UNL d   1     -13.942  10.776  -2.352 -0.18 -0.00    +0.064 A 
DOCKED: ATOM      4  C   UNL d   1      -9.957  11.034  -5.130 -0.03 -0.02    +0.064 A 
DOCKED: ATOM      5  C   UNL d   1     -13.129   7.473  -7.544 -0.25 +0.01    +0.066 A 
DOCKED: ATOM      6  C   UNL d   1     -14.064   6.678  -8.236 -0.24 -0.00    -0.021 A 
DOCKED: ATOM      7  C   UNL d   1     -15.236   6.717  -7.508 -0.19 -0.00    -0.025 A 
DOCKED: ATOM      8  C   UNL d   1     -14.963   7.520  -6.395 -0.22 +0.00    +0.066 A 
DOCKED: ATOM      9  C   UNL d   1     -16.572   6.031  -7.834 -0.16 +0.00    +0.051 C 
DOCKED: ATOM     10  C   UNL d   1     -15.724   8.558  -4.303 -0.22 -0.00    +0.066 A 
DOCKED: ATOM     11  C   UNL d   1     -16.644   8.737  -3.247 -0.20 +0.00    -0.021 A 
DOCKED: ATOM     12  C   UNL d   1     -16.040   9.615  -2.344 -0.13 -0.00    +0.000 A 
DOCKED: ATOM     13  C   UNL d   1     -14.796   9.897  -2.907 -0.18 -0.01    +0.070 A 
DOCKED: ATOM     14  C   UNL d   1     -17.966   8.030  -3.086 -0.20 +0.00    +0.052 C 
DOCKED: ATOM     15  C   UNL d   1     -12.646  11.222  -2.823 -0.16 -0.00    +0.066 A 
DOCKED: ATOM     16  C   UNL d   1     -11.879  12.242  -2.278 -0.10 +0.00    -0.021 A 
DOCKED: ATOM     17  C   UNL d   1     -10.729  12.322  -3.077 -0.10 -0.00    +0.000 A 
DOCKED: ATOM     18  C   UNL d   1     -10.879  11.329  -4.040 -0.13 -0.01    +0.070 A 
DOCKED: ATOM     19  C   UNL d   1     -12.252  13.069  -1.068 -0.05 +0.00    +0.052 C 
DOCKED: ATOM     20  C   UNL d   1     -10.122  10.133  -6.128 -0.15 -0.02    +0.066 A 
DOCKED: ATOM     21  C   UNL d   1      -9.180   9.965  -7.140 -0.18 +0.00    -0.025 A 
DOCKED: ATOM     22  C   UNL d   1      -9.699   8.991  -7.974 -0.20 +0.00    -0.021 A 
DOCKED: ATOM     23  C   UNL d   1     -10.947   8.619  -7.431 -0.21 -0.00    +0.066 A 
DOCKED: ATOM     24  C   UNL d   1      -7.860  10.709  -7.317 -0.15 -0.01    +0.051 C 
DOCKED: ATOM     25  N   UNL d   1     -13.663   7.997  -6.389 -0.13 -0.01    -0.248 N 
DOCKED: ATOM     26  N   UNL d   1     -14.583   9.213  -4.063 -0.15 +0.02    -0.248 N 
DOCKED: ATOM     27  N   UNL d   1     -12.046  10.715  -3.876 -0.11 +0.03    -0.248 N 
DOCKED: ATOM     28  N   UNL d   1     -11.208   9.310  -6.315 -0.06 +0.03    -0.248 N 
DOCKED: ATOM     29 FE   UNL d   1     -12.803   9.436  -5.060 -0.05 -0.00    +0.000 Fe
DOCKED: ENDROOT
DOCKED: BRANCH   6  30
DOCKED: ATOM     30  C   UNL d   1     -13.851   5.985  -9.578 -0.17 +0.00    +0.052 C 
DOCKED: BRANCH  30  31
DOCKED: ATOM     31  C   UNL d   1     -14.187   6.931 -10.730 -0.09 +0.00    +0.115 C 
DOCKED: BRANCH  31  32
DOCKED: ATOM     32  C   UNL d   1     -14.680   8.277 -10.247 -0.03 +0.01    +0.139 C 
DOCKED: ATOM     33  O   UNL d   1     -15.882   8.487 -10.175 +0.02 -0.02    -0.650 OA
DOCKED: BRANCH  32  34
DOCKED: ATOM     34  O   UNL d   1     -13.830   9.250  -9.842 +0.04 -0.03    -0.776 OA
DOCKED: ATOM     35  H   UNL d   1     -14.111  10.116  -9.515 +0.01 +0.01    +0.167 HD
DOCKED: ENDBRANCH  32  34
DOCKED: ENDBRANCH  31  32
DOCKED: ENDBRANCH  30  31
DOCKED: ENDBRANCH   6  30
DOCKED: BRANCH  29  36
DOCKED: ATOM     36  C   UNL d   1     -13.671  10.909  -6.274 -0.05 -0.00    +0.190 C 
DOCKED: BRANCH  36  37
DOCKED: ATOM     37  O   UNL d   1     -14.153  11.147  -7.565 +0.00 -0.01    -0.399 OA
DOCKED: ATOM     38  H   UNL d   1     -14.143  10.254  -8.011 +0.02 +0.01    +0.209 HD
DOCKED: ENDBRANCH  36  37
DOCKED: ENDBRANCH  29  36
DOCKED: BRANCH  22  39
DOCKED: ATOM     39  C   UNL d   1      -9.056   8.497  -9.256 -0.24 +0.01    +0.052 C 
DOCKED: BRANCH  39  40
DOCKED: ATOM     40  C   UNL d   1      -8.948   9.636 -10.283 -0.11 +0.04    +0.115 C 
DOCKED: BRANCH  40  41
DOCKED: ATOM     41  C   UNL d   1      -7.543   9.889 -10.790 +0.01 +0.14    +0.139 C 
DOCKED: ATOM     42  O   UNL d   1      -6.838  10.706 -10.215 -0.15 -0.79    -0.650 OA
DOCKED: BRANCH  41  43
DOCKED: ATOM     43  O   UNL d   1      -7.016   9.174 -11.808 -0.41 -1.13    -0.776 OA
DOCKED: ATOM     44  H   UNL d   1      -7.518   8.955 -12.604 +0.02 +0.11    +0.167 HD
DOCKED: ENDBRANCH  41  43
DOCKED: ENDBRANCH  40  41
DOCKED: ENDBRANCH  39  40
DOCKED: ENDBRANCH  22  39
DOCKED: BRANCH  12  45
DOCKED: ATOM     45  C   UNL d   1     -16.486  10.203  -1.012 -0.17 -0.00    +0.004 C 
DOCKED: ATOM     46  C   UNL d   1     -16.110   9.915   0.231 -0.24 -0.00    +0.012 C 
DOCKED: ENDBRANCH  12  45
DOCKED: BRANCH  17  47
DOCKED: ATOM     47  C   UNL d   1      -9.582  13.275  -3.006 -0.04 -0.00    +0.004 C 
DOCKED: ATOM     48  C   UNL d   1      -8.329  12.902  -2.734 -0.06 -0.00    +0.012 C 
DOCKED: ENDBRANCH  17  47
DOCKED: TORSDOF 12
DOCKED: TER
DOCKED: ENDMDL
________________________________________________________________________________


	BEGINNING GENETIC ALGORITHM DOCKING 69 of 100
Run: 69 Seed: 1626300201 1641876954 [ Run 69 of 100 GA/GALS ]
Beginning LAMARCKIAN GENETIC ALGORITHM (LGA), with a maximum of 25000000 energy evaluations.

Final-Value: -11.640


	FINAL GENETIC ALGORITHM DOCKED STATE
	_______________________________________________


Detailed state:  trans -11.787 -14.237 -1.281 quatxyzw -0.529109 -0.644962 0.545860 0.078131 center 8.781 34.984 -0.736 ntor 12 78.0616 75.1476 -79.8008 119.0404 -179.6621 179.3364 107.4225 150.6245 -44.9365 21.0154 -147.1879 173.0220
State:	-11.787 -14.237  -1.281  -0.531 -0.647  0.548 171.038     78.06   75.15  -79.80  119.04 -179.66  179.34  107.42  150.62  -44.94   21.02 -147.19  173.02

DOCKED: MODEL       69
DOCKED: USER    Run = 69
DOCKED: USER    DPF = D:/Protein_go_brrr/autodock/final/AncA/heme_Co/dock.dpf
DOCKED: USER  
DOCKED: USER    Estimated Free Energy of Binding    =   -6.15 kcal/mol  [=(1)+(2)+(3)-(4)]
DOCKED: USER    Estimated Inhibition Constant, Ki   =   31.24 uM (micromolar)  [Temperature = 298.15 K]
DOCKED: USER    
DOCKED: USER    (1) Final Intermolecular Energy     =   -9.73 kcal/mol
DOCKED: USER        vdW + Hbond + desolv Energy     =   -6.65 kcal/mol
DOCKED: USER        Electrostatic Energy            =   -3.08 kcal/mol
DOCKED: USER    (2) Final Total Internal Energy     =   -1.91 kcal/mol
DOCKED: USER    (3) Torsional Free Energy           =   +3.58 kcal/mol
DOCKED: USER    (4) Unbound System's Energy  [=(2)] =   -1.91 kcal/mol
DOCKED: USER    
DOCKED: USER    
DOCKED: USER    NEWDPF move heme_Co_opt.pdbqt
DOCKED: USER    NEWDPF about 8.781000 34.984000 -0.736000
DOCKED: USER    NEWDPF tran0 -11.787135 -14.237142 -1.281164
DOCKED: USER    NEWDPF quaternion0 -0.529109 -0.644962 0.545860 0.078131
DOCKED: USER    NEWDPF axisangle0 -0.530732 -0.646939 0.547534 171.037695
DOCKED: USER    NEWDPF quat0 -0.530732 -0.646939 0.547534 171.037695
DOCKED: USER    NEWDPF dihe0 78.06 75.15 -79.80 119.04 -179.66 179.34 107.42 150.62 -44.94 21.02 -147.19 173.02 
DOCKED: USER  keepresnum = 1 
DOCKED: USER  
DOCKED: REMARK  12 active torsions:
DOCKED: REMARK  status: ('A' for Active; 'I' for Inactive)
DOCKED: REMARK    1  A    between atoms: C_6  and  C_10 
DOCKED: REMARK    2  A    between atoms: C_10  and  C_11 
DOCKED: REMARK    3  A    between atoms: C_11  and  C_12 
DOCKED: REMARK    4  A    between atoms: C_12  and  O_14 
DOCKED: REMARK    5  A    between atoms: C_17  and  C_20 
DOCKED: REMARK    6  A    between atoms: C_24  and  C_27 
DOCKED: REMARK    7  A    between atoms: C_31  and  C_34 
DOCKED: REMARK    8  A    between atoms: C_34  and  C_35 
DOCKED: REMARK    9  A    between atoms: C_35  and  C_36 
DOCKED: REMARK   10  A    between atoms: C_36  and  O_38 
DOCKED: REMARK   11  A    between atoms: FE_43  and  C_44 
DOCKED: REMARK   12  A    between atoms: C_44  and  O_45 
DOCKED: USER                              x       y       z     vdW  Elec       q    Type
DOCKED: USER                           _______ _______ _______ _____ _____    ______ ____
DOCKED: ROOT
DOCKED: ATOM      1  C   UNL d   1     -10.171 -14.802   0.055 -0.11 +0.03    +0.064 A 
DOCKED: ATOM      2  C   UNL d   1     -14.533 -16.574  -0.610 -0.12 +0.01    +0.064 C 
DOCKED: ATOM      3  C   UNL d   1     -15.535 -13.055  -3.682 -0.17 +0.01    +0.064 A 
DOCKED: ATOM      4  C   UNL d   1     -10.959 -11.448  -3.315 -0.29 +0.01    +0.064 A 
DOCKED: ATOM      5  C   UNL d   1     -11.301 -15.524   0.126 -0.09 +0.02    +0.066 A 
DOCKED: ATOM      6  C   UNL d   1     -11.386 -16.706   0.886 -0.06 -0.01    -0.021 A 
DOCKED: ATOM      7  C   UNL d   1     -12.646 -17.229   0.672 -0.06 -0.01    -0.025 A 
DOCKED: ATOM      8  C   UNL d   1     -13.282 -16.335  -0.196 -0.12 +0.01    +0.066 A 
DOCKED: ATOM      9  C   UNL d   1     -13.243 -18.519   1.254 -0.02 +0.01    +0.051 C 
DOCKED: ATOM     10  C   UNL d   1     -15.276 -15.698  -1.481 -0.13 +0.01    +0.066 A 
DOCKED: ATOM     11  C   UNL d   1     -16.637 -15.820  -1.839 -0.10 -0.00    -0.021 A 
DOCKED: ATOM     12  C   UNL d   1     -16.903 -14.779  -2.732 -0.13 +0.00    +0.000 A 
DOCKED: ATOM     13  C   UNL d   1     -15.694 -14.094  -2.843 -0.15 +0.01    +0.070 A 
DOCKED: ATOM     14  C   UNL d   1     -17.621 -16.815  -1.279 -0.06 +0.01    +0.052 C 
DOCKED: ATOM     15  C   UNL d   1     -14.349 -12.269  -3.960 -0.22 +0.00    +0.066 A 
DOCKED: ATOM     16  C   UNL d   1     -14.215 -11.302  -4.946 -0.29 -0.00    -0.021 A 
DOCKED: ATOM     17  C   UNL d   1     -12.896 -10.837  -4.845 -0.36 +0.00    +0.000 A 
DOCKED: ATOM     18  C   UNL d   1     -12.333 -11.548  -3.791 -0.24 +0.00    +0.070 A 
DOCKED: ATOM     19  C   UNL d   1     -15.300 -10.874  -5.908 -0.28 +0.00    +0.052 C 
DOCKED: ATOM     20  C   UNL d   1     -10.365 -12.189  -2.349 -0.24 +0.02    +0.066 A 
DOCKED: ATOM     21  C   UNL d   1      -9.025 -12.024  -2.004 -0.26 -0.01    -0.025 A 
DOCKED: ATOM     22  C   UNL d   1      -8.777 -12.958  -1.015 -0.21 -0.01    -0.021 A 
DOCKED: ATOM     23  C   UNL d   1      -9.984 -13.661  -0.812 -0.12 +0.04    +0.066 A 
DOCKED: ATOM     24  C   UNL d   1      -8.024 -11.039  -2.601 -0.28 +0.03    +0.051 C 
DOCKED: ATOM     25  N   UNL d   1     -12.474 -15.266  -0.546 -0.04 -0.05    -0.248 N 
DOCKED: ATOM     26  N   UNL d   1     -14.726 -14.617  -2.043 -0.10 -0.03    -0.248 N 
DOCKED: ATOM     27  N   UNL d   1     -13.217 -12.413  -3.308 -0.11 -0.02    -0.248 N 
DOCKED: ATOM     28  N   UNL d   1     -10.947 -13.200  -1.620 -0.01 -0.09    -0.248 N 
DOCKED: ATOM     29 FE   UNL d   1     -12.865 -13.753  -2.008 -0.06 +0.00    +0.000 Fe
DOCKED: ENDROOT
DOCKED: BRANCH   6  30
DOCKED: ATOM     30  C   UNL d   1     -10.270 -17.339   1.712 -0.01 +0.02    +0.052 C 
DOCKED: BRANCH  30  31
DOCKED: ATOM     31  C   UNL d   1      -9.107 -17.757   0.813 +0.00 +0.06    +0.115 C 
DOCKED: BRANCH  31  32
DOCKED: ATOM     32  C   UNL d   1      -7.766 -17.323   1.364 -0.02 +0.12    +0.139 C 
DOCKED: ATOM     33  O   UNL d   1      -7.715 -16.395   2.158 +0.02 -0.75    -0.650 OA
DOCKED: BRANCH  32  34
DOCKED: ATOM     34  O   UNL d   1      -6.617 -17.962   1.042 +0.02 -0.70    -0.776 OA
DOCKED: ATOM     35  H   UNL d   1      -6.176 -17.888   0.185 +0.01 +0.16    +0.167 HD
DOCKED: ENDBRANCH  32  34
DOCKED: ENDBRANCH  31  32
DOCKED: ENDBRANCH  30  31
DOCKED: ENDBRANCH   6  30
DOCKED: BRANCH  29  36
DOCKED: ATOM     36  C   UNL d   1     -12.202 -15.129  -3.444 -0.09 +0.05    +0.190 C 
DOCKED: BRANCH  36  37
DOCKED: ATOM     37  O   UNL d   1     -12.050 -16.498  -3.690 -0.01 -0.12    -0.399 OA
DOCKED: ATOM     38  H   UNL d   1     -11.765 -16.885  -2.815 +0.03 +0.07    +0.209 HD
DOCKED: ENDBRANCH  36  37
DOCKED: ENDBRANCH  29  36
DOCKED: BRANCH  22  39
DOCKED: ATOM     39  C   UNL d   1      -7.435 -13.201  -0.351 -0.23 +0.06    +0.052 C 
DOCKED: BRANCH  39  40
DOCKED: ATOM     40  C   UNL d   1      -6.589 -14.182  -1.180 -0.09 +0.20    +0.115 C 
DOCKED: BRANCH  40  41
DOCKED: ATOM     41  C   UNL d   1      -5.407 -14.770  -0.438 -0.06 +0.30    +0.139 C 
DOCKED: ATOM     42  O   UNL d   1      -4.447 -14.057  -0.180 -0.12 -1.39    -0.650 OA
DOCKED: BRANCH  41  43
DOCKED: ATOM     43  O   UNL d   1      -5.420 -16.039   0.026 -0.38 -1.48    -0.776 OA
DOCKED: ATOM     44  H   UNL d   1      -5.939 -16.306   0.795 +0.01 +0.31    +0.167 HD
DOCKED: ENDBRANCH  41  43
DOCKED: ENDBRANCH  40  41
DOCKED: ENDBRANCH  39  40
DOCKED: ENDBRANCH  22  39
DOCKED: BRANCH  12  45
DOCKED: ATOM     45  C   UNL d   1     -18.160 -14.344  -3.475 -0.09 +0.00    +0.004 C 
DOCKED: ATOM     46  C   UNL d   1     -18.928 -13.269  -3.321 -0.13 +0.00    +0.012 C 
DOCKED: ENDBRANCH  12  45
DOCKED: BRANCH  17  47
DOCKED: ATOM     47  C   UNL d   1     -12.168  -9.841  -5.688 -0.53 +0.00    +0.004 C 
DOCKED: ATOM     48  C   UNL d   1     -11.081  -9.183  -5.278 -0.53 +0.00    +0.012 C 
DOCKED: ENDBRANCH  17  47
DOCKED: TORSDOF 12
DOCKED: TER
DOCKED: ENDMDL
________________________________________________________________________________


	BEGINNING GENETIC ALGORITHM DOCKING 70 of 100
Run: 70 Seed: 541207604 1489710925 [ Run 70 of 100 GA/GALS ]
Beginning LAMARCKIAN GENETIC ALGORITHM (LGA), with a maximum of 25000000 energy evaluations.

Final-Value: -13.593


	FINAL GENETIC ALGORITHM DOCKED STATE
	_______________________________________________


Detailed state:  trans -0.405 -15.275 -1.727 quatxyzw 0.330939 0.023470 -0.368523 0.868401 center 8.781 34.984 -0.736 ntor 12 136.0591 137.7041 -7.6836 -29.3084 133.8944 136.9815 -111.2417 -58.4259 -133.1465 26.1696 164.7302 -41.4917
State:	 -0.405 -15.275  -1.727   0.667  0.047 -0.743 59.453    136.06  137.70   -7.68  -29.31  133.89  136.98 -111.24  -58.43 -133.15   26.17  164.73  -41.49

DOCKED: MODEL       70
DOCKED: USER    Run = 70
DOCKED: USER    DPF = D:/Protein_go_brrr/autodock/final/AncA/heme_Co/dock.dpf
DOCKED: USER  
DOCKED: USER    Estimated Free Energy of Binding    =   -8.20 kcal/mol  [=(1)+(2)+(3)-(4)]
DOCKED: USER    Estimated Inhibition Constant, Ki   =  974.66 nM (nanomolar)  [Temperature = 298.15 K]
DOCKED: USER    
DOCKED: USER    (1) Final Intermolecular Energy     =  -11.78 kcal/mol
DOCKED: USER        vdW + Hbond + desolv Energy     =   -7.24 kcal/mol
DOCKED: USER        Electrostatic Energy            =   -4.54 kcal/mol
DOCKED: USER    (2) Final Total Internal Energy     =   -1.81 kcal/mol
DOCKED: USER    (3) Torsional Free Energy           =   +3.58 kcal/mol
DOCKED: USER    (4) Unbound System's Energy  [=(2)] =   -1.81 kcal/mol
DOCKED: USER    
DOCKED: USER    
DOCKED: USER    NEWDPF move heme_Co_opt.pdbqt
DOCKED: USER    NEWDPF about 8.781000 34.984000 -0.736000
DOCKED: USER    NEWDPF tran0 -0.404532 -15.275315 -1.727154
DOCKED: USER    NEWDPF quaternion0 0.330939 0.023470 -0.368523 0.868401
DOCKED: USER    NEWDPF axisangle0 0.667399 0.047331 -0.743195 59.453364
DOCKED: USER    NEWDPF quat0 0.667399 0.047331 -0.743195 59.453364
DOCKED: USER    NEWDPF dihe0 136.06 137.70 -7.68 -29.31 133.89 136.98 -111.24 -58.43 -133.15 26.17 164.73 -41.49 
DOCKED: USER  keepresnum = 1 
DOCKED: USER  
DOCKED: REMARK  12 active torsions:
DOCKED: REMARK  status: ('A' for Active; 'I' for Inactive)
DOCKED: REMARK    1  A    between atoms: C_6  and  C_10 
DOCKED: REMARK    2  A    between atoms: C_10  and  C_11 
DOCKED: REMARK    3  A    between atoms: C_11  and  C_12 
DOCKED: REMARK    4  A    between atoms: C_12  and  O_14 
DOCKED: REMARK    5  A    between atoms: C_17  and  C_20 
DOCKED: REMARK    6  A    between atoms: C_24  and  C_27 
DOCKED: REMARK    7  A    between atoms: C_31  and  C_34 
DOCKED: REMARK    8  A    between atoms: C_34  and  C_35 
DOCKED: REMARK    9  A    between atoms: C_35  and  C_36 
DOCKED: REMARK   10  A    between atoms: C_36  and  O_38 
DOCKED: REMARK   11  A    between atoms: FE_43  and  C_44 
DOCKED: REMARK   12  A    between atoms: C_44  and  O_45 
DOCKED: USER                              x       y       z     vdW  Elec       q    Type
DOCKED: USER                           _______ _______ _______ _____ _____    ______ ____
DOCKED: ROOT
DOCKED: ATOM      1  C   UNL d   1      -1.881 -16.764  -2.292 -0.06 +0.08    +0.064 A 
DOCKED: ATOM      2  C   UNL d   1      -0.368 -15.211   1.940 -0.12 +0.05    +0.064 C 
DOCKED: ATOM      3  C   UNL d   1       2.929 -12.490  -0.196 -0.16 +0.02    +0.064 A 
DOCKED: ATOM      4  C   UNL d   1       1.148 -13.765  -4.540 -0.21 +0.03    +0.064 A 
DOCKED: ATOM      5  C   UNL d   1      -1.686 -16.567  -0.978 -0.06 +0.07    +0.066 A 
DOCKED: ATOM      6  C   UNL d   1      -2.520 -17.149  -0.003 -0.07 -0.02    -0.021 A 
DOCKED: ATOM      7  C   UNL d   1      -2.090 -16.677   1.222 -0.07 -0.03    -0.025 A 
DOCKED: ATOM      8  C   UNL d   1      -1.004 -15.841   0.943 -0.09 +0.06    +0.066 A 
DOCKED: ATOM      9  C   UNL d   1      -2.671 -16.991   2.609 -0.05 +0.06    +0.051 C 
DOCKED: ATOM     10  C   UNL d   1       0.775 -14.353   1.752 -0.11 +0.03    +0.066 A 
DOCKED: ATOM     11  C   UNL d   1       1.572 -13.775   2.765 -0.14 -0.01    -0.021 A 
DOCKED: ATOM     12  C   UNL d   1       2.528 -12.990   2.115 -0.17 +0.00    +0.000 A 
DOCKED: ATOM     13  C   UNL d   1       2.253 -13.156   0.757 -0.12 +0.02    +0.070 A 
DOCKED: ATOM     14  C   UNL d   1       1.468 -14.046   4.244 -0.15 +0.02    +0.052 C 
DOCKED: ATOM     15  C   UNL d   1       2.744 -12.502  -1.633 -0.14 +0.02    +0.066 A 
DOCKED: ATOM     16  C   UNL d   1       3.381 -11.679  -2.552 -0.24 -0.00    -0.021 A 
DOCKED: ATOM     17  C   UNL d   1       2.869 -12.041  -3.806 -0.27 +0.00    +0.000 A 
DOCKED: ATOM     18  C   UNL d   1       1.969 -13.072  -3.554 -0.17 +0.03    +0.070 A 
DOCKED: ATOM     19  C   UNL d   1       4.409 -10.622  -2.217 -0.22 +0.01    +0.052 C 
DOCKED: ATOM     20  C   UNL d   1       0.204 -14.709  -4.309 -0.17 +0.05    +0.066 A 
DOCKED: ATOM     21  C   UNL d   1      -0.546 -15.276  -5.337 -0.25 -0.02    -0.025 A 
DOCKED: ATOM     22  C   UNL d   1      -1.408 -16.166  -4.722 -0.10 -0.02    -0.021 A 
DOCKED: ATOM     23  C   UNL d   1      -1.147 -16.087  -3.337 -0.11 +0.08    +0.066 A 
DOCKED: ATOM     24  C   UNL d   1      -0.461 -14.971  -6.830 -0.39 +0.03    +0.051 C 
DOCKED: ATOM     25  N   UNL d   1      -0.727 -15.759  -0.411 -0.03 -0.20    -0.248 N 
DOCKED: ATOM     26  N   UNL d   1       1.229 -14.024   0.538 -0.05 -0.11    -0.248 N 
DOCKED: ATOM     27  N   UNL d   1       1.898 -13.299  -2.247 -0.05 -0.10    -0.248 N 
DOCKED: ATOM     28  N   UNL d   1      -0.173 -15.205  -3.083 -0.06 -0.20    -0.248 N 
DOCKED: ATOM     29 FE   UNL d   1       0.662 -14.457  -1.387 -0.02 +0.00    +0.000 Fe
DOCKED: ENDROOT
DOCKED: BRANCH   6  30
DOCKED: ATOM     30  C   UNL d   1      -3.723 -18.051  -0.257 -0.04 +0.05    +0.052 C 
DOCKED: BRANCH  30  31
DOCKED: ATOM     31  C   UNL d   1      -5.020 -17.334   0.118 -0.07 +0.15    +0.115 C 
DOCKED: BRANCH  31  32
DOCKED: ATOM     32  C   UNL d   1      -5.062 -15.911  -0.395 -0.09 +0.27    +0.139 C 
DOCKED: ATOM     33  O   UNL d   1      -5.940 -15.580  -1.178 -0.46 -1.41    -0.650 OA
DOCKED: BRANCH  32  34
DOCKED: ATOM     34  O   UNL d   1      -4.182 -14.972   0.023 -0.27 -1.71    -0.776 OA
DOCKED: ATOM     35  H   UNL d   1      -3.694 -14.382  -0.568 +0.03 +0.33    +0.167 HD
DOCKED: ENDBRANCH  32  34
DOCKED: ENDBRANCH  31  32
DOCKED: ENDBRANCH  30  31
DOCKED: ENDBRANCH   6  30
DOCKED: BRANCH  29  36
DOCKED: ATOM     36  C   UNL d   1      -0.821 -12.979  -1.280 -0.18 +0.15    +0.190 C 
DOCKED: BRANCH  36  37
DOCKED: ATOM     37  O   UNL d   1      -2.193 -12.789  -1.088 -0.15 -0.45    -0.399 OA
DOCKED: ATOM     38  H   UNL d   1      -2.493 -13.590  -0.573 +0.06 +0.28    +0.209 HD
DOCKED: ENDBRANCH  36  37
DOCKED: ENDBRANCH  29  36
DOCKED: BRANCH  22  39
DOCKED: ATOM     39  C   UNL d   1      -2.467 -16.994  -5.425 -0.09 +0.07    +0.052 C 
DOCKED: BRANCH  39  40
DOCKED: ATOM     40  C   UNL d   1      -1.825 -17.920  -6.472 -0.16 +0.11    +0.115 C 
DOCKED: BRANCH  40  41
DOCKED: ATOM     41  C   UNL d   1      -2.778 -18.409  -7.541 -0.02 +0.21    +0.139 C 
DOCKED: ATOM     42  O   UNL d   1      -3.060 -17.671  -8.475 -0.40 -1.02    -0.650 OA
DOCKED: BRANCH  41  43
DOCKED: ATOM     43  O   UNL d   1      -3.259 -19.672  -7.540 -0.14 -1.73    -0.776 OA
DOCKED: ATOM     44  H   UNL d   1      -3.006 -20.324  -6.873 +0.01 +0.23    +0.167 HD
DOCKED: ENDBRANCH  41  43
DOCKED: ENDBRANCH  40  41
DOCKED: ENDBRANCH  39  40
DOCKED: ENDBRANCH  22  39
DOCKED: BRANCH  12  45
DOCKED: ATOM     45  C   UNL d   1       3.674 -12.123   2.616 -0.21 +0.00    +0.004 C 
DOCKED: ATOM     46  C   UNL d   1       3.760 -11.331   3.681 -0.27 +0.00    +0.012 C 
DOCKED: ENDBRANCH  12  45
DOCKED: BRANCH  17  47
DOCKED: ATOM     47  C   UNL d   1       3.139 -11.454  -5.152 -0.39 +0.00    +0.004 C 
DOCKED: ATOM     48  C   UNL d   1       3.788 -12.103  -6.123 -0.53 +0.00    +0.012 C 
DOCKED: ENDBRANCH  17  47
DOCKED: TORSDOF 12
DOCKED: TER
DOCKED: ENDMDL
________________________________________________________________________________


	BEGINNING GENETIC ALGORITHM DOCKING 71 of 100
Run: 71 Seed: 757464439 746291618 [ Run 71 of 100 GA/GALS ]
Beginning LAMARCKIAN GENETIC ALGORITHM (LGA), with a maximum of 25000000 energy evaluations.

Final-Value: -10.389


	FINAL GENETIC ALGORITHM DOCKED STATE
	_______________________________________________


Detailed state:  trans -11.403 -16.746 -8.350 quatxyzw 0.317297 0.003865 -0.925095 0.208581 center 8.781 34.984 -0.736 ntor 12 171.4567 120.7107 -57.9370 65.2646 -89.8449 135.0132 -125.2114 -21.2496 -143.1220 44.6936 -179.1789 115.4661
State:	-11.403 -16.746  -8.350   0.324  0.004 -0.946 155.922    171.46  120.71  -57.94   65.26  -89.84  135.01 -125.21  -21.25 -143.12   44.69 -179.18  115.47

DOCKED: MODEL       71
DOCKED: USER    Run = 71
DOCKED: USER    DPF = D:/Protein_go_brrr/autodock/final/AncA/heme_Co/dock.dpf
DOCKED: USER  
DOCKED: USER    Estimated Free Energy of Binding    =   -4.75 kcal/mol  [=(1)+(2)+(3)-(4)]
DOCKED: USER    Estimated Inhibition Constant, Ki   =  331.59 uM (micromolar)  [Temperature = 298.15 K]
DOCKED: USER    
DOCKED: USER    (1) Final Intermolecular Energy     =   -8.33 kcal/mol
DOCKED: USER        vdW + Hbond + desolv Energy     =   -6.28 kcal/mol
DOCKED: USER        Electrostatic Energy            =   -2.05 kcal/mol
DOCKED: USER    (2) Final Total Internal Energy     =   -2.06 kcal/mol
DOCKED: USER    (3) Torsional Free Energy           =   +3.58 kcal/mol
DOCKED: USER    (4) Unbound System's Energy  [=(2)] =   -2.06 kcal/mol
DOCKED: USER    
DOCKED: USER    
DOCKED: USER    NEWDPF move heme_Co_opt.pdbqt
DOCKED: USER    NEWDPF about 8.781000 34.984000 -0.736000
DOCKED: USER    NEWDPF tran0 -11.402645 -16.746371 -8.350336
DOCKED: USER    NEWDPF quaternion0 0.317297 0.003865 -0.925095 0.208581
DOCKED: USER    NEWDPF axisangle0 0.324433 0.003952 -0.945900 155.921554
DOCKED: USER    NEWDPF quat0 0.324433 0.003952 -0.945900 155.921554
DOCKED: USER    NEWDPF dihe0 171.46 120.71 -57.94 65.26 -89.84 135.01 -125.21 -21.25 -143.12 44.69 -179.18 115.47 
DOCKED: USER  keepresnum = 1 
DOCKED: USER  
DOCKED: REMARK  12 active torsions:
DOCKED: REMARK  status: ('A' for Active; 'I' for Inactive)
DOCKED: REMARK    1  A    between atoms: C_6  and  C_10 
DOCKED: REMARK    2  A    between atoms: C_10  and  C_11 
DOCKED: REMARK    3  A    between atoms: C_11  and  C_12 
DOCKED: REMARK    4  A    between atoms: C_12  and  O_14 
DOCKED: REMARK    5  A    between atoms: C_17  and  C_20 
DOCKED: REMARK    6  A    between atoms: C_24  and  C_27 
DOCKED: REMARK    7  A    between atoms: C_31  and  C_34 
DOCKED: REMARK    8  A    between atoms: C_34  and  C_35 
DOCKED: REMARK    9  A    between atoms: C_35  and  C_36 
DOCKED: REMARK   10  A    between atoms: C_36  and  O_38 
DOCKED: REMARK   11  A    between atoms: FE_43  and  C_44 
DOCKED: REMARK   12  A    between atoms: C_44  and  O_45 
DOCKED: USER                              x       y       z     vdW  Elec       q    Type
DOCKED: USER                           _______ _______ _______ _____ _____    ______ ____
DOCKED: ROOT
DOCKED: ATOM      1  C   UNL d   1      -9.717 -18.060  -7.966 -0.12 +0.04    +0.064 A 
DOCKED: ATOM      2  C   UNL d   1     -11.791 -14.675  -5.349 -0.14 +0.02    +0.064 C 
DOCKED: ATOM      3  C   UNL d   1     -14.662 -13.558  -9.001 -0.18 +0.01    +0.064 A 
DOCKED: ATOM      4  C   UNL d   1     -12.824 -17.263 -11.562 -0.17 +0.02    +0.064 A 
DOCKED: ATOM      5  C   UNL d   1     -10.048 -17.193  -6.995 -0.21 +0.03    +0.066 A 
DOCKED: ATOM      6  C   UNL d   1      -9.465 -17.247  -5.714 -0.18 -0.01    -0.021 A 
DOCKED: ATOM      7  C   UNL d   1     -10.087 -16.277  -4.952 -0.14 -0.01    -0.025 A 
DOCKED: ATOM      8  C   UNL d   1     -11.010 -15.663  -5.804 -0.14 +0.02    +0.066 A 
DOCKED: ATOM      9  C   UNL d   1      -9.833 -15.931  -3.477 -0.10 +0.03    +0.051 C 
DOCKED: ATOM     10  C   UNL d   1     -12.751 -13.966  -6.159 -0.21 +0.01    +0.066 A 
DOCKED: ATOM     11  C   UNL d   1     -13.499 -12.830  -5.780 -0.21 -0.00    -0.021 A 
DOCKED: ATOM     12  C   UNL d   1     -14.325 -12.523  -6.865 -0.19 +0.00    +0.000 A 
DOCKED: ATOM     13  C   UNL d   1     -14.011 -13.484  -7.827 -0.20 +0.01    +0.070 A 
DOCKED: ATOM     14  C   UNL d   1     -13.349 -12.049  -4.500 -0.30 +0.00    +0.052 C 
DOCKED: ATOM     15  C   UNL d   1     -14.505 -14.512 -10.082 -0.18 +0.02    +0.066 A 
DOCKED: ATOM     16  C   UNL d   1     -15.309 -14.621 -11.207 -0.16 -0.01    -0.021 A 
DOCKED: ATOM     17  C   UNL d   1     -14.784 -15.690 -11.948 -0.16 +0.00    +0.000 A 
DOCKED: ATOM     18  C   UNL d   1     -13.687 -16.139 -11.221 -0.20 +0.03    +0.070 A 
DOCKED: ATOM     19  C   UNL d   1     -16.499 -13.742 -11.523 -0.13 +0.03    +0.052 C 
DOCKED: ATOM     20  C   UNL d   1     -11.805 -17.773 -10.829 -0.19 +0.02    +0.066 A 
DOCKED: ATOM     21  C   UNL d   1     -11.071 -18.880 -11.246 -0.15 -0.01    -0.025 A 
DOCKED: ATOM     22  C   UNL d   1     -10.148 -19.116 -10.242 -0.17 -0.01    -0.021 A 
DOCKED: ATOM     23  C   UNL d   1     -10.376 -18.139  -9.250 -0.16 +0.03    +0.066 A 
DOCKED: ATOM     24  C   UNL d   1     -11.251 -19.689 -12.528 -0.07 +0.02    +0.051 C 
DOCKED: ATOM     25  N   UNL d   1     -11.004 -16.206  -7.078 -0.17 -0.07    -0.248 N 
DOCKED: ATOM     26  N   UNL d   1     -13.020 -14.321  -7.420 -0.14 -0.02    -0.248 N 
DOCKED: ATOM     27  N   UNL d   1     -13.569 -15.434 -10.101 -0.05 -0.04    -0.248 N 
DOCKED: ATOM     28  N   UNL d   1     -11.379 -17.325  -9.600 -0.11 -0.08    -0.248 N 
DOCKED: ATOM     29 FE   UNL d   1     -12.360 -15.800  -8.681 -0.05 -0.00    +0.000 Fe
DOCKED: ENDROOT
DOCKED: BRANCH   6  30
DOCKED: ATOM     30  C   UNL d   1      -8.416 -18.245  -5.233 -0.13 +0.04    +0.052 C 
DOCKED: BRANCH  30  31
DOCKED: ATOM     31  C   UNL d   1      -9.082 -19.422  -4.521 -0.03 +0.06    +0.115 C 
DOCKED: BRANCH  31  32
DOCKED: ATOM     32  C   UNL d   1     -10.416 -19.789  -5.135 -0.02 +0.06    +0.139 C 
DOCKED: ATOM     33  O   UNL d   1     -10.503 -20.792  -5.828 +0.02 -0.25    -0.650 OA
DOCKED: BRANCH  32  34
DOCKED: ATOM     34  O   UNL d   1     -11.536 -19.066  -4.904 +0.02 -0.26    -0.776 OA
DOCKED: ATOM     35  H   UNL d   1     -12.357 -19.158  -5.407 +0.01 +0.05    +0.167 HD
DOCKED: ENDBRANCH  32  34
DOCKED: ENDBRANCH  31  32
DOCKED: ENDBRANCH  30  31
DOCKED: ENDBRANCH   6  30
DOCKED: BRANCH  29  36
DOCKED: ATOM     36  C   UNL d   1     -13.669 -17.159  -7.769 -0.06 +0.04    +0.190 C 
DOCKED: BRANCH  36  37
DOCKED: ATOM     37  O   UNL d   1     -13.717 -18.219  -6.857 -0.00 -0.09    -0.399 OA
DOCKED: ATOM     38  H   UNL d   1     -12.802 -18.259  -6.462 +0.02 +0.06    +0.209 HD
DOCKED: ENDBRANCH  36  37
DOCKED: ENDBRANCH  29  36
DOCKED: BRANCH  22  39
DOCKED: ATOM     39  C   UNL d   1      -9.150 -20.258 -10.215 -0.14 +0.04    +0.052 C 
DOCKED: BRANCH  39  40
DOCKED: ATOM     40  C   UNL d   1      -8.969 -20.786  -8.782 -0.12 +0.09    +0.115 C 
DOCKED: BRANCH  40  41
DOCKED: ATOM     41  C   UNL d   1      -7.543 -21.155  -8.428 +0.07 +0.20    +0.139 C 
DOCKED: ATOM     42  O   UNL d   1      -6.970 -20.542  -7.539 -0.51 -1.24    -0.650 OA
DOCKED: BRANCH  41  43
DOCKED: ATOM     43  O   UNL d   1      -6.915 -22.201  -9.009 -0.16 -1.06    -0.776 OA
DOCKED: ATOM     44  H   UNL d   1      -7.303 -23.085  -9.044 +0.01 +0.13    +0.167 HD
DOCKED: ENDBRANCH  41  43
DOCKED: ENDBRANCH  40  41
DOCKED: ENDBRANCH  39  40
DOCKED: ENDBRANCH  22  39
DOCKED: BRANCH  12  45
DOCKED: ATOM     45  C   UNL d   1     -15.354 -11.428  -7.110 -0.20 +0.00    +0.004 C 
DOCKED: ATOM     46  C   UNL d   1     -15.237 -10.104  -7.063 -0.33 +0.00    +0.012 C 
DOCKED: ENDBRANCH  12  45
DOCKED: BRANCH  17  47
DOCKED: ATOM     47  C   UNL d   1     -15.277 -16.304 -13.217 -0.09 +0.00    +0.004 C 
DOCKED: ATOM     48  C   UNL d   1     -15.794 -17.533 -13.288 -0.07 +0.01    +0.012 C 
DOCKED: ENDBRANCH  17  47
DOCKED: TORSDOF 12
DOCKED: TER
DOCKED: ENDMDL
________________________________________________________________________________


	BEGINNING GENETIC ALGORITHM DOCKING 72 of 100
Run: 72 Seed: 1464950752 1365753799 [ Run 72 of 100 GA/GALS ]
Beginning LAMARCKIAN GENETIC ALGORITHM (LGA), with a maximum of 25000000 energy evaluations.

Final-Value: -12.548


	FINAL GENETIC ALGORITHM DOCKED STATE
	_______________________________________________


Detailed state:  trans -0.049 -15.735 -1.875 quatxyzw 0.410055 0.032637 -0.419028 0.809447 center 8.781 34.984 -0.736 ntor 12 -66.0563 117.3305 46.2322 120.5703 141.1979 127.3465 -175.8039 0.5340 -156.7011 -2.6837 175.6244 -176.2981
State:	 -0.049 -15.735  -1.875   0.698  0.056 -0.714 71.916    -66.06  117.33   46.23  120.57  141.20  127.35 -175.80    0.53 -156.70   -2.68  175.62 -176.30

DOCKED: MODEL       72
DOCKED: USER    Run = 72
DOCKED: USER    DPF = D:/Protein_go_brrr/autodock/final/AncA/heme_Co/dock.dpf
DOCKED: USER  
DOCKED: USER    Estimated Free Energy of Binding    =   -7.69 kcal/mol  [=(1)+(2)+(3)-(4)]
DOCKED: USER    Estimated Inhibition Constant, Ki   =    2.31 uM (micromolar)  [Temperature = 298.15 K]
DOCKED: USER    
DOCKED: USER    (1) Final Intermolecular Energy     =  -11.27 kcal/mol
DOCKED: USER        vdW + Hbond + desolv Energy     =   -6.46 kcal/mol
DOCKED: USER        Electrostatic Energy            =   -4.81 kcal/mol
DOCKED: USER    (2) Final Total Internal Energy     =   -1.28 kcal/mol
DOCKED: USER    (3) Torsional Free Energy           =   +3.58 kcal/mol
DOCKED: USER    (4) Unbound System's Energy  [=(2)] =   -1.28 kcal/mol
DOCKED: USER    
DOCKED: USER    
DOCKED: USER    NEWDPF move heme_Co_opt.pdbqt
DOCKED: USER    NEWDPF about 8.781000 34.984000 -0.736000
DOCKED: USER    NEWDPF tran0 -0.049337 -15.735210 -1.874893
DOCKED: USER    NEWDPF quaternion0 0.410055 0.032637 -0.419028 0.809447
DOCKED: USER    NEWDPF axisangle0 0.698332 0.055582 -0.713612 71.916042
DOCKED: USER    NEWDPF quat0 0.698332 0.055582 -0.713612 71.916042
DOCKED: USER    NEWDPF dihe0 -66.06 117.33 46.23 120.57 141.20 127.35 -175.80 0.53 -156.70 -2.68 175.62 -176.30 
DOCKED: USER  keepresnum = 1 
DOCKED: USER  
DOCKED: REMARK  12 active torsions:
DOCKED: REMARK  status: ('A' for Active; 'I' for Inactive)
DOCKED: REMARK    1  A    between atoms: C_6  and  C_10 
DOCKED: REMARK    2  A    between atoms: C_10  and  C_11 
DOCKED: REMARK    3  A    between atoms: C_11  and  C_12 
DOCKED: REMARK    4  A    between atoms: C_12  and  O_14 
DOCKED: REMARK    5  A    between atoms: C_17  and  C_20 
DOCKED: REMARK    6  A    between atoms: C_24  and  C_27 
DOCKED: REMARK    7  A    between atoms: C_31  and  C_34 
DOCKED: REMARK    8  A    between atoms: C_34  and  C_35 
DOCKED: REMARK    9  A    between atoms: C_35  and  C_36 
DOCKED: REMARK   10  A    between atoms: C_36  and  O_38 
DOCKED: REMARK   11  A    between atoms: FE_43  and  C_44 
DOCKED: REMARK   12  A    between atoms: C_44  and  O_45 
DOCKED: USER                              x       y       z     vdW  Elec       q    Type
DOCKED: USER                           _______ _______ _______ _____ _____    ______ ____
DOCKED: ROOT
DOCKED: ATOM      1  C   UNL d   1      -1.289 -17.485  -2.219 -0.04 +0.06    +0.064 A 
DOCKED: ATOM      2  C   UNL d   1      -0.222 -15.051   1.724 -0.12 +0.05    +0.064 C 
DOCKED: ATOM      3  C   UNL d   1       2.808 -12.304  -0.746 -0.18 +0.02    +0.064 A 
DOCKED: ATOM      4  C   UNL d   1       1.447 -14.521  -4.856 -0.20 +0.03    +0.064 A 
DOCKED: ATOM      5  C   UNL d   1      -1.193 -17.045  -0.954 -0.03 +0.05    +0.066 A 
DOCKED: ATOM      6  C   UNL d   1      -1.997 -17.563   0.080 -0.03 -0.02    -0.021 A 
DOCKED: ATOM      7  C   UNL d   1      -1.699 -16.838   1.217 -0.07 -0.02    -0.025 A 
DOCKED: ATOM      8  C   UNL d   1      -0.716 -15.920   0.833 -0.08 +0.05    +0.066 A 
DOCKED: ATOM      9  C   UNL d   1      -2.309 -16.991   2.619 -0.07 +0.05    +0.051 C 
DOCKED: ATOM     10  C   UNL d   1       0.809 -14.089   1.427 -0.12 +0.03    +0.066 A 
DOCKED: ATOM     11  C   UNL d   1       1.468 -13.246   2.349 -0.19 -0.01    -0.021 A 
DOCKED: ATOM     12  C   UNL d   1       2.349 -12.459   1.602 -0.24 +0.00    +0.000 A 
DOCKED: ATOM     13  C   UNL d   1       2.172 -12.887   0.286 -0.14 +0.02    +0.070 A 
DOCKED: ATOM     14  C   UNL d   1       1.319 -13.276   3.848 -0.23 +0.02    +0.052 C 
DOCKED: ATOM     15  C   UNL d   1       2.705 -12.582  -2.165 -0.14 +0.02    +0.066 A 
DOCKED: ATOM     16  C   UNL d   1       3.280 -11.847  -3.192 -0.24 -0.01    -0.021 A 
DOCKED: ATOM     17  C   UNL d   1       2.888 -12.481  -4.379 -0.26 +0.00    +0.000 A 
DOCKED: ATOM     18  C   UNL d   1       2.117 -13.567  -3.981 -0.16 +0.03    +0.070 A 
DOCKED: ATOM     19  C   UNL d   1       4.143 -10.618  -3.013 -0.31 +0.01    +0.052 C 
DOCKED: ATOM     20  C   UNL d   1       0.622 -15.533  -4.495 -0.12 +0.04    +0.066 A 
DOCKED: ATOM     21  C   UNL d   1       0.009 -16.362  -5.432 -0.16 -0.02    -0.025 A 
DOCKED: ATOM     22  C   UNL d   1      -0.764 -17.245  -4.699 -0.10 -0.02    -0.021 A 
DOCKED: ATOM     23  C   UNL d   1      -0.591 -16.900  -3.342 -0.06 +0.05    +0.066 A 
DOCKED: ATOM     24  C   UNL d   1       0.135 -16.304  -6.952 -0.30 +0.03    +0.051 C 
DOCKED: ATOM     25  N   UNL d   1      -0.379 -16.030  -0.505 -0.02 -0.18    -0.248 N 
DOCKED: ATOM     26  N   UNL d   1       1.283 -13.910   0.189 -0.05 -0.11    -0.248 N 
DOCKED: ATOM     27  N   UNL d   1       2.004 -13.579  -2.657 -0.05 -0.10    -0.248 N 
DOCKED: ATOM     28  N   UNL d   1       0.245 -15.863  -3.214 -0.03 -0.17    -0.248 N 
DOCKED: ATOM     29 FE   UNL d   1       0.883 -14.734  -1.648 -0.02 +0.00    +0.000 Fe
DOCKED: ENDROOT
DOCKED: BRANCH   6  30
DOCKED: ATOM     30  C   UNL d   1      -3.058 -18.651  -0.050 -0.02 +0.04    +0.052 C 
DOCKED: BRANCH  30  31
DOCKED: ATOM     31  C   UNL d   1      -4.454 -18.033  -0.118 -0.04 +0.12    +0.115 C 
DOCKED: BRANCH  31  32
DOCKED: ATOM     32  C   UNL d   1      -4.424 -16.584  -0.554 -0.09 +0.23    +0.139 C 
DOCKED: ATOM     33  O   UNL d   1      -3.868 -16.283  -1.600 +0.29 -1.51    -0.650 OA
DOCKED: BRANCH  32  34
DOCKED: ATOM     34  O   UNL d   1      -5.038 -15.609   0.155 -0.50 -1.70    -0.776 OA
DOCKED: ATOM     35  H   UNL d   1      -5.998 -15.507   0.223 +0.02 +0.33    +0.167 HD
DOCKED: ENDBRANCH  32  34
DOCKED: ENDBRANCH  31  32
DOCKED: ENDBRANCH  30  31
DOCKED: ENDBRANCH   6  30
DOCKED: BRANCH  29  36
DOCKED: ATOM     36  C   UNL d   1      -0.782 -13.475  -1.848 -0.14 +0.16    +0.190 C 
DOCKED: BRANCH  36  37
DOCKED: ATOM     37  O   UNL d   1      -2.180 -13.473  -1.874 -0.22 -0.60    -0.399 OA
DOCKED: ATOM     38  H   UNL d   1      -2.442 -14.417  -1.683 +0.05 +0.38    +0.209 HD
DOCKED: ENDBRANCH  36  37
DOCKED: ENDBRANCH  29  36
DOCKED: BRANCH  22  39
DOCKED: ATOM     39  C   UNL d   1      -1.667 -18.316  -5.282 -0.09 +0.05    +0.052 C 
DOCKED: BRANCH  39  40
DOCKED: ATOM     40  C   UNL d   1      -2.945 -17.690  -5.864 -0.18 +0.14    +0.115 C 
DOCKED: BRANCH  40  41
DOCKED: ATOM     41  C   UNL d   1      -3.815 -18.656  -6.642 -0.09 +0.22    +0.139 C 
DOCKED: ATOM     42  O   UNL d   1      -5.029 -18.610  -6.505 -0.07 -1.08    -0.650 OA
DOCKED: BRANCH  41  43
DOCKED: ATOM     43  O   UNL d   1      -3.292 -19.510  -7.549 -0.19 -1.76    -0.776 OA
DOCKED: ATOM     44  H   UNL d   1      -2.560 -20.105  -7.341 +0.02 +0.23    +0.167 HD
DOCKED: ENDBRANCH  41  43
DOCKED: ENDBRANCH  40  41
DOCKED: ENDBRANCH  39  40
DOCKED: ENDBRANCH  22  39
DOCKED: BRANCH  12  45
DOCKED: ATOM     45  C   UNL d   1       3.345 -11.371   1.981 -0.31 +0.00    +0.004 C 
DOCKED: ATOM     46  C   UNL d   1       4.675 -11.361   1.936 -0.21 +0.00    +0.012 C 
DOCKED: ENDBRANCH  12  45
DOCKED: BRANCH  17  47
DOCKED: ATOM     47  C   UNL d   1       3.154 -12.097  -5.798 -0.40 +0.00    +0.004 C 
DOCKED: ATOM     48  C   UNL d   1       3.816 -12.873  -6.660 -0.52 +0.00    +0.012 C 
DOCKED: ENDBRANCH  17  47
DOCKED: TORSDOF 12
DOCKED: TER
DOCKED: ENDMDL
________________________________________________________________________________


	BEGINNING GENETIC ALGORITHM DOCKING 73 of 100
Run: 73 Seed: 817575725 19025653 [ Run 73 of 100 GA/GALS ]
Beginning LAMARCKIAN GENETIC ALGORITHM (LGA), with a maximum of 25000000 energy evaluations.

Final-Value: -12.469


	FINAL GENETIC ALGORITHM DOCKED STATE
	_______________________________________________


Detailed state:  trans -0.294 -15.500 -1.754 quatxyzw 0.850607 0.251018 0.400230 -0.230811 center 8.781 34.984 -0.736 ntor 12 -53.0678 114.2657 81.0232 2.6303 99.4799 127.2539 11.7108 -41.8866 -78.5275 -140.8038 25.4255 -10.2790
State:	 -0.294 -15.500  -1.754   0.874  0.258  0.411 -153.310    -53.07  114.27   81.02    2.63   99.48  127.25   11.71  -41.89  -78.53 -140.80   25.43  -10.28

DOCKED: MODEL       73
DOCKED: USER    Run = 73
DOCKED: USER    DPF = D:/Protein_go_brrr/autodock/final/AncA/heme_Co/dock.dpf
DOCKED: USER  
DOCKED: USER    Estimated Free Energy of Binding    =   -8.02 kcal/mol  [=(1)+(2)+(3)-(4)]
DOCKED: USER    Estimated Inhibition Constant, Ki   =    1.33 uM (micromolar)  [Temperature = 298.15 K]
DOCKED: USER    
DOCKED: USER    (1) Final Intermolecular Energy     =  -11.60 kcal/mol
DOCKED: USER        vdW + Hbond + desolv Energy     =   -7.02 kcal/mol
DOCKED: USER        Electrostatic Energy            =   -4.57 kcal/mol
DOCKED: USER    (2) Final Total Internal Energy     =   -0.87 kcal/mol
DOCKED: USER    (3) Torsional Free Energy           =   +3.58 kcal/mol
DOCKED: USER    (4) Unbound System's Energy  [=(2)] =   -0.87 kcal/mol
DOCKED: USER    
DOCKED: USER    
DOCKED: USER    NEWDPF move heme_Co_opt.pdbqt
DOCKED: USER    NEWDPF about 8.781000 34.984000 -0.736000
DOCKED: USER    NEWDPF tran0 -0.294184 -15.500146 -1.754398
DOCKED: USER    NEWDPF quaternion0 0.850607 0.251018 0.400230 -0.230811
DOCKED: USER    NEWDPF axisangle0 0.874212 0.257984 0.411337 -153.310322
DOCKED: USER    NEWDPF quat0 0.874212 0.257984 0.411337 -153.310322
DOCKED: USER    NEWDPF dihe0 -53.07 114.27 81.02 2.63 99.48 127.25 11.71 -41.89 -78.53 -140.80 25.43 -10.28 
DOCKED: USER  keepresnum = 1 
DOCKED: USER  
DOCKED: REMARK  12 active torsions:
DOCKED: REMARK  status: ('A' for Active; 'I' for Inactive)
DOCKED: REMARK    1  A    between atoms: C_6  and  C_10 
DOCKED: REMARK    2  A    between atoms: C_10  and  C_11 
DOCKED: REMARK    3  A    between atoms: C_11  and  C_12 
DOCKED: REMARK    4  A    between atoms: C_12  and  O_14 
DOCKED: REMARK    5  A    between atoms: C_17  and  C_20 
DOCKED: REMARK    6  A    between atoms: C_24  and  C_27 
DOCKED: REMARK    7  A    between atoms: C_31  and  C_34 
DOCKED: REMARK    8  A    between atoms: C_34  and  C_35 
DOCKED: REMARK    9  A    between atoms: C_35  and  C_36 
DOCKED: REMARK   10  A    between atoms: C_36  and  O_38 
DOCKED: REMARK   11  A    between atoms: FE_43  and  C_44 
DOCKED: REMARK   12  A    between atoms: C_44  and  O_45 
DOCKED: USER                              x       y       z     vdW  Elec       q    Type
DOCKED: USER                           _______ _______ _______ _____ _____    ______ ____
DOCKED: ROOT
DOCKED: ATOM      1  C   UNL d   1      -1.922 -16.904  -2.064 -0.06 +0.08    +0.064 A 
DOCKED: ATOM      2  C   UNL d   1       1.107 -14.808  -5.072 -0.24 +0.04    +0.064 C 
DOCKED: ATOM      3  C   UNL d   1       2.939 -12.230  -1.491 -0.17 +0.02    +0.064 A 
DOCKED: ATOM      4  C   UNL d   1       0.122 -14.634   1.663 -0.11 +0.04    +0.064 A 
DOCKED: ATOM      5  C   UNL d   1      -1.254 -16.494  -3.155 -0.08 +0.07    +0.066 A 
DOCKED: ATOM      6  C   UNL d   1      -1.460 -17.078  -4.421 -0.12 -0.02    -0.021 A 
DOCKED: ATOM      7  C   UNL d   1      -0.562 -16.482  -5.285 -0.16 -0.02    -0.025 A 
DOCKED: ATOM      8  C   UNL d   1       0.141 -15.550  -4.515 -0.14 +0.05    +0.066 A 
DOCKED: ATOM      9  C   UNL d   1      -0.362 -16.769  -6.781 -0.26 +0.03    +0.051 C 
DOCKED: ATOM     10  C   UNL d   1       1.865 -13.806  -4.366 -0.18 +0.03    +0.066 A 
DOCKED: ATOM     11  C   UNL d   1       2.792 -12.900  -4.925 -0.28 -0.01    -0.021 A 
DOCKED: ATOM     12  C   UNL d   1       3.308 -12.157  -3.859 -0.25 +0.00    +0.000 A 
DOCKED: ATOM     13  C   UNL d   1       2.650 -12.656  -2.734 -0.14 +0.02    +0.070 A 
DOCKED: ATOM     14  C   UNL d   1       3.078 -12.708  -6.392 -0.42 +0.02    +0.052 C 
DOCKED: ATOM     15  C   UNL d   1       2.398 -12.670  -0.220 -0.15 +0.02    +0.066 A 
DOCKED: ATOM     16  C   UNL d   1       2.843 -12.292   1.039 -0.22 -0.01    -0.021 A 
DOCKED: ATOM     17  C   UNL d   1       2.036 -12.985   1.952 -0.19 +0.00    +0.000 A 
DOCKED: ATOM     18  C   UNL d   1       1.147 -13.720   1.175 -0.13 +0.03    +0.070 A 
DOCKED: ATOM     19  C   UNL d   1       3.975 -11.327   1.316 -0.22 +0.01    +0.052 C 
DOCKED: ATOM     20  C   UNL d   1      -0.695 -15.425   0.927 -0.10 +0.05    +0.066 A 
DOCKED: ATOM     21  C   UNL d   1      -1.617 -16.290   1.513 -0.08 -0.02    -0.025 A 
DOCKED: ATOM     22  C   UNL d   1      -2.242 -16.937   0.461 -0.07 -0.02    -0.021 A 
DOCKED: ATOM     23  C   UNL d   1      -1.656 -16.439  -0.722 -0.07 +0.07    +0.066 A 
DOCKED: ATOM     24  C   UNL d   1      -1.878 -16.506   3.001 +0.04 +0.05    +0.051 C 
DOCKED: ATOM     25  N   UNL d   1      -0.271 -15.532  -3.193 -0.06 -0.21    -0.248 N 
DOCKED: ATOM     26  N   UNL d   1       1.738 -13.613  -3.049 -0.06 -0.11    -0.248 N 
DOCKED: ATOM     27  N   UNL d   1       1.412 -13.532  -0.113 -0.05 -0.11    -0.248 N 
DOCKED: ATOM     28  N   UNL d   1      -0.718 -15.525  -0.444 -0.04 -0.20    -0.248 N 
DOCKED: ATOM     29 FE   UNL d   1       0.618 -14.474  -1.559 -0.02 +0.00    +0.000 Fe
DOCKED: ENDROOT
DOCKED: BRANCH   6  30
DOCKED: ATOM     30  C   UNL d   1      -2.421 -18.214  -4.753 -0.11 +0.05    +0.052 C 
DOCKED: BRANCH  30  31
DOCKED: ATOM     31  C   UNL d   1      -3.593 -17.700  -5.588 -0.16 +0.16    +0.115 C 
DOCKED: BRANCH  31  32
DOCKED: ATOM     32  C   UNL d   1      -3.416 -17.983  -7.065 -0.08 +0.21    +0.139 C 
DOCKED: ATOM     33  O   UNL d   1      -3.345 -17.050  -7.851 -0.17 -0.87    -0.650 OA
DOCKED: BRANCH  32  34
DOCKED: ATOM     34  O   UNL d   1      -3.287 -19.242  -7.544 -0.30 -1.75    -0.776 OA
DOCKED: ATOM     35  H   UNL d   1      -2.601 -19.862  -7.262 +0.02 +0.24    +0.167 HD
DOCKED: ENDBRANCH  32  34
DOCKED: ENDBRANCH  31  32
DOCKED: ENDBRANCH  30  31
DOCKED: ENDBRANCH   6  30
DOCKED: BRANCH  29  36
DOCKED: ATOM     36  C   UNL d   1       1.996 -16.049  -1.436 -0.01 +0.08    +0.190 C 
DOCKED: BRANCH  36  37
DOCKED: ATOM     37  O   UNL d   1       2.154 -17.414  -1.697 +0.00 -0.17    -0.399 OA
DOCKED: ATOM     38  H   UNL d   1       1.284 -17.702  -2.092 +0.01 +0.10    +0.209 HD
DOCKED: ENDBRANCH  36  37
DOCKED: ENDBRANCH  29  36
DOCKED: BRANCH  22  39
DOCKED: ATOM     39  C   UNL d   1      -3.295 -18.020   0.596 -0.05 +0.05    +0.052 C 
DOCKED: BRANCH  39  40
DOCKED: ATOM     40  C   UNL d   1      -4.705 -17.407   0.607 -0.06 +0.15    +0.115 C 
DOCKED: BRANCH  40  41
DOCKED: ATOM     41  C   UNL d   1      -4.856 -16.171  -0.254 -0.08 +0.25    +0.139 C 
DOCKED: ATOM     42  O   UNL d   1      -5.298 -16.283  -1.389 -0.08 -1.45    -0.650 OA
DOCKED: BRANCH  41  43
DOCKED: ATOM     43  O   UNL d   1      -4.598 -14.934   0.227 -0.42 -1.89    -0.776 OA
DOCKED: ATOM     44  H   UNL d   1      -3.715 -14.544   0.207 +0.02 +0.34    +0.167 HD
DOCKED: ENDBRANCH  41  43
DOCKED: ENDBRANCH  40  41
DOCKED: ENDBRANCH  39  40
DOCKED: ENDBRANCH  22  39
DOCKED: BRANCH  12  45
DOCKED: ATOM     45  C   UNL d   1       4.326 -11.028  -3.777 -0.41 +0.00    +0.004 C 
DOCKED: ATOM     46  C   UNL d   1       5.101 -10.491  -4.716 -0.50 +0.00    +0.012 C 
DOCKED: ENDBRANCH  12  45
DOCKED: BRANCH  17  47
DOCKED: ATOM     47  C   UNL d   1       2.096 -13.019   3.444 -0.22 +0.00    +0.004 C 
DOCKED: ATOM     48  C   UNL d   1       1.629 -12.041   4.224 -0.39 +0.00    +0.012 C 
DOCKED: ENDBRANCH  17  47
DOCKED: TORSDOF 12
DOCKED: TER
DOCKED: ENDMDL
________________________________________________________________________________


	BEGINNING GENETIC ALGORITHM DOCKING 74 of 100
Run: 74 Seed: 2032192550 150805201 [ Run 74 of 100 GA/GALS ]
Beginning LAMARCKIAN GENETIC ALGORITHM (LGA), with a maximum of 25000000 energy evaluations.

Final-Value: -12.865


	FINAL GENETIC ALGORITHM DOCKED STATE
	_______________________________________________


Detailed state:  trans 0.345 -15.668 -2.331 quatxyzw -0.432907 0.034604 0.395996 -0.809062 center 8.781 34.984 -0.736 ntor 12 -151.1819 115.3792 -43.1307 136.7687 115.0929 131.9188 17.4360 47.4510 156.0467 -59.6708 -161.4757 171.3299
State:	  0.345 -15.668  -2.331  -0.737  0.059  0.674 -71.991   -151.18  115.38  -43.13  136.77  115.09  131.92   17.44   47.45  156.05  -59.67 -161.48  171.33

DOCKED: MODEL       74
DOCKED: USER    Run = 74
DOCKED: USER    DPF = D:/Protein_go_brrr/autodock/final/AncA/heme_Co/dock.dpf
DOCKED: USER  
DOCKED: USER    Estimated Free Energy of Binding    =   -7.30 kcal/mol  [=(1)+(2)+(3)-(4)]
DOCKED: USER    Estimated Inhibition Constant, Ki   =    4.48 uM (micromolar)  [Temperature = 298.15 K]
DOCKED: USER    
DOCKED: USER    (1) Final Intermolecular Energy     =  -10.88 kcal/mol
DOCKED: USER        vdW + Hbond + desolv Energy     =   -6.63 kcal/mol
DOCKED: USER        Electrostatic Energy            =   -4.25 kcal/mol
DOCKED: USER    (2) Final Total Internal Energy     =   -1.99 kcal/mol
DOCKED: USER    (3) Torsional Free Energy           =   +3.58 kcal/mol
DOCKED: USER    (4) Unbound System's Energy  [=(2)] =   -1.99 kcal/mol
DOCKED: USER    
DOCKED: USER    
DOCKED: USER    NEWDPF move heme_Co_opt.pdbqt
DOCKED: USER    NEWDPF about 8.781000 34.984000 -0.736000
DOCKED: USER    NEWDPF tran0 0.344710 -15.667973 -2.331342
DOCKED: USER    NEWDPF quaternion0 -0.432907 0.034604 0.395996 -0.809062
DOCKED: USER    NEWDPF axisangle0 -0.736583 0.058878 0.673779 -71.991227
DOCKED: USER    NEWDPF quat0 -0.736583 0.058878 0.673779 -71.991227
DOCKED: USER    NEWDPF dihe0 -151.18 115.38 -43.13 136.77 115.09 131.92 17.44 47.45 156.05 -59.67 -161.48 171.33 
DOCKED: USER  keepresnum = 1 
DOCKED: USER  
DOCKED: REMARK  12 active torsions:
DOCKED: REMARK  status: ('A' for Active; 'I' for Inactive)
DOCKED: REMARK    1  A    between atoms: C_6  and  C_10 
DOCKED: REMARK    2  A    between atoms: C_10  and  C_11 
DOCKED: REMARK    3  A    between atoms: C_11  and  C_12 
DOCKED: REMARK    4  A    between atoms: C_12  and  O_14 
DOCKED: REMARK    5  A    between atoms: C_17  and  C_20 
DOCKED: REMARK    6  A    between atoms: C_24  and  C_27 
DOCKED: REMARK    7  A    between atoms: C_31  and  C_34 
DOCKED: REMARK    8  A    between atoms: C_34  and  C_35 
DOCKED: REMARK    9  A    between atoms: C_35  and  C_36 
DOCKED: REMARK   10  A    between atoms: C_36  and  O_38 
DOCKED: REMARK   11  A    between atoms: FE_43  and  C_44 
DOCKED: REMARK   12  A    between atoms: C_44  and  O_45 
DOCKED: USER                              x       y       z     vdW  Elec       q    Type
DOCKED: USER                           _______ _______ _______ _____ _____    ______ ____
DOCKED: ROOT
DOCKED: ATOM      1  C   UNL d   1      -1.070 -17.313  -2.425 -0.04 +0.05    +0.064 A 
DOCKED: ATOM      2  C   UNL d   1       0.504 -14.654   1.190 -0.12 +0.04    +0.064 C 
DOCKED: ATOM      3  C   UNL d   1       3.576 -12.442  -1.726 -0.14 +0.01    +0.064 A 
DOCKED: ATOM      4  C   UNL d   1       1.717 -14.873  -5.507 -0.23 +0.03    +0.064 A 
DOCKED: ATOM      5  C   UNL d   1      -0.840 -16.775  -1.216 -0.03 +0.05    +0.066 A 
DOCKED: ATOM      6  C   UNL d   1      -1.607 -17.119  -0.086 -0.04 -0.02    -0.021 A 
DOCKED: ATOM      7  C   UNL d   1      -1.162 -16.328   0.954 -0.08 -0.02    -0.025 A 
DOCKED: ATOM      8  C   UNL d   1      -0.131 -15.547   0.420 -0.07 +0.04    +0.066 A 
DOCKED: ATOM      9  C   UNL d   1      -1.676 -16.296   2.402 -0.00 +0.05    +0.051 C 
DOCKED: ATOM     10  C   UNL d   1       1.593 -13.826   0.735 -0.10 +0.03    +0.066 A 
DOCKED: ATOM     11  C   UNL d   1       2.392 -12.973   1.526 -0.16 -0.01    -0.021 A 
DOCKED: ATOM     12  C   UNL d   1       3.282 -12.343   0.651 -0.19 +0.00    +0.000 A 
DOCKED: ATOM     13  C   UNL d   1       2.970 -12.867  -0.603 -0.11 +0.02    +0.070 A 
DOCKED: ATOM     14  C   UNL d   1       2.354 -12.855   3.028 -0.20 +0.02    +0.052 C 
DOCKED: ATOM     15  C   UNL d   1       3.343 -12.834  -3.102 -0.13 +0.02    +0.066 A 
DOCKED: ATOM     16  C   UNL d   1       3.903 -12.251  -4.230 -0.24 -0.00    -0.021 A 
DOCKED: ATOM     17  C   UNL d   1       3.368 -12.947  -5.323 -0.32 +0.00    +0.000 A 
DOCKED: ATOM     18  C   UNL d   1       2.533 -13.914  -4.773 -0.19 +0.03    +0.070 A 
DOCKED: ATOM     19  C   UNL d   1       4.884 -11.100  -4.227 -0.39 +0.01    +0.052 C 
DOCKED: ATOM     20  C   UNL d   1       0.833 -15.764  -4.998 -0.14 +0.04    +0.066 A 
DOCKED: ATOM     21  C   UNL d   1       0.079 -16.610  -5.808 -0.17 -0.02    -0.025 A 
DOCKED: ATOM     22  C   UNL d   1      -0.712 -17.346  -4.946 -0.10 -0.02    -0.021 A 
DOCKED: ATOM     23  C   UNL d   1      -0.408 -16.900  -3.642 -0.06 +0.05    +0.066 A 
DOCKED: ATOM     24  C   UNL d   1       0.097 -16.699  -7.332 -0.27 +0.03    +0.051 C 
DOCKED: ATOM     25  N   UNL d   1       0.094 -15.807  -0.921 -0.01 -0.16    -0.248 N 
DOCKED: ATOM     26  N   UNL d   1       1.986 -13.804  -0.543 -0.03 -0.09    -0.248 N 
DOCKED: ATOM     27  N   UNL d   1       2.519 -13.798  -3.450 -0.05 -0.09    -0.248 N 
DOCKED: ATOM     28  N   UNL d   1       0.525 -15.942  -3.669 -0.03 -0.16    -0.248 N 
DOCKED: ATOM     29 FE   UNL d   1       1.377 -14.745  -2.263 -0.02 +0.00    +0.000 Fe
DOCKED: ENDROOT
DOCKED: BRANCH   6  30
DOCKED: ATOM     30  C   UNL d   1      -2.769 -18.106  -0.042 -0.03 +0.04    +0.052 C 
DOCKED: BRANCH  30  31
DOCKED: ATOM     31  C   UNL d   1      -4.032 -17.476  -0.628 -0.07 +0.14    +0.115 C 
DOCKED: BRANCH  31  32
DOCKED: ATOM     32  C   UNL d   1      -4.029 -15.966  -0.515 -0.10 +0.25    +0.139 C 
DOCKED: ATOM     33  O   UNL d   1      -4.827 -15.418   0.230 -0.52 -1.49    -0.650 OA
DOCKED: BRANCH  32  34
DOCKED: ATOM     34  O   UNL d   1      -3.135 -15.199  -1.181 +0.03 -1.53    -0.776 OA
DOCKED: ATOM     35  H   UNL d   1      -2.865 -14.313  -0.902 +0.03 +0.29    +0.167 HD
DOCKED: ENDBRANCH  32  34
DOCKED: ENDBRANCH  31  32
DOCKED: ENDBRANCH  30  31
DOCKED: ENDBRANCH   6  30
DOCKED: BRANCH  29  36
DOCKED: ATOM     36  C   UNL d   1      -0.177 -13.354  -2.471 -0.14 +0.13    +0.190 C 
DOCKED: BRANCH  36  37
DOCKED: ATOM     37  O   UNL d   1      -1.561 -13.202  -2.340 -0.15 -0.46    -0.399 OA
DOCKED: ATOM     38  H   UNL d   1      -1.885 -14.084  -2.004 +0.05 +0.31    +0.209 HD
DOCKED: ENDBRANCH  36  37
DOCKED: ENDBRANCH  29  36
DOCKED: BRANCH  22  39
DOCKED: ATOM     39  C   UNL d   1      -1.749 -18.372  -5.362 -0.10 +0.05    +0.052 C 
DOCKED: BRANCH  39  40
DOCKED: ATOM     40  C   UNL d   1      -3.106 -17.697  -5.623 -0.17 +0.15    +0.115 C 
DOCKED: BRANCH  40  41
DOCKED: ATOM     41  C   UNL d   1      -3.572 -17.767  -7.062 -0.16 +0.21    +0.139 C 
DOCKED: ATOM     42  O   UNL d   1      -4.588 -17.172  -7.392 +0.08 -1.05    -0.650 OA
DOCKED: BRANCH  41  43
DOCKED: ATOM     43  O   UNL d   1      -2.848 -18.398  -8.013 -0.29 -1.41    -0.776 OA
DOCKED: ATOM     44  H   UNL d   1      -1.883 -18.378  -8.030 +0.06 +0.18    +0.167 HD
DOCKED: ENDBRANCH  41  43
DOCKED: ENDBRANCH  40  41
DOCKED: ENDBRANCH  39  40
DOCKED: ENDBRANCH  22  39
DOCKED: BRANCH  12  45
DOCKED: ATOM     45  C   UNL d   1       4.398 -11.328   0.858 -0.23 +0.00    +0.004 C 
DOCKED: ATOM     46  C   UNL d   1       5.668 -11.345   0.464 -0.29 +0.00    +0.012 C 
DOCKED: ENDBRANCH  12  45
DOCKED: BRANCH  17  47
DOCKED: ATOM     47  C   UNL d   1       3.560 -12.718  -6.787 -0.53 +0.00    +0.004 C 
DOCKED: ATOM     48  C   UNL d   1       4.487 -13.345  -7.515 -0.44 +0.00    +0.012 C 
DOCKED: ENDBRANCH  17  47
DOCKED: TORSDOF 12
DOCKED: TER
DOCKED: ENDMDL
________________________________________________________________________________


	BEGINNING GENETIC ALGORITHM DOCKING 75 of 100
Run: 75 Seed: 1431370160 768501664 [ Run 75 of 100 GA/GALS ]
Beginning LAMARCKIAN GENETIC ALGORITHM (LGA), with a maximum of 25000000 energy evaluations.

Final-Value: -10.366


	FINAL GENETIC ALGORITHM DOCKED STATE
	_______________________________________________


Detailed state:  trans -11.464 -16.764 -8.169 quatxyzw 0.339528 -0.029227 -0.910055 0.235938 center 8.781 34.984 -0.736 ntor 12 55.5180 79.4740 -163.5113 96.3945 -84.9194 94.5580 -61.8030 122.1259 59.5023 154.1679 -11.7090 160.3089
State:	-11.464 -16.764  -8.169   0.349 -0.030 -0.936 152.706     55.52   79.47 -163.51   96.39  -84.92   94.56  -61.80  122.13   59.50  154.17  -11.71  160.31

DOCKED: MODEL       75
DOCKED: USER    Run = 75
DOCKED: USER    DPF = D:/Protein_go_brrr/autodock/final/AncA/heme_Co/dock.dpf
DOCKED: USER  
DOCKED: USER    Estimated Free Energy of Binding    =   -4.23 kcal/mol  [=(1)+(2)+(3)-(4)]
DOCKED: USER    Estimated Inhibition Constant, Ki   =  799.79 uM (micromolar)  [Temperature = 298.15 K]
DOCKED: USER    
DOCKED: USER    (1) Final Intermolecular Energy     =   -7.80 kcal/mol
DOCKED: USER        vdW + Hbond + desolv Energy     =   -6.10 kcal/mol
DOCKED: USER        Electrostatic Energy            =   -1.71 kcal/mol
DOCKED: USER    (2) Final Total Internal Energy     =   -2.56 kcal/mol
DOCKED: USER    (3) Torsional Free Energy           =   +3.58 kcal/mol
DOCKED: USER    (4) Unbound System's Energy  [=(2)] =   -2.56 kcal/mol
DOCKED: USER    
DOCKED: USER    
DOCKED: USER    NEWDPF move heme_Co_opt.pdbqt
DOCKED: USER    NEWDPF about 8.781000 34.984000 -0.736000
DOCKED: USER    NEWDPF tran0 -11.463633 -16.763955 -8.168544
DOCKED: USER    NEWDPF quaternion0 0.339528 -0.029227 -0.910055 0.235938
DOCKED: USER    NEWDPF axisangle0 0.349392 -0.030076 -0.936494 152.706123
DOCKED: USER    NEWDPF quat0 0.349392 -0.030076 -0.936494 152.706123
DOCKED: USER    NEWDPF dihe0 55.52 79.47 -163.51 96.39 -84.92 94.56 -61.80 122.13 59.50 154.17 -11.71 160.31 
DOCKED: USER  keepresnum = 1 
DOCKED: USER  
DOCKED: REMARK  12 active torsions:
DOCKED: REMARK  status: ('A' for Active; 'I' for Inactive)
DOCKED: REMARK    1  A    between atoms: C_6  and  C_10 
DOCKED: REMARK    2  A    between atoms: C_10  and  C_11 
DOCKED: REMARK    3  A    between atoms: C_11  and  C_12 
DOCKED: REMARK    4  A    between atoms: C_12  and  O_14 
DOCKED: REMARK    5  A    between atoms: C_17  and  C_20 
DOCKED: REMARK    6  A    between atoms: C_24  and  C_27 
DOCKED: REMARK    7  A    between atoms: C_31  and  C_34 
DOCKED: REMARK    8  A    between atoms: C_34  and  C_35 
DOCKED: REMARK    9  A    between atoms: C_35  and  C_36 
DOCKED: REMARK   10  A    between atoms: C_36  and  O_38 
DOCKED: REMARK   11  A    between atoms: FE_43  and  C_44 
DOCKED: REMARK   12  A    between atoms: C_44  and  O_45 
DOCKED: USER                              x       y       z     vdW  Elec       q    Type
DOCKED: USER                           _______ _______ _______ _____ _____    ______ ____
DOCKED: ROOT
DOCKED: ATOM      1  C   UNL d   1      -9.901 -18.180  -7.652 -0.17 +0.04    +0.064 A 
DOCKED: ATOM      2  C   UNL d   1     -11.791 -14.508  -5.295 -0.11 +0.02    +0.064 C 
DOCKED: ATOM      3  C   UNL d   1     -14.437 -13.374  -9.109 -0.22 +0.01    +0.064 A 
DOCKED: ATOM      4  C   UNL d   1     -12.809 -17.344 -11.402 -0.16 +0.02    +0.064 A 
DOCKED: ATOM      5  C   UNL d   1     -10.196 -17.239  -6.741 -0.20 +0.03    +0.066 A 
DOCKED: ATOM      6  C   UNL d   1      -9.663 -17.268  -5.437 -0.14 -0.01    -0.021 A 
DOCKED: ATOM      7  C   UNL d   1     -10.233 -16.214  -4.750 -0.11 -0.01    -0.025 A 
DOCKED: ATOM      8  C   UNL d   1     -11.075 -15.577  -5.668 -0.15 +0.02    +0.066 A 
DOCKED: ATOM      9  C   UNL d   1     -10.004 -15.808  -3.286 -0.11 +0.03    +0.051 C 
DOCKED: ATOM     10  C   UNL d   1     -12.663 -13.773  -6.177 -0.23 +0.01    +0.066 A 
DOCKED: ATOM     11  C   UNL d   1     -13.332 -12.564  -5.887 -0.24 -0.00    -0.021 A 
DOCKED: ATOM     12  C   UNL d   1     -14.093 -12.254  -7.017 -0.23 +0.00    +0.000 A 
DOCKED: ATOM     13  C   UNL d   1     -13.823 -13.287  -7.915 -0.22 +0.00    +0.070 A 
DOCKED: ATOM     14  C   UNL d   1     -13.165 -11.729  -4.643 -0.33 +0.00    +0.052 C 
DOCKED: ATOM     15  C   UNL d   1     -14.318 -14.395 -10.132 -0.20 +0.02    +0.066 A 
DOCKED: ATOM     16  C   UNL d   1     -15.089 -14.503 -11.280 -0.16 -0.01    -0.021 A 
DOCKED: ATOM     17  C   UNL d   1     -14.625 -15.647 -11.944 -0.16 +0.00    +0.000 A 
DOCKED: ATOM     18  C   UNL d   1     -13.592 -16.140 -11.153 -0.20 +0.03    +0.070 A 
DOCKED: ATOM     19  C   UNL d   1     -16.194 -13.553 -11.687 -0.15 +0.03    +0.052 C 
DOCKED: ATOM     20  C   UNL d   1     -11.860 -17.889 -10.605 -0.17 +0.02    +0.066 A 
DOCKED: ATOM     21  C   UNL d   1     -11.201 -19.072 -10.935 -0.13 -0.01    -0.025 A 
DOCKED: ATOM     22  C   UNL d   1     -10.336 -19.322  -9.886 -0.16 -0.01    -0.021 A 
DOCKED: ATOM     23  C   UNL d   1     -10.520 -18.278  -8.955 -0.18 +0.03    +0.066 A 
DOCKED: ATOM     24  C   UNL d   1     -11.400 -19.932 -12.180 -0.06 +0.02    +0.051 C 
DOCKED: ATOM     25  N   UNL d   1     -11.067 -16.187  -6.911 -0.17 -0.08    -0.248 N 
DOCKED: ATOM     26  N   UNL d   1     -12.916 -14.174  -7.427 -0.14 -0.01    -0.248 N 
DOCKED: ATOM     27  N   UNL d   1     -13.457 -15.386 -10.067 -0.00 -0.03    -0.248 N 
DOCKED: ATOM     28  N   UNL d   1     -11.443 -17.410  -9.385 -0.12 -0.08    -0.248 N 
DOCKED: ATOM     29 FE   UNL d   1     -12.332 -15.766  -8.585 -0.05 -0.00    +0.000 Fe
DOCKED: ENDROOT
DOCKED: BRANCH   6  30
DOCKED: ATOM     30  C   UNL d   1      -8.715 -18.316  -4.865 -0.10 +0.03    +0.052 C 
DOCKED: BRANCH  30  31
DOCKED: ATOM     31  C   UNL d   1      -7.315 -18.154  -5.457 -0.17 +0.11    +0.115 C 
DOCKED: BRANCH  31  32
DOCKED: ATOM     32  C   UNL d   1      -6.832 -19.410  -6.149 -0.13 +0.16    +0.139 C 
DOCKED: ATOM     33  O   UNL d   1      -5.828 -19.364  -6.845 -0.08 -1.23    -0.650 OA
DOCKED: BRANCH  32  34
DOCKED: ATOM     34  O   UNL d   1      -7.450 -20.603  -5.986 -0.01 -0.66    -0.776 OA
DOCKED: ATOM     35  H   UNL d   1      -8.400 -20.743  -6.099 +0.02 +0.11    +0.167 HD
DOCKED: ENDBRANCH  32  34
DOCKED: ENDBRANCH  31  32
DOCKED: ENDBRANCH  30  31
DOCKED: ENDBRANCH   6  30
DOCKED: BRANCH  29  36
DOCKED: ATOM     36  C   UNL d   1     -13.774 -16.969  -7.655 -0.06 +0.04    +0.190 C 
DOCKED: BRANCH  36  37
DOCKED: ATOM     37  O   UNL d   1     -14.012 -18.267  -7.190 -0.00 -0.09    -0.399 OA
DOCKED: ATOM     38  H   UNL d   1     -13.517 -18.860  -7.822 +0.02 +0.05    +0.209 HD
DOCKED: ENDBRANCH  36  37
DOCKED: ENDBRANCH  29  36
DOCKED: BRANCH  22  39
DOCKED: ATOM     39  C   UNL d   1      -9.432 -20.534  -9.761 -0.13 +0.03    +0.052 C 
DOCKED: BRANCH  39  40
DOCKED: ATOM     40  C   UNL d   1     -10.073 -21.598  -8.854 -0.04 +0.06    +0.115 C 
DOCKED: BRANCH  40  41
DOCKED: ATOM     41  C   UNL d   1     -10.948 -21.035  -7.754 -0.02 +0.05    +0.139 C 
DOCKED: ATOM     42  O   UNL d   1     -10.497 -20.936  -6.622 +0.02 -0.26    -0.650 OA
DOCKED: BRANCH  41  43
DOCKED: ATOM     43  O   UNL d   1     -12.187 -20.558  -8.007 +0.02 -0.24    -0.776 OA
DOCKED: ATOM     44  H   UNL d   1     -12.627 -19.923  -7.428 +0.01 +0.05    +0.167 HD
DOCKED: ENDBRANCH  41  43
DOCKED: ENDBRANCH  40  41
DOCKED: ENDBRANCH  39  40
DOCKED: ENDBRANCH  22  39
DOCKED: BRANCH  12  45
DOCKED: ATOM     45  C   UNL d   1     -15.024 -11.098  -7.357 -0.25 +0.00    +0.004 C 
DOCKED: ATOM     46  C   UNL d   1     -14.767  -9.911  -7.900 -0.36 -0.00    +0.012 C 
DOCKED: ENDBRANCH  12  45
DOCKED: BRANCH  17  47
DOCKED: ATOM     47  C   UNL d   1     -15.121 -16.290 -13.197 -0.06 +0.00    +0.004 C 
DOCKED: ATOM     48  C   UNL d   1     -15.813 -17.432 -13.216 -0.08 +0.01    +0.012 C 
DOCKED: ENDBRANCH  17  47
DOCKED: TORSDOF 12
DOCKED: TER
DOCKED: ENDMDL
________________________________________________________________________________


	BEGINNING GENETIC ALGORITHM DOCKING 76 of 100
Run: 76 Seed: 497818885 1679964621 [ Run 76 of 100 GA/GALS ]
Beginning LAMARCKIAN GENETIC ALGORITHM (LGA), with a maximum of 25000000 energy evaluations.

Final-Value: -12.395


	FINAL GENETIC ALGORITHM DOCKED STATE
	_______________________________________________


Detailed state:  trans -0.046 -15.553 -2.407 quatxyzw 0.837567 0.246860 0.416766 -0.252682 center 8.781 34.984 -0.736 ntor 12 -31.1950 109.4779 -51.0424 123.0775 96.0740 129.4716 -25.8911 -22.7208 -83.4884 123.2054 11.5454 16.7366
State:	 -0.046 -15.553  -2.407   0.866  0.255  0.431 -150.727    -31.20  109.48  -51.04  123.08   96.07  129.47  -25.89  -22.72  -83.49  123.21   11.55   16.74

DOCKED: MODEL       76
DOCKED: USER    Run = 76
DOCKED: USER    DPF = D:/Protein_go_brrr/autodock/final/AncA/heme_Co/dock.dpf
DOCKED: USER  
DOCKED: USER    Estimated Free Energy of Binding    =   -7.87 kcal/mol  [=(1)+(2)+(3)-(4)]
DOCKED: USER    Estimated Inhibition Constant, Ki   =    1.70 uM (micromolar)  [Temperature = 298.15 K]
DOCKED: USER    
DOCKED: USER    (1) Final Intermolecular Energy     =  -11.45 kcal/mol
DOCKED: USER        vdW + Hbond + desolv Energy     =   -7.26 kcal/mol
DOCKED: USER        Electrostatic Energy            =   -4.19 kcal/mol
DOCKED: USER    (2) Final Total Internal Energy     =   -0.94 kcal/mol
DOCKED: USER    (3) Torsional Free Energy           =   +3.58 kcal/mol
DOCKED: USER    (4) Unbound System's Energy  [=(2)] =   -0.94 kcal/mol
DOCKED: USER    
DOCKED: USER    
DOCKED: USER    NEWDPF move heme_Co_opt.pdbqt
DOCKED: USER    NEWDPF about 8.781000 34.984000 -0.736000
DOCKED: USER    NEWDPF tran0 -0.046144 -15.553137 -2.407029
DOCKED: USER    NEWDPF quaternion0 0.837567 0.246860 0.416766 -0.252682
DOCKED: USER    NEWDPF axisangle0 0.865658 0.255140 0.430744 -150.727451
DOCKED: USER    NEWDPF quat0 0.865658 0.255140 0.430744 -150.727451
DOCKED: USER    NEWDPF dihe0 -31.20 109.48 -51.04 123.08 96.07 129.47 -25.89 -22.72 -83.49 123.21 11.55 16.74 
DOCKED: USER  keepresnum = 1 
DOCKED: USER  
DOCKED: REMARK  12 active torsions:
DOCKED: REMARK  status: ('A' for Active; 'I' for Inactive)
DOCKED: REMARK    1  A    between atoms: C_6  and  C_10 
DOCKED: REMARK    2  A    between atoms: C_10  and  C_11 
DOCKED: REMARK    3  A    between atoms: C_11  and  C_12 
DOCKED: REMARK    4  A    between atoms: C_12  and  O_14 
DOCKED: REMARK    5  A    between atoms: C_17  and  C_20 
DOCKED: REMARK    6  A    between atoms: C_24  and  C_27 
DOCKED: REMARK    7  A    between atoms: C_31  and  C_34 
DOCKED: REMARK    8  A    between atoms: C_34  and  C_35 
DOCKED: REMARK    9  A    between atoms: C_35  and  C_36 
DOCKED: REMARK   10  A    between atoms: C_36  and  O_38 
DOCKED: REMARK   11  A    between atoms: FE_43  and  C_44 
DOCKED: REMARK   12  A    between atoms: C_44  and  O_45 
DOCKED: USER                              x       y       z     vdW  Elec       q    Type
DOCKED: USER                           _______ _______ _______ _____ _____    ______ ____
DOCKED: ROOT
DOCKED: ATOM      1  C   UNL d   1      -1.671 -16.950  -2.756 -0.07 +0.08    +0.064 A 
DOCKED: ATOM      2  C   UNL d   1       1.531 -14.981  -5.668 -0.27 +0.03    +0.064 C 
DOCKED: ATOM      3  C   UNL d   1       3.205 -12.308  -2.080 -0.16 +0.02    +0.064 A 
DOCKED: ATOM      4  C   UNL d   1       0.204 -14.583   0.999 -0.11 +0.04    +0.064 A 
DOCKED: ATOM      5  C   UNL d   1      -0.944 -16.582  -3.824 -0.10 +0.06    +0.066 A 
DOCKED: ATOM      6  C   UNL d   1      -1.091 -17.204  -5.079 -0.13 -0.02    -0.021 A 
DOCKED: ATOM      7  C   UNL d   1      -0.144 -16.645  -5.914 -0.18 -0.02    -0.025 A 
DOCKED: ATOM      8  C   UNL d   1       0.529 -15.695  -5.138 -0.17 +0.04    +0.066 A 
DOCKED: ATOM      9  C   UNL d   1       0.130 -16.981  -7.388 -0.26 +0.03    +0.051 C 
DOCKED: ATOM     10  C   UNL d   1       2.263 -13.964  -4.955 -0.22 +0.03    +0.066 A 
DOCKED: ATOM     11  C   UNL d   1       3.227 -13.085  -5.494 -0.32 -0.01    -0.021 A 
DOCKED: ATOM     12  C   UNL d   1       3.696 -12.314  -4.427 -0.26 +0.00    +0.000 A 
DOCKED: ATOM     13  C   UNL d   1       2.976 -12.770  -3.322 -0.15 +0.02    +0.070 A 
DOCKED: ATOM     14  C   UNL d   1       3.590 -12.942  -6.950 -0.38 +0.02    +0.052 C 
DOCKED: ATOM     15  C   UNL d   1       2.595 -12.701  -0.825 -0.13 +0.02    +0.066 A 
DOCKED: ATOM     16  C   UNL d   1       2.980 -12.288   0.443 -0.21 -0.01    -0.021 A 
DOCKED: ATOM     17  C   UNL d   1       2.119 -12.943   1.334 -0.18 +0.00    +0.000 A 
DOCKED: ATOM     18  C   UNL d   1       1.263 -13.695   0.536 -0.11 +0.03    +0.070 A 
DOCKED: ATOM     19  C   UNL d   1       4.106 -11.325   0.747 -0.23 +0.01    +0.052 C 
DOCKED: ATOM     20  C   UNL d   1      -0.584 -15.389   0.247 -0.09 +0.05    +0.066 A 
DOCKED: ATOM     21  C   UNL d   1      -1.544 -16.226   0.810 -0.09 -0.02    -0.025 A 
DOCKED: ATOM     22  C   UNL d   1      -2.121 -16.900  -0.251 -0.07 -0.02    -0.021 A 
DOCKED: ATOM     23  C   UNL d   1      -1.470 -16.445  -1.417 -0.06 +0.07    +0.066 A 
DOCKED: ATOM     24  C   UNL d   1      -1.882 -16.392   2.290 +0.01 +0.05    +0.051 C 
DOCKED: ATOM     25  N   UNL d   1       0.051 -15.631  -3.841 -0.06 -0.19    -0.248 N 
DOCKED: ATOM     26  N   UNL d   1       2.071 -13.728  -3.653 -0.07 -0.10    -0.248 N 
DOCKED: ATOM     27  N   UNL d   1       1.595 -13.550  -0.742 -0.04 -0.10    -0.248 N 
DOCKED: ATOM     28  N   UNL d   1      -0.537 -15.532  -1.121 -0.03 -0.20    -0.248 N 
DOCKED: ATOM     29 FE   UNL d   1       0.866 -14.530  -2.197 -0.02 +0.00    +0.000 Fe
DOCKED: ENDROOT
DOCKED: BRANCH   6  30
DOCKED: ATOM     30  C   UNL d   1      -2.047 -18.341  -5.425 -0.11 +0.05    +0.052 C 
DOCKED: BRANCH  30  31
DOCKED: ATOM     31  C   UNL d   1      -3.335 -17.792  -6.037 -0.20 +0.15    +0.115 C 
DOCKED: BRANCH  31  32
DOCKED: ATOM     32  C   UNL d   1      -3.296 -17.780  -7.550 -0.16 +0.22    +0.139 C 
DOCKED: ATOM     33  O   UNL d   1      -4.003 -16.994  -8.163 -0.09 -0.99    -0.650 OA
DOCKED: BRANCH  32  34
DOCKED: ATOM     34  O   UNL d   1      -2.462 -18.581  -8.253 -0.44 -1.23    -0.776 OA
DOCKED: ATOM     35  H   UNL d   1      -1.570 -18.823  -7.966 +0.05 +0.17    +0.167 HD
DOCKED: ENDBRANCH  32  34
DOCKED: ENDBRANCH  31  32
DOCKED: ENDBRANCH  30  31
DOCKED: ENDBRANCH   6  30
DOCKED: BRANCH  29  36
DOCKED: ATOM     36  C   UNL d   1       2.218 -16.113  -1.954 -0.01 +0.08    +0.190 C 
DOCKED: BRANCH  36  37
DOCKED: ATOM     37  O   UNL d   1       2.387 -17.481  -2.193 +0.00 -0.17    -0.399 OA
DOCKED: ATOM     38  H   UNL d   1       1.519 -17.782  -2.582 +0.01 +0.10    +0.209 HD
DOCKED: ENDBRANCH  36  37
DOCKED: ENDBRANCH  29  36
DOCKED: BRANCH  22  39
DOCKED: ATOM     39  C   UNL d   1      -3.192 -17.968  -0.137 -0.04 +0.05    +0.052 C 
DOCKED: BRANCH  39  40
DOCKED: ATOM     40  C   UNL d   1      -4.478 -17.525  -0.853 -0.06 +0.15    +0.115 C 
DOCKED: BRANCH  40  41
DOCKED: ATOM     41  C   UNL d   1      -5.121 -16.283  -0.273 -0.10 +0.24    +0.139 C 
DOCKED: ATOM     42  O   UNL d   1      -5.185 -15.269  -0.955 -0.19 -1.58    -0.650 OA
DOCKED: BRANCH  41  43
DOCKED: ATOM     43  O   UNL d   1      -5.703 -16.288   0.946 -0.26 -1.59    -0.776 OA
DOCKED: ATOM     44  H   UNL d   1      -6.292 -16.996   1.238 +0.01 +0.23    +0.167 HD
DOCKED: ENDBRANCH  41  43
DOCKED: ENDBRANCH  40  41
DOCKED: ENDBRANCH  39  40
DOCKED: ENDBRANCH  22  39
DOCKED: BRANCH  12  45
DOCKED: ATOM     45  C   UNL d   1       4.722 -11.192  -4.327 -0.42 +0.00    +0.004 C 
DOCKED: ATOM     46  C   UNL d   1       4.573  -9.908  -4.015 -0.50 +0.00    +0.012 C 
DOCKED: ENDBRANCH  12  45
DOCKED: BRANCH  17  47
DOCKED: ATOM     47  C   UNL d   1       2.102 -12.931   2.827 -0.23 +0.00    +0.004 C 
DOCKED: ATOM     48  C   UNL d   1       1.667 -11.897   3.552 -0.37 +0.00    +0.012 C 
DOCKED: ENDBRANCH  17  47
DOCKED: TORSDOF 12
DOCKED: TER
DOCKED: ENDMDL
________________________________________________________________________________


	BEGINNING GENETIC ALGORITHM DOCKING 77 of 100
Run: 77 Seed: 1663838759 1426385019 [ Run 77 of 100 GA/GALS ]
Beginning LAMARCKIAN GENETIC ALGORITHM (LGA), with a maximum of 25000000 energy evaluations.

Final-Value: -11.654


	FINAL GENETIC ALGORITHM DOCKED STATE
	_______________________________________________


Detailed state:  trans -10.545 -14.291 2.186 quatxyzw 0.183151 0.362908 -0.848364 -0.339165 center 8.781 34.984 -0.736 ntor 12 -116.4678 97.0756 -22.9107 118.4178 141.7006 111.1384 44.4244 -19.8255 179.5440 -174.1510 -174.9540 175.7224
State:	-10.545 -14.291   2.186   0.195  0.386 -0.902 -140.348   -116.47   97.08  -22.91  118.42  141.70  111.14   44.42  -19.83  179.54 -174.15 -174.95  175.72

DOCKED: MODEL       77
DOCKED: USER    Run = 77
DOCKED: USER    DPF = D:/Protein_go_brrr/autodock/final/AncA/heme_Co/dock.dpf
DOCKED: USER  
DOCKED: USER    Estimated Free Energy of Binding    =   -5.16 kcal/mol  [=(1)+(2)+(3)-(4)]
DOCKED: USER    Estimated Inhibition Constant, Ki   =  166.47 uM (micromolar)  [Temperature = 298.15 K]
DOCKED: USER    
DOCKED: USER    (1) Final Intermolecular Energy     =   -8.73 kcal/mol
DOCKED: USER        vdW + Hbond + desolv Energy     =   -5.51 kcal/mol
DOCKED: USER        Electrostatic Energy            =   -3.23 kcal/mol
DOCKED: USER    (2) Final Total Internal Energy     =   -2.92 kcal/mol
DOCKED: USER    (3) Torsional Free Energy           =   +3.58 kcal/mol
DOCKED: USER    (4) Unbound System's Energy  [=(2)] =   -2.92 kcal/mol
DOCKED: USER    
DOCKED: USER    
DOCKED: USER    NEWDPF move heme_Co_opt.pdbqt
DOCKED: USER    NEWDPF about 8.781000 34.984000 -0.736000
DOCKED: USER    NEWDPF tran0 -10.545425 -14.291078 2.185763
DOCKED: USER    NEWDPF quaternion0 0.183151 0.362908 -0.848364 -0.339165
DOCKED: USER    NEWDPF axisangle0 0.194691 0.385773 -0.901817 -140.348039
DOCKED: USER    NEWDPF quat0 0.194691 0.385773 -0.901817 -140.348039
DOCKED: USER    NEWDPF dihe0 -116.47 97.08 -22.91 118.42 141.70 111.14 44.42 -19.83 179.54 -174.15 -174.95 175.72 
DOCKED: USER  keepresnum = 1 
DOCKED: USER  
DOCKED: REMARK  12 active torsions:
DOCKED: REMARK  status: ('A' for Active; 'I' for Inactive)
DOCKED: REMARK    1  A    between atoms: C_6  and  C_10 
DOCKED: REMARK    2  A    between atoms: C_10  and  C_11 
DOCKED: REMARK    3  A    between atoms: C_11  and  C_12 
DOCKED: REMARK    4  A    between atoms: C_12  and  O_14 
DOCKED: REMARK    5  A    between atoms: C_17  and  C_20 
DOCKED: REMARK    6  A    between atoms: C_24  and  C_27 
DOCKED: REMARK    7  A    between atoms: C_31  and  C_34 
DOCKED: REMARK    8  A    between atoms: C_34  and  C_35 
DOCKED: REMARK    9  A    between atoms: C_35  and  C_36 
DOCKED: REMARK   10  A    between atoms: C_36  and  O_38 
DOCKED: REMARK   11  A    between atoms: FE_43  and  C_44 
DOCKED: REMARK   12  A    between atoms: C_44  and  O_45 
DOCKED: USER                              x       y       z     vdW  Elec       q    Type
DOCKED: USER                           _______ _______ _______ _____ _____    ______ ____
DOCKED: ROOT
DOCKED: ATOM      1  C   UNL d   1      -8.777 -13.059   2.449 -0.27 +0.06    +0.064 A 
DOCKED: ATOM      2  C   UNL d   1     -11.787 -15.032   5.556 -0.07 +0.03    +0.064 C 
DOCKED: ATOM      3  C   UNL d   1     -14.542 -16.569   1.967 -0.13 +0.01    +0.064 A 
DOCKED: ATOM      4  C   UNL d   1     -11.283 -14.897  -1.233 -0.12 +0.02    +0.064 A 
DOCKED: ATOM      5  C   UNL d   1      -9.416 -13.454   3.562 -0.24 +0.04    +0.066 A 
DOCKED: ATOM      6  C   UNL d   1      -8.876 -13.248   4.847 -0.35 -0.01    -0.021 A 
DOCKED: ATOM      7  C   UNL d   1      -9.743 -13.843   5.743 -0.29 -0.01    -0.025 A 
DOCKED: ATOM      8  C   UNL d   1     -10.782 -14.371   4.969 -0.23 +0.03    +0.066 A 
DOCKED: ATOM      9  C   UNL d   1      -9.611 -13.920   7.272 -0.28 +0.02    +0.051 C 
DOCKED: ATOM     10  C   UNL d   1     -12.912 -15.587   4.845 -0.16 +0.02    +0.066 A 
DOCKED: ATOM     11  C   UNL d   1     -14.067 -16.168   5.413 -0.13 -0.00    -0.021 A 
DOCKED: ATOM     12  C   UNL d   1     -14.855 -16.604   4.344 -0.13 +0.00    +0.000 A 
DOCKED: ATOM     13  C   UNL d   1     -14.131 -16.247   3.206 -0.15 +0.01    +0.070 A 
DOCKED: ATOM     14  C   UNL d   1     -14.417 -16.206   6.878 -0.11 +0.01    +0.052 C 
DOCKED: ATOM     15  C   UNL d   1     -13.897 -16.327   0.692 -0.12 +0.01    +0.066 A 
DOCKED: ATOM     16  C   UNL d   1     -14.305 -16.815  -0.542 -0.10 -0.00    -0.021 A 
DOCKED: ATOM     17  C   UNL d   1     -13.366 -16.337  -1.468 -0.11 +0.00    +0.000 A 
DOCKED: ATOM     18  C   UNL d   1     -12.467 -15.579  -0.726 -0.12 +0.02    +0.070 A 
DOCKED: ATOM     19  C   UNL d   1     -15.520 -17.682  -0.785 -0.05 +0.01    +0.052 C 
DOCKED: ATOM     20  C   UNL d   1     -10.348 -14.227  -0.519 -0.13 +0.03    +0.066 A 
DOCKED: ATOM     21  C   UNL d   1      -9.233 -13.643  -1.117 -0.17 -0.02    -0.025 A 
DOCKED: ATOM     22  C   UNL d   1      -8.507 -13.081  -0.083 -0.22 -0.02    -0.021 A 
DOCKED: ATOM     23  C   UNL d   1      -9.215 -13.362   1.105 -0.22 +0.05    +0.066 A 
DOCKED: ATOM     24  C   UNL d   1      -8.866 -13.639  -2.598 -0.14 +0.04    +0.051 C 
DOCKED: ATOM     25  N   UNL d   1     -10.608 -14.140   3.615 -0.15 -0.12    -0.248 N 
DOCKED: ATOM     26  N   UNL d   1     -12.984 -15.582   3.509 -0.13 -0.06    -0.248 N 
DOCKED: ATOM     27  N   UNL d   1     -12.797 -15.620   0.561 -0.01 -0.06    -0.248 N 
DOCKED: ATOM     28  N   UNL d   1     -10.328 -14.057   0.846 -0.09 -0.14    -0.248 N 
DOCKED: ATOM     29 FE   UNL d   1     -11.766 -14.922   1.995 -0.05 +0.00    +0.000 Fe
DOCKED: ENDROOT
DOCKED: BRANCH   6  30
DOCKED: ATOM     30  C   UNL d   1      -7.545 -12.581   5.178 -0.46 +0.04    +0.052 C 
DOCKED: BRANCH  30  31
DOCKED: ATOM     31  C   UNL d   1      -6.425 -13.618   5.238 +0.07 +0.17    +0.115 C 
DOCKED: BRANCH  31  32
DOCKED: ATOM     32  C   UNL d   1      -6.929 -15.027   5.012 +0.10 +0.20    +0.139 C 
DOCKED: ATOM     33  O   UNL d   1      -7.371 -15.665   5.956 +0.03 -0.49    -0.650 OA
DOCKED: BRANCH  32  34
DOCKED: ATOM     34  O   UNL d   1      -6.953 -15.593   3.783 +0.37 -1.62    -0.776 OA
DOCKED: ATOM     35  H   UNL d   1      -7.755 -15.917   3.349 +0.03 +0.21    +0.167 HD
DOCKED: ENDBRANCH  32  34
DOCKED: ENDBRANCH  31  32
DOCKED: ENDBRANCH  30  31
DOCKED: ENDBRANCH   6  30
DOCKED: BRANCH  29  36
DOCKED: ATOM     36  C   UNL d   1     -10.615 -16.666   2.163 -0.03 +0.08    +0.190 C 
DOCKED: BRANCH  36  37
DOCKED: ATOM     37  O   UNL d   1      -9.304 -17.124   2.334 +0.01 -0.22    -0.399 OA
DOCKED: ATOM     38  H   UNL d   1      -8.728 -16.336   2.126 +0.03 +0.16    +0.209 HD
DOCKED: ENDBRANCH  36  37
DOCKED: ENDBRANCH  29  36
DOCKED: BRANCH  22  39
DOCKED: ATOM     39  C   UNL d   1      -7.174 -12.371  -0.228 -0.04 +0.05    +0.052 C 
DOCKED: BRANCH  39  40
DOCKED: ATOM     40  C   UNL d   1      -6.020 -13.386  -0.265 -0.21 +0.19    +0.115 C 
DOCKED: BRANCH  40  41
DOCKED: ATOM     41  C   UNL d   1      -6.455 -14.832  -0.157 -0.06 +0.25    +0.139 C 
DOCKED: ATOM     42  O   UNL d   1      -6.217 -15.599  -1.079 -0.48 -1.27    -0.650 OA
DOCKED: BRANCH  41  43
DOCKED: ATOM     43  O   UNL d   1      -7.024 -15.320   0.967 -0.13 -1.34    -0.776 OA
DOCKED: ATOM     44  H   UNL d   1      -6.972 -14.863   1.817 +0.04 +0.40    +0.167 HD
DOCKED: ENDBRANCH  41  43
DOCKED: ENDBRANCH  40  41
DOCKED: ENDBRANCH  39  40
DOCKED: ENDBRANCH  22  39
DOCKED: BRANCH  12  45
DOCKED: ATOM     45  C   UNL d   1     -16.209 -17.296   4.267 -0.07 +0.00    +0.004 C 
DOCKED: ATOM     46  C   UNL d   1     -17.390 -16.845   3.853 -0.10 +0.00    +0.012 C 
DOCKED: ENDBRANCH  12  45
DOCKED: BRANCH  17  47
DOCKED: ATOM     47  C   UNL d   1     -13.259 -16.593  -2.935 -0.06 +0.00    +0.004 C 
DOCKED: ATOM     48  C   UNL d   1     -13.311 -15.629  -3.858 -0.08 +0.00    +0.012 C 
DOCKED: ENDBRANCH  17  47
DOCKED: TORSDOF 12
DOCKED: TER
DOCKED: ENDMDL
________________________________________________________________________________


	BEGINNING GENETIC ALGORITHM DOCKING 78 of 100
Run: 78 Seed: 823018216 479908464 [ Run 78 of 100 GA/GALS ]
Beginning LAMARCKIAN GENETIC ALGORITHM (LGA), with a maximum of 25000000 energy evaluations.

Final-Value: -12.930


	FINAL GENETIC ALGORITHM DOCKED STATE
	_______________________________________________


Detailed state:  trans -0.679 -16.055 -1.616 quatxyzw 0.420817 -0.009014 -0.419674 0.804180 center 8.781 34.984 -0.736 ntor 12 148.6275 125.9668 -9.7485 117.8620 82.7313 136.6233 -130.9059 165.7674 -149.2489 -46.3559 -176.5637 179.5562
State:	 -0.679 -16.055  -1.616   0.708 -0.015 -0.706 72.938    148.63  125.97   -9.75  117.86   82.73  136.62 -130.91  165.77 -149.25  -46.36 -176.56  179.56

DOCKED: MODEL       78
DOCKED: USER    Run = 78
DOCKED: USER    DPF = D:/Protein_go_brrr/autodock/final/AncA/heme_Co/dock.dpf
DOCKED: USER  
DOCKED: USER    Estimated Free Energy of Binding    =   -7.26 kcal/mol  [=(1)+(2)+(3)-(4)]
DOCKED: USER    Estimated Inhibition Constant, Ki   =    4.76 uM (micromolar)  [Temperature = 298.15 K]
DOCKED: USER    
DOCKED: USER    (1) Final Intermolecular Energy     =  -10.84 kcal/mol
DOCKED: USER        vdW + Hbond + desolv Energy     =   -6.23 kcal/mol
DOCKED: USER        Electrostatic Energy            =   -4.61 kcal/mol
DOCKED: USER    (2) Final Total Internal Energy     =   -2.09 kcal/mol
DOCKED: USER    (3) Torsional Free Energy           =   +3.58 kcal/mol
DOCKED: USER    (4) Unbound System's Energy  [=(2)] =   -2.09 kcal/mol
DOCKED: USER    
DOCKED: USER    
DOCKED: USER    NEWDPF move heme_Co_opt.pdbqt
DOCKED: USER    NEWDPF about 8.781000 34.984000 -0.736000
DOCKED: USER    NEWDPF tran0 -0.679130 -16.055082 -1.615813
DOCKED: USER    NEWDPF quaternion0 0.420817 -0.009014 -0.419674 0.804180
DOCKED: USER    NEWDPF axisangle0 0.707986 -0.015165 -0.706063 72.937742
DOCKED: USER    NEWDPF quat0 0.707986 -0.015165 -0.706063 72.937742
DOCKED: USER    NEWDPF dihe0 148.63 125.97 -9.75 117.86 82.73 136.62 -130.91 165.77 -149.25 -46.36 -176.56 179.56 
DOCKED: USER  keepresnum = 1 
DOCKED: USER  
DOCKED: REMARK  12 active torsions:
DOCKED: REMARK  status: ('A' for Active; 'I' for Inactive)
DOCKED: REMARK    1  A    between atoms: C_6  and  C_10 
DOCKED: REMARK    2  A    between atoms: C_10  and  C_11 
DOCKED: REMARK    3  A    between atoms: C_11  and  C_12 
DOCKED: REMARK    4  A    between atoms: C_12  and  O_14 
DOCKED: REMARK    5  A    between atoms: C_17  and  C_20 
DOCKED: REMARK    6  A    between atoms: C_24  and  C_27 
DOCKED: REMARK    7  A    between atoms: C_31  and  C_34 
DOCKED: REMARK    8  A    between atoms: C_34  and  C_35 
DOCKED: REMARK    9  A    between atoms: C_35  and  C_36 
DOCKED: REMARK   10  A    between atoms: C_36  and  O_38 
DOCKED: REMARK   11  A    between atoms: FE_43  and  C_44 
DOCKED: REMARK   12  A    between atoms: C_44  and  O_45 
DOCKED: USER                              x       y       z     vdW  Elec       q    Type
DOCKED: USER                           _______ _______ _______ _____ _____    ______ ____
DOCKED: ROOT
DOCKED: ATOM      1  C   UNL d   1      -1.985 -17.782  -1.787 -0.04 +0.06    +0.064 A 
DOCKED: ATOM      2  C   UNL d   1      -0.619 -15.166   1.942 -0.06 +0.05    +0.064 C 
DOCKED: ATOM      3  C   UNL d   1       2.334 -12.657  -0.853 -0.14 +0.02    +0.064 A 
DOCKED: ATOM      4  C   UNL d   1       0.671 -15.056  -4.743 -0.17 +0.04    +0.064 A 
DOCKED: ATOM      5  C   UNL d   1      -1.802 -17.275  -0.556 -0.04 +0.06    +0.066 A 
DOCKED: ATOM      6  C   UNL d   1      -2.557 -17.710   0.550 -0.04 -0.02    -0.021 A 
DOCKED: ATOM      7  C   UNL d   1      -2.172 -16.932   1.625 -0.07 -0.02    -0.025 A 
DOCKED: ATOM      8  C   UNL d   1      -1.189 -16.068   1.132 -0.08 +0.06    +0.066 A 
DOCKED: ATOM      9  C   UNL d   1      -2.702 -16.987   3.066 -0.02 +0.06    +0.051 C 
DOCKED: ATOM     10  C   UNL d   1       0.419 -14.254   1.531 -0.13 +0.04    +0.066 A 
DOCKED: ATOM     11  C   UNL d   1       1.155 -13.383   2.363 -0.19 -0.01    -0.021 A 
DOCKED: ATOM     12  C   UNL d   1       2.011 -12.666   1.523 -0.22 +0.00    +0.000 A 
DOCKED: ATOM     13  C   UNL d   1       1.745 -13.161   0.246 -0.13 +0.03    +0.070 A 
DOCKED: ATOM     14  C   UNL d   1       1.095 -13.324   3.868 -0.24 +0.02    +0.052 C 
DOCKED: ATOM     15  C   UNL d   1       2.140 -13.010  -2.245 -0.12 +0.02    +0.066 A 
DOCKED: ATOM     16  C   UNL d   1       2.673 -12.351  -3.344 -0.21 -0.01    -0.021 A 
DOCKED: ATOM     17  C   UNL d   1       2.194 -13.038  -4.468 -0.25 +0.00    +0.000 A 
DOCKED: ATOM     18  C   UNL d   1       1.417 -14.076  -3.964 -0.14 +0.03    +0.070 A 
DOCKED: ATOM     19  C   UNL d   1       3.579 -11.142  -3.286 -0.32 +0.01    +0.052 C 
DOCKED: ATOM     20  C   UNL d   1      -0.159 -16.020  -4.278 -0.11 +0.05    +0.066 A 
DOCKED: ATOM     21  C   UNL d   1      -0.850 -16.881  -5.128 -0.14 -0.02    -0.025 A 
DOCKED: ATOM     22  C   UNL d   1      -1.602 -17.697  -4.303 -0.09 -0.02    -0.021 A 
DOCKED: ATOM     23  C   UNL d   1      -1.339 -17.282  -2.980 -0.06 +0.06    +0.066 A 
DOCKED: ATOM     24  C   UNL d   1      -0.812 -16.911  -6.654 -0.25 +0.04    +0.051 C 
DOCKED: ATOM     25  N   UNL d   1      -0.935 -16.263  -0.215 -0.03 -0.20    -0.248 N 
DOCKED: ATOM     26  N   UNL d   1       0.823 -14.160   0.259 -0.05 -0.13    -0.248 N 
DOCKED: ATOM     27  N   UNL d   1       1.383 -14.010  -2.638 -0.04 -0.12    -0.248 N 
DOCKED: ATOM     28  N   UNL d   1      -0.468 -16.266  -2.960 -0.04 -0.21    -0.248 N 
DOCKED: ATOM     29 FE   UNL d   1       0.292 -15.072  -1.501 -0.02 +0.00    +0.000 Fe
DOCKED: ENDROOT
DOCKED: BRANCH   6  30
DOCKED: ATOM     30  C   UNL d   1      -3.654 -18.770   0.544 -0.02 +0.04    +0.052 C 
DOCKED: BRANCH  30  31
DOCKED: ATOM     31  C   UNL d   1      -5.022 -18.125   0.328 -0.03 +0.11    +0.115 C 
DOCKED: BRANCH  31  32
DOCKED: ATOM     32  C   UNL d   1      -4.938 -16.848  -0.481 -0.09 +0.21    +0.139 C 
DOCKED: ATOM     33  O   UNL d   1      -5.199 -16.874  -1.675 -0.05 -1.24    -0.650 OA
DOCKED: BRANCH  32  34
DOCKED: ATOM     34  O   UNL d   1      -4.626 -15.659   0.085 -0.40 -1.66    -0.776 OA
DOCKED: ATOM     35  H   UNL d   1      -4.101 -14.972  -0.347 +0.02 +0.35    +0.167 HD
DOCKED: ENDBRANCH  32  34
DOCKED: ENDBRANCH  31  32
DOCKED: ENDBRANCH  30  31
DOCKED: ENDBRANCH   6  30
DOCKED: BRANCH  29  36
DOCKED: ATOM     36  C   UNL d   1      -1.346 -13.775  -1.676 -0.16 +0.20    +0.190 C 
DOCKED: BRANCH  36  37
DOCKED: ATOM     37  O   UNL d   1      -2.730 -13.697  -1.490 -0.17 -0.71    -0.399 OA
DOCKED: ATOM     38  H   UNL d   1      -2.964 -14.510  -0.961 +0.04 +0.38    +0.209 HD
DOCKED: ENDBRANCH  36  37
DOCKED: ENDBRANCH  29  36
DOCKED: BRANCH  22  39
DOCKED: ATOM     39  C   UNL d   1      -2.567 -18.770  -4.769 -0.08 +0.05    +0.052 C 
DOCKED: BRANCH  39  40
DOCKED: ATOM     40  C   UNL d   1      -3.899 -18.145  -5.216 -0.14 +0.15    +0.115 C 
DOCKED: BRANCH  40  41
DOCKED: ATOM     41  C   UNL d   1      -4.356 -18.570  -6.596 -0.06 +0.23    +0.139 C 
DOCKED: ATOM     42  O   UNL d   1      -3.614 -18.398  -7.552 -0.41 -1.37    -0.650 OA
DOCKED: BRANCH  41  43
DOCKED: ATOM     43  O   UNL d   1      -5.528 -19.215  -6.788 +0.02 -1.49    -0.776 OA
DOCKED: ATOM     44  H   UNL d   1      -6.103 -19.477  -6.057 +0.02 +0.21    +0.167 HD
DOCKED: ENDBRANCH  41  43
DOCKED: ENDBRANCH  40  41
DOCKED: ENDBRANCH  39  40
DOCKED: ENDBRANCH  22  39
DOCKED: BRANCH  12  45
DOCKED: ATOM     45  C   UNL d   1       3.058 -11.590   1.781 -0.33 +0.00    +0.004 C 
DOCKED: ATOM     46  C   UNL d   1       4.385 -11.637   1.704 -0.21 +0.00    +0.012 C 
DOCKED: ENDBRANCH  12  45
DOCKED: BRANCH  17  47
DOCKED: ATOM     47  C   UNL d   1       2.386 -12.743  -5.920 -0.23 +0.00    +0.004 C 
DOCKED: ATOM     48  C   UNL d   1       3.580 -12.721  -6.516 -0.50 +0.00    +0.012 C 
DOCKED: ENDBRANCH  17  47
DOCKED: TORSDOF 12
DOCKED: TER
DOCKED: ENDMDL
________________________________________________________________________________


	BEGINNING GENETIC ALGORITHM DOCKING 79 of 100
Run: 79 Seed: 1707945812 1102066824 [ Run 79 of 100 GA/GALS ]
Beginning LAMARCKIAN GENETIC ALGORITHM (LGA), with a maximum of 25000000 energy evaluations.

Final-Value: -11.512


	FINAL GENETIC ALGORITHM DOCKED STATE
	_______________________________________________


Detailed state:  trans -10.689 -16.182 -2.132 quatxyzw 0.613008 0.767328 -0.137779 -0.128242 center 8.781 34.984 -0.736 ntor 12 145.3455 104.7565 -41.6340 -103.3695 -22.9216 113.3539 -127.7825 -19.8248 -125.4983 -176.1955 -172.9389 -179.1557
State:	-10.689 -16.182  -2.132   0.618  0.774 -0.139 -165.264    145.35  104.76  -41.63 -103.37  -22.92  113.35 -127.78  -19.82 -125.50 -176.20 -172.94 -179.16

DOCKED: MODEL       79
DOCKED: USER    Run = 79
DOCKED: USER    DPF = D:/Protein_go_brrr/autodock/final/AncA/heme_Co/dock.dpf
DOCKED: USER  
DOCKED: USER    Estimated Free Energy of Binding    =   -4.12 kcal/mol  [=(1)+(2)+(3)-(4)]
DOCKED: USER    Estimated Inhibition Constant, Ki   =  956.35 uM (micromolar)  [Temperature = 298.15 K]
DOCKED: USER    
DOCKED: USER    (1) Final Intermolecular Energy     =   -7.70 kcal/mol
DOCKED: USER        vdW + Hbond + desolv Energy     =   -4.96 kcal/mol
DOCKED: USER        Electrostatic Energy            =   -2.74 kcal/mol
DOCKED: USER    (2) Final Total Internal Energy     =   -3.81 kcal/mol
DOCKED: USER    (3) Torsional Free Energy           =   +3.58 kcal/mol
DOCKED: USER    (4) Unbound System's Energy  [=(2)] =   -3.81 kcal/mol
DOCKED: USER    
DOCKED: USER    
DOCKED: USER    NEWDPF move heme_Co_opt.pdbqt
DOCKED: USER    NEWDPF about 8.781000 34.984000 -0.736000
DOCKED: USER    NEWDPF tran0 -10.689149 -16.182496 -2.132400
DOCKED: USER    NEWDPF quaternion0 0.613008 0.767328 -0.137779 -0.128242
DOCKED: USER    NEWDPF axisangle0 0.618112 0.773716 -0.138926 -165.263916
DOCKED: USER    NEWDPF quat0 0.618112 0.773716 -0.138926 -165.263916
DOCKED: USER    NEWDPF dihe0 145.35 104.76 -41.63 -103.37 -22.92 113.35 -127.78 -19.82 -125.50 -176.20 -172.94 -179.16 
DOCKED: USER  keepresnum = 1 
DOCKED: USER  
DOCKED: REMARK  12 active torsions:
DOCKED: REMARK  status: ('A' for Active; 'I' for Inactive)
DOCKED: REMARK    1  A    between atoms: C_6  and  C_10 
DOCKED: REMARK    2  A    between atoms: C_10  and  C_11 
DOCKED: REMARK    3  A    between atoms: C_11  and  C_12 
DOCKED: REMARK    4  A    between atoms: C_12  and  O_14 
DOCKED: REMARK    5  A    between atoms: C_17  and  C_20 
DOCKED: REMARK    6  A    between atoms: C_24  and  C_27 
DOCKED: REMARK    7  A    between atoms: C_31  and  C_34 
DOCKED: REMARK    8  A    between atoms: C_34  and  C_35 
DOCKED: REMARK    9  A    between atoms: C_35  and  C_36 
DOCKED: REMARK   10  A    between atoms: C_36  and  O_38 
DOCKED: REMARK   11  A    between atoms: FE_43  and  C_44 
DOCKED: REMARK   12  A    between atoms: C_44  and  O_45 
DOCKED: USER                              x       y       z     vdW  Elec       q    Type
DOCKED: USER                           _______ _______ _______ _____ _____    ______ ____
DOCKED: ROOT
DOCKED: ATOM      1  C   UNL d   1      -9.809 -17.516  -0.662 -0.00 +0.03    +0.064 A 
DOCKED: ATOM      2  C   UNL d   1     -12.572 -18.313  -4.449 -0.02 +0.02    +0.064 C 
DOCKED: ATOM      3  C   UNL d   1     -13.021 -13.609  -5.158 -0.16 +0.01    +0.064 A 
DOCKED: ATOM      4  C   UNL d   1      -9.889 -12.777  -1.530 -0.20 +0.03    +0.064 A 
DOCKED: ATOM      5  C   UNL d   1     -10.560 -18.079  -1.623 -0.00 +0.03    +0.066 A 
DOCKED: ATOM      6  C   UNL d   1     -10.630 -19.475  -1.795 +0.00 -0.01    -0.021 A 
DOCKED: ATOM      7  C   UNL d   1     -11.415 -19.700  -2.909 -0.00 -0.01    -0.025 A 
DOCKED: ATOM      8  C   UNL d   1     -11.804 -18.433  -3.359 -0.01 +0.02    +0.066 A 
DOCKED: ATOM      9  C   UNL d   1     -11.793 -21.049  -3.539 +0.00 +0.01    +0.051 C 
DOCKED: ATOM     10  C   UNL d   1     -13.043 -17.054  -4.970 -0.03 +0.02    +0.066 A 
DOCKED: ATOM     11  C   UNL d   1     -13.964 -16.868  -6.024 -0.03 -0.00    -0.021 A 
DOCKED: ATOM     12  C   UNL d   1     -14.079 -15.488  -6.207 -0.07 +0.00    +0.000 A 
DOCKED: ATOM     13  C   UNL d   1     -13.232 -14.934  -5.246 -0.09 +0.01    +0.070 A 
DOCKED: ATOM     14  C   UNL d   1     -14.742 -17.949  -6.729 -0.01 +0.01    +0.052 C 
DOCKED: ATOM     15  C   UNL d   1     -12.145 -12.875  -4.267 -0.17 +0.01    +0.066 A 
DOCKED: ATOM     16  C   UNL d   1     -11.862 -11.518  -4.324 -0.33 -0.00    -0.021 A 
DOCKED: ATOM     17  C   UNL d   1     -10.957 -11.273  -3.281 -0.35 +0.00    +0.000 A 
DOCKED: ATOM     18  C   UNL d   1     -10.772 -12.502  -2.657 -0.20 +0.02    +0.070 A 
DOCKED: ATOM     19  C   UNL d   1     -12.437 -10.544  -5.328 -0.48 +0.00    +0.052 C 
DOCKED: ATOM     20  C   UNL d   1      -9.627 -13.978  -0.962 -0.14 +0.04    +0.066 A 
DOCKED: ATOM     21  C   UNL d   1      -8.731 -14.121   0.095 -0.14 -0.02    -0.025 A 
DOCKED: ATOM     22  C   UNL d   1      -8.709 -15.473   0.386 -0.06 -0.02    -0.021 A 
DOCKED: ATOM     23  C   UNL d   1      -9.591 -16.094  -0.523 -0.03 +0.04    +0.066 A 
DOCKED: ATOM     24  C   UNL d   1      -7.918 -13.026   0.782 -0.27 +0.05    +0.051 C 
DOCKED: ATOM     25  N   UNL d   1     -11.293 -17.410  -2.577 -0.01 -0.09    -0.248 N 
DOCKED: ATOM     26  N   UNL d   1     -12.650 -15.881  -4.462 -0.03 -0.06    -0.248 N 
DOCKED: ATOM     27  N   UNL d   1     -11.471 -13.438  -3.289 -0.12 -0.07    -0.248 N 
DOCKED: ATOM     28  N   UNL d   1     -10.148 -15.193  -1.342 -0.05 -0.13    -0.248 N 
DOCKED: ATOM     29 FE   UNL d   1     -11.386 -15.306  -2.951 -0.02 +0.00    +0.000 Fe
DOCKED: ENDROOT
DOCKED: BRANCH   6  30
DOCKED: ATOM     30  C   UNL d   1      -9.904 -20.531  -0.969 +0.00 +0.02    +0.052 C 
DOCKED: BRANCH  30  31
DOCKED: ATOM     31  C   UNL d   1      -8.525 -20.822  -1.561 +0.01 +0.04    +0.115 C 
DOCKED: BRANCH  31  32
DOCKED: ATOM     32  C   UNL d   1      -7.708 -19.565  -1.766 +0.00 +0.08    +0.139 C 
DOCKED: ATOM     33  O   UNL d   1      -6.818 -19.291  -0.975 +0.02 -0.41    -0.650 OA
DOCKED: BRANCH  32  34
DOCKED: ATOM     34  O   UNL d   1      -7.899 -18.750  -2.830 +0.03 -0.52    -0.776 OA
DOCKED: ATOM     35  H   UNL d   1      -7.861 -17.785  -2.790 +0.02 +0.14    +0.167 HD
DOCKED: ENDBRANCH  32  34
DOCKED: ENDBRANCH  31  32
DOCKED: ENDBRANCH  30  31
DOCKED: ENDBRANCH   6  30
DOCKED: BRANCH  29  36
DOCKED: ATOM     36  C   UNL d   1      -9.743 -15.575  -4.225 +0.08 +0.11    +0.190 C 
DOCKED: BRANCH  36  37
DOCKED: ATOM     37  O   UNL d   1      -8.522 -16.246  -4.343 -0.09 -0.34    -0.399 OA
DOCKED: ATOM     38  H   UNL d   1      -8.371 -16.662  -3.448 +0.04 +0.18    +0.209 HD
DOCKED: ENDBRANCH  36  37
DOCKED: ENDBRANCH  29  36
DOCKED: BRANCH  22  39
DOCKED: ATOM     39  C   UNL d   1      -7.836 -16.132   1.437 -0.06 +0.06    +0.052 C 
DOCKED: BRANCH  39  40
DOCKED: ATOM     40  C   UNL d   1      -6.393 -16.282   0.928 +0.07 +0.20    +0.115 C 
DOCKED: BRANCH  40  41
DOCKED: ATOM     41  C   UNL d   1      -6.176 -15.792  -0.488 -0.10 +0.24    +0.139 C 
DOCKED: ATOM     42  O   UNL d   1      -5.397 -14.870  -0.690 -0.38 -1.50    -0.650 OA
DOCKED: BRANCH  41  43
DOCKED: ATOM     43  O   UNL d   1      -6.752 -16.401  -1.548 -0.30 -1.17    -0.776 OA
DOCKED: ATOM     44  H   UNL d   1      -6.888 -17.357  -1.586 +0.02 +0.18    +0.167 HD
DOCKED: ENDBRANCH  41  43
DOCKED: ENDBRANCH  40  41
DOCKED: ENDBRANCH  39  40
DOCKED: ENDBRANCH  22  39
DOCKED: BRANCH  12  45
DOCKED: ATOM     45  C   UNL d   1     -14.902 -14.632  -7.161 -0.09 +0.00    +0.004 C 
DOCKED: ATOM     46  C   UNL d   1     -14.524 -13.858  -8.175 -0.18 +0.00    +0.012 C 
DOCKED: ENDBRANCH  12  45
DOCKED: BRANCH  17  47
DOCKED: ATOM     47  C   UNL d   1     -10.259 -10.009  -2.901 -0.52 +0.00    +0.004 C 
DOCKED: ATOM     48  C   UNL d   1      -9.681  -9.191  -3.784 -0.54 +0.00    +0.012 C 
DOCKED: ENDBRANCH  17  47
DOCKED: TORSDOF 12
DOCKED: TER
DOCKED: ENDMDL
________________________________________________________________________________


	BEGINNING GENETIC ALGORITHM DOCKING 80 of 100
Run: 80 Seed: 318193106 1315527165 [ Run 80 of 100 GA/GALS ]
Beginning LAMARCKIAN GENETIC ALGORITHM (LGA), with a maximum of 25000000 energy evaluations.

Final-Value: -12.352


	FINAL GENETIC ALGORITHM DOCKED STATE
	_______________________________________________


Detailed state:  trans -0.308 -15.318 -2.667 quatxyzw 0.830837 0.226761 0.458707 -0.218809 center 8.781 34.984 -0.736 ntor 12 -154.6449 105.5176 111.6109 16.4691 69.3712 125.6319 52.9592 176.6869 150.4741 131.9094 -147.0437 2.8316
State:	 -0.308 -15.318  -2.667   0.851  0.232  0.470 -154.722   -154.64  105.52  111.61   16.47   69.37  125.63   52.96  176.69  150.47  131.91 -147.04    2.83

DOCKED: MODEL       80
DOCKED: USER    Run = 80
DOCKED: USER    DPF = D:/Protein_go_brrr/autodock/final/AncA/heme_Co/dock.dpf
DOCKED: USER  
DOCKED: USER    Estimated Free Energy of Binding    =   -6.49 kcal/mol  [=(1)+(2)+(3)-(4)]
DOCKED: USER    Estimated Inhibition Constant, Ki   =   17.41 uM (micromolar)  [Temperature = 298.15 K]
DOCKED: USER    
DOCKED: USER    (1) Final Intermolecular Energy     =  -10.07 kcal/mol
DOCKED: USER        vdW + Hbond + desolv Energy     =   -7.12 kcal/mol
DOCKED: USER        Electrostatic Energy            =   -2.95 kcal/mol
DOCKED: USER    (2) Final Total Internal Energy     =   -2.28 kcal/mol
DOCKED: USER    (3) Torsional Free Energy           =   +3.58 kcal/mol
DOCKED: USER    (4) Unbound System's Energy  [=(2)] =   -2.28 kcal/mol
DOCKED: USER    
DOCKED: USER    
DOCKED: USER    NEWDPF move heme_Co_opt.pdbqt
DOCKED: USER    NEWDPF about 8.781000 34.984000 -0.736000
DOCKED: USER    NEWDPF tran0 -0.308045 -15.317899 -2.667181
DOCKED: USER    NEWDPF quaternion0 0.830837 0.226761 0.458707 -0.218809
DOCKED: USER    NEWDPF axisangle0 0.851470 0.232392 0.470098 -154.721846
DOCKED: USER    NEWDPF quat0 0.851470 0.232392 0.470098 -154.721846
DOCKED: USER    NEWDPF dihe0 -154.64 105.52 111.61 16.47 69.37 125.63 52.96 176.69 150.47 131.91 -147.04 2.83 
DOCKED: USER  keepresnum = 1 
DOCKED: USER  
DOCKED: REMARK  12 active torsions:
DOCKED: REMARK  status: ('A' for Active; 'I' for Inactive)
DOCKED: REMARK    1  A    between atoms: C_6  and  C_10 
DOCKED: REMARK    2  A    between atoms: C_10  and  C_11 
DOCKED: REMARK    3  A    between atoms: C_11  and  C_12 
DOCKED: REMARK    4  A    between atoms: C_12  and  O_14 
DOCKED: REMARK    5  A    between atoms: C_17  and  C_20 
DOCKED: REMARK    6  A    between atoms: C_24  and  C_27 
DOCKED: REMARK    7  A    between atoms: C_31  and  C_34 
DOCKED: REMARK    8  A    between atoms: C_34  and  C_35 
DOCKED: REMARK    9  A    between atoms: C_35  and  C_36 
DOCKED: REMARK   10  A    between atoms: C_36  and  O_38 
DOCKED: REMARK   11  A    between atoms: FE_43  and  C_44 
DOCKED: REMARK   12  A    between atoms: C_44  and  O_45 
DOCKED: USER                              x       y       z     vdW  Elec       q    Type
DOCKED: USER                           _______ _______ _______ _____ _____    ______ ____
DOCKED: ROOT
DOCKED: ATOM      1  C   UNL d   1      -1.874 -16.703  -3.254 -0.04 +0.09    +0.064 A 
DOCKED: ATOM      2  C   UNL d   1       1.475 -14.425  -5.745 -0.32 +0.03    +0.064 C 
DOCKED: ATOM      3  C   UNL d   1       2.841 -12.064  -1.822 -0.18 +0.02    +0.064 A 
DOCKED: ATOM      4  C   UNL d   1      -0.313 -14.659   0.821 -0.11 +0.05    +0.064 A 
DOCKED: ATOM      5  C   UNL d   1      -1.084 -16.228  -4.230 -0.13 +0.07    +0.066 A 
DOCKED: ATOM      6  C   UNL d   1      -1.131 -16.734  -5.544 -0.18 -0.02    -0.021 A 
DOCKED: ATOM      7  C   UNL d   1      -0.142 -16.086  -6.257 -0.26 -0.02    -0.025 A 
DOCKED: ATOM      8  C   UNL d   1       0.456 -15.200  -5.353 -0.23 +0.04    +0.066 A 
DOCKED: ATOM      9  C   UNL d   1       0.239 -16.282  -7.732 -0.11 +0.03    +0.051 C 
DOCKED: ATOM     10  C   UNL d   1       2.134 -13.466  -4.894 -0.24 +0.03    +0.066 A 
DOCKED: ATOM     11  C   UNL d   1       3.113 -12.526  -5.282 -0.33 -0.01    -0.021 A 
DOCKED: ATOM     12  C   UNL d   1       3.491 -11.849  -4.120 -0.29 +0.00    +0.000 A 
DOCKED: ATOM     13  C   UNL d   1       2.707 -12.415  -3.114 -0.18 +0.02    +0.070 A 
DOCKED: ATOM     14  C   UNL d   1       3.571 -12.245  -6.690 -0.43 +0.01    +0.052 C 
DOCKED: ATOM     15  C   UNL d   1       2.155 -12.581  -0.654 -0.16 +0.02    +0.066 A 
DOCKED: ATOM     16  C   UNL d   1       2.443 -12.279   0.670 -0.24 -0.01    -0.021 A 
DOCKED: ATOM     17  C   UNL d   1       1.538 -13.026   1.436 -0.20 +0.00    +0.000 A 
DOCKED: ATOM     18  C   UNL d   1       0.755 -13.715   0.515 -0.13 +0.04    +0.070 A 
DOCKED: ATOM     19  C   UNL d   1       3.524 -11.330   1.138 -0.27 +0.01    +0.052 C 
DOCKED: ATOM     20  C   UNL d   1      -1.029 -15.405  -0.054 -0.09 +0.06    +0.066 A 
DOCKED: ATOM     21  C   UNL d   1      -2.007 -16.306   0.364 -0.10 -0.03    -0.025 A 
DOCKED: ATOM     22  C   UNL d   1      -2.495 -16.889  -0.791 -0.08 -0.02    -0.021 A 
DOCKED: ATOM     23  C   UNL d   1      -1.776 -16.319  -1.864 -0.08 +0.08    +0.066 A 
DOCKED: ATOM     24  C   UNL d   1      -2.442 -16.611   1.795 +0.05 +0.06    +0.051 C 
DOCKED: ATOM     25  N   UNL d   1      -0.112 -15.263  -4.092 -0.09 -0.19    -0.248 N 
DOCKED: ATOM     26  N   UNL d   1       1.848 -13.353  -3.593 -0.09 -0.10    -0.248 N 
DOCKED: ATOM     27  N   UNL d   1       1.171 -13.449  -0.718 -0.05 -0.11    -0.248 N 
DOCKED: ATOM     28  N   UNL d   1      -0.886 -15.422  -1.422 -0.05 -0.23    -0.248 N 
DOCKED: ATOM     29 FE   UNL d   1       0.565 -14.304  -2.303 -0.03 +0.00    +0.000 Fe
DOCKED: ENDROOT
DOCKED: BRANCH   6  30
DOCKED: ATOM     30  C   UNL d   1      -2.035 -17.850  -6.056 -0.17 +0.05    +0.052 C 
DOCKED: BRANCH  30  31
DOCKED: ATOM     31  C   UNL d   1      -1.727 -19.164  -5.339 -0.04 +0.09    +0.115 C 
DOCKED: BRANCH  31  32
DOCKED: ATOM     32  C   UNL d   1      -0.271 -19.276  -4.941 -0.02 +0.09    +0.139 C 
DOCKED: ATOM     33  O   UNL d   1       0.565 -19.546  -5.791 +0.03 -0.40    -0.650 OA
DOCKED: BRANCH  32  34
DOCKED: ATOM     34  O   UNL d   1       0.148 -19.040  -3.676 +0.03 -0.43    -0.776 OA
DOCKED: ATOM     35  H   UNL d   1       1.058 -18.813  -3.438 +0.01 +0.09    +0.167 HD
DOCKED: ENDBRANCH  32  34
DOCKED: ENDBRANCH  31  32
DOCKED: ENDBRANCH  30  31
DOCKED: ENDBRANCH   6  30
DOCKED: BRANCH  29  36
DOCKED: ATOM     36  C   UNL d   1       1.932 -15.881  -2.109 -0.01 +0.08    +0.190 C 
DOCKED: BRANCH  36  37
DOCKED: ATOM     37  O   UNL d   1       2.122 -17.234  -2.409 +0.00 -0.18    -0.399 OA
DOCKED: ATOM     38  H   UNL d   1       1.244 -17.543  -2.768 +0.02 +0.11    +0.209 HD
DOCKED: ENDBRANCH  36  37
DOCKED: ENDBRANCH  29  36
DOCKED: BRANCH  22  39
DOCKED: ATOM     39  C   UNL d   1      -3.547 -17.980  -0.849 -0.05 +0.05    +0.052 C 
DOCKED: BRANCH  39  40
DOCKED: ATOM     40  C   UNL d   1      -4.902 -17.404  -1.294 -0.05 +0.16    +0.115 C 
DOCKED: BRANCH  40  41
DOCKED: ATOM     41  C   UNL d   1      -5.382 -16.228  -0.469 -0.11 +0.24    +0.139 C 
DOCKED: ATOM     42  O   UNL d   1      -5.309 -16.283   0.750 -0.30 -1.35    -0.650 OA
DOCKED: BRANCH  41  43
DOCKED: ATOM     43  O   UNL d   1      -5.809 -15.083  -1.046 -0.32 -1.77    -0.776 OA
DOCKED: ATOM     44  H   UNL d   1      -6.712 -14.754  -0.942 +0.03 +0.28    +0.167 HD
DOCKED: ENDBRANCH  41  43
DOCKED: ENDBRANCH  40  41
DOCKED: ENDBRANCH  39  40
DOCKED: ENDBRANCH  22  39
DOCKED: BRANCH  12  45
DOCKED: ATOM     45  C   UNL d   1       4.482 -10.725  -3.849 -0.45 +0.00    +0.004 C 
DOCKED: ATOM     46  C   UNL d   1       5.182  -9.967  -4.688 -0.49 +0.00    +0.012 C 
DOCKED: ENDBRANCH  12  45
DOCKED: BRANCH  17  47
DOCKED: ATOM     47  C   UNL d   1       1.419 -13.151   2.919 -0.24 +0.00    +0.004 C 
DOCKED: ATOM     48  C   UNL d   1       1.417 -12.105   3.749 -0.36 +0.00    +0.012 C 
DOCKED: ENDBRANCH  17  47
DOCKED: TORSDOF 12
DOCKED: TER
DOCKED: ENDMDL
________________________________________________________________________________


	BEGINNING GENETIC ALGORITHM DOCKING 81 of 100
Run: 81 Seed: 709004886 1322232084 [ Run 81 of 100 GA/GALS ]
Beginning LAMARCKIAN GENETIC ALGORITHM (LGA), with a maximum of 25000000 energy evaluations.

Final-Value: -13.045


	FINAL GENETIC ALGORITHM DOCKED STATE
	_______________________________________________


Detailed state:  trans -0.169 -15.847 -1.809 quatxyzw 0.424225 0.052483 -0.422748 0.799101 center 8.781 34.984 -0.736 ntor 12 -147.2819 130.5984 82.2066 69.7613 142.1457 134.8793 33.1598 -89.5935 173.1596 -49.0745 -179.6471 172.6571
State:	 -0.169 -15.847  -1.809   0.706  0.087 -0.703 73.911   -147.28  130.60   82.21   69.76  142.15  134.88   33.16  -89.59  173.16  -49.07 -179.65  172.66

DOCKED: MODEL       81
DOCKED: USER    Run = 81
DOCKED: USER    DPF = D:/Protein_go_brrr/autodock/final/AncA/heme_Co/dock.dpf
DOCKED: USER  
DOCKED: USER    Estimated Free Energy of Binding    =   -7.43 kcal/mol  [=(1)+(2)+(3)-(4)]
DOCKED: USER    Estimated Inhibition Constant, Ki   =    3.59 uM (micromolar)  [Temperature = 298.15 K]
DOCKED: USER    
DOCKED: USER    (1) Final Intermolecular Energy     =  -11.01 kcal/mol
DOCKED: USER        vdW + Hbond + desolv Energy     =   -6.38 kcal/mol
DOCKED: USER        Electrostatic Energy            =   -4.63 kcal/mol
DOCKED: USER    (2) Final Total Internal Energy     =   -2.04 kcal/mol
DOCKED: USER    (3) Torsional Free Energy           =   +3.58 kcal/mol
DOCKED: USER    (4) Unbound System's Energy  [=(2)] =   -2.04 kcal/mol
DOCKED: USER    
DOCKED: USER    
DOCKED: USER    NEWDPF move heme_Co_opt.pdbqt
DOCKED: USER    NEWDPF about 8.781000 34.984000 -0.736000
DOCKED: USER    NEWDPF tran0 -0.169194 -15.846619 -1.808978
DOCKED: USER    NEWDPF quaternion0 0.424225 0.052483 -0.422748 0.799101
DOCKED: USER    NEWDPF axisangle0 0.705634 0.087298 -0.703178 73.911288
DOCKED: USER    NEWDPF quat0 0.705634 0.087298 -0.703178 73.911288
DOCKED: USER    NEWDPF dihe0 -147.28 130.60 82.21 69.76 142.15 134.88 33.16 -89.59 173.16 -49.07 -179.65 172.66 
DOCKED: USER  keepresnum = 1 
DOCKED: USER  
DOCKED: REMARK  12 active torsions:
DOCKED: REMARK  status: ('A' for Active; 'I' for Inactive)
DOCKED: REMARK    1  A    between atoms: C_6  and  C_10 
DOCKED: REMARK    2  A    between atoms: C_10  and  C_11 
DOCKED: REMARK    3  A    between atoms: C_11  and  C_12 
DOCKED: REMARK    4  A    between atoms: C_12  and  O_14 
DOCKED: REMARK    5  A    between atoms: C_17  and  C_20 
DOCKED: REMARK    6  A    between atoms: C_24  and  C_27 
DOCKED: REMARK    7  A    between atoms: C_31  and  C_34 
DOCKED: REMARK    8  A    between atoms: C_34  and  C_35 
DOCKED: REMARK    9  A    between atoms: C_35  and  C_36 
DOCKED: REMARK   10  A    between atoms: C_36  and  O_38 
DOCKED: REMARK   11  A    between atoms: FE_43  and  C_44 
DOCKED: REMARK   12  A    between atoms: C_44  and  O_45 
DOCKED: USER                              x       y       z     vdW  Elec       q    Type
DOCKED: USER                           _______ _______ _______ _____ _____    ______ ____
DOCKED: ROOT
DOCKED: ATOM      1  C   UNL d   1      -1.341 -17.638  -2.177 -0.03 +0.05    +0.064 A 
DOCKED: ATOM      2  C   UNL d   1      -0.513 -15.116   1.769 -0.11 +0.05    +0.064 C 
DOCKED: ATOM      3  C   UNL d   1       2.535 -12.314  -0.616 -0.18 +0.02    +0.064 A 
DOCKED: ATOM      4  C   UNL d   1       1.414 -14.631  -4.745 -0.18 +0.03    +0.064 A 
DOCKED: ATOM      5  C   UNL d   1      -1.311 -17.177  -0.916 -0.03 +0.05    +0.066 A 
DOCKED: ATOM      6  C   UNL d   1      -2.141 -17.705   0.092 -0.03 -0.02    -0.021 A 
DOCKED: ATOM      7  C   UNL d   1      -1.914 -16.954   1.229 -0.07 -0.02    -0.025 A 
DOCKED: ATOM      8  C   UNL d   1      -0.943 -16.013   0.871 -0.08 +0.05    +0.066 A 
DOCKED: ATOM      9  C   UNL d   1      -2.577 -17.106   2.607 -0.06 +0.06    +0.051 C 
DOCKED: ATOM     10  C   UNL d   1       0.501 -14.127   1.499 -0.13 +0.04    +0.066 A 
DOCKED: ATOM     11  C   UNL d   1       1.095 -13.252   2.434 -0.20 -0.01    -0.021 A 
DOCKED: ATOM     12  C   UNL d   1       1.983 -12.449   1.713 -0.26 +0.00    +0.000 A 
DOCKED: ATOM     13  C   UNL d   1       1.874 -12.901   0.397 -0.16 +0.03    +0.070 A 
DOCKED: ATOM     14  C   UNL d   1       0.885 -13.265   3.927 -0.25 +0.03    +0.052 C 
DOCKED: ATOM     15  C   UNL d   1       2.500 -12.616  -2.034 -0.14 +0.02    +0.066 A 
DOCKED: ATOM     16  C   UNL d   1       3.095 -11.878  -3.047 -0.23 -0.01    -0.021 A 
DOCKED: ATOM     17  C   UNL d   1       2.773 -12.541  -4.240 -0.25 +0.00    +0.000 A 
DOCKED: ATOM     18  C   UNL d   1       2.018 -13.644  -3.857 -0.15 +0.03    +0.070 A 
DOCKED: ATOM     19  C   UNL d   1       3.914 -10.621  -2.852 -0.24 +0.01    +0.052 C 
DOCKED: ATOM     20  C   UNL d   1       0.605 -15.662  -4.402 -0.11 +0.04    +0.066 A 
DOCKED: ATOM     21  C   UNL d   1       0.056 -16.522  -5.350 -0.15 -0.02    -0.025 A 
DOCKED: ATOM     22  C   UNL d   1      -0.720 -17.418  -4.637 -0.08 -0.02    -0.021 A 
DOCKED: ATOM     23  C   UNL d   1      -0.614 -17.048  -3.279 -0.05 +0.05    +0.066 A 
DOCKED: ATOM     24  C   UNL d   1       0.245 -16.482  -6.864 -0.28 +0.03    +0.051 C 
DOCKED: ATOM     25  N   UNL d   1      -0.547 -16.131  -0.450 -0.02 -0.18    -0.248 N 
DOCKED: ATOM     26  N   UNL d   1       1.020 -13.952   0.279 -0.06 -0.12    -0.248 N 
DOCKED: ATOM     27  N   UNL d   1       1.850 -13.640  -2.539 -0.04 -0.10    -0.248 N 
DOCKED: ATOM     28  N   UNL d   1       0.185 -15.984  -3.133 -0.03 -0.17    -0.248 N 
DOCKED: ATOM     29 FE   UNL d   1       0.722 -14.814  -1.560 -0.02 +0.00    +0.000 Fe
DOCKED: ENDROOT
DOCKED: BRANCH   6  30
DOCKED: ATOM     30  C   UNL d   1      -3.163 -18.826  -0.065 -0.01 +0.04    +0.052 C 
DOCKED: BRANCH  30  31
DOCKED: ATOM     31  C   UNL d   1      -4.557 -18.251  -0.317 -0.03 +0.11    +0.115 C 
DOCKED: BRANCH  31  32
DOCKED: ATOM     32  C   UNL d   1      -4.603 -16.749  -0.135 -0.09 +0.21    +0.139 C 
DOCKED: ATOM     33  O   UNL d   1      -4.975 -16.283   0.932 -0.23 -1.42    -0.650 OA
DOCKED: BRANCH  32  34
DOCKED: ATOM     34  O   UNL d   1      -4.197 -15.896  -1.105 +0.04 -1.69    -0.776 OA
DOCKED: ATOM     35  H   UNL d   1      -3.837 -15.014  -0.937 +0.02 +0.38    +0.167 HD
DOCKED: ENDBRANCH  32  34
DOCKED: ENDBRANCH  31  32
DOCKED: ENDBRANCH  30  31
DOCKED: ENDBRANCH   6  30
DOCKED: BRANCH  29  36
DOCKED: ATOM     36  C   UNL d   1      -0.969 -13.610  -1.848 -0.15 +0.18    +0.190 C 
DOCKED: BRANCH  36  37
DOCKED: ATOM     37  O   UNL d   1      -2.367 -13.628  -1.823 -0.23 -0.66    -0.399 OA
DOCKED: ATOM     38  H   UNL d   1      -2.604 -14.450  -1.309 +0.04 +0.36    +0.209 HD
DOCKED: ENDBRANCH  36  37
DOCKED: ENDBRANCH  29  36
DOCKED: BRANCH  22  39
DOCKED: ATOM     39  C   UNL d   1      -1.565 -18.524  -5.239 -0.08 +0.04    +0.052 C 
DOCKED: BRANCH  39  40
DOCKED: ATOM     40  C   UNL d   1      -2.952 -17.992  -5.637 -0.16 +0.14    +0.115 C 
DOCKED: BRANCH  40  41
DOCKED: ATOM     41  C   UNL d   1      -3.327 -18.244  -7.082 -0.02 +0.22    +0.139 C 
DOCKED: ATOM     42  O   UNL d   1      -3.183 -19.365  -7.550 -0.31 -1.40    -0.650 OA
DOCKED: BRANCH  41  43
DOCKED: ATOM     43  O   UNL d   1      -3.899 -17.287  -7.845 -0.11 -1.28    -0.776 OA
DOCKED: ATOM     44  H   UNL d   1      -3.381 -16.654  -8.359 +0.07 +0.20    +0.167 HD
DOCKED: ENDBRANCH  41  43
DOCKED: ENDBRANCH  40  41
DOCKED: ENDBRANCH  39  40
DOCKED: ENDBRANCH  22  39
DOCKED: BRANCH  12  45
DOCKED: ATOM     45  C   UNL d   1       2.930 -11.326   2.115 -0.36 +0.00    +0.004 C 
DOCKED: ATOM     46  C   UNL d   1       3.972 -11.327   2.942 -0.24 +0.00    +0.012 C 
DOCKED: ENDBRANCH  12  45
DOCKED: BRANCH  17  47
DOCKED: ATOM     47  C   UNL d   1       3.086 -12.170  -5.652 -0.40 +0.00    +0.004 C 
DOCKED: ATOM     48  C   UNL d   1       3.791 -12.946  -6.480 -0.49 +0.00    +0.012 C 
DOCKED: ENDBRANCH  17  47
DOCKED: TORSDOF 12
DOCKED: TER
DOCKED: ENDMDL
________________________________________________________________________________


	BEGINNING GENETIC ALGORITHM DOCKING 82 of 100
Run: 82 Seed: 363012753 1617061082 [ Run 82 of 100 GA/GALS ]
Beginning LAMARCKIAN GENETIC ALGORITHM (LGA), with a maximum of 25000000 energy evaluations.

Final-Value: -13.009


	FINAL GENETIC ALGORITHM DOCKED STATE
	_______________________________________________


Detailed state:  trans -0.016 -15.591 -1.755 quatxyzw 0.402997 0.063134 -0.385439 0.827674 center 8.781 34.984 -0.736 ntor 12 -118.1964 108.7399 -86.9821 23.4641 -11.5788 130.4047 30.3656 178.8575 152.7743 8.0024 -160.9184 -170.6300
State:	 -0.016 -15.591  -1.755   0.718  0.112 -0.687 68.279   -118.20  108.74  -86.98   23.46  -11.58  130.40   30.37  178.86  152.77    8.00 -160.92 -170.63

DOCKED: MODEL       82
DOCKED: USER    Run = 82
DOCKED: USER    DPF = D:/Protein_go_brrr/autodock/final/AncA/heme_Co/dock.dpf
DOCKED: USER  
DOCKED: USER    Estimated Free Energy of Binding    =   -7.44 kcal/mol  [=(1)+(2)+(3)-(4)]
DOCKED: USER    Estimated Inhibition Constant, Ki   =    3.49 uM (micromolar)  [Temperature = 298.15 K]
DOCKED: USER    
DOCKED: USER    (1) Final Intermolecular Energy     =  -11.02 kcal/mol
DOCKED: USER        vdW + Hbond + desolv Energy     =   -6.66 kcal/mol
DOCKED: USER        Electrostatic Energy            =   -4.36 kcal/mol
DOCKED: USER    (2) Final Total Internal Energy     =   -1.98 kcal/mol
DOCKED: USER    (3) Torsional Free Energy           =   +3.58 kcal/mol
DOCKED: USER    (4) Unbound System's Energy  [=(2)] =   -1.98 kcal/mol
DOCKED: USER    
DOCKED: USER    
DOCKED: USER    NEWDPF move heme_Co_opt.pdbqt
DOCKED: USER    NEWDPF about 8.781000 34.984000 -0.736000
DOCKED: USER    NEWDPF tran0 -0.016105 -15.591418 -1.755320
DOCKED: USER    NEWDPF quaternion0 0.402997 0.063134 -0.385439 0.827674
DOCKED: USER    NEWDPF axisangle0 0.718087 0.112496 -0.686801 68.278948
DOCKED: USER    NEWDPF quat0 0.718087 0.112496 -0.686801 68.278948
DOCKED: USER    NEWDPF dihe0 -118.20 108.74 -86.98 23.46 -11.58 130.40 30.37 178.86 152.77 8.00 -160.92 -170.63 
DOCKED: USER  keepresnum = 1 
DOCKED: USER  
DOCKED: REMARK  12 active torsions:
DOCKED: REMARK  status: ('A' for Active; 'I' for Inactive)
DOCKED: REMARK    1  A    between atoms: C_6  and  C_10 
DOCKED: REMARK    2  A    between atoms: C_10  and  C_11 
DOCKED: REMARK    3  A    between atoms: C_11  and  C_12 
DOCKED: REMARK    4  A    between atoms: C_12  and  O_14 
DOCKED: REMARK    5  A    between atoms: C_17  and  C_20 
DOCKED: REMARK    6  A    between atoms: C_24  and  C_27 
DOCKED: REMARK    7  A    between atoms: C_31  and  C_34 
DOCKED: REMARK    8  A    between atoms: C_34  and  C_35 
DOCKED: REMARK    9  A    between atoms: C_35  and  C_36 
DOCKED: REMARK   10  A    between atoms: C_36  and  O_38 
DOCKED: REMARK   11  A    between atoms: FE_43  and  C_44 
DOCKED: REMARK   12  A    between atoms: C_44  and  O_45 
DOCKED: USER                              x       y       z     vdW  Elec       q    Type
DOCKED: USER                           _______ _______ _______ _____ _____    ______ ____
DOCKED: ROOT
DOCKED: ATOM      1  C   UNL d   1      -1.301 -17.261  -2.281 -0.04 +0.06    +0.064 A 
DOCKED: ATOM      2  C   UNL d   1      -0.415 -15.090   1.856 -0.12 +0.05    +0.064 C 
DOCKED: ATOM      3  C   UNL d   1       2.896 -12.359  -0.244 -0.18 +0.02    +0.064 A 
DOCKED: ATOM      4  C   UNL d   1       1.738 -14.293  -4.555 -0.17 +0.03    +0.064 A 
DOCKED: ATOM      5  C   UNL d   1      -1.276 -16.894  -0.989 -0.04 +0.06    +0.066 A 
DOCKED: ATOM      6  C   UNL d   1      -2.173 -17.428  -0.043 -0.04 -0.02    -0.021 A 
DOCKED: ATOM      7  C   UNL d   1      -1.926 -16.778   1.151 -0.08 -0.02    -0.025 A 
DOCKED: ATOM      8  C   UNL d   1      -0.880 -15.887   0.886 -0.08 +0.05    +0.066 A 
DOCKED: ATOM      9  C   UNL d   1      -2.640 -16.976   2.496 -0.04 +0.06    +0.051 C 
DOCKED: ATOM     10  C   UNL d   1       0.675 -14.162   1.684 -0.13 +0.04    +0.066 A 
DOCKED: ATOM     11  C   UNL d   1       1.301 -13.400   2.694 -0.19 -0.01    -0.021 A 
DOCKED: ATOM     12  C   UNL d   1       2.266 -12.616   2.055 -0.22 +0.00    +0.000 A 
DOCKED: ATOM     13  C   UNL d   1       2.165 -12.965   0.708 -0.15 +0.02    +0.070 A 
DOCKED: ATOM     14  C   UNL d   1       1.046 -13.502   4.176 -0.23 +0.03    +0.052 C 
DOCKED: ATOM     15  C   UNL d   1       2.883 -12.558  -1.680 -0.13 +0.02    +0.066 A 
DOCKED: ATOM     16  C   UNL d   1       3.560 -11.796  -2.622 -0.23 -0.00    -0.021 A 
DOCKED: ATOM     17  C   UNL d   1       3.227 -12.348  -3.868 -0.23 +0.00    +0.000 A 
DOCKED: ATOM     18  C   UNL d   1       2.383 -13.418  -3.584 -0.13 +0.03    +0.070 A 
DOCKED: ATOM     19  C   UNL d   1       4.459 -10.619  -2.317 -0.26 +0.01    +0.052 C 
DOCKED: ATOM     20  C   UNL d   1       0.847 -15.283  -4.308 -0.12 +0.04    +0.066 A 
DOCKED: ATOM     21  C   UNL d   1       0.267 -16.032  -5.329 -0.18 -0.02    -0.025 A 
DOCKED: ATOM     22  C   UNL d   1      -0.592 -16.916  -4.702 -0.11 -0.02    -0.021 A 
DOCKED: ATOM     23  C   UNL d   1      -0.501 -16.651  -3.318 -0.07 +0.05    +0.066 A 
DOCKED: ATOM     24  C   UNL d   1       0.504 -15.901  -6.831 -0.27 +0.03    +0.051 C 
DOCKED: ATOM     25  N   UNL d   1      -0.454 -15.942  -0.430 -0.02 -0.18    -0.248 N 
DOCKED: ATOM     26  N   UNL d   1       1.242 -13.940   0.493 -0.05 -0.11    -0.248 N 
DOCKED: ATOM     27  N   UNL d   1       2.177 -13.493  -2.274 -0.04 -0.09    -0.248 N 
DOCKED: ATOM     28  N   UNL d   1       0.367 -15.662  -3.076 -0.03 -0.17    -0.248 N 
DOCKED: ATOM     29 FE   UNL d   1       0.939 -14.647  -1.410 -0.02 +0.00    +0.000 Fe
DOCKED: ENDROOT
DOCKED: BRANCH   6  30
DOCKED: ATOM     30  C   UNL d   1      -3.267 -18.457  -0.306 -0.02 +0.04    +0.052 C 
DOCKED: BRANCH  30  31
DOCKED: ATOM     31  C   UNL d   1      -4.466 -17.803  -0.993 -0.05 +0.13    +0.115 C 
DOCKED: BRANCH  31  32
DOCKED: ATOM     32  C   UNL d   1      -4.616 -16.343  -0.624 -0.07 +0.25    +0.139 C 
DOCKED: ATOM     33  O   UNL d   1      -5.423 -16.020   0.234 -0.48 -1.26    -0.650 OA
DOCKED: BRANCH  32  34
DOCKED: ATOM     34  O   UNL d   1      -3.846 -15.379  -1.182 +0.15 -1.80    -0.776 OA
DOCKED: ATOM     35  H   UNL d   1      -3.284 -14.773  -0.679 +0.02 +0.31    +0.167 HD
DOCKED: ENDBRANCH  32  34
DOCKED: ENDBRANCH  31  32
DOCKED: ENDBRANCH  30  31
DOCKED: ENDBRANCH   6  30
DOCKED: BRANCH  29  36
DOCKED: ATOM     36  C   UNL d   1      -0.653 -13.304  -1.653 -0.15 +0.15    +0.190 C 
DOCKED: BRANCH  36  37
DOCKED: ATOM     37  O   UNL d   1      -2.047 -13.232  -1.730 -0.18 -0.52    -0.399 OA
DOCKED: ATOM     38  H   UNL d   1      -2.355 -14.181  -1.704 +0.05 +0.37    +0.209 HD
DOCKED: ENDBRANCH  36  37
DOCKED: ENDBRANCH  29  36
DOCKED: BRANCH  22  39
DOCKED: ATOM     39  C   UNL d   1      -1.495 -17.912  -5.403 -0.12 +0.05    +0.052 C 
DOCKED: BRANCH  39  40
DOCKED: ATOM     40  C   UNL d   1      -2.623 -17.187  -6.155 -0.09 +0.14    +0.115 C 
DOCKED: BRANCH  40  41
DOCKED: ATOM     41  C   UNL d   1      -3.611 -18.107  -6.840 -0.20 +0.21    +0.139 C 
DOCKED: ATOM     42  O   UNL d   1      -3.196 -19.080  -7.454 -0.40 -1.34    -0.650 OA
DOCKED: BRANCH  41  43
DOCKED: ATOM     43  O   UNL d   1      -4.946 -17.934  -6.718 -0.04 -1.27    -0.776 OA
DOCKED: ATOM     44  H   UNL d   1      -5.441 -18.238  -5.947 +0.03 +0.23    +0.167 HD
DOCKED: ENDBRANCH  41  43
DOCKED: ENDBRANCH  40  41
DOCKED: ENDBRANCH  39  40
DOCKED: ENDBRANCH  22  39
DOCKED: BRANCH  12  45
DOCKED: ATOM     45  C   UNL d   1       3.277 -11.597   2.561 -0.29 +0.00    +0.004 C 
DOCKED: ATOM     46  C   UNL d   1       3.712 -11.346   3.793 -0.27 +0.00    +0.012 C 
DOCKED: ENDBRANCH  12  45
DOCKED: BRANCH  17  47
DOCKED: ATOM     47  C   UNL d   1       3.609 -11.904  -5.241 -0.42 +0.00    +0.004 C 
DOCKED: ATOM     48  C   UNL d   1       3.790 -10.624  -5.578 -0.53 +0.00    +0.012 C 
DOCKED: ENDBRANCH  17  47
DOCKED: TORSDOF 12
DOCKED: TER
DOCKED: ENDMDL
________________________________________________________________________________


	BEGINNING GENETIC ALGORITHM DOCKING 83 of 100
Run: 83 Seed: 1902972381 1264880196 [ Run 83 of 100 GA/GALS ]
Beginning LAMARCKIAN GENETIC ALGORITHM (LGA), with a maximum of 25000000 energy evaluations.

Final-Value: -11.725


	FINAL GENETIC ALGORITHM DOCKED STATE
	_______________________________________________


Detailed state:  trans -10.452 -14.752 -3.512 quatxyzw 0.507390 -0.385758 -0.767328 -0.070383 center 8.781 34.984 -0.736 ntor 12 100.2773 115.4648 21.7712 121.1713 134.6071 146.4237 -175.1547 -42.3529 -24.7023 52.9297 -143.0393 73.6494
State:	-10.452 -14.752  -3.512   0.509 -0.387 -0.769 -171.928    100.28  115.46   21.77  121.17  134.61  146.42 -175.15  -42.35  -24.70   52.93 -143.04   73.65

DOCKED: MODEL       83
DOCKED: USER    Run = 83
DOCKED: USER    DPF = D:/Protein_go_brrr/autodock/final/AncA/heme_Co/dock.dpf
DOCKED: USER  
DOCKED: USER    Estimated Free Energy of Binding    =   -7.48 kcal/mol  [=(1)+(2)+(3)-(4)]
DOCKED: USER    Estimated Inhibition Constant, Ki   =    3.28 uM (micromolar)  [Temperature = 298.15 K]
DOCKED: USER    
DOCKED: USER    (1) Final Intermolecular Energy     =  -11.06 kcal/mol
DOCKED: USER        vdW + Hbond + desolv Energy     =   -6.87 kcal/mol
DOCKED: USER        Electrostatic Energy            =   -4.19 kcal/mol
DOCKED: USER    (2) Final Total Internal Energy     =   -0.66 kcal/mol
DOCKED: USER    (3) Torsional Free Energy           =   +3.58 kcal/mol
DOCKED: USER    (4) Unbound System's Energy  [=(2)] =   -0.66 kcal/mol
DOCKED: USER    
DOCKED: USER    
DOCKED: USER    NEWDPF move heme_Co_opt.pdbqt
DOCKED: USER    NEWDPF about 8.781000 34.984000 -0.736000
DOCKED: USER    NEWDPF tran0 -10.451780 -14.751934 -3.511540
DOCKED: USER    NEWDPF quaternion0 0.507390 -0.385758 -0.767328 -0.070383
DOCKED: USER    NEWDPF axisangle0 0.508652 -0.386717 -0.769236 -171.927998
DOCKED: USER    NEWDPF quat0 0.508652 -0.386717 -0.769236 -171.927998
DOCKED: USER    NEWDPF dihe0 100.28 115.46 21.77 121.17 134.61 146.42 -175.15 -42.35 -24.70 52.93 -143.04 73.65 
DOCKED: USER  keepresnum = 1 
DOCKED: USER  
DOCKED: REMARK  12 active torsions:
DOCKED: REMARK  status: ('A' for Active; 'I' for Inactive)
DOCKED: REMARK    1  A    between atoms: C_6  and  C_10 
DOCKED: REMARK    2  A    between atoms: C_10  and  C_11 
DOCKED: REMARK    3  A    between atoms: C_11  and  C_12 
DOCKED: REMARK    4  A    between atoms: C_12  and  O_14 
DOCKED: REMARK    5  A    between atoms: C_17  and  C_20 
DOCKED: REMARK    6  A    between atoms: C_24  and  C_27 
DOCKED: REMARK    7  A    between atoms: C_31  and  C_34 
DOCKED: REMARK    8  A    between atoms: C_34  and  C_35 
DOCKED: REMARK    9  A    between atoms: C_35  and  C_36 
DOCKED: REMARK   10  A    between atoms: C_36  and  O_38 
DOCKED: REMARK   11  A    between atoms: FE_43  and  C_44 
DOCKED: REMARK   12  A    between atoms: C_44  and  O_45 
DOCKED: USER                              x       y       z     vdW  Elec       q    Type
DOCKED: USER                           _______ _______ _______ _____ _____    ______ ____
DOCKED: ROOT
DOCKED: ATOM      1  C   UNL d   1      -8.966 -14.573  -1.938 -0.11 +0.05    +0.064 A 
DOCKED: ATOM      2  C   UNL d   1     -11.921 -11.416  -3.915 -0.36 +0.01    +0.064 C 
DOCKED: ATOM      3  C   UNL d   1     -13.376 -14.696  -7.069 -0.16 +0.01    +0.064 A 
DOCKED: ATOM      4  C   UNL d   1     -10.652 -18.044  -4.825 -0.05 +0.03    +0.064 A 
DOCKED: ATOM      5  C   UNL d   1      -9.640 -13.460  -2.270 -0.14 +0.04    +0.066 A 
DOCKED: ATOM      6  C   UNL d   1      -9.537 -12.273  -1.518 -0.27 -0.01    -0.021 A 
DOCKED: ATOM      7  C   UNL d   1     -10.413 -11.367  -2.083 -0.32 -0.01    -0.025 A 
DOCKED: ATOM      8  C   UNL d   1     -11.001 -12.034  -3.163 -0.22 +0.02    +0.066 A 
DOCKED: ATOM      9  C   UNL d   1     -10.698  -9.926  -1.633 -0.46 +0.01    +0.051 C 
DOCKED: ATOM     10  C   UNL d   1     -12.560 -12.013  -5.061 -0.29 +0.01    +0.066 A 
DOCKED: ATOM     11  C   UNL d   1     -13.427 -11.371  -5.972 -0.32 -0.00    -0.021 A 
DOCKED: ATOM     12  C   UNL d   1     -13.833 -12.350  -6.884 -0.24 +0.00    +0.000 A 
DOCKED: ATOM     13  C   UNL d   1     -13.177 -13.509  -6.470 -0.22 +0.01    +0.070 A 
DOCKED: ATOM     14  C   UNL d   1     -13.755  -9.901  -6.008 -0.41 +0.00    +0.052 C 
DOCKED: ATOM     15  C   UNL d   1     -12.825 -15.996  -6.742 -0.13 +0.01    +0.066 A 
DOCKED: ATOM     16  C   UNL d   1     -13.184 -17.210  -7.311 -0.08 -0.00    -0.021 A 
DOCKED: ATOM     17  C   UNL d   1     -12.403 -18.179  -6.665 -0.05 +0.00    +0.000 A 
DOCKED: ATOM     18  C   UNL d   1     -11.613 -17.475  -5.762 -0.07 +0.02    +0.070 A 
DOCKED: ATOM     19  C   UNL d   1     -14.216 -17.396  -8.401 -0.05 +0.01    +0.052 C 
DOCKED: ATOM     20  C   UNL d   1      -9.937 -17.390  -3.879 -0.05 +0.03    +0.066 A 
DOCKED: ATOM     21  C   UNL d   1      -9.070 -18.052  -3.012 -0.03 -0.01    -0.025 A 
DOCKED: ATOM     22  C   UNL d   1      -8.548 -17.073  -2.187 -0.05 -0.02    -0.021 A 
DOCKED: ATOM     23  C   UNL d   1      -9.135 -15.854  -2.587 -0.08 +0.05    +0.066 A 
DOCKED: ATOM     24  C   UNL d   1      -8.770 -19.547  -2.958 -0.01 +0.03    +0.051 C 
DOCKED: ATOM     25  N   UNL d   1     -10.536 -13.330  -3.306 +0.03 -0.10    -0.248 N 
DOCKED: ATOM     26  N   UNL d   1     -12.364 -13.291  -5.402 -0.11 -0.05    -0.248 N 
DOCKED: ATOM     27  N   UNL d   1     -11.913 -16.182  -5.814 -0.08 -0.07    -0.248 N 
DOCKED: ATOM     28  N   UNL d   1      -9.978 -16.042  -3.609 -0.05 -0.13    -0.248 N 
DOCKED: ATOM     29 FE   UNL d   1     -11.263 -14.843  -4.633 -0.04 +0.00    +0.000 Fe
DOCKED: ENDROOT
DOCKED: BRANCH   6  30
DOCKED: ATOM     30  C   UNL d   1      -8.691 -12.058  -0.267 -0.29 +0.03    +0.052 C 
DOCKED: BRANCH  30  31
DOCKED: ATOM     31  C   UNL d   1      -9.094 -13.045   0.829 -0.25 +0.09    +0.115 C 
DOCKED: BRANCH  31  32
DOCKED: ATOM     32  C   UNL d   1      -7.960 -13.337   1.787 -0.22 +0.17    +0.139 C 
DOCKED: ATOM     33  O   UNL d   1      -7.406 -12.412   2.362 -0.61 -0.92    -0.650 OA
DOCKED: BRANCH  32  34
DOCKED: ATOM     34  O   UNL d   1      -7.567 -14.601   2.070 +0.05 -1.31    -0.776 OA
DOCKED: ATOM     35  H   UNL d   1      -6.832 -15.052   1.633 +0.03 +0.40    +0.167 HD
DOCKED: ENDBRANCH  32  34
DOCKED: ENDBRANCH  31  32
DOCKED: ENDBRANCH  30  31
DOCKED: ENDBRANCH   6  30
DOCKED: BRANCH  29  36
DOCKED: ATOM     36  C   UNL d   1     -12.766 -15.205  -3.217 -0.09 +0.04    +0.190 C 
DOCKED: BRANCH  36  37
DOCKED: ATOM     37  O   UNL d   1     -13.176 -14.880  -1.920 -0.11 -0.06    -0.399 OA
DOCKED: ATOM     38  H   UNL d   1     -12.501 -14.221  -1.595 +0.05 +0.03    +0.209 HD
DOCKED: ENDBRANCH  36  37
DOCKED: ENDBRANCH  29  36
DOCKED: BRANCH  22  39
DOCKED: ATOM     39  C   UNL d   1      -7.587 -17.312  -1.037 -0.04 +0.05    +0.052 C 
DOCKED: BRANCH  39  40
DOCKED: ATOM     40  C   UNL d   1      -7.132 -15.977  -0.424 -0.08 +0.14    +0.115 C 
DOCKED: BRANCH  40  41
DOCKED: ATOM     41  C   UNL d   1      -5.637 -15.868  -0.205 -0.03 +0.26    +0.139 C 
DOCKED: ATOM     42  O   UNL d   1      -4.947 -15.318  -1.052 -0.04 -1.63    -0.650 OA
DOCKED: BRANCH  41  43
DOCKED: ATOM     43  O   UNL d   1      -5.055 -16.284   0.941 -0.22 -1.69    -0.776 OA
DOCKED: ATOM     44  H   UNL d   1      -5.426 -16.992   1.484 +0.00 +0.29    +0.167 HD
DOCKED: ENDBRANCH  41  43
DOCKED: ENDBRANCH  40  41
DOCKED: ENDBRANCH  39  40
DOCKED: ENDBRANCH  22  39
DOCKED: BRANCH  12  45
DOCKED: ATOM     45  C   UNL d   1     -14.746 -12.319  -8.102 -0.23 +0.00    +0.004 C 
DOCKED: ATOM     46  C   UNL d   1     -14.472 -12.479  -9.394 -0.30 +0.00    +0.012 C 
DOCKED: ENDBRANCH  12  45
DOCKED: BRANCH  17  47
DOCKED: ATOM     47  C   UNL d   1     -12.406 -19.664  -6.819 -0.03 +0.00    +0.004 C 
DOCKED: ATOM     48  C   UNL d   1     -11.385 -20.354  -7.334 -0.03 +0.00    +0.012 C 
DOCKED: ENDBRANCH  17  47
DOCKED: TORSDOF 12
DOCKED: TER
DOCKED: ENDMDL
________________________________________________________________________________


	BEGINNING GENETIC ALGORITHM DOCKING 84 of 100
Run: 84 Seed: 259190403 1304010839 [ Run 84 of 100 GA/GALS ]
Beginning LAMARCKIAN GENETIC ALGORITHM (LGA), with a maximum of 25000000 energy evaluations.

Final-Value: -11.863


	FINAL GENETIC ALGORITHM DOCKED STATE
	_______________________________________________


Detailed state:  trans -12.184 -14.482 -1.354 quatxyzw -0.659423 -0.597848 0.453641 0.044152 center 8.781 34.984 -0.736 ntor 12 140.6688 162.8346 -142.8025 137.5105 143.1326 113.2321 -134.0046 65.9875 -128.4441 -55.6001 -173.2741 166.6625
State:	-12.184 -14.482  -1.354  -0.660 -0.598  0.454 174.939    140.67  162.83 -142.80  137.51  143.13  113.23 -134.00   65.99 -128.44  -55.60 -173.27  166.66

DOCKED: MODEL       84
DOCKED: USER    Run = 84
DOCKED: USER    DPF = D:/Protein_go_brrr/autodock/final/AncA/heme_Co/dock.dpf
DOCKED: USER  
DOCKED: USER    Estimated Free Energy of Binding    =   -6.18 kcal/mol  [=(1)+(2)+(3)-(4)]
DOCKED: USER    Estimated Inhibition Constant, Ki   =   29.43 uM (micromolar)  [Temperature = 298.15 K]
DOCKED: USER    
DOCKED: USER    (1) Final Intermolecular Energy     =   -9.76 kcal/mol
DOCKED: USER        vdW + Hbond + desolv Energy     =   -6.79 kcal/mol
DOCKED: USER        Electrostatic Energy            =   -2.97 kcal/mol
DOCKED: USER    (2) Final Total Internal Energy     =   -2.10 kcal/mol
DOCKED: USER    (3) Torsional Free Energy           =   +3.58 kcal/mol
DOCKED: USER    (4) Unbound System's Energy  [=(2)] =   -2.10 kcal/mol
DOCKED: USER    
DOCKED: USER    
DOCKED: USER    NEWDPF move heme_Co_opt.pdbqt
DOCKED: USER    NEWDPF about 8.781000 34.984000 -0.736000
DOCKED: USER    NEWDPF tran0 -12.183804 -14.481535 -1.353904
DOCKED: USER    NEWDPF quaternion0 -0.659423 -0.597848 0.453641 0.044152
DOCKED: USER    NEWDPF axisangle0 -0.660066 -0.598432 0.454084 174.938877
DOCKED: USER    NEWDPF quat0 -0.660066 -0.598432 0.454084 174.938877
DOCKED: USER    NEWDPF dihe0 140.67 162.83 -142.80 137.51 143.13 113.23 -134.00 65.99 -128.44 -55.60 -173.27 166.66 
DOCKED: USER  keepresnum = 1 
DOCKED: USER  
DOCKED: REMARK  12 active torsions:
DOCKED: REMARK  status: ('A' for Active; 'I' for Inactive)
DOCKED: REMARK    1  A    between atoms: C_6  and  C_10 
DOCKED: REMARK    2  A    between atoms: C_10  and  C_11 
DOCKED: REMARK    3  A    between atoms: C_11  and  C_12 
DOCKED: REMARK    4  A    between atoms: C_12  and  O_14 
DOCKED: REMARK    5  A    between atoms: C_17  and  C_20 
DOCKED: REMARK    6  A    between atoms: C_24  and  C_27 
DOCKED: REMARK    7  A    between atoms: C_31  and  C_34 
DOCKED: REMARK    8  A    between atoms: C_34  and  C_35 
DOCKED: REMARK    9  A    between atoms: C_35  and  C_36 
DOCKED: REMARK   10  A    between atoms: C_36  and  O_38 
DOCKED: REMARK   11  A    between atoms: FE_43  and  C_44 
DOCKED: REMARK   12  A    between atoms: C_44  and  O_45 
DOCKED: USER                              x       y       z     vdW  Elec       q    Type
DOCKED: USER                           _______ _______ _______ _____ _____    ______ ____
DOCKED: ROOT
DOCKED: ATOM      1  C   UNL d   1     -11.062 -15.560   0.161 -0.10 +0.02    +0.064 A 
DOCKED: ATOM      2  C   UNL d   1     -15.463 -16.113  -1.554 -0.12 +0.01    +0.064 C 
DOCKED: ATOM      3  C   UNL d   1     -14.963 -12.172  -4.209 -0.22 +0.00    +0.064 A 
DOCKED: ATOM      4  C   UNL d   1     -10.332 -11.803  -2.767 -0.23 +0.02    +0.064 A 
DOCKED: ATOM      5  C   UNL d   1     -12.314 -15.980  -0.085 -0.09 +0.02    +0.066 A 
DOCKED: ATOM      6  C   UNL d   1     -12.824 -17.172   0.465 -0.07 -0.01    -0.021 A 
DOCKED: ATOM      7  C   UNL d   1     -14.093 -17.340  -0.054 -0.07 -0.01    -0.025 A 
DOCKED: ATOM      8  C   UNL d   1     -14.309 -16.235  -0.885 -0.12 +0.01    +0.066 A 
DOCKED: ATOM      9  C   UNL d   1     -15.075 -18.490   0.212 -0.03 +0.01    +0.051 C 
DOCKED: ATOM     10  C   UNL d   1     -15.785 -14.998  -2.410 -0.13 +0.01    +0.066 A 
DOCKED: ATOM     11  C   UNL d   1     -17.028 -14.741  -3.028 -0.10 -0.00    -0.021 A 
DOCKED: ATOM     12  C   UNL d   1     -16.855 -13.584  -3.793 -0.13 +0.00    +0.000 A 
DOCKED: ATOM     13  C   UNL d   1     -15.528 -13.215  -3.576 -0.17 +0.01    +0.070 A 
DOCKED: ATOM     14  C   UNL d   1     -18.307 -15.508  -2.812 -0.05 +0.01    +0.052 C 
DOCKED: ATOM     15  C   UNL d   1     -13.600 -11.684  -4.144 -0.24 +0.00    +0.066 A 
DOCKED: ATOM     16  C   UNL d   1     -13.042 -10.690  -4.935 -0.33 +0.00    -0.021 A 
DOCKED: ATOM     17  C   UNL d   1     -11.706 -10.581  -4.525 -0.43 +0.00    +0.000 A 
DOCKED: ATOM     18  C   UNL d   1     -11.558 -11.510  -3.500 -0.28 +0.01    +0.070 A 
DOCKED: ATOM     19  C   UNL d   1     -13.771  -9.912  -6.009 -0.43 +0.00    +0.052 C 
DOCKED: ATOM     20  C   UNL d   1     -10.142 -12.760  -1.828 -0.21 +0.03    +0.066 A 
DOCKED: ATOM     21  C   UNL d   1      -8.906 -12.969  -1.219 -0.21 -0.02    -0.025 A 
DOCKED: ATOM     22  C   UNL d   1      -9.094 -14.027  -0.349 -0.14 -0.02    -0.021 A 
DOCKED: ATOM     23  C   UNL d   1     -10.442 -14.422  -0.479 -0.10 +0.03    +0.066 A 
DOCKED: ATOM     24  C   UNL d   1      -7.605 -12.211  -1.469 -0.25 +0.04    +0.051 C 
DOCKED: ATOM     25  N   UNL d   1     -13.226 -15.373  -0.918 -0.05 -0.04    -0.248 N 
DOCKED: ATOM     26  N   UNL d   1     -14.898 -14.039  -2.695 -0.13 -0.02    -0.248 N 
DOCKED: ATOM     27  N   UNL d   1     -12.697 -12.169  -3.321 -0.14 -0.02    -0.248 N 
DOCKED: ATOM     28  N   UNL d   1     -11.079 -13.659  -1.375 -0.04 -0.09    -0.248 N 
DOCKED: ATOM     29 FE   UNL d   1     -12.943 -13.675  -2.189 -0.06 +0.00    +0.000 Fe
DOCKED: ENDROOT
DOCKED: BRANCH   6  30
DOCKED: ATOM     30  C   UNL d   1     -12.083 -18.140   1.381 -0.02 +0.01    +0.052 C 
DOCKED: BRANCH  30  31
DOCKED: ATOM     31  C   UNL d   1     -11.335 -19.191   0.561 -0.00 +0.03    +0.115 C 
DOCKED: BRANCH  31  32
DOCKED: ATOM     32  C   UNL d   1     -10.497 -18.576  -0.539 +0.00 +0.05    +0.139 C 
DOCKED: ATOM     33  O   UNL d   1      -9.308 -18.373  -0.346 +0.02 -0.31    -0.650 OA
DOCKED: BRANCH  32  34
DOCKED: ATOM     34  O   UNL d   1     -11.013 -18.284  -1.756 +0.02 -0.27    -0.776 OA
DOCKED: ATOM     35  H   UNL d   1     -10.838 -17.464  -2.237 +0.02 +0.06    +0.167 HD
DOCKED: ENDBRANCH  32  34
DOCKED: ENDBRANCH  31  32
DOCKED: ENDBRANCH  30  31
DOCKED: ENDBRANCH   6  30
DOCKED: BRANCH  29  36
DOCKED: ATOM     36  C   UNL d   1     -12.312 -15.026  -3.663 -0.09 +0.05    +0.190 C 
DOCKED: BRANCH  36  37
DOCKED: ATOM     37  O   UNL d   1     -11.543 -16.177  -3.864 -0.02 -0.13    -0.399 OA
DOCKED: ATOM     38  H   UNL d   1     -11.851 -16.817  -3.163 +0.03 +0.06    +0.209 HD
DOCKED: ENDBRANCH  36  37
DOCKED: ENDBRANCH  29  36
DOCKED: BRANCH  22  39
DOCKED: ATOM     39  C   UNL d   1      -8.015 -14.662   0.510 -0.13 +0.06    +0.052 C 
DOCKED: BRANCH  39  40
DOCKED: ATOM     40  C   UNL d   1      -7.359 -15.841  -0.227 -0.08 +0.14    +0.115 C 
DOCKED: BRANCH  40  41
DOCKED: ATOM     41  C   UNL d   1      -5.876 -15.674  -0.478 -0.11 +0.25    +0.139 C 
DOCKED: ATOM     42  O   UNL d   1      -5.352 -16.286  -1.398 -0.11 -1.44    -0.650 OA
DOCKED: BRANCH  41  43
DOCKED: ATOM     43  O   UNL d   1      -5.129 -14.799   0.232 -0.49 -1.93    -0.776 OA
DOCKED: ATOM     44  H   UNL d   1      -4.473 -14.222  -0.180 +0.03 +0.37    +0.167 HD
DOCKED: ENDBRANCH  41  43
DOCKED: ENDBRANCH  40  41
DOCKED: ENDBRANCH  39  40
DOCKED: ENDBRANCH  22  39
DOCKED: BRANCH  12  45
DOCKED: ATOM     45  C   UNL d   1     -17.792 -12.779  -4.684 -0.11 +0.00    +0.004 C 
DOCKED: ATOM     46  C   UNL d   1     -18.062 -11.477  -4.703 -0.17 +0.00    +0.012 C 
DOCKED: ENDBRANCH  12  45
DOCKED: BRANCH  17  47
DOCKED: ATOM     47  C   UNL d   1     -10.610  -9.722  -5.062 -0.42 +0.00    +0.004 C 
DOCKED: ATOM     48  C   UNL d   1      -9.942  -8.831  -4.325 -0.50 +0.00    +0.012 C 
DOCKED: ENDBRANCH  17  47
DOCKED: TORSDOF 12
DOCKED: TER
DOCKED: ENDMDL
________________________________________________________________________________


	BEGINNING GENETIC ALGORITHM DOCKING 85 of 100
Run: 85 Seed: 1941860764 1040431977 [ Run 85 of 100 GA/GALS ]
Beginning LAMARCKIAN GENETIC ALGORITHM (LGA), with a maximum of 25000000 energy evaluations.

Final-Value: -11.424


	FINAL GENETIC ALGORITHM DOCKED STATE
	_______________________________________________


Detailed state:  trans -11.832 -14.448 -1.610 quatxyzw -0.607712 -0.624789 0.490133 0.009699 center 8.781 34.984 -0.736 ntor 12 -149.9512 114.3593 25.8084 51.9820 143.1178 121.4172 51.3552 99.8065 146.8618 119.5983 -144.9206 19.7201
State:	-11.832 -14.448  -1.610  -0.608 -0.625  0.490 178.889   -149.95  114.36   25.81   51.98  143.12  121.42   51.36   99.81  146.86  119.60 -144.92   19.72

DOCKED: MODEL       85
DOCKED: USER    Run = 85
DOCKED: USER    DPF = D:/Protein_go_brrr/autodock/final/AncA/heme_Co/dock.dpf
DOCKED: USER  
DOCKED: USER    Estimated Free Energy of Binding    =   -5.54 kcal/mol  [=(1)+(2)+(3)-(4)]
DOCKED: USER    Estimated Inhibition Constant, Ki   =   86.39 uM (micromolar)  [Temperature = 298.15 K]
DOCKED: USER    
DOCKED: USER    (1) Final Intermolecular Energy     =   -9.12 kcal/mol
DOCKED: USER        vdW + Hbond + desolv Energy     =   -7.37 kcal/mol
DOCKED: USER        Electrostatic Energy            =   -1.75 kcal/mol
DOCKED: USER    (2) Final Total Internal Energy     =   -2.30 kcal/mol
DOCKED: USER    (3) Torsional Free Energy           =   +3.58 kcal/mol
DOCKED: USER    (4) Unbound System's Energy  [=(2)] =   -2.30 kcal/mol
DOCKED: USER    
DOCKED: USER    
DOCKED: USER    NEWDPF move heme_Co_opt.pdbqt
DOCKED: USER    NEWDPF about 8.781000 34.984000 -0.736000
DOCKED: USER    NEWDPF tran0 -11.832303 -14.447817 -1.610156
DOCKED: USER    NEWDPF quaternion0 -0.607712 -0.624789 0.490133 0.009699
DOCKED: USER    NEWDPF axisangle0 -0.607741 -0.624818 0.490156 178.888581
DOCKED: USER    NEWDPF quat0 -0.607741 -0.624818 0.490156 178.888581
DOCKED: USER    NEWDPF dihe0 -149.95 114.36 25.81 51.98 143.12 121.42 51.36 99.81 146.86 119.60 -144.92 19.72 
DOCKED: USER  keepresnum = 1 
DOCKED: USER  
DOCKED: REMARK  12 active torsions:
DOCKED: REMARK  status: ('A' for Active; 'I' for Inactive)
DOCKED: REMARK    1  A    between atoms: C_6  and  C_10 
DOCKED: REMARK    2  A    between atoms: C_10  and  C_11 
DOCKED: REMARK    3  A    between atoms: C_11  and  C_12 
DOCKED: REMARK    4  A    between atoms: C_12  and  O_14 
DOCKED: REMARK    5  A    between atoms: C_17  and  C_20 
DOCKED: REMARK    6  A    between atoms: C_24  and  C_27 
DOCKED: REMARK    7  A    between atoms: C_31  and  C_34 
DOCKED: REMARK    8  A    between atoms: C_34  and  C_35 
DOCKED: REMARK    9  A    between atoms: C_35  and  C_36 
DOCKED: REMARK   10  A    between atoms: C_36  and  O_38 
DOCKED: REMARK   11  A    between atoms: FE_43  and  C_44 
DOCKED: REMARK   12  A    between atoms: C_44  and  O_45 
DOCKED: USER                              x       y       z     vdW  Elec       q    Type
DOCKED: USER                           _______ _______ _______ _____ _____    ______ ____
DOCKED: ROOT
DOCKED: ATOM      1  C   UNL d   1     -10.447 -15.478  -0.292 -0.08 +0.03    +0.064 A 
DOCKED: ATOM      2  C   UNL d   1     -15.001 -16.282  -1.400 -0.12 +0.01    +0.064 C 
DOCKED: ATOM      3  C   UNL d   1     -15.118 -12.272  -3.995 -0.22 +0.00    +0.064 A 
DOCKED: ATOM      4  C   UNL d   1     -10.362 -11.632  -3.195 -0.18 +0.02    +0.064 A 
DOCKED: ATOM      5  C   UNL d   1     -11.693 -15.973  -0.375 -0.09 +0.02    +0.066 A 
DOCKED: ATOM      6  C   UNL d   1     -12.047 -17.205   0.209 -0.05 -0.01    -0.021 A 
DOCKED: ATOM      7  C   UNL d   1     -13.363 -17.444  -0.135 -0.06 -0.01    -0.025 A 
DOCKED: ATOM      8  C   UNL d   1     -13.760 -16.342  -0.899 -0.12 +0.01    +0.066 A 
DOCKED: ATOM      9  C   UNL d   1     -14.227 -18.660   0.233 -0.02 +0.01    +0.051 C 
DOCKED: ATOM     10  C   UNL d   1     -15.507 -15.176  -2.174 -0.13 +0.01    +0.066 A 
DOCKED: ATOM     11  C   UNL d   1     -16.837 -14.989  -2.608 -0.12 -0.00    -0.021 A 
DOCKED: ATOM     12  C   UNL d   1     -16.843 -13.810  -3.359 -0.15 +0.00    +0.000 A 
DOCKED: ATOM     13  C   UNL d   1     -15.524 -13.361  -3.317 -0.18 +0.01    +0.070 A 
DOCKED: ATOM     14  C   UNL d   1     -18.025 -15.840  -2.238 -0.07 +0.01    +0.052 C 
DOCKED: ATOM     15  C   UNL d   1     -13.790 -11.699  -4.105 -0.23 +0.00    +0.066 A 
DOCKED: ATOM     16  C   UNL d   1     -13.410 -10.658  -4.939 -0.30 +0.00    -0.021 A 
DOCKED: ATOM     17  C   UNL d   1     -12.039 -10.471  -4.714 -0.42 +0.00    +0.000 A 
DOCKED: ATOM     18  C   UNL d   1     -11.693 -11.406  -3.744 -0.30 +0.01    +0.070 A 
DOCKED: ATOM     19  C   UNL d   1     -14.327  -9.910  -5.882 -0.39 +0.00    +0.052 C 
DOCKED: ATOM     20  C   UNL d   1      -9.985 -12.591  -2.316 -0.20 +0.03    +0.066 A 
DOCKED: ATOM     21  C   UNL d   1      -8.667 -12.731  -1.888 -0.22 -0.02    -0.025 A 
DOCKED: ATOM     22  C   UNL d   1      -8.666 -13.813  -1.028 -0.15 -0.02    -0.021 A 
DOCKED: ATOM     23  C   UNL d   1      -9.993 -14.292  -0.982 -0.13 +0.04    +0.066 A 
DOCKED: ATOM     24  C   UNL d   1      -7.461 -11.887  -2.295 -0.26 +0.04    +0.051 C 
DOCKED: ATOM     25  N   UNL d   1     -12.747 -15.411  -1.058 -0.10 -0.05    -0.248 N 
DOCKED: ATOM     26  N   UNL d   1     -14.729 -14.157  -2.554 -0.13 -0.02    -0.248 N 
DOCKED: ATOM     27  N   UNL d   1     -12.754 -12.140  -3.427 -0.14 -0.02    -0.248 N 
DOCKED: ATOM     28  N   UNL d   1     -10.794 -13.556  -1.762 -0.11 -0.09    -0.248 N 
DOCKED: ATOM     29 FE   UNL d   1     -12.748 -13.678  -2.312 -0.06 +0.00    +0.000 Fe
DOCKED: ENDROOT
DOCKED: BRANCH   6  30
DOCKED: ATOM     30  C   UNL d   1     -11.129 -18.139   0.989 -0.01 +0.02    +0.052 C 
DOCKED: BRANCH  30  31
DOCKED: ATOM     31  C   UNL d   1      -9.970 -18.610   0.112 +0.01 +0.05    +0.115 C 
DOCKED: BRANCH  31  32
DOCKED: ATOM     32  C   UNL d   1     -10.379 -18.800  -1.333 +0.00 +0.05    +0.139 C 
DOCKED: ATOM     33  O   UNL d   1     -10.994 -19.805  -1.656 +0.00 -0.20    -0.650 OA
DOCKED: BRANCH  32  34
DOCKED: ATOM     34  O   UNL d   1     -10.128 -17.865  -2.279 +0.03 -0.34    -0.776 OA
DOCKED: ATOM     35  H   UNL d   1     -10.648 -17.755  -3.087 +0.02 +0.07    +0.167 HD
DOCKED: ENDBRANCH  32  34
DOCKED: ENDBRANCH  31  32
DOCKED: ENDBRANCH  30  31
DOCKED: ENDBRANCH   6  30
DOCKED: BRANCH  29  36
DOCKED: ATOM     36  C   UNL d   1     -12.247 -14.960  -3.893 -0.09 +0.05    +0.190 C 
DOCKED: BRANCH  36  37
DOCKED: ATOM     37  O   UNL d   1     -11.538 -16.126  -4.201 -0.02 -0.13    -0.399 OA
DOCKED: ATOM     38  H   UNL d   1     -11.161 -16.434  -3.329 +0.04 +0.08    +0.209 HD
DOCKED: ENDBRANCH  36  37
DOCKED: ENDBRANCH  29  36
DOCKED: BRANCH  22  39
DOCKED: ATOM     39  C   UNL d   1      -7.442 -14.392  -0.343 -0.16 +0.06    +0.052 C 
DOCKED: BRANCH  39  40
DOCKED: ATOM     40  C   UNL d   1      -7.609 -14.358   1.185 -0.12 +0.17    +0.115 C 
DOCKED: BRANCH  40  41
DOCKED: ATOM     41  C   UNL d   1      -7.660 -12.965   1.777 -0.24 +0.19    +0.139 C 
DOCKED: ATOM     42  O   UNL d   1      -6.841 -12.646   2.627 -0.57 -1.26    -0.650 OA
DOCKED: BRANCH  41  43
DOCKED: ATOM     43  O   UNL d   1      -8.532 -12.034   1.330 -0.36 -0.67    -0.776 OA
DOCKED: ATOM     44  H   UNL d   1      -9.407 -12.263   0.991 +0.08 +0.11    +0.167 HD
DOCKED: ENDBRANCH  41  43
DOCKED: ENDBRANCH  40  41
DOCKED: ENDBRANCH  39  40
DOCKED: ENDBRANCH  22  39
DOCKED: BRANCH  12  45
DOCKED: ATOM     45  C   UNL d   1     -17.942 -13.052  -4.092 -0.13 +0.00    +0.004 C 
DOCKED: ATOM     46  C   UNL d   1     -19.186 -12.759  -3.723 -0.12 +0.00    +0.012 C 
DOCKED: ENDBRANCH  12  45
DOCKED: BRANCH  17  47
DOCKED: ATOM     47  C   UNL d   1     -11.083  -9.533  -5.375 -0.55 +0.00    +0.004 C 
DOCKED: ATOM     48  C   UNL d   1     -10.375  -8.614  -4.714 -0.47 +0.00    +0.012 C 
DOCKED: ENDBRANCH  17  47
DOCKED: TORSDOF 12
DOCKED: TER
DOCKED: ENDMDL
________________________________________________________________________________


	BEGINNING GENETIC ALGORITHM DOCKING 86 of 100
Run: 86 Seed: 450029816 292846849 [ Run 86 of 100 GA/GALS ]
Beginning LAMARCKIAN GENETIC ALGORITHM (LGA), with a maximum of 25000000 energy evaluations.

Final-Value: -13.077


	FINAL GENETIC ALGORITHM DOCKED STATE
	_______________________________________________


Detailed state:  trans -0.249 -15.727 -1.746 quatxyzw -0.413648 -0.042603 0.412250 -0.810636 center 8.781 34.984 -0.736 ntor 12 110.5358 144.9396 20.1562 54.6599 138.1530 127.8494 -132.2353 26.5994 -135.5202 -22.0742 -180.0000 168.1874
State:	 -0.249 -15.727  -1.746  -0.706 -0.073  0.704 -71.684    110.54  144.94   20.16   54.66  138.15  127.85 -132.24   26.60 -135.52  -22.07 -180.00  168.19

DOCKED: MODEL       86
DOCKED: USER    Run = 86
DOCKED: USER    DPF = D:/Protein_go_brrr/autodock/final/AncA/heme_Co/dock.dpf
DOCKED: USER  
DOCKED: USER    Estimated Free Energy of Binding    =   -7.53 kcal/mol  [=(1)+(2)+(3)-(4)]
DOCKED: USER    Estimated Inhibition Constant, Ki   =    3.04 uM (micromolar)  [Temperature = 298.15 K]
DOCKED: USER    
DOCKED: USER    (1) Final Intermolecular Energy     =  -11.11 kcal/mol
DOCKED: USER        vdW + Hbond + desolv Energy     =   -6.39 kcal/mol
DOCKED: USER        Electrostatic Energy            =   -4.72 kcal/mol
DOCKED: USER    (2) Final Total Internal Energy     =   -1.97 kcal/mol
DOCKED: USER    (3) Torsional Free Energy           =   +3.58 kcal/mol
DOCKED: USER    (4) Unbound System's Energy  [=(2)] =   -1.97 kcal/mol
DOCKED: USER    
DOCKED: USER    
DOCKED: USER    NEWDPF move heme_Co_opt.pdbqt
DOCKED: USER    NEWDPF about 8.781000 34.984000 -0.736000
DOCKED: USER    NEWDPF tran0 -0.249177 -15.727023 -1.746260
DOCKED: USER    NEWDPF quaternion0 -0.413648 -0.042603 0.412250 -0.810636
DOCKED: USER    NEWDPF axisangle0 -0.706425 -0.072757 0.704038 -71.683780
DOCKED: USER    NEWDPF quat0 -0.706425 -0.072757 0.704038 -71.683780
DOCKED: USER    NEWDPF dihe0 110.54 144.94 20.16 54.66 138.15 127.85 -132.24 26.60 -135.52 -22.07 -180.00 168.19 
DOCKED: USER  keepresnum = 1 
DOCKED: USER  
DOCKED: REMARK  12 active torsions:
DOCKED: REMARK  status: ('A' for Active; 'I' for Inactive)
DOCKED: REMARK    1  A    between atoms: C_6  and  C_10 
DOCKED: REMARK    2  A    between atoms: C_10  and  C_11 
DOCKED: REMARK    3  A    between atoms: C_11  and  C_12 
DOCKED: REMARK    4  A    between atoms: C_12  and  O_14 
DOCKED: REMARK    5  A    between atoms: C_17  and  C_20 
DOCKED: REMARK    6  A    between atoms: C_24  and  C_27 
DOCKED: REMARK    7  A    between atoms: C_31  and  C_34 
DOCKED: REMARK    8  A    between atoms: C_34  and  C_35 
DOCKED: REMARK    9  A    between atoms: C_35  and  C_36 
DOCKED: REMARK   10  A    between atoms: C_36  and  O_38 
DOCKED: REMARK   11  A    between atoms: FE_43  and  C_44 
DOCKED: REMARK   12  A    between atoms: C_44  and  O_45 
DOCKED: USER                              x       y       z     vdW  Elec       q    Type
DOCKED: USER                           _______ _______ _______ _____ _____    ______ ____
DOCKED: ROOT
DOCKED: ATOM      1  C   UNL d   1      -1.487 -17.470  -2.128 -0.04 +0.06    +0.064 A 
DOCKED: ATOM      2  C   UNL d   1      -0.508 -15.056   1.850 -0.10 +0.05    +0.064 C 
DOCKED: ATOM      3  C   UNL d   1       2.593 -12.312  -0.533 -0.18 +0.02    +0.064 A 
DOCKED: ATOM      4  C   UNL d   1       1.325 -14.507  -4.685 -0.18 +0.03    +0.064 A 
DOCKED: ATOM      5  C   UNL d   1      -1.420 -17.036  -0.859 -0.04 +0.06    +0.066 A 
DOCKED: ATOM      6  C   UNL d   1      -2.251 -17.555   0.153 -0.04 -0.02    -0.021 A 
DOCKED: ATOM      7  C   UNL d   1      -1.979 -16.835   1.300 -0.07 -0.02    -0.025 A 
DOCKED: ATOM      8  C   UNL d   1      -0.983 -15.920   0.944 -0.08 +0.05    +0.066 A 
DOCKED: ATOM      9  C   UNL d   1      -2.624 -16.991   2.686 -0.06 +0.06    +0.051 C 
DOCKED: ATOM     10  C   UNL d   1       0.534 -14.097   1.582 -0.13 +0.04    +0.066 A 
DOCKED: ATOM     11  C   UNL d   1       1.173 -13.261   2.523 -0.20 -0.01    -0.021 A 
DOCKED: ATOM     12  C   UNL d   1       2.076 -12.474   1.802 -0.25 +0.00    +0.000 A 
DOCKED: ATOM     13  C   UNL d   1       1.930 -12.896   0.480 -0.16 +0.02    +0.070 A 
DOCKED: ATOM     14  C   UNL d   1       0.988 -13.296   4.019 -0.26 +0.03    +0.052 C 
DOCKED: ATOM     15  C   UNL d   1       2.524 -12.584  -1.956 -0.14 +0.02    +0.066 A 
DOCKED: ATOM     16  C   UNL d   1       3.127 -11.847  -2.965 -0.23 -0.01    -0.021 A 
DOCKED: ATOM     17  C   UNL d   1       2.762 -12.475  -4.164 -0.25 +0.00    +0.000 A 
DOCKED: ATOM     18  C   UNL d   1       1.977 -13.559  -3.790 -0.15 +0.03    +0.070 A 
DOCKED: ATOM     19  C   UNL d   1       3.991 -10.622  -2.760 -0.23 +0.01    +0.052 C 
DOCKED: ATOM     20  C   UNL d   1       0.487 -15.517  -4.349 -0.12 +0.04    +0.066 A 
DOCKED: ATOM     21  C   UNL d   1      -0.106 -16.340  -5.303 -0.16 -0.02    -0.025 A 
DOCKED: ATOM     22  C   UNL d   1      -0.900 -17.222  -4.593 -0.10 -0.02    -0.021 A 
DOCKED: ATOM     23  C   UNL d   1      -0.759 -16.884  -3.231 -0.06 +0.06    +0.066 A 
DOCKED: ATOM     24  C   UNL d   1       0.058 -16.277  -6.819 -0.31 +0.03    +0.051 C 
DOCKED: ATOM     25  N   UNL d   1      -0.613 -16.026  -0.387 -0.03 -0.19    -0.248 N 
DOCKED: ATOM     26  N   UNL d   1       1.039 -13.915   0.357 -0.06 -0.12    -0.248 N 
DOCKED: ATOM     27  N   UNL d   1       1.831 -13.576  -2.469 -0.04 -0.10    -0.248 N 
DOCKED: ATOM     28  N   UNL d   1       0.078 -15.851  -3.078 -0.03 -0.18    -0.248 N 
DOCKED: ATOM     29 FE   UNL d   1       0.681 -14.730  -1.493 -0.02 +0.00    +0.000 Fe
DOCKED: ENDROOT
DOCKED: BRANCH   6  30
DOCKED: ATOM     30  C   UNL d   1      -3.313 -18.637  -0.008 -0.02 +0.04    +0.052 C 
DOCKED: BRANCH  30  31
DOCKED: ATOM     31  C   UNL d   1      -4.692 -18.011  -0.216 -0.04 +0.12    +0.115 C 
DOCKED: BRANCH  31  32
DOCKED: ATOM     32  C   UNL d   1      -4.654 -16.834  -1.166 -0.02 +0.24    +0.139 C 
DOCKED: ATOM     33  O   UNL d   1      -4.961 -16.997  -2.338 +0.12 -1.41    -0.650 OA
DOCKED: BRANCH  32  34
DOCKED: ATOM     34  O   UNL d   1      -4.335 -15.586  -0.751 -0.06 -1.68    -0.776 OA
DOCKED: ATOM     35  H   UNL d   1      -3.493 -15.149  -0.940 +0.02 +0.34    +0.167 HD
DOCKED: ENDBRANCH  32  34
DOCKED: ENDBRANCH  31  32
DOCKED: ENDBRANCH  30  31
DOCKED: ENDBRANCH   6  30
DOCKED: BRANCH  29  36
DOCKED: ATOM     36  C   UNL d   1      -0.973 -13.464  -1.728 -0.15 +0.17    +0.190 C 
DOCKED: BRANCH  36  37
DOCKED: ATOM     37  O   UNL d   1      -2.371 -13.455  -1.782 -0.27 -0.63    -0.399 OA
DOCKED: ATOM     38  H   UNL d   1      -2.655 -14.197  -1.178 +0.05 +0.35    +0.209 HD
DOCKED: ENDBRANCH  36  37
DOCKED: ENDBRANCH  29  36
DOCKED: BRANCH  22  39
DOCKED: ATOM     39  C   UNL d   1      -1.792 -18.288  -5.202 -0.10 +0.05    +0.052 C 
DOCKED: BRANCH  39  40
DOCKED: ATOM     40  C   UNL d   1      -3.202 -17.731  -5.463 -0.16 +0.15    +0.115 C 
DOCKED: BRANCH  40  41
DOCKED: ATOM     41  C   UNL d   1      -3.939 -18.405  -6.601 -0.16 +0.22    +0.139 C 
DOCKED: ATOM     42  O   UNL d   1      -5.146 -18.242  -6.711 -0.06 -1.09    -0.650 OA
DOCKED: BRANCH  41  43
DOCKED: ATOM     43  O   UNL d   1      -3.287 -19.112  -7.550 -0.36 -1.75    -0.776 OA
DOCKED: ATOM     44  H   UNL d   1      -2.436 -19.540  -7.386 +0.03 +0.23    +0.167 HD
DOCKED: ENDBRANCH  41  43
DOCKED: ENDBRANCH  40  41
DOCKED: ENDBRANCH  39  40
DOCKED: ENDBRANCH  22  39
DOCKED: BRANCH  12  45
DOCKED: ATOM     45  C   UNL d   1       3.066 -11.392   2.210 -0.34 +0.00    +0.004 C 
DOCKED: ATOM     46  C   UNL d   1       3.952 -11.358   3.202 -0.24 +0.00    +0.012 C 
DOCKED: ENDBRANCH  12  45
DOCKED: BRANCH  17  47
DOCKED: ATOM     47  C   UNL d   1       3.065 -12.087  -5.575 -0.39 +0.00    +0.004 C 
DOCKED: ATOM     48  C   UNL d   1       3.794 -12.836  -6.405 -0.50 +0.00    +0.012 C 
DOCKED: ENDBRANCH  17  47
DOCKED: TORSDOF 12
DOCKED: TER
DOCKED: ENDMDL
________________________________________________________________________________


	BEGINNING GENETIC ALGORITHM DOCKING 87 of 100
Run: 87 Seed: 1491836250 617439517 [ Run 87 of 100 GA/GALS ]
Beginning LAMARCKIAN GENETIC ALGORITHM (LGA), with a maximum of 25000000 energy evaluations.

Final-Value: -12.741


	FINAL GENETIC ALGORITHM DOCKED STATE
	_______________________________________________


Detailed state:  trans -0.360 -15.910 -1.610 quatxyzw -0.395722 -0.049163 0.429239 -0.810396 center 8.781 34.984 -0.736 ntor 12 -103.7966 167.2845 57.4495 28.0080 117.5379 111.4055 25.6958 -99.6074 -178.7414 -44.6894 -176.3485 -159.1607
State:	 -0.360 -15.910  -1.610  -0.675 -0.084  0.733 -71.731   -103.80  167.28   57.45   28.01  117.54  111.41   25.70  -99.61 -178.74  -44.69 -176.35 -159.16

DOCKED: MODEL       87
DOCKED: USER    Run = 87
DOCKED: USER    DPF = D:/Protein_go_brrr/autodock/final/AncA/heme_Co/dock.dpf
DOCKED: USER  
DOCKED: USER    Estimated Free Energy of Binding    =   -7.15 kcal/mol  [=(1)+(2)+(3)-(4)]
DOCKED: USER    Estimated Inhibition Constant, Ki   =    5.71 uM (micromolar)  [Temperature = 298.15 K]
DOCKED: USER    
DOCKED: USER    (1) Final Intermolecular Energy     =  -10.73 kcal/mol
DOCKED: USER        vdW + Hbond + desolv Energy     =   -6.27 kcal/mol
DOCKED: USER        Electrostatic Energy            =   -4.46 kcal/mol
DOCKED: USER    (2) Final Total Internal Energy     =   -2.01 kcal/mol
DOCKED: USER    (3) Torsional Free Energy           =   +3.58 kcal/mol
DOCKED: USER    (4) Unbound System's Energy  [=(2)] =   -2.01 kcal/mol
DOCKED: USER    
DOCKED: USER    
DOCKED: USER    NEWDPF move heme_Co_opt.pdbqt
DOCKED: USER    NEWDPF about 8.781000 34.984000 -0.736000
DOCKED: USER    NEWDPF tran0 -0.359979 -15.909514 -1.609775
DOCKED: USER    NEWDPF quaternion0 -0.395722 -0.049163 0.429239 -0.810396
DOCKED: USER    NEWDPF axisangle0 -0.675428 -0.083913 0.732636 -71.730738
DOCKED: USER    NEWDPF quat0 -0.675428 -0.083913 0.732636 -71.730738
DOCKED: USER    NEWDPF dihe0 -103.80 167.28 57.45 28.01 117.54 111.41 25.70 -99.61 -178.74 -44.69 -176.35 -159.16 
DOCKED: USER  keepresnum = 1 
DOCKED: USER  
DOCKED: REMARK  12 active torsions:
DOCKED: REMARK  status: ('A' for Active; 'I' for Inactive)
DOCKED: REMARK    1  A    between atoms: C_6  and  C_10 
DOCKED: REMARK    2  A    between atoms: C_10  and  C_11 
DOCKED: REMARK    3  A    between atoms: C_11  and  C_12 
DOCKED: REMARK    4  A    between atoms: C_12  and  O_14 
DOCKED: REMARK    5  A    between atoms: C_17  and  C_20 
DOCKED: REMARK    6  A    between atoms: C_24  and  C_27 
DOCKED: REMARK    7  A    between atoms: C_31  and  C_34 
DOCKED: REMARK    8  A    between atoms: C_34  and  C_35 
DOCKED: REMARK    9  A    between atoms: C_35  and  C_36 
DOCKED: REMARK   10  A    between atoms: C_36  and  O_38 
DOCKED: REMARK   11  A    between atoms: FE_43  and  C_44 
DOCKED: REMARK   12  A    between atoms: C_44  and  O_45 
DOCKED: USER                              x       y       z     vdW  Elec       q    Type
DOCKED: USER                           _______ _______ _______ _____ _____    ______ ____
DOCKED: ROOT
DOCKED: ATOM      1  C   UNL d   1      -1.544 -17.681  -2.027 -0.03 +0.06    +0.064 A 
DOCKED: ATOM      2  C   UNL d   1      -0.574 -15.365   2.011 -0.09 +0.05    +0.064 C 
DOCKED: ATOM      3  C   UNL d   1       2.386 -12.438  -0.335 -0.18 +0.02    +0.064 A 
DOCKED: ATOM      4  C   UNL d   1       1.116 -14.541  -4.534 -0.17 +0.03    +0.064 A 
DOCKED: ATOM      5  C   UNL d   1      -1.468 -17.287  -0.746 -0.03 +0.05    +0.066 A 
DOCKED: ATOM      6  C   UNL d   1      -2.262 -17.867   0.263 -0.03 -0.02    -0.021 A 
DOCKED: ATOM      7  C   UNL d   1      -1.993 -17.176   1.428 -0.07 -0.02    -0.025 A 
DOCKED: ATOM      8  C   UNL d   1      -1.036 -16.215   1.085 -0.08 +0.05    +0.066 A 
DOCKED: ATOM      9  C   UNL d   1      -2.607 -17.399   2.819 -0.06 +0.05    +0.051 C 
DOCKED: ATOM     10  C   UNL d   1       0.429 -14.362   1.757 -0.12 +0.04    +0.066 A 
DOCKED: ATOM     11  C   UNL d   1       1.057 -13.535   2.714 -0.19 -0.01    -0.021 A 
DOCKED: ATOM     12  C   UNL d   1       1.918 -12.694   2.003 -0.23 +0.00    +0.000 A 
DOCKED: ATOM     13  C   UNL d   1       1.762 -13.078   0.671 -0.15 +0.03    +0.070 A 
DOCKED: ATOM     14  C   UNL d   1       0.901 -13.625   4.210 -0.22 +0.03    +0.052 C 
DOCKED: ATOM     15  C   UNL d   1       2.299 -12.666  -1.764 -0.13 +0.02    +0.066 A 
DOCKED: ATOM     16  C   UNL d   1       2.857 -11.876  -2.758 -0.23 -0.01    -0.021 A 
DOCKED: ATOM     17  C   UNL d   1       2.492 -12.477  -3.972 -0.25 +0.00    +0.000 A 
DOCKED: ATOM     18  C   UNL d   1       1.751 -13.600  -3.619 -0.14 +0.03    +0.070 A 
DOCKED: ATOM     19  C   UNL d   1       3.682 -10.629  -2.529 -0.08 +0.01    +0.052 C 
DOCKED: ATOM     20  C   UNL d   1       0.320 -15.590  -4.216 -0.11 +0.05    +0.066 A 
DOCKED: ATOM     21  C   UNL d   1      -0.263 -16.401  -5.187 -0.15 -0.02    -0.025 A 
DOCKED: ATOM     22  C   UNL d   1      -1.012 -17.333  -4.493 -0.10 -0.02    -0.021 A 
DOCKED: ATOM     23  C   UNL d   1      -0.858 -17.034  -3.123 -0.06 +0.06    +0.066 A 
DOCKED: ATOM     24  C   UNL d   1      -0.129 -16.283  -6.703 -0.30 +0.03    +0.051 C 
DOCKED: ATOM     25  N   UNL d   1      -0.688 -16.265  -0.255 -0.02 -0.19    -0.248 N 
DOCKED: ATOM     26  N   UNL d   1       0.904 -14.123   0.529 -0.06 -0.13    -0.248 N 
DOCKED: ATOM     27  N   UNL d   1       1.631 -13.664  -2.298 -0.04 -0.11    -0.248 N 
DOCKED: ATOM     28  N   UNL d   1      -0.054 -15.978  -2.951 -0.03 -0.19    -0.248 N 
DOCKED: ATOM     29 FE   UNL d   1       0.540 -14.889  -1.340 -0.02 +0.00    +0.000 Fe
DOCKED: ENDROOT
DOCKED: BRANCH   6  30
DOCKED: ATOM     30  C   UNL d   1      -3.289 -18.980   0.085 -0.01 +0.04    +0.052 C 
DOCKED: BRANCH  30  31
DOCKED: ATOM     31  C   UNL d   1      -4.678 -18.395  -0.168 -0.02 +0.10    +0.115 C 
DOCKED: BRANCH  31  32
DOCKED: ATOM     32  C   UNL d   1      -4.676 -16.881  -0.160 -0.09 +0.21    +0.139 C 
DOCKED: ATOM     33  O   UNL d   1      -5.113 -16.285   0.813 -0.27 -1.37    -0.650 OA
DOCKED: BRANCH  32  34
DOCKED: ATOM     34  O   UNL d   1      -4.159 -16.159  -1.181 +0.01 -1.60    -0.776 OA
DOCKED: ATOM     35  H   UNL d   1      -3.331 -15.663  -1.131 +0.02 +0.33    +0.167 HD
DOCKED: ENDBRANCH  32  34
DOCKED: ENDBRANCH  31  32
DOCKED: ENDBRANCH  30  31
DOCKED: ENDBRANCH   6  30
DOCKED: BRANCH  29  36
DOCKED: ATOM     36  C   UNL d   1      -1.161 -13.675  -1.504 -0.16 +0.18    +0.190 C 
DOCKED: BRANCH  36  37
DOCKED: ATOM     37  O   UNL d   1      -2.533 -13.710  -1.773 -0.23 -0.71    -0.399 OA
DOCKED: ATOM     38  H   UNL d   1      -2.903 -14.379  -1.132 +0.04 +0.38    +0.209 HD
DOCKED: ENDBRANCH  36  37
DOCKED: ENDBRANCH  29  36
DOCKED: BRANCH  22  39
DOCKED: ATOM     39  C   UNL d   1      -1.879 -18.409  -5.121 -0.09 +0.05    +0.052 C 
DOCKED: BRANCH  39  40
DOCKED: ATOM     40  C   UNL d   1      -2.935 -17.783  -6.046 -0.20 +0.14    +0.115 C 
DOCKED: BRANCH  40  41
DOCKED: ATOM     41  C   UNL d   1      -3.000 -18.399  -7.428 +0.08 +0.23    +0.139 C 
DOCKED: ATOM     42  O   UNL d   1      -2.861 -19.608  -7.551 -0.31 -1.19    -0.650 OA
DOCKED: BRANCH  41  43
DOCKED: ATOM     43  O   UNL d   1      -3.293 -17.662  -8.521 -0.36 -1.33    -0.776 OA
DOCKED: ATOM     44  H   UNL d   1      -2.725 -16.945  -8.832 +0.07 +0.17    +0.167 HD
DOCKED: ENDBRANCH  41  43
DOCKED: ENDBRANCH  40  41
DOCKED: ENDBRANCH  39  40
DOCKED: ENDBRANCH  22  39
DOCKED: BRANCH  12  45
DOCKED: ATOM     45  C   UNL d   1       2.878 -11.592   2.429 -0.34 +0.00    +0.004 C 
DOCKED: ATOM     46  C   UNL d   1       3.429 -11.333   3.611 -0.30 +0.00    +0.012 C 
DOCKED: ENDBRANCH  12  45
DOCKED: BRANCH  17  47
DOCKED: ATOM     47  C   UNL d   1       2.754 -12.033  -5.373 -0.24 +0.00    +0.004 C 
DOCKED: ATOM     48  C   UNL d   1       3.775 -12.480  -6.109 -0.49 +0.00    +0.012 C 
DOCKED: ENDBRANCH  17  47
DOCKED: TORSDOF 12
DOCKED: TER
DOCKED: ENDMDL
________________________________________________________________________________


	BEGINNING GENETIC ALGORITHM DOCKING 88 of 100
Run: 88 Seed: 1542886913 1400968733 [ Run 88 of 100 GA/GALS ]
Beginning LAMARCKIAN GENETIC ALGORITHM (LGA), with a maximum of 25000000 energy evaluations.

Final-Value: -9.712


	FINAL GENETIC ALGORITHM DOCKED STATE
	_______________________________________________


Detailed state:  trans -1.793 2.838 -16.182 quatxyzw -0.312480 0.076617 0.760551 0.563958 center 8.781 34.984 -0.736 ntor 12 75.5107 173.4048 13.9365 14.4238 -104.9290 -96.5913 144.0331 -147.4625 63.5206 40.1245 171.5535 -70.2623
State:	 -1.793   2.838 -16.182  -0.378  0.093  0.921 111.340     75.51  173.40   13.94   14.42 -104.93  -96.59  144.03 -147.46   63.52   40.12  171.55  -70.26

DOCKED: MODEL       88
DOCKED: USER    Run = 88
DOCKED: USER    DPF = D:/Protein_go_brrr/autodock/final/AncA/heme_Co/dock.dpf
DOCKED: USER  
DOCKED: USER    Estimated Free Energy of Binding    =   -5.71 kcal/mol  [=(1)+(2)+(3)-(4)]
DOCKED: USER    Estimated Inhibition Constant, Ki   =   64.89 uM (micromolar)  [Temperature = 298.15 K]
DOCKED: USER    
DOCKED: USER    (1) Final Intermolecular Energy     =   -9.29 kcal/mol
DOCKED: USER        vdW + Hbond + desolv Energy     =   -6.51 kcal/mol
DOCKED: USER        Electrostatic Energy            =   -2.78 kcal/mol
DOCKED: USER    (2) Final Total Internal Energy     =   -0.42 kcal/mol
DOCKED: USER    (3) Torsional Free Energy           =   +3.58 kcal/mol
DOCKED: USER    (4) Unbound System's Energy  [=(2)] =   -0.42 kcal/mol
DOCKED: USER    
DOCKED: USER    
DOCKED: USER    NEWDPF move heme_Co_opt.pdbqt
DOCKED: USER    NEWDPF about 8.781000 34.984000 -0.736000
DOCKED: USER    NEWDPF tran0 -1.793059 2.837725 -16.182018
DOCKED: USER    NEWDPF quaternion0 -0.312480 0.076617 0.760551 0.563958
DOCKED: USER    NEWDPF axisangle0 -0.378395 0.092778 0.920983 111.340133
DOCKED: USER    NEWDPF quat0 -0.378395 0.092778 0.920983 111.340133
DOCKED: USER    NEWDPF dihe0 75.51 173.40 13.94 14.42 -104.93 -96.59 144.03 -147.46 63.52 40.12 171.55 -70.26 
DOCKED: USER  keepresnum = 1 
DOCKED: USER  
DOCKED: REMARK  12 active torsions:
DOCKED: REMARK  status: ('A' for Active; 'I' for Inactive)
DOCKED: REMARK    1  A    between atoms: C_6  and  C_10 
DOCKED: REMARK    2  A    between atoms: C_10  and  C_11 
DOCKED: REMARK    3  A    between atoms: C_11  and  C_12 
DOCKED: REMARK    4  A    between atoms: C_12  and  O_14 
DOCKED: REMARK    5  A    between atoms: C_17  and  C_20 
DOCKED: REMARK    6  A    between atoms: C_24  and  C_27 
DOCKED: REMARK    7  A    between atoms: C_31  and  C_34 
DOCKED: REMARK    8  A    between atoms: C_34  and  C_35 
DOCKED: REMARK    9  A    between atoms: C_35  and  C_36 
DOCKED: REMARK   10  A    between atoms: C_36  and  O_38 
DOCKED: REMARK   11  A    between atoms: FE_43  and  C_44 
DOCKED: REMARK   12  A    between atoms: C_44  and  O_45 
DOCKED: USER                              x       y       z     vdW  Elec       q    Type
DOCKED: USER                           _______ _______ _______ _____ _____    ______ ____
DOCKED: ROOT
DOCKED: ATOM      1  C   UNL d   1      -0.585   4.615 -15.869 -0.04 +0.01    +0.064 A 
DOCKED: ATOM      2  C   UNL d   1      -5.050   3.530 -14.645 -0.11 +0.00    +0.064 C 
DOCKED: ATOM      3  C   UNL d   1      -4.739  -0.601 -17.024 -0.16 -0.00    +0.064 A 
DOCKED: ATOM      4  C   UNL d   1      -0.053   0.308 -17.963 -0.11 +0.00    +0.064 A 
DOCKED: ATOM      5  C   UNL d   1      -1.840   4.639 -15.391 -0.03 +0.01    +0.066 A 
DOCKED: ATOM      6  C   UNL d   1      -2.304   5.678 -14.561 -0.04 -0.00    -0.021 A 
DOCKED: ATOM      7  C   UNL d   1      -3.592   5.347 -14.190 -0.06 -0.01    -0.025 A 
DOCKED: ATOM      8  C   UNL d   1      -3.865   4.129 -14.822 -0.04 +0.01    +0.066 A 
DOCKED: ATOM      9  C   UNL d   1      -4.542   6.136 -13.277 -0.15 +0.02    +0.051 C 
DOCKED: ATOM     10  C   UNL d   1      -5.430   2.290 -15.274 -0.11 -0.00    +0.066 A 
DOCKED: ATOM     11  C   UNL d   1      -6.704   1.683 -15.241 -0.22 +0.00    -0.021 A 
DOCKED: ATOM     12  C   UNL d   1      -6.586   0.482 -15.946 -0.16 -0.00    +0.000 A 
DOCKED: ATOM     13  C   UNL d   1      -5.256   0.451 -16.366 -0.14 -0.00    +0.070 A 
DOCKED: ATOM     14  C   UNL d   1      -7.959   2.275 -14.653 -0.28 -0.01    +0.052 C 
DOCKED: ATOM     15  C   UNL d   1      -3.382  -0.822 -17.485 -0.15 -0.00    +0.066 A 
DOCKED: ATOM     16  C   UNL d   1      -2.878  -1.994 -18.030 -0.21 +0.00    -0.021 A 
DOCKED: ATOM     17  C   UNL d   1      -1.526  -1.738 -18.300 -0.21 -0.00    +0.000 A 
DOCKED: ATOM     18  C   UNL d   1      -1.316  -0.419 -17.912 -0.12 -0.00    +0.070 A 
DOCKED: ATOM     19  C   UNL d   1      -3.668  -3.263 -18.263 -0.31 -0.01    +0.052 C 
DOCKED: ATOM     20  C   UNL d   1       0.196   1.560 -17.512 -0.10 +0.00    +0.066 A 
DOCKED: ATOM     21  C   UNL d   1       1.462   2.138 -17.584 -0.07 -0.00    -0.025 A 
DOCKED: ATOM     22  C   UNL d   1       1.332   3.392 -17.014 -0.09 -0.00    -0.021 A 
DOCKED: ATOM     23  C   UNL d   1      -0.014   3.512 -16.609 -0.07 +0.00    +0.066 A 
DOCKED: ATOM     24  C   UNL d   1       2.737   1.520 -18.149 +0.00 +0.01    +0.051 C 
DOCKED: ATOM     25  N   UNL d   1      -2.799   3.669 -15.577 -0.01 -0.02    -0.248 N 
DOCKED: ATOM     26  N   UNL d   1      -4.573   1.571 -16.007 -0.04 +0.00    -0.248 N 
DOCKED: ATOM     27  N   UNL d   1      -2.434   0.085 -17.403 -0.06 +0.00    -0.248 N 
DOCKED: ATOM     28  N   UNL d   1      -0.705   2.405 -16.907 -0.05 -0.01    -0.248 N 
DOCKED: ATOM     29 FE   UNL d   1      -2.603   1.772 -16.545 -0.02 +0.00    +0.000 Fe
DOCKED: ENDROOT
DOCKED: BRANCH   6  30
DOCKED: ATOM     30  C   UNL d   1      -1.506   6.889 -14.088 -0.05 +0.01    +0.052 C 
DOCKED: BRANCH  30  31
DOCKED: ATOM     31  C   UNL d   1      -1.092   6.721 -12.626 -0.11 +0.03    +0.115 C 
DOCKED: BRANCH  31  32
DOCKED: ATOM     32  C   UNL d   1      -1.675   7.795 -11.734 -0.10 +0.09    +0.139 C 
DOCKED: ATOM     33  O   UNL d   1      -2.586   8.495 -12.152 -0.41 -0.95    -0.650 OA
DOCKED: BRANCH  32  34
DOCKED: ATOM     34  O   UNL d   1      -1.252   7.979 -10.461 +0.04 -0.28    -0.776 OA
DOCKED: ATOM     35  H   UNL d   1      -0.391   8.349 -10.223 +0.06 -0.01    +0.167 HD
DOCKED: ENDBRANCH  32  34
DOCKED: ENDBRANCH  31  32
DOCKED: ENDBRANCH  30  31
DOCKED: ENDBRANCH   6  30
DOCKED: BRANCH  29  36
DOCKED: ATOM     36  C   UNL d   1      -2.018   1.008 -14.683 -0.26 -0.01    +0.190 C 
DOCKED: BRANCH  36  37
DOCKED: ATOM     37  O   UNL d   1      -2.443   0.190 -13.631 -0.18 +0.06    -0.399 OA
DOCKED: ATOM     38  H   UNL d   1      -2.594  -0.704 -14.047 -0.37 -0.08    +0.209 HD
DOCKED: ENDBRANCH  36  37
DOCKED: ENDBRANCH  29  36
DOCKED: BRANCH  22  39
DOCKED: ATOM     39  C   UNL d   1       2.459   4.388 -16.814 -0.10 +0.01    +0.052 C 
DOCKED: BRANCH  39  40
DOCKED: ATOM     40  C   UNL d   1       3.515   4.243 -17.922 -0.06 +0.05    +0.115 C 
DOCKED: BRANCH  40  41
DOCKED: ATOM     41  C   UNL d   1       4.936   4.498 -17.468 -0.05 +0.14    +0.139 C 
DOCKED: ATOM     42  O   UNL d   1       5.135   4.956 -16.352 -0.52 -1.01    -0.650 OA
DOCKED: BRANCH  41  43
DOCKED: ATOM     43  O   UNL d   1       5.998   4.153 -18.230 -0.17 -0.94    -0.776 OA
DOCKED: ATOM     44  H   UNL d   1       5.928   4.003 -19.182 +0.02 +0.11    +0.167 HD
DOCKED: ENDBRANCH  41  43
DOCKED: ENDBRANCH  40  41
DOCKED: ENDBRANCH  39  40
DOCKED: ENDBRANCH  22  39
DOCKED: BRANCH  12  45
DOCKED: ATOM     45  C   UNL d   1      -7.576  -0.624 -16.285 -0.15 -0.00    +0.004 C 
DOCKED: ATOM     46  C   UNL d   1      -8.888  -0.705 -16.082 -0.32 -0.01    +0.012 C 
DOCKED: ENDBRANCH  12  45
DOCKED: BRANCH  17  47
DOCKED: ATOM     47  C   UNL d   1      -0.470  -2.650 -18.832 -0.28 -0.00    +0.004 C 
DOCKED: ATOM     48  C   UNL d   1       0.703  -2.851 -18.228 -0.36 -0.00    +0.012 C 
DOCKED: ENDBRANCH  17  47
DOCKED: TORSDOF 12
DOCKED: TER
DOCKED: ENDMDL
________________________________________________________________________________


	BEGINNING GENETIC ALGORITHM DOCKING 89 of 100
Run: 89 Seed: 1122714811 128044073 [ Run 89 of 100 GA/GALS ]
Beginning LAMARCKIAN GENETIC ALGORITHM (LGA), with a maximum of 25000000 energy evaluations.

Final-Value: -10.803


	FINAL GENETIC ALGORITHM DOCKED STATE
	_______________________________________________


Detailed state:  trans -11.469 -14.895 1.962 quatxyzw 0.262770 0.352826 -0.852799 -0.281423 center 8.781 34.984 -0.736 ntor 12 144.4873 111.9921 -156.5111 116.2940 142.4341 110.2939 -108.0843 75.5374 -130.2391 128.7842 -179.6728 -172.1065
State:	-11.469 -14.895   1.962   0.274  0.368 -0.889 -147.310    144.49  111.99 -156.51  116.29  142.43  110.29 -108.08   75.54 -130.24  128.78 -179.67 -172.11

DOCKED: MODEL       89
DOCKED: USER    Run = 89
DOCKED: USER    DPF = D:/Protein_go_brrr/autodock/final/AncA/heme_Co/dock.dpf
DOCKED: USER  
DOCKED: USER    Estimated Free Energy of Binding    =   -4.10 kcal/mol  [=(1)+(2)+(3)-(4)]
DOCKED: USER    Estimated Inhibition Constant, Ki   =  994.14 uM (micromolar)  [Temperature = 298.15 K]
DOCKED: USER    
DOCKED: USER    (1) Final Intermolecular Energy     =   -7.68 kcal/mol
DOCKED: USER        vdW + Hbond + desolv Energy     =   -4.89 kcal/mol
DOCKED: USER        Electrostatic Energy            =   -2.79 kcal/mol
DOCKED: USER    (2) Final Total Internal Energy     =   -3.13 kcal/mol
DOCKED: USER    (3) Torsional Free Energy           =   +3.58 kcal/mol
DOCKED: USER    (4) Unbound System's Energy  [=(2)] =   -3.13 kcal/mol
DOCKED: USER    
DOCKED: USER    
DOCKED: USER    NEWDPF move heme_Co_opt.pdbqt
DOCKED: USER    NEWDPF about 8.781000 34.984000 -0.736000
DOCKED: USER    NEWDPF tran0 -11.468835 -14.895148 1.962209
DOCKED: USER    NEWDPF quaternion0 0.262770 0.352826 -0.852799 -0.281423
DOCKED: USER    NEWDPF axisangle0 0.273837 0.367687 -0.888718 -147.309721
DOCKED: USER    NEWDPF quat0 0.273837 0.367687 -0.888718 -147.309721
DOCKED: USER    NEWDPF dihe0 144.49 111.99 -156.51 116.29 142.43 110.29 -108.08 75.54 -130.24 128.78 -179.67 -172.11 
DOCKED: USER  keepresnum = 1 
DOCKED: USER  
DOCKED: REMARK  12 active torsions:
DOCKED: REMARK  status: ('A' for Active; 'I' for Inactive)
DOCKED: REMARK    1  A    between atoms: C_6  and  C_10 
DOCKED: REMARK    2  A    between atoms: C_10  and  C_11 
DOCKED: REMARK    3  A    between atoms: C_11  and  C_12 
DOCKED: REMARK    4  A    between atoms: C_12  and  O_14 
DOCKED: REMARK    5  A    between atoms: C_17  and  C_20 
DOCKED: REMARK    6  A    between atoms: C_24  and  C_27 
DOCKED: REMARK    7  A    between atoms: C_31  and  C_34 
DOCKED: REMARK    8  A    between atoms: C_34  and  C_35 
DOCKED: REMARK    9  A    between atoms: C_35  and  C_36 
DOCKED: REMARK   10  A    between atoms: C_36  and  O_38 
DOCKED: REMARK   11  A    between atoms: FE_43  and  C_44 
DOCKED: REMARK   12  A    between atoms: C_44  and  O_45 
DOCKED: USER                              x       y       z     vdW  Elec       q    Type
DOCKED: USER                           _______ _______ _______ _____ _____    ______ ____
DOCKED: ROOT
DOCKED: ATOM      1  C   UNL d   1      -9.563 -13.984   2.466 -0.19 +0.04    +0.064 A 
DOCKED: ATOM      2  C   UNL d   1     -13.151 -15.578   5.149 -0.16 +0.02    +0.064 C 
DOCKED: ATOM      3  C   UNL d   1     -15.733 -16.473   1.229 -0.11 +0.01    +0.064 A 
DOCKED: ATOM      4  C   UNL d   1     -11.940 -15.212  -1.542 -0.12 +0.02    +0.064 A 
DOCKED: ATOM      5  C   UNL d   1     -10.368 -14.320   3.488 -0.20 +0.03    +0.066 A 
DOCKED: ATOM      6  C   UNL d   1      -9.936 -14.266   4.828 -0.23 -0.01    -0.021 A 
DOCKED: ATOM      7  C   UNL d   1     -10.973 -14.751   5.600 -0.20 -0.01    -0.025 A 
DOCKED: ATOM      8  C   UNL d   1     -11.998 -15.065   4.701 -0.13 +0.03    +0.066 A 
DOCKED: ATOM      9  C   UNL d   1     -11.013 -14.920   7.127 -0.19 +0.02    +0.051 C 
DOCKED: ATOM     10  C   UNL d   1     -14.271 -15.907   4.302 -0.19 +0.01    +0.066 A 
DOCKED: ATOM     11  C   UNL d   1     -15.555 -16.316   4.723 -0.14 -0.00    -0.021 A 
DOCKED: ATOM     12  C   UNL d   1     -16.289 -16.566   3.560 -0.14 +0.00    +0.000 A 
DOCKED: ATOM     13  C   UNL d   1     -15.405 -16.280   2.519 -0.16 +0.01    +0.070 A 
DOCKED: ATOM     14  C   UNL d   1     -16.055 -16.364   6.144 -0.11 +0.00    +0.052 C 
DOCKED: ATOM     15  C   UNL d   1     -14.931 -16.281   0.037 -0.12 +0.01    +0.066 A 
DOCKED: ATOM     16  C   UNL d   1     -15.282 -16.637  -1.257 -0.10 -0.00    -0.021 A 
DOCKED: ATOM     17  C   UNL d   1     -14.190 -16.277  -2.060 -0.10 +0.00    +0.000 A 
DOCKED: ATOM     18  C   UNL d   1     -13.263 -15.713  -1.191 -0.13 +0.01    +0.070 A 
DOCKED: ATOM     19  C   UNL d   1     -16.588 -17.281  -1.666 -0.05 +0.01    +0.052 C 
DOCKED: ATOM     20  C   UNL d   1     -10.988 -14.739  -0.703 -0.08 +0.03    +0.066 A 
DOCKED: ATOM     21  C   UNL d   1      -9.739 -14.319  -1.156 -0.13 -0.01    -0.025 A 
DOCKED: ATOM     22  C   UNL d   1      -9.042 -13.932  -0.026 -0.15 -0.02    -0.021 A 
DOCKED: ATOM     23  C   UNL d   1      -9.904 -14.148   1.071 -0.15 +0.04    +0.066 A 
DOCKED: ATOM     24  C   UNL d   1      -9.226 -14.306  -2.594 -0.15 +0.03    +0.051 C 
DOCKED: ATOM     25  N   UNL d   1     -11.653 -14.802   3.386 -0.15 -0.09    -0.248 N 
DOCKED: ATOM     26  N   UNL d   1     -14.204 -15.828   2.969 -0.14 -0.05    -0.248 N 
DOCKED: ATOM     27  N   UNL d   1     -13.725 -15.759   0.054 -0.02 -0.05    -0.248 N 
DOCKED: ATOM     28  N   UNL d   1     -11.081 -14.638   0.666 -0.01 -0.11    -0.248 N 
DOCKED: ATOM     29 FE   UNL d   1     -12.748 -15.307   1.619 -0.05 +0.00    +0.000 Fe
DOCKED: ENDROOT
DOCKED: BRANCH   6  30
DOCKED: ATOM     30  C   UNL d   1      -8.557 -13.842   5.323 -0.30 +0.03    +0.052 C 
DOCKED: BRANCH  30  31
DOCKED: ATOM     31  C   UNL d   1      -7.664 -15.064   5.533 -0.14 +0.10    +0.115 C 
DOCKED: BRANCH  31  32
DOCKED: ATOM     32  C   UNL d   1      -7.697 -16.013   4.355 -0.07 +0.15    +0.139 C 
DOCKED: ATOM     33  O   UNL d   1      -6.655 -16.295   3.781 +0.08 -1.25    -0.650 OA
DOCKED: BRANCH  32  34
DOCKED: ATOM     34  O   UNL d   1      -8.842 -16.603   3.940 +0.06 -0.50    -0.776 OA
DOCKED: ATOM     35  H   UNL d   1      -9.081 -16.735   3.012 +0.02 +0.10    +0.167 HD
DOCKED: ENDBRANCH  32  34
DOCKED: ENDBRANCH  31  32
DOCKED: ENDBRANCH  30  31
DOCKED: ENDBRANCH   6  30
DOCKED: BRANCH  29  36
DOCKED: ATOM     36  C   UNL d   1     -11.912 -17.223   1.785 -0.03 +0.06    +0.190 C 
DOCKED: BRANCH  36  37
DOCKED: ATOM     37  O   UNL d   1     -10.713 -17.897   2.036 +0.01 -0.14    -0.399 OA
DOCKED: ATOM     38  H   UNL d   1     -10.035 -17.176   2.165 +0.02 +0.09    +0.209 HD
DOCKED: ENDBRANCH  36  37
DOCKED: ENDBRANCH  29  36
DOCKED: BRANCH  22  39
DOCKED: ATOM     39  C   UNL d   1      -7.606 -13.445  -0.001 -0.22 +0.06    +0.052 C 
DOCKED: BRANCH  39  40
DOCKED: ATOM     40  C   UNL d   1      -6.636 -14.600  -0.296 -0.13 +0.19    +0.115 C 
DOCKED: BRANCH  40  41
DOCKED: ATOM     41  C   UNL d   1      -6.765 -15.780   0.644 +0.10 +0.23    +0.139 C 
DOCKED: ATOM     42  O   UNL d   1      -5.766 -16.422   0.939 -0.25 -1.24    -0.650 OA
DOCKED: BRANCH  41  43
DOCKED: ATOM     43  O   UNL d   1      -7.939 -16.092   1.236 +0.04 -0.82    -0.776 OA
DOCKED: ATOM     44  H   UNL d   1      -7.987 -16.518   2.101 +0.02 +0.17    +0.167 HD
DOCKED: ENDBRANCH  41  43
DOCKED: ENDBRANCH  40  41
DOCKED: ENDBRANCH  39  40
DOCKED: ENDBRANCH  22  39
DOCKED: BRANCH  12  45
DOCKED: ATOM     45  C   UNL d   1     -17.721 -17.022   3.313 -0.08 +0.00    +0.004 C 
DOCKED: ATOM     46  C   UNL d   1     -18.775 -16.353   2.854 -0.10 +0.00    +0.012 C 
DOCKED: ENDBRANCH  12  45
DOCKED: BRANCH  17  47
DOCKED: ATOM     47  C   UNL d   1     -13.975 -16.479  -3.524 -0.05 +0.00    +0.004 C 
DOCKED: ATOM     48  C   UNL d   1     -13.764 -15.478  -4.383 -0.07 +0.00    +0.012 C 
DOCKED: ENDBRANCH  17  47
DOCKED: TORSDOF 12
DOCKED: TER
DOCKED: ENDMDL
________________________________________________________________________________


	BEGINNING GENETIC ALGORITHM DOCKING 90 of 100
Run: 90 Seed: 1453643499 1226972937 [ Run 90 of 100 GA/GALS ]
Beginning LAMARCKIAN GENETIC ALGORITHM (LGA), with a maximum of 25000000 energy evaluations.

Final-Value: -11.360


	FINAL GENETIC ALGORITHM DOCKED STATE
	_______________________________________________


Detailed state:  trans -7.832 -17.932 -4.006 quatxyzw 0.645969 -0.270417 -0.677682 -0.224380 center 8.781 34.984 -0.736 ntor 12 126.3451 109.5210 -105.8173 121.1118 132.1888 154.8733 -59.8717 137.4155 73.8807 -111.3441 6.5647 -21.7211
State:	 -7.832 -17.932  -4.006   0.663 -0.277 -0.695 -154.067    126.35  109.52 -105.82  121.11  132.19  154.87  -59.87  137.42   73.88 -111.34    6.56  -21.72

DOCKED: MODEL       90
DOCKED: USER    Run = 90
DOCKED: USER    DPF = D:/Protein_go_brrr/autodock/final/AncA/heme_Co/dock.dpf
DOCKED: USER  
DOCKED: USER    Estimated Free Energy of Binding    =   -5.43 kcal/mol  [=(1)+(2)+(3)-(4)]
DOCKED: USER    Estimated Inhibition Constant, Ki   =  104.29 uM (micromolar)  [Temperature = 298.15 K]
DOCKED: USER    
DOCKED: USER    (1) Final Intermolecular Energy     =   -9.01 kcal/mol
DOCKED: USER        vdW + Hbond + desolv Energy     =   -4.54 kcal/mol
DOCKED: USER        Electrostatic Energy            =   -4.47 kcal/mol
DOCKED: USER    (2) Final Total Internal Energy     =   -2.35 kcal/mol
DOCKED: USER    (3) Torsional Free Energy           =   +3.58 kcal/mol
DOCKED: USER    (4) Unbound System's Energy  [=(2)] =   -2.35 kcal/mol
DOCKED: USER    
DOCKED: USER    
DOCKED: USER    NEWDPF move heme_Co_opt.pdbqt
DOCKED: USER    NEWDPF about 8.781000 34.984000 -0.736000
DOCKED: USER    NEWDPF tran0 -7.832222 -17.932263 -4.006353
DOCKED: USER    NEWDPF quaternion0 0.645969 -0.270417 -0.677682 -0.224380
DOCKED: USER    NEWDPF axisangle0 0.662871 -0.277493 -0.695413 -154.067188
DOCKED: USER    NEWDPF quat0 0.662871 -0.277493 -0.695413 -154.067188
DOCKED: USER    NEWDPF dihe0 126.35 109.52 -105.82 121.11 132.19 154.87 -59.87 137.42 73.88 -111.34 6.56 -21.72 
DOCKED: USER  keepresnum = 1 
DOCKED: USER  
DOCKED: REMARK  12 active torsions:
DOCKED: REMARK  status: ('A' for Active; 'I' for Inactive)
DOCKED: REMARK    1  A    between atoms: C_6  and  C_10 
DOCKED: REMARK    2  A    between atoms: C_10  and  C_11 
DOCKED: REMARK    3  A    between atoms: C_11  and  C_12 
DOCKED: REMARK    4  A    between atoms: C_12  and  O_14 
DOCKED: REMARK    5  A    between atoms: C_17  and  C_20 
DOCKED: REMARK    6  A    between atoms: C_24  and  C_27 
DOCKED: REMARK    7  A    between atoms: C_31  and  C_34 
DOCKED: REMARK    8  A    between atoms: C_34  and  C_35 
DOCKED: REMARK    9  A    between atoms: C_35  and  C_36 
DOCKED: REMARK   10  A    between atoms: C_36  and  O_38 
DOCKED: REMARK   11  A    between atoms: FE_43  and  C_44 
DOCKED: REMARK   12  A    between atoms: C_44  and  O_45 
DOCKED: USER                              x       y       z     vdW  Elec       q    Type
DOCKED: USER                           _______ _______ _______ _____ _____    ______ ____
DOCKED: ROOT
DOCKED: ATOM      1  C   UNL d   1      -6.882 -17.109  -2.236 -0.07 +0.08    +0.064 A 
DOCKED: ATOM      2  C   UNL d   1     -10.567 -15.642  -4.860 -0.04 +0.03    +0.064 C 
DOCKED: ATOM      3  C   UNL d   1      -9.809 -19.186  -7.973 -0.14 +0.04    +0.064 A 
DOCKED: ATOM      4  C   UNL d   1      -6.285 -20.931  -5.109 -0.04 +0.05    +0.064 A 
DOCKED: ATOM      5  C   UNL d   1      -7.922 -16.426  -2.743 -0.10 +0.07    +0.066 A 
DOCKED: ATOM      6  C   UNL d   1      -8.500 -15.334  -2.068 -0.11 -0.02    -0.021 A 
DOCKED: ATOM      7  C   UNL d   1      -9.583 -14.926  -2.822 -0.09 -0.02    -0.025 A 
DOCKED: ATOM      8  C   UNL d   1      -9.609 -15.776  -3.933 -0.06 +0.04    +0.066 A 
DOCKED: ATOM      9  C   UNL d   1     -10.564 -13.784  -2.522 -0.19 +0.02    +0.051 C 
DOCKED: ATOM     10  C   UNL d   1     -10.659 -16.452  -6.048 -0.19 +0.03    +0.066 A 
DOCKED: ATOM     11  C   UNL d   1     -11.553 -16.271  -7.126 -0.19 -0.01    -0.021 A 
DOCKED: ATOM     12  C   UNL d   1     -11.308 -17.316  -8.021 -0.20 +0.00    +0.000 A 
DOCKED: ATOM     13  C   UNL d   1     -10.276 -18.048  -7.432 -0.18 +0.03    +0.070 A 
DOCKED: ATOM     14  C   UNL d   1     -12.503 -15.116  -7.312 -0.10 +0.00    +0.052 C 
DOCKED: ATOM     15  C   UNL d   1      -8.790 -20.090  -7.476 -0.11 +0.05    +0.066 A 
DOCKED: ATOM     16  C   UNL d   1      -8.455 -21.326  -8.010 -0.09 -0.02    -0.021 A 
DOCKED: ATOM     17  C   UNL d   1      -7.441 -21.835  -7.186 -0.07 +0.00    +0.000 A 
DOCKED: ATOM     18  C   UNL d   1      -7.225 -20.857  -6.220 -0.07 +0.07    +0.070 A 
DOCKED: ATOM     19  C   UNL d   1      -9.087 -21.953  -9.233 -0.07 +0.03    +0.052 C 
DOCKED: ATOM     20  C   UNL d   1      -6.119 -20.033  -4.109 -0.03 +0.05    +0.066 A 
DOCKED: ATOM     21  C   UNL d   1      -5.207 -20.232  -3.074 -0.01 -0.02    -0.025 A 
DOCKED: ATOM     22  C   UNL d   1      -5.337 -19.132  -2.246 -0.02 -0.02    -0.021 A 
DOCKED: ATOM     23  C   UNL d   1      -6.337 -18.315  -2.815 -0.06 +0.07    +0.066 A 
DOCKED: ATOM     24  C   UNL d   1      -4.273 -21.422  -2.873 +0.00 +0.03    +0.051 C 
DOCKED: ATOM     25  N   UNL d   1      -8.588 -16.711  -3.913 -0.08 -0.20    -0.248 N 
DOCKED: ATOM     26  N   UNL d   1      -9.847 -17.492  -6.267 -0.11 -0.13    -0.248 N 
DOCKED: ATOM     27  N   UNL d   1      -8.067 -19.847  -6.406 -0.07 -0.21    -0.248 N 
DOCKED: ATOM     28  N   UNL d   1      -6.815 -18.858  -3.941 -0.03 -0.21    -0.248 N 
DOCKED: ATOM     29 FE   UNL d   1      -8.309 -18.373  -5.232 -0.02 +0.00    +0.000 Fe
DOCKED: ENDROOT
DOCKED: BRANCH   6  30
DOCKED: ATOM     30  C   UNL d   1      -8.071 -14.769  -0.717 -0.12 +0.05    +0.052 C 
DOCKED: BRANCH  30  31
DOCKED: ATOM     31  C   UNL d   1      -7.029 -13.667  -0.902 -0.19 +0.15    +0.115 C 
DOCKED: BRANCH  31  32
DOCKED: ATOM     32  C   UNL d   1      -5.645 -14.103  -0.473 -0.18 +0.27    +0.139 C 
DOCKED: ATOM     33  O   UNL d   1      -4.685 -13.390  -0.724 -0.08 -1.26    -0.650 OA
DOCKED: BRANCH  32  34
DOCKED: ATOM     34  O   UNL d   1      -5.437 -15.242   0.228 -0.56 -1.81    -0.776 OA
DOCKED: ATOM     35  H   UNL d   1      -4.863 -15.963  -0.064 +0.01 +0.33    +0.167 HD
DOCKED: ENDBRANCH  32  34
DOCKED: ENDBRANCH  31  32
DOCKED: ENDBRANCH  30  31
DOCKED: ENDBRANCH   6  30
DOCKED: BRANCH  29  36
DOCKED: ATOM     36  C   UNL d   1      -9.698 -19.402  -4.047 -0.01 +0.09    +0.190 C 
DOCKED: BRANCH  36  37
DOCKED: ATOM     37  O   UNL d   1     -10.519 -19.269  -2.922 +0.00 -0.15    -0.399 OA
DOCKED: ATOM     38  H   UNL d   1     -10.311 -18.363  -2.559 +0.01 +0.09    +0.209 HD
DOCKED: ENDBRANCH  36  37
DOCKED: ENDBRANCH  29  36
DOCKED: BRANCH  22  39
DOCKED: ATOM     39  C   UNL d   1      -4.584 -18.916  -0.947 -0.02 +0.04    +0.052 C 
DOCKED: BRANCH  39  40
DOCKED: ATOM     40  C   UNL d   1      -3.160 -18.405  -1.223 -0.03 +0.10    +0.115 C 
DOCKED: BRANCH  40  41
DOCKED: ATOM     41  C   UNL d   1      -3.103 -17.054  -1.906 +0.00 +0.22    +0.139 C 
DOCKED: ATOM     42  O   UNL d   1      -3.195 -16.995  -3.124 -0.35 -1.46    -0.650 OA
DOCKED: BRANCH  41  43
DOCKED: ATOM     43  O   UNL d   1      -3.040 -15.903  -1.200 -0.01 -1.37    -0.776 OA
DOCKED: ATOM     44  H   UNL d   1      -3.817 -15.353  -1.034 +0.02 +0.37    +0.167 HD
DOCKED: ENDBRANCH  41  43
DOCKED: ENDBRANCH  40  41
DOCKED: ENDBRANCH  39  40
DOCKED: ENDBRANCH  22  39
DOCKED: BRANCH  12  45
DOCKED: ATOM     45  C   UNL d   1     -11.913 -17.694  -9.366 -0.20 +0.00    +0.004 C 
DOCKED: ATOM     46  C   UNL d   1     -11.381 -17.694 -10.586 -0.25 +0.00    +0.012 C 
DOCKED: ENDBRANCH  12  45
DOCKED: BRANCH  17  47
DOCKED: ATOM     47  C   UNL d   1      -6.741 -23.153  -7.238 -0.04 +0.00    +0.004 C 
DOCKED: ATOM     48  C   UNL d   1      -5.459 -23.294  -7.584 -0.05 +0.01    +0.012 C 
DOCKED: ENDBRANCH  17  47
DOCKED: TORSDOF 12
DOCKED: TER
DOCKED: ENDMDL
________________________________________________________________________________


	BEGINNING GENETIC ALGORITHM DOCKING 91 of 100
Run: 91 Seed: 1532124338 1928842860 [ Run 91 of 100 GA/GALS ]
Beginning LAMARCKIAN GENETIC ALGORITHM (LGA), with a maximum of 25000000 energy evaluations.

Final-Value: -11.706


	FINAL GENETIC ALGORITHM DOCKED STATE
	_______________________________________________


Detailed state:  trans -12.119 -14.350 -1.388 quatxyzw 0.624082 0.610708 -0.483394 -0.062348 center 8.781 34.984 -0.736 ntor 12 -176.5218 109.4761 70.1407 121.4766 150.2946 135.8629 39.1345 150.2286 165.6163 -37.4797 -163.4404 155.8419
State:	-12.119 -14.350  -1.388   0.625  0.612 -0.484 -172.851   -176.52  109.48   70.14  121.48  150.29  135.86   39.13  150.23  165.62  -37.48 -163.44  155.84

DOCKED: MODEL       91
DOCKED: USER    Run = 91
DOCKED: USER    DPF = D:/Protein_go_brrr/autodock/final/AncA/heme_Co/dock.dpf
DOCKED: USER  
DOCKED: USER    Estimated Free Energy of Binding    =   -5.87 kcal/mol  [=(1)+(2)+(3)-(4)]
DOCKED: USER    Estimated Inhibition Constant, Ki   =   49.58 uM (micromolar)  [Temperature = 298.15 K]
DOCKED: USER    
DOCKED: USER    (1) Final Intermolecular Energy     =   -9.45 kcal/mol
DOCKED: USER        vdW + Hbond + desolv Energy     =   -6.58 kcal/mol
DOCKED: USER        Electrostatic Energy            =   -2.87 kcal/mol
DOCKED: USER    (2) Final Total Internal Energy     =   -2.25 kcal/mol
DOCKED: USER    (3) Torsional Free Energy           =   +3.58 kcal/mol
DOCKED: USER    (4) Unbound System's Energy  [=(2)] =   -2.25 kcal/mol
DOCKED: USER    
DOCKED: USER    
DOCKED: USER    NEWDPF move heme_Co_opt.pdbqt
DOCKED: USER    NEWDPF about 8.781000 34.984000 -0.736000
DOCKED: USER    NEWDPF tran0 -12.119390 -14.349531 -1.388262
DOCKED: USER    NEWDPF quaternion0 0.624082 0.610708 -0.483394 -0.062348
DOCKED: USER    NEWDPF axisangle0 0.625299 0.611899 -0.484337 -172.850855
DOCKED: USER    NEWDPF quat0 0.625299 0.611899 -0.484337 -172.850855
DOCKED: USER    NEWDPF dihe0 -176.52 109.48 70.14 121.48 150.29 135.86 39.13 150.23 165.62 -37.48 -163.44 155.84 
DOCKED: USER  keepresnum = 1 
DOCKED: USER  
DOCKED: REMARK  12 active torsions:
DOCKED: REMARK  status: ('A' for Active; 'I' for Inactive)
DOCKED: REMARK    1  A    between atoms: C_6  and  C_10 
DOCKED: REMARK    2  A    between atoms: C_10  and  C_11 
DOCKED: REMARK    3  A    between atoms: C_11  and  C_12 
DOCKED: REMARK    4  A    between atoms: C_12  and  O_14 
DOCKED: REMARK    5  A    between atoms: C_17  and  C_20 
DOCKED: REMARK    6  A    between atoms: C_24  and  C_27 
DOCKED: REMARK    7  A    between atoms: C_31  and  C_34 
DOCKED: REMARK    8  A    between atoms: C_34  and  C_35 
DOCKED: REMARK    9  A    between atoms: C_35  and  C_36 
DOCKED: REMARK   10  A    between atoms: C_36  and  O_38 
DOCKED: REMARK   11  A    between atoms: FE_43  and  C_44 
DOCKED: REMARK   12  A    between atoms: C_44  and  O_45 
DOCKED: USER                              x       y       z     vdW  Elec       q    Type
DOCKED: USER                           _______ _______ _______ _____ _____    ______ ____
DOCKED: ROOT
DOCKED: ATOM      1  C   UNL d   1     -10.848 -15.263   0.117 -0.10 +0.03    +0.064 A 
DOCKED: ATOM      2  C   UNL d   1     -15.274 -16.220  -1.335 -0.13 +0.01    +0.064 C 
DOCKED: ATOM      3  C   UNL d   1     -15.199 -12.399  -4.204 -0.20 +0.00    +0.064 A 
DOCKED: ATOM      4  C   UNL d   1     -10.543 -11.623  -3.027 -0.23 +0.02    +0.064 A 
DOCKED: ATOM      5  C   UNL d   1     -12.076 -15.784  -0.042 -0.09 +0.02    +0.066 A 
DOCKED: ATOM      6  C   UNL d   1     -12.468 -16.979   0.592 -0.07 -0.01    -0.021 A 
DOCKED: ATOM      7  C   UNL d   1     -13.745 -17.264   0.149 -0.08 -0.01    -0.025 A 
DOCKED: ATOM      8  C   UNL d   1     -14.083 -16.223  -0.722 -0.12 +0.01    +0.066 A 
DOCKED: ATOM      9  C   UNL d   1     -14.625 -18.467   0.522 -0.03 +0.01    +0.051 C 
DOCKED: ATOM     10  C   UNL d   1     -15.719 -15.178  -2.227 -0.13 +0.01    +0.066 A 
DOCKED: ATOM     11  C   UNL d   1     -17.007 -15.044  -2.791 -0.10 -0.00    -0.021 A 
DOCKED: ATOM     12  C   UNL d   1     -16.958 -13.920  -3.620 -0.12 +0.00    +0.000 A 
DOCKED: ATOM     13  C   UNL d   1     -15.652 -13.445  -3.491 -0.16 +0.01    +0.070 A 
DOCKED: ATOM     14  C   UNL d   1     -18.214 -15.888  -2.470 -0.05 +0.01    +0.052 C 
DOCKED: ATOM     15  C   UNL d   1     -13.874 -11.812  -4.234 -0.24 +0.00    +0.066 A 
DOCKED: ATOM     16  C   UNL d   1     -13.431 -10.823  -5.101 -0.33 -0.00    -0.021 A 
DOCKED: ATOM     17  C   UNL d   1     -12.088 -10.598  -4.767 -0.44 +0.00    +0.000 A 
DOCKED: ATOM     18  C   UNL d   1     -11.821 -11.458  -3.707 -0.29 +0.01    +0.070 A 
DOCKED: ATOM     19  C   UNL d   1     -14.266 -10.158  -6.172 -0.40 +0.00    +0.052 C 
DOCKED: ATOM     20  C   UNL d   1     -10.237 -12.513  -2.053 -0.22 +0.03    +0.066 A 
DOCKED: ATOM     21  C   UNL d   1      -8.961 -12.601  -1.500 -0.24 -0.02    -0.025 A 
DOCKED: ATOM     22  C   UNL d   1      -9.026 -13.622  -0.570 -0.17 -0.01    -0.021 A 
DOCKED: ATOM     23  C   UNL d   1     -10.346 -14.119  -0.610 -0.12 +0.03    +0.066 A 
DOCKED: ATOM     24  C   UNL d   1      -7.733 -11.766  -1.855 -0.22 +0.04    +0.051 C 
DOCKED: ATOM     25  N   UNL d   1     -13.070 -15.289  -0.855 -0.02 -0.04    -0.248 N 
DOCKED: ATOM     26  N   UNL d   1     -14.921 -14.174  -2.606 -0.14 -0.03    -0.248 N 
DOCKED: ATOM     27  N   UNL d   1     -12.898 -12.187  -3.437 -0.13 -0.02    -0.248 N 
DOCKED: ATOM     28  N   UNL d   1     -11.082 -13.452  -1.508 -0.04 -0.08    -0.248 N 
DOCKED: ATOM     29 FE   UNL d   1     -12.976 -13.645  -2.221 -0.06 +0.00    +0.000 Fe
DOCKED: ENDROOT
DOCKED: BRANCH   6  30
DOCKED: ATOM     30  C   UNL d   1     -11.614 -17.842   1.514 -0.02 +0.02    +0.052 C 
DOCKED: BRANCH  30  31
DOCKED: ATOM     31  C   UNL d   1     -10.653 -18.710   0.702 +0.00 +0.04    +0.115 C 
DOCKED: BRANCH  31  32
DOCKED: ATOM     32  C   UNL d   1     -11.047 -18.796  -0.757 -0.00 +0.04    +0.139 C 
DOCKED: ATOM     33  O   UNL d   1     -11.791 -19.691  -1.127 +0.01 -0.17    -0.650 OA
DOCKED: BRANCH  32  34
DOCKED: ATOM     34  O   UNL d   1     -10.638 -17.880  -1.666 +0.03 -0.30    -0.776 OA
DOCKED: ATOM     35  H   UNL d   1     -10.862 -17.909  -2.606 +0.01 +0.06    +0.167 HD
DOCKED: ENDBRANCH  32  34
DOCKED: ENDBRANCH  31  32
DOCKED: ENDBRANCH  30  31
DOCKED: ENDBRANCH   6  30
DOCKED: BRANCH  29  36
DOCKED: ATOM     36  C   UNL d   1     -12.319 -15.023  -3.658 -0.09 +0.05    +0.190 C 
DOCKED: BRANCH  36  37
DOCKED: ATOM     37  O   UNL d   1     -11.760 -16.296  -3.807 -0.01 -0.13    -0.399 OA
DOCKED: ATOM     38  H   UNL d   1     -11.590 -16.613  -2.876 +0.03 +0.07    +0.209 HD
DOCKED: ENDBRANCH  36  37
DOCKED: ENDBRANCH  29  36
DOCKED: BRANCH  22  39
DOCKED: ATOM     39  C   UNL d   1      -7.863 -14.131   0.261 -0.16 +0.06    +0.052 C 
DOCKED: BRANCH  39  40
DOCKED: ATOM     40  C   UNL d   1      -7.328 -15.456  -0.309 -0.09 +0.15    +0.115 C 
DOCKED: BRANCH  40  41
DOCKED: ATOM     41  C   UNL d   1      -5.818 -15.550  -0.357 -0.07 +0.27    +0.139 C 
DOCKED: ATOM     42  O   UNL d   1      -5.202 -14.881  -1.175 -0.00 -1.74    -0.650 OA
DOCKED: BRANCH  41  43
DOCKED: ATOM     43  O   UNL d   1      -5.123 -16.288   0.538 -0.30 -1.52    -0.776 OA
DOCKED: ATOM     44  H   UNL d   1      -5.073 -17.252   0.489 +0.01 +0.22    +0.167 HD
DOCKED: ENDBRANCH  41  43
DOCKED: ENDBRANCH  40  41
DOCKED: ENDBRANCH  39  40
DOCKED: ENDBRANCH  22  39
DOCKED: BRANCH  12  45
DOCKED: ATOM     45  C   UNL d   1     -17.994 -13.232  -4.499 -0.09 +0.00    +0.004 C 
DOCKED: ATOM     46  C   UNL d   1     -18.565 -12.035  -4.390 -0.13 +0.00    +0.012 C 
DOCKED: ENDBRANCH  12  45
DOCKED: BRANCH  17  47
DOCKED: ATOM     47  C   UNL d   1     -11.086  -9.691  -5.404 -0.55 +0.00    +0.004 C 
DOCKED: ATOM     48  C   UNL d   1     -10.351  -8.810  -4.721 -0.50 +0.00    +0.012 C 
DOCKED: ENDBRANCH  17  47
DOCKED: TORSDOF 12
DOCKED: TER
DOCKED: ENDMDL
________________________________________________________________________________


	BEGINNING GENETIC ALGORITHM DOCKING 92 of 100
Run: 92 Seed: 1395431805 730360007 [ Run 92 of 100 GA/GALS ]
Beginning LAMARCKIAN GENETIC ALGORITHM (LGA), with a maximum of 25000000 energy evaluations.

Final-Value: -11.601


	FINAL GENETIC ALGORITHM DOCKED STATE
	_______________________________________________


Detailed state:  trans -10.654 -14.510 1.874 quatxyzw 0.254585 0.384105 -0.821956 -0.334720 center 8.781 34.984 -0.736 ntor 12 111.8820 113.6704 131.9255 116.0551 141.7067 89.9512 -95.4596 -22.5905 -101.4031 -179.7590 154.4561 179.5139
State:	-10.654 -14.510   1.874   0.270  0.408 -0.872 -140.889    111.88  113.67  131.93  116.06  141.71   89.95  -95.46  -22.59 -101.40 -179.76  154.46  179.51

DOCKED: MODEL       92
DOCKED: USER    Run = 92
DOCKED: USER    DPF = D:/Protein_go_brrr/autodock/final/AncA/heme_Co/dock.dpf
DOCKED: USER  
DOCKED: USER    Estimated Free Energy of Binding    =   -5.76 kcal/mol  [=(1)+(2)+(3)-(4)]
DOCKED: USER    Estimated Inhibition Constant, Ki   =   60.37 uM (micromolar)  [Temperature = 298.15 K]
DOCKED: USER    
DOCKED: USER    (1) Final Intermolecular Energy     =   -9.34 kcal/mol
DOCKED: USER        vdW + Hbond + desolv Energy     =   -5.76 kcal/mol
DOCKED: USER        Electrostatic Energy            =   -3.57 kcal/mol
DOCKED: USER    (2) Final Total Internal Energy     =   -2.27 kcal/mol
DOCKED: USER    (3) Torsional Free Energy           =   +3.58 kcal/mol
DOCKED: USER    (4) Unbound System's Energy  [=(2)] =   -2.27 kcal/mol
DOCKED: USER    
DOCKED: USER    
DOCKED: USER    NEWDPF move heme_Co_opt.pdbqt
DOCKED: USER    NEWDPF about 8.781000 34.984000 -0.736000
DOCKED: USER    NEWDPF tran0 -10.654458 -14.509791 1.873541
DOCKED: USER    NEWDPF quaternion0 0.254585 0.384105 -0.821956 -0.334720
DOCKED: USER    NEWDPF axisangle0 0.270169 0.407617 -0.872271 -140.888956
DOCKED: USER    NEWDPF quat0 0.270169 0.407617 -0.872271 -140.888956
DOCKED: USER    NEWDPF dihe0 111.88 113.67 131.93 116.06 141.71 89.95 -95.46 -22.59 -101.40 -179.76 154.46 179.51 
DOCKED: USER  keepresnum = 1 
DOCKED: USER  
DOCKED: REMARK  12 active torsions:
DOCKED: REMARK  status: ('A' for Active; 'I' for Inactive)
DOCKED: REMARK    1  A    between atoms: C_6  and  C_10 
DOCKED: REMARK    2  A    between atoms: C_10  and  C_11 
DOCKED: REMARK    3  A    between atoms: C_11  and  C_12 
DOCKED: REMARK    4  A    between atoms: C_12  and  O_14 
DOCKED: REMARK    5  A    between atoms: C_17  and  C_20 
DOCKED: REMARK    6  A    between atoms: C_24  and  C_27 
DOCKED: REMARK    7  A    between atoms: C_31  and  C_34 
DOCKED: REMARK    8  A    between atoms: C_34  and  C_35 
DOCKED: REMARK    9  A    between atoms: C_35  and  C_36 
DOCKED: REMARK   10  A    between atoms: C_36  and  O_38 
DOCKED: REMARK   11  A    between atoms: FE_43  and  C_44 
DOCKED: REMARK   12  A    between atoms: C_44  and  O_45 
DOCKED: USER                              x       y       z     vdW  Elec       q    Type
DOCKED: USER                           _______ _______ _______ _____ _____    ______ ____
DOCKED: ROOT
DOCKED: ATOM      1  C   UNL d   1      -8.895 -13.382   2.462 -0.24 +0.05    +0.064 A 
DOCKED: ATOM      2  C   UNL d   1     -12.295 -15.544   4.986 -0.16 +0.02    +0.064 C 
DOCKED: ATOM      3  C   UNL d   1     -14.661 -16.594   0.970 -0.12 +0.01    +0.064 A 
DOCKED: ATOM      4  C   UNL d   1     -11.012 -14.731  -1.652 -0.13 +0.02    +0.064 A 
DOCKED: ATOM      5  C   UNL d   1      -9.668 -13.864   3.449 -0.21 +0.04    +0.066 A 
DOCKED: ATOM      6  C   UNL d   1      -9.273 -13.813   4.800 -0.27 -0.01    -0.021 A 
DOCKED: ATOM      7  C   UNL d   1     -10.253 -14.462   5.526 -0.22 -0.01    -0.025 A 
DOCKED: ATOM      8  C   UNL d   1     -11.210 -14.866   4.589 -0.19 +0.03    +0.066 A 
DOCKED: ATOM      9  C   UNL d   1     -10.299 -14.701   7.043 -0.21 +0.02    +0.051 C 
DOCKED: ATOM     10  C   UNL d   1     -13.345 -15.978   4.099 -0.16 +0.02    +0.066 A 
DOCKED: ATOM     11  C   UNL d   1     -14.573 -16.568   4.471 -0.12 -0.00    -0.021 A 
DOCKED: ATOM     12  C   UNL d   1     -15.245 -16.860   3.280 -0.12 +0.00    +0.000 A 
DOCKED: ATOM     13  C   UNL d   1     -14.386 -16.417   2.275 -0.14 +0.01    +0.070 A 
DOCKED: ATOM     14  C   UNL d   1     -15.090 -16.743   5.875 -0.09 +0.01    +0.052 C 
DOCKED: ATOM     15  C   UNL d   1     -13.868 -16.247  -0.193 -0.11 +0.01    +0.066 A 
DOCKED: ATOM     16  C   UNL d   1     -14.144 -16.588  -1.509 -0.09 -0.00    -0.021 A 
DOCKED: ATOM     17  C   UNL d   1     -13.093 -16.055  -2.269 -0.10 +0.00    +0.000 A 
DOCKED: ATOM     18  C   UNL d   1     -12.264 -15.414  -1.354 -0.12 +0.02    +0.070 A 
DOCKED: ATOM     19  C   UNL d   1     -15.347 -17.378  -1.976 -0.04 +0.01    +0.052 C 
DOCKED: ATOM     20  C   UNL d   1     -10.146 -14.175  -0.770 -0.13 +0.03    +0.066 A 
DOCKED: ATOM     21  C   UNL d   1      -8.954 -13.578  -1.174 -0.16 -0.02    -0.025 A 
DOCKED: ATOM     22  C   UNL d   1      -8.337 -13.154  -0.012 -0.21 -0.02    -0.021 A 
DOCKED: ATOM     23  C   UNL d   1      -9.183 -13.527   1.053 -0.21 +0.05    +0.066 A 
DOCKED: ATOM     24  C   UNL d   1      -8.420 -13.435  -2.597 -0.17 +0.04    +0.051 C 
DOCKED: ATOM     25  N   UNL d   1     -10.877 -14.504   3.295 -0.14 -0.11    -0.248 N 
DOCKED: ATOM     26  N   UNL d   1     -13.263 -15.833   2.772 -0.10 -0.06    -0.248 N 
DOCKED: ATOM     27  N   UNL d   1     -12.741 -15.575  -0.124 -0.08 -0.06    -0.248 N 
DOCKED: ATOM     28  N   UNL d   1     -10.279 -14.148   0.599 -0.11 -0.14    -0.248 N 
DOCKED: ATOM     29 FE   UNL d   1     -11.862 -15.069   1.482 -0.05 +0.00    +0.000 Fe
DOCKED: ENDROOT
DOCKED: BRANCH   6  30
DOCKED: ATOM     30  C   UNL d   1      -7.971 -13.237   5.346 -0.37 +0.04    +0.052 C 
DOCKED: BRANCH  30  31
DOCKED: ATOM     31  C   UNL d   1      -7.191 -14.304   6.113 -0.12 +0.09    +0.115 C 
DOCKED: BRANCH  31  32
DOCKED: ATOM     32  C   UNL d   1      -6.488 -15.278   5.192 +0.08 +0.21    +0.139 C 
DOCKED: ATOM     33  O   UNL d   1      -5.329 -15.591   5.419 -0.13 -1.10    -0.650 OA
DOCKED: BRANCH  32  34
DOCKED: ATOM     34  O   UNL d   1      -7.119 -15.857   4.143 +0.06 -1.22    -0.776 OA
DOCKED: ATOM     35  H   UNL d   1      -6.954 -15.632   3.218 +0.03 +0.37    +0.167 HD
DOCKED: ENDBRANCH  32  34
DOCKED: ENDBRANCH  31  32
DOCKED: ENDBRANCH  30  31
DOCKED: ENDBRANCH   6  30
DOCKED: BRANCH  29  36
DOCKED: ATOM     36  C   UNL d   1     -10.786 -16.865   1.590 -0.02 +0.07    +0.190 C 
DOCKED: BRANCH  36  37
DOCKED: ATOM     37  O   UNL d   1      -9.492 -17.393   1.546 +0.01 -0.20    -0.399 OA
DOCKED: ATOM     38  H   UNL d   1      -8.896 -16.602   1.423 +0.02 +0.14    +0.209 HD
DOCKED: ENDBRANCH  36  37
DOCKED: ENDBRANCH  29  36
DOCKED: BRANCH  22  39
DOCKED: ATOM     39  C   UNL d   1      -6.977 -12.486   0.068 -0.02 +0.06    +0.052 C 
DOCKED: BRANCH  39  40
DOCKED: ATOM     40  C   UNL d   1      -5.852 -13.529  -0.043 -0.12 +0.21    +0.115 C 
DOCKED: BRANCH  40  41
DOCKED: ATOM     41  C   UNL d   1      -6.333 -14.964  -0.075 -0.02 +0.26    +0.139 C 
DOCKED: ATOM     42  O   UNL d   1      -6.144 -15.636  -1.080 -0.48 -1.29    -0.650 OA
DOCKED: BRANCH  41  43
DOCKED: ATOM     43  O   UNL d   1      -6.887 -15.553   1.008 -0.17 -1.38    -0.776 OA
DOCKED: ATOM     44  H   UNL d   1      -7.662 -16.126   0.948 +0.02 +0.19    +0.167 HD
DOCKED: ENDBRANCH  41  43
DOCKED: ENDBRANCH  40  41
DOCKED: ENDBRANCH  39  40
DOCKED: ENDBRANCH  22  39
DOCKED: BRANCH  12  45
DOCKED: ATOM     45  C   UNL d   1     -16.600 -17.487   2.980 -0.07 +0.00    +0.004 C 
DOCKED: ATOM     46  C   UNL d   1     -17.725 -16.940   2.526 -0.09 +0.00    +0.012 C 
DOCKED: ENDBRANCH  12  45
DOCKED: BRANCH  17  47
DOCKED: ATOM     47  C   UNL d   1     -12.825 -16.163  -3.734 -0.07 +0.00    +0.004 C 
DOCKED: ATOM     48  C   UNL d   1     -12.744 -15.108  -4.548 -0.12 +0.00    +0.012 C 
DOCKED: ENDBRANCH  17  47
DOCKED: TORSDOF 12
DOCKED: TER
DOCKED: ENDMDL
________________________________________________________________________________


	BEGINNING GENETIC ALGORITHM DOCKING 93 of 100
Run: 93 Seed: 2063493760 382719694 [ Run 93 of 100 GA/GALS ]
Beginning LAMARCKIAN GENETIC ALGORITHM (LGA), with a maximum of 25000000 energy evaluations.

Final-Value: -12.190


	FINAL GENETIC ALGORITHM DOCKED STATE
	_______________________________________________


Detailed state:  trans -0.906 -15.563 -1.796 quatxyzw -0.327670 -0.082473 0.342006 -0.876848 center 8.781 34.984 -0.736 ntor 12 -26.7873 145.7082 -51.1381 -88.5916 136.8676 124.4752 -168.9974 -85.3100 -178.6344 28.7711 176.6719 -2.8999
State:	 -0.906 -15.563  -1.796  -0.682 -0.172  0.711 -57.471    -26.79  145.71  -51.14  -88.59  136.87  124.48 -169.00  -85.31 -178.63   28.77  176.67   -2.90

DOCKED: MODEL       93
DOCKED: USER    Run = 93
DOCKED: USER    DPF = D:/Protein_go_brrr/autodock/final/AncA/heme_Co/dock.dpf
DOCKED: USER  
DOCKED: USER    Estimated Free Energy of Binding    =   -7.26 kcal/mol  [=(1)+(2)+(3)-(4)]
DOCKED: USER    Estimated Inhibition Constant, Ki   =    4.75 uM (micromolar)  [Temperature = 298.15 K]
DOCKED: USER    
DOCKED: USER    (1) Final Intermolecular Energy     =  -10.84 kcal/mol
DOCKED: USER        vdW + Hbond + desolv Energy     =   -6.26 kcal/mol
DOCKED: USER        Electrostatic Energy            =   -4.58 kcal/mol
DOCKED: USER    (2) Final Total Internal Energy     =   -1.35 kcal/mol
DOCKED: USER    (3) Torsional Free Energy           =   +3.58 kcal/mol
DOCKED: USER    (4) Unbound System's Energy  [=(2)] =   -1.35 kcal/mol
DOCKED: USER    
DOCKED: USER    
DOCKED: USER    NEWDPF move heme_Co_opt.pdbqt
DOCKED: USER    NEWDPF about 8.781000 34.984000 -0.736000
DOCKED: USER    NEWDPF tran0 -0.905762 -15.563118 -1.796066
DOCKED: USER    NEWDPF quaternion0 -0.327670 -0.082473 0.342006 -0.876848
DOCKED: USER    NEWDPF axisangle0 -0.681556 -0.171545 0.711374 -57.471089
DOCKED: USER    NEWDPF quat0 -0.681556 -0.171545 0.711374 -57.471089
DOCKED: USER    NEWDPF dihe0 -26.79 145.71 -51.14 -88.59 136.87 124.48 -169.00 -85.31 -178.63 28.77 176.67 -2.90 
DOCKED: USER  keepresnum = 1 
DOCKED: USER  
DOCKED: REMARK  12 active torsions:
DOCKED: REMARK  status: ('A' for Active; 'I' for Inactive)
DOCKED: REMARK    1  A    between atoms: C_6  and  C_10 
DOCKED: REMARK    2  A    between atoms: C_10  and  C_11 
DOCKED: REMARK    3  A    between atoms: C_11  and  C_12 
DOCKED: REMARK    4  A    between atoms: C_12  and  O_14 
DOCKED: REMARK    5  A    between atoms: C_17  and  C_20 
DOCKED: REMARK    6  A    between atoms: C_24  and  C_27 
DOCKED: REMARK    7  A    between atoms: C_31  and  C_34 
DOCKED: REMARK    8  A    between atoms: C_34  and  C_35 
DOCKED: REMARK    9  A    between atoms: C_35  and  C_36 
DOCKED: REMARK   10  A    between atoms: C_36  and  O_38 
DOCKED: REMARK   11  A    between atoms: FE_43  and  C_44 
DOCKED: REMARK   12  A    between atoms: C_44  and  O_45 
DOCKED: USER                              x       y       z     vdW  Elec       q    Type
DOCKED: USER                           _______ _______ _______ _____ _____    ______ ____
DOCKED: ROOT
DOCKED: ATOM      1  C   UNL d   1      -2.321 -16.994  -2.613 -0.00 +0.09    +0.064 A 
DOCKED: ATOM      2  C   UNL d   1      -1.299 -15.701   1.848 +0.05 +0.06    +0.064 C 
DOCKED: ATOM      3  C   UNL d   1       2.252 -12.922   0.269 -0.14 +0.02    +0.064 A 
DOCKED: ATOM      4  C   UNL d   1       0.981 -13.925  -4.318 -0.19 +0.03    +0.064 A 
DOCKED: ATOM      5  C   UNL d   1      -2.279 -16.873  -1.276 -0.06 +0.08    +0.066 A 
DOCKED: ATOM      6  C   UNL d   1      -3.227 -17.494  -0.440 -0.06 -0.02    -0.021 A 
DOCKED: ATOM      7  C   UNL d   1      -2.939 -17.098   0.852 -0.08 -0.03    -0.025 A 
DOCKED: ATOM      8  C   UNL d   1      -1.820 -16.265   0.750 -0.09 +0.07    +0.066 A 
DOCKED: ATOM      9  C   UNL d   1      -3.682 -17.478   2.142 -0.01 +0.06    +0.051 C 
DOCKED: ATOM     10  C   UNL d   1      -0.133 -14.853   1.844 -0.11 +0.05    +0.066 A 
DOCKED: ATOM     11  C   UNL d   1       0.544 -14.345   2.974 -0.14 -0.01    -0.021 A 
DOCKED: ATOM     12  C   UNL d   1       1.578 -13.542   2.485 -0.17 +0.00    +0.000 A 
DOCKED: ATOM     13  C   UNL d   1       1.462 -13.628   1.097 -0.12 +0.03    +0.070 A 
DOCKED: ATOM     14  C   UNL d   1       0.265 -14.695   4.413 -0.16 +0.03    +0.052 C 
DOCKED: ATOM     15  C   UNL d   1       2.237 -12.851  -1.179 -0.12 +0.02    +0.066 A 
DOCKED: ATOM     16  C   UNL d   1       2.985 -11.989  -1.969 -0.20 -0.01    -0.021 A 
DOCKED: ATOM     17  C   UNL d   1       2.620 -12.273  -3.292 -0.23 +0.00    +0.000 A 
DOCKED: ATOM     18  C   UNL d   1       1.687 -13.301  -3.206 -0.14 +0.03    +0.070 A 
DOCKED: ATOM     19  C   UNL d   1       3.977 -10.969  -1.457 -0.10 +0.01    +0.052 C 
DOCKED: ATOM     20  C   UNL d   1       0.008 -14.865  -4.253 -0.17 +0.05    +0.066 A 
DOCKED: ATOM     21  C   UNL d   1      -0.623 -15.363  -5.392 -0.24 -0.02    -0.025 A 
DOCKED: ATOM     22  C   UNL d   1      -1.559 -16.271  -4.933 -0.09 -0.03    -0.021 A 
DOCKED: ATOM     23  C   UNL d   1      -1.462 -16.273  -3.525 -0.06 +0.09    +0.066 A 
DOCKED: ATOM     24  C   UNL d   1      -0.360 -14.978  -6.845 -0.37 +0.03    +0.051 C 
DOCKED: ATOM     25  N   UNL d   1      -1.385 -16.113  -0.556 -0.04 -0.23    -0.248 N 
DOCKED: ATOM     26  N   UNL d   1       0.463 -14.466   0.711 -0.07 -0.14    -0.248 N 
DOCKED: ATOM     27  N   UNL d   1       1.461 -13.599  -1.931 -0.04 -0.11    -0.248 N 
DOCKED: ATOM     28  N   UNL d   1      -0.516 -15.422  -3.109 -0.07 -0.23    -0.248 N 
DOCKED: ATOM     29 FE   UNL d   1       0.122 -14.782  -1.288 -0.02 +0.00    +0.000 Fe
DOCKED: ENDROOT
DOCKED: BRANCH   6  30
DOCKED: ATOM     30  C   UNL d   1      -4.401 -18.361  -0.882 -0.03 +0.05    +0.052 C 
DOCKED: BRANCH  30  31
DOCKED: ATOM     31  C   UNL d   1      -5.694 -17.546  -0.901 -0.06 +0.14    +0.115 C 
DOCKED: BRANCH  31  32
DOCKED: ATOM     32  C   UNL d   1      -5.478 -16.112  -0.468 -0.11 +0.25    +0.139 C 
DOCKED: ATOM     33  O   UNL d   1      -4.731 -15.394  -1.116 +0.08 -1.66    -0.650 OA
DOCKED: BRANCH  32  34
DOCKED: ATOM     34  O   UNL d   1      -6.126 -15.578   0.594 -0.36 -1.70    -0.776 OA
DOCKED: ATOM     35  H   UNL d   1      -7.012 -15.840   0.878 +0.02 +0.26    +0.167 HD
DOCKED: ENDBRANCH  32  34
DOCKED: ENDBRANCH  31  32
DOCKED: ENDBRANCH  30  31
DOCKED: ENDBRANCH   6  30
DOCKED: BRANCH  29  36
DOCKED: ATOM     36  C   UNL d   1      -1.349 -13.288  -1.272 -0.18 +0.18    +0.190 C 
DOCKED: BRANCH  36  37
DOCKED: ATOM     37  O   UNL d   1      -2.724 -13.077  -1.414 -0.25 -0.60    -0.399 OA
DOCKED: ATOM     38  H   UNL d   1      -3.150 -13.903  -1.049 +0.05 +0.38    +0.209 HD
DOCKED: ENDBRANCH  36  37
DOCKED: ENDBRANCH  29  36
DOCKED: BRANCH  22  39
DOCKED: ATOM     39  C   UNL d   1      -2.536 -17.041  -5.801 -0.10 +0.06    +0.052 C 
DOCKED: BRANCH  39  40
DOCKED: ATOM     40  C   UNL d   1      -2.017 -18.463  -6.072 -0.11 +0.11    +0.115 C 
DOCKED: BRANCH  40  41
DOCKED: ATOM     41  C   UNL d   1      -2.585 -19.109  -7.318 -0.05 +0.20    +0.139 C 
DOCKED: ATOM     42  O   UNL d   1      -2.518 -18.513  -8.384 -0.49 -1.05    -0.650 OA
DOCKED: BRANCH  41  43
DOCKED: ATOM     43  O   UNL d   1      -3.086 -20.364  -7.302 -0.05 -1.31    -0.776 OA
DOCKED: ATOM     44  H   UNL d   1      -2.638 -21.096  -6.861 +0.01 +0.17    +0.167 HD
DOCKED: ENDBRANCH  41  43
DOCKED: ENDBRANCH  40  41
DOCKED: ENDBRANCH  39  40
DOCKED: ENDBRANCH  22  39
DOCKED: BRANCH  12  45
DOCKED: ATOM     45  C   UNL d   1       2.666 -12.722   3.164 -0.21 +0.00    +0.004 C 
DOCKED: ATOM     46  C   UNL d   1       2.718 -11.425   3.457 -0.37 +0.00    +0.012 C 
DOCKED: ENDBRANCH  12  45
DOCKED: BRANCH  17  47
DOCKED: ATOM     47  C   UNL d   1       3.053 -11.618  -4.563 -0.38 +0.00    +0.004 C 
DOCKED: ATOM     48  C   UNL d   1       3.756 -12.241  -5.512 -0.43 +0.00    +0.012 C 
DOCKED: ENDBRANCH  17  47
DOCKED: TORSDOF 12
DOCKED: TER
DOCKED: ENDMDL
________________________________________________________________________________


	BEGINNING GENETIC ALGORITHM DOCKING 94 of 100
Run: 94 Seed: 1276909216 2012014654 [ Run 94 of 100 GA/GALS ]
Beginning LAMARCKIAN GENETIC ALGORITHM (LGA), with a maximum of 25000000 energy evaluations.

Final-Value: -11.882


	FINAL GENETIC ALGORITHM DOCKED STATE
	_______________________________________________


Detailed state:  trans -10.293 -15.027 -3.526 quatxyzw 0.460871 -0.376825 -0.801361 -0.058498 center 8.781 34.984 -0.736 ntor 12 -80.6663 92.3973 88.4112 108.4041 135.9209 170.2937 18.4304 -17.6126 72.8003 81.7115 -8.3770 154.6545
State:	-10.293 -15.027  -3.526   0.462 -0.377 -0.803 -173.293    -80.67   92.40   88.41  108.40  135.92  170.29   18.43  -17.61   72.80   81.71   -8.38  154.65

DOCKED: MODEL       94
DOCKED: USER    Run = 94
DOCKED: USER    DPF = D:/Protein_go_brrr/autodock/final/AncA/heme_Co/dock.dpf
DOCKED: USER  
DOCKED: USER    Estimated Free Energy of Binding    =   -6.16 kcal/mol  [=(1)+(2)+(3)-(4)]
DOCKED: USER    Estimated Inhibition Constant, Ki   =   30.76 uM (micromolar)  [Temperature = 298.15 K]
DOCKED: USER    
DOCKED: USER    (1) Final Intermolecular Energy     =   -9.74 kcal/mol
DOCKED: USER        vdW + Hbond + desolv Energy     =   -5.91 kcal/mol
DOCKED: USER        Electrostatic Energy            =   -3.82 kcal/mol
DOCKED: USER    (2) Final Total Internal Energy     =   -2.15 kcal/mol
DOCKED: USER    (3) Torsional Free Energy           =   +3.58 kcal/mol
DOCKED: USER    (4) Unbound System's Energy  [=(2)] =   -2.15 kcal/mol
DOCKED: USER    
DOCKED: USER    
DOCKED: USER    NEWDPF move heme_Co_opt.pdbqt
DOCKED: USER    NEWDPF about 8.781000 34.984000 -0.736000
DOCKED: USER    NEWDPF tran0 -10.293139 -15.027203 -3.526259
DOCKED: USER    NEWDPF quaternion0 0.460871 -0.376825 -0.801361 -0.058498
DOCKED: USER    NEWDPF axisangle0 0.461661 -0.377471 -0.802736 -173.292809
DOCKED: USER    NEWDPF quat0 0.461661 -0.377471 -0.802736 -173.292809
DOCKED: USER    NEWDPF dihe0 -80.67 92.40 88.41 108.40 135.92 170.29 18.43 -17.61 72.80 81.71 -8.38 154.65 
DOCKED: USER  keepresnum = 1 
DOCKED: USER  
DOCKED: REMARK  12 active torsions:
DOCKED: REMARK  status: ('A' for Active; 'I' for Inactive)
DOCKED: REMARK    1  A    between atoms: C_6  and  C_10 
DOCKED: REMARK    2  A    between atoms: C_10  and  C_11 
DOCKED: REMARK    3  A    between atoms: C_11  and  C_12 
DOCKED: REMARK    4  A    between atoms: C_12  and  O_14 
DOCKED: REMARK    5  A    between atoms: C_17  and  C_20 
DOCKED: REMARK    6  A    between atoms: C_24  and  C_27 
DOCKED: REMARK    7  A    between atoms: C_31  and  C_34 
DOCKED: REMARK    8  A    between atoms: C_34  and  C_35 
DOCKED: REMARK    9  A    between atoms: C_35  and  C_36 
DOCKED: REMARK   10  A    between atoms: C_36  and  O_38 
DOCKED: REMARK   11  A    between atoms: FE_43  and  C_44 
DOCKED: REMARK   12  A    between atoms: C_44  and  O_45 
DOCKED: USER                              x       y       z     vdW  Elec       q    Type
DOCKED: USER                           _______ _______ _______ _____ _____    ______ ____
DOCKED: ROOT
DOCKED: ATOM      1  C   UNL d   1      -8.655 -14.995  -2.102 -0.11 +0.06    +0.064 A 
DOCKED: ATOM      2  C   UNL d   1     -11.619 -11.610  -3.638 -0.32 +0.01    +0.064 C 
DOCKED: ATOM      3  C   UNL d   1     -13.541 -14.662  -6.771 -0.14 +0.01    +0.064 A 
DOCKED: ATOM      4  C   UNL d   1     -10.791 -18.239  -4.954 -0.04 +0.03    +0.064 A 
DOCKED: ATOM      5  C   UNL d   1      -9.299 -13.836  -2.316 -0.12 +0.04    +0.066 A 
DOCKED: ATOM      6  C   UNL d   1      -9.062 -12.692  -1.529 -0.23 -0.01    -0.021 A 
DOCKED: ATOM      7  C   UNL d   1      -9.941 -11.720  -1.964 -0.30 -0.01    -0.025 A 
DOCKED: ATOM      8  C   UNL d   1     -10.664 -12.306  -3.008 -0.11 +0.02    +0.066 A 
DOCKED: ATOM      9  C   UNL d   1     -10.106 -10.290  -1.427 -0.47 +0.01    +0.051 C 
DOCKED: ATOM     10  C   UNL d   1     -12.396 -12.120  -4.740 -0.26 +0.01    +0.066 A 
DOCKED: ATOM     11  C   UNL d   1     -13.313 -11.395  -5.533 -0.34 -0.00    -0.021 A 
DOCKED: ATOM     12  C   UNL d   1     -13.856 -12.309  -6.441 -0.23 +0.00    +0.000 A 
DOCKED: ATOM     13  C   UNL d   1     -13.223 -13.516  -6.144 -0.20 +0.01    +0.070 A 
DOCKED: ATOM     14  C   UNL d   1     -13.566  -9.911  -5.473 -0.40 +0.00    +0.052 C 
DOCKED: ATOM     15  C   UNL d   1     -13.029 -16.001  -6.556 -0.11 +0.01    +0.066 A 
DOCKED: ATOM     16  C   UNL d   1     -13.504 -17.168  -7.138 -0.06 -0.00    -0.021 A 
DOCKED: ATOM     17  C   UNL d   1     -12.716 -18.203  -6.615 -0.04 +0.00    +0.000 A 
DOCKED: ATOM     18  C   UNL d   1     -11.807 -17.581  -5.765 -0.06 +0.02    +0.070 A 
DOCKED: ATOM     19  C   UNL d   1     -14.645 -17.252  -8.128 -0.04 +0.01    +0.052 C 
DOCKED: ATOM     20  C   UNL d   1      -9.954 -17.666  -4.056 -0.05 +0.03    +0.066 A 
DOCKED: ATOM     21  C   UNL d   1      -9.043 -18.409  -3.308 -0.03 -0.01    -0.025 A 
DOCKED: ATOM     22  C   UNL d   1      -8.393 -17.497  -2.498 -0.04 -0.02    -0.021 A 
DOCKED: ATOM     23  C   UNL d   1      -8.952 -16.233  -2.785 -0.08 +0.05    +0.066 A 
DOCKED: ATOM     24  C   UNL d   1      -8.817 -19.918  -3.349 -0.01 +0.02    +0.051 C 
DOCKED: ATOM     25  N   UNL d   1     -10.283 -13.615  -3.252 +0.10 -0.11    -0.248 N 
DOCKED: ATOM     26  N   UNL d   1     -12.300 -13.388  -5.153 -0.10 -0.05    -0.248 N 
DOCKED: ATOM     27  N   UNL d   1     -12.042 -16.274  -5.732 -0.06 -0.07    -0.248 N 
DOCKED: ATOM     28  N   UNL d   1      -9.899 -16.332  -3.726 -0.05 -0.13    -0.248 N 
DOCKED: ATOM     29 FE   UNL d   1     -11.212 -15.026  -4.565 -0.04 +0.00    +0.000 Fe
DOCKED: ENDROOT
DOCKED: BRANCH   6  30
DOCKED: ATOM     30  C   UNL d   1      -8.089 -12.579  -0.360 -0.23 +0.04    +0.052 C 
DOCKED: BRANCH  30  31
DOCKED: ATOM     31  C   UNL d   1      -6.651 -12.477  -0.865 -0.19 +0.13    +0.115 C 
DOCKED: BRANCH  31  32
DOCKED: ATOM     32  C   UNL d   1      -5.850 -13.730  -0.586 -0.17 +0.25    +0.139 C 
DOCKED: ATOM     33  O   UNL d   1      -4.944 -13.695   0.234 -0.11 -1.40    -0.650 OA
DOCKED: BRANCH  32  34
DOCKED: ATOM     34  O   UNL d   1      -6.136 -14.912  -1.181 -0.43 -1.69    -0.776 OA
DOCKED: ATOM     35  H   UNL d   1      -6.799 -15.537  -0.858 +0.03 +0.26    +0.167 HD
DOCKED: ENDBRANCH  32  34
DOCKED: ENDBRANCH  31  32
DOCKED: ENDBRANCH  30  31
DOCKED: ENDBRANCH   6  30
DOCKED: BRANCH  29  36
DOCKED: ATOM     36  C   UNL d   1     -12.588 -15.383  -3.023 -0.09 +0.05    +0.190 C 
DOCKED: BRANCH  36  37
DOCKED: ATOM     37  O   UNL d   1     -13.070 -14.864  -1.817 -0.11 -0.07    -0.399 OA
DOCKED: ATOM     38  H   UNL d   1     -12.351 -14.251  -1.497 +0.05 +0.03    +0.209 HD
DOCKED: ENDBRANCH  36  37
DOCKED: ENDBRANCH  29  36
DOCKED: BRANCH  22  39
DOCKED: ATOM     39  C   UNL d   1      -7.339 -17.836  -1.460 -0.03 +0.04    +0.052 C 
DOCKED: BRANCH  39  40
DOCKED: ATOM     40  C   UNL d   1      -7.933 -17.772  -0.043 -0.00 +0.08    +0.115 C 
DOCKED: BRANCH  40  41
DOCKED: ATOM     41  C   UNL d   1      -7.545 -16.536   0.742 -0.04 +0.15    +0.139 C 
DOCKED: ATOM     42  O   UNL d   1      -8.421 -15.783   1.144 +0.04 -0.59    -0.650 OA
DOCKED: BRANCH  41  43
DOCKED: ATOM     43  O   UNL d   1      -6.262 -16.287   1.086 -0.16 -1.44    -0.776 OA
DOCKED: ATOM     44  H   UNL d   1      -5.681 -15.726   0.555 +0.02 +0.39    +0.167 HD
DOCKED: ENDBRANCH  41  43
DOCKED: ENDBRANCH  40  41
DOCKED: ENDBRANCH  39  40
DOCKED: ENDBRANCH  22  39
DOCKED: BRANCH  12  45
DOCKED: ATOM     45  C   UNL d   1     -14.879 -12.176  -7.561 -0.20 +0.00    +0.004 C 
DOCKED: ATOM     46  C   UNL d   1     -14.714 -12.064  -8.876 -0.28 +0.00    +0.012 C 
DOCKED: ENDBRANCH  12  45
DOCKED: BRANCH  17  47
DOCKED: ATOM     47  C   UNL d   1     -12.810 -19.677  -6.832 -0.02 +0.00    +0.004 C 
DOCKED: ATOM     48  C   UNL d   1     -11.869 -20.393  -7.453 -0.03 +0.00    +0.012 C 
DOCKED: ENDBRANCH  17  47
DOCKED: TORSDOF 12
DOCKED: TER
DOCKED: ENDMDL
________________________________________________________________________________


	BEGINNING GENETIC ALGORITHM DOCKING 95 of 100
Run: 95 Seed: 1072363496 1962732601 [ Run 95 of 100 GA/GALS ]
Beginning LAMARCKIAN GENETIC ALGORITHM (LGA), with a maximum of 25000000 energy evaluations.

Final-Value: -11.585


	FINAL GENETIC ALGORITHM DOCKED STATE
	_______________________________________________


Detailed state:  trans -9.837 -18.055 -5.010 quatxyzw -0.362908 -0.900475 -0.118955 0.208067 center 8.781 34.984 -0.736 ntor 12 -52.2471 127.5425 123.5840 -97.4409 -66.9310 121.5945 35.3114 -24.3850 -179.7880 163.2323 179.3932 -179.5339
State:	 -9.837 -18.055  -5.010  -0.371 -0.921 -0.122 155.982    -52.25  127.54  123.58  -97.44  -66.93  121.59   35.31  -24.39 -179.79  163.23  179.39 -179.53

DOCKED: MODEL       95
DOCKED: USER    Run = 95
DOCKED: USER    DPF = D:/Protein_go_brrr/autodock/final/AncA/heme_Co/dock.dpf
DOCKED: USER  
DOCKED: USER    Estimated Free Energy of Binding    =   -5.16 kcal/mol  [=(1)+(2)+(3)-(4)]
DOCKED: USER    Estimated Inhibition Constant, Ki   =  165.87 uM (micromolar)  [Temperature = 298.15 K]
DOCKED: USER    
DOCKED: USER    (1) Final Intermolecular Energy     =   -8.74 kcal/mol
DOCKED: USER        vdW + Hbond + desolv Energy     =   -4.94 kcal/mol
DOCKED: USER        Electrostatic Energy            =   -3.80 kcal/mol
DOCKED: USER    (2) Final Total Internal Energy     =   -2.85 kcal/mol
DOCKED: USER    (3) Torsional Free Energy           =   +3.58 kcal/mol
DOCKED: USER    (4) Unbound System's Energy  [=(2)] =   -2.85 kcal/mol
DOCKED: USER    
DOCKED: USER    
DOCKED: USER    NEWDPF move heme_Co_opt.pdbqt
DOCKED: USER    NEWDPF about 8.781000 34.984000 -0.736000
DOCKED: USER    NEWDPF tran0 -9.836645 -18.055285 -5.010242
DOCKED: USER    NEWDPF quaternion0 -0.362908 -0.900475 -0.118955 0.208067
DOCKED: USER    NEWDPF axisangle0 -0.371029 -0.920623 -0.121617 155.981803
DOCKED: USER    NEWDPF quat0 -0.371029 -0.920623 -0.121617 155.981803
DOCKED: USER    NEWDPF dihe0 -52.25 127.54 123.58 -97.44 -66.93 121.59 35.31 -24.39 -179.79 163.23 179.39 -179.53 
DOCKED: USER  keepresnum = 1 
DOCKED: USER  
DOCKED: REMARK  12 active torsions:
DOCKED: REMARK  status: ('A' for Active; 'I' for Inactive)
DOCKED: REMARK    1  A    between atoms: C_6  and  C_10 
DOCKED: REMARK    2  A    between atoms: C_10  and  C_11 
DOCKED: REMARK    3  A    between atoms: C_11  and  C_12 
DOCKED: REMARK    4  A    between atoms: C_12  and  O_14 
DOCKED: REMARK    5  A    between atoms: C_17  and  C_20 
DOCKED: REMARK    6  A    between atoms: C_24  and  C_27 
DOCKED: REMARK    7  A    between atoms: C_31  and  C_34 
DOCKED: REMARK    8  A    between atoms: C_34  and  C_35 
DOCKED: REMARK    9  A    between atoms: C_35  and  C_36 
DOCKED: REMARK   10  A    between atoms: C_36  and  O_38 
DOCKED: REMARK   11  A    between atoms: FE_43  and  C_44 
DOCKED: REMARK   12  A    between atoms: C_44  and  O_45 
DOCKED: USER                              x       y       z     vdW  Elec       q    Type
DOCKED: USER                           _______ _______ _______ _____ _____    ______ ____
DOCKED: ROOT
DOCKED: ATOM      1  C   UNL d   1      -8.669 -19.116  -3.518 -0.02 +0.04    +0.064 A 
DOCKED: ATOM      2  C   UNL d   1      -9.372 -19.879  -8.158 -0.14 +0.05    +0.064 C 
DOCKED: ATOM      3  C   UNL d   1     -12.516 -16.284  -8.311 -0.03 +0.01    +0.064 A 
DOCKED: ATOM      4  C   UNL d   1     -11.528 -15.239  -3.664 -0.09 +0.02    +0.064 A 
DOCKED: ATOM      5  C   UNL d   1      -8.658 -19.612  -4.766 -0.03 +0.04    +0.066 A 
DOCKED: ATOM      6  C   UNL d   1      -7.790 -20.653  -5.149 -0.03 -0.01    -0.021 A 
DOCKED: ATOM      7  C   UNL d   1      -7.982 -20.855  -6.501 -0.08 -0.02    -0.025 A 
DOCKED: ATOM      8  C   UNL d   1      -8.969 -19.940  -6.883 -0.09 +0.05    +0.066 A 
DOCKED: ATOM      9  C   UNL d   1      -7.270 -21.865  -7.414 -0.06 +0.05    +0.051 C 
DOCKED: ATOM     10  C   UNL d   1     -10.400 -18.989  -8.638 -0.15 +0.03    +0.066 A 
DOCKED: ATOM     11  C   UNL d   1     -10.966 -18.973  -9.931 -0.15 -0.01    -0.021 A 
DOCKED: ATOM     12  C   UNL d   1     -11.883 -17.918  -9.947 -0.18 +0.00    +0.000 A 
DOCKED: ATOM     13  C   UNL d   1     -11.818 -17.378  -8.662 -0.14 +0.02    +0.070 A 
DOCKED: ATOM     14  C   UNL d   1     -10.704 -19.969 -11.032 -0.10 +0.02    +0.052 C 
DOCKED: ATOM     15  C   UNL d   1     -12.529 -15.566  -7.052 -0.16 +0.01    +0.066 A 
DOCKED: ATOM     16  C   UNL d   1     -13.163 -14.358  -6.800 -0.21 -0.00    -0.021 A 
DOCKED: ATOM     17  C   UNL d   1     -12.879 -14.051  -5.461 -0.18 +0.00    +0.000 A 
DOCKED: ATOM     18  C   UNL d   1     -12.105 -15.109  -4.996 -0.11 +0.02    +0.070 A 
DOCKED: ATOM     19  C   UNL d   1     -13.981 -13.571  -7.800 -0.23 +0.00    +0.052 C 
DOCKED: ATOM     20  C   UNL d   1     -10.702 -16.214  -3.215 -0.06 +0.03    +0.066 A 
DOCKED: ATOM     21  C   UNL d   1     -10.182 -16.212  -1.923 -0.05 -0.01    -0.025 A 
DOCKED: ATOM     22  C   UNL d   1      -9.377 -17.334  -1.843 -0.02 -0.01    -0.021 A 
DOCKED: ATOM     23  C   UNL d   1      -9.437 -17.963  -3.104 -0.03 +0.04    +0.066 A 
DOCKED: ATOM     24  C   UNL d   1     -10.423 -15.181  -0.824 -0.11 +0.02    +0.051 C 
DOCKED: ATOM     25  N   UNL d   1      -9.411 -19.161  -5.826 -0.03 -0.14    -0.248 N 
DOCKED: ATOM     26  N   UNL d   1     -10.963 -18.062  -7.856 -0.11 -0.10    -0.248 N 
DOCKED: ATOM     27  N   UNL d   1     -11.891 -15.977  -5.979 -0.09 -0.07    -0.248 N 
DOCKED: ATOM     28  N   UNL d   1     -10.236 -17.288  -3.939 -0.03 -0.12    -0.248 N 
DOCKED: ATOM     29 FE   UNL d   1     -10.724 -17.474  -5.903 -0.02 +0.00    +0.000 Fe
DOCKED: ENDROOT
DOCKED: BRANCH   6  30
DOCKED: ATOM     30  C   UNL d   1      -6.768 -21.357  -4.262 -0.01 +0.03    +0.052 C 
DOCKED: BRANCH  30  31
DOCKED: ATOM     31  C   UNL d   1      -5.382 -20.739  -4.444 -0.02 +0.09    +0.115 C 
DOCKED: BRANCH  31  32
DOCKED: ATOM     32  C   UNL d   1      -5.376 -19.629  -5.473 -0.11 +0.16    +0.139 C 
DOCKED: ATOM     33  O   UNL d   1      -5.080 -19.885  -6.630 +0.00 -1.23    -0.650 OA
DOCKED: BRANCH  32  34
DOCKED: ATOM     34  O   UNL d   1      -5.736 -18.361  -5.164 +0.01 -0.94    -0.776 OA
DOCKED: ATOM     35  H   UNL d   1      -6.588 -18.117  -4.778 +0.03 +0.18    +0.167 HD
DOCKED: ENDBRANCH  32  34
DOCKED: ENDBRANCH  31  32
DOCKED: ENDBRANCH  30  31
DOCKED: ENDBRANCH   6  30
DOCKED: BRANCH  29  36
DOCKED: ATOM     36  C   UNL d   1      -9.050 -16.338  -6.452 -0.22 +0.13    +0.190 C 
DOCKED: BRANCH  36  37
DOCKED: ATOM     37  O   UNL d   1      -7.669 -16.225  -6.262 -0.22 -0.40    -0.399 OA
DOCKED: ATOM     38  H   UNL d   1      -7.397 -17.089  -5.842 +0.06 +0.22    +0.209 HD
DOCKED: ENDBRANCH  36  37
DOCKED: ENDBRANCH  29  36
DOCKED: BRANCH  22  39
DOCKED: ATOM     39  C   UNL d   1      -8.547 -17.736  -0.638 -0.00 +0.03    +0.052 C 
DOCKED: BRANCH  39  40
DOCKED: ATOM     40  C   UNL d   1      -7.262 -16.895  -0.558 -0.04 +0.12    +0.115 C 
DOCKED: BRANCH  40  41
DOCKED: ATOM     41  C   UNL d   1      -6.833 -16.284  -1.876 -0.01 +0.22    +0.139 C 
DOCKED: ATOM     42  O   UNL d   1      -6.857 -15.069  -2.008 -0.45 -1.33    -0.650 OA
DOCKED: BRANCH  41  43
DOCKED: ATOM     43  O   UNL d   1      -6.340 -17.040  -2.882 -0.09 -1.29    -0.776 OA
DOCKED: ATOM     44  H   UNL d   1      -6.671 -16.979  -3.787 +0.03 +0.25    +0.167 HD
DOCKED: ENDBRANCH  41  43
DOCKED: ENDBRANCH  40  41
DOCKED: ENDBRANCH  39  40
DOCKED: ENDBRANCH  22  39
DOCKED: BRANCH  12  45
DOCKED: ATOM     45  C   UNL d   1     -12.821 -17.373 -11.016 -0.19 +0.00    +0.004 C 
DOCKED: ATOM     46  C   UNL d   1     -12.745 -16.268 -11.752 -0.33 +0.01    +0.012 C 
DOCKED: ENDBRANCH  12  45
DOCKED: BRANCH  17  47
DOCKED: ATOM     47  C   UNL d   1     -13.243 -12.844  -4.661 -0.25 +0.00    +0.004 C 
DOCKED: ATOM     48  C   UNL d   1     -12.492 -11.741  -4.606 -0.38 +0.00    +0.012 C 
DOCKED: ENDBRANCH  17  47
DOCKED: TORSDOF 12
DOCKED: TER
DOCKED: ENDMDL
________________________________________________________________________________


	BEGINNING GENETIC ALGORITHM DOCKING 96 of 100
Run: 96 Seed: 576239690 745730597 [ Run 96 of 100 GA/GALS ]
Beginning LAMARCKIAN GENETIC ALGORITHM (LGA), with a maximum of 25000000 energy evaluations.

Final-Value: -12.905


	FINAL GENETIC ALGORITHM DOCKED STATE
	_______________________________________________


Detailed state:  trans -10.390 -14.350 -3.409 quatxyzw -0.534274 0.395843 0.739614 0.104069 center 8.781 34.984 -0.736 ntor 12 67.6845 134.9586 75.4187 121.4342 132.2073 120.4435 -145.6914 -22.0945 -45.0671 -49.2357 -138.2913 -20.4208
State:	-10.390 -14.350  -3.409  -0.537  0.398  0.744 168.053     67.68  134.96   75.42  121.43  132.21  120.44 -145.69  -22.09  -45.07  -49.24 -138.29  -20.42

DOCKED: MODEL       96
DOCKED: USER    Run = 96
DOCKED: USER    DPF = D:/Protein_go_brrr/autodock/final/AncA/heme_Co/dock.dpf
DOCKED: USER  
DOCKED: USER    Estimated Free Energy of Binding    =   -7.59 kcal/mol  [=(1)+(2)+(3)-(4)]
DOCKED: USER    Estimated Inhibition Constant, Ki   =    2.74 uM (micromolar)  [Temperature = 298.15 K]
DOCKED: USER    
DOCKED: USER    (1) Final Intermolecular Energy     =  -11.17 kcal/mol
DOCKED: USER        vdW + Hbond + desolv Energy     =   -7.37 kcal/mol
DOCKED: USER        Electrostatic Energy            =   -3.80 kcal/mol
DOCKED: USER    (2) Final Total Internal Energy     =   -1.74 kcal/mol
DOCKED: USER    (3) Torsional Free Energy           =   +3.58 kcal/mol
DOCKED: USER    (4) Unbound System's Energy  [=(2)] =   -1.74 kcal/mol
DOCKED: USER    
DOCKED: USER    
DOCKED: USER    NEWDPF move heme_Co_opt.pdbqt
DOCKED: USER    NEWDPF about 8.781000 34.984000 -0.736000
DOCKED: USER    NEWDPF tran0 -10.389911 -14.349713 -3.408807
DOCKED: USER    NEWDPF quaternion0 -0.534274 0.395843 0.739614 0.104069
DOCKED: USER    NEWDPF axisangle0 -0.537191 0.398004 0.743652 168.052908
DOCKED: USER    NEWDPF quat0 -0.537191 0.398004 0.743652 168.052908
DOCKED: USER    NEWDPF dihe0 67.68 134.96 75.42 121.43 132.21 120.44 -145.69 -22.09 -45.07 -49.24 -138.29 -20.42 
DOCKED: USER  keepresnum = 1 
DOCKED: USER  
DOCKED: REMARK  12 active torsions:
DOCKED: REMARK  status: ('A' for Active; 'I' for Inactive)
DOCKED: REMARK    1  A    between atoms: C_6  and  C_10 
DOCKED: REMARK    2  A    between atoms: C_10  and  C_11 
DOCKED: REMARK    3  A    between atoms: C_11  and  C_12 
DOCKED: REMARK    4  A    between atoms: C_12  and  O_14 
DOCKED: REMARK    5  A    between atoms: C_17  and  C_20 
DOCKED: REMARK    6  A    between atoms: C_24  and  C_27 
DOCKED: REMARK    7  A    between atoms: C_31  and  C_34 
DOCKED: REMARK    8  A    between atoms: C_34  and  C_35 
DOCKED: REMARK    9  A    between atoms: C_35  and  C_36 
DOCKED: REMARK   10  A    between atoms: C_36  and  O_38 
DOCKED: REMARK   11  A    between atoms: FE_43  and  C_44 
DOCKED: REMARK   12  A    between atoms: C_44  and  O_45 
DOCKED: USER                              x       y       z     vdW  Elec       q    Type
DOCKED: USER                           _______ _______ _______ _____ _____    ______ ____
DOCKED: ROOT
DOCKED: ATOM      1  C   UNL d   1      -8.994 -13.968  -1.790 -0.13 +0.05    +0.064 A 
DOCKED: ATOM      2  C   UNL d   1     -12.051 -11.154  -4.102 -0.34 +0.00    +0.064 C 
DOCKED: ATOM      3  C   UNL d   1     -13.142 -14.725  -7.083 -0.17 +0.01    +0.064 A 
DOCKED: ATOM      4  C   UNL d   1     -10.316 -17.727  -4.501 -0.05 +0.03    +0.064 A 
DOCKED: ATOM      5  C   UNL d   1      -9.722 -12.927  -2.225 -0.17 +0.03    +0.066 A 
DOCKED: ATOM      6  C   UNL d   1      -9.731 -11.689  -1.554 -0.32 -0.01    -0.021 A 
DOCKED: ATOM      7  C   UNL d   1     -10.637 -10.883  -2.215 -0.32 -0.01    -0.025 A 
DOCKED: ATOM      8  C   UNL d   1     -11.129 -11.658  -3.271 -0.28 +0.01    +0.066 A 
DOCKED: ATOM      9  C   UNL d   1     -11.035  -9.438  -1.878 -0.31 +0.00    +0.051 C 
DOCKED: ATOM     10  C   UNL d   1     -12.596 -11.867  -5.231 -0.30 +0.01    +0.066 A 
DOCKED: ATOM     11  C   UNL d   1     -13.458 -11.347  -6.220 -0.30 -0.00    -0.021 A 
DOCKED: ATOM     12  C   UNL d   1     -13.757 -12.408  -7.079 -0.23 +0.00    +0.000 A 
DOCKED: ATOM     13  C   UNL d   1     -13.047 -13.491  -6.559 -0.23 +0.01    +0.070 A 
DOCKED: ATOM     14  C   UNL d   1     -13.878  -9.907  -6.370 -0.41 -0.00    +0.052 C 
DOCKED: ATOM     15  C   UNL d   1     -12.523 -15.961  -6.644 -0.14 +0.01    +0.066 A 
DOCKED: ATOM     16  C   UNL d   1     -12.776 -17.231  -7.143 -0.09 -0.01    -0.021 A 
DOCKED: ATOM     17  C   UNL d   1     -11.966 -18.100  -6.400 -0.06 +0.00    +0.000 A 
DOCKED: ATOM     18  C   UNL d   1     -11.266 -17.287  -5.514 -0.08 +0.03    +0.070 A 
DOCKED: ATOM     19  C   UNL d   1     -13.742 -17.557  -8.261 -0.07 +0.01    +0.052 C 
DOCKED: ATOM     20  C   UNL d   1      -9.689 -16.965  -3.572 -0.06 +0.04    +0.066 A 
DOCKED: ATOM     21  C   UNL d   1      -8.823 -17.509  -2.626 -0.04 -0.02    -0.025 A 
DOCKED: ATOM     22  C   UNL d   1      -8.404 -16.445  -1.848 -0.06 -0.02    -0.021 A 
DOCKED: ATOM     23  C   UNL d   1      -9.050 -15.297  -2.356 -0.10 +0.05    +0.066 A 
DOCKED: ATOM     24  C   UNL d   1      -8.430 -18.974  -2.457 -0.01 +0.03    +0.051 C 
DOCKED: ATOM     25  N   UNL d   1     -10.575 -12.927  -3.305 +0.01 -0.09    -0.248 N 
DOCKED: ATOM     26  N   UNL d   1     -12.301 -13.148  -5.475 -0.11 -0.05    -0.248 N 
DOCKED: ATOM     27  N   UNL d   1     -11.646 -16.023  -5.667 -0.09 -0.07    -0.248 N 
DOCKED: ATOM     28  N   UNL d   1      -9.830 -15.608  -3.398 -0.06 -0.14    -0.248 N 
DOCKED: ATOM     29 FE   UNL d   1     -11.140 -14.569  -4.555 -0.04 +0.00    +0.000 Fe
DOCKED: ENDROOT
DOCKED: BRANCH   6  30
DOCKED: ATOM     30  C   UNL d   1      -8.961 -11.336  -0.285 -0.27 +0.03    +0.052 C 
DOCKED: BRANCH  30  31
DOCKED: ATOM     31  C   UNL d   1      -9.262 -12.344   0.823 -0.28 +0.08    +0.115 C 
DOCKED: BRANCH  31  32
DOCKED: ATOM     32  C   UNL d   1      -8.007 -12.831   1.516 -0.26 +0.15    +0.139 C 
DOCKED: ATOM     33  O   UNL d   1      -7.534 -12.176   2.432 -0.64 -0.83    -0.650 OA
DOCKED: BRANCH  32  34
DOCKED: ATOM     34  O   UNL d   1      -7.414 -14.002   1.186 +0.05 -1.21    -0.776 OA
DOCKED: ATOM     35  H   UNL d   1      -7.025 -14.190   0.321 +0.05 +0.26    +0.167 HD
DOCKED: ENDBRANCH  32  34
DOCKED: ENDBRANCH  31  32
DOCKED: ENDBRANCH  30  31
DOCKED: ENDBRANCH   6  30
DOCKED: BRANCH  29  36
DOCKED: ATOM     36  C   UNL d   1     -12.681 -14.937  -3.182 -0.11 +0.04    +0.190 C 
DOCKED: BRANCH  36  37
DOCKED: ATOM     37  O   UNL d   1     -12.999 -14.877  -1.822 -0.11 -0.07    -0.399 OA
DOCKED: ATOM     38  H   UNL d   1     -12.355 -14.220  -1.436 +0.05 +0.03    +0.209 HD
DOCKED: ENDBRANCH  36  37
DOCKED: ENDBRANCH  29  36
DOCKED: BRANCH  22  39
DOCKED: ATOM     39  C   UNL d   1      -7.485 -16.542  -0.645 -0.06 +0.05    +0.052 C 
DOCKED: BRANCH  39  40
DOCKED: ATOM     40  C   UNL d   1      -6.016 -16.621  -1.090 -0.05 +0.18    +0.115 C 
DOCKED: BRANCH  40  41
DOCKED: ATOM     41  C   UNL d   1      -5.119 -15.568  -0.474 -0.12 +0.28    +0.139 C 
DOCKED: ATOM     42  O   UNL d   1      -4.209 -15.915   0.266 -0.27 -1.25    -0.650 OA
DOCKED: BRANCH  41  43
DOCKED: ATOM     43  O   UNL d   1      -5.240 -14.260  -0.788 -0.14 -1.77    -0.776 OA
DOCKED: ATOM     44  H   UNL d   1      -5.901 -13.686  -0.378 +0.04 +0.30    +0.167 HD
DOCKED: ENDBRANCH  41  43
DOCKED: ENDBRANCH  40  41
DOCKED: ENDBRANCH  39  40
DOCKED: ENDBRANCH  22  39
DOCKED: BRANCH  12  45
DOCKED: ATOM     45  C   UNL d   1     -14.612 -12.519  -8.334 -0.25 +0.00    +0.004 C 
DOCKED: ATOM     46  C   UNL d   1     -14.268 -12.750  -9.598 -0.34 +0.00    +0.012 C 
DOCKED: ENDBRANCH  12  45
DOCKED: BRANCH  17  47
DOCKED: ATOM     47  C   UNL d   1     -11.865 -19.589  -6.452 -0.03 +0.00    +0.004 C 
DOCKED: ATOM     48  C   UNL d   1     -10.796 -20.240  -6.917 -0.04 +0.00    +0.012 C 
DOCKED: ENDBRANCH  17  47
DOCKED: TORSDOF 12
DOCKED: TER
DOCKED: ENDMDL
________________________________________________________________________________


	BEGINNING GENETIC ALGORITHM DOCKING 97 of 100
Run: 97 Seed: 1511698368 1714659687 [ Run 97 of 100 GA/GALS ]
Beginning LAMARCKIAN GENETIC ALGORITHM (LGA), with a maximum of 25000000 energy evaluations.

Final-Value: -13.128


	FINAL GENETIC ALGORITHM DOCKED STATE
	_______________________________________________


Detailed state:  trans -0.422 -15.350 -1.424 quatxyzw -0.342600 -0.023472 0.376405 -0.860461 center 8.781 34.984 -0.736 ntor 12 110.0222 132.1455 -16.7809 -18.0571 131.6300 130.0899 -134.0863 -111.3482 -119.5368 29.8384 168.3833 -53.7318
State:	 -0.422 -15.350  -1.424  -0.672 -0.046  0.739 -61.263    110.02  132.15  -16.78  -18.06  131.63  130.09 -134.09 -111.35 -119.54   29.84  168.38  -53.73

DOCKED: MODEL       97
DOCKED: USER    Run = 97
DOCKED: USER    DPF = D:/Protein_go_brrr/autodock/final/AncA/heme_Co/dock.dpf
DOCKED: USER  
DOCKED: USER    Estimated Free Energy of Binding    =   -8.04 kcal/mol  [=(1)+(2)+(3)-(4)]
DOCKED: USER    Estimated Inhibition Constant, Ki   =    1.27 uM (micromolar)  [Temperature = 298.15 K]
DOCKED: USER    
DOCKED: USER    (1) Final Intermolecular Energy     =  -11.62 kcal/mol
DOCKED: USER        vdW + Hbond + desolv Energy     =   -7.14 kcal/mol
DOCKED: USER        Electrostatic Energy            =   -4.49 kcal/mol
DOCKED: USER    (2) Final Total Internal Energy     =   -1.51 kcal/mol
DOCKED: USER    (3) Torsional Free Energy           =   +3.58 kcal/mol
DOCKED: USER    (4) Unbound System's Energy  [=(2)] =   -1.51 kcal/mol
DOCKED: USER    
DOCKED: USER    
DOCKED: USER    NEWDPF move heme_Co_opt.pdbqt
DOCKED: USER    NEWDPF about 8.781000 34.984000 -0.736000
DOCKED: USER    NEWDPF tran0 -0.422321 -15.350419 -1.424022
DOCKED: USER    NEWDPF quaternion0 -0.342600 -0.023472 0.376405 -0.860461
DOCKED: USER    NEWDPF axisangle0 -0.672403 -0.046068 0.738750 -61.263184
DOCKED: USER    NEWDPF quat0 -0.672403 -0.046068 0.738750 -61.263184
DOCKED: USER    NEWDPF dihe0 110.02 132.15 -16.78 -18.06 131.63 130.09 -134.09 -111.35 -119.54 29.84 168.38 -53.73 
DOCKED: USER  keepresnum = 1 
DOCKED: USER  
DOCKED: REMARK  12 active torsions:
DOCKED: REMARK  status: ('A' for Active; 'I' for Inactive)
DOCKED: REMARK    1  A    between atoms: C_6  and  C_10 
DOCKED: REMARK    2  A    between atoms: C_10  and  C_11 
DOCKED: REMARK    3  A    between atoms: C_11  and  C_12 
DOCKED: REMARK    4  A    between atoms: C_12  and  O_14 
DOCKED: REMARK    5  A    between atoms: C_17  and  C_20 
DOCKED: REMARK    6  A    between atoms: C_24  and  C_27 
DOCKED: REMARK    7  A    between atoms: C_31  and  C_34 
DOCKED: REMARK    8  A    between atoms: C_34  and  C_35 
DOCKED: REMARK    9  A    between atoms: C_35  and  C_36 
DOCKED: REMARK   10  A    between atoms: C_36  and  O_38 
DOCKED: REMARK   11  A    between atoms: FE_43  and  C_44 
DOCKED: REMARK   12  A    between atoms: C_44  and  O_45 
DOCKED: USER                              x       y       z     vdW  Elec       q    Type
DOCKED: USER                           _______ _______ _______ _____ _____    ______ ____
DOCKED: ROOT
DOCKED: ATOM      1  C   UNL d   1      -1.869 -16.881  -1.956 -0.06 +0.07    +0.064 A 
DOCKED: ATOM      2  C   UNL d   1      -0.402 -15.191   2.240 -0.12 +0.05    +0.064 C 
DOCKED: ATOM      3  C   UNL d   1       2.852 -12.464   0.047 -0.17 +0.02    +0.064 A 
DOCKED: ATOM      4  C   UNL d   1       1.113 -13.883  -4.269 -0.19 +0.03    +0.064 A 
DOCKED: ATOM      5  C   UNL d   1      -1.682 -16.646  -0.646 -0.06 +0.06    +0.066 A 
DOCKED: ATOM      6  C   UNL d   1      -2.509 -17.219   0.340 -0.06 -0.02    -0.021 A 
DOCKED: ATOM      7  C   UNL d   1      -2.093 -16.707   1.554 -0.06 -0.03    -0.025 A 
DOCKED: ATOM      8  C   UNL d   1      -1.021 -15.858   1.258 -0.08 +0.06    +0.066 A 
DOCKED: ATOM      9  C   UNL d   1      -2.673 -16.997   2.947 -0.04 +0.06    +0.051 C 
DOCKED: ATOM     10  C   UNL d   1       0.726 -14.316   2.035 -0.12 +0.04    +0.066 A 
DOCKED: ATOM     11  C   UNL d   1       1.507 -13.698   3.035 -0.16 -0.01    -0.021 A 
DOCKED: ATOM     12  C   UNL d   1       2.451 -12.912   2.367 -0.18 +0.00    +0.000 A 
DOCKED: ATOM     13  C   UNL d   1       2.184 -13.118   1.014 -0.14 +0.02    +0.070 A 
DOCKED: ATOM     14  C   UNL d   1       1.403 -13.932   4.520 -0.16 +0.02    +0.052 C 
DOCKED: ATOM     15  C   UNL d   1       2.673 -12.516  -1.391 -0.14 +0.02    +0.066 A 
DOCKED: ATOM     16  C   UNL d   1       3.297 -11.705  -2.328 -0.24 -0.00    -0.021 A 
DOCKED: ATOM     17  C   UNL d   1       2.797 -12.109  -3.574 -0.25 +0.00    +0.000 A 
DOCKED: ATOM     18  C   UNL d   1       1.916 -13.150  -3.299 -0.15 +0.03    +0.070 A 
DOCKED: ATOM     19  C   UNL d   1       4.304 -10.620  -2.017 -0.14 +0.01    +0.052 C 
DOCKED: ATOM     20  C   UNL d   1       0.186 -14.839  -4.018 -0.15 +0.05    +0.066 A 
DOCKED: ATOM     21  C   UNL d   1      -0.549 -15.447  -5.033 -0.22 -0.02    -0.025 A 
DOCKED: ATOM     22  C   UNL d   1      -1.397 -16.337  -4.398 -0.12 -0.02    -0.021 A 
DOCKED: ATOM     23  C   UNL d   1      -1.142 -16.218  -3.015 -0.10 +0.07    +0.066 A 
DOCKED: ATOM     24  C   UNL d   1      -0.464 -15.180  -6.533 -0.38 +0.03    +0.051 C 
DOCKED: ATOM     25  N   UNL d   1      -0.741 -15.806  -0.097 -0.04 -0.20    -0.248 N 
DOCKED: ATOM     26  N   UNL d   1       1.178 -14.010   0.814 -0.06 -0.12    -0.248 N 
DOCKED: ATOM     27  N   UNL d   1       1.844 -13.344  -1.987 -0.04 -0.10    -0.248 N 
DOCKED: ATOM     28  N   UNL d   1      -0.187 -15.311  -2.780 -0.05 -0.20    -0.248 N 
DOCKED: ATOM     29 FE   UNL d   1       0.627 -14.504  -1.101 -0.02 +0.00    +0.000 Fe
DOCKED: ENDROOT
DOCKED: BRANCH   6  30
DOCKED: ATOM     30  C   UNL d   1      -3.693 -18.150   0.106 -0.04 +0.05    +0.052 C 
DOCKED: BRANCH  30  31
DOCKED: ATOM     31  C   UNL d   1      -5.010 -17.421   0.371 -0.06 +0.14    +0.115 C 
DOCKED: BRANCH  31  32
DOCKED: ATOM     32  C   UNL d   1      -5.180 -16.198  -0.506 -0.10 +0.25    +0.139 C 
DOCKED: ATOM     33  O   UNL d   1      -5.827 -16.285  -1.539 -0.26 -1.38    -0.650 OA
DOCKED: BRANCH  32  34
DOCKED: ATOM     34  O   UNL d   1      -4.675 -14.991  -0.159 -0.37 -1.79    -0.776 OA
DOCKED: ATOM     35  H   UNL d   1      -3.896 -14.590  -0.568 +0.02 +0.34    +0.167 HD
DOCKED: ENDBRANCH  32  34
DOCKED: ENDBRANCH  31  32
DOCKED: ENDBRANCH  30  31
DOCKED: ENDBRANCH   6  30
DOCKED: BRANCH  29  36
DOCKED: ATOM     36  C   UNL d   1      -0.884 -13.052  -1.038 -0.17 +0.15    +0.190 C 
DOCKED: BRANCH  36  37
DOCKED: ATOM     37  O   UNL d   1      -2.270 -12.890  -0.957 -0.14 -0.47    -0.399 OA
DOCKED: ATOM     38  H   UNL d   1      -2.610 -13.759  -0.604 +0.05 +0.30    +0.209 HD
DOCKED: ENDBRANCH  36  37
DOCKED: ENDBRANCH  29  36
DOCKED: BRANCH  22  39
DOCKED: ATOM     39  C   UNL d   1      -2.437 -17.203  -5.084 -0.11 +0.07    +0.052 C 
DOCKED: BRANCH  39  40
DOCKED: ATOM     40  C   UNL d   1      -1.830 -17.917  -6.303 -0.15 +0.11    +0.115 C 
DOCKED: BRANCH  40  41
DOCKED: ATOM     41  C   UNL d   1      -2.839 -18.317  -7.359 -0.06 +0.21    +0.139 C 
DOCKED: ATOM     42  O   UNL d   1      -3.877 -17.680  -7.466 -0.37 -1.11    -0.650 OA
DOCKED: BRANCH  41  43
DOCKED: ATOM     43  O   UNL d   1      -2.586 -19.305  -8.245 -0.37 -1.49    -0.776 OA
DOCKED: ATOM     44  H   UNL d   1      -1.710 -19.701  -8.346 +0.03 +0.20    +0.167 HD
DOCKED: ENDBRANCH  41  43
DOCKED: ENDBRANCH  40  41
DOCKED: ENDBRANCH  39  40
DOCKED: ENDBRANCH  22  39
DOCKED: BRANCH  12  45
DOCKED: ATOM     45  C   UNL d   1       3.579 -12.010   2.850 -0.23 +0.00    +0.004 C 
DOCKED: ATOM     46  C   UNL d   1       3.726 -11.342   3.991 -0.27 +0.00    +0.012 C 
DOCKED: ENDBRANCH  12  45
DOCKED: BRANCH  17  47
DOCKED: ATOM     47  C   UNL d   1       3.062 -11.553  -4.935 -0.38 +0.00    +0.004 C 
DOCKED: ATOM     48  C   UNL d   1       3.764 -12.196  -5.871 -0.48 +0.00    +0.012 C 
DOCKED: ENDBRANCH  17  47
DOCKED: TORSDOF 12
DOCKED: TER
DOCKED: ENDMDL
________________________________________________________________________________


	BEGINNING GENETIC ALGORITHM DOCKING 98 of 100
Run: 98 Seed: 1922837674 1597656183 [ Run 98 of 100 GA/GALS ]
Beginning LAMARCKIAN GENETIC ALGORITHM (LGA), with a maximum of 25000000 energy evaluations.

Final-Value: -12.308


	FINAL GENETIC ALGORITHM DOCKED STATE
	_______________________________________________


Detailed state:  trans -11.342 -14.139 -1.208 quatxyzw -0.506210 -0.653581 0.550553 0.116083 center 8.781 34.984 -0.736 ntor 12 85.7668 98.1359 -128.6536 116.5985 -179.9562 90.8341 -83.0015 128.2858 64.2554 138.8603 -25.0059 171.4015
State:	-11.342 -14.139  -1.208  -0.510 -0.658  0.554 166.668     85.77   98.14 -128.65  116.60 -179.96   90.83  -83.00  128.29   64.26  138.86  -25.01  171.40

DOCKED: MODEL       98
DOCKED: USER    Run = 98
DOCKED: USER    DPF = D:/Protein_go_brrr/autodock/final/AncA/heme_Co/dock.dpf
DOCKED: USER  
DOCKED: USER    Estimated Free Energy of Binding    =   -6.37 kcal/mol  [=(1)+(2)+(3)-(4)]
DOCKED: USER    Estimated Inhibition Constant, Ki   =   21.48 uM (micromolar)  [Temperature = 298.15 K]
DOCKED: USER    
DOCKED: USER    (1) Final Intermolecular Energy     =   -9.95 kcal/mol
DOCKED: USER        vdW + Hbond + desolv Energy     =   -6.50 kcal/mol
DOCKED: USER        Electrostatic Energy            =   -3.45 kcal/mol
DOCKED: USER    (2) Final Total Internal Energy     =   -2.36 kcal/mol
DOCKED: USER    (3) Torsional Free Energy           =   +3.58 kcal/mol
DOCKED: USER    (4) Unbound System's Energy  [=(2)] =   -2.36 kcal/mol
DOCKED: USER    
DOCKED: USER    
DOCKED: USER    NEWDPF move heme_Co_opt.pdbqt
DOCKED: USER    NEWDPF about 8.781000 34.984000 -0.736000
DOCKED: USER    NEWDPF tran0 -11.341682 -14.138572 -1.208298
DOCKED: USER    NEWDPF quaternion0 -0.506210 -0.653581 0.550553 0.116083
DOCKED: USER    NEWDPF axisangle0 -0.509655 -0.658030 0.554300 166.667838
DOCKED: USER    NEWDPF quat0 -0.509655 -0.658030 0.554300 166.667838
DOCKED: USER    NEWDPF dihe0 85.77 98.14 -128.65 116.60 -179.96 90.83 -83.00 128.29 64.26 138.86 -25.01 171.40 
DOCKED: USER  keepresnum = 1 
DOCKED: USER  
DOCKED: REMARK  12 active torsions:
DOCKED: REMARK  status: ('A' for Active; 'I' for Inactive)
DOCKED: REMARK    1  A    between atoms: C_6  and  C_10 
DOCKED: REMARK    2  A    between atoms: C_10  and  C_11 
DOCKED: REMARK    3  A    between atoms: C_11  and  C_12 
DOCKED: REMARK    4  A    between atoms: C_12  and  O_14 
DOCKED: REMARK    5  A    between atoms: C_17  and  C_20 
DOCKED: REMARK    6  A    between atoms: C_24  and  C_27 
DOCKED: REMARK    7  A    between atoms: C_31  and  C_34 
DOCKED: REMARK    8  A    between atoms: C_34  and  C_35 
DOCKED: REMARK    9  A    between atoms: C_35  and  C_36 
DOCKED: REMARK   10  A    between atoms: C_36  and  O_38 
DOCKED: REMARK   11  A    between atoms: FE_43  and  C_44 
DOCKED: REMARK   12  A    between atoms: C_44  and  O_45 
DOCKED: USER                              x       y       z     vdW  Elec       q    Type
DOCKED: USER                           _______ _______ _______ _____ _____    ______ ____
DOCKED: ROOT
DOCKED: ATOM      1  C   UNL d   1      -9.712 -14.519   0.175 -0.11 +0.04    +0.064 A 
DOCKED: ATOM      2  C   UNL d   1     -13.907 -16.658  -0.486 -0.12 +0.01    +0.064 C 
DOCKED: ATOM      3  C   UNL d   1     -15.125 -13.355  -3.716 -0.16 +0.01    +0.064 A 
DOCKED: ATOM      4  C   UNL d   1     -10.697 -11.375  -3.341 -0.26 +0.02    +0.064 A 
DOCKED: ATOM      5  C   UNL d   1     -10.783 -15.325   0.258 -0.10 +0.03    +0.066 A 
DOCKED: ATOM      6  C   UNL d   1     -10.788 -16.480   1.065 -0.05 -0.01    -0.021 A 
DOCKED: ATOM      7  C   UNL d   1     -11.999 -17.109   0.852 -0.05 -0.01    -0.025 A 
DOCKED: ATOM      8  C   UNL d   1     -12.687 -16.304  -0.062 -0.11 +0.02    +0.066 A 
DOCKED: ATOM      9  C   UNL d   1     -12.504 -18.419   1.477 -0.02 +0.01    +0.051 C 
DOCKED: ATOM     10  C   UNL d   1     -14.700 -15.880  -1.404 -0.13 +0.01    +0.066 A 
DOCKED: ATOM     11  C   UNL d   1     -16.040 -16.124  -1.779 -0.10 -0.00    -0.021 A 
DOCKED: ATOM     12  C   UNL d   1     -16.370 -15.143  -2.718 -0.12 +0.00    +0.000 A 
DOCKED: ATOM     13  C   UNL d   1     -15.217 -14.369  -2.837 -0.15 +0.01    +0.070 A 
DOCKED: ATOM     14  C   UNL d   1     -16.953 -17.171  -1.193 -0.06 +0.01    +0.052 C 
DOCKED: ATOM     15  C   UNL d   1     -13.999 -12.489  -4.006 -0.22 +0.00    +0.066 A 
DOCKED: ATOM     16  C   UNL d   1     -13.922 -11.553  -5.029 -0.28 -0.00    -0.021 A 
DOCKED: ATOM     17  C   UNL d   1     -12.646 -10.981  -4.926 -0.39 +0.00    +0.000 A 
DOCKED: ATOM     18  C   UNL d   1     -12.049 -11.603  -3.835 -0.27 +0.01    +0.070 A 
DOCKED: ATOM     19  C   UNL d   1     -15.020 -11.252  -6.025 -0.24 +0.00    +0.052 C 
DOCKED: ATOM     20  C   UNL d   1     -10.065 -12.028  -2.337 -0.25 +0.03    +0.066 A 
DOCKED: ATOM     21  C   UNL d   1      -8.749 -11.743  -1.977 -0.27 -0.01    -0.025 A 
DOCKED: ATOM     22  C   UNL d   1      -8.448 -12.614  -0.946 -0.23 -0.02    -0.021 A 
DOCKED: ATOM     23  C   UNL d   1      -9.599 -13.402  -0.735 -0.17 +0.04    +0.066 A 
DOCKED: ATOM     24  C   UNL d   1      -7.818 -10.705  -2.597 -0.25 +0.03    +0.051 C 
DOCKED: ATOM     25  N   UNL d   1     -11.959 -15.189  -0.443 -0.06 -0.07    -0.248 N 
DOCKED: ATOM     26  N   UNL d   1     -14.227 -14.781  -2.001 -0.12 -0.03    -0.248 N 
DOCKED: ATOM     27  N   UNL d   1     -12.872 -12.516  -3.331 -0.14 -0.02    -0.248 N 
DOCKED: ATOM     28  N   UNL d   1     -10.580 -13.052  -1.576 -0.07 -0.10    -0.248 N 
DOCKED: ATOM     29 FE   UNL d   1     -12.440 -13.771  -1.972 -0.06 +0.00    +0.000 Fe
DOCKED: ENDROOT
DOCKED: BRANCH   6  30
DOCKED: ATOM     30  C   UNL d   1      -9.643 -16.988   1.934 -0.01 +0.03    +0.052 C 
DOCKED: BRANCH  30  31
DOCKED: ATOM     31  C   UNL d   1      -9.251 -15.940   2.974 -0.06 +0.08    +0.115 C 
DOCKED: BRANCH  31  32
DOCKED: ATOM     32  C   UNL d   1      -7.827 -15.457   2.801 +0.02 +0.19    +0.139 C 
DOCKED: ATOM     33  O   UNL d   1      -7.545 -14.303   3.085 -0.10 -1.21    -0.650 OA
DOCKED: BRANCH  32  34
DOCKED: ATOM     34  O   UNL d   1      -6.837 -16.280   2.383 +0.09 -1.42    -0.776 OA
DOCKED: ATOM     35  H   UNL d   1      -6.672 -16.506   1.458 +0.01 +0.27    +0.167 HD
DOCKED: ENDBRANCH  32  34
DOCKED: ENDBRANCH  31  32
DOCKED: ENDBRANCH  30  31
DOCKED: ENDBRANCH   6  30
DOCKED: BRANCH  29  36
DOCKED: ATOM     36  C   UNL d   1     -11.643 -15.146  -3.339 -0.09 +0.06    +0.190 C 
DOCKED: BRANCH  36  37
DOCKED: ATOM     37  O   UNL d   1     -10.458 -15.792  -3.708 -0.03 -0.18    -0.399 OA
DOCKED: ATOM     38  H   UNL d   1      -9.734 -15.279  -3.251 +0.05 +0.12    +0.209 HD
DOCKED: ENDBRANCH  36  37
DOCKED: ENDBRANCH  29  36
DOCKED: BRANCH  22  39
DOCKED: ATOM     39  C   UNL d   1      -7.103 -12.723  -0.251 -0.25 +0.06    +0.052 C 
DOCKED: BRANCH  39  40
DOCKED: ATOM     40  C   UNL d   1      -6.181 -13.697  -1.004 -0.15 +0.20    +0.115 C 
DOCKED: BRANCH  40  41
DOCKED: ATOM     41  C   UNL d   1      -6.836 -15.006  -1.391 +0.11 +0.24    +0.139 C 
DOCKED: ATOM     42  O   UNL d   1      -6.733 -15.970  -0.646 -0.14 -0.94    -0.650 OA
DOCKED: BRANCH  41  43
DOCKED: ATOM     43  O   UNL d   1      -7.607 -15.115  -2.496 -0.26 -1.10    -0.776 OA
DOCKED: ATOM     44  H   UNL d   1      -8.527 -15.408  -2.461 +0.04 +0.15    +0.167 HD
DOCKED: ENDBRANCH  41  43
DOCKED: ENDBRANCH  40  41
DOCKED: ENDBRANCH  39  40
DOCKED: ENDBRANCH  22  39
DOCKED: BRANCH  12  45
DOCKED: ATOM     45  C   UNL d   1     -17.643 -14.840  -3.498 -0.07 +0.00    +0.004 C 
DOCKED: ATOM     46  C   UNL d   1     -18.519 -13.847  -3.372 -0.11 +0.00    +0.012 C 
DOCKED: ENDBRANCH  12  45
DOCKED: BRANCH  17  47
DOCKED: ATOM     47  C   UNL d   1     -11.984  -9.965  -5.797 -0.54 +0.00    +0.004 C 
DOCKED: ATOM     48  C   UNL d   1     -10.964  -9.203  -5.396 -0.47 +0.00    +0.012 C 
DOCKED: ENDBRANCH  17  47
DOCKED: TORSDOF 12
DOCKED: TER
DOCKED: ENDMDL
________________________________________________________________________________


	BEGINNING GENETIC ALGORITHM DOCKING 99 of 100
Run: 99 Seed: 2016953505 519083162 [ Run 99 of 100 GA/GALS ]
Beginning LAMARCKIAN GENETIC ALGORITHM (LGA), with a maximum of 25000000 energy evaluations.

Final-Value: -10.476


	FINAL GENETIC ALGORITHM DOCKED STATE
	_______________________________________________


Detailed state:  trans -3.501 -0.563 -16.553 quatxyzw -0.065308 -0.994828 0.054811 -0.055213 center 8.781 34.984 -0.736 ntor 12 -125.9705 106.3426 -60.8566 84.9459 -99.5833 109.1694 30.0966 -21.7806 -169.7944 -171.4689 -177.8420 170.8612
State:	 -3.501  -0.563 -16.553  -0.065 -0.996  0.055 -173.670   -125.97  106.34  -60.86   84.95  -99.58  109.17   30.10  -21.78 -169.79 -171.47 -177.84  170.86

DOCKED: MODEL       99
DOCKED: USER    Run = 99
DOCKED: USER    DPF = D:/Protein_go_brrr/autodock/final/AncA/heme_Co/dock.dpf
DOCKED: USER  
DOCKED: USER    Estimated Free Energy of Binding    =   -3.57 kcal/mol  [=(1)+(2)+(3)-(4)]
DOCKED: USER    Estimated Inhibition Constant, Ki   =    2.42 mM (millimolar)  [Temperature = 298.15 K]
DOCKED: USER    
DOCKED: USER    (1) Final Intermolecular Energy     =   -7.15 kcal/mol
DOCKED: USER        vdW + Hbond + desolv Energy     =   -6.97 kcal/mol
DOCKED: USER        Electrostatic Energy            =   -0.18 kcal/mol
DOCKED: USER    (2) Final Total Internal Energy     =   -3.33 kcal/mol
DOCKED: USER    (3) Torsional Free Energy           =   +3.58 kcal/mol
DOCKED: USER    (4) Unbound System's Energy  [=(2)] =   -3.33 kcal/mol
DOCKED: USER    
DOCKED: USER    
DOCKED: USER    NEWDPF move heme_Co_opt.pdbqt
DOCKED: USER    NEWDPF about 8.781000 34.984000 -0.736000
DOCKED: USER    NEWDPF tran0 -3.501169 -0.562765 -16.552894
DOCKED: USER    NEWDPF quaternion0 -0.065308 -0.994828 0.054811 -0.055213
DOCKED: USER    NEWDPF axisangle0 -0.065407 -0.996348 0.054894 -173.669853
DOCKED: USER    NEWDPF quat0 -0.065407 -0.996348 0.054894 -173.669853
DOCKED: USER    NEWDPF dihe0 -125.97 106.34 -60.86 84.95 -99.58 109.17 30.10 -21.78 -169.79 -171.47 -177.84 170.86 
DOCKED: USER  keepresnum = 1 
DOCKED: USER  
DOCKED: REMARK  12 active torsions:
DOCKED: REMARK  status: ('A' for Active; 'I' for Inactive)
DOCKED: REMARK    1  A    between atoms: C_6  and  C_10 
DOCKED: REMARK    2  A    between atoms: C_10  and  C_11 
DOCKED: REMARK    3  A    between atoms: C_11  and  C_12 
DOCKED: REMARK    4  A    between atoms: C_12  and  O_14 
DOCKED: REMARK    5  A    between atoms: C_17  and  C_20 
DOCKED: REMARK    6  A    between atoms: C_24  and  C_27 
DOCKED: REMARK    7  A    between atoms: C_31  and  C_34 
DOCKED: REMARK    8  A    between atoms: C_34  and  C_35 
DOCKED: REMARK    9  A    between atoms: C_35  and  C_36 
DOCKED: REMARK   10  A    between atoms: C_36  and  O_38 
DOCKED: REMARK   11  A    between atoms: FE_43  and  C_44 
DOCKED: REMARK   12  A    between atoms: C_44  and  O_45 
DOCKED: USER                              x       y       z     vdW  Elec       q    Type
DOCKED: USER                           _______ _______ _______ _____ _____    ______ ____
DOCKED: ROOT
DOCKED: ATOM      1  C   UNL d   1      -1.433  -0.248 -15.970 -0.18 +0.00    +0.064 A 
DOCKED: ATOM      2  C   UNL d   1      -3.440  -3.078 -19.221 -0.25 -0.01    +0.064 C 
DOCKED: ATOM      3  C   UNL d   1      -7.787  -1.757 -17.742 -0.15 -0.01    +0.064 A 
DOCKED: ATOM      4  C   UNL d   1      -5.762   1.429 -14.676 -0.24 -0.00    +0.064 A 
DOCKED: ATOM      5  C   UNL d   1      -1.662  -1.145 -16.942 -0.09 +0.00    +0.066 A 
DOCKED: ATOM      6  C   UNL d   1      -0.616  -1.723 -17.688 -0.29 +0.00    -0.021 A 
DOCKED: ATOM      7  C   UNL d   1      -1.205  -2.526 -18.645 -0.23 +0.00    -0.025 A 
DOCKED: ATOM      8  C   UNL d   1      -2.584  -2.417 -18.432 -0.21 -0.01    +0.066 A 
DOCKED: ATOM      9  C   UNL d   1      -0.511  -3.369 -19.725 -0.22 -0.00    +0.051 C 
DOCKED: ATOM     10  C   UNL d   1      -4.873  -3.048 -19.062 -0.21 -0.01    +0.066 A 
DOCKED: ATOM     11  C   UNL d   1      -5.817  -3.827 -19.765 -0.24 +0.01    -0.021 A 
DOCKED: ATOM     12  C   UNL d   1      -7.076  -3.424 -19.312 -0.20 -0.00    +0.000 A 
DOCKED: ATOM     13  C   UNL d   1      -6.807  -2.441 -18.359 -0.17 -0.01    +0.070 A 
DOCKED: ATOM     14  C   UNL d   1      -5.510  -4.942 -20.731 -0.12 -0.03    +0.052 C 
DOCKED: ATOM     15  C   UNL d   1      -7.690  -0.680 -16.776 -0.18 -0.01    +0.066 A 
DOCKED: ATOM     16  C   UNL d   1      -8.741   0.083 -16.286 -0.25 +0.01    -0.021 A 
DOCKED: ATOM     17  C   UNL d   1      -8.161   1.005 -15.403 -0.31 -0.00    +0.000 A 
DOCKED: ATOM     18  C   UNL d   1      -6.800   0.719 -15.412 -0.21 -0.01    +0.070 A 
DOCKED: ATOM     19  C   UNL d   1     -10.196  -0.085 -16.661 -0.18 -0.03    +0.052 C 
DOCKED: ATOM     20  C   UNL d   1      -4.424   1.226 -14.734 -0.20 -0.00    +0.066 A 
DOCKED: ATOM     21  C   UNL d   1      -3.522   1.998 -14.005 -0.20 +0.00    -0.025 A 
DOCKED: ATOM     22  C   UNL d   1      -2.267   1.518 -14.336 -0.27 +0.00    -0.021 A 
DOCKED: ATOM     23  C   UNL d   1      -2.468   0.477 -15.267 -0.22 -0.00    +0.066 A 
DOCKED: ATOM     24  C   UNL d   1      -3.837   3.150 -13.055 -0.23 +0.00    +0.051 C 
DOCKED: ATOM     25  N   UNL d   1      -2.896  -1.573 -17.380 -0.10 +0.01    -0.248 N 
DOCKED: ATOM     26  N   UNL d   1      -5.474  -2.255 -18.168 -0.12 +0.03    -0.248 N 
DOCKED: ATOM     27  N   UNL d   1      -6.552  -0.270 -16.263 -0.08 +0.03    -0.248 N 
DOCKED: ATOM     28  N   UNL d   1      -3.771   0.298 -15.512 -0.13 +0.01    -0.248 N 
DOCKED: ATOM     29 FE   UNL d   1      -4.831  -0.881 -16.786 -0.05 -0.00    +0.000 Fe
DOCKED: ENDROOT
DOCKED: BRANCH   6  30
DOCKED: ATOM     30  C   UNL d   1       0.875  -1.443 -17.531 -0.17 -0.00    +0.052 C 
DOCKED: BRANCH  30  31
DOCKED: ATOM     31  C   UNL d   1       1.320  -0.345 -18.496 -0.05 +0.00    +0.115 C 
DOCKED: BRANCH  31  32
DOCKED: ATOM     32  C   UNL d   1       0.152   0.313 -19.200 -0.05 +0.00    +0.139 C 
DOCKED: ATOM     33  O   UNL d   1      -0.132  -0.028 -20.339 +0.03 -0.01    -0.650 OA
DOCKED: BRANCH  32  34
DOCKED: ATOM     34  O   UNL d   1      -0.625   1.239 -18.590 +0.04 -0.02    -0.776 OA
DOCKED: ATOM     35  H   UNL d   1      -1.591   1.211 -18.573 +0.02 +0.00    +0.167 HD
DOCKED: ENDBRANCH  32  34
DOCKED: ENDBRANCH  31  32
DOCKED: ENDBRANCH  30  31
DOCKED: ENDBRANCH   6  30
DOCKED: BRANCH  29  36
DOCKED: ATOM     36  C   UNL d   1      -4.657   0.559 -18.300 -0.03 -0.01    +0.190 C 
DOCKED: BRANCH  36  37
DOCKED: ATOM     37  O   UNL d   1      -3.775   1.492 -18.855 +0.00 -0.00    -0.399 OA
DOCKED: ATOM     38  H   UNL d   1      -2.988   1.497 -18.240 +0.02 +0.00    +0.209 HD
DOCKED: ENDBRANCH  36  37
DOCKED: ENDBRANCH  29  36
DOCKED: BRANCH  22  39
DOCKED: ATOM     39  C   UNL d   1      -0.950   2.078 -13.832 -0.28 -0.00    +0.052 C 
DOCKED: BRANCH  39  40
DOCKED: ATOM     40  C   UNL d   1      -0.462   3.218 -14.741 -0.16 -0.00    +0.115 C 
DOCKED: BRANCH  40  41
DOCKED: ATOM     41  C   UNL d   1      -1.412   3.571 -15.866 -0.05 +0.01    +0.139 C 
DOCKED: ATOM     42  O   UNL d   1      -1.922   4.682 -15.893 +0.03 -0.06    -0.650 OA
DOCKED: BRANCH  41  43
DOCKED: ATOM     43  O   UNL d   1      -1.645   2.721 -16.891 +0.04 -0.03    -0.776 OA
DOCKED: ATOM     44  H   UNL d   1      -0.934   2.352 -17.432 +0.02 +0.01    +0.167 HD
DOCKED: ENDBRANCH  41  43
DOCKED: ENDBRANCH  40  41
DOCKED: ENDBRANCH  39  40
DOCKED: ENDBRANCH  22  39
DOCKED: BRANCH  12  45
DOCKED: ATOM     45  C   UNL d   1      -8.493  -3.866 -19.653 -0.18 -0.00    +0.004 C 
DOCKED: ATOM     46  C   UNL d   1      -9.172  -4.951 -19.292 -0.23 -0.01    +0.012 C 
DOCKED: ENDBRANCH  12  45
DOCKED: BRANCH  17  47
DOCKED: ATOM     47  C   UNL d   1      -8.795   2.116 -14.633 -0.24 -0.00    +0.004 C 
DOCKED: ATOM     48  C   UNL d   1      -8.438   3.397 -14.757 -0.22 -0.00    +0.012 C 
DOCKED: ENDBRANCH  17  47
DOCKED: TORSDOF 12
DOCKED: TER
DOCKED: ENDMDL
________________________________________________________________________________


	BEGINNING GENETIC ALGORITHM DOCKING 100 of 100
Run: 100 Seed: 994830990 182452030 [ Run 100 of 100 GA/GALS ]
Beginning LAMARCKIAN GENETIC ALGORITHM (LGA), with a maximum of 25000000 energy evaluations.

Final-Value: -12.309


	FINAL GENETIC ALGORITHM DOCKED STATE
	_______________________________________________


Detailed state:  trans -0.248 -15.726 -1.650 quatxyzw -0.405821 -0.036425 0.408653 -0.816692 center 8.781 34.984 -0.736 ntor 12 -39.7269 124.9148 -38.9601 142.4150 137.6939 146.6281 -158.4353 -171.5317 161.4533 -38.9297 -157.9731 163.5650
State:	 -0.248 -15.726  -1.650  -0.703 -0.063  0.708 -70.490    -39.73  124.91  -38.96  142.41  137.69  146.63 -158.44 -171.53  161.45  -38.93 -157.97  163.56

DOCKED: MODEL      100
DOCKED: USER    Run = 100
DOCKED: USER    DPF = D:/Protein_go_brrr/autodock/final/AncA/heme_Co/dock.dpf
DOCKED: USER  
DOCKED: USER    Estimated Free Energy of Binding    =   -7.39 kcal/mol  [=(1)+(2)+(3)-(4)]
DOCKED: USER    Estimated Inhibition Constant, Ki   =    3.86 uM (micromolar)  [Temperature = 298.15 K]
DOCKED: USER    
DOCKED: USER    (1) Final Intermolecular Energy     =  -10.96 kcal/mol
DOCKED: USER        vdW + Hbond + desolv Energy     =   -6.80 kcal/mol
DOCKED: USER        Electrostatic Energy            =   -4.16 kcal/mol
DOCKED: USER    (2) Final Total Internal Energy     =   -1.34 kcal/mol
DOCKED: USER    (3) Torsional Free Energy           =   +3.58 kcal/mol
DOCKED: USER    (4) Unbound System's Energy  [=(2)] =   -1.34 kcal/mol
DOCKED: USER    
DOCKED: USER    
DOCKED: USER    NEWDPF move heme_Co_opt.pdbqt
DOCKED: USER    NEWDPF about 8.781000 34.984000 -0.736000
DOCKED: USER    NEWDPF tran0 -0.247638 -15.726454 -1.649825
DOCKED: USER    NEWDPF quaternion0 -0.405821 -0.036425 0.408653 -0.816692
DOCKED: USER    NEWDPF axisangle0 -0.703238 -0.063121 0.708147 -70.490070
DOCKED: USER    NEWDPF quat0 -0.703238 -0.063121 0.708147 -70.490070
DOCKED: USER    NEWDPF dihe0 -39.73 124.91 -38.96 142.41 137.69 146.63 -158.44 -171.53 161.45 -38.93 -157.97 163.56 
DOCKED: USER  keepresnum = 1 
DOCKED: USER  
DOCKED: REMARK  12 active torsions:
DOCKED: REMARK  status: ('A' for Active; 'I' for Inactive)
DOCKED: REMARK    1  A    between atoms: C_6  and  C_10 
DOCKED: REMARK    2  A    between atoms: C_10  and  C_11 
DOCKED: REMARK    3  A    between atoms: C_11  and  C_12 
DOCKED: REMARK    4  A    between atoms: C_12  and  O_14 
DOCKED: REMARK    5  A    between atoms: C_17  and  C_20 
DOCKED: REMARK    6  A    between atoms: C_24  and  C_27 
DOCKED: REMARK    7  A    between atoms: C_31  and  C_34 
DOCKED: REMARK    8  A    between atoms: C_34  and  C_35 
DOCKED: REMARK    9  A    between atoms: C_35  and  C_36 
DOCKED: REMARK   10  A    between atoms: C_36  and  O_38 
DOCKED: REMARK   11  A    between atoms: FE_43  and  C_44 
DOCKED: REMARK   12  A    between atoms: C_44  and  O_45 
DOCKED: USER                              x       y       z     vdW  Elec       q    Type
DOCKED: USER                           _______ _______ _______ _____ _____    ______ ____
DOCKED: ROOT
DOCKED: ATOM      1  C   UNL d   1      -1.517 -17.445  -2.037 -0.04 +0.06    +0.064 A 
DOCKED: ATOM      2  C   UNL d   1      -0.446 -15.099   1.958 -0.12 +0.05    +0.064 C 
DOCKED: ATOM      3  C   UNL d   1       2.664 -12.371  -0.434 -0.18 +0.02    +0.064 A 
DOCKED: ATOM      4  C   UNL d   1       1.304 -14.493  -4.595 -0.18 +0.03    +0.064 A 
DOCKED: ATOM      5  C   UNL d   1      -1.426 -17.029  -0.763 -0.04 +0.06    +0.066 A 
DOCKED: ATOM      6  C   UNL d   1      -2.251 -17.548   0.254 -0.04 -0.02    -0.021 A 
DOCKED: ATOM      7  C   UNL d   1      -1.952 -16.848   1.406 -0.07 -0.02    -0.025 A 
DOCKED: ATOM      8  C   UNL d   1      -0.947 -15.943   1.047 -0.08 +0.05    +0.066 A 
DOCKED: ATOM      9  C   UNL d   1      -2.580 -17.012   2.799 -0.06 +0.06    +0.051 C 
DOCKED: ATOM     10  C   UNL d   1       0.607 -14.152   1.688 -0.13 +0.04    +0.066 A 
DOCKED: ATOM     11  C   UNL d   1       1.272 -13.338   2.631 -0.19 -0.01    -0.021 A 
DOCKED: ATOM     12  C   UNL d   1       2.176 -12.556   1.907 -0.24 +0.00    +0.000 A 
DOCKED: ATOM     13  C   UNL d   1       2.005 -12.958   0.582 -0.15 +0.02    +0.070 A 
DOCKED: ATOM     14  C   UNL d   1       1.107 -13.389   4.128 -0.24 +0.03    +0.052 C 
DOCKED: ATOM     15  C   UNL d   1       2.570 -12.623  -1.858 -0.13 +0.02    +0.066 A 
DOCKED: ATOM     16  C   UNL d   1       3.171 -11.882  -2.866 -0.23 -0.01    -0.021 A 
DOCKED: ATOM     17  C   UNL d   1       2.779 -12.489  -4.068 -0.24 +0.00    +0.000 A 
DOCKED: ATOM     18  C   UNL d   1       1.982 -13.567  -3.696 -0.14 +0.03    +0.070 A 
DOCKED: ATOM     19  C   UNL d   1       4.056 -10.674  -2.658 -0.23 +0.01    +0.052 C 
DOCKED: ATOM     20  C   UNL d   1       0.456 -15.494  -4.259 -0.11 +0.04    +0.066 A 
DOCKED: ATOM     21  C   UNL d   1      -0.164 -16.295  -5.216 -0.16 -0.02    -0.025 A 
DOCKED: ATOM     22  C   UNL d   1      -0.961 -17.175  -4.506 -0.10 -0.02    -0.021 A 
DOCKED: ATOM     23  C   UNL d   1      -0.796 -16.856  -3.142 -0.06 +0.06    +0.066 A 
DOCKED: ATOM     24  C   UNL d   1      -0.019 -16.215  -6.733 -0.31 +0.03    +0.051 C 
DOCKED: ATOM     25  N   UNL d   1      -0.597 -16.037  -0.289 -0.03 -0.18    -0.248 N 
DOCKED: ATOM     26  N   UNL d   1       1.097 -13.962   0.458 -0.06 -0.12    -0.248 N 
DOCKED: ATOM     27  N   UNL d   1       1.855 -13.598  -2.374 -0.04 -0.10    -0.248 N 
DOCKED: ATOM     28  N   UNL d   1       0.059 -15.838  -2.988 -0.03 -0.18    -0.248 N 
DOCKED: ATOM     29 FE   UNL d   1       0.701 -14.747  -1.397 -0.02 +0.00    +0.000 Fe
DOCKED: ENDROOT
DOCKED: BRANCH   6  30
DOCKED: ATOM     30  C   UNL d   1      -3.332 -18.612   0.094 -0.02 +0.04    +0.052 C 
DOCKED: BRANCH  30  31
DOCKED: ATOM     31  C   UNL d   1      -4.558 -18.031  -0.609 -0.04 +0.12    +0.115 C 
DOCKED: BRANCH  31  32
DOCKED: ATOM     32  C   UNL d   1      -4.612 -16.521  -0.520 -0.10 +0.23    +0.139 C 
DOCKED: ATOM     33  O   UNL d   1      -3.827 -15.852  -1.175 +0.03 -1.38    -0.650 OA
DOCKED: BRANCH  32  34
DOCKED: ATOM     34  O   UNL d   1      -5.539 -15.879   0.228 -0.47 -1.54    -0.776 OA
DOCKED: ATOM     35  H   UNL d   1      -6.477 -16.115   0.252 +0.02 +0.26    +0.167 HD
DOCKED: ENDBRANCH  32  34
DOCKED: ENDBRANCH  31  32
DOCKED: ENDBRANCH  30  31
DOCKED: ENDBRANCH   6  30
DOCKED: BRANCH  29  36
DOCKED: ATOM     36  C   UNL d   1      -0.937 -13.453  -1.592 -0.15 +0.17    +0.190 C 
DOCKED: BRANCH  36  37
DOCKED: ATOM     37  O   UNL d   1      -2.312 -13.354  -1.360 -0.18 -0.55    -0.399 OA
DOCKED: ATOM     38  H   UNL d   1      -2.533 -14.140  -0.786 +0.05 +0.31    +0.209 HD
DOCKED: ENDBRANCH  36  37
DOCKED: ENDBRANCH  29  36
DOCKED: BRANCH  22  39
DOCKED: ATOM     39  C   UNL d   1      -1.878 -18.218  -5.116 -0.10 +0.05    +0.052 C 
DOCKED: BRANCH  39  40
DOCKED: ATOM     40  C   UNL d   1      -3.310 -17.674  -5.244 -0.13 +0.16    +0.115 C 
DOCKED: BRANCH  40  41
DOCKED: ATOM     41  C   UNL d   1      -3.976 -17.972  -6.570 -0.20 +0.21    +0.139 C 
DOCKED: ATOM     42  O   UNL d   1      -3.296 -18.013  -7.586 -0.48 -1.11    -0.650 OA
DOCKED: BRANCH  41  43
DOCKED: ATOM     43  O   UNL d   1      -5.289 -18.281  -6.653 +0.00 -1.28    -0.776 OA
DOCKED: ATOM     44  H   UNL d   1      -5.754 -18.763  -5.956 +0.03 +0.22    +0.167 HD
DOCKED: ENDBRANCH  41  43
DOCKED: ENDBRANCH  40  41
DOCKED: ENDBRANCH  39  40
DOCKED: ENDBRANCH  22  39
DOCKED: BRANCH  12  45
DOCKED: ATOM     45  C   UNL d   1       3.189 -11.494   2.314 -0.31 +0.00    +0.004 C 
DOCKED: ATOM     46  C   UNL d   1       4.458 -11.325   1.954 -0.20 +0.00    +0.012 C 
DOCKED: ENDBRANCH  12  45
DOCKED: BRANCH  17  47
DOCKED: ATOM     47  C   UNL d   1       3.068 -12.087  -5.478 -0.40 +0.00    +0.004 C 
DOCKED: ATOM     48  C   UNL d   1       3.782 -12.833  -6.325 -0.49 +0.00    +0.012 C 
DOCKED: ENDBRANCH  17  47
DOCKED: TORSDOF 12
DOCKED: TER
DOCKED: ENDMDL
________________________________________________________________________________

DPF> analysis                             # perform a ranked cluster analysis


		CLUSTER ANALYSIS OF CONFORMATIONS
		_________________________________

Number of conformations = 100

RMSD cluster analysis will be performed using the ligand atoms only (48 / 48 total atoms).

Outputting structurally similar clusters, ranked in order of increasing energy.


________________________________________________________________________________

Number of distinct conformational clusters found = 22,  out of 100 runs,
Using an rmsd-tolerance of 2.0 A


	CLUSTERING HISTOGRAM
	____________________

________________________________________________________________________________
     |           |     |           |     |                                    
Clus | Lowest    | Run | Mean      | Num | Histogram                          
-ter | Binding   |     | Binding   | in  |                                    
Rank | Energy    |     | Energy    | Clus|    5    10   15   20   25   30   35
_____|___________|_____|___________|_____|____:____|____:____|____:____|____:___
   1 |     -8.45 |  41 |     -7.54 |  51 |###################################################
   2 |     -7.59 |  96 |     -6.68 |   7 |#######
   3 |     -6.82 |  42 |     -5.93 |   2 |##
   4 |     -6.78 |  30 |     -5.45 |   4 |####
   5 |     -6.77 |  63 |     -5.25 |   3 |###
   6 |     -6.52 |  27 |     -6.16 |  10 |##########
   7 |     -6.39 |  67 |     -6.11 |   2 |##
   8 |     -5.93 |  54 |     -5.26 |   3 |###
   9 |     -5.86 |  32 |     -5.86 |   1 |#
  10 |     -5.82 |  46 |     -5.82 |   1 |#
  11 |     -5.71 |  88 |     -5.71 |   1 |#
  12 |     -5.43 |  90 |     -5.21 |   2 |##
  13 |     -5.16 |  95 |     -5.16 |   1 |#
  14 |     -5.01 |  47 |     -4.28 |   3 |###
  15 |     -4.72 |  26 |     -4.72 |   1 |#
  16 |     -4.36 |  52 |     -4.08 |   2 |##
  17 |     -4.29 |  68 |     -4.29 |   1 |#
  18 |     -4.16 |  48 |     -4.16 |   1 |#
  19 |     -3.90 |  14 |     -3.90 |   1 |#
  20 |     -3.70 |  49 |     -3.70 |   1 |#
  21 |     -3.48 |  22 |     -3.48 |   1 |#
  22 |     -2.97 |  57 |     -2.97 |   1 |#
_____|___________|_____|___________|_____|______________________________________


Number of multi-member conformational clusters found = 11, out of 100 runs.

	RMSD TABLE
	__________

_____________________________________________________________________
     |      |      |           |         |                 |
Rank | Sub- | Run  | Binding   | Cluster | Reference       | Grep
     | Rank |      | Energy    | RMSD    | RMSD            | Pattern
_____|______|______|___________|_________|_________________|___________
   1      1     41       -8.45      0.00     48.38           RANKING
   1      2     50       -8.43      1.41     48.83           RANKING
   1      3      5       -8.40      1.48     48.37           RANKING
   1      4     31       -8.33      0.76     48.21           RANKING
   1      5     70       -8.20      1.64     48.35           RANKING
   1      6      9       -8.18      1.15     48.96           RANKING
   1      7      7       -8.17      1.22     48.76           RANKING
   1      8     38       -8.10      1.03     48.72           RANKING
   1      9     97       -8.04      1.74     48.39           RANKING
   1     10     20       -8.02      1.70     48.66           RANKING
   1     11     73       -8.02      1.13     48.64           RANKING
   1     12     56       -7.99      1.03     48.51           RANKING
   1     13      8       -7.93      1.32     48.70           RANKING
   1     14     15       -7.90      1.77     48.28           RANKING
   1     15      1       -7.89      1.65     48.69           RANKING
   1     16     76       -7.87      1.02     48.73           RANKING
   1     17     16       -7.83      1.69     48.40           RANKING
   1     18     37       -7.83      1.65     48.36           RANKING
   1     19     66       -7.81      1.13     48.40           RANKING
   1     20     10       -7.79      1.66     48.66           RANKING
   1     21     35       -7.71      1.78     48.46           RANKING
   1     22     72       -7.69      1.60     48.68           RANKING
   1     23     43       -7.65      1.75     48.57           RANKING
   1     24     45       -7.65      1.57     48.63           RANKING
   1     25     55       -7.62      1.63     48.70           RANKING
   1     26     28       -7.60      1.72     48.75           RANKING
   1     27     53       -7.57      1.76     48.57           RANKING
   1     28     86       -7.53      1.73     48.67           RANKING
   1     29     17       -7.52      1.82     48.65           RANKING
   1     30     82       -7.44      1.79     48.41           RANKING
   1     31     81       -7.43      1.78     48.65           RANKING
   1     32     61       -7.39      1.74     48.64           RANKING
   1     33    100       -7.39      1.75     48.62           RANKING
   1     34     25       -7.35      1.59     48.53           RANKING
   1     35     74       -7.30      1.65     48.44           RANKING
   1     36     93       -7.26      1.68     48.82           RANKING
   1     37     78       -7.26      1.83     49.00           RANKING
   1     38     36       -7.25      1.73     48.56           RANKING
   1     39     19       -7.20      1.74     48.61           RANKING
   1     40     18       -7.18      1.82     48.95           RANKING
   1     41     87       -7.15      1.83     48.75           RANKING
   1     42     65       -7.14      1.73     48.76           RANKING
   1     43     23       -7.13      1.77     48.73           RANKING
   1     44     13       -7.08      1.77     48.68           RANKING
   1     45     64       -7.07      1.50     48.94           RANKING
   1     46      6       -7.05      1.74     48.56           RANKING
   1     47     59       -6.98      1.74     48.73           RANKING
   1     48     80       -6.49      1.22     48.62           RANKING
   1     49     62       -6.48      1.93     48.69           RANKING
   1     50     34       -6.21      1.93     48.85           RANKING
   1     51     11       -5.43      1.72     49.20           RANKING
   2      1     96       -7.59      0.00     50.97           RANKING
   2      2     83       -7.48      0.78     51.36           RANKING
   2      3     51       -7.39      0.76     51.38           RANKING
   2      4     44       -7.26      0.94     51.36           RANKING
   2      5     94       -6.16      1.13     51.51           RANKING
   2      6     40       -5.54      1.94     51.92           RANKING
   2      7     21       -5.37      1.95     51.76           RANKING
   3      1     42       -6.82      0.00     48.32           RANKING
   3      2     29       -5.04      1.94     48.42           RANKING
   4      1     30       -6.78      0.00     52.18           RANKING
   4      2     92       -5.76      1.74     51.61           RANKING
   4      3     77       -5.16      1.84     51.43           RANKING
   4      4     89       -4.10      1.18     52.25           RANKING
   5      1     63       -6.77      0.00     53.53           RANKING
   5      2     71       -4.75      1.52     54.26           RANKING
   5      3     75       -4.23      1.69     54.15           RANKING
   6      1     27       -6.52      0.00     50.66           RANKING
   6      2     39       -6.40      1.67     51.40           RANKING
   6      3     98       -6.37      0.72     50.91           RANKING
   6      4      4       -6.34      1.68     51.19           RANKING
   6      5     12       -6.26      1.51     51.15           RANKING
   6      6     84       -6.18      1.68     51.37           RANKING
   6      7     69       -6.15      1.08     51.23           RANKING
   6      8     60       -5.97      1.58     51.31           RANKING
   6      9     91       -5.87      1.63     51.45           RANKING
   6     10     85       -5.54      1.89     51.16           RANKING
   7      1     67       -6.39      0.00     49.13           RANKING
   7      2      3       -5.83      1.70     49.56           RANKING
   8      1     54       -5.93      0.00     51.81           RANKING
   8      2      2       -5.73      0.21     51.78           RANKING
   8      3     79       -4.12      1.46     52.12           RANKING
   9      1     32       -5.86      0.00     52.22           RANKING
  10      1     46       -5.82      0.00     53.86           RANKING
  11      1     88       -5.71      0.00     36.18           RANKING
  12      1     90       -5.43      0.00     53.41           RANKING
  12      2     24       -4.98      0.91     52.95           RANKING
  13      1     95       -5.16      0.00     53.66           RANKING
  14      1     47       -5.01      0.00     38.96           RANKING
  14      2     33       -4.25      1.27     39.38           RANKING
  14      3     99       -3.57      1.65     39.34           RANKING
  15      1     26       -4.72      0.00     43.72           RANKING
  16      1     52       -4.36      0.00     31.56           RANKING
  16      2     58       -3.79      1.70     30.01           RANKING
  17      1     68       -4.29      0.00     30.80           RANKING
  18      1     48       -4.16      0.00     38.83           RANKING
  19      1     14       -3.90      0.00     34.15           RANKING
  20      1     49       -3.70      0.00     52.83           RANKING
  21      1     22       -3.48      0.00     37.03           RANKING
  22      1     57       -2.97      0.00     17.68           RANKING
_______________________________________________________________________



	INFORMATION ENTROPY ANALYSIS FOR THIS CLUSTERING
	________________________________________________


Information entropy for this clustering = 0.44  (rmstol = 2.00 Angstrom)

_______________________________________________________________________


	STATISTICAL MECHANICAL ANALYSIS
	_______________________________


Partition function, Q =   101.11            at Temperature, T = 298.15 K
Free energy,        A ~ -2734.99 kcal/mol   at Temperature, T = 298.15 K
Internal energy,    U =    -6.52 kcal/mol   at Temperature, T = 298.15 K
Entropy,            S =     9.15 kcal/mol/K at Temperature, T = 298.15 K

_______________________________________________________________________


	LOWEST ENERGY DOCKED CONFORMATION from EACH CLUSTER
	___________________________________________________



Keeping original residue number (specified in the input PDBQ file) for outputting.

MODEL       41
USER    Run = 41
USER    Cluster Rank = 1
USER    Number of conformations in this cluster = 51
USER  
USER    RMSD from reference structure       = 48.376 A
USER  
USER    Estimated Free Energy of Binding    =   -8.45 kcal/mol  [=(1)+(2)+(3)-(4)]
USER    Estimated Inhibition Constant, Ki   =  638.67 nM (nanomolar)  [Temperature = 298.15 K]
USER    
USER    (1) Final Intermolecular Energy     =  -12.03 kcal/mol
USER        vdW + Hbond + desolv Energy     =   -7.68 kcal/mol
USER        Electrostatic Energy            =   -4.35 kcal/mol
USER    (2) Final Total Internal Energy     =   -0.74 kcal/mol
USER    (3) Torsional Free Energy           =   +3.58 kcal/mol
USER    (4) Unbound System's Energy  [=(2)] =   -0.74 kcal/mol
USER    
USER    
USER  
USER    DPF = D:/Protein_go_brrr/autodock/final/AncA/heme_Co/dock.dpf
USER    NEWDPF move	heme_Co_opt.pdbqt
USER    NEWDPF about	8.781000 34.984000 -0.736000
USER    NEWDPF tran0	0.282981 -14.949022 -2.481140
USER    NEWDPF axisangle0	-0.897299 -0.213148 -0.386552 154.336798
USER    NEWDPF quaternion0	-0.874891 -0.207825 -0.376899 0.222086
USER    NEWDPF dihe0	-25.44 94.48 144.29 126.93 122.94 93.78 -151.23 -173.90 39.56 91.50 150.76 35.27 
USER  
USER                              x       y       z    vdW   Elec        q     RMS 
ATOM      1  C   UNL d   1      -1.476 -16.186  -2.782 -0.06 +0.08    +0.064    48.376
ATOM      2  C   UNL d   1       1.602 -14.216  -5.824 -0.34 +0.03    +0.064    48.376
ATOM      3  C   UNL d   1       3.806 -11.995  -2.213 -0.19 +0.01    +0.064    48.376
ATOM      4  C   UNL d   1       0.917 -14.298   0.951 -0.10 +0.03    +0.064    48.376
ATOM      5  C   UNL d   1      -0.820 -15.782  -3.882 -0.13 +0.07    +0.066    48.376
ATOM      6  C   UNL d   1      -1.129 -16.281  -5.162 -0.19 -0.02    -0.021    48.376
ATOM      7  C   UNL d   1      -0.218 -15.723  -6.038 -0.28 -0.02    -0.025    48.376
ATOM      8  C   UNL d   1       0.597 -14.897  -5.258 -0.24 +0.04    +0.066    48.376
ATOM      9  C   UNL d   1      -0.107 -15.950  -7.553 -0.13 +0.03    +0.051    48.376
ATOM     10  C   UNL d   1       2.476 -13.322  -5.106 -0.26 +0.03    +0.066    48.376
ATOM     11  C   UNL d   1       3.458 -12.473  -5.664 -0.37 -0.01    -0.021    48.376
ATOM     12  C   UNL d   1       4.082 -11.835  -4.589 -0.32 +0.00    +0.000    48.376
ATOM     13  C   UNL d   1       3.430 -12.329  -3.460 -0.18 +0.02    +0.070    48.376
ATOM     14  C   UNL d   1       3.699 -12.233  -7.132 -0.40 +0.01    +0.052    48.376
ATOM     15  C   UNL d   1       3.281 -12.449  -0.940 -0.15 +0.02    +0.066    48.376
ATOM     16  C   UNL d   1       3.810 -12.176   0.313 -0.19 -0.00    -0.021    48.376
ATOM     17  C   UNL d   1       2.982 -12.840   1.229 -0.15 +0.00    +0.000    48.376
ATOM     18  C   UNL d   1       1.999 -13.454   0.460 -0.10 +0.03    +0.070    48.376
ATOM     19  C   UNL d   1       5.035 -11.330   0.583 -0.24 +0.01    +0.052    48.376
ATOM     20  C   UNL d   1       0.001 -14.975   0.217 -0.08 +0.04    +0.066    48.376
ATOM     21  C   UNL d   1      -0.970 -15.784   0.802 -0.09 -0.02    -0.025    48.376
ATOM     22  C   UNL d   1      -1.693 -16.319  -0.248 -0.08 -0.02    -0.021    48.376
ATOM     23  C   UNL d   1      -1.115 -15.815  -1.433 -0.08 +0.06    +0.066    48.376
ATOM     24  C   UNL d   1      -1.187 -16.051   2.289 -0.06 +0.04    +0.051    48.376
ATOM     25  N   UNL d   1       0.244 -14.909  -3.919 -0.08 -0.17    -0.248    48.376
ATOM     26  N   UNL d   1       2.422 -13.186  -3.777 -0.09 -0.09    -0.248    48.376
ATOM     27  N   UNL d   1       2.226 -13.225  -0.829 -0.05 -0.09    -0.248    48.376
ATOM     28  N   UNL d   1      -0.087 -15.003  -1.156 -0.03 -0.18    -0.248    48.376
ATOM     29 FE   UNL d   1       1.291 -14.018  -2.280 -0.03 +0.00    +0.000    48.376
ATOM     30  C   UNL d   1      -2.203 -17.309  -5.503 -0.15 +0.06    +0.052    48.376
ATOM     31  C   UNL d   1      -1.596 -18.485  -6.267 -0.10 +0.10    +0.115    48.376
ATOM     32  C   UNL d   1      -2.515 -19.005  -7.351 -0.07 +0.20    +0.139    48.376
ATOM     33  O   UNL d   1      -2.587 -18.409  -8.416 -0.54 -1.06    -0.650    48.376
ATOM     34  O   UNL d   1      -3.231 -20.144  -7.200 -0.08 -1.38    -0.776    48.376
ATOM     35  H   UNL d   1      -2.952 -20.894  -6.657 +0.01 +0.19    +0.167    48.376
ATOM     36  C   UNL d   1       2.525 -15.713  -2.294 -0.01 +0.08    +0.190    48.376
ATOM     37  O   UNL d   1       2.510 -17.103  -2.141 +0.00 -0.16    -0.399    48.376
ATOM     38  H   UNL d   1       1.654 -17.300  -1.667 +0.01 +0.09    +0.209    48.376
ATOM     39  C   UNL d   1      -2.834 -17.310  -0.117 -0.07 +0.05    +0.052    48.376
ATOM     40  C   UNL d   1      -3.994 -16.930  -1.052 -0.07 +0.18    +0.115    48.376
ATOM     41  C   UNL d   1      -5.069 -16.085  -0.402 -0.10 +0.26    +0.139    48.376
ATOM     42  O   UNL d   1      -5.361 -16.284   0.769 -0.30 -1.35    -0.650    48.376
ATOM     43  O   UNL d   1      -5.656 -15.057  -1.054 -0.27 -1.85    -0.776    48.376
ATOM     44  H   UNL d   1      -6.563 -14.778  -0.874 +0.03 +0.30    +0.167    48.376
ATOM     45  C   UNL d   1       5.201 -10.805  -4.501 -0.46 +0.00    +0.004    48.376
ATOM     46  C   UNL d   1       5.203  -9.568  -4.012 -0.37 +0.00    +0.012    48.376
ATOM     47  C   UNL d   1       3.101 -12.956   2.713 -0.16 +0.00    +0.004    48.376
ATOM     48  C   UNL d   1       2.378 -12.230   3.569 -0.31 +0.00    +0.012    48.376
TER
ENDMDL
MODEL       96
USER    Run = 96
USER    Cluster Rank = 2
USER    Number of conformations in this cluster = 7
USER  
USER    RMSD from reference structure       = 50.974 A
USER  
USER    Estimated Free Energy of Binding    =   -7.59 kcal/mol  [=(1)+(2)+(3)-(4)]
USER    Estimated Inhibition Constant, Ki   =    2.74 uM (micromolar)  [Temperature = 298.15 K]
USER    
USER    (1) Final Intermolecular Energy     =  -11.17 kcal/mol
USER        vdW + Hbond + desolv Energy     =   -7.37 kcal/mol
USER        Electrostatic Energy            =   -3.80 kcal/mol
USER    (2) Final Total Internal Energy     =   -1.74 kcal/mol
USER    (3) Torsional Free Energy           =   +3.58 kcal/mol
USER    (4) Unbound System's Energy  [=(2)] =   -1.74 kcal/mol
USER    
USER    
USER  
USER    DPF = D:/Protein_go_brrr/autodock/final/AncA/heme_Co/dock.dpf
USER    NEWDPF move	heme_Co_opt.pdbqt
USER    NEWDPF about	8.781000 34.984000 -0.736000
USER    NEWDPF tran0	-10.389911 -14.349713 -3.408807
USER    NEWDPF axisangle0	-0.537191 0.398004 0.743652 168.052908
USER    NEWDPF quaternion0	-0.534274 0.395843 0.739614 0.104069
USER    NEWDPF dihe0	67.68 134.96 75.42 121.43 132.21 120.44 -145.69 -22.09 -45.07 -49.24 -138.29 -20.42 
USER  
USER                              x       y       z    vdW   Elec        q     RMS 
ATOM      1  C   UNL d   1      -8.994 -13.968  -1.790 -0.13 +0.05    +0.064    50.974
ATOM      2  C   UNL d   1     -12.051 -11.154  -4.102 -0.34 +0.00    +0.064    50.974
ATOM      3  C   UNL d   1     -13.142 -14.725  -7.083 -0.17 +0.01    +0.064    50.974
ATOM      4  C   UNL d   1     -10.316 -17.727  -4.501 -0.05 +0.03    +0.064    50.974
ATOM      5  C   UNL d   1      -9.722 -12.927  -2.225 -0.17 +0.03    +0.066    50.974
ATOM      6  C   UNL d   1      -9.731 -11.689  -1.554 -0.32 -0.01    -0.021    50.974
ATOM      7  C   UNL d   1     -10.637 -10.883  -2.215 -0.32 -0.01    -0.025    50.974
ATOM      8  C   UNL d   1     -11.129 -11.658  -3.271 -0.28 +0.01    +0.066    50.974
ATOM      9  C   UNL d   1     -11.035  -9.438  -1.878 -0.31 +0.00    +0.051    50.974
ATOM     10  C   UNL d   1     -12.596 -11.867  -5.231 -0.30 +0.01    +0.066    50.974
ATOM     11  C   UNL d   1     -13.458 -11.347  -6.220 -0.30 -0.00    -0.021    50.974
ATOM     12  C   UNL d   1     -13.757 -12.408  -7.079 -0.23 +0.00    +0.000    50.974
ATOM     13  C   UNL d   1     -13.047 -13.491  -6.559 -0.23 +0.01    +0.070    50.974
ATOM     14  C   UNL d   1     -13.878  -9.907  -6.370 -0.41 -0.00    +0.052    50.974
ATOM     15  C   UNL d   1     -12.523 -15.961  -6.644 -0.14 +0.01    +0.066    50.974
ATOM     16  C   UNL d   1     -12.776 -17.231  -7.143 -0.09 -0.01    -0.021    50.974
ATOM     17  C   UNL d   1     -11.966 -18.100  -6.400 -0.06 +0.00    +0.000    50.974
ATOM     18  C   UNL d   1     -11.266 -17.287  -5.514 -0.08 +0.03    +0.070    50.974
ATOM     19  C   UNL d   1     -13.742 -17.557  -8.261 -0.07 +0.01    +0.052    50.974
ATOM     20  C   UNL d   1      -9.689 -16.965  -3.572 -0.06 +0.04    +0.066    50.974
ATOM     21  C   UNL d   1      -8.823 -17.509  -2.626 -0.04 -0.02    -0.025    50.974
ATOM     22  C   UNL d   1      -8.404 -16.445  -1.848 -0.06 -0.02    -0.021    50.974
ATOM     23  C   UNL d   1      -9.050 -15.297  -2.356 -0.10 +0.05    +0.066    50.974
ATOM     24  C   UNL d   1      -8.430 -18.974  -2.457 -0.01 +0.03    +0.051    50.974
ATOM     25  N   UNL d   1     -10.575 -12.927  -3.305 +0.01 -0.09    -0.248    50.974
ATOM     26  N   UNL d   1     -12.301 -13.148  -5.475 -0.11 -0.05    -0.248    50.974
ATOM     27  N   UNL d   1     -11.646 -16.023  -5.667 -0.09 -0.07    -0.248    50.974
ATOM     28  N   UNL d   1      -9.830 -15.608  -3.398 -0.06 -0.14    -0.248    50.974
ATOM     29 FE   UNL d   1     -11.140 -14.569  -4.555 -0.04 +0.00    +0.000    50.974
ATOM     30  C   UNL d   1      -8.961 -11.336  -0.285 -0.27 +0.03    +0.052    50.974
ATOM     31  C   UNL d   1      -9.262 -12.344   0.823 -0.28 +0.08    +0.115    50.974
ATOM     32  C   UNL d   1      -8.007 -12.831   1.516 -0.26 +0.15    +0.139    50.974
ATOM     33  O   UNL d   1      -7.534 -12.176   2.432 -0.64 -0.83    -0.650    50.974
ATOM     34  O   UNL d   1      -7.414 -14.002   1.186 +0.05 -1.21    -0.776    50.974
ATOM     35  H   UNL d   1      -7.025 -14.190   0.321 +0.05 +0.26    +0.167    50.974
ATOM     36  C   UNL d   1     -12.681 -14.937  -3.182 -0.11 +0.04    +0.190    50.974
ATOM     37  O   UNL d   1     -12.999 -14.877  -1.822 -0.11 -0.07    -0.399    50.974
ATOM     38  H   UNL d   1     -12.355 -14.220  -1.436 +0.05 +0.03    +0.209    50.974
ATOM     39  C   UNL d   1      -7.485 -16.542  -0.645 -0.06 +0.05    +0.052    50.974
ATOM     40  C   UNL d   1      -6.016 -16.621  -1.090 -0.05 +0.18    +0.115    50.974
ATOM     41  C   UNL d   1      -5.119 -15.568  -0.474 -0.12 +0.28    +0.139    50.974
ATOM     42  O   UNL d   1      -4.209 -15.915   0.266 -0.27 -1.25    -0.650    50.974
ATOM     43  O   UNL d   1      -5.240 -14.260  -0.788 -0.14 -1.77    -0.776    50.974
ATOM     44  H   UNL d   1      -5.901 -13.686  -0.378 +0.04 +0.30    +0.167    50.974
ATOM     45  C   UNL d   1     -14.612 -12.519  -8.334 -0.25 +0.00    +0.004    50.974
ATOM     46  C   UNL d   1     -14.268 -12.750  -9.598 -0.34 +0.00    +0.012    50.974
ATOM     47  C   UNL d   1     -11.865 -19.589  -6.452 -0.03 +0.00    +0.004    50.974
ATOM     48  C   UNL d   1     -10.796 -20.240  -6.917 -0.04 +0.00    +0.012    50.974
TER
ENDMDL
MODEL       42
USER    Run = 42
USER    Cluster Rank = 3
USER    Number of conformations in this cluster = 2
USER  
USER    RMSD from reference structure       = 48.319 A
USER  
USER    Estimated Free Energy of Binding    =   -6.82 kcal/mol  [=(1)+(2)+(3)-(4)]
USER    Estimated Inhibition Constant, Ki   =    9.95 uM (micromolar)  [Temperature = 298.15 K]
USER    
USER    (1) Final Intermolecular Energy     =  -10.40 kcal/mol
USER        vdW + Hbond + desolv Energy     =   -6.07 kcal/mol
USER        Electrostatic Energy            =   -4.34 kcal/mol
USER    (2) Final Total Internal Energy     =   -0.32 kcal/mol
USER    (3) Torsional Free Energy           =   +3.58 kcal/mol
USER    (4) Unbound System's Energy  [=(2)] =   -0.32 kcal/mol
USER    
USER    
USER  
USER    DPF = D:/Protein_go_brrr/autodock/final/AncA/heme_Co/dock.dpf
USER    NEWDPF move	heme_Co_opt.pdbqt
USER    NEWDPF about	8.781000 34.984000 -0.736000
USER    NEWDPF tran0	-0.061941 -15.143335 0.172052
USER    NEWDPF axisangle0	0.928454 0.355978 0.106081 -145.378107
USER    NEWDPF quaternion0	0.886399 0.339853 0.101276 -0.297557
USER    NEWDPF dihe0	34.86 104.97 -93.47 -64.01 165.45 141.47 19.05 33.02 -145.73 65.39 -13.93 81.15 
USER  
USER                              x       y       z    vdW   Elec        q     RMS 
ATOM      1  C   UNL d   1      -1.564 -16.331   1.196 -0.08 +0.06    +0.064    48.319
ATOM      2  C   UNL d   1      -0.638 -15.635  -3.416 -0.14 +0.06    +0.064    48.319
ATOM      3  C   UNL d   1       2.722 -12.428  -2.296 -0.16 +0.02    +0.064    48.319
ATOM      4  C   UNL d   1       2.062 -13.405   2.423 -0.13 +0.02    +0.064    48.319
ATOM      5  C   UNL d   1      -1.583 -16.350  -0.147 -0.07 +0.06    +0.066    48.319
ATOM      6  C   UNL d   1      -2.405 -17.236  -0.871 -0.06 -0.02    -0.021    48.319
ATOM      7  C   UNL d   1      -2.116 -17.046  -2.208 -0.05 -0.03    -0.025    48.319
ATOM      8  C   UNL d   1      -1.142 -16.041  -2.244 -0.08 +0.07    +0.066    48.319
ATOM      9  C   UNL d   1      -2.723 -17.774  -3.417 -0.08 +0.07    +0.051    48.319
ATOM     10  C   UNL d   1       0.346 -14.591  -3.553 -0.13 +0.04    +0.066    48.319
ATOM     11  C   UNL d   1       0.812 -14.024  -4.759 -0.24 -0.01    -0.021    48.319
ATOM     12  C   UNL d   1       1.787 -13.089  -4.403 -0.25 +0.00    +0.000    48.319
ATOM     13  C   UNL d   1       1.836 -13.146  -3.010 -0.14 +0.03    +0.070    48.319
ATOM     14  C   UNL d   1       0.277 -14.302  -6.141 -0.40 +0.03    +0.052    48.319
ATOM     15  C   UNL d   1       2.944 -12.404  -0.864 -0.16 +0.02    +0.066    48.319
ATOM     16  C   UNL d   1       3.973 -11.749  -0.202 -0.23 -0.00    -0.021    48.319
ATOM     17  C   UNL d   1       3.789 -12.030   1.159 -0.20 +0.00    +0.000    48.319
ATOM     18  C   UNL d   1       2.648 -12.823   1.222 -0.15 +0.02    +0.070    48.319
ATOM     19  C   UNL d   1       5.050 -10.917  -0.861 -0.15 +0.00    +0.052    48.319
ATOM     20  C   UNL d   1       1.005 -14.248   2.500 -0.13 +0.03    +0.066    48.319
ATOM     21  C   UNL d   1       0.557 -14.770   3.711 -0.12 -0.01    -0.025    48.319
ATOM     22  C   UNL d   1      -0.507 -15.595   3.391 -0.10 -0.02    -0.021    48.319
ATOM     23  C   UNL d   1      -0.647 -15.544   1.988 -0.08 +0.05    +0.066    48.319
ATOM     24  C   UNL d   1       1.125 -14.512   5.104 -0.13 +0.03    +0.051    48.319
ATOM     25  N   UNL d   1      -0.798 -15.588  -0.982 -0.04 -0.21    -0.248    48.319
ATOM     26  N   UNL d   1       0.925 -14.014  -2.495 -0.04 -0.13    -0.248    48.319
ATOM     27  N   UNL d   1       2.189 -13.051  -0.004 -0.06 -0.08    -0.248    48.319
ATOM     28  N   UNL d   1       0.267 -14.732   1.445 -0.08 -0.15    -0.248    48.319
ATOM     29 FE   UNL d   1       0.783 -14.244  -0.461 -0.02 +0.00    +0.000    48.319
ATOM     30  C   UNL d   1      -3.361 -18.271  -0.288 -0.03 +0.05    +0.052    48.319
ATOM     31  C   UNL d   1      -4.562 -17.586   0.364 -0.06 +0.13    +0.115    48.319
ATOM     32  C   UNL d   1      -4.942 -16.298  -0.335 -0.11 +0.24    +0.139    48.319
ATOM     33  O   UNL d   1      -4.757 -15.231   0.230 -0.50 -1.54    -0.650    48.319
ATOM     34  O   UNL d   1      -5.439 -16.285  -1.594 +0.01 -1.86    -0.776    48.319
ATOM     35  H   UNL d   1      -5.972 -16.995  -1.976 +0.01 +0.28    +0.167    48.319
ATOM     36  C   UNL d   1       2.069 -15.897  -0.560 -0.01 +0.08    +0.190    48.319
ATOM     37  O   UNL d   1       2.085 -17.294  -0.624 +0.00 -0.16    -0.399    48.319
ATOM     38  H   UNL d   1       1.136 -17.568  -0.479 +0.01 +0.09    +0.209    48.319
ATOM     39  C   UNL d   1      -1.297 -16.433   4.378 -0.09 +0.04    +0.052    48.319
ATOM     40  C   UNL d   1      -2.360 -17.272   3.649 -0.06 +0.10    +0.115    48.319
ATOM     41  C   UNL d   1      -3.783 -16.992   4.083 +0.21 +0.21    +0.139    48.319
ATOM     42  O   UNL d   1      -4.708 -17.485   3.453 -0.29 -1.00    -0.650    48.319
ATOM     43  O   UNL d   1      -4.059 -16.284   5.200 -0.32 -1.09    -0.776    48.319
ATOM     44  H   UNL d   1      -4.126 -16.694   6.072 +0.02 +0.14    +0.167    48.319
ATOM     45  C   UNL d   1       2.661 -12.140  -5.213 -0.25 +0.00    +0.004    48.319
ATOM     46  C   UNL d   1       3.708 -12.383  -5.997 -0.48 +0.00    +0.012    48.319
ATOM     47  C   UNL d   1       4.626 -11.645   2.335 -0.19 +0.00    +0.004    48.319
ATOM     48  C   UNL d   1       4.119 -11.332   3.530 -0.24 +0.00    +0.012    48.319
TER
ENDMDL
MODEL       30
USER    Run = 30
USER    Cluster Rank = 4
USER    Number of conformations in this cluster = 4
USER  
USER    RMSD from reference structure       = 52.177 A
USER  
USER    Estimated Free Energy of Binding    =   -6.78 kcal/mol  [=(1)+(2)+(3)-(4)]
USER    Estimated Inhibition Constant, Ki   =   10.76 uM (micromolar)  [Temperature = 298.15 K]
USER    
USER    (1) Final Intermolecular Energy     =  -10.36 kcal/mol
USER        vdW + Hbond + desolv Energy     =   -6.55 kcal/mol
USER        Electrostatic Energy            =   -3.80 kcal/mol
USER    (2) Final Total Internal Energy     =   -1.10 kcal/mol
USER    (3) Torsional Free Energy           =   +3.58 kcal/mol
USER    (4) Unbound System's Energy  [=(2)] =   -1.10 kcal/mol
USER    
USER    
USER  
USER    DPF = D:/Protein_go_brrr/autodock/final/AncA/heme_Co/dock.dpf
USER    NEWDPF move	heme_Co_opt.pdbqt
USER    NEWDPF about	8.781000 34.984000 -0.736000
USER    NEWDPF tran0	-11.997731 -15.156553 1.631560
USER    NEWDPF axisangle0	0.241435 0.344293 -0.907288 -151.661237
USER    NEWDPF quaternion0	0.234090 0.333818 -0.879685 -0.244789
USER    NEWDPF dihe0	-138.88 113.00 -2.18 116.68 137.13 132.01 20.47 -178.70 62.77 50.73 -12.87 177.34 
USER  
USER                              x       y       z    vdW   Elec        q     RMS 
ATOM      1  C   UNL d   1     -10.003 -14.357   1.941 -0.17 +0.04    +0.064    52.177
ATOM      2  C   UNL d   1     -13.462 -15.576   4.968 -0.18 +0.02    +0.064    52.177
ATOM      3  C   UNL d   1     -16.401 -16.467   1.308 -0.09 +0.01    +0.064    52.177
ATOM      4  C   UNL d   1     -12.766 -15.599  -1.806 -0.13 +0.01    +0.064    52.177
ATOM      5  C   UNL d   1     -10.743 -14.590   3.038 -0.18 +0.03    +0.066    52.177
ATOM      6  C   UNL d   1     -10.204 -14.505   4.336 -0.20 -0.01    -0.021    52.177
ATOM      7  C   UNL d   1     -11.206 -14.881   5.209 -0.19 -0.01    -0.025    52.177
ATOM      8  C   UNL d   1     -12.317 -15.164   4.408 -0.19 +0.02    +0.066    52.177
ATOM      9  C   UNL d   1     -11.134 -14.977   6.741 -0.18 +0.02    +0.051    52.177
ATOM     10  C   UNL d   1     -14.665 -15.864   4.227 -0.20 +0.01    +0.066    52.177
ATOM     11  C   UNL d   1     -15.935 -16.164   4.765 -0.15 -0.00    -0.021    52.177
ATOM     12  C   UNL d   1     -16.774 -16.416   3.676 -0.14 +0.00    +0.000    52.177
ATOM     13  C   UNL d   1     -15.959 -16.239   2.557 -0.14 +0.01    +0.070    52.177
ATOM     14  C   UNL d   1     -16.322 -16.113   6.221 -0.13 +0.00    +0.052    52.177
ATOM     15  C   UNL d   1     -15.686 -16.386   0.050 -0.11 +0.01    +0.066    52.177
ATOM     16  C   UNL d   1     -16.161 -16.775  -1.194 -0.08 -0.00    -0.021    52.177
ATOM     17  C   UNL d   1     -15.115 -16.529  -2.095 -0.08 +0.00    +0.000    52.177
ATOM     18  C   UNL d   1     -14.087 -15.991  -1.329 -0.12 +0.01    +0.070    52.177
ATOM     19  C   UNL d   1     -17.535 -17.345  -1.469 -0.04 +0.01    +0.052    52.177
ATOM     20  C   UNL d   1     -11.721 -15.155  -1.067 -0.11 +0.02    +0.066    52.177
ATOM     21  C   UNL d   1     -10.488 -14.844  -1.635 -0.12 -0.01    -0.025    52.177
ATOM     22  C   UNL d   1      -9.680 -14.455  -0.582 -0.12 -0.01    -0.021    52.177
ATOM     23  C   UNL d   1     -10.463 -14.561   0.587 -0.07 +0.03    +0.066    52.177
ATOM     24  C   UNL d   1     -10.091 -14.932  -3.106 -0.10 +0.03    +0.051    52.177
ATOM     25  N   UNL d   1     -12.061 -14.986   3.059 -0.14 -0.08    -0.248    52.177
ATOM     26  N   UNL d   1     -14.699 -15.851   2.890 -0.14 -0.04    -0.248    52.177
ATOM     27  N   UNL d   1     -14.450 -15.949  -0.052 -0.06 -0.05    -0.248    52.177
ATOM     28  N   UNL d   1     -11.699 -14.986   0.298 -0.01 -0.08    -0.248    52.177
ATOM     29 FE   UNL d   1     -13.324 -15.495   1.409 -0.05 +0.00    +0.000    52.177
ATOM     30  C   UNL d   1      -8.765 -14.156   4.702 -0.23 +0.04    +0.052    52.177
ATOM     31  C   UNL d   1      -8.489 -12.675   4.442 -0.42 +0.08    +0.115    52.177
ATOM     32  C   UNL d   1      -7.390 -12.463   3.423 -0.17 +0.18    +0.139    52.177
ATOM     33  O   UNL d   1      -6.306 -12.033   3.788 -0.57 -0.94    -0.650    52.177
ATOM     34  O   UNL d   1      -7.551 -12.782   2.117 -0.48 -1.08    -0.776    52.177
ATOM     35  H   UNL d   1      -6.854 -13.153   1.558 +0.05 +0.32    +0.167    52.177
ATOM     36  C   UNL d   1     -12.605 -17.454   1.607 -0.04 +0.05    +0.190    52.177
ATOM     37  O   UNL d   1     -11.532 -18.202   2.104 +0.01 -0.12    -0.399    52.177
ATOM     38  H   UNL d   1     -10.907 -17.528   2.492 +0.02 +0.07    +0.209    52.177
ATOM     39  C   UNL d   1      -8.217 -14.068  -0.693 -0.15 +0.05    +0.052    52.177
ATOM     40  C   UNL d   1      -7.326 -15.320  -0.739 -0.10 +0.15    +0.115    52.177
ATOM     41  C   UNL d   1      -6.104 -15.251   0.152 +0.06 +0.28    +0.139    52.177
ATOM     42  O   UNL d   1      -5.476 -14.204   0.227 -0.42 -1.52    -0.650    52.177
ATOM     43  O   UNL d   1      -5.737 -16.289   0.936 -0.26 -1.57    -0.776    52.177
ATOM     44  H   UNL d   1      -6.197 -17.138   0.922 +0.01 +0.22    +0.167    52.177
ATOM     45  C   UNL d   1     -18.248 -16.782   3.563 -0.09 +0.00    +0.004    52.177
ATOM     46  C   UNL d   1     -19.289 -16.066   3.146 -0.10 +0.00    +0.012    52.177
ATOM     47  C   UNL d   1     -15.031 -16.811  -3.560 -0.03 +0.00    +0.004    52.177
ATOM     48  C   UNL d   1     -14.927 -15.859  -4.489 -0.04 +0.00    +0.012    52.177
TER
ENDMDL
MODEL       63
USER    Run = 63
USER    Cluster Rank = 5
USER    Number of conformations in this cluster = 3
USER  
USER    RMSD from reference structure       = 53.531 A
USER  
USER    Estimated Free Energy of Binding    =   -6.77 kcal/mol  [=(1)+(2)+(3)-(4)]
USER    Estimated Inhibition Constant, Ki   =   10.99 uM (micromolar)  [Temperature = 298.15 K]
USER    
USER    (1) Final Intermolecular Energy     =  -10.35 kcal/mol
USER        vdW + Hbond + desolv Energy     =   -6.72 kcal/mol
USER        Electrostatic Energy            =   -3.62 kcal/mol
USER    (2) Final Total Internal Energy     =   -0.64 kcal/mol
USER    (3) Torsional Free Energy           =   +3.58 kcal/mol
USER    (4) Unbound System's Energy  [=(2)] =   -0.64 kcal/mol
USER    
USER    
USER  
USER    DPF = D:/Protein_go_brrr/autodock/final/AncA/heme_Co/dock.dpf
USER    NEWDPF move	heme_Co_opt.pdbqt
USER    NEWDPF about	8.781000 34.984000 -0.736000
USER    NEWDPF tran0	-11.899628 -16.352369 -7.343070
USER    NEWDPF axisangle0	0.436113 -0.151104 -0.887115 157.827917
USER    NEWDPF quaternion0	0.427975 -0.148284 -0.870561 0.192283
USER    NEWDPF dihe0	-37.27 121.13 -48.78 100.81 133.42 115.61 52.42 -144.79 -89.09 -51.78 -2.09 -62.14 
USER  
USER                              x       y       z    vdW   Elec        q     RMS 
ATOM      1  C   UNL d   1     -10.462 -17.554  -6.245 -0.14 +0.03    +0.064    53.531
ATOM      2  C   UNL d   1     -12.509 -13.367  -5.302 -0.23 +0.01    +0.064    53.531
ATOM      3  C   UNL d   1     -14.617 -13.389  -9.590 -0.22 +0.01    +0.064    53.531
ATOM      4  C   UNL d   1     -12.848 -17.843 -10.422 -0.11 +0.02    +0.064    53.531
ATOM      5  C   UNL d   1     -10.837 -16.391  -5.687 -0.15 +0.03    +0.066    53.531
ATOM      6  C   UNL d   1     -10.474 -16.042  -4.372 -0.09 -0.01    -0.021    53.531
ATOM      7  C   UNL d   1     -11.089 -14.837  -4.095 -0.04 -0.01    -0.025    53.531
ATOM      8  C   UNL d   1     -11.788 -14.495  -5.258 -0.08 +0.02    +0.066    53.531
ATOM      9  C   UNL d   1     -11.032 -14.027  -2.791 -0.18 +0.02    +0.051    53.531
ATOM     10  C   UNL d   1     -13.238 -12.920  -6.462 -0.24 +0.01    +0.066    53.531
ATOM     11  C   UNL d   1     -13.898 -11.681  -6.618 -0.26 -0.00    -0.021    53.531
ATOM     12  C   UNL d   1     -14.500 -11.713  -7.879 -0.18 -0.00    +0.000    53.531
ATOM     13  C   UNL d   1     -14.155 -12.959  -8.402 -0.23 +0.00    +0.070    53.531
ATOM     14  C   UNL d   1     -13.860 -10.523  -5.655 -0.40 +0.00    +0.052    53.531
ATOM     15  C   UNL d   1     -14.405 -14.660 -10.254 -0.19 +0.02    +0.066    53.531
ATOM     16  C   UNL d   1     -15.029 -15.096 -11.414 -0.17 -0.01    -0.021    53.531
ATOM     17  C   UNL d   1     -14.524 -16.382 -11.656 -0.15 +0.00    +0.000    53.531
ATOM     18  C   UNL d   1     -13.615 -16.622 -10.631 -0.14 +0.02    +0.070    53.531
ATOM     19  C   UNL d   1     -16.042 -14.309 -12.214 -0.08 +0.04    +0.052    53.531
ATOM     20  C   UNL d   1     -12.025 -18.133  -9.386 -0.13 +0.02    +0.066    53.531
ATOM     21  C   UNL d   1     -11.370 -19.357  -9.277 -0.09 -0.01    -0.025    53.531
ATOM     22  C   UNL d   1     -10.652 -19.292  -8.097 -0.11 -0.01    -0.021    53.531
ATOM     23  C   UNL d   1     -10.916 -18.025  -7.534 -0.15 +0.03    +0.066    53.531
ATOM     24  C   UNL d   1     -11.440 -20.540 -10.238 -0.04 +0.02    +0.051    53.531
ATOM     25  N   UNL d   1     -11.645 -15.437  -6.263 -0.14 -0.06    -0.248    53.531
ATOM     26  N   UNL d   1     -13.346 -13.665  -7.567 -0.18 -0.01    -0.248    53.531
ATOM     27  N   UNL d   1     -13.593 -15.587  -9.798 -0.05 -0.03    -0.248    53.531
ATOM     28  N   UNL d   1     -11.748 -17.321  -8.310 -0.12 -0.07    -0.248    53.531
ATOM     29 FE   UNL d   1     -12.675 -15.519  -8.136 -0.05 +0.00    +0.000    53.531
ATOM     30  C   UNL d   1      -9.639 -16.877  -3.407 -0.08 +0.03    +0.052    53.531
ATOM     31  C   UNL d   1      -8.148 -16.696  -3.690 -0.13 +0.11    +0.115    53.531
ATOM     32  C   UNL d   1      -7.551 -15.539  -2.919 -0.04 +0.20    +0.139    53.531
ATOM     33  O   UNL d   1      -7.752 -14.395  -3.301 -0.04 -0.87    -0.650    53.531
ATOM     34  O   UNL d   1      -6.836 -15.724  -1.785 -0.51 -1.40    -0.776    53.531
ATOM     35  H   UNL d   1      -7.074 -16.353  -1.089 +0.02 +0.21    +0.167    53.531
ATOM     36  C   UNL d   1     -14.262 -16.410  -7.096 -0.04 +0.04    +0.190    53.531
ATOM     37  O   UNL d   1     -14.554 -17.326  -6.079 +0.00 -0.08    -0.399    53.531
ATOM     38  H   UNL d   1     -13.670 -17.547  -5.673 +0.02 +0.05    +0.209    53.531
ATOM     39  C   UNL d   1      -9.812 -20.413  -7.515 -0.08 +0.03    +0.052    53.531
ATOM     40  C   UNL d   1      -9.054 -21.157  -8.627 -0.09 +0.08    +0.115    53.531
ATOM     41  C   UNL d   1      -7.550 -21.180  -8.452 +0.06 +0.20    +0.139    53.531
ATOM     42  O   UNL d   1      -7.043 -20.528  -7.550 -0.51 -1.20    -0.650    53.531
ATOM     43  O   UNL d   1      -6.758 -21.970  -9.210 -0.14 -1.24    -0.776    53.531
ATOM     44  H   UNL d   1      -6.988 -22.884  -9.423 +0.01 +0.16    +0.167    53.531
ATOM     45  C   UNL d   1     -15.342 -10.707  -8.653 -0.26 +0.00    +0.004    53.531
ATOM     46  C   UNL d   1     -14.986  -9.776  -9.534 -0.35 -0.00    +0.012    53.531
ATOM     47  C   UNL d   1     -14.880 -17.360 -12.727 -0.11 +0.00    +0.004    53.531
ATOM     48  C   UNL d   1     -14.049 -17.711 -13.711 -0.12 +0.01    +0.012    53.531
TER
ENDMDL
MODEL       27
USER    Run = 27
USER    Cluster Rank = 6
USER    Number of conformations in this cluster = 10
USER  
USER    RMSD from reference structure       = 50.656 A
USER  
USER    Estimated Free Energy of Binding    =   -6.52 kcal/mol  [=(1)+(2)+(3)-(4)]
USER    Estimated Inhibition Constant, Ki   =   16.51 uM (micromolar)  [Temperature = 298.15 K]
USER    
USER    (1) Final Intermolecular Energy     =  -10.10 kcal/mol
USER        vdW + Hbond + desolv Energy     =   -6.03 kcal/mol
USER        Electrostatic Energy            =   -4.08 kcal/mol
USER    (2) Final Total Internal Energy     =   -2.41 kcal/mol
USER    (3) Torsional Free Energy           =   +3.58 kcal/mol
USER    (4) Unbound System's Energy  [=(2)] =   -2.41 kcal/mol
USER    
USER    
USER  
USER    DPF = D:/Protein_go_brrr/autodock/final/AncA/heme_Co/dock.dpf
USER    NEWDPF move	heme_Co_opt.pdbqt
USER    NEWDPF about	8.781000 34.984000 -0.736000
USER    NEWDPF tran0	-11.017094 -13.853863 -1.102118
USER    NEWDPF axisangle0	-0.501829 -0.654756 0.565210 164.215517
USER    NEWDPF quaternion0	-0.497075 -0.648555 0.559856 0.137310
USER    NEWDPF dihe0	113.76 109.51 69.30 116.59 156.40 89.83 92.71 -77.05 -58.06 125.00 -157.54 178.76 
USER  
USER                              x       y       z    vdW   Elec        q     RMS 
ATOM      1  C   UNL d   1      -9.391 -14.131   0.310 -0.14 +0.04    +0.064    50.656
ATOM      2  C   UNL d   1     -13.518 -16.413  -0.299 -0.13 +0.01    +0.064    50.656
ATOM      3  C   UNL d   1     -14.795 -13.281  -3.673 -0.16 +0.01    +0.064    50.656
ATOM      4  C   UNL d   1     -10.428 -11.163  -3.342 -0.27 +0.02    +0.064    50.656
ATOM      5  C   UNL d   1     -10.440 -14.963   0.417 -0.11 +0.03    +0.066    50.656
ATOM      6  C   UNL d   1     -10.422 -16.083   1.271 -0.06 -0.01    -0.021    50.656
ATOM      7  C   UNL d   1     -11.612 -16.755   1.073 -0.06 -0.01    -0.025    50.656
ATOM      8  C   UNL d   1     -12.313 -16.007   0.121 -0.08 +0.02    +0.066    50.656
ATOM      9  C   UNL d   1     -12.086 -18.051   1.747 -0.02 +0.01    +0.051    50.656
ATOM     10  C   UNL d   1     -14.324 -15.696  -1.255 -0.14 +0.01    +0.066    50.656
ATOM     11  C   UNL d   1     -15.652 -15.993  -1.631 -0.12 -0.00    -0.021    50.656
ATOM     12  C   UNL d   1     -16.001 -15.062  -2.613 -0.14 +0.00    +0.000    50.656
ATOM     13  C   UNL d   1     -14.867 -14.260  -2.755 -0.15 +0.01    +0.070    50.656
ATOM     14  C   UNL d   1     -16.541 -17.040  -1.011 -0.07 +0.01    +0.052    50.656
ATOM     15  C   UNL d   1     -13.691 -12.396  -3.990 -0.22 +0.00    +0.066    50.656
ATOM     16  C   UNL d   1     -13.630 -11.502  -5.049 -0.30 -0.00    -0.021    50.656
ATOM     17  C   UNL d   1     -12.372 -10.891  -4.959 -0.41 +0.00    +0.000    50.656
ATOM     18  C   UNL d   1     -11.769 -11.450  -3.838 -0.30 +0.01    +0.070    50.656
ATOM     19  C   UNL d   1     -14.726 -11.273  -6.067 -0.26 +0.00    +0.052    50.656
ATOM     20  C   UNL d   1      -9.788 -11.756  -2.306 -0.26 +0.03    +0.066    50.656
ATOM     21  C   UNL d   1      -8.485 -11.420  -1.946 -0.26 -0.01    -0.025    50.656
ATOM     22  C   UNL d   1      -8.170 -12.239  -0.878 -0.22 -0.02    -0.021    50.656
ATOM     23  C   UNL d   1      -9.301 -13.050  -0.644 -0.20 +0.04    +0.066    50.656
ATOM     24  C   UNL d   1      -7.577 -10.383  -2.601 -0.10 +0.03    +0.051    50.656
ATOM     25  N   UNL d   1     -11.613 -14.889  -0.299 -0.07 -0.08    -0.248    50.656
ATOM     26  N   UNL d   1     -13.875 -14.610  -1.893 -0.10 -0.03    -0.248    50.656
ATOM     27  N   UNL d   1     -12.571 -12.364  -3.303 -0.14 -0.03    -0.248    50.656
ATOM     28  N   UNL d   1     -10.282 -12.762  -1.508 -0.14 -0.11    -0.248    50.656
ATOM     29 FE   UNL d   1     -12.117 -13.550  -1.890 -0.06 +0.00    +0.000    50.656
ATOM     30  C   UNL d   1      -9.271 -16.523   2.170 -0.03 +0.03    +0.052    50.656
ATOM     31  C   UNL d   1      -8.138 -17.124   1.338 -0.02 +0.09    +0.115    50.656
ATOM     32  C   UNL d   1      -6.838 -16.366   1.501 +0.03 +0.22    +0.139    50.656
ATOM     33  O   UNL d   1      -6.861 -15.150   1.615 +0.29 -1.49    -0.650    50.656
ATOM     34  O   UNL d   1      -5.643 -16.998   1.572 -0.05 -1.30    -0.776    50.656
ATOM     35  H   UNL d   1      -4.971 -16.972   0.877 +0.01 +0.26    +0.167    50.656
ATOM     36  C   UNL d   1     -11.269 -14.956  -3.192 -0.10 +0.07    +0.190    50.656
ATOM     37  O   UNL d   1     -10.060 -15.572  -3.533 -0.04 -0.21    -0.399    50.656
ATOM     38  H   UNL d   1      -9.376 -15.131  -2.956 +0.05 +0.14    +0.209    50.656
ATOM     39  C   UNL d   1      -6.830 -12.281  -0.167 +0.08 +0.06    +0.052    50.656
ATOM     40  C   UNL d   1      -5.816 -13.114  -0.970 -0.21 +0.19    +0.115    50.656
ATOM     41  C   UNL d   1      -6.219 -14.558  -1.178 +0.21 +0.29    +0.139    50.656
ATOM     42  O   UNL d   1      -7.248 -14.810  -1.789 -0.32 -1.04    -0.650    50.656
ATOM     43  O   UNL d   1      -5.428 -15.580  -0.783 -0.32 -1.71    -0.776    50.656
ATOM     44  H   UNL d   1      -5.344 -15.844   0.143 +0.01 +0.34    +0.167    50.656
ATOM     45  C   UNL d   1     -17.273 -14.827  -3.416 -0.09 +0.00    +0.004    50.656
ATOM     46  C   UNL d   1     -18.178 -13.855  -3.340 -0.13 +0.00    +0.012    50.656
ATOM     47  C   UNL d   1     -11.729  -9.893  -5.866 -0.52 +0.00    +0.004    50.656
ATOM     48  C   UNL d   1     -11.090  -8.805  -5.429 -0.17 +0.00    +0.012    50.656
TER
ENDMDL
MODEL       67
USER    Run = 67
USER    Cluster Rank = 7
USER    Number of conformations in this cluster = 2
USER  
USER    RMSD from reference structure       = 49.129 A
USER  
USER    Estimated Free Energy of Binding    =   -6.39 kcal/mol  [=(1)+(2)+(3)-(4)]
USER    Estimated Inhibition Constant, Ki   =   20.68 uM (micromolar)  [Temperature = 298.15 K]
USER    
USER    (1) Final Intermolecular Energy     =   -9.97 kcal/mol
USER        vdW + Hbond + desolv Energy     =   -6.13 kcal/mol
USER        Electrostatic Energy            =   -3.84 kcal/mol
USER    (2) Final Total Internal Energy     =   -1.56 kcal/mol
USER    (3) Torsional Free Energy           =   +3.58 kcal/mol
USER    (4) Unbound System's Energy  [=(2)] =   -1.56 kcal/mol
USER    
USER    
USER  
USER    DPF = D:/Protein_go_brrr/autodock/final/AncA/heme_Co/dock.dpf
USER    NEWDPF move	heme_Co_opt.pdbqt
USER    NEWDPF about	8.781000 34.984000 -0.736000
USER    NEWDPF tran0	-0.527187 -16.067473 -2.796981
USER    NEWDPF axisangle0	-0.709331 -0.151822 0.688331 -69.717052
USER    NEWDPF quaternion0	-0.405420 -0.086774 0.393417 -0.820566
USER    NEWDPF dihe0	-81.45 143.57 -153.39 -9.43 126.94 -176.93 157.66 167.07 103.14 64.34 -125.66 -175.29 
USER  
USER                              x       y       z    vdW   Elec        q     RMS 
ATOM      1  C   UNL d   1      -1.729 -17.780  -3.379 -0.06 +0.06    +0.064    49.129
ATOM      2  C   UNL d   1      -1.072 -15.611   0.801 -0.11 +0.06    +0.064    49.129
ATOM      3  C   UNL d   1       2.207 -12.741  -1.161 -0.13 +0.02    +0.064    49.129
ATOM      4  C   UNL d   1       1.275 -14.681  -5.524 -0.26 +0.03    +0.064    49.129
ATOM      5  C   UNL d   1      -1.764 -17.422  -2.085 -0.05 +0.07    +0.066    49.129
ATOM      6  C   UNL d   1      -2.672 -17.997  -1.175 -0.04 -0.02    -0.021    49.129
ATOM      7  C   UNL d   1      -2.493 -17.348   0.031 -0.05 -0.02    -0.025    49.129
ATOM      8  C   UNL d   1      -1.472 -16.417  -0.190 -0.06 +0.06    +0.066    49.129
ATOM      9  C   UNL d   1      -3.246 -17.584   1.349 -0.07 +0.05    +0.051    49.129
ATOM     10  C   UNL d   1      -0.012 -14.641   0.674 -0.11 +0.04    +0.066    49.129
ATOM     11  C   UNL d   1       0.549 -13.865   1.711 -0.13 -0.01    -0.021    49.129
ATOM     12  C   UNL d   1       1.505 -13.040   1.112 -0.20 +0.00    +0.000    49.129
ATOM     13  C   UNL d   1       1.465 -13.382  -0.240 -0.11 +0.03    +0.070    49.129
ATOM     14  C   UNL d   1       0.246 -13.988   3.183 -0.13 +0.03    +0.052    49.129
ATOM     15  C   UNL d   1       2.251 -12.928  -2.598 -0.13 +0.02    +0.066    49.129
ATOM     16  C   UNL d   1       2.932 -12.135  -3.510 -0.23 -0.01    -0.021    49.129
ATOM     17  C   UNL d   1       2.664 -12.689  -4.770 -0.29 +0.00    +0.000    49.129
ATOM     18  C   UNL d   1       1.852 -13.791  -4.524 -0.20 +0.03    +0.070    49.129
ATOM     19  C   UNL d   1       3.775 -10.928  -3.165 -0.31 +0.01    +0.052    49.129
ATOM     20  C   UNL d   1       0.414 -15.706  -5.315 -0.18 +0.04    +0.066    49.129
ATOM     21  C   UNL d   1      -0.101 -16.468  -6.362 -0.23 -0.02    -0.025    49.129
ATOM     22  C   UNL d   1      -0.948 -17.389  -5.771 -0.14 -0.02    -0.021    49.129
ATOM     23  C   UNL d   1      -0.917 -17.132  -4.384 -0.09 +0.06    +0.066    49.129
ATOM     24  C   UNL d   1       0.183 -16.316  -7.853 -0.05 +0.03    +0.051    49.129
ATOM     25  N   UNL d   1      -0.998 -16.445  -1.491 -0.03 -0.22    -0.248    49.129
ATOM     26  N   UNL d   1       0.588 -14.389  -0.494 -0.04 -0.14    -0.248    49.129
ATOM     27  N   UNL d   1       1.602 -13.885  -3.223 -0.06 -0.11    -0.248    49.129
ATOM     28  N   UNL d   1      -0.095 -16.113  -4.104 -0.05 -0.19    -0.248    49.129
ATOM     29 FE   UNL d   1       0.379 -15.091  -2.411 -0.02 +0.00    +0.000    49.129
ATOM     30  C   UNL d   1      -3.717 -19.064  -1.484 -0.02 +0.04    +0.052    49.129
ATOM     31  C   UNL d   1      -4.398 -18.777  -2.822 -0.05 +0.12    +0.115    49.129
ATOM     32  C   UNL d   1      -5.455 -17.699  -2.713 -0.05 +0.20    +0.139    49.129
ATOM     33  O   UNL d   1      -5.347 -16.837  -1.853 -0.06 -1.31    -0.650    49.129
ATOM     34  O   UNL d   1      -6.499 -17.628  -3.571 +0.02 -0.98    -0.776    49.129
ATOM     35  H   UNL d   1      -6.469 -17.180  -4.428 +0.03 +0.24    +0.167    49.129
ATOM     36  C   UNL d   1      -1.252 -13.807  -2.702 -0.16 +0.22    +0.190    49.129
ATOM     37  O   UNL d   1      -2.498 -13.450  -2.174 -0.31 -0.74    -0.399    49.129
ATOM     38  H   UNL d   1      -2.416 -13.612  -1.192 +0.06 +0.30    +0.209    49.129
ATOM     39  C   UNL d   1      -1.789 -18.412  -6.511 -0.14 +0.05    +0.052    49.129
ATOM     40  C   UNL d   1      -2.983 -17.736  -7.203 -0.23 +0.16    +0.115    49.129
ATOM     41  C   UNL d   1      -4.336 -18.259  -6.767 -0.12 +0.24    +0.139    49.129
ATOM     42  O   UNL d   1      -4.567 -19.457  -6.845 -0.01 -1.32    -0.650    49.129
ATOM     43  O   UNL d   1      -5.266 -17.450  -6.213 +0.07 -1.17    -0.776    49.129
ATOM     44  H   UNL d   1      -5.886 -17.757  -5.539 +0.04 +0.22    +0.167    49.129
ATOM     45  C   UNL d   1       2.460 -11.988   1.661 -0.33 +0.00    +0.004    49.129
ATOM     46  C   UNL d   1       2.448 -11.326   2.815 -0.42 +0.00    +0.012    49.129
ATOM     47  C   UNL d   1       3.077 -12.219  -6.126 -0.38 +0.00    +0.004    49.129
ATOM     48  C   UNL d   1       4.033 -12.806  -6.850 -0.53 +0.00    +0.012    49.129
TER
ENDMDL
MODEL       54
USER    Run = 54
USER    Cluster Rank = 8
USER    Number of conformations in this cluster = 3
USER  
USER    RMSD from reference structure       = 51.811 A
USER  
USER    Estimated Free Energy of Binding    =   -5.93 kcal/mol  [=(1)+(2)+(3)-(4)]
USER    Estimated Inhibition Constant, Ki   =   44.78 uM (micromolar)  [Temperature = 298.15 K]
USER    
USER    (1) Final Intermolecular Energy     =   -9.51 kcal/mol
USER        vdW + Hbond + desolv Energy     =   -5.23 kcal/mol
USER        Electrostatic Energy            =   -4.28 kcal/mol
USER    (2) Final Total Internal Energy     =   -2.48 kcal/mol
USER    (3) Torsional Free Energy           =   +3.58 kcal/mol
USER    (4) Unbound System's Energy  [=(2)] =   -2.48 kcal/mol
USER    
USER    
USER  
USER    DPF = D:/Protein_go_brrr/autodock/final/AncA/heme_Co/dock.dpf
USER    NEWDPF move	heme_Co_opt.pdbqt
USER    NEWDPF about	8.781000 34.984000 -0.736000
USER    NEWDPF tran0	-11.046899 -15.292242 -2.642429
USER    NEWDPF axisangle0	-0.379366 -0.855947 0.351334 146.811188
USER    NEWDPF quaternion0	-0.363566 -0.820298 0.336701 0.285595
USER    NEWDPF dihe0	166.35 92.78 -115.38 -97.57 110.74 162.14 12.67 -177.53 -88.67 61.70 178.43 -177.59 
USER  
USER                              x       y       z    vdW   Elec        q     RMS 
ATOM      1  C   UNL d   1      -9.736 -15.174  -0.915 -0.08 +0.04    +0.064    51.811
ATOM      2  C   UNL d   1     -11.719 -18.858  -3.175 -0.01 +0.02    +0.064    51.811
ATOM      3  C   UNL d   1     -14.138 -15.866  -6.008 -0.04 +0.01    +0.064    51.811
ATOM      4  C   UNL d   1     -11.833 -12.096  -3.973 -0.26 +0.01    +0.064    51.811
ATOM      5  C   UNL d   1     -10.128 -16.400  -1.301 -0.03 +0.03    +0.066    51.811
ATOM      6  C   UNL d   1      -9.576 -17.570  -0.744 -0.00 -0.01    -0.021    51.811
ATOM      7  C   UNL d   1     -10.139 -18.636  -1.419 +0.00 -0.01    -0.025    51.811
ATOM      8  C   UNL d   1     -11.020 -18.071  -2.347 -0.01 +0.02    +0.066    51.811
ATOM      9  C   UNL d   1      -9.866 -20.133  -1.210 +0.00 +0.02    +0.051    51.811
ATOM     10  C   UNL d   1     -12.668 -18.369  -4.144 -0.01 +0.02    +0.066    51.811
ATOM     11  C   UNL d   1     -13.534 -19.146  -4.944 -0.01 -0.00    -0.021    51.811
ATOM     12  C   UNL d   1     -14.231 -18.248  -5.757 -0.01 +0.00    +0.000    51.811
ATOM     13  C   UNL d   1     -13.749 -16.993  -5.386 -0.02 +0.02    +0.070    51.811
ATOM     14  C   UNL d   1     -13.735 -20.637  -4.852 -0.00 +0.01    +0.052    51.811
ATOM     15  C   UNL d   1     -13.707 -14.499  -5.791 -0.10 +0.01    +0.066    51.811
ATOM     16  C   UNL d   1     -14.040 -13.397  -6.566 -0.16 -0.00    -0.021    51.811
ATOM     17  C   UNL d   1     -13.375 -12.308  -5.984 -0.27 +0.00    +0.000    51.811
ATOM     18  C   UNL d   1     -12.700 -12.831  -4.886 -0.21 +0.01    +0.070    51.811
ATOM     19  C   UNL d   1     -14.939 -13.420  -7.782 -0.14 +0.01    +0.052    51.811
ATOM     20  C   UNL d   1     -11.099 -12.598  -2.951 -0.19 +0.02    +0.066    51.811
ATOM     21  C   UNL d   1     -10.273 -11.796  -2.166 -0.30 -0.01    -0.025    51.811
ATOM     22  C   UNL d   1      -9.678 -12.652  -1.257 -0.24 -0.01    -0.021    51.811
ATOM     23  C   UNL d   1     -10.164 -13.945  -1.543 -0.15 +0.03    +0.066    51.811
ATOM     24  C   UNL d   1     -10.047 -10.292  -2.287 -0.47 +0.01    +0.051    51.811
ATOM     25  N   UNL d   1     -11.038 -16.688  -2.292 -0.01 -0.09    -0.248    51.811
ATOM     26  N   UNL d   1     -12.846 -17.063  -4.372 -0.01 -0.06    -0.248    51.811
ATOM     27  N   UNL d   1     -12.896 -14.143  -4.819 -0.07 -0.05    -0.248    51.811
ATOM     28  N   UNL d   1     -11.023 -13.917  -2.570 -0.11 -0.09    -0.248    51.811
ATOM     29 FE   UNL d   1     -12.021 -15.337  -3.629 -0.02 +0.00    +0.000    51.811
ATOM     30  C   UNL d   1      -8.498 -17.645   0.332 -0.00 +0.03    +0.052    51.811
ATOM     31  C   UNL d   1      -7.123 -17.858  -0.301 -0.01 +0.10    +0.115    51.811
ATOM     32  C   UNL d   1      -6.432 -16.553  -0.633 -0.07 +0.19    +0.139    51.811
ATOM     33  O   UNL d   1      -6.177 -16.288  -1.798 -0.41 -1.34    -0.650    51.811
ATOM     34  O   UNL d   1      -6.127 -15.640   0.318 -0.45 -1.51    -0.776    51.811
ATOM     35  H   UNL d   1      -5.484 -14.927   0.201 +0.02 +0.40    +0.167    51.811
ATOM     36  C   UNL d   1     -10.374 -15.578  -4.903 +0.06 +0.09    +0.190    51.811
ATOM     37  O   UNL d   1      -9.198 -16.314  -5.077 -0.09 -0.26    -0.399    51.811
ATOM     38  H   UNL d   1      -8.985 -16.675  -4.171 +0.05 +0.14    +0.209    51.811
ATOM     39  C   UNL d   1      -8.649 -12.252  -0.216 -0.28 +0.04    +0.052    51.811
ATOM     40  C   UNL d   1      -7.273 -12.037  -0.867 -0.11 +0.10    +0.115    51.811
ATOM     41  C   UNL d   1      -6.162 -12.876  -0.273 -0.25 +0.20    +0.139    51.811
ATOM     42  O   UNL d   1      -6.125 -13.049   0.938 -0.06 -1.25    -0.650    51.811
ATOM     43  O   UNL d   1      -5.259 -13.513  -1.050 -0.02 -1.58    -0.776    51.811
ATOM     44  H   UNL d   1      -5.249 -14.473  -1.155 +0.03 +0.42    +0.167    51.811
ATOM     45  C   UNL d   1     -15.303 -18.430  -6.823 -0.00 +0.00    +0.004    51.811
ATOM     46  C   UNL d   1     -15.232 -18.337  -8.148 -0.01 +0.00    +0.012    51.811
ATOM     47  C   UNL d   1     -13.313 -10.883  -6.426 -0.26 -0.00    +0.004    51.811
ATOM     48  C   UNL d   1     -14.194  -9.954  -6.047 -0.43 +0.00    +0.012    51.811
TER
ENDMDL
MODEL       32
USER    Run = 32
USER    Cluster Rank = 9
USER    Number of conformations in this cluster = 1
USER  
USER    RMSD from reference structure       = 52.222 A
USER  
USER    Estimated Free Energy of Binding    =   -5.86 kcal/mol  [=(1)+(2)+(3)-(4)]
USER    Estimated Inhibition Constant, Ki   =   51.06 uM (micromolar)  [Temperature = 298.15 K]
USER    
USER    (1) Final Intermolecular Energy     =   -9.43 kcal/mol
USER        vdW + Hbond + desolv Energy     =   -5.93 kcal/mol
USER        Electrostatic Energy            =   -3.51 kcal/mol
USER    (2) Final Total Internal Energy     =   -1.72 kcal/mol
USER    (3) Torsional Free Energy           =   +3.58 kcal/mol
USER    (4) Unbound System's Energy  [=(2)] =   -1.72 kcal/mol
USER    
USER    
USER  
USER    DPF = D:/Protein_go_brrr/autodock/final/AncA/heme_Co/dock.dpf
USER    NEWDPF move	heme_Co_opt.pdbqt
USER    NEWDPF about	8.781000 34.984000 -0.736000
USER    NEWDPF tran0	-11.733299 -15.168716 6.031901
USER    NEWDPF axisangle0	0.038735 -0.261462 0.964436 171.762309
USER    NEWDPF quaternion0	0.038635 -0.260786 0.961945 0.071826
USER    NEWDPF dihe0	41.67 94.32 10.27 107.37 132.94 150.09 -124.04 29.23 -41.29 -61.96 -178.66 4.04 
USER  
USER                              x       y       z    vdW   Elec        q     RMS 
ATOM      1  C   UNL d   1      -9.860 -14.867   4.976 -0.14 +0.03    +0.064    52.222
ATOM      2  C   UNL d   1     -10.999 -14.648   9.587 -0.19 +0.02    +0.064    52.222
ATOM      3  C   UNL d   1     -15.604 -15.344   8.522 -0.12 +0.00    +0.064    52.222
ATOM      4  C   UNL d   1     -14.416 -15.956   3.844 -0.19 +0.01    +0.064    52.222
ATOM      5  C   UNL d   1      -9.838 -14.720   6.311 -0.17 +0.03    +0.066    52.222
ATOM      6  C   UNL d   1      -8.634 -14.564   7.025 -0.18 -0.01    -0.021    52.222
ATOM      7  C   UNL d   1      -8.969 -14.524   8.365 -0.21 -0.01    -0.025    52.222
ATOM      8  C   UNL d   1     -10.362 -14.640   8.409 -0.17 +0.02    +0.066    52.222
ATOM      9  C   UNL d   1      -8.024 -14.384   9.568 -0.22 +0.01    +0.051    52.222
ATOM     10  C   UNL d   1     -12.431 -14.737   9.730 -0.10 +0.01    +0.066    52.222
ATOM     11  C   UNL d   1     -13.168 -14.610  10.927 -0.13 -0.00    -0.021    52.222
ATOM     12  C   UNL d   1     -14.509 -14.813  10.587 -0.11 +0.00    +0.000    52.222
ATOM     13  C   UNL d   1     -14.491 -15.036   9.210 -0.12 +0.01    +0.070    52.222
ATOM     14  C   UNL d   1     -12.619 -14.224  12.277 -0.14 +0.01    +0.052    52.222
ATOM     15  C   UNL d   1     -15.759 -15.655   7.114 -0.13 +0.00    +0.066    52.222
ATOM     16  C   UNL d   1     -16.915 -16.108   6.493 -0.09 -0.00    -0.021    52.222
ATOM     17  C   UNL d   1     -16.576 -16.288   5.145 -0.12 +0.00    +0.000    52.222
ATOM     18  C   UNL d   1     -15.240 -15.913   5.045 -0.16 +0.01    +0.070    52.222
ATOM     19  C   UNL d   1     -18.243 -16.344   7.178 -0.04 +0.00    +0.052    52.222
ATOM     20  C   UNL d   1     -13.094 -15.679   3.741 -0.19 +0.02    +0.066    52.222
ATOM     21  C   UNL d   1     -12.403 -15.791   2.537 -0.13 -0.01    -0.025    52.222
ATOM     22  C   UNL d   1     -11.093 -15.455   2.827 -0.13 -0.01    -0.021    52.222
ATOM     23  C   UNL d   1     -11.047 -15.164   4.207 -0.15 +0.03    +0.066    52.222
ATOM     24  C   UNL d   1     -12.958 -16.217   1.180 -0.09 +0.01    +0.051    52.222
ATOM     25  N   UNL d   1     -10.928 -14.757   7.151 -0.10 -0.10    -0.248    52.222
ATOM     26  N   UNL d   1     -13.241 -14.934   8.685 -0.10 -0.05    -0.248    52.222
ATOM     27  N   UNL d   1     -14.778 -15.571   6.243 -0.09 -0.03    -0.248    52.222
ATOM     28  N   UNL d   1     -12.256 -15.301   4.765 -0.10 -0.09    -0.248    52.222
ATOM     29 FE   UNL d   1     -12.966 -15.188   6.666 -0.05 +0.00    +0.000    52.222
ATOM     30  C   UNL d   1      -7.226 -14.540   6.441 -0.11 +0.04    +0.052    52.222
ATOM     31  C   UNL d   1      -6.600 -15.933   6.490 -0.09 +0.08    +0.115    52.222
ATOM     32  C   UNL d   1      -5.870 -16.284   5.211 +0.04 +0.19    +0.139    52.222
ATOM     33  O   UNL d   1      -4.648 -16.291   5.199 -0.42 -1.01    -0.650    52.222
ATOM     34  O   UNL d   1      -6.529 -16.640   4.084 -0.10 -1.24    -0.776    52.222
ATOM     35  H   UNL d   1      -7.364 -16.247   3.795 +0.02 +0.22    +0.167    52.222
ATOM     36  C   UNL d   1     -12.498 -17.206   6.986 -0.03 +0.04    +0.190    52.222
ATOM     37  O   UNL d   1     -11.438 -18.072   7.274 +0.00 -0.08    -0.399    52.222
ATOM     38  H   UNL d   1     -10.615 -17.558   7.038 +0.02 +0.05    +0.209    52.222
ATOM     39  C   UNL d   1      -9.940 -15.478   1.840 -0.10 +0.03    +0.052    52.222
ATOM     40  C   UNL d   1      -9.550 -14.049   1.428 -0.18 +0.08    +0.115    52.222
ATOM     41  C   UNL d   1      -8.186 -13.609   1.915 -0.21 +0.16    +0.139    52.222
ATOM     42  O   UNL d   1      -7.685 -12.593   1.454 -0.46 -0.79    -0.650    52.222
ATOM     43  O   UNL d   1      -7.542 -14.259   2.910 -0.04 -1.44    -0.776    52.222
ATOM     44  H   UNL d   1      -7.791 -15.148   3.195 +0.04 +0.25    +0.167    52.222
ATOM     45  C   UNL d   1     -15.798 -14.803  11.396 -0.07 +0.00    +0.004    52.222
ATOM     46  C   UNL d   1     -16.716 -13.853  11.552 -0.10 -0.00    +0.012    52.222
ATOM     47  C   UNL d   1     -17.400 -16.818   4.017 -0.10 +0.00    +0.004    52.222
ATOM     48  C   UNL d   1     -17.820 -16.068   2.995 -0.16 +0.00    +0.012    52.222
TER
ENDMDL
MODEL       46
USER    Run = 46
USER    Cluster Rank = 10
USER    Number of conformations in this cluster = 1
USER  
USER    RMSD from reference structure       = 53.855 A
USER  
USER    Estimated Free Energy of Binding    =   -5.82 kcal/mol  [=(1)+(2)+(3)-(4)]
USER    Estimated Inhibition Constant, Ki   =   53.84 uM (micromolar)  [Temperature = 298.15 K]
USER    
USER    (1) Final Intermolecular Energy     =   -9.40 kcal/mol
USER        vdW + Hbond + desolv Energy     =   -7.07 kcal/mol
USER        Electrostatic Energy            =   -2.34 kcal/mol
USER    (2) Final Total Internal Energy     =   -0.84 kcal/mol
USER    (3) Torsional Free Energy           =   +3.58 kcal/mol
USER    (4) Unbound System's Energy  [=(2)] =   -0.84 kcal/mol
USER    
USER    
USER  
USER    DPF = D:/Protein_go_brrr/autodock/final/AncA/heme_Co/dock.dpf
USER    NEWDPF move	heme_Co_opt.pdbqt
USER    NEWDPF about	8.781000 34.984000 -0.736000
USER    NEWDPF tran0	-12.377496 -16.511519 -8.924926
USER    NEWDPF axisangle0	-0.138131 -0.111604 0.984106 -123.294911
USER    NEWDPF quaternion0	-0.121561 -0.098216 0.866055 -0.474895
USER    NEWDPF dihe0	87.24 109.08 -63.56 115.08 -94.59 157.66 -117.75 155.34 -49.66 121.93 -19.61 -14.56 
USER  
USER                              x       y       z    vdW   Elec        q     RMS 
ATOM      1  C   UNL d   1     -11.513 -18.367  -9.649 -0.15 +0.02    +0.064    53.855
ATOM      2  C   UNL d   1     -11.177 -16.097  -5.484 -0.15 +0.02    +0.064    53.855
ATOM      3  C   UNL d   1     -13.716 -12.444  -7.228 -0.18 +0.00    +0.064    53.855
ATOM      4  C   UNL d   1     -14.400 -14.912 -11.364 -0.19 +0.03    +0.064    53.855
ATOM      5  C   UNL d   1     -11.204 -17.999  -8.395 -0.16 +0.02    +0.066    53.855
ATOM      6  C   UNL d   1     -10.510 -18.853  -7.515 -0.12 -0.01    -0.021    53.855
ATOM      7  C   UNL d   1     -10.436 -18.198  -6.301 -0.11 -0.01    -0.025    53.855
ATOM      8  C   UNL d   1     -11.072 -16.967  -6.496 -0.16 +0.02    +0.066    53.855
ATOM      9  C   UNL d   1      -9.794 -18.699  -4.998 -0.06 +0.03    +0.051    53.855
ATOM     10  C   UNL d   1     -11.790 -14.797  -5.598 -0.15 +0.02    +0.066    53.855
ATOM     11  C   UNL d   1     -11.808 -13.784  -4.615 -0.06 -0.01    -0.021    53.855
ATOM     12  C   UNL d   1     -12.552 -12.729  -5.152 -0.26 +0.00    +0.000    53.855
ATOM     13  C   UNL d   1     -12.920 -13.170  -6.423 -0.24 +0.01    +0.070    53.855
ATOM     14  C   UNL d   1     -11.077 -13.806  -3.298 -0.16 +0.02    +0.052    53.855
ATOM     15  C   UNL d   1     -14.235 -12.767  -8.543 -0.24 +0.00    +0.066    53.855
ATOM     16  C   UNL d   1     -15.170 -12.036  -9.261 -0.21 -0.00    -0.021    53.855
ATOM     17  C   UNL d   1     -15.373 -12.745 -10.454 -0.20 +0.00    +0.000    53.855
ATOM     18  C   UNL d   1     -14.529 -13.848 -10.376 -0.23 +0.02    +0.070    53.855
ATOM     19  C   UNL d   1     -15.811 -10.745  -8.805 -0.19 +0.00    +0.052    53.855
ATOM     20  C   UNL d   1     -13.652 -16.037 -11.272 -0.21 +0.03    +0.066    53.855
ATOM     21  C   UNL d   1     -13.639 -17.005 -12.274 -0.17 -0.01    -0.025    53.855
ATOM     22  C   UNL d   1     -12.792 -18.000 -11.820 -0.12 -0.01    -0.021    53.855
ATOM     23  C   UNL d   1     -12.337 -17.592 -10.548 -0.16 +0.02    +0.066    53.855
ATOM     24  C   UNL d   1     -14.410 -16.993 -13.591 -0.01 +0.04    +0.051    53.855
ATOM     25  N   UNL d   1     -11.552 -16.815  -7.786 -0.12 -0.06    -0.248    53.855
ATOM     26  N   UNL d   1     -12.412 -14.397  -6.713 -0.18 -0.04    -0.248    53.855
ATOM     27  N   UNL d   1     -13.889 -13.845  -9.212 -0.17 -0.02    -0.248    53.855
ATOM     28  N   UNL d   1     -12.857 -16.405 -10.212 -0.06 -0.05    -0.248    53.855
ATOM     29 FE   UNL d   1     -12.790 -15.243  -8.544 -0.05 -0.00    +0.000    53.855
ATOM     30  C   UNL d   1     -10.020 -20.265  -7.815 -0.08 +0.03    +0.052    53.855
ATOM     31  C   UNL d   1      -8.950 -20.241  -8.907 -0.13 +0.10    +0.115    53.855
ATOM     32  C   UNL d   1      -7.698 -20.990  -8.505 +0.16 +0.20    +0.139    53.855
ATOM     33  O   UNL d   1      -7.401 -22.022  -9.089 -0.13 -0.77    -0.650    53.855
ATOM     34  O   UNL d   1      -6.862 -20.529  -7.545 -0.49 -1.57    -0.776    53.855
ATOM     35  H   UNL d   1      -6.997 -20.663  -6.597 +0.01 +0.20    +0.167    53.855
ATOM     36  C   UNL d   1     -14.416 -16.283  -7.726 -0.05 +0.03    +0.190    53.855
ATOM     37  O   UNL d   1     -14.752 -17.412  -6.973 -0.00 -0.08    -0.399    53.855
ATOM     38  H   UNL d   1     -13.888 -17.892  -6.831 +0.02 +0.05    +0.209    53.855
ATOM     39  C   UNL d   1     -12.493 -19.299 -12.544 -0.05 +0.02    +0.052    53.855
ATOM     40  C   UNL d   1     -11.330 -19.113 -13.533 -0.07 +0.05    +0.115    53.855
ATOM     41  C   UNL d   1     -11.616 -18.140 -14.658 -0.12 +0.07    +0.139    53.855
ATOM     42  O   UNL d   1     -12.465 -18.422 -15.491 -0.00 -0.36    -0.650    53.855
ATOM     43  O   UNL d   1     -11.020 -16.929 -14.717 -0.18 -0.47    -0.776    53.855
ATOM     44  H   UNL d   1     -11.085 -16.282 -14.003 -0.46 +0.07    +0.167    53.855
ATOM     45  C   UNL d   1     -12.938 -11.355  -4.620 -0.40 +0.00    +0.004    53.855
ATOM     46  C   UNL d   1     -12.492 -10.144  -4.944 -0.38 +0.00    +0.012    53.855
ATOM     47  C   UNL d   1     -16.314 -12.469 -11.580 -0.16 +0.00    +0.004    53.855
ATOM     48  C   UNL d   1     -17.316 -13.284 -11.920 -0.10 +0.01    +0.012    53.855
TER
ENDMDL
MODEL       88
USER    Run = 88
USER    Cluster Rank = 11
USER    Number of conformations in this cluster = 1
USER  
USER    RMSD from reference structure       = 36.181 A
USER  
USER    Estimated Free Energy of Binding    =   -5.71 kcal/mol  [=(1)+(2)+(3)-(4)]
USER    Estimated Inhibition Constant, Ki   =   64.89 uM (micromolar)  [Temperature = 298.15 K]
USER    
USER    (1) Final Intermolecular Energy     =   -9.29 kcal/mol
USER        vdW + Hbond + desolv Energy     =   -6.51 kcal/mol
USER        Electrostatic Energy            =   -2.78 kcal/mol
USER    (2) Final Total Internal Energy     =   -0.42 kcal/mol
USER    (3) Torsional Free Energy           =   +3.58 kcal/mol
USER    (4) Unbound System's Energy  [=(2)] =   -0.42 kcal/mol
USER    
USER    
USER  
USER    DPF = D:/Protein_go_brrr/autodock/final/AncA/heme_Co/dock.dpf
USER    NEWDPF move	heme_Co_opt.pdbqt
USER    NEWDPF about	8.781000 34.984000 -0.736000
USER    NEWDPF tran0	-1.793059 2.837725 -16.182018
USER    NEWDPF axisangle0	-0.378395 0.092778 0.920983 111.340133
USER    NEWDPF quaternion0	-0.312480 0.076617 0.760551 0.563958
USER    NEWDPF dihe0	75.51 173.40 13.94 14.42 -104.93 -96.59 144.03 -147.46 63.52 40.12 171.55 -70.26 
USER  
USER                              x       y       z    vdW   Elec        q     RMS 
ATOM      1  C   UNL d   1      -0.585   4.615 -15.869 -0.04 +0.01    +0.064    36.181
ATOM      2  C   UNL d   1      -5.050   3.530 -14.645 -0.11 +0.00    +0.064    36.181
ATOM      3  C   UNL d   1      -4.739  -0.601 -17.024 -0.16 -0.00    +0.064    36.181
ATOM      4  C   UNL d   1      -0.053   0.308 -17.963 -0.11 +0.00    +0.064    36.181
ATOM      5  C   UNL d   1      -1.840   4.639 -15.391 -0.03 +0.01    +0.066    36.181
ATOM      6  C   UNL d   1      -2.304   5.678 -14.561 -0.04 -0.00    -0.021    36.181
ATOM      7  C   UNL d   1      -3.592   5.347 -14.190 -0.06 -0.01    -0.025    36.181
ATOM      8  C   UNL d   1      -3.865   4.129 -14.822 -0.04 +0.01    +0.066    36.181
ATOM      9  C   UNL d   1      -4.542   6.136 -13.277 -0.15 +0.02    +0.051    36.181
ATOM     10  C   UNL d   1      -5.430   2.290 -15.274 -0.11 -0.00    +0.066    36.181
ATOM     11  C   UNL d   1      -6.704   1.683 -15.241 -0.22 +0.00    -0.021    36.181
ATOM     12  C   UNL d   1      -6.586   0.482 -15.946 -0.16 -0.00    +0.000    36.181
ATOM     13  C   UNL d   1      -5.256   0.451 -16.366 -0.14 -0.00    +0.070    36.181
ATOM     14  C   UNL d   1      -7.959   2.275 -14.653 -0.28 -0.01    +0.052    36.181
ATOM     15  C   UNL d   1      -3.382  -0.822 -17.485 -0.15 -0.00    +0.066    36.181
ATOM     16  C   UNL d   1      -2.878  -1.994 -18.030 -0.21 +0.00    -0.021    36.181
ATOM     17  C   UNL d   1      -1.526  -1.738 -18.300 -0.21 -0.00    +0.000    36.181
ATOM     18  C   UNL d   1      -1.316  -0.419 -17.912 -0.12 -0.00    +0.070    36.181
ATOM     19  C   UNL d   1      -3.668  -3.263 -18.263 -0.31 -0.01    +0.052    36.181
ATOM     20  C   UNL d   1       0.196   1.560 -17.512 -0.10 +0.00    +0.066    36.181
ATOM     21  C   UNL d   1       1.462   2.138 -17.584 -0.07 -0.00    -0.025    36.181
ATOM     22  C   UNL d   1       1.332   3.392 -17.014 -0.09 -0.00    -0.021    36.181
ATOM     23  C   UNL d   1      -0.014   3.512 -16.609 -0.07 +0.00    +0.066    36.181
ATOM     24  C   UNL d   1       2.737   1.520 -18.149 +0.00 +0.01    +0.051    36.181
ATOM     25  N   UNL d   1      -2.799   3.669 -15.577 -0.01 -0.02    -0.248    36.181
ATOM     26  N   UNL d   1      -4.573   1.571 -16.007 -0.04 +0.00    -0.248    36.181
ATOM     27  N   UNL d   1      -2.434   0.085 -17.403 -0.06 +0.00    -0.248    36.181
ATOM     28  N   UNL d   1      -0.705   2.405 -16.907 -0.05 -0.01    -0.248    36.181
ATOM     29 FE   UNL d   1      -2.603   1.772 -16.545 -0.02 +0.00    +0.000    36.181
ATOM     30  C   UNL d   1      -1.506   6.889 -14.088 -0.05 +0.01    +0.052    36.181
ATOM     31  C   UNL d   1      -1.092   6.721 -12.626 -0.11 +0.03    +0.115    36.181
ATOM     32  C   UNL d   1      -1.675   7.795 -11.734 -0.10 +0.09    +0.139    36.181
ATOM     33  O   UNL d   1      -2.586   8.495 -12.152 -0.41 -0.95    -0.650    36.181
ATOM     34  O   UNL d   1      -1.252   7.979 -10.461 +0.04 -0.28    -0.776    36.181
ATOM     35  H   UNL d   1      -0.391   8.349 -10.223 +0.06 -0.01    +0.167    36.181
ATOM     36  C   UNL d   1      -2.018   1.008 -14.683 -0.26 -0.01    +0.190    36.181
ATOM     37  O   UNL d   1      -2.443   0.190 -13.631 -0.18 +0.06    -0.399    36.181
ATOM     38  H   UNL d   1      -2.594  -0.704 -14.047 -0.37 -0.08    +0.209    36.181
ATOM     39  C   UNL d   1       2.459   4.388 -16.814 -0.10 +0.01    +0.052    36.181
ATOM     40  C   UNL d   1       3.515   4.243 -17.922 -0.06 +0.05    +0.115    36.181
ATOM     41  C   UNL d   1       4.936   4.498 -17.468 -0.05 +0.14    +0.139    36.181
ATOM     42  O   UNL d   1       5.135   4.956 -16.352 -0.52 -1.01    -0.650    36.181
ATOM     43  O   UNL d   1       5.998   4.153 -18.230 -0.17 -0.94    -0.776    36.181
ATOM     44  H   UNL d   1       5.928   4.003 -19.182 +0.02 +0.11    +0.167    36.181
ATOM     45  C   UNL d   1      -7.576  -0.624 -16.285 -0.15 -0.00    +0.004    36.181
ATOM     46  C   UNL d   1      -8.888  -0.705 -16.082 -0.32 -0.01    +0.012    36.181
ATOM     47  C   UNL d   1      -0.470  -2.650 -18.832 -0.28 -0.00    +0.004    36.181
ATOM     48  C   UNL d   1       0.703  -2.851 -18.228 -0.36 -0.00    +0.012    36.181
TER
ENDMDL
MODEL       90
USER    Run = 90
USER    Cluster Rank = 12
USER    Number of conformations in this cluster = 2
USER  
USER    RMSD from reference structure       = 53.406 A
USER  
USER    Estimated Free Energy of Binding    =   -5.43 kcal/mol  [=(1)+(2)+(3)-(4)]
USER    Estimated Inhibition Constant, Ki   =  104.29 uM (micromolar)  [Temperature = 298.15 K]
USER    
USER    (1) Final Intermolecular Energy     =   -9.01 kcal/mol
USER        vdW + Hbond + desolv Energy     =   -4.54 kcal/mol
USER        Electrostatic Energy            =   -4.47 kcal/mol
USER    (2) Final Total Internal Energy     =   -2.35 kcal/mol
USER    (3) Torsional Free Energy           =   +3.58 kcal/mol
USER    (4) Unbound System's Energy  [=(2)] =   -2.35 kcal/mol
USER    
USER    
USER  
USER    DPF = D:/Protein_go_brrr/autodock/final/AncA/heme_Co/dock.dpf
USER    NEWDPF move	heme_Co_opt.pdbqt
USER    NEWDPF about	8.781000 34.984000 -0.736000
USER    NEWDPF tran0	-7.832222 -17.932263 -4.006353
USER    NEWDPF axisangle0	0.662871 -0.277493 -0.695413 -154.067188
USER    NEWDPF quaternion0	0.645969 -0.270417 -0.677682 -0.224380
USER    NEWDPF dihe0	126.35 109.52 -105.82 121.11 132.19 154.87 -59.87 137.42 73.88 -111.34 6.56 -21.72 
USER  
USER                              x       y       z    vdW   Elec        q     RMS 
ATOM      1  C   UNL d   1      -6.882 -17.109  -2.236 -0.07 +0.08    +0.064    53.406
ATOM      2  C   UNL d   1     -10.567 -15.642  -4.860 -0.04 +0.03    +0.064    53.406
ATOM      3  C   UNL d   1      -9.809 -19.186  -7.973 -0.14 +0.04    +0.064    53.406
ATOM      4  C   UNL d   1      -6.285 -20.931  -5.109 -0.04 +0.05    +0.064    53.406
ATOM      5  C   UNL d   1      -7.922 -16.426  -2.743 -0.10 +0.07    +0.066    53.406
ATOM      6  C   UNL d   1      -8.500 -15.334  -2.068 -0.11 -0.02    -0.021    53.406
ATOM      7  C   UNL d   1      -9.583 -14.926  -2.822 -0.09 -0.02    -0.025    53.406
ATOM      8  C   UNL d   1      -9.609 -15.776  -3.933 -0.06 +0.04    +0.066    53.406
ATOM      9  C   UNL d   1     -10.564 -13.784  -2.522 -0.19 +0.02    +0.051    53.406
ATOM     10  C   UNL d   1     -10.659 -16.452  -6.048 -0.19 +0.03    +0.066    53.406
ATOM     11  C   UNL d   1     -11.553 -16.271  -7.126 -0.19 -0.01    -0.021    53.406
ATOM     12  C   UNL d   1     -11.308 -17.316  -8.021 -0.20 +0.00    +0.000    53.406
ATOM     13  C   UNL d   1     -10.276 -18.048  -7.432 -0.18 +0.03    +0.070    53.406
ATOM     14  C   UNL d   1     -12.503 -15.116  -7.312 -0.10 +0.00    +0.052    53.406
ATOM     15  C   UNL d   1      -8.790 -20.090  -7.476 -0.11 +0.05    +0.066    53.406
ATOM     16  C   UNL d   1      -8.455 -21.326  -8.010 -0.09 -0.02    -0.021    53.406
ATOM     17  C   UNL d   1      -7.441 -21.835  -7.186 -0.07 +0.00    +0.000    53.406
ATOM     18  C   UNL d   1      -7.225 -20.857  -6.220 -0.07 +0.07    +0.070    53.406
ATOM     19  C   UNL d   1      -9.087 -21.953  -9.233 -0.07 +0.03    +0.052    53.406
ATOM     20  C   UNL d   1      -6.119 -20.033  -4.109 -0.03 +0.05    +0.066    53.406
ATOM     21  C   UNL d   1      -5.207 -20.232  -3.074 -0.01 -0.02    -0.025    53.406
ATOM     22  C   UNL d   1      -5.337 -19.132  -2.246 -0.02 -0.02    -0.021    53.406
ATOM     23  C   UNL d   1      -6.337 -18.315  -2.815 -0.06 +0.07    +0.066    53.406
ATOM     24  C   UNL d   1      -4.273 -21.422  -2.873 +0.00 +0.03    +0.051    53.406
ATOM     25  N   UNL d   1      -8.588 -16.711  -3.913 -0.08 -0.20    -0.248    53.406
ATOM     26  N   UNL d   1      -9.847 -17.492  -6.267 -0.11 -0.13    -0.248    53.406
ATOM     27  N   UNL d   1      -8.067 -19.847  -6.406 -0.07 -0.21    -0.248    53.406
ATOM     28  N   UNL d   1      -6.815 -18.858  -3.941 -0.03 -0.21    -0.248    53.406
ATOM     29 FE   UNL d   1      -8.309 -18.373  -5.232 -0.02 +0.00    +0.000    53.406
ATOM     30  C   UNL d   1      -8.071 -14.769  -0.717 -0.12 +0.05    +0.052    53.406
ATOM     31  C   UNL d   1      -7.029 -13.667  -0.902 -0.19 +0.15    +0.115    53.406
ATOM     32  C   UNL d   1      -5.645 -14.103  -0.473 -0.18 +0.27    +0.139    53.406
ATOM     33  O   UNL d   1      -4.685 -13.390  -0.724 -0.08 -1.26    -0.650    53.406
ATOM     34  O   UNL d   1      -5.437 -15.242   0.228 -0.56 -1.81    -0.776    53.406
ATOM     35  H   UNL d   1      -4.863 -15.963  -0.064 +0.01 +0.33    +0.167    53.406
ATOM     36  C   UNL d   1      -9.698 -19.402  -4.047 -0.01 +0.09    +0.190    53.406
ATOM     37  O   UNL d   1     -10.519 -19.269  -2.922 +0.00 -0.15    -0.399    53.406
ATOM     38  H   UNL d   1     -10.311 -18.363  -2.559 +0.01 +0.09    +0.209    53.406
ATOM     39  C   UNL d   1      -4.584 -18.916  -0.947 -0.02 +0.04    +0.052    53.406
ATOM     40  C   UNL d   1      -3.160 -18.405  -1.223 -0.03 +0.10    +0.115    53.406
ATOM     41  C   UNL d   1      -3.103 -17.054  -1.906 +0.00 +0.22    +0.139    53.406
ATOM     42  O   UNL d   1      -3.195 -16.995  -3.124 -0.35 -1.46    -0.650    53.406
ATOM     43  O   UNL d   1      -3.040 -15.903  -1.200 -0.01 -1.37    -0.776    53.406
ATOM     44  H   UNL d   1      -3.817 -15.353  -1.034 +0.02 +0.37    +0.167    53.406
ATOM     45  C   UNL d   1     -11.913 -17.694  -9.366 -0.20 +0.00    +0.004    53.406
ATOM     46  C   UNL d   1     -11.381 -17.694 -10.586 -0.25 +0.00    +0.012    53.406
ATOM     47  C   UNL d   1      -6.741 -23.153  -7.238 -0.04 +0.00    +0.004    53.406
ATOM     48  C   UNL d   1      -5.459 -23.294  -7.584 -0.05 +0.01    +0.012    53.406
TER
ENDMDL
MODEL       95
USER    Run = 95
USER    Cluster Rank = 13
USER    Number of conformations in this cluster = 1
USER  
USER    RMSD from reference structure       = 53.663 A
USER  
USER    Estimated Free Energy of Binding    =   -5.16 kcal/mol  [=(1)+(2)+(3)-(4)]
USER    Estimated Inhibition Constant, Ki   =  165.87 uM (micromolar)  [Temperature = 298.15 K]
USER    
USER    (1) Final Intermolecular Energy     =   -8.74 kcal/mol
USER        vdW + Hbond + desolv Energy     =   -4.94 kcal/mol
USER        Electrostatic Energy            =   -3.80 kcal/mol
USER    (2) Final Total Internal Energy     =   -2.85 kcal/mol
USER    (3) Torsional Free Energy           =   +3.58 kcal/mol
USER    (4) Unbound System's Energy  [=(2)] =   -2.85 kcal/mol
USER    
USER    
USER  
USER    DPF = D:/Protein_go_brrr/autodock/final/AncA/heme_Co/dock.dpf
USER    NEWDPF move	heme_Co_opt.pdbqt
USER    NEWDPF about	8.781000 34.984000 -0.736000
USER    NEWDPF tran0	-9.836645 -18.055285 -5.010242
USER    NEWDPF axisangle0	-0.371029 -0.920623 -0.121617 155.981803
USER    NEWDPF quaternion0	-0.362908 -0.900475 -0.118955 0.208067
USER    NEWDPF dihe0	-52.25 127.54 123.58 -97.44 -66.93 121.59 35.31 -24.39 -179.79 163.23 179.39 -179.53 
USER  
USER                              x       y       z    vdW   Elec        q     RMS 
ATOM      1  C   UNL d   1      -8.669 -19.116  -3.518 -0.02 +0.04    +0.064    53.663
ATOM      2  C   UNL d   1      -9.372 -19.879  -8.158 -0.14 +0.05    +0.064    53.663
ATOM      3  C   UNL d   1     -12.516 -16.284  -8.311 -0.03 +0.01    +0.064    53.663
ATOM      4  C   UNL d   1     -11.528 -15.239  -3.664 -0.09 +0.02    +0.064    53.663
ATOM      5  C   UNL d   1      -8.658 -19.612  -4.766 -0.03 +0.04    +0.066    53.663
ATOM      6  C   UNL d   1      -7.790 -20.653  -5.149 -0.03 -0.01    -0.021    53.663
ATOM      7  C   UNL d   1      -7.982 -20.855  -6.501 -0.08 -0.02    -0.025    53.663
ATOM      8  C   UNL d   1      -8.969 -19.940  -6.883 -0.09 +0.05    +0.066    53.663
ATOM      9  C   UNL d   1      -7.270 -21.865  -7.414 -0.06 +0.05    +0.051    53.663
ATOM     10  C   UNL d   1     -10.400 -18.989  -8.638 -0.15 +0.03    +0.066    53.663
ATOM     11  C   UNL d   1     -10.966 -18.973  -9.931 -0.15 -0.01    -0.021    53.663
ATOM     12  C   UNL d   1     -11.883 -17.918  -9.947 -0.18 +0.00    +0.000    53.663
ATOM     13  C   UNL d   1     -11.818 -17.378  -8.662 -0.14 +0.02    +0.070    53.663
ATOM     14  C   UNL d   1     -10.704 -19.969 -11.032 -0.10 +0.02    +0.052    53.663
ATOM     15  C   UNL d   1     -12.529 -15.566  -7.052 -0.16 +0.01    +0.066    53.663
ATOM     16  C   UNL d   1     -13.163 -14.358  -6.800 -0.21 -0.00    -0.021    53.663
ATOM     17  C   UNL d   1     -12.879 -14.051  -5.461 -0.18 +0.00    +0.000    53.663
ATOM     18  C   UNL d   1     -12.105 -15.109  -4.996 -0.11 +0.02    +0.070    53.663
ATOM     19  C   UNL d   1     -13.981 -13.571  -7.800 -0.23 +0.00    +0.052    53.663
ATOM     20  C   UNL d   1     -10.702 -16.214  -3.215 -0.06 +0.03    +0.066    53.663
ATOM     21  C   UNL d   1     -10.182 -16.212  -1.923 -0.05 -0.01    -0.025    53.663
ATOM     22  C   UNL d   1      -9.377 -17.334  -1.843 -0.02 -0.01    -0.021    53.663
ATOM     23  C   UNL d   1      -9.437 -17.963  -3.104 -0.03 +0.04    +0.066    53.663
ATOM     24  C   UNL d   1     -10.423 -15.181  -0.824 -0.11 +0.02    +0.051    53.663
ATOM     25  N   UNL d   1      -9.411 -19.161  -5.826 -0.03 -0.14    -0.248    53.663
ATOM     26  N   UNL d   1     -10.963 -18.062  -7.856 -0.11 -0.10    -0.248    53.663
ATOM     27  N   UNL d   1     -11.891 -15.977  -5.979 -0.09 -0.07    -0.248    53.663
ATOM     28  N   UNL d   1     -10.236 -17.288  -3.939 -0.03 -0.12    -0.248    53.663
ATOM     29 FE   UNL d   1     -10.724 -17.474  -5.903 -0.02 +0.00    +0.000    53.663
ATOM     30  C   UNL d   1      -6.768 -21.357  -4.262 -0.01 +0.03    +0.052    53.663
ATOM     31  C   UNL d   1      -5.382 -20.739  -4.444 -0.02 +0.09    +0.115    53.663
ATOM     32  C   UNL d   1      -5.376 -19.629  -5.473 -0.11 +0.16    +0.139    53.663
ATOM     33  O   UNL d   1      -5.080 -19.885  -6.630 +0.00 -1.23    -0.650    53.663
ATOM     34  O   UNL d   1      -5.736 -18.361  -5.164 +0.01 -0.94    -0.776    53.663
ATOM     35  H   UNL d   1      -6.588 -18.117  -4.778 +0.03 +0.18    +0.167    53.663
ATOM     36  C   UNL d   1      -9.050 -16.338  -6.452 -0.22 +0.13    +0.190    53.663
ATOM     37  O   UNL d   1      -7.669 -16.225  -6.262 -0.22 -0.40    -0.399    53.663
ATOM     38  H   UNL d   1      -7.397 -17.089  -5.842 +0.06 +0.22    +0.209    53.663
ATOM     39  C   UNL d   1      -8.547 -17.736  -0.638 -0.00 +0.03    +0.052    53.663
ATOM     40  C   UNL d   1      -7.262 -16.895  -0.558 -0.04 +0.12    +0.115    53.663
ATOM     41  C   UNL d   1      -6.833 -16.284  -1.876 -0.01 +0.22    +0.139    53.663
ATOM     42  O   UNL d   1      -6.857 -15.069  -2.008 -0.45 -1.33    -0.650    53.663
ATOM     43  O   UNL d   1      -6.340 -17.040  -2.882 -0.09 -1.29    -0.776    53.663
ATOM     44  H   UNL d   1      -6.671 -16.979  -3.787 +0.03 +0.25    +0.167    53.663
ATOM     45  C   UNL d   1     -12.821 -17.373 -11.016 -0.19 +0.00    +0.004    53.663
ATOM     46  C   UNL d   1     -12.745 -16.268 -11.752 -0.33 +0.01    +0.012    53.663
ATOM     47  C   UNL d   1     -13.243 -12.844  -4.661 -0.25 +0.00    +0.004    53.663
ATOM     48  C   UNL d   1     -12.492 -11.741  -4.606 -0.38 +0.00    +0.012    53.663
TER
ENDMDL
MODEL       47
USER    Run = 47
USER    Cluster Rank = 14
USER    Number of conformations in this cluster = 3
USER  
USER    RMSD from reference structure       = 38.961 A
USER  
USER    Estimated Free Energy of Binding    =   -5.01 kcal/mol  [=(1)+(2)+(3)-(4)]
USER    Estimated Inhibition Constant, Ki   =  211.07 uM (micromolar)  [Temperature = 298.15 K]
USER    
USER    (1) Final Intermolecular Energy     =   -8.59 kcal/mol
USER        vdW + Hbond + desolv Energy     =   -7.78 kcal/mol
USER        Electrostatic Energy            =   -0.82 kcal/mol
USER    (2) Final Total Internal Energy     =   -2.34 kcal/mol
USER    (3) Torsional Free Energy           =   +3.58 kcal/mol
USER    (4) Unbound System's Energy  [=(2)] =   -2.34 kcal/mol
USER    
USER    
USER  
USER    DPF = D:/Protein_go_brrr/autodock/final/AncA/heme_Co/dock.dpf
USER    NEWDPF move	heme_Co_opt.pdbqt
USER    NEWDPF about	8.781000 34.984000 -0.736000
USER    NEWDPF tran0	-4.863806 -0.116397 -16.312421
USER    NEWDPF axisangle0	-0.471615 0.877300 -0.089019 -123.792564
USER    NEWDPF quaternion0	-0.416010 0.773863 -0.078524 -0.471069
USER    NEWDPF dihe0	-37.38 98.38 173.18 -114.10 98.39 120.52 -88.74 -52.89 -15.52 86.12 168.65 164.13 
USER  
USER                              x       y       z    vdW   Elec        q     RMS 
ATOM      1  C   UNL d   1      -5.417   1.363 -14.822 -0.21 -0.00    +0.064    38.961
ATOM      2  C   UNL d   1      -1.198  -0.237 -16.323 -0.28 +0.00    +0.064    38.961
ATOM      3  C   UNL d   1      -3.368  -3.465 -19.099 -0.27 -0.01    +0.064    38.961
ATOM      4  C   UNL d   1      -7.688  -1.593 -17.876 -0.14 -0.01    +0.064    38.961
ATOM      5  C   UNL d   1      -4.105   1.139 -15.001 -0.18 -0.00    +0.066    38.961
ATOM      6  C   UNL d   1      -3.120   1.945 -14.398 -0.18 +0.00    -0.021    38.961
ATOM      7  C   UNL d   1      -1.898   1.491 -14.855 -0.24 +0.00    -0.025    38.961
ATOM      8  C   UNL d   1      -2.189   0.417 -15.703 -0.21 -0.00    +0.066    38.961
ATOM      9  C   UNL d   1      -0.503   2.037 -14.516 -0.16 -0.00    +0.051    38.961
ATOM     10  C   UNL d   1      -1.399  -1.370 -17.192 -0.17 +0.00    +0.066    38.961
ATOM     11  C   UNL d   1      -0.396  -2.186 -17.760 -0.33 +0.00    -0.021    38.961
ATOM     12  C   UNL d   1      -1.057  -3.121 -18.562 -0.26 -0.00    +0.000    38.961
ATOM     13  C   UNL d   1      -2.410  -2.816 -18.414 -0.24 -0.01    +0.070    38.961
ATOM     14  C   UNL d   1       1.081  -2.118 -17.467 -0.34 -0.01    +0.052    38.961
ATOM     15  C   UNL d   1      -4.801  -3.247 -19.107 -0.22 -0.01    +0.066    38.961
ATOM     16  C   UNL d   1      -5.722  -3.857 -19.948 -0.23 +0.01    -0.021    38.961
ATOM     17  C   UNL d   1      -6.969  -3.318 -19.600 -0.18 -0.00    +0.000    38.961
ATOM     18  C   UNL d   1      -6.712  -2.432 -18.560 -0.15 -0.01    +0.070    38.961
ATOM     19  C   UNL d   1      -5.395  -4.885 -21.007 -0.20 -0.03    +0.052    38.961
ATOM     20  C   UNL d   1      -7.450  -0.662 -16.921 -0.17 -0.01    +0.066    38.961
ATOM     21  C   UNL d   1      -8.469   0.108 -16.364 -0.23 +0.01    -0.025    38.961
ATOM     22  C   UNL d   1      -7.847   0.950 -15.459 -0.28 +0.01    -0.021    38.961
ATOM     23  C   UNL d   1      -6.468   0.657 -15.519 -0.14 -0.01    +0.066    38.961
ATOM     24  C   UNL d   1      -9.959   0.060 -16.691 -0.19 -0.03    +0.051    38.961
ATOM     25  N   UNL d   1      -3.548   0.172 -15.807 -0.12 +0.01    -0.248    38.961
ATOM     26  N   UNL d   1      -2.618  -1.793 -17.542 -0.14 +0.01    -0.248    38.961
ATOM     27  N   UNL d   1      -5.407  -2.392 -18.313 -0.12 +0.03    -0.248    38.961
ATOM     28  N   UNL d   1      -6.223  -0.316 -16.404 -0.08 +0.02    -0.248    38.961
ATOM     29 FE   UNL d   1      -4.536  -1.185 -17.133 -0.05 -0.00    +0.000    38.961
ATOM     30  C   UNL d   1      -3.359   3.148 -13.491 -0.17 +0.00    +0.052    38.961
ATOM     31  C   UNL d   1      -3.036   4.448 -14.227 -0.06 +0.02    +0.115    38.961
ATOM     32  C   UNL d   1      -3.639   5.660 -13.550 -0.10 +0.04    +0.139    38.961
ATOM     33  O   UNL d   1      -3.004   6.703 -13.507 -0.03 -0.30    -0.650    38.961
ATOM     34  O   UNL d   1      -4.887   5.643 -13.028 +0.04 -0.32    -0.776    38.961
ATOM     35  H   UNL d   1      -5.650   5.228 -13.454 +0.05 +0.05    +0.167    38.961
ATOM     36  C   UNL d   1      -4.373   0.305 -18.599 -0.03 -0.01    +0.190    38.961
ATOM     37  O   UNL d   1      -4.388   1.691 -18.785 +0.00 +0.00    -0.399    38.961
ATOM     38  H   UNL d   1      -4.767   2.060 -17.939 +0.02 -0.00    +0.209    38.961
ATOM     39  C   UNL d   1      -8.539   2.019 -14.634 -0.26 -0.01    +0.052    38.961
ATOM     40  C   UNL d   1      -8.463   3.383 -15.339 -0.16 -0.01    +0.115    38.961
ATOM     41  C   UNL d   1      -7.375   4.297 -14.816 -0.14 +0.01    +0.139    38.961
ATOM     42  O   UNL d   1      -6.240   4.191 -15.260 +0.04 -0.05    -0.650    38.961
ATOM     43  O   UNL d   1      -7.641   5.286 -13.935 -0.50 -0.23    -0.776    38.961
ATOM     44  H   UNL d   1      -6.955   5.872 -13.589 +0.04 +0.06    +0.167    38.961
ATOM     45  C   UNL d   1      -0.570  -4.273 -19.430 -0.28 -0.00    +0.004    38.961
ATOM     46  C   UNL d   1      -0.746  -4.515 -20.726 -0.21 -0.00    +0.012    38.961
ATOM     47  C   UNL d   1      -8.312  -3.554 -20.209 -0.14 -0.00    +0.004    38.961
ATOM     48  C   UNL d   1      -9.038  -4.653 -19.990 -0.19 -0.01    +0.012    38.961
TER
ENDMDL
MODEL       26
USER    Run = 26
USER    Cluster Rank = 15
USER    Number of conformations in this cluster = 1
USER  
USER    RMSD from reference structure       = 43.725 A
USER  
USER    Estimated Free Energy of Binding    =   -4.72 kcal/mol  [=(1)+(2)+(3)-(4)]
USER    Estimated Inhibition Constant, Ki   =  348.26 uM (micromolar)  [Temperature = 298.15 K]
USER    
USER    (1) Final Intermolecular Energy     =   -8.30 kcal/mol
USER        vdW + Hbond + desolv Energy     =   -5.47 kcal/mol
USER        Electrostatic Energy            =   -2.82 kcal/mol
USER    (2) Final Total Internal Energy     =   -1.87 kcal/mol
USER    (3) Torsional Free Energy           =   +3.58 kcal/mol
USER    (4) Unbound System's Energy  [=(2)] =   -1.87 kcal/mol
USER    
USER    
USER  
USER    DPF = D:/Protein_go_brrr/autodock/final/AncA/heme_Co/dock.dpf
USER    NEWDPF move	heme_Co_opt.pdbqt
USER    NEWDPF about	8.781000 34.984000 -0.736000
USER    NEWDPF tran0	-21.189772 -1.018498 3.550060
USER    NEWDPF axisangle0	-0.780225 0.578401 0.238121 144.119985
USER    NEWDPF quaternion0	-0.742290 0.550279 0.226543 0.308021
USER    NEWDPF dihe0	38.38 111.46 -138.23 -84.28 -73.42 152.96 179.95 141.09 -175.44 -112.41 -5.17 -6.39 
USER  
USER                              x       y       z    vdW   Elec        q     RMS 
ATOM      1  C   UNL d   1     -21.518   0.907   4.499 +0.03 +0.07    +0.064    43.725
ATOM      2  C   UNL d   1     -21.871  -0.530  -0.020 -0.17 +0.02    +0.064    43.725
ATOM      3  C   UNL d   1     -20.191  -4.839   1.179 -0.26 +0.01    +0.064    43.725
ATOM      4  C   UNL d   1     -20.186  -3.519   5.861 -0.13 +0.01    +0.064    43.725
ATOM      5  C   UNL d   1     -21.704   0.842   3.170 -0.07 +0.07    +0.066    43.725
ATOM      6  C   UNL d   1     -22.265   1.909   2.441 -0.10 -0.01    -0.021    43.725
ATOM      7  C   UNL d   1     -22.387   1.479   1.135 -0.11 -0.01    -0.025    43.725
ATOM      8  C   UNL d   1     -21.879   0.175   1.119 -0.14 +0.04    +0.066    43.725
ATOM      9  C   UNL d   1     -22.957   2.253  -0.064 -0.08 +0.01    +0.051    43.725
ATOM     10  C   UNL d   1     -21.346  -1.867  -0.139 -0.18 +0.02    +0.066    43.725
ATOM     11  C   UNL d   1     -21.180  -2.606  -1.330 -0.24 -0.01    -0.021    43.725
ATOM     12  C   UNL d   1     -20.685  -3.857  -0.952 -0.29 +0.00    +0.000    43.725
ATOM     13  C   UNL d   1     -20.574  -3.784   0.437 -0.21 +0.02    +0.070    43.725
ATOM     14  C   UNL d   1     -21.396  -2.097  -2.732 -0.20 +0.01    +0.052    43.725
ATOM     15  C   UNL d   1     -20.073  -4.955   2.619 -0.22 +0.01    +0.066    43.725
ATOM     16  C   UNL d   1     -19.812  -6.117   3.332 -0.30 -0.00    -0.021    43.725
ATOM     17  C   UNL d   1     -19.812  -5.742   4.683 -0.27 +0.00    +0.000    43.725
ATOM     18  C   UNL d   1     -20.057  -4.373   4.687 -0.16 +0.01    +0.070    43.725
ATOM     19  C   UNL d   1     -19.584  -7.484   2.728 -0.02 -0.00    +0.052    43.725
ATOM     20  C   UNL d   1     -20.509  -2.204   5.893 -0.10 +0.03    +0.066    43.725
ATOM     21  C   UNL d   1     -20.639  -1.499   7.088 -0.05 -0.01    -0.025    43.725
ATOM     22  C   UNL d   1     -20.994  -0.213   6.725 -0.05 -0.01    -0.021    43.725
ATOM     23  C   UNL d   1     -21.076  -0.200   5.316 -0.07 +0.06    +0.066    43.725
ATOM     24  C   UNL d   1     -20.454  -2.030   8.507 -0.05 +0.01    +0.051    43.725
ATOM     25  N   UNL d   1     -21.444  -0.243   2.365 -0.08 -0.25    -0.248    43.725
ATOM     26  N   UNL d   1     -20.920  -2.562   0.922 -0.11 -0.10    -0.248    43.725
ATOM     27  N   UNL d   1     -20.237  -3.944   3.442 -0.11 -0.08    -0.248    43.725
ATOM     28  N   UNL d   1     -20.785  -1.404   4.809 -0.09 -0.21    -0.248    43.725
ATOM     29 FE   UNL d   1     -20.804  -2.202   2.939 -0.04 +0.00    +0.000    43.725
ATOM     30  C   UNL d   1     -22.736   3.247   3.003 -0.05 +0.02    +0.052    43.725
ATOM     31  C   UNL d   1     -21.547   4.176   3.245 -0.09 +0.06    +0.115    43.725
ATOM     32  C   UNL d   1     -20.235   3.560   2.809 -0.16 +0.15    +0.139    43.725
ATOM     33  O   UNL d   1     -20.141   3.076   1.691 -0.08 -0.74    -0.650    43.725
ATOM     34  O   UNL d   1     -19.138   3.570   3.602 -0.11 -1.16    -0.776    43.725
ATOM     35  H   UNL d   1     -19.164   3.500   4.566 +0.04 +0.23    +0.167    43.725
ATOM     36  C   UNL d   1     -22.834  -2.684   3.140 -0.03 +0.05    +0.190    43.725
ATOM     37  O   UNL d   1     -24.122  -2.147   3.041 +0.00 -0.09    -0.399    43.725
ATOM     38  H   UNL d   1     -23.982  -1.187   2.808 +0.01 +0.05    +0.209    43.725
ATOM     39  C   UNL d   1     -21.301   0.919   7.687 -0.01 +0.02    +0.052    43.725
ATOM     40  C   UNL d   1     -20.052   1.784   7.924 -0.02 +0.04    +0.115    43.725
ATOM     41  C   UNL d   1     -19.519   2.467   6.682 -0.09 +0.10    +0.139    43.725
ATOM     42  O   UNL d   1     -18.821   1.833   5.904 +0.01 -1.00    -0.650    43.725
ATOM     43  O   UNL d   1     -19.866   3.734   6.365 +0.03 -0.41    -0.776    43.725
ATOM     44  H   UNL d   1     -20.162   3.985   5.480 +0.03 +0.10    +0.167    43.725
ATOM     45  C   UNL d   1     -20.289  -5.098  -1.740 -0.33 +0.00    +0.004    43.725
ATOM     46  C   UNL d   1     -20.995  -6.177  -2.068 -0.30 +0.00    +0.012    43.725
ATOM     47  C   UNL d   1     -19.650  -6.583   5.907 -0.30 -0.00    +0.004    43.725
ATOM     48  C   UNL d   1     -20.677  -7.072   6.606 -0.15 -0.00    +0.012    43.725
TER
ENDMDL
MODEL       52
USER    Run = 52
USER    Cluster Rank = 16
USER    Number of conformations in this cluster = 2
USER  
USER    RMSD from reference structure       = 31.559 A
USER  
USER    Estimated Free Energy of Binding    =   -4.36 kcal/mol  [=(1)+(2)+(3)-(4)]
USER    Estimated Inhibition Constant, Ki   =  635.33 uM (micromolar)  [Temperature = 298.15 K]
USER    
USER    (1) Final Intermolecular Energy     =   -7.94 kcal/mol
USER        vdW + Hbond + desolv Energy     =   -5.19 kcal/mol
USER        Electrostatic Energy            =   -2.75 kcal/mol
USER    (2) Final Total Internal Energy     =   -2.27 kcal/mol
USER    (3) Torsional Free Energy           =   +3.58 kcal/mol
USER    (4) Unbound System's Energy  [=(2)] =   -2.27 kcal/mol
USER    
USER    
USER  
USER    DPF = D:/Protein_go_brrr/autodock/final/AncA/heme_Co/dock.dpf
USER    NEWDPF move	heme_Co_opt.pdbqt
USER    NEWDPF about	8.781000 34.984000 -0.736000
USER    NEWDPF tran0	8.788611 7.434818 -17.170391
USER    NEWDPF axisangle0	-0.974584 -0.217451 -0.053868 -74.573767
USER    NEWDPF quaternion0	-0.590409 -0.131733 -0.032634 -0.795612
USER    NEWDPF dihe0	38.91 105.79 -146.97 131.33 147.43 156.67 -168.46 146.26 -171.72 -115.54 -4.47 -9.00 
USER  
USER                              x       y       z    vdW   Elec        q     RMS 
ATOM      1  C   UNL d   1       7.174   6.578 -18.343 -0.10 +0.05    +0.064    31.559
ATOM      2  C   UNL d   1       7.196   9.450 -14.553 -0.11 +0.03    +0.064    31.559
ATOM      3  C   UNL d   1      11.949   9.076 -14.249 -0.17 +0.01    +0.064    31.559
ATOM      4  C   UNL d   1      11.991   6.454 -18.347 -0.09 +0.02    +0.064    31.559
ATOM      5  C   UNL d   1       6.827   7.361 -17.308 -0.12 +0.05    +0.066    31.559
ATOM      6  C   UNL d   1       5.496   7.770 -17.093 -0.10 -0.01    -0.021    31.559
ATOM      7  C   UNL d   1       5.512   8.622 -16.006 -0.12 -0.01    -0.025    31.559
ATOM      8  C   UNL d   1       6.848   8.683 -15.594 -0.14 +0.04    +0.066    31.559
ATOM      9  C   UNL d   1       4.324   9.358 -15.368 -0.08 +0.01    +0.051    31.559
ATOM     10  C   UNL d   1       8.539   9.555 -14.041 -0.13 +0.03    +0.066    31.559
ATOM     11  C   UNL d   1       8.945  10.231 -12.870 -0.22 -0.01    -0.021    31.559
ATOM     12  C   UNL d   1      10.336  10.102 -12.804 -0.24 +0.00    +0.000    31.559
ATOM     13  C   UNL d   1      10.672   9.349 -13.929 -0.22 +0.02    +0.070    31.559
ATOM     14  C   UNL d   1       8.039  10.866 -11.847 -0.17 +0.02    +0.052    31.559
ATOM     15  C   UNL d   1      12.477   8.361 -15.395 -0.19 +0.02    +0.066    31.559
ATOM     16  C   UNL d   1      13.814   8.238 -15.744 -0.15 -0.00    -0.021    31.559
ATOM     17  C   UNL d   1      13.832   7.485 -16.926 -0.09 +0.00    +0.000    31.559
ATOM     18  C   UNL d   1      12.499   7.192 -17.197 -0.08 +0.02    +0.070    31.559
ATOM     19  C   UNL d   1      14.979   8.818 -14.972 -0.14 +0.01    +0.052    31.559
ATOM     20  C   UNL d   1      10.697   6.232 -18.677 -0.12 +0.03    +0.066    31.559
ATOM     21  C   UNL d   1      10.332   5.538 -19.829 -0.06 -0.01    -0.025    31.559
ATOM     22  C   UNL d   1       8.949   5.533 -19.839 -0.05 -0.01    -0.021    31.559
ATOM     23  C   UNL d   1       8.535   6.240 -18.690 -0.10 +0.05    +0.066    31.559
ATOM     24  C   UNL d   1      11.255   4.927 -20.880 -0.03 +0.01    +0.051    31.559
ATOM     25  N   UNL d   1       7.684   7.907 -16.379 -0.13 -0.20    -0.248    31.559
ATOM     26  N   UNL d   1       9.580   8.972 -14.645 -0.16 -0.12    -0.248    31.559
ATOM     27  N   UNL d   1      11.719   7.755 -16.282 -0.17 -0.11    -0.248    31.559
ATOM     28  N   UNL d   1       9.590   6.667 -17.985 -0.12 -0.19    -0.248    31.559
ATOM     29 FE   UNL d   1       9.821   7.824 -16.330 -0.04 +0.00    +0.000    31.559
ATOM     30  C   UNL d   1       4.287   7.417 -17.952 -0.04 +0.02    +0.052    31.559
ATOM     31  C   UNL d   1       3.783   6.013 -17.619 -0.05 +0.05    +0.115    31.559
ATOM     32  C   UNL d   1       4.505   5.406 -16.435 -0.14 +0.12    +0.139    31.559
ATOM     33  O   UNL d   1       4.426   5.947 -15.342 -0.08 -0.48    -0.650    31.559
ATOM     34  O   UNL d   1       5.201   4.250 -16.534 -0.40 -1.32    -0.776    31.559
ATOM     35  H   UNL d   1       5.698   3.980 -17.319 +0.04 +0.31    +0.167    31.559
ATOM     36  C   UNL d   1       9.802   9.557 -17.510 -0.03 +0.06    +0.190    31.559
ATOM     37  O   UNL d   1       8.948  10.488 -18.109 +0.00 -0.09    -0.399    31.559
ATOM     38  H   UNL d   1       8.031  10.122 -17.969 +0.02 +0.05    +0.209    31.559
ATOM     39  C   UNL d   1       8.079   4.937 -20.931 -0.01 +0.02    +0.052    31.559
ATOM     40  C   UNL d   1       7.715   3.480 -20.599 -0.02 +0.05    +0.115    31.559
ATOM     41  C   UNL d   1       6.973   3.304 -19.291 -0.06 +0.10    +0.139    31.559
ATOM     42  O   UNL d   1       7.590   3.384 -18.238 -0.00 -1.10    -0.650    31.559
ATOM     43  O   UNL d   1       5.631   3.148 -19.250 +0.02 -0.42    -0.776    31.559
ATOM     44  H   UNL d   1       5.081   3.560 -18.571 +0.02 +0.11    +0.167    31.559
ATOM     45  C   UNL d   1      11.376  10.585 -11.802 -0.25 +0.00    +0.004    31.559
ATOM     46  C   UNL d   1      12.276   9.907 -11.094 -0.36 +0.01    +0.012    31.559
ATOM     47  C   UNL d   1      14.984   7.094 -17.791 -0.11 +0.00    +0.004    31.559
ATOM     48  C   UNL d   1      15.250   5.832 -18.140 -0.10 +0.00    +0.012    31.559
TER
ENDMDL
MODEL       68
USER    Run = 68
USER    Cluster Rank = 17
USER    Number of conformations in this cluster = 1
USER  
USER    RMSD from reference structure       = 30.803 A
USER  
USER    Estimated Free Energy of Binding    =   -4.29 kcal/mol  [=(1)+(2)+(3)-(4)]
USER    Estimated Inhibition Constant, Ki   =  719.83 uM (micromolar)  [Temperature = 298.15 K]
USER    
USER    (1) Final Intermolecular Energy     =   -7.87 kcal/mol
USER        vdW + Hbond + desolv Energy     =   -6.21 kcal/mol
USER        Electrostatic Energy            =   -1.66 kcal/mol
USER    (2) Final Total Internal Energy     =   -2.23 kcal/mol
USER    (3) Torsional Free Energy           =   +3.58 kcal/mol
USER    (4) Unbound System's Energy  [=(2)] =   -2.23 kcal/mol
USER    
USER    
USER  
USER    DPF = D:/Protein_go_brrr/autodock/final/AncA/heme_Co/dock.dpf
USER    NEWDPF move	heme_Co_opt.pdbqt
USER    NEWDPF about	8.781000 34.984000 -0.736000
USER    NEWDPF tran0	-12.502328 8.840125 -6.275367
USER    NEWDPF axisangle0	0.483008 0.855181 -0.188068 94.624463
USER    NEWDPF quaternion0	0.355039 0.628609 -0.138241 0.678003
USER    NEWDPF dihe0	-174.89 121.11 36.32 113.79 137.75 131.70 33.13 130.48 180.00 -50.47 -171.05 -164.24 
USER  
USER                              x       y       z    vdW   Elec        q     RMS 
ATOM      1  C   UNL d   1     -11.897   7.706  -8.026 -0.18 +0.01    +0.064    30.803
ATOM      2  C   UNL d   1     -15.920   7.766  -5.492 -0.25 -0.00    +0.064    30.803
ATOM      3  C   UNL d   1     -13.942  10.776  -2.352 -0.18 -0.00    +0.064    30.803
ATOM      4  C   UNL d   1      -9.957  11.034  -5.130 -0.03 -0.02    +0.064    30.803
ATOM      5  C   UNL d   1     -13.129   7.473  -7.544 -0.25 +0.01    +0.066    30.803
ATOM      6  C   UNL d   1     -14.064   6.678  -8.236 -0.24 -0.00    -0.021    30.803
ATOM      7  C   UNL d   1     -15.236   6.717  -7.508 -0.19 -0.00    -0.025    30.803
ATOM      8  C   UNL d   1     -14.963   7.520  -6.395 -0.22 +0.00    +0.066    30.803
ATOM      9  C   UNL d   1     -16.572   6.031  -7.834 -0.16 +0.00    +0.051    30.803
ATOM     10  C   UNL d   1     -15.724   8.558  -4.303 -0.22 -0.00    +0.066    30.803
ATOM     11  C   UNL d   1     -16.644   8.737  -3.247 -0.20 +0.00    -0.021    30.803
ATOM     12  C   UNL d   1     -16.040   9.615  -2.344 -0.13 -0.00    +0.000    30.803
ATOM     13  C   UNL d   1     -14.796   9.897  -2.907 -0.18 -0.01    +0.070    30.803
ATOM     14  C   UNL d   1     -17.966   8.030  -3.086 -0.20 +0.00    +0.052    30.803
ATOM     15  C   UNL d   1     -12.646  11.222  -2.823 -0.16 -0.00    +0.066    30.803
ATOM     16  C   UNL d   1     -11.879  12.242  -2.278 -0.10 +0.00    -0.021    30.803
ATOM     17  C   UNL d   1     -10.729  12.322  -3.077 -0.10 -0.00    +0.000    30.803
ATOM     18  C   UNL d   1     -10.879  11.329  -4.040 -0.13 -0.01    +0.070    30.803
ATOM     19  C   UNL d   1     -12.252  13.069  -1.068 -0.05 +0.00    +0.052    30.803
ATOM     20  C   UNL d   1     -10.122  10.133  -6.128 -0.15 -0.02    +0.066    30.803
ATOM     21  C   UNL d   1      -9.180   9.965  -7.140 -0.18 +0.00    -0.025    30.803
ATOM     22  C   UNL d   1      -9.699   8.991  -7.974 -0.20 +0.00    -0.021    30.803
ATOM     23  C   UNL d   1     -10.947   8.619  -7.431 -0.21 -0.00    +0.066    30.803
ATOM     24  C   UNL d   1      -7.860  10.709  -7.317 -0.15 -0.01    +0.051    30.803
ATOM     25  N   UNL d   1     -13.663   7.997  -6.389 -0.13 -0.01    -0.248    30.803
ATOM     26  N   UNL d   1     -14.583   9.213  -4.063 -0.15 +0.02    -0.248    30.803
ATOM     27  N   UNL d   1     -12.046  10.715  -3.876 -0.11 +0.03    -0.248    30.803
ATOM     28  N   UNL d   1     -11.208   9.310  -6.315 -0.06 +0.03    -0.248    30.803
ATOM     29 FE   UNL d   1     -12.803   9.436  -5.060 -0.05 -0.00    +0.000    30.803
ATOM     30  C   UNL d   1     -13.851   5.985  -9.578 -0.17 +0.00    +0.052    30.803
ATOM     31  C   UNL d   1     -14.187   6.931 -10.730 -0.09 +0.00    +0.115    30.803
ATOM     32  C   UNL d   1     -14.680   8.277 -10.247 -0.03 +0.01    +0.139    30.803
ATOM     33  O   UNL d   1     -15.882   8.487 -10.175 +0.02 -0.02    -0.650    30.803
ATOM     34  O   UNL d   1     -13.830   9.250  -9.842 +0.04 -0.03    -0.776    30.803
ATOM     35  H   UNL d   1     -14.111  10.116  -9.515 +0.01 +0.01    +0.167    30.803
ATOM     36  C   UNL d   1     -13.671  10.909  -6.274 -0.05 -0.00    +0.190    30.803
ATOM     37  O   UNL d   1     -14.153  11.147  -7.565 +0.00 -0.01    -0.399    30.803
ATOM     38  H   UNL d   1     -14.143  10.254  -8.011 +0.02 +0.01    +0.209    30.803
ATOM     39  C   UNL d   1      -9.056   8.497  -9.256 -0.24 +0.01    +0.052    30.803
ATOM     40  C   UNL d   1      -8.948   9.636 -10.283 -0.11 +0.04    +0.115    30.803
ATOM     41  C   UNL d   1      -7.543   9.889 -10.790 +0.01 +0.14    +0.139    30.803
ATOM     42  O   UNL d   1      -6.838  10.706 -10.215 -0.15 -0.79    -0.650    30.803
ATOM     43  O   UNL d   1      -7.016   9.174 -11.808 -0.41 -1.13    -0.776    30.803
ATOM     44  H   UNL d   1      -7.518   8.955 -12.604 +0.02 +0.11    +0.167    30.803
ATOM     45  C   UNL d   1     -16.486  10.203  -1.012 -0.17 -0.00    +0.004    30.803
ATOM     46  C   UNL d   1     -16.110   9.915   0.231 -0.24 -0.00    +0.012    30.803
ATOM     47  C   UNL d   1      -9.582  13.275  -3.006 -0.04 -0.00    +0.004    30.803
ATOM     48  C   UNL d   1      -8.329  12.902  -2.734 -0.06 -0.00    +0.012    30.803
TER
ENDMDL
MODEL       48
USER    Run = 48
USER    Cluster Rank = 18
USER    Number of conformations in this cluster = 1
USER  
USER    RMSD from reference structure       = 38.834 A
USER  
USER    Estimated Free Energy of Binding    =   -4.16 kcal/mol  [=(1)+(2)+(3)-(4)]
USER    Estimated Inhibition Constant, Ki   =  888.09 uM (micromolar)  [Temperature = 298.15 K]
USER    
USER    (1) Final Intermolecular Energy     =   -7.74 kcal/mol
USER        vdW + Hbond + desolv Energy     =   -5.92 kcal/mol
USER        Electrostatic Energy            =   -1.82 kcal/mol
USER    (2) Final Total Internal Energy     =   -2.18 kcal/mol
USER    (3) Torsional Free Energy           =   +3.58 kcal/mol
USER    (4) Unbound System's Energy  [=(2)] =   -2.18 kcal/mol
USER    
USER    
USER  
USER    DPF = D:/Protein_go_brrr/autodock/final/AncA/heme_Co/dock.dpf
USER    NEWDPF move	heme_Co_opt.pdbqt
USER    NEWDPF about	8.781000 34.984000 -0.736000
USER    NEWDPF tran0	-20.786336 4.433456 -2.078619
USER    NEWDPF axisangle0	-0.801252 0.158800 0.576868 -97.913909
USER    NEWDPF quaternion0	-0.604318 0.119770 0.435084 -0.656626
USER    NEWDPF dihe0	-12.31 108.53 77.60 115.47 75.60 161.65 180.00 -80.33 -144.66 -90.27 -30.28 -12.68 
USER  
USER                              x       y       z    vdW   Elec        q     RMS 
ATOM      1  C   UNL d   1     -21.977   2.790  -1.306 -0.10 +0.02    +0.064    38.834
ATOM      2  C   UNL d   1     -20.703   6.971   0.568 -0.09 +0.01    +0.064    38.834
ATOM      3  C   UNL d   1     -17.990   7.899  -3.254 -0.18 +0.00    +0.064    38.834
ATOM      4  C   UNL d   1     -19.580   3.812  -5.359 -0.21 +0.01    +0.064    38.834
ATOM      5  C   UNL d   1     -21.800   3.848  -0.497 -0.08 +0.02    +0.066    38.834
ATOM      6  C   UNL d   1     -22.498   3.985   0.719 -0.08 -0.01    -0.021    38.834
ATOM      7  C   UNL d   1     -22.142   5.210   1.247 -0.07 -0.01    -0.025    38.834
ATOM      8  C   UNL d   1     -21.230   5.761   0.340 -0.05 +0.02    +0.066    38.834
ATOM      9  C   UNL d   1     -22.633   5.852   2.554 -0.03 +0.01    +0.051    38.834
ATOM     10  C   UNL d   1     -19.738   7.606  -0.294 -0.08 +0.01    +0.066    38.834
ATOM     11  C   UNL d   1     -19.043   8.809  -0.041 -0.11 -0.00    -0.021    38.834
ATOM     12  C   UNL d   1     -18.256   9.054  -1.170 -0.14 +0.00    +0.000    38.834
ATOM     13  C   UNL d   1     -18.518   7.979  -2.020 -0.15 +0.00    +0.070    38.834
ATOM     14  C   UNL d   1     -19.072   9.603   1.240 -0.07 +0.00    +0.052    38.834
ATOM     15  C   UNL d   1     -18.193   6.893  -4.278 -0.21 +0.00    +0.066    38.834
ATOM     16  C   UNL d   1     -17.731   6.945  -5.586 -0.17 +0.00    -0.021    38.834
ATOM     17  C   UNL d   1     -18.189   5.769  -6.197 -0.19 -0.00    +0.000    38.834
ATOM     18  C   UNL d   1     -18.883   5.083  -5.206 -0.24 +0.00    +0.070    38.834
ATOM     19  C   UNL d   1     -16.907   8.065  -6.181 -0.12 +0.00    +0.052    38.834
ATOM     20  C   UNL d   1     -20.332   3.168  -4.435 -0.26 +0.01    +0.066    38.834
ATOM     21  C   UNL d   1     -20.984   1.968  -4.711 -0.21 -0.00    -0.025    38.834
ATOM     22  C   UNL d   1     -21.659   1.635  -3.552 -0.18 -0.00    -0.021    38.834
ATOM     23  C   UNL d   1     -21.394   2.662  -2.622 -0.16 +0.01    +0.066    38.834
ATOM     24  C   UNL d   1     -20.979   1.187  -6.023 -0.17 +0.01    +0.051    38.834
ATOM     25  N   UNL d   1     -20.995   4.936  -0.747 +0.02 -0.07    -0.248    38.834
ATOM     26  N   UNL d   1     -19.371   7.077  -1.466 -0.05 -0.03    -0.248    38.834
ATOM     27  N   UNL d   1     -18.890   5.796  -4.085 -0.20 -0.01    -0.248    38.834
ATOM     28  N   UNL d   1     -20.593   3.594  -3.153 -0.14 -0.05    -0.248    38.834
ATOM     29 FE   UNL d   1     -19.881   5.388  -2.516 -0.06 +0.00    +0.000    38.834
ATOM     30  C   UNL d   1     -23.521   3.012   1.295 -0.04 +0.01    +0.052    38.834
ATOM     31  C   UNL d   1     -22.934   1.603   1.381 -0.06 +0.05    +0.115    38.834
ATOM     32  C   UNL d   1     -21.450   1.614   1.679 -0.09 +0.14    +0.139    38.834
ATOM     33  O   UNL d   1     -21.030   2.278   2.615 -0.43 -0.92    -0.650    38.834
ATOM     34  O   UNL d   1     -20.570   0.870   0.969 -0.24 -0.87    -0.776    38.834
ATOM     35  H   UNL d   1     -20.819   0.129   0.399 +0.05 +0.12    +0.167    38.834
ATOM     36  C   UNL d   1     -21.605   6.349  -3.221 -0.05 +0.02    +0.190    38.834
ATOM     37  O   UNL d   1     -22.891   6.749  -2.843 -0.00 -0.04    -0.399    38.834
ATOM     38  H   UNL d   1     -23.012   6.386  -1.921 +0.01 +0.02    +0.209    38.834
ATOM     39  C   UNL d   1     -22.561   0.427  -3.376 -0.10 +0.01    +0.052    38.834
ATOM     40  C   UNL d   1     -21.751  -0.792  -2.905 -0.17 +0.02    +0.115    38.834
ATOM     41  C   UNL d   1     -21.526  -0.853  -1.409 -0.19 +0.03    +0.139    38.834
ATOM     42  O   UNL d   1     -22.492  -0.864  -0.659 +0.04 -0.17    -0.650    38.834
ATOM     43  O   UNL d   1     -20.289  -0.984  -0.881 -0.00 -0.25    -0.776    38.834
ATOM     44  H   UNL d   1     -19.704  -0.229  -0.735 -0.22 +0.05    +0.167    38.834
ATOM     45  C   UNL d   1     -17.278  10.163  -1.533 -0.12 -0.00    +0.004    38.834
ATOM     46  C   UNL d   1     -15.950  10.157  -1.606 -0.18 -0.00    +0.012    38.834
ATOM     47  C   UNL d   1     -18.051   5.315  -7.613 -0.17 +0.00    +0.004    38.834
ATOM     48  C   UNL d   1     -16.880   5.225  -8.248 -0.17 +0.00    +0.012    38.834
TER
ENDMDL
MODEL       14
USER    Run = 14
USER    Cluster Rank = 19
USER    Number of conformations in this cluster = 1
USER  
USER    RMSD from reference structure       = 34.155 A
USER  
USER    Estimated Free Energy of Binding    =   -3.90 kcal/mol  [=(1)+(2)+(3)-(4)]
USER    Estimated Inhibition Constant, Ki   =    1.40 mM (millimolar)  [Temperature = 298.15 K]
USER    
USER    (1) Final Intermolecular Energy     =   -7.48 kcal/mol
USER        vdW + Hbond + desolv Energy     =   -5.42 kcal/mol
USER        Electrostatic Energy            =   -2.06 kcal/mol
USER    (2) Final Total Internal Energy     =   -2.67 kcal/mol
USER    (3) Torsional Free Energy           =   +3.58 kcal/mol
USER    (4) Unbound System's Energy  [=(2)] =   -2.67 kcal/mol
USER    
USER    
USER  
USER    DPF = D:/Protein_go_brrr/autodock/final/AncA/heme_Co/dock.dpf
USER    NEWDPF move	heme_Co_opt.pdbqt
USER    NEWDPF about	8.781000 34.984000 -0.736000
USER    NEWDPF tran0	16.183601 -0.659348 5.187650
USER    NEWDPF axisangle0	0.447716 0.153299 0.880937 144.414886
USER    NEWDPF quaternion0	0.426301 0.145967 0.838801 0.305572
USER    NEWDPF dihe0	168.76 112.99 31.01 141.24 122.55 144.40 -125.71 148.06 -142.03 47.40 180.00 146.01 
USER  
USER                              x       y       z    vdW   Elec        q     RMS 
ATOM      1  C   UNL d   1      16.840  -0.722   3.119 -0.17 +0.03    +0.064    34.155
ATOM      2  C   UNL d   1      16.917   2.727   6.391 -0.19 +0.01    +0.064    34.155
ATOM      3  C   UNL d   1      14.537  -0.070   9.449 -0.08 +0.01    +0.064    34.155
ATOM      4  C   UNL d   1      14.784  -3.739   6.264 -0.09 +0.01    +0.064    34.155
ATOM      5  C   UNL d   1      17.004   0.438   3.775 -0.18 +0.02    +0.066    34.155
ATOM      6  C   UNL d   1      17.734   1.510   3.226 -0.17 -0.01    -0.021    34.155
ATOM      7  C   UNL d   1      17.772   2.500   4.189 -0.22 -0.01    -0.025    34.155
ATOM      8  C   UNL d   1      17.051   1.996   5.277 -0.20 +0.01    +0.066    34.155
ATOM      9  C   UNL d   1      18.458   3.872   4.104 -0.22 +0.01    +0.051    34.155
ATOM     10  C   UNL d   1      16.171   2.302   7.550 -0.17 +0.01    +0.066    34.155
ATOM     11  C   UNL d   1      15.876   3.076   8.693 -0.15 -0.00    -0.021    34.155
ATOM     12  C   UNL d   1      15.178   2.238   9.566 -0.18 +0.00    +0.000    34.155
ATOM     13  C   UNL d   1      15.088   1.022   8.889 -0.16 +0.01    +0.070    34.155
ATOM     14  C   UNL d   1      16.166   4.544   8.876 -0.13 +0.01    +0.052    34.155
ATOM     15  C   UNL d   1      14.409  -1.412   8.916 -0.04 +0.01    +0.066    34.155
ATOM     16  C   UNL d   1      13.959  -2.531   9.602 -0.11 -0.00    -0.021    34.155
ATOM     17  C   UNL d   1      14.031  -3.592   8.689 -0.12 +0.00    +0.000    34.155
ATOM     18  C   UNL d   1      14.505  -3.031   7.508 -0.12 +0.01    +0.070    34.155
ATOM     19  C   UNL d   1      13.499  -2.549  11.043 -0.11 -0.00    +0.052    34.155
ATOM     20  C   UNL d   1      15.326  -3.232   5.131 -0.10 +0.01    +0.066    34.155
ATOM     21  C   UNL d   1      15.581  -4.021   4.011 -0.10 -0.01    -0.025    34.155
ATOM     22  C   UNL d   1      16.147  -3.172   3.078 -0.13 -0.01    -0.021    34.155
ATOM     23  C   UNL d   1      16.221  -1.900   3.684 -0.16 +0.02    +0.066    34.155
ATOM     24  C   UNL d   1      15.317  -5.515   3.845 -0.09 +0.01    +0.051    34.155
ATOM     25  N   UNL d   1      16.558   0.723   5.046 -0.15 -0.04    -0.248    34.155
ATOM     26  N   UNL d   1      15.640   1.079   7.647 -0.12 -0.04    -0.248    34.155
ATOM     27  N   UNL d   1      14.747  -1.738   7.688 -0.01 -0.04    -0.248    34.155
ATOM     28  N   UNL d   1      15.727  -1.932   4.927 -0.08 -0.05    -0.248    34.155
ATOM     29 FE   UNL d   1      15.599  -0.583   6.443 -0.04 +0.00    +0.000    34.155
ATOM     30  C   UNL d   1      18.427   1.538   1.869 -0.12 +0.03    +0.052    34.155
ATOM     31  C   UNL d   1      19.905   1.176   2.013 -0.10 +0.05    +0.115    34.155
ATOM     32  C   UNL d   1      20.140   0.121   3.073 -0.04 +0.04    +0.139    34.155
ATOM     33  O   UNL d   1      20.387  -1.027   2.734 +0.01 -0.23    -0.650    34.155
ATOM     34  O   UNL d   1      20.133   0.417   4.394 +0.04 -0.17    -0.776    34.155
ATOM     35  H   UNL d   1      20.065  -0.242   5.098 +0.01 +0.03    +0.167    34.155
ATOM     36  C   UNL d   1      17.519  -1.106   7.101 -0.02 +0.03    +0.190    34.155
ATOM     37  O   UNL d   1      18.877  -0.977   6.792 +0.00 -0.06    -0.399    34.155
ATOM     38  H   UNL d   1      18.898  -0.441   5.950 +0.02 +0.04    +0.209    34.155
ATOM     39  C   UNL d   1      16.647  -3.582   1.705 -0.18 +0.03    +0.052    34.155
ATOM     40  C   UNL d   1      18.177  -3.451   1.624 -0.10 +0.07    +0.115    34.155
ATOM     41  C   UNL d   1      18.685  -2.860   0.326 +0.07 +0.18    +0.139    34.155
ATOM     42  O   UNL d   1      18.666  -3.541  -0.690 -0.31 -0.89    -0.650    34.155
ATOM     43  O   UNL d   1      19.080  -1.570   0.239 -0.31 -1.34    -0.776    34.155
ATOM     44  H   UNL d   1      19.554  -1.123   0.952 +0.02 +0.16    +0.167    34.155
ATOM     45  C   UNL d   1      14.572   2.450  10.947 -0.18 +0.00    +0.004    34.155
ATOM     46  C   UNL d   1      13.373   2.126  11.426 -0.24 +0.00    +0.012    34.155
ATOM     47  C   UNL d   1      13.736  -5.043   8.887 -0.08 +0.00    +0.004    34.155
ATOM     48  C   UNL d   1      12.600  -5.624   8.497 -0.12 +0.00    +0.012    34.155
TER
ENDMDL
MODEL       49
USER    Run = 49
USER    Cluster Rank = 20
USER    Number of conformations in this cluster = 1
USER  
USER    RMSD from reference structure       = 52.833 A
USER  
USER    Estimated Free Energy of Binding    =   -3.70 kcal/mol  [=(1)+(2)+(3)-(4)]
USER    Estimated Inhibition Constant, Ki   =    1.94 mM (millimolar)  [Temperature = 298.15 K]
USER    
USER    (1) Final Intermolecular Energy     =   -7.28 kcal/mol
USER        vdW + Hbond + desolv Energy     =   -3.94 kcal/mol
USER        Electrostatic Energy            =   -3.34 kcal/mol
USER    (2) Final Total Internal Energy     =   -3.12 kcal/mol
USER    (3) Torsional Free Energy           =   +3.58 kcal/mol
USER    (4) Unbound System's Energy  [=(2)] =   -3.12 kcal/mol
USER    
USER    
USER  
USER    DPF = D:/Protein_go_brrr/autodock/final/AncA/heme_Co/dock.dpf
USER    NEWDPF move	heme_Co_opt.pdbqt
USER    NEWDPF about	8.781000 34.984000 -0.736000
USER    NEWDPF tran0	1.885569 -18.605472 -6.985041
USER    NEWDPF axisangle0	0.887561 -0.459231 -0.036630 -90.478983
USER    NEWDPF quaternion0	0.630218 -0.326080 -0.026009 -0.704145
USER    NEWDPF dihe0	0.30 112.92 -148.12 -97.14 -88.76 128.28 63.04 -171.24 154.33 115.23 -155.75 175.81 
USER  
USER                              x       y       z    vdW   Elec        q     RMS 
ATOM      1  C   UNL d   1       0.596 -16.897  -7.353 -0.11 +0.04    +0.064    52.833
ATOM      2  C   UNL d   1       0.744 -21.256  -9.248 -0.03 +0.04    +0.064    52.833
ATOM      3  C   UNL d   1       4.685 -22.255  -6.738 -0.04 +0.05    +0.064    52.833
ATOM      4  C   UNL d   1       4.334 -17.950  -4.500 -0.06 +0.04    +0.064    52.833
ATOM      5  C   UNL d   1       0.368 -18.002  -8.082 -0.17 +0.04    +0.066    52.833
ATOM      6  C   UNL d   1      -0.763 -18.129  -8.912 -0.22 -0.01    -0.021    52.833
ATOM      7  C   UNL d   1      -0.727 -19.404  -9.442 -0.12 -0.02    -0.025    52.833
ATOM      8  C   UNL d   1       0.431 -19.994  -8.926 -0.07 +0.04    +0.066    52.833
ATOM      9  C   UNL d   1      -1.738 -20.056 -10.397 -0.11 +0.05    +0.051    52.833
ATOM     10  C   UNL d   1       1.928 -21.937  -8.788 -0.03 +0.04    +0.066    52.833
ATOM     11  C   UNL d   1       2.384 -23.208  -9.200 -0.01 -0.01    -0.021    52.833
ATOM     12  C   UNL d   1       3.537 -23.473  -8.455 -0.01 +0.00    +0.000    52.833
ATOM     13  C   UNL d   1       3.705 -22.342  -7.655 -0.05 +0.05    +0.070    52.833
ATOM     14  C   UNL d   1       1.797 -24.053 -10.301 +0.00 +0.02    +0.052    52.833
ATOM     15  C   UNL d   1       4.972 -21.190  -5.797 -0.05 +0.06    +0.066    52.833
ATOM     16  C   UNL d   1       5.911 -21.224  -4.776 -0.02 -0.01    -0.021    52.833
ATOM     17  C   UNL d   1       5.812 -19.986  -4.126 -0.03 +0.00    +0.000    52.833
ATOM     18  C   UNL d   1       4.828 -19.284  -4.815 -0.06 +0.06    +0.070    52.833
ATOM     19  C   UNL d   1       6.828 -22.386  -4.468 -0.00 +0.02    +0.052    52.833
ATOM     20  C   UNL d   1       3.321 -17.282  -5.101 -0.09 +0.04    +0.066    52.833
ATOM     21  C   UNL d   1       2.913 -16.017  -4.684 -0.10 -0.01    -0.025    52.833
ATOM     22  C   UNL d   1       1.856 -15.676  -5.508 -0.18 -0.01    -0.021    52.833
ATOM     23  C   UNL d   1       1.661 -16.764  -6.385 -0.10 +0.04    +0.066    52.833
ATOM     24  C   UNL d   1       3.489 -15.181  -3.545 -0.06 +0.02    +0.051    52.833
ATOM     25  N   UNL d   1       1.133 -19.146  -8.086 -0.09 -0.18    -0.248    52.833
ATOM     26  N   UNL d   1       2.764 -21.391  -7.898 -0.06 -0.21    -0.248    52.833
ATOM     27  N   UNL d   1       4.329 -20.043  -5.785 -0.05 -0.29    -0.248    52.833
ATOM     28  N   UNL d   1       2.544 -17.739  -6.141 -0.09 -0.20    -0.248    52.833
ATOM     29 FE   UNL d   1       2.826 -19.618  -6.866 -0.02 +0.00    +0.000    52.833
ATOM     30  C   UNL d   1      -1.865 -17.094  -9.113 -0.41 +0.04    +0.052    52.833
ATOM     31  C   UNL d   1      -2.737 -16.987  -7.863 -0.29 +0.13    +0.115    52.833
ATOM     32  C   UNL d   1      -2.766 -18.275  -7.068 -0.15 +0.19    +0.139    52.833
ATOM     33  O   UNL d   1      -3.292 -19.267  -7.549 -0.32 -1.47    -0.650    52.833
ATOM     34  O   UNL d   1      -2.181 -18.381  -5.852 +0.04 -0.77    -0.776    52.833
ATOM     35  H   UNL d   1      -1.667 -17.677  -5.432 +0.04 +0.16    +0.167    52.833
ATOM     36  C   UNL d   1       1.464 -20.386  -5.469 -0.01 +0.11    +0.190    52.833
ATOM     37  O   UNL d   1       0.143 -20.274  -5.023 +0.01 -0.22    -0.399    52.833
ATOM     38  H   UNL d   1      -0.261 -19.563  -5.594 +0.03 +0.13    +0.209    52.833
ATOM     39  C   UNL d   1       1.039 -14.401  -5.408 -0.32 +0.03    +0.052    52.833
ATOM     40  C   UNL d   1      -0.054 -14.539  -4.336 -0.21 +0.09    +0.115    52.833
ATOM     41  C   UNL d   1      -1.178 -15.483  -4.708 -0.16 +0.15    +0.139    52.833
ATOM     42  O   UNL d   1      -1.517 -15.578  -5.879 +0.22 -0.67    -0.650    52.833
ATOM     43  O   UNL d   1      -1.759 -16.290  -3.793 -0.39 -1.16    -0.776    52.833
ATOM     44  H   UNL d   1      -2.033 -17.194  -3.997 +0.02 +0.22    +0.167    52.833
ATOM     45  C   UNL d   1       4.504 -24.649  -8.420 -0.00 +0.00    +0.004    52.833
ATOM     46  C   UNL d   1       4.658 -25.617  -7.521 +0.00 +0.00    +0.012    52.833
ATOM     47  C   UNL d   1       6.530 -19.483  -2.917 -0.00 +0.00    +0.004    52.833
ATOM     48  C   UNL d   1       5.938 -19.281  -1.738 +0.00 +0.00    +0.012    52.833
TER
ENDMDL
MODEL       22
USER    Run = 22
USER    Cluster Rank = 21
USER    Number of conformations in this cluster = 1
USER  
USER    RMSD from reference structure       = 37.029 A
USER  
USER    Estimated Free Energy of Binding    =   -3.48 kcal/mol  [=(1)+(2)+(3)-(4)]
USER    Estimated Inhibition Constant, Ki   =    2.81 mM (millimolar)  [Temperature = 298.15 K]
USER    
USER    (1) Final Intermolecular Energy     =   -7.06 kcal/mol
USER        vdW + Hbond + desolv Energy     =   -5.62 kcal/mol
USER        Electrostatic Energy            =   -1.44 kcal/mol
USER    (2) Final Total Internal Energy     =   -2.18 kcal/mol
USER    (3) Torsional Free Energy           =   +3.58 kcal/mol
USER    (4) Unbound System's Energy  [=(2)] =   -2.18 kcal/mol
USER    
USER    
USER  
USER    DPF = D:/Protein_go_brrr/autodock/final/AncA/heme_Co/dock.dpf
USER    NEWDPF move	heme_Co_opt.pdbqt
USER    NEWDPF about	8.781000 34.984000 -0.736000
USER    NEWDPF tran0	13.060294 0.670333 -15.561729
USER    NEWDPF axisangle0	0.991665 0.048524 0.119355 -132.902737
USER    NEWDPF quaternion0	0.909081 0.044483 0.109415 -0.399527
USER    NEWDPF dihe0	84.14 80.18 -163.28 -96.36 103.11 88.26 -132.22 115.32 -134.07 150.61 -12.47 167.70 
USER  
USER                              x       y       z    vdW   Elec        q     RMS 
ATOM      1  C   UNL d   1      10.977   0.616 -14.952 -0.19 +0.01    +0.064    37.029
ATOM      2  C   UNL d   1      13.094  -0.048 -19.158 -0.02 +0.01    +0.064    37.029
ATOM      3  C   UNL d   1      17.321   1.107 -17.255 -0.03 +0.01    +0.064    37.029
ATOM      4  C   UNL d   1      15.246   1.417 -12.866 -0.27 -0.00    +0.064    37.029
ATOM      5  C   UNL d   1      11.239   0.385 -16.249 -0.12 +0.02    +0.066    37.029
ATOM      6  C   UNL d   1      10.246  -0.058 -17.145 -0.06 -0.01    -0.021    37.029
ATOM      7  C   UNL d   1      10.871  -0.271 -18.358 -0.02 -0.00    -0.025    37.029
ATOM      8  C   UNL d   1      12.213   0.066 -18.156 -0.04 +0.01    +0.066    37.029
ATOM      9  C   UNL d   1      10.241  -0.774 -19.667 -0.00 +0.01    +0.051    37.029
ATOM     10  C   UNL d   1      14.489   0.300 -19.051 -0.02 +0.01    +0.066    37.029
ATOM     11  C   UNL d   1      15.432   0.336 -20.100 -0.01 -0.00    -0.021    37.029
ATOM     12  C   UNL d   1      16.655   0.679 -19.518 -0.01 +0.00    +0.000    37.029
ATOM     13  C   UNL d   1      16.366   0.840 -18.163 -0.03 +0.01    +0.070    37.029
ATOM     14  C   UNL d   1      15.143   0.145 -21.567 -0.00 +0.00    +0.052    37.029
ATOM     15  C   UNL d   1      17.209   1.253 -15.817 -0.05 +0.00    +0.066    37.029
ATOM     16  C   UNL d   1      18.258   1.385 -14.918 -0.05 -0.00    -0.021    37.029
ATOM     17  C   UNL d   1      17.665   1.472 -13.651 -0.14 +0.00    +0.000    37.029
ATOM     18  C   UNL d   1      16.294   1.403 -13.879 -0.16 -0.00    +0.070    37.029
ATOM     19  C   UNL d   1      19.725   1.420 -15.283 -0.01 +0.00    +0.052    37.029
ATOM     20  C   UNL d   1      13.914   1.264 -13.056 -0.31 +0.00    +0.066    37.029
ATOM     21  C   UNL d   1      13.007   1.259 -11.998 -0.49 -0.00    -0.025    37.029
ATOM     22  C   UNL d   1      11.765   1.059 -12.572 -0.43 -0.00    -0.021    37.029
ATOM     23  C   UNL d   1      11.978   0.939 -13.962 -0.25 +0.01    +0.066    37.029
ATOM     24  C   UNL d   1      13.311   1.417 -10.511 -0.48 +0.01    +0.051    37.029
ATOM     25  N   UNL d   1      12.469   0.482 -16.860 -0.05 -0.05    -0.248    37.029
ATOM     26  N   UNL d   1      15.045   0.665 -17.891 -0.03 -0.03    -0.248    37.029
ATOM     27  N   UNL d   1      16.061   1.242 -15.177 -0.07 -0.01    -0.248    37.029
ATOM     28  N   UNL d   1      13.278   1.060 -14.259 -0.16 -0.03    -0.248    37.029
ATOM     29 FE   UNL d   1      14.370   0.885 -15.965 -0.03 +0.00    +0.000    37.029
ATOM     30  C   UNL d   1       8.784  -0.339 -16.816 -0.09 +0.01    +0.052    37.029
ATOM     31  C   UNL d   1       8.029   0.967 -16.567 -0.07 +0.11    +0.115    37.029
ATOM     32  C   UNL d   1       8.365   2.031 -17.589 +0.20 +0.19    +0.139    37.029
ATOM     33  O   UNL d   1       7.615   2.212 -18.537 -0.03 -0.59    -0.650    37.029
ATOM     34  O   UNL d   1       9.450   2.830 -17.463 -0.46 -1.28    -0.776    37.029
ATOM     35  H   UNL d   1      10.350   2.565 -17.696 +0.02 +0.14    +0.167    37.029
ATOM     36  C   UNL d   1      14.543  -1.183 -15.670 -0.07 -0.00    +0.190    37.029
ATOM     37  O   UNL d   1      13.993  -2.258 -14.964 -0.04 +0.07    -0.399    37.029
ATOM     38  H   UNL d   1      13.701  -1.870 -14.092 -0.15 -0.05    +0.209    37.029
ATOM     39  C   UNL d   1      10.457   0.926 -11.815 -0.51 +0.01    +0.052    37.029
ATOM     40  C   UNL d   1      10.172  -0.547 -11.478 -0.24 +0.00    +0.115    37.029
ATOM     41  C   UNL d   1      10.631  -1.529 -12.535 -0.40 +0.01    +0.139    37.029
ATOM     42  O   UNL d   1       9.798  -2.077 -13.244 -0.06 -0.05    -0.650    37.029
ATOM     43  O   UNL d   1      11.942  -1.753 -12.776 +0.08 +0.05    -0.776    37.029
ATOM     44  H   UNL d   1      12.263  -2.099 -13.619 +0.05 -0.02    +0.167    37.029
ATOM     45  C   UNL d   1      18.052   0.892 -20.086 -0.01 +0.00    +0.004    37.029
ATOM     46  C   UNL d   1      19.135   0.121 -20.033 -0.00 +0.00    +0.012    37.029
ATOM     47  C   UNL d   1      18.302   1.562 -12.303 -0.12 +0.00    +0.004    37.029
ATOM     48  C   UNL d   1      18.765   2.700 -11.781 -0.20 +0.01    +0.012    37.029
TER
ENDMDL
MODEL       57
USER    Run = 57
USER    Cluster Rank = 22
USER    Number of conformations in this cluster = 1
USER  
USER    RMSD from reference structure       = 17.675 A
USER  
USER    Estimated Free Energy of Binding    =   -2.97 kcal/mol  [=(1)+(2)+(3)-(4)]
USER    Estimated Inhibition Constant, Ki   =    6.66 mM (millimolar)  [Temperature = 298.15 K]
USER    
USER    (1) Final Intermolecular Energy     =   -6.55 kcal/mol
USER        vdW + Hbond + desolv Energy     =   -6.68 kcal/mol
USER        Electrostatic Energy            =   +0.13 kcal/mol
USER    (2) Final Total Internal Energy     =   -4.15 kcal/mol
USER    (3) Torsional Free Energy           =   +3.58 kcal/mol
USER    (4) Unbound System's Energy  [=(2)] =   -4.15 kcal/mol
USER    
USER    
USER  
USER    DPF = D:/Protein_go_brrr/autodock/final/AncA/heme_Co/dock.dpf
USER    NEWDPF move	heme_Co_opt.pdbqt
USER    NEWDPF about	8.781000 34.984000 -0.736000
USER    NEWDPF tran0	4.672229 16.171065 6.796527
USER    NEWDPF axisangle0	0.117561 0.986266 0.116014 95.479224
USER    NEWDPF quaternion0	0.087006 0.729932 0.085861 0.672501
USER    NEWDPF dihe0	137.63 89.92 -68.36 112.31 132.62 122.40 -120.78 -31.78 -127.01 -151.51 179.91 155.71 
USER  
USER                              x       y       z    vdW   Elec        q     RMS 
ATOM      1  C   UNL d   1       5.770  16.427   4.941 -0.30 -0.02    +0.064    17.675
ATOM      2  C   UNL d   1       1.413  14.766   5.872 -0.17 -0.00    +0.064    17.675
ATOM      3  C   UNL d   1       2.237  15.129  10.564 -0.13 -0.00    +0.064    17.675
ATOM      4  C   UNL d   1       6.545  17.189   9.636 -0.15 -0.01    +0.064    17.675
ATOM      5  C   UNL d   1       4.533  15.912   4.851 -0.24 -0.02    +0.066    17.675
ATOM      6  C   UNL d   1       3.892  15.719   3.612 -0.30 +0.00    -0.021    17.675
ATOM      7  C   UNL d   1       2.620  15.259   3.889 -0.22 +0.00    -0.025    17.675
ATOM      8  C   UNL d   1       2.544  15.175   5.283 -0.19 -0.01    +0.066    17.675
ATOM      9  C   UNL d   1       1.506  14.908   2.890 -0.23 -0.00    +0.051    17.675
ATOM     10  C   UNL d   1       1.251  14.623   7.297 -0.19 -0.01    +0.066    17.675
ATOM     11  C   UNL d   1       0.140  14.067   7.969 -0.22 +0.00    -0.021    17.675
ATOM     12  C   UNL d   1       0.409  14.182   9.335 -0.23 -0.00    +0.000    17.675
ATOM     13  C   UNL d   1       1.665  14.786   9.396 -0.18 -0.01    +0.070    17.675
ATOM     14  C   UNL d   1      -1.043  13.391   7.326 -0.29 -0.00    +0.052    17.675
ATOM     15  C   UNL d   1       3.497  15.803  10.809 -0.11 +0.00    +0.066    17.675
ATOM     16  C   UNL d   1       3.963  16.258  12.034 -0.10 -0.00    -0.021    17.675
ATOM     17  C   UNL d   1       5.204  16.855  11.771 -0.13 -0.00    +0.000    17.675
ATOM     18  C   UNL d   1       5.406  16.701  10.403 -0.11 -0.00    +0.070    17.675
ATOM     19  C   UNL d   1       3.240  16.116  13.355 -0.04 -0.00    +0.052    17.675
ATOM     20  C   UNL d   1       6.722  17.127   8.294 -0.19 -0.01    +0.066    17.675
ATOM     21  C   UNL d   1       7.844  17.664   7.667 -0.21 +0.00    -0.025    17.675
ATOM     22  C   UNL d   1       7.662  17.434   6.316 -0.28 +0.00    -0.021    17.675
ATOM     23  C   UNL d   1       6.423  16.773   6.183 -0.28 -0.02    +0.066    17.675
ATOM     24  C   UNL d   1       9.023  18.380   8.321 -0.14 -0.01    +0.051    17.675
ATOM     25  N   UNL d   1       3.717  15.568   5.905 -0.14 +0.04    -0.248    17.675
ATOM     26  N   UNL d   1       2.197  15.001   8.164 -0.14 +0.02    -0.248    17.675
ATOM     27  N   UNL d   1       4.356  16.097   9.858 -0.06 +0.00    -0.248    17.675
ATOM     28  N   UNL d   1       5.849  16.587   7.378 -0.06 +0.07    -0.248    17.675
ATOM     29 FE   UNL d   1       4.059  15.849   7.998 -0.05 -0.00    +0.000    17.675
ATOM     30  C   UNL d   1       4.459  16.045   2.234 -0.42 -0.01    +0.052    17.675
ATOM     31  C   UNL d   1       3.985  17.422   1.770 -0.17 -0.01    +0.115    17.675
ATOM     32  C   UNL d   1       4.226  18.496   2.809 -0.11 -0.01    +0.139    17.675
ATOM     33  O   UNL d   1       5.082  19.344   2.608 +0.04 +0.02    -0.650    17.675
ATOM     34  O   UNL d   1       3.488  18.578   3.940 +0.04 +0.04    -0.776    17.675
ATOM     35  H   UNL d   1       3.860  18.704   4.824 +0.03 -0.01    +0.167    17.675
ATOM     36  C   UNL d   1       3.176  17.737   7.773 -0.03 -0.01    +0.190    17.675
ATOM     37  O   UNL d   1       3.015  18.792   6.868 +0.00 +0.02    -0.399    17.675
ATOM     38  H   UNL d   1       3.785  18.709   6.239 +0.03 -0.01    +0.209    17.675
ATOM     39  C   UNL d   1       8.601  17.885   5.212 -0.25 -0.00    +0.052    17.675
ATOM     40  C   UNL d   1       8.037  19.120   4.491 -0.09 -0.01    +0.115    17.675
ATOM     41  C   UNL d   1       7.047  19.923   5.309 -0.08 -0.01    +0.139    17.675
ATOM     42  O   UNL d   1       7.391  21.000   5.776 +0.02 +0.04    -0.650    17.675
ATOM     43  O   UNL d   1       5.765  19.524   5.465 +0.04 +0.05    -0.776    17.675
ATOM     44  H   UNL d   1       5.156  19.431   4.721 +0.03 -0.01    +0.167    17.675
ATOM     45  C   UNL d   1      -0.364  13.776  10.583 -0.24 -0.00    +0.004    17.675
ATOM     46  C   UNL d   1      -0.186  12.756  11.418 -0.24 -0.00    +0.012    17.675
ATOM     47  C   UNL d   1       6.134  17.570  12.695 -0.08 -0.00    +0.004    17.675
ATOM     48  C   UNL d   1       7.324  17.089  13.061 -0.10 +0.00    +0.012    17.675
TER
ENDMDL


AVSFLD: # AVS field file
AVSFLD: #
AVSFLD: # Created by AutoDock
AVSFLD: #
AVSFLD: ndim=2           # number of dimensions in the field
AVSFLD: nspace=1         # number of physical coordinates
AVSFLD: veclen=7         # vector size
AVSFLD: dim1=48          # atoms
AVSFLD: dim2=22          # conformations
AVSFLD: data=Real       # data type (byte,integer,Real,double)
AVSFLD: field=uniform    # field coordinate layout
AVSFLD: label= x y z vdW Elec q RMS
AVSFLD: variable 1 file = D:/Protein_go_brrr/autodock/final/AncA/heme_Co/dock.dlg.pdb filetype = ascii offset = 5 stride = 12
AVSFLD: variable 2 file = D:/Protein_go_brrr/autodock/final/AncA/heme_Co/dock.dlg.pdb filetype = ascii offset = 6 stride = 12
AVSFLD: variable 3 file = D:/Protein_go_brrr/autodock/final/AncA/heme_Co/dock.dlg.pdb filetype = ascii offset = 7 stride = 12
AVSFLD: variable 4 file = D:/Protein_go_brrr/autodock/final/AncA/heme_Co/dock.dlg.pdb filetype = ascii offset = 8 stride = 12
AVSFLD: variable 5 file = D:/Protein_go_brrr/autodock/final/AncA/heme_Co/dock.dlg.pdb filetype = ascii offset = 9 stride = 12
AVSFLD: variable 6 file = D:/Protein_go_brrr/autodock/final/AncA/heme_Co/dock.dlg.pdb filetype = ascii offset = 10 stride = 12
AVSFLD: variable 7 file = D:/Protein_go_brrr/autodock/final/AncA/heme_Co/dock.dlg.pdb filetype = ascii offset = 11 stride = 12
AVSFLD: # end of file

>>> Closing the docking parameter file (DPF)...
This docking finished at:			12:29 39" p.m., 01/17/2026


________________________________________________________________________________

D:/autodockScripts/autodock4.exe: Successful Completion on "ACER"

Real= 49h 51m 13.05s,  CPU= 5m 42.33s,  System= 3m 37.50s
________________________________________________________________________________

