          AutoDock 4.2 Release 4.2.6   
         (C) 1989-2012 The Scripps Research Institute
        AutoDock comes with ABSOLUTELY NO WARRANTY.
        AutoDock is free software, and you are welcome
        to redistribute it under certain conditions;
        for details type 'autodock4 -C'

                     main.cc  $Revision: 1.213 $

                   Compiled on Jul 18 2014 at 15:34:58


This file was created at:			3:43 31" p.m., 10/18/2025
                   on host:		"ACER"
Current Working Directory = "D:\Protein_go_brrr\autodock\final\mut_Y35F\heme_Co"

      ________________________________________________________________

                   SETTING UP DEFAULT PARAMETER LIBRARY
      ________________________________________________________________


Random number generator was seeded with values 59512, 1760795011.
Docking parameter file (DPF) used for this docking:		D:/Protein_go_brrr/autodock/final/mut_Y35F/heme_Co/dock.dpf
DPF> autodock_parameter_version 4.2       # used by autodock to validate parameter set

	Autodock parameter version 4.2.
DPF> outlev 1                             # diagnostic output level

Output Level = 1  ADT-COMPATIBLE OUTPUT DURING DOCKING.
DPF> intelec                              # calculate internal electrostatics

Electrostatic energies will be calculated for all non-bonds between moving atoms.
DPF> seed pid time                        # seeds for random generator

Random number generator was seeded with values 59512, 1760795011.
DPF> ligand_types A C OA N Fe HD          # atoms types in ligand

DPF> fld mut_Y35F_m0.maps.fld             # grid_data_file

Opening Grid Map Dimensions file:		mut_Y35F_m0.maps.fld
Grid Point Spacing =				0.658 Angstroms

Even Number of User-specified Grid Points =	126 x-points
						126 y-points
						126 z-points

Coordinates of Central Grid Point of Maps =	(0.620, 0.306, 0.503)
Macromolecule file used to create Grid Maps =	mut_Y35F_m0.pdbqt
Grid Parameter file used to create Grid Maps =	D:/Protein_go_brrr/autodock/final/mut_Y35F/heme_Co/grid.gpf
Minimum coordinates in grid = (-40.834, -41.148, -40.951)
Maximum coordinates in grid = (42.074, 41.760, 41.957)

DPF> map mut_Y35F_m0.A.map                # atom-specific affinity map

DPF> map mut_Y35F_m0.C.map                # atom-specific affinity map

DPF> map mut_Y35F_m0.OA.map               # atom-specific affinity map

DPF> map mut_Y35F_m0.N.map                # atom-specific affinity map

DPF> map mut_Y35F_m0.Fe.map               # atom-specific affinity map

DPF> map mut_Y35F_m0.HD.map               # atom-specific affinity map

DPF> elecmap mut_Y35F_m0.e.map            # electrostatics map

DPF> desolvmap mut_Y35F_m0.d.map          # desolvation map

DPF> move heme_Co_opt.pdbqt               # small molecule

1,4-interactions will be _ignored_ in the non-bonded internal energy calculation.

Ligand PDBQT file = "heme_Co_opt.pdbqt"

INPUT LIGAND PDBQT FILE:
________________________

INPUT-LIGAND-PDBQT: REMARK  12 active torsions:
INPUT-LIGAND-PDBQT: REMARK  status: ('A' for Active; 'I' for Inactive)
INPUT-LIGAND-PDBQT: REMARK    1  A    between atoms: C_6  and  C_10 
INPUT-LIGAND-PDBQT: REMARK    2  A    between atoms: C_10  and  C_11 
INPUT-LIGAND-PDBQT: REMARK    3  A    between atoms: C_11  and  C_12 
INPUT-LIGAND-PDBQT: REMARK    4  A    between atoms: C_12  and  O_14 
INPUT-LIGAND-PDBQT: REMARK    5  A    between atoms: C_17  and  C_20 
INPUT-LIGAND-PDBQT: REMARK    6  A    between atoms: C_24  and  C_27 
INPUT-LIGAND-PDBQT: REMARK    7  A    between atoms: C_31  and  C_34 
INPUT-LIGAND-PDBQT: REMARK    8  A    between atoms: C_34  and  C_35 
INPUT-LIGAND-PDBQT: REMARK    9  A    between atoms: C_35  and  C_36 
INPUT-LIGAND-PDBQT: REMARK   10  A    between atoms: C_36  and  O_38 
INPUT-LIGAND-PDBQT: REMARK   11  A    between atoms: FE_43  and  C_44 
INPUT-LIGAND-PDBQT: REMARK   12  A    between atoms: C_44  and  O_45 
INPUT-LIGAND-PDBQT: ROOT
INPUT-LIGAND-PDBQT: ATOM      1  C   UNL d   1       6.846  35.483  -1.586  0.00  0.00     0.064 A 
INPUT-LIGAND-PDBQT: ATOM      2  C   UNL d   1       8.105  32.823   2.149  0.00  0.00     0.064 C 
INPUT-LIGAND-PDBQT: ATOM      3  C   UNL d   1      12.720  33.414   1.062  0.00  0.00     0.064 A 
INPUT-LIGAND-PDBQT: ATOM      4  C   UNL d   1      11.472  36.449  -2.529  0.00  0.00     0.064 A 
INPUT-LIGAND-PDBQT: ATOM      5  C   UNL d   1       6.850  34.683  -0.507  0.00  0.00     0.066 A 
INPUT-LIGAND-PDBQT: ATOM      6  C   UNL d   1       5.664  34.330   0.166  0.00  0.00    -0.021 A 
INPUT-LIGAND-PDBQT: ATOM      7  C   UNL d   1       6.037  33.577   1.262  0.00  0.00    -0.025 A 
INPUT-LIGAND-PDBQT: ATOM      8  C   UNL d   1       7.432  33.489   1.202  0.00  0.00     0.066 A 
INPUT-LIGAND-PDBQT: ATOM      9  C   UNL d   1       5.127  32.958   2.334  0.00  0.00     0.051 C 
INPUT-LIGAND-PDBQT: ATOM     10  C   UNL d   1       9.537  32.657   2.156  0.00  0.00     0.066 A 
INPUT-LIGAND-PDBQT: ATOM     11  C   UNL d   1      10.289  31.854   3.041  0.00  0.00    -0.021 A 
INPUT-LIGAND-PDBQT: ATOM     12  C   UNL d   1      11.631  32.042   2.699  0.00  0.00     0.000 A 
INPUT-LIGAND-PDBQT: ATOM     13  C   UNL d   1      11.598  32.933   1.626  0.00  0.00     0.070 A 
INPUT-LIGAND-PDBQT: ATOM     14  C   UNL d   1       9.736  30.905   4.073  0.00  0.00     0.052 C 
INPUT-LIGAND-PDBQT: ATOM     15  C   UNL d   1      12.870  34.375  -0.013  0.00  0.00     0.066 A 
INPUT-LIGAND-PDBQT: ATOM     16  C   UNL d   1      14.059  34.940  -0.452  0.00  0.00    -0.021 A 
INPUT-LIGAND-PDBQT: ATOM     17  C   UNL d   1      13.704  35.818  -1.486  0.00  0.00     0.000 A 
INPUT-LIGAND-PDBQT: ATOM     18  C   UNL d   1      12.323  35.706  -1.608  0.00  0.00     0.070 A 
INPUT-LIGAND-PDBQT: ATOM     19  C   UNL d   1      15.432  34.638   0.106  0.00  0.00     0.052 C 
INPUT-LIGAND-PDBQT: ATOM     20  C   UNL d   1      10.120  36.421  -2.607  0.00  0.00     0.066 A 
INPUT-LIGAND-PDBQT: ATOM     21  C   UNL d   1       9.411  37.209  -3.511  0.00  0.00    -0.025 A 
INPUT-LIGAND-PDBQT: ATOM     22  C   UNL d   1       8.076  36.930  -3.282  0.00  0.00    -0.021 A 
INPUT-LIGAND-PDBQT: ATOM     23  C   UNL d   1       8.036  35.987  -2.233  0.00  0.00     0.066 A 
INPUT-LIGAND-PDBQT: ATOM     24  C   UNL d   1       9.976  38.195  -4.530  0.00  0.00     0.051 C 
INPUT-LIGAND-PDBQT: ATOM     25  N   UNL d   1       7.962  34.160   0.113  0.00  0.00    -0.248 N 
INPUT-LIGAND-PDBQT: ATOM     26  N   UNL d   1      10.329  33.260   1.263  0.00  0.00    -0.248 N 
INPUT-LIGAND-PDBQT: ATOM     27  N   UNL d   1      11.857  34.861  -0.695  0.00  0.00    -0.248 N 
INPUT-LIGAND-PDBQT: ATOM     28  N   UNL d   1       9.271  35.678  -1.820  0.00  0.00    -0.248 N 
INPUT-LIGAND-PDBQT: ATOM     29 FE   UNL d   1      10.024  34.533  -0.318  0.00  0.00     0.000 Fe
INPUT-LIGAND-PDBQT: ENDROOT
INPUT-LIGAND-PDBQT: BRANCH   6  30
INPUT-LIGAND-PDBQT: ATOM     30  C   UNL d   1       4.249  34.772  -0.192  0.00  0.00     0.052 C 
INPUT-LIGAND-PDBQT: BRANCH  30  31
INPUT-LIGAND-PDBQT: ATOM     31  C   UNL d   1       3.660  33.865  -1.272  0.00  0.00     0.115 C 
INPUT-LIGAND-PDBQT: BRANCH  31  32
INPUT-LIGAND-PDBQT: ATOM     32  C   UNL d   1       2.237  34.239  -1.627  0.00  0.00     0.139 C 
INPUT-LIGAND-PDBQT: ATOM     33  O   UNL d   1       1.374  33.374  -1.641  0.00  0.00    -0.650 OA
INPUT-LIGAND-PDBQT: BRANCH  32  34
INPUT-LIGAND-PDBQT: ATOM     34  O   UNL d   1       1.874  35.517  -1.885  0.00  0.00    -0.776 OA
INPUT-LIGAND-PDBQT: ATOM     35  H   UNL d   1       2.467  36.277  -1.807  0.00  0.00     0.167 HD
INPUT-LIGAND-PDBQT: ENDBRANCH  32  34
INPUT-LIGAND-PDBQT: ENDBRANCH  31  32
INPUT-LIGAND-PDBQT: ENDBRANCH  30  31
INPUT-LIGAND-PDBQT: ENDBRANCH   6  30
INPUT-LIGAND-PDBQT: BRANCH  29  36
INPUT-LIGAND-PDBQT: ATOM     36  C   UNL d   1       9.893  36.149   1.011  0.00  0.00     0.190 C 
INPUT-LIGAND-PDBQT: BRANCH  36  37
INPUT-LIGAND-PDBQT: ATOM     37  O   UNL d   1      10.463  37.389   1.317  0.00  0.00    -0.399 OA
INPUT-LIGAND-PDBQT: ATOM     38  H   UNL d   1      10.901  37.258   2.204  0.00  0.00     0.209 HD
INPUT-LIGAND-PDBQT: ENDBRANCH  36  37
INPUT-LIGAND-PDBQT: ENDBRANCH  29  36
INPUT-LIGAND-PDBQT: BRANCH  22  39
INPUT-LIGAND-PDBQT: ATOM     39  C   UNL d   1       6.906  37.586  -3.991  0.00  0.00     0.052 C 
INPUT-LIGAND-PDBQT: BRANCH  39  40
INPUT-LIGAND-PDBQT: ATOM     40  C   UNL d   1       6.343  36.659  -5.081  0.00  0.00     0.115 C 
INPUT-LIGAND-PDBQT: BRANCH  40  41
INPUT-LIGAND-PDBQT: ATOM     41  C   UNL d   1       5.088  37.175  -5.753  0.00  0.00     0.139 C 
INPUT-LIGAND-PDBQT: ATOM     42  O   UNL d   1       4.969  37.063  -6.965  0.00  0.00    -0.650 OA
INPUT-LIGAND-PDBQT: BRANCH  41  43
INPUT-LIGAND-PDBQT: ATOM     43  O   UNL d   1       4.056  37.678  -5.040  0.00  0.00    -0.776 OA
INPUT-LIGAND-PDBQT: ATOM     44  H   UNL d   1       4.103  37.816  -4.085  0.00  0.00     0.167 HD
INPUT-LIGAND-PDBQT: ENDBRANCH  41  43
INPUT-LIGAND-PDBQT: ENDBRANCH  40  41
INPUT-LIGAND-PDBQT: ENDBRANCH  39  40
INPUT-LIGAND-PDBQT: ENDBRANCH  22  39
INPUT-LIGAND-PDBQT: BRANCH  12  45
INPUT-LIGAND-PDBQT: ATOM     45  C   UNL d   1      12.932  31.471   3.247  0.00  0.00     0.004 C 
INPUT-LIGAND-PDBQT: ATOM     46  C   UNL d   1      13.165  30.727   4.325  0.00  0.00     0.012 C 
INPUT-LIGAND-PDBQT: ENDBRANCH  12  45
INPUT-LIGAND-PDBQT: BRANCH  17  47
INPUT-LIGAND-PDBQT: ATOM     47  C   UNL d   1      14.559  36.745  -2.286  0.00  0.00     0.004 C 
INPUT-LIGAND-PDBQT: ATOM     48  C   UNL d   1      15.750  37.188  -1.876  0.00  0.00     0.012 C 
INPUT-LIGAND-PDBQT: ENDBRANCH  17  47
INPUT-LIGAND-PDBQT: TORSDOF 12
________________________________________________________________________________

Total charge on ligand                               =	-2.002 e
REMARK  12 active torsions:
REMARK  status: ('A' for Active; 'I' for Inactive)
REMARK    1  A    between atoms: C_6  and  C_10 
REMARK    2  A    between atoms: C_10  and  C_11 
REMARK    3  A    between atoms: C_11  and  C_12 
REMARK    4  A    between atoms: C_12  and  O_14 
REMARK    5  A    between atoms: C_17  and  C_20 
REMARK    6  A    between atoms: C_24  and  C_27 
REMARK    7  A    between atoms: C_31  and  C_34 
REMARK    8  A    between atoms: C_34  and  C_35 
REMARK    9  A    between atoms: C_35  and  C_36 
REMARK   10  A    between atoms: C_36  and  O_38 
REMARK   11  A    between atoms: FE_43  and  C_44 
REMARK   12  A    between atoms: C_44  and  O_45 


Number of Rotatable Bonds in Small Molecule =	12 torsions
Number of atoms in ligand:  48

Number of non-hydrogen atoms in ligand:  45

Number of vibrational degrees of freedom of ligand:  138


Number of torsional degrees of freedom = 12
Estimated loss of torsional free energy upon binding = +3.5796 kcal/mol


DPF> about 8.781 34.984 -0.736            # small molecule center

Small molecule center of rotation =	(+8.781, +34.984, -0.736)

DPF> tran0 random                         # initial coordinates/A or random

Initial translation =			(-12.000, 41.628, 18.653) Angstroms
DPF> quaternion0 random                   # initial orientation

Each run will begin with a new, random initial orientation.
Initial quaternion,  (x,y,z,w) =	( 0.125, -0.929, -0.299, -0.179 ),
DPF> dihe0 random                         # initial dihedrals (relative) or random

DPF> torsdof 12                            # torsional degrees of freedom

Number of torsional degrees of freedom = 12
Free energy coefficient for torsional degrees of freedom = 0.2983, the factory default value.

Estimated loss of torsional free energy upon binding = +3.5796 kcal/mol

DPF> rmstol 2.0                           # cluster_tolerance/A

Maximum RMS tolerance for conformational cluster analysis = 2.00 Angstroms
DPF> extnrg 1000.0                        # external grid energy

External grid energy (beyond grid map walls) = 1000.00

DPF> e0max 0.0 10000                      # max initial energy; max number of retries

Using user-specified maximum number of retries for simanneal initialization, 10000 retries.
If the simanneal initial energy is greater than e0max, 0.000,
then a new, random initial state will be created.

DPF> ga_pop_size 150                      # number of individuals in population

A population of 150 individuals will be used
DPF> ga_num_evals 25000000                # maximum number of energy evaluations

There will be at most 25000000 function evaluations used.
DPF> ga_num_generations 27000             # maximum number of generations

The GA will run for at most 27000 generations.
DPF> ga_elitism 1                         # number of top individuals to survive to next generation

The 1 best will be preserved each GA generation.
DPF> ga_mutation_rate 0.02                # rate of gene mutation

The mutation rate is 0.020000.
DPF> ga_crossover_rate 0.8                # rate of crossover

The crossover rate is 0.800000.
DPF> ga_window_size 10                    # 

The GA's selection window is 10 generations.
DPF> ga_cauchy_alpha 0.0                  # Alpha parameter of Cauchy distribution

The alpha parameter (for the Cauchy distribution) is being set to 0.000000.
DPF> ga_cauchy_beta 1.0                   # Beta parameter Cauchy distribution

The beta parameter (for the Cauchy distribution) is being set to 1.000000.
DPF> set_ga                               # set the above parameters for GA or LGA

DPF> sw_max_its 300                       # iterations of Solis & Wets local search

Solis & Wets algorithms will perform at most 300 iterations.
DPF> sw_max_succ 4                        # consecutive successes before changing rho

Solis & Wets algorithms expand rho every 4 in a row successes.
DPF> sw_max_fail 4                        # consecutive failures before changing rho

Solis & Wets algorithms contract rho every 4 in a row failures.
DPF> sw_rho 1.0                           # size of local search space to sample

rho is set to 1.000000.
DPF> sw_lb_rho 0.01                       # lower bound on rho

rho will never get smaller than 0.010000.
DPF> ls_search_freq 0.06                  # probability of performing local search on individual

Local search will be performed with frequency 0.060000.
DPF> set_psw1                             # set the above pseudo-Solis & Wets parameters

Creating a new Local Search object using the pseudo-Solis-Wets algorithm (pSW1) with the current settings.

DPF> unbound_model bound                  # state of unbound ligand

DPF> ga_run 100                           # do this many hybrid GA-LS runs

centering ligand on specified point: 8.781 34.984 -0.736
Furthest true ligand atom from "about" center is 7.934 Angstroms (maxrad).
Number of requested GA dockings = 100 runs
Unbound model to be used is 'same as bound' [AutoDock 4.2 default].

	BEGINNING GENETIC ALGORITHM DOCKING 1 of 100
Run: 1 Seed: 550936117 126859002 [ Run 1 of 100 GA/GALS ]
Beginning LAMARCKIAN GENETIC ALGORITHM (LGA), with a maximum of 25000000 energy evaluations.

Final-Value: -9.380


	FINAL GENETIC ALGORITHM DOCKED STATE
	_______________________________________________


Detailed state:  trans -12.294 0.520 -4.336 quatxyzw -0.462279 0.871974 0.152831 -0.051005 center 8.781 34.984 -0.736 ntor 12 -147.2437 92.3292 -145.4014 129.2474 79.9080 137.1972 47.8503 170.3410 157.8643 13.9128 -162.3153 139.9604
State:	-12.294   0.520  -4.336  -0.463  0.873  0.153 -174.153   -147.24   92.33 -145.40  129.25   79.91  137.20   47.85  170.34  157.86   13.91 -162.32  139.96

DOCKED: MODEL        1
DOCKED: USER    Run = 1
DOCKED: USER    DPF = D:/Protein_go_brrr/autodock/final/mut_Y35F/heme_Co/dock.dpf
DOCKED: USER  
DOCKED: USER    Estimated Free Energy of Binding    =   -3.61 kcal/mol  [=(1)+(2)+(3)-(4)]
DOCKED: USER    Estimated Inhibition Constant, Ki   =    2.27 mM (millimolar)  [Temperature = 298.15 K]
DOCKED: USER    
DOCKED: USER    (1) Final Intermolecular Energy     =   -7.19 kcal/mol
DOCKED: USER        vdW + Hbond + desolv Energy     =   -6.88 kcal/mol
DOCKED: USER        Electrostatic Energy            =   -0.31 kcal/mol
DOCKED: USER    (2) Final Total Internal Energy     =   -2.19 kcal/mol
DOCKED: USER    (3) Torsional Free Energy           =   +3.58 kcal/mol
DOCKED: USER    (4) Unbound System's Energy  [=(2)] =   -2.19 kcal/mol
DOCKED: USER    
DOCKED: USER    
DOCKED: USER    NEWDPF move heme_Co_opt.pdbqt
DOCKED: USER    NEWDPF about 8.781000 34.984000 -0.736000
DOCKED: USER    NEWDPF tran0 -12.294468 0.519598 -4.335591
DOCKED: USER    NEWDPF quaternion0 -0.462279 0.871974 0.152831 -0.051005
DOCKED: USER    NEWDPF axisangle0 -0.462882 0.873111 0.153030 -174.152668
DOCKED: USER    NEWDPF quat0 -0.462882 0.873111 0.153030 -174.152668
DOCKED: USER    NEWDPF dihe0 -147.24 92.33 -145.40 129.25 79.91 137.20 47.85 170.34 157.86 13.91 -162.32 139.96 
DOCKED: USER  keepresnum = 1 
DOCKED: USER  
DOCKED: REMARK  12 active torsions:
DOCKED: REMARK  status: ('A' for Active; 'I' for Inactive)
DOCKED: REMARK    1  A    between atoms: C_6  and  C_10 
DOCKED: REMARK    2  A    between atoms: C_10  and  C_11 
DOCKED: REMARK    3  A    between atoms: C_11  and  C_12 
DOCKED: REMARK    4  A    between atoms: C_12  and  O_14 
DOCKED: REMARK    5  A    between atoms: C_17  and  C_20 
DOCKED: REMARK    6  A    between atoms: C_24  and  C_27 
DOCKED: REMARK    7  A    between atoms: C_31  and  C_34 
DOCKED: REMARK    8  A    between atoms: C_34  and  C_35 
DOCKED: REMARK    9  A    between atoms: C_35  and  C_36 
DOCKED: REMARK   10  A    between atoms: C_36  and  O_38 
DOCKED: REMARK   11  A    between atoms: FE_43  and  C_44 
DOCKED: REMARK   12  A    between atoms: C_44  and  O_45 
DOCKED: USER                              x       y       z     vdW  Elec       q    Type
DOCKED: USER                           _______ _______ _______ _____ _____    ______ ____
DOCKED: ROOT
DOCKED: ATOM      1  C   UNL d   1     -11.562   2.045  -2.975 -0.07 +0.00    +0.064 A 
DOCKED: ATOM      2  C   UNL d   1     -10.286   0.823  -7.389 -0.13 -0.00    +0.064 C 
DOCKED: ATOM      3  C   UNL d   1     -13.333  -2.856  -7.292 -0.17 +0.01    +0.064 A 
DOCKED: ATOM      4  C   UNL d   1     -14.931  -1.400  -2.934 -0.20 +0.01    +0.064 A 
DOCKED: ATOM      5  C   UNL d   1     -10.963   1.960  -4.174 -0.23 -0.00    +0.066 A 
DOCKED: ATOM      6  C   UNL d   1     -10.036   2.923  -4.617 -0.24 -0.00    -0.021 A 
DOCKED: ATOM      7  C   UNL d   1      -9.686   2.576  -5.907 -0.24 -0.00    -0.025 A 
DOCKED: ATOM      8  C   UNL d   1     -10.402   1.408  -6.190 -0.12 -0.00    +0.066 A 
DOCKED: ATOM      9  C   UNL d   1      -8.717   3.306  -6.849 -0.11 +0.02    +0.051 C 
DOCKED: ATOM     10  C   UNL d   1     -10.963  -0.395  -7.762 -0.05 +0.00    +0.066 A 
DOCKED: ATOM     11  C   UNL d   1     -10.776  -1.134  -8.950 -0.15 -0.00    -0.021 A 
DOCKED: ATOM     12  C   UNL d   1     -11.674  -2.203  -8.894 -0.17 +0.00    +0.000 A 
DOCKED: ATOM     13  C   UNL d   1     -12.331  -2.045  -7.674 -0.15 +0.01    +0.070 A 
DOCKED: ATOM     14  C   UNL d   1      -9.736  -0.872 -10.010 -0.14 +0.00    +0.052 C 
DOCKED: ATOM     15  C   UNL d   1     -14.152  -2.807  -6.096 -0.18 +0.01    +0.066 A 
DOCKED: ATOM     16  C   UNL d   1     -15.268  -3.587  -5.830 -0.15 -0.00    -0.021 A 
DOCKED: ATOM     17  C   UNL d   1     -15.734  -3.169  -4.575 -0.19 +0.00    +0.000 A 
DOCKED: ATOM     18  C   UNL d   1     -14.852  -2.175  -4.166 -0.22 +0.01    +0.070 A 
DOCKED: ATOM     19  C   UNL d   1     -15.828  -4.657  -6.741 -0.08 +0.00    +0.052 C 
DOCKED: ATOM     20  C   UNL d   1     -14.137  -0.370  -2.555 -0.24 +0.01    +0.066 A 
DOCKED: ATOM     21  C   UNL d   1     -14.335   0.321  -1.362 -0.23 -0.00    -0.025 A 
DOCKED: ATOM     22  C   UNL d   1     -13.360   1.302  -1.333 -0.25 -0.00    -0.021 A 
DOCKED: ATOM     23  C   UNL d   1     -12.618   1.166  -2.525 -0.24 +0.00    +0.066 A 
DOCKED: ATOM     24  C   UNL d   1     -15.413   0.073  -0.309 -0.15 +0.01    +0.051 C 
DOCKED: ATOM     25  N   UNL d   1     -11.197   1.000  -5.133 -0.16 +0.00    -0.248 N 
DOCKED: ATOM     26  N   UNL d   1     -11.861  -0.984  -6.965 -0.11 -0.03    -0.248 N 
DOCKED: ATOM     27  N   UNL d   1     -13.941  -1.964  -5.110 -0.14 -0.02    -0.248 N 
DOCKED: ATOM     28  N   UNL d   1     -13.086   0.157  -3.268 -0.19 -0.02    -0.248 N 
DOCKED: ATOM     29 FE   UNL d   1     -12.651  -0.569  -5.117 -0.05 +0.00    +0.000 Fe
DOCKED: ENDROOT
DOCKED: BRANCH   6  30
DOCKED: ATOM     30  C   UNL d   1      -9.577   4.162  -3.854 -0.25 +0.01    +0.052 C 
DOCKED: BRANCH  30  31
DOCKED: ATOM     31  C   UNL d   1     -10.635   5.263  -3.933 -0.13 +0.02    +0.115 C 
DOCKED: BRANCH  31  32
DOCKED: ATOM     32  C   UNL d   1     -11.532   5.116  -5.143 -0.06 +0.02    +0.139 C 
DOCKED: ATOM     33  O   UNL d   1     -11.149   5.528  -6.228 +0.01 -0.16    -0.650 OA
DOCKED: BRANCH  32  34
DOCKED: ATOM     34  O   UNL d   1     -12.733   4.497  -5.075 +0.05 -0.06    -0.776 OA
DOCKED: ATOM     35  H   UNL d   1     -13.149   4.035  -5.816 +0.02 +0.01    +0.167 HD
DOCKED: ENDBRANCH  32  34
DOCKED: ENDBRANCH  31  32
DOCKED: ENDBRANCH  30  31
DOCKED: ENDBRANCH   6  30
DOCKED: BRANCH  29  36
DOCKED: ATOM     36  C   UNL d   1     -13.974   0.801  -5.992 -0.04 +0.01    +0.190 C 
DOCKED: BRANCH  36  37
DOCKED: ATOM     37  O   UNL d   1     -14.179   2.167  -6.214 +0.00 -0.02    -0.399 OA
DOCKED: ATOM     38  H   UNL d   1     -13.622   2.625  -5.523 +0.02 +0.01    +0.209 HD
DOCKED: ENDBRANCH  36  37
DOCKED: ENDBRANCH  29  36
DOCKED: BRANCH  22  39
DOCKED: ATOM     39  C   UNL d   1     -13.198   2.349  -0.247 -0.16 +0.01    +0.052 C 
DOCKED: BRANCH  39  40
DOCKED: ATOM     40  C   UNL d   1     -13.365   3.763  -0.828 -0.10 +0.01    +0.115 C 
DOCKED: BRANCH  40  41
DOCKED: ATOM     41  C   UNL d   1     -13.025   4.879   0.137 -0.12 +0.02    +0.139 C 
DOCKED: ATOM     42  O   UNL d   1     -13.537   4.887   1.247 -0.10 -0.14    -0.650 OA
DOCKED: BRANCH  41  43
DOCKED: ATOM     43  O   UNL d   1     -12.103   5.821  -0.163 -0.42 -0.11    -0.776 OA
DOCKED: ATOM     44  H   UNL d   1     -11.464   6.147   0.485 -0.05 +0.03    +0.167 HD
DOCKED: ENDBRANCH  41  43
DOCKED: ENDBRANCH  40  41
DOCKED: ENDBRANCH  39  40
DOCKED: ENDBRANCH  22  39
DOCKED: BRANCH  12  45
DOCKED: ATOM     45  C   UNL d   1     -11.971  -3.360  -9.838 -0.17 +0.00    +0.004 C 
DOCKED: ATOM     46  C   UNL d   1     -11.900  -4.675  -9.647 -0.26 +0.00    +0.012 C 
DOCKED: ENDBRANCH  12  45
DOCKED: BRANCH  17  47
DOCKED: ATOM     47  C   UNL d   1     -16.939  -3.609  -3.810 -0.17 +0.00    +0.004 C 
DOCKED: ATOM     48  C   UNL d   1     -17.159  -4.874  -3.445 -0.21 +0.00    +0.012 C 
DOCKED: ENDBRANCH  17  47
DOCKED: TORSDOF 12
DOCKED: TER
DOCKED: ENDMDL
________________________________________________________________________________


	BEGINNING GENETIC ALGORITHM DOCKING 2 of 100
Run: 2 Seed: 746849791 2144068442 [ Run 2 of 100 GA/GALS ]
Beginning LAMARCKIAN GENETIC ALGORITHM (LGA), with a maximum of 25000000 energy evaluations.

Final-Value: -10.164


	FINAL GENETIC ALGORITHM DOCKED STATE
	_______________________________________________


Detailed state:  trans 2.072 -17.134 -7.646 quatxyzw 0.933149 0.266489 0.113810 -0.212752 center 8.781 34.984 -0.736 ntor 12 -93.1671 125.6527 -70.6592 -104.4340 152.3536 95.2082 33.1672 -45.1617 -113.5906 -153.1968 167.4284 150.1776
State:	  2.072 -17.134  -7.646   0.955  0.273  0.116 -155.433    -93.17  125.65  -70.66 -104.43  152.35   95.21   33.17  -45.16 -113.59 -153.20  167.43  150.18

DOCKED: MODEL        2
DOCKED: USER    Run = 2
DOCKED: USER    DPF = D:/Protein_go_brrr/autodock/final/mut_Y35F/heme_Co/dock.dpf
DOCKED: USER  
DOCKED: USER    Estimated Free Energy of Binding    =   -3.33 kcal/mol  [=(1)+(2)+(3)-(4)]
DOCKED: USER    Estimated Inhibition Constant, Ki   =    3.61 mM (millimolar)  [Temperature = 298.15 K]
DOCKED: USER    
DOCKED: USER    (1) Final Intermolecular Energy     =   -6.91 kcal/mol
DOCKED: USER        vdW + Hbond + desolv Energy     =   -7.37 kcal/mol
DOCKED: USER        Electrostatic Energy            =   +0.46 kcal/mol
DOCKED: USER    (2) Final Total Internal Energy     =   -3.25 kcal/mol
DOCKED: USER    (3) Torsional Free Energy           =   +3.58 kcal/mol
DOCKED: USER    (4) Unbound System's Energy  [=(2)] =   -3.25 kcal/mol
DOCKED: USER    
DOCKED: USER    
DOCKED: USER    NEWDPF move heme_Co_opt.pdbqt
DOCKED: USER    NEWDPF about 8.781000 34.984000 -0.736000
DOCKED: USER    NEWDPF tran0 2.072379 -17.133804 -7.645818
DOCKED: USER    NEWDPF quaternion0 0.933149 0.266489 0.113810 -0.212752
DOCKED: USER    NEWDPF axisangle0 0.955013 0.272733 0.116477 -155.432654
DOCKED: USER    NEWDPF quat0 0.955013 0.272733 0.116477 -155.432654
DOCKED: USER    NEWDPF dihe0 -93.17 125.65 -70.66 -104.43 152.35 95.21 33.17 -45.16 -113.59 -153.20 167.43 150.18 
DOCKED: USER  keepresnum = 1 
DOCKED: USER  
DOCKED: REMARK  12 active torsions:
DOCKED: REMARK  status: ('A' for Active; 'I' for Inactive)
DOCKED: REMARK    1  A    between atoms: C_6  and  C_10 
DOCKED: REMARK    2  A    between atoms: C_10  and  C_11 
DOCKED: REMARK    3  A    between atoms: C_11  and  C_12 
DOCKED: REMARK    4  A    between atoms: C_12  and  O_14 
DOCKED: REMARK    5  A    between atoms: C_17  and  C_20 
DOCKED: REMARK    6  A    between atoms: C_24  and  C_27 
DOCKED: REMARK    7  A    between atoms: C_31  and  C_34 
DOCKED: REMARK    8  A    between atoms: C_34  and  C_35 
DOCKED: REMARK    9  A    between atoms: C_35  and  C_36 
DOCKED: REMARK   10  A    between atoms: C_36  and  O_38 
DOCKED: REMARK   11  A    between atoms: FE_43  and  C_44 
DOCKED: REMARK   12  A    between atoms: C_44  and  O_45 
DOCKED: USER                              x       y       z     vdW  Elec       q    Type
DOCKED: USER                           _______ _______ _______ _____ _____    ______ ____
DOCKED: ROOT
DOCKED: ATOM      1  C   UNL d   1       0.409 -18.287  -6.858 -0.17 -0.05    +0.064 A 
DOCKED: ATOM      2  C   UNL d   1       1.480 -16.815 -11.251 -0.22 -0.01    +0.064 C 
DOCKED: ATOM      3  C   UNL d   1       5.231 -14.384  -9.563 -0.26 -0.02    +0.064 A 
DOCKED: ATOM      4  C   UNL d   1       4.385 -16.186  -5.125 -0.22 -0.02    +0.064 A 
DOCKED: ATOM      5  C   UNL d   1       0.405 -18.034  -8.177 -0.28 -0.03    +0.066 A 
DOCKED: ATOM      6  C   UNL d   1      -0.521 -18.637  -9.051 -0.29 +0.01    -0.021 A 
DOCKED: ATOM      7  C   UNL d   1      -0.191 -18.224 -10.327 -0.26 +0.00    -0.025 A 
DOCKED: ATOM      8  C   UNL d   1       0.910 -17.375 -10.176 -0.24 -0.02    +0.066 A 
DOCKED: ATOM      9  C   UNL d   1      -0.877 -18.606 -11.647 -0.25 +0.01    +0.051 C 
DOCKED: ATOM     10  C   UNL d   1       2.599 -15.908 -11.191 -0.19 -0.02    +0.066 A 
DOCKED: ATOM     11  C   UNL d   1       3.153 -15.179 -12.266 -0.16 +0.01    -0.021 A 
DOCKED: ATOM     12  C   UNL d   1       4.242 -14.476 -11.745 -0.22 -0.00    +0.000 A 
DOCKED: ATOM     13  C   UNL d   1       4.265 -14.817 -10.393 -0.23 -0.03    +0.070 A 
DOCKED: ATOM     14  C   UNL d   1       2.603 -15.100 -13.667 -0.11 -0.01    +0.052 C 
DOCKED: ATOM     15  C   UNL d   1       5.437 -14.678  -8.159 -0.23 -0.03    +0.066 A 
DOCKED: ATOM     16  C   UNL d   1       6.537 -14.315  -7.394 -0.17 +0.01    -0.021 A 
DOCKED: ATOM     17  C   UNL d   1       6.299 -14.835  -6.114 -0.17 -0.00    +0.000 A 
DOCKED: ATOM     18  C   UNL d   1       5.060 -15.461  -6.194 -0.22 -0.03    +0.070 A 
DOCKED: ATOM     19  C   UNL d   1       7.725 -13.522  -7.890 -0.19 -0.05    +0.052 C 
DOCKED: ATOM     20  C   UNL d   1       3.222 -16.876  -5.202 -0.24 -0.02    +0.066 A 
DOCKED: ATOM     21  C   UNL d   1       2.691 -17.564  -4.113 -0.23 +0.01    -0.025 A 
DOCKED: ATOM     22  C   UNL d   1       1.530 -18.156  -4.575 -0.27 +0.01    -0.021 A 
DOCKED: ATOM     23  C   UNL d   1       1.415 -17.807  -5.938 -0.28 -0.04    +0.066 A 
DOCKED: ATOM     24  C   UNL d   1       3.272 -17.670  -2.706 -0.27 -0.01    +0.051 C 
DOCKED: ATOM     25  N   UNL d   1       1.298 -17.234  -8.854 +0.02 +0.12    -0.248 N 
DOCKED: ATOM     26  N   UNL d   1       3.238 -15.638 -10.048 -0.14 +0.11    -0.248 N 
DOCKED: ATOM     27  N   UNL d   1       4.590 -15.374  -7.434 -0.16 +0.11    -0.248 N 
DOCKED: ATOM     28  N   UNL d   1       2.438 -17.034  -6.322 -0.02 +0.13    -0.248 N 
DOCKED: ATOM     29 FE   UNL d   1       3.040 -16.250  -8.099 -0.04 -0.00    +0.000 Fe
DOCKED: ENDROOT
DOCKED: BRANCH   6  30
DOCKED: ATOM     30  C   UNL d   1      -1.616 -19.628  -8.672 -0.28 -0.02    +0.052 C 
DOCKED: BRANCH  30  31
DOCKED: ATOM     31  C   UNL d   1      -1.268 -21.030  -9.170 -0.12 -0.02    +0.115 C 
DOCKED: BRANCH  31  32
DOCKED: ATOM     32  C   UNL d   1      -0.030 -21.588  -8.502 -0.05 -0.04    +0.139 C 
DOCKED: ATOM     33  O   UNL d   1       1.052 -21.490  -9.062 +0.03 +0.10    -0.650 OA
DOCKED: BRANCH  32  34
DOCKED: ATOM     34  O   UNL d   1      -0.071 -22.155  -7.274 +0.02 +0.27    -0.776 OA
DOCKED: ATOM     35  H   UNL d   1       0.153 -21.694  -6.454 -0.00 -0.09    +0.167 HD
DOCKED: ENDBRANCH  32  34
DOCKED: ENDBRANCH  31  32
DOCKED: ENDBRANCH  30  31
DOCKED: ENDBRANCH   6  30
DOCKED: BRANCH  29  36
DOCKED: ATOM     36  C   UNL d   1       4.090 -18.009  -8.546 -0.06 -0.05    +0.190 C 
DOCKED: BRANCH  36  37
DOCKED: ATOM     37  O   UNL d   1       4.142 -19.377  -8.264 +0.00 +0.07    -0.399 OA
DOCKED: ATOM     38  H   UNL d   1       3.288 -19.574  -7.786 +0.03 -0.05    +0.209 HD
DOCKED: ENDBRANCH  36  37
DOCKED: ENDBRANCH  29  36
DOCKED: BRANCH  22  39
DOCKED: ATOM     39  C   UNL d   1       0.620 -19.059  -3.764 -0.30 -0.03    +0.052 C 
DOCKED: BRANCH  39  40
DOCKED: ATOM     40  C   UNL d   1       0.740 -20.517  -4.239 -0.14 -0.06    +0.115 C 
DOCKED: BRANCH  40  41
DOCKED: ATOM     41  C   UNL d   1       2.019 -20.827  -4.988 -0.06 -0.04    +0.139 C 
DOCKED: ATOM     42  O   UNL d   1       2.982 -21.262  -4.372 +0.03 +0.10    -0.650 OA
DOCKED: BRANCH  41  43
DOCKED: ATOM     43  O   UNL d   1       2.098 -20.720  -6.333 +0.05 +0.24    -0.776 OA
DOCKED: ATOM     44  H   UNL d   1       1.581 -21.276  -6.929 +0.02 -0.05    +0.167 HD
DOCKED: ENDBRANCH  41  43
DOCKED: ENDBRANCH  40  41
DOCKED: ENDBRANCH  39  40
DOCKED: ENDBRANCH  22  39
DOCKED: BRANCH  12  45
DOCKED: ATOM     45  C   UNL d   1       5.247 -13.512 -12.362 -0.17 -0.00    +0.004 C 
DOCKED: ATOM     46  C   UNL d   1       6.555 -13.640 -12.569 -0.13 -0.00    +0.012 C 
DOCKED: ENDBRANCH  12  45
DOCKED: BRANCH  17  47
DOCKED: ATOM     47  C   UNL d   1       7.166 -14.810  -4.898 -0.25 -0.00    +0.004 C 
DOCKED: ATOM     48  C   UNL d   1       6.735 -14.429  -3.693 -0.31 -0.01    +0.012 C 
DOCKED: ENDBRANCH  17  47
DOCKED: TORSDOF 12
DOCKED: TER
DOCKED: ENDMDL
________________________________________________________________________________


	BEGINNING GENETIC ALGORITHM DOCKING 3 of 100
Run: 3 Seed: 1543875316 1028002523 [ Run 3 of 100 GA/GALS ]
Beginning LAMARCKIAN GENETIC ALGORITHM (LGA), with a maximum of 25000000 energy evaluations.

Final-Value: -9.273


	FINAL GENETIC ALGORITHM DOCKED STATE
	_______________________________________________


Detailed state:  trans -17.411 3.103 5.900 quatxyzw 0.196001 -0.977892 -0.070095 0.019957 center 8.781 34.984 -0.736 ntor 12 -155.5042 101.3249 -120.4789 94.8773 136.0162 127.9292 50.1535 -95.4108 152.1545 -25.7983 -151.6119 1.6069
State:	-17.411   3.103   5.900   0.196 -0.978 -0.070 177.713   -155.50  101.32 -120.48   94.88  136.02  127.93   50.15  -95.41  152.15  -25.80 -151.61    1.61

DOCKED: MODEL        3
DOCKED: USER    Run = 3
DOCKED: USER    DPF = D:/Protein_go_brrr/autodock/final/mut_Y35F/heme_Co/dock.dpf
DOCKED: USER  
DOCKED: USER    Estimated Free Energy of Binding    =   -3.46 kcal/mol  [=(1)+(2)+(3)-(4)]
DOCKED: USER    Estimated Inhibition Constant, Ki   =    2.91 mM (millimolar)  [Temperature = 298.15 K]
DOCKED: USER    
DOCKED: USER    (1) Final Intermolecular Energy     =   -7.04 kcal/mol
DOCKED: USER        vdW + Hbond + desolv Energy     =   -4.76 kcal/mol
DOCKED: USER        Electrostatic Energy            =   -2.28 kcal/mol
DOCKED: USER    (2) Final Total Internal Energy     =   -2.23 kcal/mol
DOCKED: USER    (3) Torsional Free Energy           =   +3.58 kcal/mol
DOCKED: USER    (4) Unbound System's Energy  [=(2)] =   -2.23 kcal/mol
DOCKED: USER    
DOCKED: USER    
DOCKED: USER    NEWDPF move heme_Co_opt.pdbqt
DOCKED: USER    NEWDPF about 8.781000 34.984000 -0.736000
DOCKED: USER    NEWDPF tran0 -17.411119 3.102683 5.899539
DOCKED: USER    NEWDPF quaternion0 0.196001 -0.977892 -0.070095 0.019957
DOCKED: USER    NEWDPF axisangle0 0.196040 -0.978086 -0.070109 177.712951
DOCKED: USER    NEWDPF quat0 0.196040 -0.978086 -0.070109 177.712951
DOCKED: USER    NEWDPF dihe0 -155.50 101.32 -120.48 94.88 136.02 127.93 50.15 -95.41 152.15 -25.80 -151.61 1.61 
DOCKED: USER  keepresnum = 1 
DOCKED: USER  
DOCKED: REMARK  12 active torsions:
DOCKED: REMARK  status: ('A' for Active; 'I' for Inactive)
DOCKED: REMARK    1  A    between atoms: C_6  and  C_10 
DOCKED: REMARK    2  A    between atoms: C_10  and  C_11 
DOCKED: REMARK    3  A    between atoms: C_11  and  C_12 
DOCKED: REMARK    4  A    between atoms: C_12  and  O_14 
DOCKED: REMARK    5  A    between atoms: C_17  and  C_20 
DOCKED: REMARK    6  A    between atoms: C_24  and  C_27 
DOCKED: REMARK    7  A    between atoms: C_31  and  C_34 
DOCKED: REMARK    8  A    between atoms: C_34  and  C_35 
DOCKED: REMARK    9  A    between atoms: C_35  and  C_36 
DOCKED: REMARK   10  A    between atoms: C_36  and  O_38 
DOCKED: REMARK   11  A    between atoms: FE_43  and  C_44 
DOCKED: REMARK   12  A    between atoms: C_44  and  O_45 
DOCKED: USER                              x       y       z     vdW  Elec       q    Type
DOCKED: USER                           _______ _______ _______ _____ _____    ______ ____
DOCKED: ROOT
DOCKED: ATOM      1  C   UNL d   1     -15.829   4.172   6.934 -0.14 +0.06    +0.064 A 
DOCKED: ATOM      2  C   UNL d   1     -15.920   1.804   2.811 -0.16 +0.01    +0.064 C 
DOCKED: ATOM      3  C   UNL d   1     -20.417   0.430   3.656 -0.10 +0.01    +0.064 A 
DOCKED: ATOM      4  C   UNL d   1     -20.480   3.157   7.684 -0.08 +0.01    +0.064 A 
DOCKED: ATOM      5  C   UNL d   1     -15.511   3.596   5.762 -0.04 +0.03    +0.066 A 
DOCKED: ATOM      6  C   UNL d   1     -14.273   3.822   5.130 -0.18 -0.01    -0.021 A 
DOCKED: ATOM      7  C   UNL d   1     -14.314   3.151   3.923 -0.20 -0.01    -0.025 A 
DOCKED: ATOM      8  C   UNL d   1     -15.567   2.531   3.879 -0.16 +0.02    +0.066 A 
DOCKED: ATOM      9  C   UNL d   1     -13.223   3.088   2.843 -0.31 +0.01    +0.051 C 
DOCKED: ATOM     10  C   UNL d   1     -17.176   1.109   2.687 -0.13 +0.01    +0.066 A 
DOCKED: ATOM     11  C   UNL d   1     -17.550   0.217   1.658 -0.14 -0.00    -0.021 A 
DOCKED: ATOM     12  C   UNL d   1     -18.864  -0.171   1.931 -0.11 +0.00    +0.000 A 
DOCKED: ATOM     13  C   UNL d   1     -19.190   0.500   3.110 -0.11 +0.01    +0.070 A 
DOCKED: ATOM     14  C   UNL d   1     -16.661  -0.289   0.551 -0.19 +0.01    +0.052 C 
DOCKED: ATOM     15  C   UNL d   1     -20.939   1.095   4.834 -0.09 +0.01    +0.066 A 
DOCKED: ATOM     16  C   UNL d   1     -22.259   1.095   5.262 -0.07 -0.00    -0.021 A 
DOCKED: ATOM     17  C   UNL d   1     -22.283   1.882   6.422 -0.07 +0.00    +0.000 A 
DOCKED: ATOM     18  C   UNL d   1     -20.967   2.288   6.620 -0.09 +0.01    +0.070 A 
DOCKED: ATOM     19  C   UNL d   1     -23.402   0.378   4.579 -0.02 +0.00    +0.052 C 
DOCKED: ATOM     20  C   UNL d   1     -19.223   3.634   7.847 -0.08 +0.02    +0.066 A 
DOCKED: ATOM     21  C   UNL d   1     -18.883   4.493   8.891 -0.09 -0.01    -0.025 A 
DOCKED: ATOM     22  C   UNL d   1     -17.542   4.779   8.717 -0.12 -0.01    -0.021 A 
DOCKED: ATOM     23  C   UNL d   1     -17.129   4.085   7.560 -0.19 +0.04    +0.066 A 
DOCKED: ATOM     24  C   UNL d   1     -19.797   5.031   9.989 -0.04 +0.01    +0.051 C 
DOCKED: ATOM     25  N   UNL d   1     -16.328   2.785   5.008 -0.12 -0.07    -0.248 N 
DOCKED: ATOM     26  N   UNL d   1     -18.150   1.229   3.596 -0.09 -0.05    -0.248 N 
DOCKED: ATOM     27  N   UNL d   1     -20.200   1.826   5.638 +0.03 -0.02    -0.248 N 
DOCKED: ATOM     28  N   UNL d   1     -18.144   3.393   7.029 -0.06 -0.10    -0.248 N 
DOCKED: ATOM     29 FE   UNL d   1     -18.379   2.278   5.345 -0.04 +0.00    +0.000 Fe
DOCKED: ENDROOT
DOCKED: BRANCH   6  30
DOCKED: ATOM     30  C   UNL d   1     -13.143   4.712   5.635 -0.27 +0.05    +0.052 C 
DOCKED: BRANCH  30  31
DOCKED: ATOM     31  C   UNL d   1     -13.564   6.181   5.611 -0.13 +0.08    +0.115 C 
DOCKED: BRANCH  31  32
DOCKED: ATOM     32  C   UNL d   1     -14.568   6.476   4.518 -0.07 +0.05    +0.139 C 
DOCKED: ATOM     33  O   UNL d   1     -14.180   6.619   3.368 +0.03 -0.16    -0.650 OA
DOCKED: BRANCH  32  34
DOCKED: ATOM     34  O   UNL d   1     -15.898   6.540   4.762 +0.05 -0.23    -0.776 OA
DOCKED: ATOM     35  H   UNL d   1     -16.580   6.443   4.084 +0.01 +0.03    +0.167 HD
DOCKED: ENDBRANCH  32  34
DOCKED: ENDBRANCH  31  32
DOCKED: ENDBRANCH  30  31
DOCKED: ENDBRANCH   6  30
DOCKED: BRANCH  29  36
DOCKED: ATOM     36  C   UNL d   1     -18.866   3.997   4.248 -0.03 +0.03    +0.190 C 
DOCKED: BRANCH  36  37
DOCKED: ATOM     37  O   UNL d   1     -18.390   5.262   3.888 +0.01 -0.06    -0.399 OA
DOCKED: ATOM     38  H   UNL d   1     -17.602   5.417   4.480 +0.02 +0.04    +0.209 HD
DOCKED: ENDBRANCH  36  37
DOCKED: ENDBRANCH  29  36
DOCKED: BRANCH  22  39
DOCKED: ATOM     39  C   UNL d   1     -16.724   5.721   9.581 -0.10 +0.04    +0.052 C 
DOCKED: BRANCH  39  40
DOCKED: ATOM     40  C   UNL d   1     -15.830   4.930  10.550 -0.17 +0.12    +0.115 C 
DOCKED: BRANCH  40  41
DOCKED: ATOM     41  C   UNL d   1     -14.521   5.612  10.890 -0.18 +0.21    +0.139 C 
DOCKED: ATOM     42  O   UNL d   1     -14.515   6.812  11.124 -0.09 -1.10    -0.650 OA
DOCKED: BRANCH  41  43
DOCKED: ATOM     43  O   UNL d   1     -13.372   4.914  11.029 -0.42 -1.63    -0.776 OA
DOCKED: ATOM     44  H   UNL d   1     -12.909   4.839  11.874 +0.06 +0.26    +0.167 HD
DOCKED: ENDBRANCH  41  43
DOCKED: ENDBRANCH  40  41
DOCKED: ENDBRANCH  39  40
DOCKED: ENDBRANCH  22  39
DOCKED: BRANCH  12  45
DOCKED: ATOM     45  C   UNL d   1     -19.837  -1.108   1.229 -0.08 +0.00    +0.004 C 
DOCKED: ATOM     46  C   UNL d   1     -20.004  -2.424   1.337 -0.13 +0.00    +0.012 C 
DOCKED: ENDBRANCH  12  45
DOCKED: BRANCH  17  47
DOCKED: ATOM     47  C   UNL d   1     -23.438   2.288   7.276 -0.03 +0.00    +0.004 C 
DOCKED: ATOM     48  C   UNL d   1     -23.594   1.892   8.542 -0.03 +0.00    +0.012 C 
DOCKED: ENDBRANCH  17  47
DOCKED: TORSDOF 12
DOCKED: TER
DOCKED: ENDMDL
________________________________________________________________________________


	BEGINNING GENETIC ALGORITHM DOCKING 4 of 100
Run: 4 Seed: 261506570 1426213636 [ Run 4 of 100 GA/GALS ]
Beginning LAMARCKIAN GENETIC ALGORITHM (LGA), with a maximum of 25000000 energy evaluations.

Final-Value: -9.080


	FINAL GENETIC ALGORITHM DOCKED STATE
	_______________________________________________


Detailed state:  trans 8.365 1.777 12.659 quatxyzw 0.116878 0.326644 0.932818 -0.097434 center 8.781 34.984 -0.736 ntor 12 -54.3155 93.6388 -154.7129 9.5016 112.0332 87.1319 70.2880 117.8613 -103.2606 145.9146 -7.6663 173.3530
State:	  8.365   1.777  12.659   0.117  0.328  0.937 -168.817    -54.32   93.64 -154.71    9.50  112.03   87.13   70.29  117.86 -103.26  145.91   -7.67  173.35

DOCKED: MODEL        4
DOCKED: USER    Run = 4
DOCKED: USER    DPF = D:/Protein_go_brrr/autodock/final/mut_Y35F/heme_Co/dock.dpf
DOCKED: USER  
DOCKED: USER    Estimated Free Energy of Binding    =   -3.36 kcal/mol  [=(1)+(2)+(3)-(4)]
DOCKED: USER    Estimated Inhibition Constant, Ki   =    3.42 mM (millimolar)  [Temperature = 298.15 K]
DOCKED: USER    
DOCKED: USER    (1) Final Intermolecular Energy     =   -6.94 kcal/mol
DOCKED: USER        vdW + Hbond + desolv Energy     =   -5.86 kcal/mol
DOCKED: USER        Electrostatic Energy            =   -1.09 kcal/mol
DOCKED: USER    (2) Final Total Internal Energy     =   -2.14 kcal/mol
DOCKED: USER    (3) Torsional Free Energy           =   +3.58 kcal/mol
DOCKED: USER    (4) Unbound System's Energy  [=(2)] =   -2.14 kcal/mol
DOCKED: USER    
DOCKED: USER    
DOCKED: USER    NEWDPF move heme_Co_opt.pdbqt
DOCKED: USER    NEWDPF about 8.781000 34.984000 -0.736000
DOCKED: USER    NEWDPF tran0 8.364614 1.777304 12.659256
DOCKED: USER    NEWDPF quaternion0 0.116878 0.326644 0.932818 -0.097434
DOCKED: USER    NEWDPF axisangle0 0.117437 0.328206 0.937278 -168.817146
DOCKED: USER    NEWDPF quat0 0.117437 0.328206 0.937278 -168.817146
DOCKED: USER    NEWDPF dihe0 -54.32 93.64 -154.71 9.50 112.03 87.13 70.29 117.86 -103.26 145.91 -7.67 173.35 
DOCKED: USER  keepresnum = 1 
DOCKED: USER  
DOCKED: REMARK  12 active torsions:
DOCKED: REMARK  status: ('A' for Active; 'I' for Inactive)
DOCKED: REMARK    1  A    between atoms: C_6  and  C_10 
DOCKED: REMARK    2  A    between atoms: C_10  and  C_11 
DOCKED: REMARK    3  A    between atoms: C_11  and  C_12 
DOCKED: REMARK    4  A    between atoms: C_12  and  O_14 
DOCKED: REMARK    5  A    between atoms: C_17  and  C_20 
DOCKED: REMARK    6  A    between atoms: C_24  and  C_27 
DOCKED: REMARK    7  A    between atoms: C_31  and  C_34 
DOCKED: REMARK    8  A    between atoms: C_34  and  C_35 
DOCKED: REMARK    9  A    between atoms: C_35  and  C_36 
DOCKED: REMARK   10  A    between atoms: C_36  and  O_38 
DOCKED: REMARK   11  A    between atoms: FE_43  and  C_44 
DOCKED: REMARK   12  A    between atoms: C_44  and  O_45 
DOCKED: USER                              x       y       z     vdW  Elec       q    Type
DOCKED: USER                           _______ _______ _______ _____ _____    ______ ____
DOCKED: ROOT
DOCKED: ATOM      1  C   UNL d   1       9.918   0.396  12.031 -0.08 +0.03    +0.064 A 
DOCKED: ATOM      2  C   UNL d   1      10.050   4.954  13.379 -0.07 +0.04    +0.064 C 
DOCKED: ATOM      3  C   UNL d   1       5.280   5.054  13.640 -0.23 +0.01    +0.064 A 
DOCKED: ATOM      4  C   UNL d   1       5.139   0.296  12.639 -0.15 -0.02    +0.064 A 
DOCKED: ATOM      5  C   UNL d   1      10.302   1.644  12.345 -0.07 +0.05    +0.066 A 
DOCKED: ATOM      6  C   UNL d   1      11.660   2.004  12.449 -0.08 -0.01    -0.021 A 
DOCKED: ATOM      7  C   UNL d   1      11.693   3.321  12.863 -0.06 -0.02    -0.025 A 
DOCKED: ATOM      8  C   UNL d   1      10.355   3.714  12.977 -0.06 +0.06    +0.066 A 
DOCKED: ATOM      9  C   UNL d   1      12.928   4.190  13.145 -0.03 +0.02    +0.051 C 
DOCKED: ATOM     10  C   UNL d   1       8.704   5.455  13.501 -0.09 +0.03    +0.066 A 
DOCKED: ATOM     11  C   UNL d   1       8.320   6.785  13.781 -0.11 -0.01    -0.021 A 
DOCKED: ATOM     12  C   UNL d   1       6.924   6.786  13.848 -0.20 +0.00    +0.000 A 
DOCKED: ATOM     13  C   UNL d   1       6.560   5.464  13.591 -0.17 +0.02    +0.070 A 
DOCKED: ATOM     14  C   UNL d   1       9.239   7.976  13.879 -0.10 +0.02    +0.052 C 
DOCKED: ATOM     15  C   UNL d   1       4.733   3.724  13.455 -0.14 +0.01    +0.066 A 
DOCKED: ATOM     16  C   UNL d   1       3.416   3.340  13.662 -0.25 +0.00    -0.021 A 
DOCKED: ATOM     17  C   UNL d   1       3.370   1.968  13.377 -0.21 -0.00    +0.000 A 
DOCKED: ATOM     18  C   UNL d   1       4.665   1.626  13.000 -0.14 -0.01    +0.070 A 
DOCKED: ATOM     19  C   UNL d   1       2.295   4.254  14.107 -0.40 +0.00    +0.052 C 
DOCKED: ATOM     20  C   UNL d   1       6.409  -0.078  12.354 -0.11 -0.01    +0.066 A 
DOCKED: ATOM     21  C   UNL d   1       6.747  -1.396  12.056 -0.14 +0.01    -0.025 A 
DOCKED: ATOM     22  C   UNL d   1       8.115  -1.392  11.847 -0.11 -0.00    -0.021 A 
DOCKED: ATOM     23  C   UNL d   1       8.548  -0.063  12.042 -0.11 +0.02    +0.066 A 
DOCKED: ATOM     24  C   UNL d   1       5.818  -2.605  11.993 -0.21 -0.03    +0.051 C 
DOCKED: ATOM     25  N   UNL d   1       9.472   2.696  12.657 -0.05 -0.20    -0.248 N 
DOCKED: ATOM     26  N   UNL d   1       7.633   4.673  13.326 -0.07 -0.10    -0.248 N 
DOCKED: ATOM     27  N   UNL d   1       5.456   2.690  13.088 -0.09 -0.02    -0.248 N 
DOCKED: ATOM     28  N   UNL d   1       7.519   0.735  12.351 -0.06 -0.05    -0.248 N 
DOCKED: ATOM     29 FE   UNL d   1       7.344   2.690  12.883 -0.02 +0.00    +0.000 Fe
DOCKED: ENDROOT
DOCKED: BRANCH   6  30
DOCKED: ATOM     30  C   UNL d   1      12.862   1.089  12.239 -0.06 +0.02    +0.052 C 
DOCKED: BRANCH  30  31
DOCKED: ATOM     31  C   UNL d   1      13.099   0.848  10.748 -0.10 +0.06    +0.115 C 
DOCKED: BRANCH  31  32
DOCKED: ATOM     32  C   UNL d   1      13.714   2.048  10.060 -0.09 +0.09    +0.139 C 
DOCKED: ATOM     33  O   UNL d   1      13.122   3.117  10.073 -0.59 -0.82    -0.650 OA
DOCKED: BRANCH  32  34
DOCKED: ATOM     34  O   UNL d   1      14.929   1.990   9.466 +0.04 -0.30    -0.776 OA
DOCKED: ATOM     35  H   UNL d   1      15.746   1.749   9.923 +0.01 +0.04    +0.167 HD
DOCKED: ENDBRANCH  32  34
DOCKED: ENDBRANCH  31  32
DOCKED: ENDBRANCH  30  31
DOCKED: ENDBRANCH   6  30
DOCKED: BRANCH  29  36
DOCKED: ATOM     36  C   UNL d   1       7.673   2.195  14.894 -0.02 +0.02    +0.190 C 
DOCKED: BRANCH  36  37
DOCKED: ATOM     37  O   UNL d   1       8.149   1.177  15.728 +0.00 -0.02    -0.399 OA
DOCKED: ATOM     38  H   UNL d   1       8.109   0.350  15.171 +0.01 +0.01    +0.209 HD
DOCKED: ENDBRANCH  36  37
DOCKED: ENDBRANCH  29  36
DOCKED: BRANCH  22  39
DOCKED: ATOM     39  C   UNL d   1       8.962  -2.614  11.543 -0.10 +0.00    +0.052 C 
DOCKED: BRANCH  39  40
DOCKED: ATOM     40  C   UNL d   1       9.378  -3.322  12.843 -0.02 -0.00    +0.115 C 
DOCKED: BRANCH  40  41
DOCKED: ATOM     41  C   UNL d   1       9.750  -2.386  13.973 -0.01 +0.00    +0.139 C 
DOCKED: ATOM     42  O   UNL d   1      10.929  -2.226  14.254 +0.01 -0.03    -0.650 OA
DOCKED: BRANCH  41  43
DOCKED: ATOM     43  O   UNL d   1       8.819  -1.656  14.626 +0.02 +0.02    -0.776 OA
DOCKED: ATOM     44  H   UNL d   1       9.009  -0.785  14.997 +0.01 +0.00    +0.167 HD
DOCKED: ENDBRANCH  41  43
DOCKED: ENDBRANCH  40  41
DOCKED: ENDBRANCH  39  40
DOCKED: ENDBRANCH  22  39
DOCKED: BRANCH  12  45
DOCKED: ATOM     45  C   UNL d   1       5.898   7.882  14.104 -0.21 +0.00    +0.004 C 
DOCKED: ATOM     46  C   UNL d   1       6.058   9.184  14.325 -0.33 +0.00    +0.012 C 
DOCKED: ENDBRANCH  12  45
DOCKED: BRANCH  17  47
DOCKED: ATOM     47  C   UNL d   1       2.232   1.008  13.488 -0.32 -0.00    +0.004 C 
DOCKED: ATOM     48  C   UNL d   1       1.383   0.753  12.489 -0.51 -0.01    +0.012 C 
DOCKED: ENDBRANCH  17  47
DOCKED: TORSDOF 12
DOCKED: TER
DOCKED: ENDMDL
________________________________________________________________________________


	BEGINNING GENETIC ALGORITHM DOCKING 5 of 100
Run: 5 Seed: 2061242417 1806337869 [ Run 5 of 100 GA/GALS ]
Beginning LAMARCKIAN GENETIC ALGORITHM (LGA), with a maximum of 25000000 energy evaluations.

Final-Value: -10.240


	FINAL GENETIC ALGORITHM DOCKED STATE
	_______________________________________________


Detailed state:  trans 8.673 15.243 -10.447 quatxyzw 0.416873 -0.405226 0.221598 0.782881 center 8.781 34.984 -0.736 ntor 12 137.1186 108.4780 -65.0223 58.9621 93.6347 105.3868 -127.2107 -12.1213 -124.5390 -177.5596 -173.8379 -179.9172
State:	  8.673  15.243 -10.447   0.670 -0.651  0.356 76.950    137.12  108.48  -65.02   58.96   93.63  105.39 -127.21  -12.12 -124.54 -177.56 -173.84 -179.92

DOCKED: MODEL        5
DOCKED: USER    Run = 5
DOCKED: USER    DPF = D:/Protein_go_brrr/autodock/final/mut_Y35F/heme_Co/dock.dpf
DOCKED: USER  
DOCKED: USER    Estimated Free Energy of Binding    =   -2.88 kcal/mol  [=(1)+(2)+(3)-(4)]
DOCKED: USER    Estimated Inhibition Constant, Ki   =    7.72 mM (millimolar)  [Temperature = 298.15 K]
DOCKED: USER    
DOCKED: USER    (1) Final Intermolecular Energy     =   -6.46 kcal/mol
DOCKED: USER        vdW + Hbond + desolv Energy     =   -6.46 kcal/mol
DOCKED: USER        Electrostatic Energy            =   +0.00 kcal/mol
DOCKED: USER    (2) Final Total Internal Energy     =   -3.78 kcal/mol
DOCKED: USER    (3) Torsional Free Energy           =   +3.58 kcal/mol
DOCKED: USER    (4) Unbound System's Energy  [=(2)] =   -3.78 kcal/mol
DOCKED: USER    
DOCKED: USER    
DOCKED: USER    NEWDPF move heme_Co_opt.pdbqt
DOCKED: USER    NEWDPF about 8.781000 34.984000 -0.736000
DOCKED: USER    NEWDPF tran0 8.672744 15.242725 -10.446881
DOCKED: USER    NEWDPF quaternion0 0.416873 -0.405226 0.221598 0.782881
DOCKED: USER    NEWDPF axisangle0 0.670030 -0.651310 0.356169 76.949726
DOCKED: USER    NEWDPF quat0 0.670030 -0.651310 0.356169 76.949726
DOCKED: USER    NEWDPF dihe0 137.12 108.48 -65.02 58.96 93.63 105.39 -127.21 -12.12 -124.54 -177.56 -173.84 -179.92 
DOCKED: USER  keepresnum = 1 
DOCKED: USER  
DOCKED: REMARK  12 active torsions:
DOCKED: REMARK  status: ('A' for Active; 'I' for Inactive)
DOCKED: REMARK    1  A    between atoms: C_6  and  C_10 
DOCKED: REMARK    2  A    between atoms: C_10  and  C_11 
DOCKED: REMARK    3  A    between atoms: C_11  and  C_12 
DOCKED: REMARK    4  A    between atoms: C_12  and  O_14 
DOCKED: REMARK    5  A    between atoms: C_17  and  C_20 
DOCKED: REMARK    6  A    between atoms: C_24  and  C_27 
DOCKED: REMARK    7  A    between atoms: C_31  and  C_34 
DOCKED: REMARK    8  A    between atoms: C_34  and  C_35 
DOCKED: REMARK    9  A    between atoms: C_35  and  C_36 
DOCKED: REMARK   10  A    between atoms: C_36  and  O_38 
DOCKED: REMARK   11  A    between atoms: FE_43  and  C_44 
DOCKED: REMARK   12  A    between atoms: C_44  and  O_45 
DOCKED: USER                              x       y       z     vdW  Elec       q    Type
DOCKED: USER                           _______ _______ _______ _____ _____    ______ ____
DOCKED: ROOT
DOCKED: ATOM      1  C   UNL d   1       6.871  16.442 -10.267 -0.10 +0.01    +0.064 A 
DOCKED: ATOM      2  C   UNL d   1      10.629  15.873  -7.409 -0.20 -0.00    +0.064 C 
DOCKED: ATOM      3  C   UNL d   1      12.390  12.526 -10.329 -0.10 -0.02    +0.064 A 
DOCKED: ATOM      4  C   UNL d   1       8.760  13.363 -13.457 -0.13 +0.00    +0.064 A 
DOCKED: ATOM      5  C   UNL d   1       7.750  16.507  -9.254 -0.18 +0.01    +0.066 A 
DOCKED: ATOM      6  C   UNL d   1       7.619  17.442  -8.208 -0.20 -0.01    -0.021 A 
DOCKED: ATOM      7  C   UNL d   1       8.723  17.287  -7.394 -0.20 -0.00    -0.025 A 
DOCKED: ATOM      8  C   UNL d   1       9.473  16.255  -7.968 -0.22 +0.00    +0.066 A 
DOCKED: ATOM      9  C   UNL d   1       9.074  18.075  -6.123 -0.12 +0.01    +0.051 C 
DOCKED: ATOM     10  C   UNL d   1      11.454  14.804  -7.913 -0.25 -0.01    +0.066 A 
DOCKED: ATOM     11  C   UNL d   1      12.603  14.262  -7.296 -0.29 +0.00    -0.021 A 
DOCKED: ATOM     12  C   UNL d   1      13.094  13.286  -8.167 -0.28 -0.00    +0.000 A 
DOCKED: ATOM     13  C   UNL d   1      12.204  13.294  -9.241 -0.24 -0.02    +0.070 A 
DOCKED: ATOM     14  C   UNL d   1      13.123  14.603  -5.923 -0.34 -0.02    +0.052 C 
DOCKED: ATOM     15  C   UNL d   1      11.604  12.447 -11.545 -0.23 -0.01    +0.066 A 
DOCKED: ATOM     16  C   UNL d   1      11.931  11.738 -12.692 -0.20 +0.00    -0.021 A 
DOCKED: ATOM     17  C   UNL d   1      10.889  11.979 -13.598 -0.09 -0.00    +0.000 A 
DOCKED: ATOM     18  C   UNL d   1       9.996  12.805 -12.923 -0.07 -0.00    +0.070 A 
DOCKED: ATOM     19  C   UNL d   1      13.173  10.895 -12.877 -0.26 -0.01    +0.052 C 
DOCKED: ATOM     20  C   UNL d   1       7.921  14.237 -12.851 -0.20 +0.00    +0.066 A 
DOCKED: ATOM     21  C   UNL d   1       6.781  14.731 -13.481 -0.15 -0.00    -0.025 A 
DOCKED: ATOM     22  C   UNL d   1       6.200  15.599 -12.574 -0.15 -0.00    -0.021 A 
DOCKED: ATOM     23  C   UNL d   1       7.028  15.601 -11.432 -0.16 +0.01    +0.066 A 
DOCKED: ATOM     24  C   UNL d   1       6.279  14.409 -14.886 -0.09 -0.00    +0.051 C 
DOCKED: ATOM     25  N   UNL d   1       8.891  15.749  -9.118 -0.16 -0.02    -0.248 N 
DOCKED: ATOM     26  N   UNL d   1      11.182  14.173  -9.060 -0.18 +0.03    -0.248 N 
DOCKED: ATOM     27  N   UNL d   1      10.469  13.087 -11.715 -0.16 +0.02    -0.248 N 
DOCKED: ATOM     28  N   UNL d   1       8.072  14.779 -11.596 -0.16 -0.01    -0.248 N 
DOCKED: ATOM     29 FE   UNL d   1       9.724  14.339 -10.495 -0.05 -0.00    +0.000 Fe
DOCKED: ENDROOT
DOCKED: BRANCH   6  30
DOCKED: ATOM     30  C   UNL d   1       6.518  18.486  -8.056 -0.15 +0.02    +0.052 C 
DOCKED: BRANCH  30  31
DOCKED: ATOM     31  C   UNL d   1       6.913  19.788  -8.753 -0.04 +0.02    +0.115 C 
DOCKED: BRANCH  31  32
DOCKED: ATOM     32  C   UNL d   1       7.305  19.573 -10.199 -0.01 +0.01    +0.139 C 
DOCKED: ATOM     33  O   UNL d   1       6.518  19.870 -11.085 +0.01 -0.02    -0.650 OA
DOCKED: BRANCH  32  34
DOCKED: ATOM     34  O   UNL d   1       8.525  19.104 -10.549 +0.03 -0.01    -0.776 OA
DOCKED: ATOM     35  H   UNL d   1       8.672  18.394 -11.189 +0.01 +0.00    +0.167 HD
DOCKED: ENDBRANCH  32  34
DOCKED: ENDBRANCH  31  32
DOCKED: ENDBRANCH  30  31
DOCKED: ENDBRANCH   6  30
DOCKED: BRANCH  29  36
DOCKED: ATOM     36  C   UNL d   1      10.752  15.953 -11.351 -0.04 -0.01    +0.190 C 
DOCKED: BRANCH  36  37
DOCKED: ATOM     37  O   UNL d   1      10.578  17.253 -11.839 +0.00 +0.02    -0.399 OA
DOCKED: ATOM     38  H   UNL d   1       9.595  17.414 -11.794 +0.02 -0.01    +0.209 HD
DOCKED: ENDBRANCH  36  37
DOCKED: ENDBRANCH  29  36
DOCKED: BRANCH  22  39
DOCKED: ATOM     39  C   UNL d   1       4.955  16.429 -12.824 -0.10 +0.00    +0.052 C 
DOCKED: BRANCH  39  40
DOCKED: ATOM     40  C   UNL d   1       5.287  17.665 -13.676 -0.02 -0.00    +0.115 C 
DOCKED: BRANCH  40  41
DOCKED: ATOM     41  C   UNL d   1       6.757  17.820 -14.005 -0.01 -0.00    +0.139 C 
DOCKED: ATOM     42  O   UNL d   1       7.100  17.940 -15.173 +0.00 +0.02    -0.650 OA
DOCKED: BRANCH  41  43
DOCKED: ATOM     43  O   UNL d   1       7.695  17.916 -13.037 +0.02 +0.01    -0.776 OA
DOCKED: ATOM     44  H   UNL d   1       7.681  18.613 -12.367 +0.01 -0.00    +0.167 HD
DOCKED: ENDBRANCH  41  43
DOCKED: ENDBRANCH  40  41
DOCKED: ENDBRANCH  39  40
DOCKED: ENDBRANCH  22  39
DOCKED: BRANCH  12  45
DOCKED: ATOM     45  C   UNL d   1      14.284  12.338  -8.099 -0.32 -0.00    +0.004 C 
DOCKED: ATOM     46  C   UNL d   1      14.674  11.505  -7.138 -0.47 -0.00    +0.012 C 
DOCKED: ENDBRANCH  12  45
DOCKED: BRANCH  17  47
DOCKED: ATOM     47  C   UNL d   1      10.732  11.528 -15.013 -0.12 -0.00    +0.004 C 
DOCKED: ATOM     48  C   UNL d   1      10.461  10.268 -15.360 -0.14 -0.00    +0.012 C 
DOCKED: ENDBRANCH  17  47
DOCKED: TORSDOF 12
DOCKED: TER
DOCKED: ENDMDL
________________________________________________________________________________


	BEGINNING GENETIC ALGORITHM DOCKING 6 of 100
Run: 6 Seed: 2059353960 858290418 [ Run 6 of 100 GA/GALS ]
Beginning LAMARCKIAN GENETIC ALGORITHM (LGA), with a maximum of 25000000 energy evaluations.

Final-Value: -9.922


	FINAL GENETIC ALGORITHM DOCKED STATE
	_______________________________________________


Detailed state:  trans 10.259 17.228 8.324 quatxyzw 0.405988 0.816224 0.079907 -0.403196 center 8.781 34.984 -0.736 ntor 12 76.1855 122.8190 132.9116 81.0481 108.5966 92.2848 -159.4449 -38.1176 44.4821 -153.8167 -18.9572 157.1398
State:	 10.259  17.228   8.324   0.444  0.892  0.087 -132.444     76.19  122.82  132.91   81.05  108.60   92.28 -159.44  -38.12   44.48 -153.82  -18.96  157.14

DOCKED: MODEL        6
DOCKED: USER    Run = 6
DOCKED: USER    DPF = D:/Protein_go_brrr/autodock/final/mut_Y35F/heme_Co/dock.dpf
DOCKED: USER  
DOCKED: USER    Estimated Free Energy of Binding    =   -4.15 kcal/mol  [=(1)+(2)+(3)-(4)]
DOCKED: USER    Estimated Inhibition Constant, Ki   =  910.69 uM (micromolar)  [Temperature = 298.15 K]
DOCKED: USER    
DOCKED: USER    (1) Final Intermolecular Energy     =   -7.73 kcal/mol
DOCKED: USER        vdW + Hbond + desolv Energy     =   -6.28 kcal/mol
DOCKED: USER        Electrostatic Energy            =   -1.44 kcal/mol
DOCKED: USER    (2) Final Total Internal Energy     =   -2.19 kcal/mol
DOCKED: USER    (3) Torsional Free Energy           =   +3.58 kcal/mol
DOCKED: USER    (4) Unbound System's Energy  [=(2)] =   -2.19 kcal/mol
DOCKED: USER    
DOCKED: USER    
DOCKED: USER    NEWDPF move heme_Co_opt.pdbqt
DOCKED: USER    NEWDPF about 8.781000 34.984000 -0.736000
DOCKED: USER    NEWDPF tran0 10.258897 17.227860 8.324496
DOCKED: USER    NEWDPF quaternion0 0.405988 0.816224 0.079907 -0.403196
DOCKED: USER    NEWDPF axisangle0 0.443648 0.891937 0.087319 -132.443691
DOCKED: USER    NEWDPF quat0 0.443648 0.891937 0.087319 -132.443691
DOCKED: USER    NEWDPF dihe0 76.19 122.82 132.91 81.05 108.60 92.28 -159.44 -38.12 44.48 -153.82 -18.96 157.14 
DOCKED: USER  keepresnum = 1 
DOCKED: USER  
DOCKED: REMARK  12 active torsions:
DOCKED: REMARK  status: ('A' for Active; 'I' for Inactive)
DOCKED: REMARK    1  A    between atoms: C_6  and  C_10 
DOCKED: REMARK    2  A    between atoms: C_10  and  C_11 
DOCKED: REMARK    3  A    between atoms: C_11  and  C_12 
DOCKED: REMARK    4  A    between atoms: C_12  and  O_14 
DOCKED: REMARK    5  A    between atoms: C_17  and  C_20 
DOCKED: REMARK    6  A    between atoms: C_24  and  C_27 
DOCKED: REMARK    7  A    between atoms: C_31  and  C_34 
DOCKED: REMARK    8  A    between atoms: C_34  and  C_35 
DOCKED: REMARK    9  A    between atoms: C_35  and  C_36 
DOCKED: REMARK   10  A    between atoms: C_36  and  O_38 
DOCKED: REMARK   11  A    between atoms: FE_43  and  C_44 
DOCKED: REMARK   12  A    between atoms: C_44  and  O_45 
DOCKED: USER                              x       y       z     vdW  Elec       q    Type
DOCKED: USER                           _______ _______ _______ _____ _____    ______ ____
DOCKED: ROOT
DOCKED: ATOM      1  C   UNL d   1      10.611  16.316  10.264 -0.17 +0.01    +0.064 A 
DOCKED: ATOM      2  C   UNL d   1      11.285  14.747   5.826 -0.09 -0.01    +0.064 C 
DOCKED: ATOM      3  C   UNL d   1       9.260  18.706   4.078 -0.19 -0.01    +0.064 A 
DOCKED: ATOM      4  C   UNL d   1       8.910  20.501   8.586 -0.17 -0.01    +0.064 A 
DOCKED: ATOM      5  C   UNL d   1      10.911  15.581   9.181 -0.22 +0.01    +0.066 A 
DOCKED: ATOM      6  C   UNL d   1      11.596  14.354   9.277 -0.18 -0.00    -0.021 A 
DOCKED: ATOM      7  C   UNL d   1      11.809  13.914   7.986 -0.13 -0.00    -0.025 A 
DOCKED: ATOM      8  C   UNL d   1      11.231  14.882   7.157 -0.12 -0.00    +0.066 A 
DOCKED: ATOM      9  C   UNL d   1      12.528  12.634   7.532 -0.10 +0.00    +0.051 C 
DOCKED: ATOM     10  C   UNL d   1      10.697  15.678   4.896 -0.21 -0.01    +0.066 A 
DOCKED: ATOM     11  C   UNL d   1      10.597  15.522   3.496 -0.22 +0.00    -0.021 A 
DOCKED: ATOM     12  C   UNL d   1       9.999  16.689   3.012 -0.22 -0.00    +0.000 A 
DOCKED: ATOM     13  C   UNL d   1       9.767  17.462   4.150 -0.21 -0.02    +0.070 A 
DOCKED: ATOM     14  C   UNL d   1      10.966  14.293   2.706 -0.32 -0.01    +0.052 C 
DOCKED: ATOM     15  C   UNL d   1       9.006  19.658   5.141 -0.08 -0.01    +0.066 A 
DOCKED: ATOM     16  C   UNL d   1       8.616  20.981   4.985 -0.08 +0.00    -0.021 A 
DOCKED: ATOM     17  C   UNL d   1       8.516  21.504   6.282 -0.11 -0.00    +0.000 A 
DOCKED: ATOM     18  C   UNL d   1       8.838  20.450   7.131 -0.11 -0.01    +0.070 A 
DOCKED: ATOM     19  C   UNL d   1       8.365  21.671   3.662 -0.09 -0.01    +0.052 C 
DOCKED: ATOM     20  C   UNL d   1       9.304  19.515   9.427 -0.20 -0.01    +0.066 A 
DOCKED: ATOM     21  C   UNL d   1       9.366  19.696  10.807 -0.14 +0.00    -0.025 A 
DOCKED: ATOM     22  C   UNL d   1       9.826  18.496  11.319 -0.18 -0.00    -0.021 A 
DOCKED: ATOM     23  C   UNL d   1      10.034  17.640  10.217 -0.18 +0.01    +0.066 A 
DOCKED: ATOM     24  C   UNL d   1       9.024  20.956  11.598 -0.07 -0.00    +0.051 C 
DOCKED: ATOM     25  N   UNL d   1      10.663  15.923   7.871 -0.16 +0.03    -0.248 N 
DOCKED: ATOM     26  N   UNL d   1      10.138  16.826   5.293 -0.13 +0.07    -0.248 N 
DOCKED: ATOM     27  N   UNL d   1       9.153  19.376   6.416 -0.15 +0.06    -0.248 N 
DOCKED: ATOM     28  N   UNL d   1       9.721  18.254   9.069 -0.14 +0.03    -0.248 N 
DOCKED: ATOM     29 FE   UNL d   1       9.862  17.753   7.104 -0.05 -0.00    +0.000 Fe
DOCKED: ENDROOT
DOCKED: BRANCH   6  30
DOCKED: ATOM     30  C   UNL d   1      12.090  13.686  10.556 -0.14 +0.01    +0.052 C 
DOCKED: BRANCH  30  31
DOCKED: ATOM     31  C   UNL d   1      10.911  13.278  11.439 -0.10 +0.07    +0.115 C 
DOCKED: BRANCH  31  32
DOCKED: ATOM     32  C   UNL d   1      11.150  13.590  12.901 +0.02 +0.17    +0.139 C 
DOCKED: ATOM     33  O   UNL d   1      11.148  14.753  13.276 -0.45 -0.97    -0.650 OA
DOCKED: BRANCH  32  34
DOCKED: ATOM     34  O   UNL d   1      11.321  12.614  13.824 -0.17 -0.92    -0.776 OA
DOCKED: ATOM     35  H   UNL d   1      12.113  12.064  13.893 +0.02 +0.11    +0.167 HD
DOCKED: ENDBRANCH  32  34
DOCKED: ENDBRANCH  31  32
DOCKED: ENDBRANCH  30  31
DOCKED: ENDBRANCH   6  30
DOCKED: BRANCH  29  36
DOCKED: ATOM     36  C   UNL d   1      11.835  18.459   7.041 -0.05 -0.02    +0.190 C 
DOCKED: BRANCH  36  37
DOCKED: ATOM     37  O   UNL d   1      12.939  18.754   7.848 -0.00 +0.02    -0.399 OA
DOCKED: ATOM     38  H   UNL d   1      12.703  18.392   8.748 +0.02 -0.00    +0.209 HD
DOCKED: ENDBRANCH  36  37
DOCKED: ENDBRANCH  29  36
DOCKED: BRANCH  22  39
DOCKED: ATOM     39  C   UNL d   1      10.109  18.216  12.783 -0.14 +0.02    +0.052 C 
DOCKED: BRANCH  39  40
DOCKED: ATOM     40  C   UNL d   1      11.619  18.289  13.067 -0.06 +0.03    +0.115 C 
DOCKED: BRANCH  40  41
DOCKED: ATOM     41  C   UNL d   1      12.411  19.069  12.039 -0.02 +0.01    +0.139 C 
DOCKED: ATOM     42  O   UNL d   1      12.733  20.224  12.282 +0.01 -0.03    -0.650 OA
DOCKED: BRANCH  41  43
DOCKED: ATOM     43  O   UNL d   1      12.848  18.497  10.895 +0.03 -0.05    -0.776 OA
DOCKED: ATOM     44  H   UNL d   1      12.821  18.953  10.044 +0.01 +0.00    +0.167 HD
DOCKED: ENDBRANCH  41  43
DOCKED: ENDBRANCH  40  41
DOCKED: ENDBRANCH  39  40
DOCKED: ENDBRANCH  22  39
DOCKED: BRANCH  12  45
DOCKED: ATOM     45  C   UNL d   1       9.604  17.152   1.616 -0.25 -0.00    +0.004 C 
DOCKED: ATOM     46  C   UNL d   1       8.614  16.756   0.820 -0.38 -0.00    +0.012 C 
DOCKED: ENDBRANCH  12  45
DOCKED: BRANCH  17  47
DOCKED: ATOM     47  C   UNL d   1       8.197  22.893   6.729 -0.10 -0.00    +0.004 C 
DOCKED: ATOM     48  C   UNL d   1       6.953  23.339   6.916 -0.11 -0.00    +0.012 C 
DOCKED: ENDBRANCH  17  47
DOCKED: TORSDOF 12
DOCKED: TER
DOCKED: ENDMDL
________________________________________________________________________________


	BEGINNING GENETIC ALGORITHM DOCKING 7 of 100
Run: 7 Seed: 756280644 1981793109 [ Run 7 of 100 GA/GALS ]
Beginning LAMARCKIAN GENETIC ALGORITHM (LGA), with a maximum of 25000000 energy evaluations.

Final-Value: -9.497


	FINAL GENETIC ALGORITHM DOCKED STATE
	_______________________________________________


Detailed state:  trans -5.222 -15.680 -15.944 quatxyzw -0.583787 -0.343027 0.150693 -0.720290 center 8.781 34.984 -0.736 ntor 12 -122.9880 109.8055 2.7465 -52.3852 74.5382 155.0682 -80.0169 -129.0631 97.1783 71.2001 21.2121 46.5401
State:	 -5.222 -15.680 -15.944  -0.842 -0.495  0.217 -87.843   -122.99  109.81    2.75  -52.39   74.54  155.07  -80.02 -129.06   97.18   71.20   21.21   46.54

DOCKED: MODEL        7
DOCKED: USER    Run = 7
DOCKED: USER    DPF = D:/Protein_go_brrr/autodock/final/mut_Y35F/heme_Co/dock.dpf
DOCKED: USER  
DOCKED: USER    Estimated Free Energy of Binding    =   -4.36 kcal/mol  [=(1)+(2)+(3)-(4)]
DOCKED: USER    Estimated Inhibition Constant, Ki   =  632.48 uM (micromolar)  [Temperature = 298.15 K]
DOCKED: USER    
DOCKED: USER    (1) Final Intermolecular Energy     =   -7.94 kcal/mol
DOCKED: USER        vdW + Hbond + desolv Energy     =   -5.29 kcal/mol
DOCKED: USER        Electrostatic Energy            =   -2.66 kcal/mol
DOCKED: USER    (2) Final Total Internal Energy     =   -1.55 kcal/mol
DOCKED: USER    (3) Torsional Free Energy           =   +3.58 kcal/mol
DOCKED: USER    (4) Unbound System's Energy  [=(2)] =   -1.55 kcal/mol
DOCKED: USER    
DOCKED: USER    
DOCKED: USER    NEWDPF move heme_Co_opt.pdbqt
DOCKED: USER    NEWDPF about 8.781000 34.984000 -0.736000
DOCKED: USER    NEWDPF tran0 -5.222168 -15.679805 -15.944435
DOCKED: USER    NEWDPF quaternion0 -0.583787 -0.343027 0.150693 -0.720290
DOCKED: USER    NEWDPF axisangle0 -0.841588 -0.494507 0.217239 -87.843194
DOCKED: USER    NEWDPF quat0 -0.841588 -0.494507 0.217239 -87.843194
DOCKED: USER    NEWDPF dihe0 -122.99 109.81 2.75 -52.39 74.54 155.07 -80.02 -129.06 97.18 71.20 21.21 46.54 
DOCKED: USER  keepresnum = 1 
DOCKED: USER  
DOCKED: REMARK  12 active torsions:
DOCKED: REMARK  status: ('A' for Active; 'I' for Inactive)
DOCKED: REMARK    1  A    between atoms: C_6  and  C_10 
DOCKED: REMARK    2  A    between atoms: C_10  and  C_11 
DOCKED: REMARK    3  A    between atoms: C_11  and  C_12 
DOCKED: REMARK    4  A    between atoms: C_12  and  O_14 
DOCKED: REMARK    5  A    between atoms: C_17  and  C_20 
DOCKED: REMARK    6  A    between atoms: C_24  and  C_27 
DOCKED: REMARK    7  A    between atoms: C_31  and  C_34 
DOCKED: REMARK    8  A    between atoms: C_34  and  C_35 
DOCKED: REMARK    9  A    between atoms: C_35  and  C_36 
DOCKED: REMARK   10  A    between atoms: C_36  and  O_38 
DOCKED: REMARK   11  A    between atoms: FE_43  and  C_44 
DOCKED: REMARK   12  A    between atoms: C_44  and  O_45 
DOCKED: USER                              x       y       z     vdW  Elec       q    Type
DOCKED: USER                           _______ _______ _______ _____ _____    ______ ____
DOCKED: ROOT
DOCKED: ATOM      1  C   UNL d   1      -5.953 -17.366 -17.102 -0.05 +0.03    +0.064 A 
DOCKED: ATOM      2  C   UNL d   1      -8.038 -14.559 -13.879 -0.17 +0.00    +0.064 C 
DOCKED: ATOM      3  C   UNL d   1      -3.882 -12.349 -13.059 -0.20 -0.01    +0.064 A 
DOCKED: ATOM      4  C   UNL d   1      -1.816 -14.940 -16.621 -0.02 +0.01    +0.064 A 
DOCKED: ATOM      5  C   UNL d   1      -6.820 -16.786 -16.256 -0.10 +0.03    +0.066 A 
DOCKED: ATOM      6  C   UNL d   1      -8.188 -17.118 -16.244 -0.08 -0.01    -0.021 A 
DOCKED: ATOM      7  C   UNL d   1      -8.793 -16.285 -15.323 -0.08 -0.00    -0.025 A 
DOCKED: ATOM      8  C   UNL d   1      -7.765 -15.492 -14.801 -0.11 +0.01    +0.066 A 
DOCKED: ATOM      9  C   UNL d   1     -10.279 -16.225 -14.939 -0.05 +0.01    +0.051 C 
DOCKED: ATOM     10  C   UNL d   1      -7.043 -13.715 -13.266 -0.22 -0.00    +0.066 A 
DOCKED: ATOM     11  C   UNL d   1      -7.243 -12.817 -12.195 -0.33 +0.00    -0.021 A 
DOCKED: ATOM     12  C   UNL d   1      -6.014 -12.189 -11.974 -0.36 -0.00    +0.000 A 
DOCKED: ATOM     13  C   UNL d   1      -5.155 -12.758 -12.915 -0.20 -0.01    +0.070 A 
DOCKED: ATOM     14  C   UNL d   1      -8.506 -12.656 -11.389 -0.17 -0.01    +0.052 C 
DOCKED: ATOM     15  C   UNL d   1      -2.877 -12.787 -14.008 -0.17 +0.00    +0.066 A 
DOCKED: ATOM     16  C   UNL d   1      -1.624 -12.223 -14.200 -0.18 +0.00    -0.021 A 
DOCKED: ATOM     17  C   UNL d   1      -1.026 -12.965 -15.228 -0.08 +0.00    +0.000 A 
DOCKED: ATOM     18  C   UNL d   1      -1.958 -13.938 -15.572 -0.06 +0.00    +0.070 A 
DOCKED: ATOM     19  C   UNL d   1      -1.066 -11.046 -13.431 -0.30 -0.00    +0.052 C 
DOCKED: ATOM     20  C   UNL d   1      -2.742 -15.841 -17.031 -0.04 +0.01    +0.066 A 
DOCKED: ATOM     21  C   UNL d   1      -2.501 -16.730 -18.076 -0.03 -0.01    -0.025 A 
DOCKED: ATOM     22  C   UNL d   1      -3.666 -17.462 -18.218 -0.06 -0.01    -0.021 A 
DOCKED: ATOM     23  C   UNL d   1      -4.571 -16.970 -17.253 -0.07 +0.03    +0.066 A 
DOCKED: ATOM     24  C   UNL d   1      -1.231 -16.864 -18.912 -0.01 +0.01    +0.051 C 
DOCKED: ATOM     25  N   UNL d   1      -6.531 -15.784 -15.356 -0.09 -0.06    -0.248 N 
DOCKED: ATOM     26  N   UNL d   1      -5.765 -13.720 -13.658 -0.14 -0.00    -0.248 N 
DOCKED: ATOM     27  N   UNL d   1      -3.060 -13.783 -14.846 -0.07 -0.02    -0.248 N 
DOCKED: ATOM     28  N   UNL d   1      -4.016 -15.987 -16.534 -0.06 -0.07    -0.248 N 
DOCKED: ATOM     29 FE   UNL d   1      -4.691 -14.727 -15.088 -0.03 +0.00    +0.000 Fe
DOCKED: ENDROOT
DOCKED: BRANCH   6  30
DOCKED: ATOM     30  C   UNL d   1      -8.885 -18.135 -17.141 -0.05 +0.02    +0.052 C 
DOCKED: BRANCH  30  31
DOCKED: ATOM     31  C   UNL d   1      -9.217 -19.405 -16.357 -0.06 +0.05    +0.115 C 
DOCKED: BRANCH  31  32
DOCKED: ATOM     32  C   UNL d   1      -8.053 -20.371 -16.305 -0.05 +0.13    +0.139 C 
DOCKED: ATOM     33  O   UNL d   1      -7.932 -21.114 -15.342 -0.38 -0.81    -0.650 OA
DOCKED: BRANCH  32  34
DOCKED: ATOM     34  O   UNL d   1      -7.161 -20.476 -17.317 +0.05 -0.97    -0.776 OA
DOCKED: ATOM     35  H   UNL d   1      -6.925 -21.308 -17.750 -0.00 +0.21    +0.167 HD
DOCKED: ENDBRANCH  32  34
DOCKED: ENDBRANCH  31  32
DOCKED: ENDBRANCH  30  31
DOCKED: ENDBRANCH   6  30
DOCKED: BRANCH  29  36
DOCKED: ATOM     36  C   UNL d   1      -5.379 -13.386 -16.546 -0.02 +0.01    +0.190 C 
DOCKED: BRANCH  36  37
DOCKED: ATOM     37  O   UNL d   1      -6.460 -13.119 -17.392 +0.00 -0.02    -0.399 OA
DOCKED: ATOM     38  H   UNL d   1      -7.092 -13.878 -17.248 +0.01 +0.02    +0.209 HD
DOCKED: ENDBRANCH  36  37
DOCKED: ENDBRANCH  29  36
DOCKED: BRANCH  22  39
DOCKED: ATOM     39  C   UNL d   1      -3.912 -18.528 -19.269 -0.05 +0.02    +0.052 C 
DOCKED: BRANCH  39  40
DOCKED: ATOM     40  C   UNL d   1      -4.848 -19.621 -18.725 -0.05 +0.10    +0.115 C 
DOCKED: BRANCH  40  41
DOCKED: ATOM     41  C   UNL d   1      -4.202 -20.983 -18.581 +0.13 +0.17    +0.139 C 
DOCKED: ATOM     42  O   UNL d   1      -2.993 -21.090 -18.732 -0.14 -0.48    -0.650 OA
DOCKED: BRANCH  41  43
DOCKED: ATOM     43  O   UNL d   1      -4.912 -22.069 -18.206 -0.24 -1.28    -0.776 OA
DOCKED: ATOM     44  H   UNL d   1      -5.875 -22.062 -18.136 -0.00 +0.24    +0.167 HD
DOCKED: ENDBRANCH  41  43
DOCKED: ENDBRANCH  40  41
DOCKED: ENDBRANCH  39  40
DOCKED: ENDBRANCH  22  39
DOCKED: BRANCH  12  45
DOCKED: ATOM     45  C   UNL d   1      -5.550 -11.137 -10.975 -0.31 -0.00    +0.004 C 
DOCKED: ATOM     46  C   UNL d   1      -5.961  -9.887 -10.781 -0.40 -0.00    +0.012 C 
DOCKED: ENDBRANCH  12  45
DOCKED: BRANCH  17  47
DOCKED: ATOM     47  C   UNL d   1       0.295 -12.774 -15.898 -0.06 +0.00    +0.004 C 
DOCKED: ATOM     48  C   UNL d   1       1.451 -12.678 -15.235 -0.14 -0.00    +0.012 C 
DOCKED: ENDBRANCH  17  47
DOCKED: TORSDOF 12
DOCKED: TER
DOCKED: ENDMDL
________________________________________________________________________________


	BEGINNING GENETIC ALGORITHM DOCKING 8 of 100
Run: 8 Seed: 1466990093 1695260959 [ Run 8 of 100 GA/GALS ]
Beginning LAMARCKIAN GENETIC ALGORITHM (LGA), with a maximum of 25000000 energy evaluations.

Final-Value: -9.484


	FINAL GENETIC ALGORITHM DOCKED STATE
	_______________________________________________


Detailed state:  trans -17.208 -1.373 -1.613 quatxyzw -0.535466 0.679979 0.219384 -0.450305 center 8.781 34.984 -0.736 ntor 12 -21.9397 107.3687 69.7901 155.5909 133.6579 146.5737 -147.1622 120.3158 -134.6734 -177.3536 -21.1970 3.6952
State:	-17.208  -1.373  -1.613  -0.600  0.762  0.246 -126.473    -21.94  107.37   69.79  155.59  133.66  146.57 -147.16  120.32 -134.67 -177.35  -21.20    3.70

DOCKED: MODEL        8
DOCKED: USER    Run = 8
DOCKED: USER    DPF = D:/Protein_go_brrr/autodock/final/mut_Y35F/heme_Co/dock.dpf
DOCKED: USER  
DOCKED: USER    Estimated Free Energy of Binding    =   -4.23 kcal/mol  [=(1)+(2)+(3)-(4)]
DOCKED: USER    Estimated Inhibition Constant, Ki   =  788.98 uM (micromolar)  [Temperature = 298.15 K]
DOCKED: USER    
DOCKED: USER    (1) Final Intermolecular Energy     =   -7.81 kcal/mol
DOCKED: USER        vdW + Hbond + desolv Energy     =   -6.15 kcal/mol
DOCKED: USER        Electrostatic Energy            =   -1.67 kcal/mol
DOCKED: USER    (2) Final Total Internal Energy     =   -1.67 kcal/mol
DOCKED: USER    (3) Torsional Free Energy           =   +3.58 kcal/mol
DOCKED: USER    (4) Unbound System's Energy  [=(2)] =   -1.67 kcal/mol
DOCKED: USER    
DOCKED: USER    
DOCKED: USER    NEWDPF move heme_Co_opt.pdbqt
DOCKED: USER    NEWDPF about 8.781000 34.984000 -0.736000
DOCKED: USER    NEWDPF tran0 -17.208231 -1.373346 -1.613411
DOCKED: USER    NEWDPF quaternion0 -0.535466 0.679979 0.219384 -0.450305
DOCKED: USER    NEWDPF axisangle0 -0.599710 0.761562 0.245705 -126.473479
DOCKED: USER    NEWDPF quat0 -0.599710 0.761562 0.245705 -126.473479
DOCKED: USER    NEWDPF dihe0 -21.94 107.37 69.79 155.59 133.66 146.57 -147.16 120.32 -134.67 -177.35 -21.20 3.70 
DOCKED: USER  keepresnum = 1 
DOCKED: USER  
DOCKED: REMARK  12 active torsions:
DOCKED: REMARK  status: ('A' for Active; 'I' for Inactive)
DOCKED: REMARK    1  A    between atoms: C_6  and  C_10 
DOCKED: REMARK    2  A    between atoms: C_10  and  C_11 
DOCKED: REMARK    3  A    between atoms: C_11  and  C_12 
DOCKED: REMARK    4  A    between atoms: C_12  and  O_14 
DOCKED: REMARK    5  A    between atoms: C_17  and  C_20 
DOCKED: REMARK    6  A    between atoms: C_24  and  C_27 
DOCKED: REMARK    7  A    between atoms: C_31  and  C_34 
DOCKED: REMARK    8  A    between atoms: C_34  and  C_35 
DOCKED: REMARK    9  A    between atoms: C_35  and  C_36 
DOCKED: REMARK   10  A    between atoms: C_36  and  O_38 
DOCKED: REMARK   11  A    between atoms: FE_43  and  C_44 
DOCKED: REMARK   12  A    between atoms: C_44  and  O_45 
DOCKED: USER                              x       y       z     vdW  Elec       q    Type
DOCKED: USER                           _______ _______ _______ _____ _____    ______ ____
DOCKED: ROOT
DOCKED: ATOM      1  C   UNL d   1     -17.950  -0.845   0.358 -0.12 +0.02    +0.064 A 
DOCKED: ATOM      2  C   UNL d   1     -14.104   0.524  -2.080 -0.24 +0.01    +0.064 C 
DOCKED: ATOM      3  C   UNL d   1     -15.159  -2.579  -5.558 -0.13 +0.01    +0.064 A 
DOCKED: ATOM      4  C   UNL d   1     -19.298  -3.717  -3.270 -0.05 +0.01    +0.064 A 
DOCKED: ATOM      5  C   UNL d   1     -16.803  -0.269  -0.036 -0.13 +0.02    +0.066 A 
DOCKED: ATOM      6  C   UNL d   1     -16.197   0.769   0.699 -0.13 -0.00    -0.021 A 
DOCKED: ATOM      7  C   UNL d   1     -15.094   1.178  -0.025 -0.15 -0.00    -0.025 A 
DOCKED: ATOM      8  C   UNL d   1     -15.064   0.361  -1.161 -0.16 +0.01    +0.066 A 
DOCKED: ATOM      9  C   UNL d   1     -14.097   2.293   0.326 -0.17 +0.01    +0.051 C 
DOCKED: ATOM     10  C   UNL d   1     -13.978  -0.286  -3.267 -0.22 +0.01    +0.066 A 
DOCKED: ATOM     11  C   UNL d   1     -12.917  -0.259  -4.197 -0.21 -0.00    -0.021 A 
DOCKED: ATOM     12  C   UNL d   1     -13.248  -1.176  -5.199 -0.20 +0.00    +0.000 A 
DOCKED: ATOM     13  C   UNL d   1     -14.477  -1.702  -4.800 -0.17 +0.01    +0.070 A 
DOCKED: ATOM     14  C   UNL d   1     -11.637   0.527  -4.068 -0.22 +0.00    +0.052 C 
DOCKED: ATOM     15  C   UNL d   1     -16.457  -3.180  -5.326 -0.09 +0.01    +0.066 A 
DOCKED: ATOM     16  C   UNL d   1     -17.171  -3.967  -6.219 -0.05 -0.00    -0.021 A 
DOCKED: ATOM     17  C   UNL d   1     -18.367  -4.296  -5.565 -0.03 +0.00    +0.000 A 
DOCKED: ATOM     18  C   UNL d   1     -18.280  -3.695  -4.313 -0.05 +0.01    +0.070 A 
DOCKED: ATOM     19  C   UNL d   1     -16.710  -4.360  -7.605 -0.06 +0.00    +0.052 C 
DOCKED: ATOM     20  C   UNL d   1     -19.273  -3.070  -2.080 -0.07 +0.03    +0.066 A 
DOCKED: ATOM     21  C   UNL d   1     -20.329  -3.139  -1.174 -0.05 -0.01    -0.025 A 
DOCKED: ATOM     22  C   UNL d   1     -19.956  -2.344  -0.105 -0.07 -0.01    -0.021 A 
DOCKED: ATOM     23  C   UNL d   1     -18.686  -1.815  -0.421 -0.08 +0.03    +0.066 A 
DOCKED: ATOM     24  C   UNL d   1     -21.638  -3.908  -1.326 -0.02 +0.01    +0.051 C 
DOCKED: ATOM     25  N   UNL d   1     -16.108  -0.548  -1.191 -0.09 -0.07    -0.248 N 
DOCKED: ATOM     26  N   UNL d   1     -14.890  -1.204  -3.604 -0.12 -0.03    -0.248 N 
DOCKED: ATOM     27  N   UNL d   1     -17.143  -3.014  -4.218 -0.05 -0.04    -0.248 N 
DOCKED: ATOM     28  N   UNL d   1     -18.270  -2.250  -1.616 -0.04 -0.11    -0.248 N 
DOCKED: ATOM     29 FE   UNL d   1     -16.659  -1.856  -2.792 -0.03 +0.00    +0.000 Fe
DOCKED: ENDROOT
DOCKED: BRANCH   6  30
DOCKED: ATOM     30  C   UNL d   1     -16.711   1.386   1.995 -0.12 +0.01    +0.052 C 
DOCKED: BRANCH  30  31
DOCKED: ATOM     31  C   UNL d   1     -16.741   0.343   3.112 -0.27 +0.03    +0.115 C 
DOCKED: BRANCH  31  32
DOCKED: ATOM     32  C   UNL d   1     -15.493  -0.513   3.135 -0.40 +0.05    +0.139 C 
DOCKED: ATOM     33  O   UNL d   1     -14.492  -0.101   3.701 -0.44 -0.27    -0.650 OA
DOCKED: BRANCH  32  34
DOCKED: ATOM     34  O   UNL d   1     -15.462  -1.750   2.587 -0.05 -0.27    -0.776 OA
DOCKED: ATOM     35  H   UNL d   1     -16.238  -2.317   2.479 -0.36 +0.05    +0.167 HD
DOCKED: ENDBRANCH  32  34
DOCKED: ENDBRANCH  31  32
DOCKED: ENDBRANCH  30  31
DOCKED: ENDBRANCH   6  30
DOCKED: BRANCH  29  36
DOCKED: ATOM     36  C   UNL d   1     -17.651  -0.215  -3.640 -0.02 +0.02    +0.190 C 
DOCKED: BRANCH  36  37
DOCKED: ATOM     37  O   UNL d   1     -18.041   1.104  -3.387 +0.00 -0.03    -0.399 OA
DOCKED: ATOM     38  H   UNL d   1     -17.800   1.264  -2.432 +0.01 +0.02    +0.209 HD
DOCKED: ENDBRANCH  36  37
DOCKED: ENDBRANCH  29  36
DOCKED: BRANCH  22  39
DOCKED: ATOM     39  C   UNL d   1     -20.806  -2.060   1.118 -0.05 +0.01    +0.052 C 
DOCKED: BRANCH  39  40
DOCKED: ATOM     40  C   UNL d   1     -20.290  -2.849   2.333 -0.13 +0.03    +0.115 C 
DOCKED: BRANCH  40  41
DOCKED: ATOM     41  C   UNL d   1     -19.124  -3.766   2.032 -0.17 +0.09    +0.139 C 
DOCKED: ATOM     42  O   UNL d   1     -19.324  -4.965   1.897 -0.11 -0.55    -0.650 OA
DOCKED: BRANCH  41  43
DOCKED: ATOM     43  O   UNL d   1     -17.878  -3.286   1.822 +0.12 -0.83    -0.776 OA
DOCKED: ATOM     44  H   UNL d   1     -17.312  -2.979   2.542 -0.50 +0.06    +0.167 HD
DOCKED: ENDBRANCH  41  43
DOCKED: ENDBRANCH  40  41
DOCKED: ENDBRANCH  39  40
DOCKED: ENDBRANCH  22  39
DOCKED: BRANCH  12  45
DOCKED: ATOM     45  C   UNL d   1     -12.540  -1.627  -6.469 -0.17 +0.00    +0.004 C 
DOCKED: ATOM     46  C   UNL d   1     -12.528  -2.809  -7.081 -0.27 +0.00    +0.012 C 
DOCKED: ENDBRANCH  12  45
DOCKED: BRANCH  17  47
DOCKED: ATOM     47  C   UNL d   1     -19.545  -5.068  -6.061 -0.01 +0.00    +0.004 C 
DOCKED: ATOM     48  C   UNL d   1     -19.890  -6.269  -5.592 -0.01 +0.00    +0.012 C 
DOCKED: ENDBRANCH  17  47
DOCKED: TORSDOF 12
DOCKED: TER
DOCKED: ENDMDL
________________________________________________________________________________


	BEGINNING GENETIC ALGORITHM DOCKING 9 of 100
Run: 9 Seed: 419477133 575179527 [ Run 9 of 100 GA/GALS ]
Beginning LAMARCKIAN GENETIC ALGORITHM (LGA), with a maximum of 25000000 energy evaluations.

Final-Value: -10.340


	FINAL GENETIC ALGORITHM DOCKED STATE
	_______________________________________________


Detailed state:  trans 9.151 14.310 -11.220 quatxyzw 0.459436 -0.323888 0.204541 0.801360 center 8.781 34.984 -0.736 ntor 12 147.4649 104.7232 -55.5928 72.3793 92.7720 113.3636 -119.5950 -16.4235 -126.3559 -177.9917 -177.8377 177.5991
State:	  9.151  14.310 -11.220   0.768 -0.541  0.342 73.480    147.46  104.72  -55.59   72.38   92.77  113.36 -119.59  -16.42 -126.36 -177.99 -177.84  177.60

DOCKED: MODEL        9
DOCKED: USER    Run = 9
DOCKED: USER    DPF = D:/Protein_go_brrr/autodock/final/mut_Y35F/heme_Co/dock.dpf
DOCKED: USER  
DOCKED: USER    Estimated Free Energy of Binding    =   -2.88 kcal/mol  [=(1)+(2)+(3)-(4)]
DOCKED: USER    Estimated Inhibition Constant, Ki   =    7.78 mM (millimolar)  [Temperature = 298.15 K]
DOCKED: USER    
DOCKED: USER    (1) Final Intermolecular Energy     =   -6.46 kcal/mol
DOCKED: USER        vdW + Hbond + desolv Energy     =   -6.49 kcal/mol
DOCKED: USER        Electrostatic Energy            =   +0.03 kcal/mol
DOCKED: USER    (2) Final Total Internal Energy     =   -3.88 kcal/mol
DOCKED: USER    (3) Torsional Free Energy           =   +3.58 kcal/mol
DOCKED: USER    (4) Unbound System's Energy  [=(2)] =   -3.88 kcal/mol
DOCKED: USER    
DOCKED: USER    
DOCKED: USER    NEWDPF move heme_Co_opt.pdbqt
DOCKED: USER    NEWDPF about 8.781000 34.984000 -0.736000
DOCKED: USER    NEWDPF tran0 9.151067 14.309568 -11.219711
DOCKED: USER    NEWDPF quaternion0 0.459436 -0.323888 0.204541 0.801360
DOCKED: USER    NEWDPF axisangle0 0.768054 -0.541453 0.341938 73.479680
DOCKED: USER    NEWDPF quat0 0.768054 -0.541453 0.341938 73.479680
DOCKED: USER    NEWDPF dihe0 147.46 104.72 -55.59 72.38 92.77 113.36 -119.59 -16.42 -126.36 -177.99 -177.84 177.60 
DOCKED: USER  keepresnum = 1 
DOCKED: USER  
DOCKED: REMARK  12 active torsions:
DOCKED: REMARK  status: ('A' for Active; 'I' for Inactive)
DOCKED: REMARK    1  A    between atoms: C_6  and  C_10 
DOCKED: REMARK    2  A    between atoms: C_10  and  C_11 
DOCKED: REMARK    3  A    between atoms: C_11  and  C_12 
DOCKED: REMARK    4  A    between atoms: C_12  and  O_14 
DOCKED: REMARK    5  A    between atoms: C_17  and  C_20 
DOCKED: REMARK    6  A    between atoms: C_24  and  C_27 
DOCKED: REMARK    7  A    between atoms: C_31  and  C_34 
DOCKED: REMARK    8  A    between atoms: C_34  and  C_35 
DOCKED: REMARK    9  A    between atoms: C_35  and  C_36 
DOCKED: REMARK   10  A    between atoms: C_36  and  O_38 
DOCKED: REMARK   11  A    between atoms: FE_43  and  C_44 
DOCKED: REMARK   12  A    between atoms: C_44  and  O_45 
DOCKED: USER                              x       y       z     vdW  Elec       q    Type
DOCKED: USER                           _______ _______ _______ _____ _____    ______ ____
DOCKED: ROOT
DOCKED: ATOM      1  C   UNL d   1       7.198  15.253 -11.325 -0.17 +0.01    +0.064 A 
DOCKED: ATOM      2  C   UNL d   1      10.648  15.407  -8.057 -0.28 -0.00    +0.064 C 
DOCKED: ATOM      3  C   UNL d   1      13.158  12.156 -10.498 -0.02 -0.02    +0.064 A 
DOCKED: ATOM      4  C   UNL d   1       9.829  12.268 -14.044 -0.03 -0.00    +0.064 A 
DOCKED: ATOM      5  C   UNL d   1       7.940  15.507 -10.234 -0.14 +0.01    +0.066 A 
DOCKED: ATOM      6  C   UNL d   1       7.567  16.481  -9.287 -0.19 -0.00    -0.021 A 
DOCKED: ATOM      7  C   UNL d   1       8.583  16.537  -8.353 -0.24 -0.00    -0.025 A 
DOCKED: ATOM      8  C   UNL d   1       9.523  15.585  -8.761 -0.26 +0.00    +0.066 A 
DOCKED: ATOM      9  C   UNL d   1       8.679  17.448  -7.120 -0.15 +0.01    +0.051 C 
DOCKED: ATOM     10  C   UNL d   1      11.660  14.433  -8.384 -0.25 -0.01    +0.066 A 
DOCKED: ATOM     11  C   UNL d   1      12.792  14.100  -7.610 -0.27 +0.00    -0.021 A 
DOCKED: ATOM     12  C   UNL d   1      13.504  13.147  -8.343 -0.25 -0.00    +0.000 A 
DOCKED: ATOM     13  C   UNL d   1      12.749  12.960  -9.501 -0.21 -0.02    +0.070 A 
DOCKED: ATOM     14  C   UNL d   1      13.103  14.601  -6.222 -0.35 -0.02    +0.052 C 
DOCKED: ATOM     15  C   UNL d   1      12.533  11.888 -11.779 -0.18 -0.02    +0.066 A 
DOCKED: ATOM     16  C   UNL d   1      13.080  11.158 -12.825 -0.21 +0.00    -0.021 A 
DOCKED: ATOM     17  C   UNL d   1      12.124  11.190 -13.851 -0.15 -0.00    +0.000 A 
DOCKED: ATOM     18  C   UNL d   1      11.059  11.925 -13.341 -0.10 -0.01    +0.070 A 
DOCKED: ATOM     19  C   UNL d   1      14.435  10.487 -12.812 -0.26 -0.01    +0.052 C 
DOCKED: ATOM     20  C   UNL d   1       8.818  13.052 -13.600 -0.05 +0.00    +0.066 A 
DOCKED: ATOM     21  C   UNL d   1       7.701  13.339 -14.383 -0.15 -0.00    -0.025 A 
DOCKED: ATOM     22  C   UNL d   1       6.912  14.175 -13.614 -0.19 -0.00    -0.021 A 
DOCKED: ATOM     23  C   UNL d   1       7.597  14.367 -12.395 -0.23 +0.00    +0.066 A 
DOCKED: ATOM     24  C   UNL d   1       7.410  12.858 -15.802 -0.10 -0.00    +0.051 C 
DOCKED: ATOM     25  N   UNL d   1       9.148  14.927  -9.920 -0.18 -0.00    -0.248 N 
DOCKED: ATOM     26  N   UNL d   1      11.606  13.697  -9.499 -0.17 +0.04    -0.248 N 
DOCKED: ATOM     27  N   UNL d   1      11.350  12.350 -12.116 -0.15 +0.04    -0.248 N 
DOCKED: ATOM     28  N   UNL d   1       8.752  13.691 -12.384 -0.17 -0.00    -0.248 N 
DOCKED: ATOM     29 FE   UNL d   1      10.311  13.562 -11.086 -0.05 -0.00    +0.000 Fe
DOCKED: ENDROOT
DOCKED: BRANCH   6  30
DOCKED: ATOM     30  C   UNL d   1       6.327  17.368  -9.335 -0.17 +0.01    +0.052 C 
DOCKED: BRANCH  30  31
DOCKED: ATOM     31  C   UNL d   1       6.649  18.705 -10.002 -0.04 +0.01    +0.115 C 
DOCKED: BRANCH  31  32
DOCKED: ATOM     32  C   UNL d   1       7.324  18.532 -11.345 -0.02 +0.00    +0.139 C 
DOCKED: ATOM     33  O   UNL d   1       6.720  18.830 -12.365 +0.01 -0.00    -0.650 OA
DOCKED: BRANCH  32  34
DOCKED: ATOM     34  O   UNL d   1       8.602  18.099 -11.456 +0.03 +0.00    -0.776 OA
DOCKED: ATOM     35  H   UNL d   1       8.920  17.516 -12.158 +0.01 -0.00    +0.167 HD
DOCKED: ENDBRANCH  32  34
DOCKED: ENDBRANCH  31  32
DOCKED: ENDBRANCH  30  31
DOCKED: ENDBRANCH   6  30
DOCKED: BRANCH  29  36
DOCKED: ATOM     36  C   UNL d   1      11.207  15.245 -11.957 -0.03 -0.01    +0.190 C 
DOCKED: BRANCH  36  37
DOCKED: ATOM     37  O   UNL d   1      10.930  16.521 -12.458 +0.00 +0.02    -0.399 OA
DOCKED: ATOM     38  H   UNL d   1       9.934  16.580 -12.472 +0.02 -0.01    +0.209 HD
DOCKED: ENDBRANCH  36  37
DOCKED: ENDBRANCH  29  36
DOCKED: BRANCH  22  39
DOCKED: ATOM     39  C   UNL d   1       5.604  14.803 -14.057 -0.13 +0.00    +0.052 C 
DOCKED: BRANCH  39  40
DOCKED: ATOM     40  C   UNL d   1       5.864  16.051 -14.916 -0.03 -0.00    +0.115 C 
DOCKED: BRANCH  40  41
DOCKED: ATOM     41  C   UNL d   1       7.326  16.420 -15.055 -0.01 -0.00    +0.139 C 
DOCKED: ATOM     42  O   UNL d   1       7.825  16.481 -16.170 +0.01 +0.02    -0.650 OA
DOCKED: BRANCH  41  43
DOCKED: ATOM     43  O   UNL d   1       8.075  16.769 -13.985 +0.03 +0.02    -0.776 OA
DOCKED: ATOM     44  H   UNL d   1       7.784  17.426 -13.339 +0.01 -0.00    +0.167 HD
DOCKED: ENDBRANCH  41  43
DOCKED: ENDBRANCH  40  41
DOCKED: ENDBRANCH  39  40
DOCKED: ENDBRANCH  22  39
DOCKED: BRANCH  12  45
DOCKED: ATOM     45  C   UNL d   1      14.794  12.383  -8.076 -0.30 -0.00    +0.004 C 
DOCKED: ATOM     46  C   UNL d   1      15.093  11.492  -7.134 -0.45 -0.00    +0.012 C 
DOCKED: ENDBRANCH  12  45
DOCKED: BRANCH  17  47
DOCKED: ATOM     47  C   UNL d   1      12.191  10.630 -15.234 -0.11 -0.00    +0.004 C 
DOCKED: ATOM     48  C   UNL d   1      12.147   9.323 -15.503 -0.16 -0.00    +0.012 C 
DOCKED: ENDBRANCH  17  47
DOCKED: TORSDOF 12
DOCKED: TER
DOCKED: ENDMDL
________________________________________________________________________________


	BEGINNING GENETIC ALGORITHM DOCKING 10 of 100
Run: 10 Seed: 1231289110 424077115 [ Run 10 of 100 GA/GALS ]
Beginning LAMARCKIAN GENETIC ALGORITHM (LGA), with a maximum of 25000000 energy evaluations.

Final-Value: -10.400


	FINAL GENETIC ALGORITHM DOCKED STATE
	_______________________________________________


Detailed state:  trans 14.438 10.876 4.667 quatxyzw -0.024119 -0.447820 -0.794785 0.408892 center 8.781 34.984 -0.736 ntor 12 145.7048 117.0356 -14.0518 116.4571 158.2884 159.6457 -123.5320 -179.4200 154.2151 -40.8079 34.7373 154.1186
State:	 14.438  10.876   4.667  -0.026 -0.491 -0.871 131.729    145.70  117.04  -14.05  116.46  158.29  159.65 -123.53 -179.42  154.22  -40.81   34.74  154.12

DOCKED: MODEL       10
DOCKED: USER    Run = 10
DOCKED: USER    DPF = D:/Protein_go_brrr/autodock/final/mut_Y35F/heme_Co/dock.dpf
DOCKED: USER  
DOCKED: USER    Estimated Free Energy of Binding    =   -5.94 kcal/mol  [=(1)+(2)+(3)-(4)]
DOCKED: USER    Estimated Inhibition Constant, Ki   =   44.00 uM (micromolar)  [Temperature = 298.15 K]
DOCKED: USER    
DOCKED: USER    (1) Final Intermolecular Energy     =   -9.52 kcal/mol
DOCKED: USER        vdW + Hbond + desolv Energy     =   -6.68 kcal/mol
DOCKED: USER        Electrostatic Energy            =   -2.84 kcal/mol
DOCKED: USER    (2) Final Total Internal Energy     =   -0.88 kcal/mol
DOCKED: USER    (3) Torsional Free Energy           =   +3.58 kcal/mol
DOCKED: USER    (4) Unbound System's Energy  [=(2)] =   -0.88 kcal/mol
DOCKED: USER    
DOCKED: USER    
DOCKED: USER    NEWDPF move heme_Co_opt.pdbqt
DOCKED: USER    NEWDPF about 8.781000 34.984000 -0.736000
DOCKED: USER    NEWDPF tran0 14.437582 10.875614 4.667403
DOCKED: USER    NEWDPF quaternion0 -0.024119 -0.447820 -0.794785 0.408892
DOCKED: USER    NEWDPF axisangle0 -0.026429 -0.490717 -0.870918 131.729474
DOCKED: USER    NEWDPF quat0 -0.026429 -0.490717 -0.870918 131.729474
DOCKED: USER    NEWDPF dihe0 145.70 117.04 -14.05 116.46 158.29 159.65 -123.53 -179.42 154.22 -40.81 34.74 154.12 
DOCKED: USER  keepresnum = 1 
DOCKED: USER  
DOCKED: REMARK  12 active torsions:
DOCKED: REMARK  status: ('A' for Active; 'I' for Inactive)
DOCKED: REMARK    1  A    between atoms: C_6  and  C_10 
DOCKED: REMARK    2  A    between atoms: C_10  and  C_11 
DOCKED: REMARK    3  A    between atoms: C_11  and  C_12 
DOCKED: REMARK    4  A    between atoms: C_12  and  O_14 
DOCKED: REMARK    5  A    between atoms: C_17  and  C_20 
DOCKED: REMARK    6  A    between atoms: C_24  and  C_27 
DOCKED: REMARK    7  A    between atoms: C_31  and  C_34 
DOCKED: REMARK    8  A    between atoms: C_34  and  C_35 
DOCKED: REMARK    9  A    between atoms: C_35  and  C_36 
DOCKED: REMARK   10  A    between atoms: C_36  and  O_38 
DOCKED: REMARK   11  A    between atoms: FE_43  and  C_44 
DOCKED: REMARK   12  A    between atoms: C_44  and  O_45 
DOCKED: USER                              x       y       z     vdW  Elec       q    Type
DOCKED: USER                           _______ _______ _______ _____ _____    ______ ____
DOCKED: ROOT
DOCKED: ATOM      1  C   UNL d   1      15.066   8.856   5.159 -0.11 +0.02    +0.064 A 
DOCKED: ATOM      2  C   UNL d   1      17.412  12.990   5.033 -0.07 +0.01    +0.064 C 
DOCKED: ATOM      3  C   UNL d   1      13.534  15.181   3.302 -0.07 -0.01    +0.064 A 
DOCKED: ATOM      4  C   UNL d   1      11.004  11.054   3.785 -0.24 -0.01    +0.064 A 
DOCKED: ATOM      5  C   UNL d   1      16.002   9.817   5.217 +0.27 +0.03    +0.066 A 
DOCKED: ATOM      6  C   UNL d   1      17.285   9.580   5.750 -0.09 -0.01    -0.021 A 
DOCKED: ATOM      7  C   UNL d   1      17.953  10.788   5.732 -0.07 -0.01    -0.025 A 
DOCKED: ATOM      8  C   UNL d   1      17.057  11.706   5.174 -0.03 +0.02    +0.066 A 
DOCKED: ATOM      9  C   UNL d   1      19.381  11.082   6.218 -0.03 +0.01    +0.051 C 
DOCKED: ATOM     10  C   UNL d   1      16.567  14.000   4.446 -0.06 +0.00    +0.066 A 
DOCKED: ATOM     11  C   UNL d   1      16.930  15.330   4.141 -0.03 +0.00    -0.021 A 
DOCKED: ATOM     12  C   UNL d   1      15.782  15.945   3.634 -0.04 -0.00    +0.000 A 
DOCKED: ATOM     13  C   UNL d   1      14.810  14.945   3.655 -0.05 -0.01    +0.070 A 
DOCKED: ATOM     14  C   UNL d   1      18.312  15.924   4.245 -0.02 -0.00    +0.052 C 
DOCKED: ATOM     15  C   UNL d   1      12.396  14.283   3.313 -0.13 -0.01    +0.066 A 
DOCKED: ATOM     16  C   UNL d   1      11.073  14.628   3.074 -0.24 +0.00    -0.021 A 
DOCKED: ATOM     17  C   UNL d   1      10.339  13.442   3.215 -0.36 -0.00    +0.000 A 
DOCKED: ATOM     18  C   UNL d   1      11.278  12.460   3.513 -0.17 -0.01    +0.070 A 
DOCKED: ATOM     19  C   UNL d   1      10.576  16.016   2.737 -0.22 -0.01    +0.052 C 
DOCKED: ATOM     20  C   UNL d   1      11.888  10.100   4.161 -0.23 -0.00    +0.066 A 
DOCKED: ATOM     21  C   UNL d   1      11.498   8.789   4.430 -0.27 -0.00    -0.025 A 
DOCKED: ATOM     22  C   UNL d   1      12.653   8.125   4.800 -0.23 -0.00    -0.021 A 
DOCKED: ATOM     23  C   UNL d   1      13.697   9.074   4.751 -0.17 +0.01    +0.066 A 
DOCKED: ATOM     24  C   UNL d   1      10.091   8.203   4.357 -0.35 +0.00    +0.051 C 
DOCKED: ATOM     25  N   UNL d   1      15.843  11.131   4.841 +0.32 -0.09    -0.248 N 
DOCKED: ATOM     26  N   UNL d   1      15.301  13.755   4.094 -0.05 +0.00    -0.248 N 
DOCKED: ATOM     27  N   UNL d   1      12.488  13.002   3.593 -0.10 +0.03    -0.248 N 
DOCKED: ATOM     28  N   UNL d   1      13.237  10.271   4.366 -0.11 -0.02    -0.248 N 
DOCKED: ATOM     29 FE   UNL d   1      14.064  12.119   4.180 -0.04 +0.00    +0.000 Fe
DOCKED: ENDROOT
DOCKED: BRANCH   6  30
DOCKED: ATOM     30  C   UNL d   1      17.802   8.265   6.323 -0.07 +0.02    +0.052 C 
DOCKED: BRANCH  30  31
DOCKED: ATOM     31  C   UNL d   1      19.007   7.768   5.525 -0.11 +0.05    +0.115 C 
DOCKED: BRANCH  31  32
DOCKED: ATOM     32  C   UNL d   1      18.983   8.242   4.088 -0.21 +0.12    +0.139 C 
DOCKED: ATOM     33  O   UNL d   1      19.759   9.115   3.730 -0.24 -0.56    -0.650 OA
DOCKED: BRANCH  32  34
DOCKED: ATOM     34  O   UNL d   1      18.158   7.694   3.166 -0.39 -0.73    -0.776 OA
DOCKED: ATOM     35  H   UNL d   1      17.702   8.197   2.476 -0.49 +0.08    +0.167 HD
DOCKED: ENDBRANCH  32  34
DOCKED: ENDBRANCH  31  32
DOCKED: ENDBRANCH  30  31
DOCKED: ENDBRANCH   6  30
DOCKED: BRANCH  29  36
DOCKED: ATOM     36  C   UNL d   1      13.673  12.523   6.199 -0.04 +0.01    +0.190 C 
DOCKED: BRANCH  36  37
DOCKED: ATOM     37  O   UNL d   1      14.212  12.402   7.484 -0.00 -0.04    -0.399 OA
DOCKED: ATOM     38  H   UNL d   1      15.123  12.020   7.346 +0.01 +0.02    +0.209 HD
DOCKED: ENDBRANCH  36  37
DOCKED: ENDBRANCH  29  36
DOCKED: BRANCH  22  39
DOCKED: ATOM     39  C   UNL d   1      12.732   6.675   5.240 -0.24 +0.02    +0.052 C 
DOCKED: BRANCH  39  40
DOCKED: ATOM     40  C   UNL d   1      12.911   6.579   6.764 -0.13 +0.05    +0.115 C 
DOCKED: BRANCH  40  41
DOCKED: ATOM     41  C   UNL d   1      12.003   5.572   7.438 -0.12 +0.16    +0.139 C 
DOCKED: ATOM     42  O   UNL d   1      10.835   5.488   7.083 -0.55 -0.86    -0.650 OA
DOCKED: BRANCH  41  43
DOCKED: ATOM     43  O   UNL d   1      12.468   4.703   8.362 -0.07 -1.28    -0.776 OA
DOCKED: ATOM     44  H   UNL d   1      13.409   4.607   8.558 +0.02 +0.17    +0.167 HD
DOCKED: ENDBRANCH  41  43
DOCKED: ENDBRANCH  40  41
DOCKED: ENDBRANCH  39  40
DOCKED: ENDBRANCH  22  39
DOCKED: BRANCH  12  45
DOCKED: ATOM     45  C   UNL d   1      15.498  17.349   3.117 -0.04 -0.00    +0.004 C 
DOCKED: ATOM     46  C   UNL d   1      15.285  17.790   1.880 -0.08 -0.01    +0.012 C 
DOCKED: ENDBRANCH  12  45
DOCKED: BRANCH  17  47
DOCKED: ATOM     47  C   UNL d   1       8.865  13.217   3.135 -0.53 -0.00    +0.004 C 
DOCKED: ATOM     48  C   UNL d   1       8.310  12.189   2.489 -0.44 -0.00    +0.012 C 
DOCKED: ENDBRANCH  17  47
DOCKED: TORSDOF 12
DOCKED: TER
DOCKED: ENDMDL
________________________________________________________________________________


	BEGINNING GENETIC ALGORITHM DOCKING 11 of 100
Run: 11 Seed: 1642593418 1743886698 [ Run 11 of 100 GA/GALS ]
Beginning LAMARCKIAN GENETIC ALGORITHM (LGA), with a maximum of 25000000 energy evaluations.

Final-Value: -9.453


	FINAL GENETIC ALGORITHM DOCKED STATE
	_______________________________________________


Detailed state:  trans 9.099 14.506 -11.022 quatxyzw 0.433432 -0.355359 0.202635 0.802992 center 8.781 34.984 -0.736 ntor 12 2.3031 92.7838 -156.9767 57.9520 132.1920 86.5113 164.9114 121.0865 60.6156 150.8964 163.4593 167.0717
State:	  9.099  14.506 -11.022   0.727 -0.596  0.340 73.167      2.30   92.78 -156.98   57.95  132.19   86.51  164.91  121.09   60.62  150.90  163.46  167.07

DOCKED: MODEL       11
DOCKED: USER    Run = 11
DOCKED: USER    DPF = D:/Protein_go_brrr/autodock/final/mut_Y35F/heme_Co/dock.dpf
DOCKED: USER  
DOCKED: USER    Estimated Free Energy of Binding    =   -3.74 kcal/mol  [=(1)+(2)+(3)-(4)]
DOCKED: USER    Estimated Inhibition Constant, Ki   =    1.80 mM (millimolar)  [Temperature = 298.15 K]
DOCKED: USER    
DOCKED: USER    (1) Final Intermolecular Energy     =   -7.32 kcal/mol
DOCKED: USER        vdW + Hbond + desolv Energy     =   -6.91 kcal/mol
DOCKED: USER        Electrostatic Energy            =   -0.41 kcal/mol
DOCKED: USER    (2) Final Total Internal Energy     =   -2.13 kcal/mol
DOCKED: USER    (3) Torsional Free Energy           =   +3.58 kcal/mol
DOCKED: USER    (4) Unbound System's Energy  [=(2)] =   -2.13 kcal/mol
DOCKED: USER    
DOCKED: USER    
DOCKED: USER    NEWDPF move heme_Co_opt.pdbqt
DOCKED: USER    NEWDPF about 8.781000 34.984000 -0.736000
DOCKED: USER    NEWDPF tran0 9.099088 14.505925 -11.021852
DOCKED: USER    NEWDPF quaternion0 0.433432 -0.355359 0.202635 0.802992
DOCKED: USER    NEWDPF axisangle0 0.727247 -0.596250 0.339997 73.166510
DOCKED: USER    NEWDPF quat0 0.727247 -0.596250 0.339997 73.166510
DOCKED: USER    NEWDPF dihe0 2.30 92.78 -156.98 57.95 132.19 86.51 164.91 121.09 60.62 150.90 163.46 167.07 
DOCKED: USER  keepresnum = 1 
DOCKED: USER  
DOCKED: REMARK  12 active torsions:
DOCKED: REMARK  status: ('A' for Active; 'I' for Inactive)
DOCKED: REMARK    1  A    between atoms: C_6  and  C_10 
DOCKED: REMARK    2  A    between atoms: C_10  and  C_11 
DOCKED: REMARK    3  A    between atoms: C_11  and  C_12 
DOCKED: REMARK    4  A    between atoms: C_12  and  O_14 
DOCKED: REMARK    5  A    between atoms: C_17  and  C_20 
DOCKED: REMARK    6  A    between atoms: C_24  and  C_27 
DOCKED: REMARK    7  A    between atoms: C_31  and  C_34 
DOCKED: REMARK    8  A    between atoms: C_34  and  C_35 
DOCKED: REMARK    9  A    between atoms: C_35  and  C_36 
DOCKED: REMARK   10  A    between atoms: C_36  and  O_38 
DOCKED: REMARK   11  A    between atoms: FE_43  and  C_44 
DOCKED: REMARK   12  A    between atoms: C_44  and  O_45 
DOCKED: USER                              x       y       z     vdW  Elec       q    Type
DOCKED: USER                           _______ _______ _______ _____ _____    ______ ____
DOCKED: ROOT
DOCKED: ATOM      1  C   UNL d   1       7.186  15.533 -10.993 -0.12 +0.01    +0.064 A 
DOCKED: ATOM      2  C   UNL d   1      10.765  15.355  -7.867 -0.27 -0.00    +0.064 C 
DOCKED: ATOM      3  C   UNL d   1      13.034  12.152 -10.591 -0.06 -0.02    +0.064 A 
DOCKED: ATOM      4  C   UNL d   1       9.577  12.606 -13.982 -0.03 -0.00    +0.064 A 
DOCKED: ATOM      5  C   UNL d   1       7.980  15.692  -9.921 -0.12 +0.01    +0.066 A 
DOCKED: ATOM      6  C   UNL d   1       7.687  16.624  -8.906 -0.22 -0.00    -0.021 A 
DOCKED: ATOM      7  C   UNL d   1       8.740  16.584  -8.013 -0.25 -0.00    -0.025 A 
DOCKED: ATOM      8  C   UNL d   1       9.622  15.620  -8.513 -0.27 +0.00    +0.066 A 
DOCKED: ATOM      9  C   UNL d   1       8.924  17.417  -6.735 -0.08 +0.01    +0.051 C 
DOCKED: ATOM     10  C   UNL d   1      11.720  14.362  -8.291 -0.26 -0.01    +0.066 A 
DOCKED: ATOM     11  C   UNL d   1      12.867  13.939  -7.584 -0.28 +0.00    -0.021 A 
DOCKED: ATOM     12  C   UNL d   1      13.508  13.002  -8.399 -0.25 -0.00    +0.000 A 
DOCKED: ATOM     13  C   UNL d   1      12.701  12.913  -9.534 -0.21 -0.02    +0.070 A 
DOCKED: ATOM     14  C   UNL d   1      13.253  14.344  -6.185 -0.37 -0.02    +0.052 C 
DOCKED: ATOM     15  C   UNL d   1      12.349  11.985 -11.857 -0.19 -0.02    +0.066 A 
DOCKED: ATOM     16  C   UNL d   1      12.822  11.295 -12.964 -0.19 +0.00    -0.021 A 
DOCKED: ATOM     17  C   UNL d   1      11.829  11.425 -13.946 -0.13 -0.00    +0.000 A 
DOCKED: ATOM     18  C   UNL d   1      10.817  12.172 -13.352 -0.10 -0.01    +0.070 A 
DOCKED: ATOM     19  C   UNL d   1      14.147  10.570 -13.046 -0.26 -0.01    +0.052 C 
DOCKED: ATOM     20  C   UNL d   1       8.618  13.404 -13.454 -0.15 +0.00    +0.066 A 
DOCKED: ATOM     21  C   UNL d   1       7.486  13.781 -14.171 -0.15 -0.00    -0.025 A 
DOCKED: ATOM     22  C   UNL d   1       6.764  14.602 -13.325 -0.18 -0.00    -0.021 A 
DOCKED: ATOM     23  C   UNL d   1       7.504  14.695 -12.127 -0.22 +0.00    +0.066 A 
DOCKED: ATOM     24  C   UNL d   1       7.118  13.395 -15.602 -0.09 -0.00    +0.051 C 
DOCKED: ATOM     25  N   UNL d   1       9.174  15.047  -9.690 -0.18 -0.00    -0.248 N 
DOCKED: ATOM     26  N   UNL d   1      11.591  13.694  -9.442 -0.17 +0.04    -0.248 N 
DOCKED: ATOM     27  N   UNL d   1      11.174  12.513 -12.118 -0.15 +0.03    -0.248 N 
DOCKED: ATOM     28  N   UNL d   1       8.628  13.973 -12.201 -0.17 -0.00    -0.248 N 
DOCKED: ATOM     29 FE   UNL d   1      10.230  13.705 -10.979 -0.05 -0.00    +0.000 Fe
DOCKED: ENDROOT
DOCKED: BRANCH   6  30
DOCKED: ATOM     30  C   UNL d   1       6.486  17.562  -8.851 -0.19 +0.01    +0.052 C 
DOCKED: BRANCH  30  31
DOCKED: ATOM     31  C   UNL d   1       6.932  19.015  -9.009 -0.06 +0.02    +0.115 C 
DOCKED: BRANCH  31  32
DOCKED: ATOM     32  C   UNL d   1       6.535  19.873  -7.827 -0.06 +0.04    +0.139 C 
DOCKED: ATOM     33  O   UNL d   1       6.543  19.390  -6.705 -0.34 -0.38    -0.650 OA
DOCKED: BRANCH  32  34
DOCKED: ATOM     34  O   UNL d   1       6.215  21.181  -7.965 +0.03 -0.10    -0.776 OA
DOCKED: ATOM     35  H   UNL d   1       6.241  21.662  -8.804 +0.01 +0.01    +0.167 HD
DOCKED: ENDBRANCH  32  34
DOCKED: ENDBRANCH  31  32
DOCKED: ENDBRANCH  30  31
DOCKED: ENDBRANCH   6  30
DOCKED: BRANCH  29  36
DOCKED: ATOM     36  C   UNL d   1      11.163  15.398 -11.790 -0.03 -0.01    +0.190 C 
DOCKED: BRANCH  36  37
DOCKED: ATOM     37  O   UNL d   1      10.923  16.541 -12.560 +0.00 +0.02    -0.399 OA
DOCKED: ATOM     38  H   UNL d   1      10.080  16.343 -13.056 +0.02 -0.01    +0.209 HD
DOCKED: ENDBRANCH  36  37
DOCKED: ENDBRANCH  29  36
DOCKED: BRANCH  22  39
DOCKED: ATOM     39  C   UNL d   1       5.467  15.307 -13.677 -0.12 +0.00    +0.052 C 
DOCKED: BRANCH  39  40
DOCKED: ATOM     40  C   UNL d   1       5.749  16.711 -14.239 -0.03 -0.00    +0.115 C 
DOCKED: BRANCH  40  41
DOCKED: ATOM     41  C   UNL d   1       6.941  17.406 -13.616 -0.02 -0.00    +0.139 C 
DOCKED: ATOM     42  O   UNL d   1       6.757  18.256 -12.757 +0.02 -0.00    -0.650 OA
DOCKED: BRANCH  41  43
DOCKED: ATOM     43  O   UNL d   1       8.209  17.050 -13.921 +0.02 +0.02    -0.776 OA
DOCKED: ATOM     44  H   UNL d   1       8.940  17.147 -13.296 +0.01 -0.00    +0.167 HD
DOCKED: ENDBRANCH  41  43
DOCKED: ENDBRANCH  40  41
DOCKED: ENDBRANCH  39  40
DOCKED: ENDBRANCH  22  39
DOCKED: BRANCH  12  45
DOCKED: ATOM     45  C   UNL d   1      14.773  12.171  -8.230 -0.31 -0.00    +0.004 C 
DOCKED: ATOM     46  C   UNL d   1      15.176  11.404  -7.220 -0.44 -0.00    +0.012 C 
DOCKED: ENDBRANCH  12  45
DOCKED: BRANCH  17  47
DOCKED: ATOM     47  C   UNL d   1      11.817  10.945 -15.360 -0.10 -0.00    +0.004 C 
DOCKED: ATOM     48  C   UNL d   1      11.027   9.961 -15.798 -0.12 -0.00    +0.012 C 
DOCKED: ENDBRANCH  17  47
DOCKED: TORSDOF 12
DOCKED: TER
DOCKED: ENDMDL
________________________________________________________________________________


	BEGINNING GENETIC ALGORITHM DOCKING 12 of 100
Run: 12 Seed: 365902232 635495385 [ Run 12 of 100 GA/GALS ]
Beginning LAMARCKIAN GENETIC ALGORITHM (LGA), with a maximum of 25000000 energy evaluations.

Final-Value: -8.939


	FINAL GENETIC ALGORITHM DOCKED STATE
	_______________________________________________


Detailed state:  trans -1.059 12.128 -12.192 quatxyzw 0.456362 0.194197 -0.294165 0.817000 center 8.781 34.984 -0.736 ntor 12 33.3049 133.3949 134.8022 94.9953 135.6429 84.1118 -16.6729 -20.3851 -67.1414 -174.1527 5.4103 174.2084
State:	 -1.059  12.128 -12.192   0.791  0.337 -0.510 70.429     33.30  133.39  134.80   95.00  135.64   84.11  -16.67  -20.39  -67.14 -174.15    5.41  174.21

DOCKED: MODEL       12
DOCKED: USER    Run = 12
DOCKED: USER    DPF = D:/Protein_go_brrr/autodock/final/mut_Y35F/heme_Co/dock.dpf
DOCKED: USER  
DOCKED: USER    Estimated Free Energy of Binding    =   -3.25 kcal/mol  [=(1)+(2)+(3)-(4)]
DOCKED: USER    Estimated Inhibition Constant, Ki   =    4.17 mM (millimolar)  [Temperature = 298.15 K]
DOCKED: USER    
DOCKED: USER    (1) Final Intermolecular Energy     =   -6.83 kcal/mol
DOCKED: USER        vdW + Hbond + desolv Energy     =   -6.17 kcal/mol
DOCKED: USER        Electrostatic Energy            =   -0.66 kcal/mol
DOCKED: USER    (2) Final Total Internal Energy     =   -2.11 kcal/mol
DOCKED: USER    (3) Torsional Free Energy           =   +3.58 kcal/mol
DOCKED: USER    (4) Unbound System's Energy  [=(2)] =   -2.11 kcal/mol
DOCKED: USER    
DOCKED: USER    
DOCKED: USER    NEWDPF move heme_Co_opt.pdbqt
DOCKED: USER    NEWDPF about 8.781000 34.984000 -0.736000
DOCKED: USER    NEWDPF tran0 -1.059494 12.127666 -12.192015
DOCKED: USER    NEWDPF quaternion0 0.456362 0.194197 -0.294165 0.817000
DOCKED: USER    NEWDPF axisangle0 0.791418 0.336774 -0.510137 70.428858
DOCKED: USER    NEWDPF quat0 0.791418 0.336774 -0.510137 70.428858
DOCKED: USER    NEWDPF dihe0 33.30 133.39 134.80 95.00 135.64 84.11 -16.67 -20.39 -67.14 -174.15 5.41 174.21 
DOCKED: USER  keepresnum = 1 
DOCKED: USER  
DOCKED: REMARK  12 active torsions:
DOCKED: REMARK  status: ('A' for Active; 'I' for Inactive)
DOCKED: REMARK    1  A    between atoms: C_6  and  C_10 
DOCKED: REMARK    2  A    between atoms: C_10  and  C_11 
DOCKED: REMARK    3  A    between atoms: C_11  and  C_12 
DOCKED: REMARK    4  A    between atoms: C_12  and  O_14 
DOCKED: REMARK    5  A    between atoms: C_17  and  C_20 
DOCKED: REMARK    6  A    between atoms: C_24  and  C_27 
DOCKED: REMARK    7  A    between atoms: C_31  and  C_34 
DOCKED: REMARK    8  A    between atoms: C_34  and  C_35 
DOCKED: REMARK    9  A    between atoms: C_35  and  C_36 
DOCKED: REMARK   10  A    between atoms: C_36  and  O_38 
DOCKED: REMARK   11  A    between atoms: FE_43  and  C_44 
DOCKED: REMARK   12  A    between atoms: C_44  and  O_45 
DOCKED: USER                              x       y       z     vdW  Elec       q    Type
DOCKED: USER                           _______ _______ _______ _____ _____    ______ ____
DOCKED: ROOT
DOCKED: ATOM      1  C   UNL d   1      -2.167  10.523 -13.147 -0.13 -0.00    +0.064 A 
DOCKED: ATOM      2  C   UNL d   1      -2.602  12.618  -8.901 -0.24 -0.02    +0.064 C 
DOCKED: ATOM      3  C   UNL d   1       1.324  15.210  -9.736 -0.21 -0.00    +0.064 A 
DOCKED: ATOM      4  C   UNL d   1       1.569  13.367 -14.231 -0.11 -0.00    +0.064 A 
DOCKED: ATOM      5  C   UNL d   1      -2.553  10.878 -11.911 -0.15 -0.00    +0.066 A 
DOCKED: ATOM      6  C   UNL d   1      -3.732  10.378 -11.324 -0.13 +0.00    -0.021 A 
DOCKED: ATOM      7  C   UNL d   1      -3.865  11.007 -10.101 -0.18 +0.01    -0.025 A 
DOCKED: ATOM      8  C   UNL d   1      -2.755  11.850  -9.988 -0.19 -0.01    +0.066 A 
DOCKED: ATOM      9  C   UNL d   1      -4.989  10.831  -9.068 +0.02 -0.03    +0.051 C 
DOCKED: ATOM     10  C   UNL d   1      -1.479  13.496  -8.685 -0.22 -0.02    +0.066 A 
DOCKED: ATOM     11  C   UNL d   1      -1.189  14.220  -7.508 -0.24 +0.01    -0.021 A 
DOCKED: ATOM     12  C   UNL d   1      -0.037  14.964  -7.778 -0.24 -0.00    +0.000 A 
DOCKED: ATOM     13  C   UNL d   1       0.296  14.631  -9.091 -0.19 -0.01    +0.070 A 
DOCKED: ATOM     14  C   UNL d   1      -1.921  14.119  -6.194 -0.25 -0.04    +0.052 C 
DOCKED: ATOM     15  C   UNL d   1       1.775  15.024 -11.101 -0.20 -0.00    +0.066 A 
DOCKED: ATOM     16  C   UNL d   1       2.754  15.761 -11.752 -0.19 -0.00    -0.021 A 
DOCKED: ATOM     17  C   UNL d   1       2.826  15.235 -13.050 -0.16 +0.00    +0.000 A 
DOCKED: ATOM     18  C   UNL d   1       1.894  14.204 -13.083 -0.14 -0.00    +0.070 A 
DOCKED: ATOM     19  C   UNL d   1       3.551  16.893 -11.142 -0.13 +0.00    +0.052 C 
DOCKED: ATOM     20  C   UNL d   1       0.607  12.417 -14.313 -0.10 -0.00    +0.066 A 
DOCKED: ATOM     21  C   UNL d   1       0.364  11.703 -15.484 -0.09 +0.00    -0.025 A 
DOCKED: ATOM     22  C   UNL d   1      -0.688  10.855 -15.193 -0.09 +0.00    -0.021 A 
DOCKED: ATOM     23  C   UNL d   1      -1.047  11.104 -13.851 -0.13 -0.00    +0.066 A 
DOCKED: ATOM     24  C   UNL d   1       1.087  11.836 -16.822 -0.04 -0.00    +0.051 C 
DOCKED: ATOM     25  N   UNL d   1      -1.922  11.787 -11.092 -0.11 +0.03    -0.248 N 
DOCKED: ATOM     26  N   UNL d   1      -0.544  13.701  -9.618 -0.15 +0.04    -0.248 N 
DOCKED: ATOM     27  N   UNL d   1       1.265  14.127 -11.915 -0.17 +0.00    -0.248 N 
DOCKED: ATOM     28  N   UNL d   1      -0.267  12.050 -13.316 -0.08 +0.01    -0.248 N 
DOCKED: ATOM     29 FE   UNL d   1      -0.233  13.024 -11.531 -0.06 -0.00    +0.000 Fe
DOCKED: ENDROOT
DOCKED: BRANCH   6  30
DOCKED: ATOM     30  C   UNL d   1      -4.720   9.403 -11.955 -0.08 +0.00    +0.052 C 
DOCKED: BRANCH  30  31
DOCKED: ATOM     31  C   UNL d   1      -4.327   7.960 -11.638 -0.13 +0.01    +0.115 C 
DOCKED: BRANCH  31  32
DOCKED: ATOM     32  C   UNL d   1      -5.303   7.289 -10.696 -0.13 +0.05    +0.139 C 
DOCKED: ATOM     33  O   UNL d   1      -4.892   6.469  -9.888 -0.23 -0.36    -0.650 OA
DOCKED: BRANCH  32  34
DOCKED: ATOM     34  O   UNL d   1      -6.619   7.603 -10.683 -0.48 -0.38    -0.776 OA
DOCKED: ATOM     35  H   UNL d   1      -7.110   7.920 -11.454 +0.02 +0.04    +0.167 HD
DOCKED: ENDBRANCH  32  34
DOCKED: ENDBRANCH  31  32
DOCKED: ENDBRANCH  30  31
DOCKED: ENDBRANCH   6  30
DOCKED: BRANCH  29  36
DOCKED: ATOM     36  C   UNL d   1      -1.601  14.441 -12.252 -0.06 -0.01    +0.190 C 
DOCKED: BRANCH  36  37
DOCKED: ATOM     37  O   UNL d   1      -2.491  14.697 -13.300 -0.00 +0.02    -0.399 OA
DOCKED: ATOM     38  H   UNL d   1      -2.681  13.803 -13.700 +0.01 -0.01    +0.209 HD
DOCKED: ENDBRANCH  36  37
DOCKED: ENDBRANCH  29  36
DOCKED: BRANCH  22  39
DOCKED: ATOM     39  C   UNL d   1      -1.351   9.907 -16.175 -0.04 -0.00    +0.052 C 
DOCKED: BRANCH  39  40
DOCKED: ATOM     40  C   UNL d   1      -2.426  10.639 -16.995 -0.01 -0.00    +0.115 C 
DOCKED: BRANCH  40  41
DOCKED: ATOM     41  C   UNL d   1      -2.578  12.107 -16.657 -0.00 -0.00    +0.139 C 
DOCKED: ATOM     42  O   UNL d   1      -2.350  12.946 -17.517 +0.00 +0.02    -0.650 OA
DOCKED: BRANCH  41  43
DOCKED: ATOM     43  O   UNL d   1      -3.043  12.514 -15.455 +0.01 +0.03    -0.776 OA
DOCKED: ATOM     44  H   UNL d   1      -2.685  13.284 -14.993 +0.01 -0.01    +0.167 HD
DOCKED: ENDBRANCH  41  43
DOCKED: ENDBRANCH  40  41
DOCKED: ENDBRANCH  39  40
DOCKED: ENDBRANCH  22  39
DOCKED: BRANCH  12  45
DOCKED: ATOM     45  C   UNL d   1       0.793  15.932  -6.945 -0.27 -0.00    +0.004 C 
DOCKED: ATOM     46  C   UNL d   1       1.797  15.708  -6.101 -0.33 +0.00    +0.012 C 
DOCKED: ENDBRANCH  12  45
DOCKED: BRANCH  17  47
DOCKED: ATOM     47  C   UNL d   1       3.656  15.673 -14.212 -0.08 -0.00    +0.004 C 
DOCKED: ATOM     48  C   UNL d   1       4.629  14.930 -14.744 -0.09 -0.00    +0.012 C 
DOCKED: ENDBRANCH  17  47
DOCKED: TORSDOF 12
DOCKED: TER
DOCKED: ENDMDL
________________________________________________________________________________


	BEGINNING GENETIC ALGORITHM DOCKING 13 of 100
Run: 13 Seed: 2026607890 1190365678 [ Run 13 of 100 GA/GALS ]
Beginning LAMARCKIAN GENETIC ALGORITHM (LGA), with a maximum of 25000000 energy evaluations.

Final-Value: -11.028


	FINAL GENETIC ALGORITHM DOCKED STATE
	_______________________________________________


Detailed state:  trans -2.194 -9.307 -13.227 quatxyzw 0.241935 0.864794 -0.400223 0.182810 center 8.781 34.984 -0.736 ntor 12 145.1847 103.8632 -49.7662 131.6161 126.6972 111.9723 -129.2313 -17.2156 -127.1066 -177.7809 -172.3676 -179.9705
State:	 -2.194  -9.307 -13.227   0.246  0.880 -0.407 158.933    145.18  103.86  -49.77  131.62  126.70  111.97 -129.23  -17.22 -127.11 -177.78 -172.37 -179.97

DOCKED: MODEL       13
DOCKED: USER    Run = 13
DOCKED: USER    DPF = D:/Protein_go_brrr/autodock/final/mut_Y35F/heme_Co/dock.dpf
DOCKED: USER  
DOCKED: USER    Estimated Free Energy of Binding    =   -3.59 kcal/mol  [=(1)+(2)+(3)-(4)]
DOCKED: USER    Estimated Inhibition Constant, Ki   =    2.34 mM (millimolar)  [Temperature = 298.15 K]
DOCKED: USER    
DOCKED: USER    (1) Final Intermolecular Energy     =   -7.17 kcal/mol
DOCKED: USER        vdW + Hbond + desolv Energy     =   -7.12 kcal/mol
DOCKED: USER        Electrostatic Energy            =   -0.05 kcal/mol
DOCKED: USER    (2) Final Total Internal Energy     =   -3.86 kcal/mol
DOCKED: USER    (3) Torsional Free Energy           =   +3.58 kcal/mol
DOCKED: USER    (4) Unbound System's Energy  [=(2)] =   -3.86 kcal/mol
DOCKED: USER    
DOCKED: USER    
DOCKED: USER    NEWDPF move heme_Co_opt.pdbqt
DOCKED: USER    NEWDPF about 8.781000 34.984000 -0.736000
DOCKED: USER    NEWDPF tran0 -2.193940 -9.307343 -13.226517
DOCKED: USER    NEWDPF quaternion0 0.241935 0.864794 -0.400223 0.182810
DOCKED: USER    NEWDPF axisangle0 0.246082 0.879617 -0.407083 158.933004
DOCKED: USER    NEWDPF quat0 0.246082 0.879617 -0.407083 158.933004
DOCKED: USER    NEWDPF dihe0 145.18 103.86 -49.77 131.62 126.70 111.97 -129.23 -17.22 -127.11 -177.78 -172.37 -179.97 
DOCKED: USER  keepresnum = 1 
DOCKED: USER  
DOCKED: REMARK  12 active torsions:
DOCKED: REMARK  status: ('A' for Active; 'I' for Inactive)
DOCKED: REMARK    1  A    between atoms: C_6  and  C_10 
DOCKED: REMARK    2  A    between atoms: C_10  and  C_11 
DOCKED: REMARK    3  A    between atoms: C_11  and  C_12 
DOCKED: REMARK    4  A    between atoms: C_12  and  O_14 
DOCKED: REMARK    5  A    between atoms: C_17  and  C_20 
DOCKED: REMARK    6  A    between atoms: C_24  and  C_27 
DOCKED: REMARK    7  A    between atoms: C_31  and  C_34 
DOCKED: REMARK    8  A    between atoms: C_34  and  C_35 
DOCKED: REMARK    9  A    between atoms: C_35  and  C_36 
DOCKED: REMARK   10  A    between atoms: C_36  and  O_38 
DOCKED: REMARK   11  A    between atoms: FE_43  and  C_44 
DOCKED: REMARK   12  A    between atoms: C_44  and  O_45 
DOCKED: USER                              x       y       z     vdW  Elec       q    Type
DOCKED: USER                           _______ _______ _______ _____ _____    ______ ____
DOCKED: ROOT
DOCKED: ATOM      1  C   UNL d   1      -0.046  -9.606 -13.332 -0.08 +0.00    +0.064 A 
DOCKED: ATOM      2  C   UNL d   1      -3.701 -12.647 -13.390 -0.24 -0.00    +0.064 C 
DOCKED: ATOM      3  C   UNL d   1      -6.752  -9.051 -12.620 -0.16 -0.01    +0.064 A 
DOCKED: ATOM      4  C   UNL d   1      -3.077  -5.881 -12.942 -0.17 +0.00    +0.064 A 
DOCKED: ATOM      5  C   UNL d   1      -0.817 -10.706 -13.368 -0.25 -0.00    +0.066 A 
DOCKED: ATOM      6  C   UNL d   1      -0.288 -11.980 -13.651 -0.28 +0.00    -0.021 A 
DOCKED: ATOM      7  C   UNL d   1      -1.356 -12.855 -13.689 -0.22 +0.00    -0.025 A 
DOCKED: ATOM      8  C   UNL d   1      -2.488 -12.080 -13.412 -0.23 -0.00    +0.066 A 
DOCKED: ATOM      9  C   UNL d   1      -1.328 -14.364 -13.974 -0.16 +0.00    +0.051 C 
DOCKED: ATOM     10  C   UNL d   1      -4.919 -11.936 -13.089 -0.21 -0.01    +0.066 A 
DOCKED: ATOM     11  C   UNL d   1      -6.202 -12.497 -12.913 -0.24 +0.00    -0.021 A 
DOCKED: ATOM     12  C   UNL d   1      -7.072 -11.427 -12.686 -0.22 -0.00    +0.000 A 
DOCKED: ATOM     13  C   UNL d   1      -6.255 -10.296 -12.728 -0.16 -0.01    +0.070 A 
DOCKED: ATOM     14  C   UNL d   1      -6.535 -13.966 -12.872 -0.31 -0.00    +0.052 C 
DOCKED: ATOM     15  C   UNL d   1      -6.065  -7.777 -12.693 -0.15 -0.01    +0.066 A 
DOCKED: ATOM     16  C   UNL d   1      -6.658  -6.523 -12.719 -0.15 +0.00    -0.021 A 
DOCKED: ATOM     17  C   UNL d   1      -5.602  -5.605 -12.815 -0.14 -0.00    +0.000 A 
DOCKED: ATOM     18  C   UNL d   1      -4.443  -6.374 -12.822 -0.13 -0.00    +0.070 A 
DOCKED: ATOM     19  C   UNL d   1      -8.145  -6.254 -12.657 -0.08 -0.00    +0.052 C 
DOCKED: ATOM     20  C   UNL d   1      -1.942  -6.613 -13.038 -0.21 +0.00    +0.066 A 
DOCKED: ATOM     21  C   UNL d   1      -0.688  -6.024 -13.186 -0.23 -0.00    -0.025 A 
DOCKED: ATOM     22  C   UNL d   1       0.209  -7.074 -13.272 -0.28 -0.00    -0.021 A 
DOCKED: ATOM     23  C   UNL d   1      -0.550  -8.260 -13.183 -0.26 +0.00    +0.066 A 
DOCKED: ATOM     24  C   UNL d   1      -0.361  -4.535 -13.262 -0.19 +0.01    +0.051 C 
DOCKED: ATOM     25  N   UNL d   1      -2.183 -10.746 -13.204 -0.15 +0.03    -0.248 N 
DOCKED: ATOM     26  N   UNL d   1      -4.946 -10.610 -12.916 -0.11 +0.02    -0.248 N 
DOCKED: ATOM     27  N   UNL d   1      -4.759  -7.664 -12.779 -0.08 +0.01    -0.248 N 
DOCKED: ATOM     28  N   UNL d   1      -1.852  -7.986 -13.044 -0.17 -0.00    -0.248 N 
DOCKED: ATOM     29 FE   UNL d   1      -3.544  -9.111 -12.978 -0.05 -0.00    +0.000 Fe
DOCKED: ENDROOT
DOCKED: BRANCH   6  30
DOCKED: ATOM     30  C   UNL d   1       1.170 -12.315 -13.950 -0.25 -0.00    +0.052 C 
DOCKED: BRANCH  30  31
DOCKED: ATOM     31  C   UNL d   1       1.457 -12.175 -15.444 -0.11 -0.00    +0.115 C 
DOCKED: BRANCH  31  32
DOCKED: ATOM     32  C   UNL d   1       0.999 -10.843 -15.998 -0.08 +0.01    +0.139 C 
DOCKED: ATOM     33  O   UNL d   1       1.819  -9.957 -16.187 -0.08 -0.04    -0.650 OA
DOCKED: BRANCH  32  34
DOCKED: ATOM     34  O   UNL d   1      -0.291 -10.613 -16.339 +0.05 -0.01    -0.776 OA
DOCKED: ATOM     35  H   UNL d   1      -0.755  -9.780 -16.180 +0.02 +0.00    +0.167 HD
DOCKED: ENDBRANCH  32  34
DOCKED: ENDBRANCH  31  32
DOCKED: ENDBRANCH  30  31
DOCKED: ENDBRANCH   6  30
DOCKED: BRANCH  29  36
DOCKED: ATOM     36  C   UNL d   1      -3.675  -9.079 -15.070 -0.03 -0.00    +0.190 C 
DOCKED: BRANCH  36  37
DOCKED: ATOM     37  O   UNL d   1      -2.908  -9.167 -16.236 +0.00 -0.00    -0.399 OA
DOCKED: ATOM     38  H   UNL d   1      -1.961  -9.132 -15.923 +0.03 +0.00    +0.209 HD
DOCKED: ENDBRANCH  36  37
DOCKED: ENDBRANCH  29  36
DOCKED: BRANCH  22  39
DOCKED: ATOM     39  C   UNL d   1       1.704  -6.937 -13.493 -0.31 +0.02    +0.052 C 
DOCKED: BRANCH  39  40
DOCKED: ATOM     40  C   UNL d   1       2.010  -6.658 -14.974 -0.14 +0.03    +0.115 C 
DOCKED: BRANCH  40  41
DOCKED: ATOM     41  C   UNL d   1       0.794  -6.661 -15.875 -0.03 +0.02    +0.139 C 
DOCKED: ATOM     42  O   UNL d   1       0.521  -5.656 -16.516 +0.03 -0.06    -0.650 OA
DOCKED: BRANCH  41  43
DOCKED: ATOM     43  O   UNL d   1       0.049  -7.774 -16.058 +0.06 -0.04    -0.776 OA
DOCKED: ATOM     44  H   UNL d   1       0.442  -8.645 -16.198 +0.03 +0.01    +0.167 HD
DOCKED: ENDBRANCH  41  43
DOCKED: ENDBRANCH  40  41
DOCKED: ENDBRANCH  39  40
DOCKED: ENDBRANCH  22  39
DOCKED: BRANCH  12  45
DOCKED: ATOM     45  C   UNL d   1      -8.568 -11.344 -12.416 -0.32 -0.00    +0.004 C 
DOCKED: ATOM     46  C   UNL d   1      -9.237 -10.805 -11.400 -0.40 -0.00    +0.012 C 
DOCKED: ENDBRANCH  12  45
DOCKED: BRANCH  17  47
DOCKED: ATOM     47  C   UNL d   1      -5.640  -4.118 -12.943 -0.12 +0.00    +0.004 C 
DOCKED: ATOM     48  C   UNL d   1      -5.350  -3.283 -11.942 -0.18 +0.00    +0.012 C 
DOCKED: ENDBRANCH  17  47
DOCKED: TORSDOF 12
DOCKED: TER
DOCKED: ENDMDL
________________________________________________________________________________


	BEGINNING GENETIC ALGORITHM DOCKING 14 of 100
Run: 14 Seed: 307508776 933410615 [ Run 14 of 100 GA/GALS ]
Beginning LAMARCKIAN GENETIC ALGORITHM (LGA), with a maximum of 25000000 energy evaluations.

Final-Value: -9.472


	FINAL GENETIC ALGORITHM DOCKED STATE
	_______________________________________________


Detailed state:  trans 4.136 15.849 -11.093 quatxyzw -0.566804 0.311325 -0.091275 -0.757284 center 8.781 34.984 -0.736 ntor 12 151.4380 122.5997 -66.6184 115.5337 161.7599 99.8619 -121.4874 -13.7525 -128.2012 -177.8331 -173.3444 -179.7396
State:	  4.136  15.849 -11.093  -0.868  0.477 -0.140 -81.549    151.44  122.60  -66.62  115.53  161.76   99.86 -121.49  -13.75 -128.20 -177.83 -173.34 -179.74

DOCKED: MODEL       14
DOCKED: USER    Run = 14
DOCKED: USER    DPF = D:/Protein_go_brrr/autodock/final/mut_Y35F/heme_Co/dock.dpf
DOCKED: USER  
DOCKED: USER    Estimated Free Energy of Binding    =   -2.09 kcal/mol  [=(1)+(2)+(3)-(4)]
DOCKED: USER    Estimated Inhibition Constant, Ki   =   29.47 mM (millimolar)  [Temperature = 298.15 K]
DOCKED: USER    
DOCKED: USER    (1) Final Intermolecular Energy     =   -5.67 kcal/mol
DOCKED: USER        vdW + Hbond + desolv Energy     =   -5.69 kcal/mol
DOCKED: USER        Electrostatic Energy            =   +0.02 kcal/mol
DOCKED: USER    (2) Final Total Internal Energy     =   -3.80 kcal/mol
DOCKED: USER    (3) Torsional Free Energy           =   +3.58 kcal/mol
DOCKED: USER    (4) Unbound System's Energy  [=(2)] =   -3.80 kcal/mol
DOCKED: USER    
DOCKED: USER    
DOCKED: USER    NEWDPF move heme_Co_opt.pdbqt
DOCKED: USER    NEWDPF about 8.781000 34.984000 -0.736000
DOCKED: USER    NEWDPF tran0 4.136140 15.848976 -11.092810
DOCKED: USER    NEWDPF quaternion0 -0.566804 0.311325 -0.091275 -0.757284
DOCKED: USER    NEWDPF axisangle0 -0.867886 0.476699 -0.139760 -81.549315
DOCKED: USER    NEWDPF quat0 -0.867886 0.476699 -0.139760 -81.549315
DOCKED: USER    NEWDPF dihe0 151.44 122.60 -66.62 115.53 161.76 99.86 -121.49 -13.75 -128.20 -177.83 -173.34 -179.74 
DOCKED: USER  keepresnum = 1 
DOCKED: USER  
DOCKED: REMARK  12 active torsions:
DOCKED: REMARK  status: ('A' for Active; 'I' for Inactive)
DOCKED: REMARK    1  A    between atoms: C_6  and  C_10 
DOCKED: REMARK    2  A    between atoms: C_10  and  C_11 
DOCKED: REMARK    3  A    between atoms: C_11  and  C_12 
DOCKED: REMARK    4  A    between atoms: C_12  and  O_14 
DOCKED: REMARK    5  A    between atoms: C_17  and  C_20 
DOCKED: REMARK    6  A    between atoms: C_24  and  C_27 
DOCKED: REMARK    7  A    between atoms: C_31  and  C_34 
DOCKED: REMARK    8  A    between atoms: C_34  and  C_35 
DOCKED: REMARK    9  A    between atoms: C_35  and  C_36 
DOCKED: REMARK   10  A    between atoms: C_36  and  O_38 
DOCKED: REMARK   11  A    between atoms: FE_43  and  C_44 
DOCKED: REMARK   12  A    between atoms: C_44  and  O_45 
DOCKED: USER                              x       y       z     vdW  Elec       q    Type
DOCKED: USER                           _______ _______ _______ _____ _____    ______ ____
DOCKED: ROOT
DOCKED: ATOM      1  C   UNL d   1       2.013  16.288 -10.976 -0.14 +0.00    +0.064 A 
DOCKED: ATOM      2  C   UNL d   1       5.725  17.757  -8.394 -0.19 +0.03    +0.064 C 
DOCKED: ATOM      3  C   UNL d   1       8.617  14.821 -10.811 -0.22 +0.00    +0.064 A 
DOCKED: ATOM      4  C   UNL d   1       4.915  13.589 -13.718 -0.21 +0.00    +0.064 A 
DOCKED: ATOM      5  C   UNL d   1       2.808  16.878 -10.069 -0.13 +0.01    +0.066 A 
DOCKED: ATOM      6  C   UNL d   1       2.334  17.880  -9.199 -0.08 -0.00    -0.021 A 
DOCKED: ATOM      7  C   UNL d   1       3.421  18.319  -8.468 -0.10 -0.01    -0.025 A 
DOCKED: ATOM      8  C   UNL d   1       4.506  17.556  -8.911 -0.16 +0.02    +0.066 A 
DOCKED: ATOM      9  C   UNL d   1       3.452  19.414  -7.391 -0.06 +0.02    +0.051 C 
DOCKED: ATOM     10  C   UNL d   1       6.895  17.003  -8.768 -0.20 +0.02    +0.066 A 
DOCKED: ATOM     11  C   UNL d   1       8.170  17.069  -8.165 -0.22 -0.00    -0.021 A 
DOCKED: ATOM     12  C   UNL d   1       8.993  16.200  -8.887 -0.23 +0.00    +0.000 A 
DOCKED: ATOM     13  C   UNL d   1       8.159  15.660  -9.866 -0.14 +0.01    +0.070 A 
DOCKED: ATOM     14  C   UNL d   1       8.531  17.845  -6.924 -0.14 +0.01    +0.052 C 
DOCKED: ATOM     15  C   UNL d   1       7.911  14.213 -11.922 -0.25 +0.00    +0.066 A 
DOCKED: ATOM     16  C   UNL d   1       8.476  13.469 -12.949 -0.22 -0.00    -0.021 A 
DOCKED: ATOM     17  C   UNL d   1       7.413  13.114 -13.791 -0.21 +0.00    +0.000 A 
DOCKED: ATOM     18  C   UNL d   1       6.276  13.656 -13.200 -0.29 +0.00    +0.070 A 
DOCKED: ATOM     19  C   UNL d   1       9.945  13.139 -13.086 -0.14 -0.00    +0.052 C 
DOCKED: ATOM     20  C   UNL d   1       3.809  14.181 -13.207 -0.13 +0.00    +0.066 A 
DOCKED: ATOM     21  C   UNL d   1       2.560  14.073 -13.815 -0.15 +0.00    -0.025 A 
DOCKED: ATOM     22  C   UNL d   1       1.698  14.818 -13.031 -0.16 +0.00    -0.021 A 
DOCKED: ATOM     23  C   UNL d   1       2.472  15.357 -11.982 -0.19 +0.00    +0.066 A 
DOCKED: ATOM     24  C   UNL d   1       2.209  13.315 -15.092 -0.12 -0.00    +0.051 C 
DOCKED: ATOM     25  N   UNL d   1       4.155  16.651  -9.898 -0.09 -0.04    -0.248 N 
DOCKED: ATOM     26  N   UNL d   1       6.878  16.104  -9.758 -0.05 -0.05    -0.248 N 
DOCKED: ATOM     27  N   UNL d   1       6.615  14.329 -12.106 -0.22 -0.02    -0.248 N 
DOCKED: ATOM     28  N   UNL d   1       3.751  14.976 -12.086 -0.16 -0.02    -0.248 N 
DOCKED: ATOM     29 FE   UNL d   1       5.455  15.420 -11.069 -0.06 +0.00    +0.000 Fe
DOCKED: ENDROOT
DOCKED: BRANCH   6  30
DOCKED: ATOM     30  C   UNL d   1       0.916  18.439  -9.142 -0.03 +0.00    +0.052 C 
DOCKED: BRANCH  30  31
DOCKED: ATOM     31  C   UNL d   1       0.765  19.621 -10.099 -0.00 -0.00    +0.115 C 
DOCKED: BRANCH  31  32
DOCKED: ATOM     32  C   UNL d   1       1.274  19.306 -11.489 -0.00 -0.00    +0.139 C 
DOCKED: ATOM     33  O   UNL d   1       0.476  19.172 -12.405 +0.00 +0.02    -0.650 OA
DOCKED: BRANCH  32  34
DOCKED: ATOM     34  O   UNL d   1       2.596  19.215 -11.766 +0.02 -0.00    -0.776 OA
DOCKED: ATOM     35  H   UNL d   1       2.973  18.620 -12.429 +0.01 +0.00    +0.167 HD
DOCKED: ENDBRANCH  32  34
DOCKED: ENDBRANCH  31  32
DOCKED: ENDBRANCH  30  31
DOCKED: ENDBRANCH   6  30
DOCKED: BRANCH  29  36
DOCKED: ATOM     36  C   UNL d   1       5.768  17.100 -12.283 -0.05 +0.01    +0.190 C 
DOCKED: BRANCH  36  37
DOCKED: ATOM     37  O   UNL d   1       5.101  18.066 -13.043 -0.00 -0.00    -0.399 OA
DOCKED: ATOM     38  H   UNL d   1       4.135  17.940 -12.827 +0.02 +0.00    +0.209 HD
DOCKED: ENDBRANCH  36  37
DOCKED: ENDBRANCH  29  36
DOCKED: BRANCH  22  39
DOCKED: ATOM     39  C   UNL d   1       0.226  15.047 -13.317 -0.09 -0.00    +0.052 C 
DOCKED: BRANCH  39  40
DOCKED: ATOM     40  C   UNL d   1       0.045  16.120 -14.403 -0.02 -0.00    +0.115 C 
DOCKED: BRANCH  40  41
DOCKED: ATOM     41  C   UNL d   1       1.336  16.754 -14.877 -0.01 -0.00    +0.139 C 
DOCKED: ATOM     42  O   UNL d   1       1.611  16.734 -16.068 +0.00 +0.02    -0.650 OA
DOCKED: BRANCH  41  43
DOCKED: ATOM     43  O   UNL d   1       2.153  17.419 -14.030 +0.02 +0.02    -0.776 OA
DOCKED: ATOM     44  H   UNL d   1       1.866  18.200 -13.538 +0.01 -0.00    +0.167 HD
DOCKED: ENDBRANCH  41  43
DOCKED: ENDBRANCH  40  41
DOCKED: ENDBRANCH  39  40
DOCKED: ENDBRANCH  22  39
DOCKED: BRANCH  12  45
DOCKED: ATOM     45  C   UNL d   1      10.458  15.806  -8.753 -0.22 -0.00    +0.004 C 
DOCKED: ATOM     46  C   UNL d   1      11.015  14.678  -8.322 -0.35 -0.00    +0.012 C 
DOCKED: ENDBRANCH  12  45
DOCKED: BRANCH  17  47
DOCKED: ATOM     47  C   UNL d   1       7.429  12.369 -15.085 -0.16 +0.00    +0.004 C 
DOCKED: ATOM     48  C   UNL d   1       6.510  11.461 -15.424 -0.17 -0.00    +0.012 C 
DOCKED: ENDBRANCH  17  47
DOCKED: TORSDOF 12
DOCKED: TER
DOCKED: ENDMDL
________________________________________________________________________________


	BEGINNING GENETIC ALGORITHM DOCKING 15 of 100
Run: 15 Seed: 6090503 221006501 [ Run 15 of 100 GA/GALS ]
Beginning LAMARCKIAN GENETIC ALGORITHM (LGA), with a maximum of 25000000 energy evaluations.

Final-Value: -10.048


	FINAL GENETIC ALGORITHM DOCKED STATE
	_______________________________________________


Detailed state:  trans -15.813 8.264 7.543 quatxyzw 0.786697 0.341110 0.015627 -0.514302 center 8.781 34.984 -0.736 ntor 12 -8.1485 92.2445 -61.4516 122.1356 153.5137 123.2962 45.0046 -31.4698 149.9462 -156.3934 -155.0025 165.0324
State:	-15.813   8.264   7.543   0.917  0.398  0.018 -118.098     -8.15   92.24  -61.45  122.14  153.51  123.30   45.00  -31.47  149.95 -156.39 -155.00  165.03

DOCKED: MODEL       15
DOCKED: USER    Run = 15
DOCKED: USER    DPF = D:/Protein_go_brrr/autodock/final/mut_Y35F/heme_Co/dock.dpf
DOCKED: USER  
DOCKED: USER    Estimated Free Energy of Binding    =   -3.19 kcal/mol  [=(1)+(2)+(3)-(4)]
DOCKED: USER    Estimated Inhibition Constant, Ki   =    4.63 mM (millimolar)  [Temperature = 298.15 K]
DOCKED: USER    
DOCKED: USER    (1) Final Intermolecular Energy     =   -6.76 kcal/mol
DOCKED: USER        vdW + Hbond + desolv Energy     =   -3.78 kcal/mol
DOCKED: USER        Electrostatic Energy            =   -2.99 kcal/mol
DOCKED: USER    (2) Final Total Internal Energy     =   -3.28 kcal/mol
DOCKED: USER    (3) Torsional Free Energy           =   +3.58 kcal/mol
DOCKED: USER    (4) Unbound System's Energy  [=(2)] =   -3.28 kcal/mol
DOCKED: USER    
DOCKED: USER    
DOCKED: USER    NEWDPF move heme_Co_opt.pdbqt
DOCKED: USER    NEWDPF about 8.781000 34.984000 -0.736000
DOCKED: USER    NEWDPF tran0 -15.812594 8.264006 7.542912
DOCKED: USER    NEWDPF quaternion0 0.786697 0.341110 0.015627 -0.514302
DOCKED: USER    NEWDPF axisangle0 0.917315 0.397745 0.018222 -118.098311
DOCKED: USER    NEWDPF quat0 0.917315 0.397745 0.018222 -118.098311
DOCKED: USER    NEWDPF dihe0 -8.15 92.24 -61.45 122.14 153.51 123.30 45.00 -31.47 149.95 -156.39 -155.00 165.03 
DOCKED: USER  keepresnum = 1 
DOCKED: USER  
DOCKED: REMARK  12 active torsions:
DOCKED: REMARK  status: ('A' for Active; 'I' for Inactive)
DOCKED: REMARK    1  A    between atoms: C_6  and  C_10 
DOCKED: REMARK    2  A    between atoms: C_10  and  C_11 
DOCKED: REMARK    3  A    between atoms: C_11  and  C_12 
DOCKED: REMARK    4  A    between atoms: C_12  and  O_14 
DOCKED: REMARK    5  A    between atoms: C_17  and  C_20 
DOCKED: REMARK    6  A    between atoms: C_24  and  C_27 
DOCKED: REMARK    7  A    between atoms: C_31  and  C_34 
DOCKED: REMARK    8  A    between atoms: C_34  and  C_35 
DOCKED: REMARK    9  A    between atoms: C_35  and  C_36 
DOCKED: REMARK   10  A    between atoms: C_36  and  O_38 
DOCKED: REMARK   11  A    between atoms: FE_43  and  C_44 
DOCKED: REMARK   12  A    between atoms: C_44  and  O_45 
DOCKED: USER                              x       y       z     vdW  Elec       q    Type
DOCKED: USER                           _______ _______ _______ _____ _____    ______ ____
DOCKED: ROOT
DOCKED: ATOM      1  C   UNL d   1     -17.356   7.754   8.983 -0.00 +0.03    +0.064 A 
DOCKED: ATOM      2  C   UNL d   1     -16.373   6.101   4.634 -0.01 +0.02    +0.064 C 
DOCKED: ATOM      3  C   UNL d   1     -12.934   9.380   4.125 -0.10 +0.01    +0.064 A 
DOCKED: ATOM      4  C   UNL d   1     -13.660  10.834   8.710 -0.06 +0.06    +0.064 A 
DOCKED: ATOM      5  C   UNL d   1     -17.364   7.085   7.818 +0.00 +0.03    +0.066 A 
DOCKED: ATOM      6  C   UNL d   1     -18.205   5.977   7.599 -0.02 -0.01    -0.021 A 
DOCKED: ATOM      7  C   UNL d   1     -17.899   5.487   6.345 -0.02 -0.01    -0.025 A 
DOCKED: ATOM      8  C   UNL d   1     -16.898   6.327   5.846 -0.00 +0.02    +0.066 A 
DOCKED: ATOM      9  C   UNL d   1     -18.517   4.275   5.630 -0.07 +0.01    +0.051 C 
DOCKED: ATOM     10  C   UNL d   1     -15.359   6.927   4.028 -0.03 +0.02    +0.066 A 
DOCKED: ATOM     11  C   UNL d   1     -14.868   6.827   2.708 -0.06 -0.00    -0.021 A 
DOCKED: ATOM     12  C   UNL d   1     -13.869   7.797   2.585 -0.06 +0.00    +0.000 A 
DOCKED: ATOM     13  C   UNL d   1     -13.833   8.424   3.831 -0.08 +0.01    +0.070 A 
DOCKED: ATOM     14  C   UNL d   1     -15.398   5.924   1.624 -0.04 +0.01    +0.052 C 
DOCKED: ATOM     15  C   UNL d   1     -12.723  10.092   5.369 -0.09 +0.02    +0.066 A 
DOCKED: ATOM     16  C   UNL d   1     -11.682  10.965   5.651 -0.18 -0.00    -0.021 A 
DOCKED: ATOM     17  C   UNL d   1     -11.885  11.386   6.973 -0.20 +0.00    +0.000 A 
DOCKED: ATOM     18  C   UNL d   1     -13.048  10.746   7.389 -0.10 +0.04    +0.070 A 
DOCKED: ATOM     19  C   UNL d   1     -10.577  11.351   4.693 -0.26 +0.00    +0.052 C 
DOCKED: ATOM     20  C   UNL d   1     -14.740  10.156   9.164 +0.03 +0.07    +0.066 A 
DOCKED: ATOM     21  C   UNL d   1     -15.213  10.298  10.467 -0.05 -0.03    -0.025 A 
DOCKED: ATOM     22  C   UNL d   1     -16.296   9.444  10.566 -0.04 -0.01    -0.021 A 
DOCKED: ATOM     23  C   UNL d   1     -16.424   8.809   9.313 -0.02 +0.04    +0.066 A 
DOCKED: ATOM     24  C   UNL d   1     -14.649  11.189  11.571 -0.09 +0.04    +0.051 C 
DOCKED: ATOM     25  N   UNL d   1     -16.551   7.330   6.735 +0.01 -0.10    -0.248 N 
DOCKED: ATOM     26  N   UNL d   1     -14.773   7.934   4.684 -0.02 -0.07    -0.248 N 
DOCKED: ATOM     27  N   UNL d   1     -13.503   9.961   6.419 -0.02 -0.11    -0.248 N 
DOCKED: ATOM     28  N   UNL d   1     -15.483   9.235   8.462 -0.03 -0.19    -0.248 N 
DOCKED: ATOM     29 FE   UNL d   1     -14.937   8.725   6.571 -0.01 +0.00    +0.000 Fe
DOCKED: ENDROOT
DOCKED: BRANCH   6  30
DOCKED: ATOM     30  C   UNL d   1     -19.194   5.375   8.592 -0.04 +0.01    +0.052 C 
DOCKED: BRANCH  30  31
DOCKED: ATOM     31  C   UNL d   1     -18.453   4.666   9.726 -0.09 +0.04    +0.115 C 
DOCKED: BRANCH  31  32
DOCKED: ATOM     32  C   UNL d   1     -17.143   4.062   9.270 -0.19 +0.10    +0.139 C 
DOCKED: ATOM     33  O   UNL d   1     -17.138   2.953   8.757 -0.34 -0.48    -0.650 OA
DOCKED: BRANCH  32  34
DOCKED: ATOM     34  O   UNL d   1     -15.971   4.733   9.368 -0.03 -0.92    -0.776 OA
DOCKED: ATOM     35  H   UNL d   1     -15.900   5.677   9.564 +0.03 +0.17    +0.167 HD
DOCKED: ENDBRANCH  32  34
DOCKED: ENDBRANCH  31  32
DOCKED: ENDBRANCH  30  31
DOCKED: ENDBRANCH   6  30
DOCKED: BRANCH  29  36
DOCKED: ATOM     36  C   UNL d   1     -13.697   7.206   7.313 -0.10 +0.19    +0.190 C 
DOCKED: BRANCH  36  37
DOCKED: ATOM     37  O   UNL d   1     -13.683   6.094   8.162 -0.12 -0.62    -0.399 OA
DOCKED: ATOM     38  H   UNL d   1     -14.460   6.229   8.774 +0.05 +0.30    +0.209 HD
DOCKED: ENDBRANCH  36  37
DOCKED: ENDBRANCH  29  36
DOCKED: BRANCH  22  39
DOCKED: ATOM     39  C   UNL d   1     -17.118   9.207  11.819 -0.01 +0.02    +0.052 C 
DOCKED: BRANCH  39  40
DOCKED: ATOM     40  C   UNL d   1     -16.581   7.995  12.600 -0.03 +0.06    +0.115 C 
DOCKED: BRANCH  40  41
DOCKED: ATOM     41  C   UNL d   1     -15.170   7.589  12.229 -0.06 +0.17    +0.139 C 
DOCKED: ATOM     42  O   UNL d   1     -14.255   7.827  13.005 -0.56 -1.00    -0.650 OA
DOCKED: BRANCH  41  43
DOCKED: ATOM     43  O   UNL d   1     -14.904   6.891  11.103 -0.04 -1.13    -0.776 OA
DOCKED: ATOM     44  H   UNL d   1     -15.333   6.050  10.900 +0.03 +0.19    +0.167 HD
DOCKED: ENDBRANCH  41  43
DOCKED: ENDBRANCH  40  41
DOCKED: ENDBRANCH  39  40
DOCKED: ENDBRANCH  22  39
DOCKED: BRANCH  12  45
DOCKED: ATOM     45  C   UNL d   1     -12.963   8.215   1.434 -0.00 +0.00    +0.004 C 
DOCKED: ATOM     46  C   UNL d   1     -12.910   9.350   0.742 -0.09 -0.00    +0.012 C 
DOCKED: ENDBRANCH  12  45
DOCKED: BRANCH  17  47
DOCKED: ATOM     47  C   UNL d   1     -11.047  12.276   7.831 -0.31 +0.00    +0.004 C 
DOCKED: ATOM     48  C   UNL d   1     -11.541  13.294   8.539 -0.28 +0.00    +0.012 C 
DOCKED: ENDBRANCH  17  47
DOCKED: TORSDOF 12
DOCKED: TER
DOCKED: ENDMDL
________________________________________________________________________________


	BEGINNING GENETIC ALGORITHM DOCKING 16 of 100
Run: 16 Seed: 1320926639 41238363 [ Run 16 of 100 GA/GALS ]
Beginning LAMARCKIAN GENETIC ALGORITHM (LGA), with a maximum of 25000000 energy evaluations.

Final-Value: -10.671


	FINAL GENETIC ALGORITHM DOCKED STATE
	_______________________________________________


Detailed state:  trans 11.211 12.894 8.461 quatxyzw -0.381747 -0.571105 0.202861 0.697822 center 8.781 34.984 -0.736 ntor 12 -38.6855 95.2223 88.1504 173.4959 74.9092 156.3927 -150.3354 144.1129 15.6708 55.7728 -168.7992 152.5287
State:	 11.211  12.894   8.461  -0.533 -0.797  0.283 91.495    -38.69   95.22   88.15  173.50   74.91  156.39 -150.34  144.11   15.67   55.77 -168.80  152.53

DOCKED: MODEL       16
DOCKED: USER    Run = 16
DOCKED: USER    DPF = D:/Protein_go_brrr/autodock/final/mut_Y35F/heme_Co/dock.dpf
DOCKED: USER  
DOCKED: USER    Estimated Free Energy of Binding    =   -5.66 kcal/mol  [=(1)+(2)+(3)-(4)]
DOCKED: USER    Estimated Inhibition Constant, Ki   =   71.09 uM (micromolar)  [Temperature = 298.15 K]
DOCKED: USER    
DOCKED: USER    (1) Final Intermolecular Energy     =   -9.24 kcal/mol
DOCKED: USER        vdW + Hbond + desolv Energy     =   -6.73 kcal/mol
DOCKED: USER        Electrostatic Energy            =   -2.51 kcal/mol
DOCKED: USER    (2) Final Total Internal Energy     =   -1.43 kcal/mol
DOCKED: USER    (3) Torsional Free Energy           =   +3.58 kcal/mol
DOCKED: USER    (4) Unbound System's Energy  [=(2)] =   -1.43 kcal/mol
DOCKED: USER    
DOCKED: USER    
DOCKED: USER    NEWDPF move heme_Co_opt.pdbqt
DOCKED: USER    NEWDPF about 8.781000 34.984000 -0.736000
DOCKED: USER    NEWDPF tran0 11.210730 12.893748 8.460669
DOCKED: USER    NEWDPF quaternion0 -0.381747 -0.571105 0.202861 0.697822
DOCKED: USER    NEWDPF axisangle0 -0.532964 -0.797331 0.283218 91.494920
DOCKED: USER    NEWDPF quat0 -0.532964 -0.797331 0.283218 91.494920
DOCKED: USER    NEWDPF dihe0 -38.69 95.22 88.15 173.50 74.91 156.39 -150.34 144.11 15.67 55.77 -168.80 152.53 
DOCKED: USER  keepresnum = 1 
DOCKED: USER  
DOCKED: REMARK  12 active torsions:
DOCKED: REMARK  status: ('A' for Active; 'I' for Inactive)
DOCKED: REMARK    1  A    between atoms: C_6  and  C_10 
DOCKED: REMARK    2  A    between atoms: C_10  and  C_11 
DOCKED: REMARK    3  A    between atoms: C_11  and  C_12 
DOCKED: REMARK    4  A    between atoms: C_12  and  O_14 
DOCKED: REMARK    5  A    between atoms: C_17  and  C_20 
DOCKED: REMARK    6  A    between atoms: C_24  and  C_27 
DOCKED: REMARK    7  A    between atoms: C_31  and  C_34 
DOCKED: REMARK    8  A    between atoms: C_34  and  C_35 
DOCKED: REMARK    9  A    between atoms: C_35  and  C_36 
DOCKED: REMARK   10  A    between atoms: C_36  and  O_38 
DOCKED: REMARK   11  A    between atoms: FE_43  and  C_44 
DOCKED: REMARK   12  A    between atoms: C_44  and  O_45 
DOCKED: USER                              x       y       z     vdW  Elec       q    Type
DOCKED: USER                           _______ _______ _______ _____ _____    ______ ____
DOCKED: ROOT
DOCKED: ATOM      1  C   UNL d   1      10.510  13.560  10.405 -0.23 +0.03    +0.064 A 
DOCKED: ATOM      2  C   UNL d   1      11.330   9.232   8.616 -0.13 +0.02    +0.064 C 
DOCKED: ATOM      3  C   UNL d   1      12.282  11.138   4.339 -0.18 -0.00    +0.064 A 
DOCKED: ATOM      4  C   UNL d   1      11.827  15.593   6.239 -0.12 -0.01    +0.064 A 
DOCKED: ATOM      5  C   UNL d   1      10.629  12.235  10.221 -0.22 +0.02    +0.066 A 
DOCKED: ATOM      6  C   UNL d   1      10.492  11.318  11.282 -0.14 -0.01    -0.021 A 
DOCKED: ATOM      7  C   UNL d   1      10.754  10.066  10.762 -0.13 -0.01    -0.025 A 
DOCKED: ATOM      8  C   UNL d   1      11.022  10.270   9.404 -0.15 +0.02    +0.066 A 
DOCKED: ATOM      9  C   UNL d   1      10.756   8.719  11.502 -0.12 +0.02    +0.051 C 
DOCKED: ATOM     10  C   UNL d   1      11.595   9.341   7.203 -0.10 +0.02    +0.066 A 
DOCKED: ATOM     11  C   UNL d   1      11.785   8.277   6.295 -0.13 -0.01    -0.021 A 
DOCKED: ATOM     12  C   UNL d   1      12.057   8.861   5.055 -0.19 +0.00    +0.000 A 
DOCKED: ATOM     13  C   UNL d   1      12.000  10.234   5.294 -0.14 +0.01    +0.070 A 
DOCKED: ATOM     14  C   UNL d   1      11.619   6.809   6.594 -0.18 +0.03    +0.052 C 
DOCKED: ATOM     15  C   UNL d   1      12.322  12.585   4.425 -0.14 -0.00    +0.066 A 
DOCKED: ATOM     16  C   UNL d   1      12.762  13.456   3.439 -0.17 +0.00    -0.021 A 
DOCKED: ATOM     17  C   UNL d   1      12.635  14.742   3.983 -0.09 -0.00    +0.000 A 
DOCKED: ATOM     18  C   UNL d   1      12.110  14.554   5.257 -0.09 -0.01    +0.070 A 
DOCKED: ATOM     19  C   UNL d   1      13.268  13.050   2.072 -0.39 -0.01    +0.052 C 
DOCKED: ATOM     20  C   UNL d   1      11.398  15.429   7.513 -0.18 -0.00    +0.066 A 
DOCKED: ATOM     21  C   UNL d   1      11.196  16.505   8.375 -0.19 +0.00    -0.025 A 
DOCKED: ATOM     22  C   UNL d   1      10.788  15.951   9.575 -0.21 -0.00    -0.021 A 
DOCKED: ATOM     23  C   UNL d   1      10.773  14.552   9.388 -0.24 +0.01    +0.066 A 
DOCKED: ATOM     24  C   UNL d   1      11.401  17.988   8.077 -0.12 -0.00    +0.051 C 
DOCKED: ATOM     25  N   UNL d   1      10.946  11.603   9.040 -0.13 -0.05    -0.248 N 
DOCKED: ATOM     26  N   UNL d   1      11.665  10.523   6.580 -0.06 -0.03    -0.248 N 
DOCKED: ATOM     27  N   UNL d   1      11.965  13.256   5.498 -0.04 +0.01    -0.248 N 
DOCKED: ATOM     28  N   UNL d   1      11.144  14.232   8.142 -0.11 -0.02    -0.248 N 
DOCKED: ATOM     29 FE   UNL d   1      11.485  12.482   7.165 -0.04 +0.00    +0.000 Fe
DOCKED: ENDROOT
DOCKED: BRANCH   6  30
DOCKED: ATOM     30  C   UNL d   1      10.205  11.652  12.742 -0.12 +0.04    +0.052 C 
DOCKED: BRANCH  30  31
DOCKED: ATOM     31  C   UNL d   1      11.499  11.992  13.480 -0.11 +0.09    +0.115 C 
DOCKED: BRANCH  31  32
DOCKED: ATOM     32  C   UNL d   1      11.321  12.004  14.983 -0.06 +0.14    +0.139 C 
DOCKED: ATOM     33  O   UNL d   1      11.319  10.947  15.596 +0.00 -0.37    -0.650 OA
DOCKED: BRANCH  32  34
DOCKED: ATOM     34  O   UNL d   1      11.210  13.156  15.683 -0.04 -1.13    -0.776 OA
DOCKED: ATOM     35  H   UNL d   1      11.756  13.940  15.532 +0.00 +0.20    +0.167 HD
DOCKED: ENDBRANCH  32  34
DOCKED: ENDBRANCH  31  32
DOCKED: ENDBRANCH  30  31
DOCKED: ENDBRANCH   6  30
DOCKED: BRANCH  29  36
DOCKED: ATOM     36  C   UNL d   1      13.466  12.458   7.851 -0.04 +0.02    +0.190 C 
DOCKED: BRANCH  36  37
DOCKED: ATOM     37  O   UNL d   1      14.265  12.076   8.933 -0.00 -0.05    -0.399 OA
DOCKED: ATOM     38  H   UNL d   1      13.630  11.962   9.694 +0.02 +0.03    +0.209 HD
DOCKED: ENDBRANCH  36  37
DOCKED: ENDBRANCH  29  36
DOCKED: BRANCH  22  39
DOCKED: ATOM     39  C   UNL d   1      10.494  16.725  10.846 -0.21 +0.01    +0.052 C 
DOCKED: BRANCH  39  40
DOCKED: ATOM     40  C   UNL d   1      11.622  16.531  11.873 -0.12 +0.04    +0.115 C 
DOCKED: BRANCH  40  41
DOCKED: ATOM     41  C   UNL d   1      11.148  16.133  13.254 -0.09 +0.12    +0.139 C 
DOCKED: ATOM     42  O   UNL d   1      10.677  16.985  13.994 -0.05 -0.50    -0.650 OA
DOCKED: BRANCH  41  43
DOCKED: ATOM     43  O   UNL d   1      11.150  14.844  13.662 -0.44 -1.36    -0.776 OA
DOCKED: ATOM     44  H   UNL d   1      11.881  14.459  14.161 +0.00 +0.20    +0.167 HD
DOCKED: ENDBRANCH  41  43
DOCKED: ENDBRANCH  40  41
DOCKED: ENDBRANCH  39  40
DOCKED: ENDBRANCH  22  39
DOCKED: BRANCH  12  45
DOCKED: ATOM     45  C   UNL d   1      12.344   8.284   3.675 -0.40 +0.00    +0.004 C 
DOCKED: ATOM     46  C   UNL d   1      12.339   8.861   2.477 -0.50 -0.00    +0.012 C 
DOCKED: ENDBRANCH  12  45
DOCKED: BRANCH  17  47
DOCKED: ATOM     47  C   UNL d   1      13.015  16.065   3.403 -0.08 -0.00    +0.004 C 
DOCKED: ATOM     48  C   UNL d   1      12.606  16.489   2.205 -0.13 -0.00    +0.012 C 
DOCKED: ENDBRANCH  17  47
DOCKED: TORSDOF 12
DOCKED: TER
DOCKED: ENDMDL
________________________________________________________________________________


	BEGINNING GENETIC ALGORITHM DOCKING 17 of 100
Run: 17 Seed: 164814456 1349966121 [ Run 17 of 100 GA/GALS ]
Beginning LAMARCKIAN GENETIC ALGORITHM (LGA), with a maximum of 25000000 energy evaluations.

Final-Value: -9.281


	FINAL GENETIC ALGORITHM DOCKED STATE
	_______________________________________________


Detailed state:  trans -9.564 -19.036 1.004 quatxyzw 0.270366 0.546863 -0.780098 0.138891 center 8.781 34.984 -0.736 ntor 12 54.1829 120.5714 -139.4670 108.6676 106.9080 103.1710 29.3398 115.8095 -180.0000 135.7907 -171.2026 -179.9118
State:	 -9.564 -19.036   1.004   0.273  0.552 -0.788 164.033     54.18  120.57 -139.47  108.67  106.91  103.17   29.34  115.81 -180.00  135.79 -171.20 -179.91

DOCKED: MODEL       17
DOCKED: USER    Run = 17
DOCKED: USER    DPF = D:/Protein_go_brrr/autodock/final/mut_Y35F/heme_Co/dock.dpf
DOCKED: USER  
DOCKED: USER    Estimated Free Energy of Binding    =   -1.89 kcal/mol  [=(1)+(2)+(3)-(4)]
DOCKED: USER    Estimated Inhibition Constant, Ki   =   41.48 mM (millimolar)  [Temperature = 298.15 K]
DOCKED: USER    
DOCKED: USER    (1) Final Intermolecular Energy     =   -5.47 kcal/mol
DOCKED: USER        vdW + Hbond + desolv Energy     =   -5.24 kcal/mol
DOCKED: USER        Electrostatic Energy            =   -0.22 kcal/mol
DOCKED: USER    (2) Final Total Internal Energy     =   -3.82 kcal/mol
DOCKED: USER    (3) Torsional Free Energy           =   +3.58 kcal/mol
DOCKED: USER    (4) Unbound System's Energy  [=(2)] =   -3.82 kcal/mol
DOCKED: USER    
DOCKED: USER    
DOCKED: USER    NEWDPF move heme_Co_opt.pdbqt
DOCKED: USER    NEWDPF about 8.781000 34.984000 -0.736000
DOCKED: USER    NEWDPF tran0 -9.563807 -19.036190 1.004041
DOCKED: USER    NEWDPF quaternion0 0.270366 0.546863 -0.780098 0.138891
DOCKED: USER    NEWDPF axisangle0 0.273012 0.552215 -0.787733 164.032681
DOCKED: USER    NEWDPF quat0 0.273012 0.552215 -0.787733 164.032681
DOCKED: USER    NEWDPF dihe0 54.18 120.57 -139.47 108.67 106.91 103.17 29.34 115.81 -180.00 135.79 -171.20 -179.91 
DOCKED: USER  keepresnum = 1 
DOCKED: USER  
DOCKED: REMARK  12 active torsions:
DOCKED: REMARK  status: ('A' for Active; 'I' for Inactive)
DOCKED: REMARK    1  A    between atoms: C_6  and  C_10 
DOCKED: REMARK    2  A    between atoms: C_10  and  C_11 
DOCKED: REMARK    3  A    between atoms: C_11  and  C_12 
DOCKED: REMARK    4  A    between atoms: C_12  and  O_14 
DOCKED: REMARK    5  A    between atoms: C_17  and  C_20 
DOCKED: REMARK    6  A    between atoms: C_24  and  C_27 
DOCKED: REMARK    7  A    between atoms: C_31  and  C_34 
DOCKED: REMARK    8  A    between atoms: C_34  and  C_35 
DOCKED: REMARK    9  A    between atoms: C_35  and  C_36 
DOCKED: REMARK   10  A    between atoms: C_36  and  O_38 
DOCKED: REMARK   11  A    between atoms: FE_43  and  C_44 
DOCKED: REMARK   12  A    between atoms: C_44  and  O_45 
DOCKED: USER                              x       y       z     vdW  Elec       q    Type
DOCKED: USER                           _______ _______ _______ _____ _____    ______ ____
DOCKED: ROOT
DOCKED: ATOM      1  C   UNL d   1      -7.459 -19.548   0.846 -0.00 +0.01    +0.064 A 
DOCKED: ATOM      2  C   UNL d   1     -10.839 -20.842   3.930 -0.07 -0.00    +0.064 C 
DOCKED: ATOM      3  C   UNL d   1     -13.931 -17.846   1.858 -0.22 -0.00    +0.064 A 
DOCKED: ATOM      4  C   UNL d   1     -10.613 -16.794  -1.541 -0.17 +0.00    +0.064 A 
DOCKED: ATOM      5  C   UNL d   1      -8.145 -20.094   1.863 -0.06 +0.00    +0.066 A 
DOCKED: ATOM      6  C   UNL d   1      -7.592 -21.098   2.683 -0.06 -0.00    -0.021 A 
DOCKED: ATOM      7  C   UNL d   1      -8.584 -21.486   3.562 -0.04 -0.00    -0.025 A 
DOCKED: ATOM      8  C   UNL d   1      -9.694 -20.692   3.252 -0.06 -0.00    +0.066 A 
DOCKED: ATOM      9  C   UNL d   1      -8.506 -22.561   4.656 -0.01 +0.00    +0.051 C 
DOCKED: ATOM     10  C   UNL d   1     -12.023 -20.054   3.700 -0.06 +0.00    +0.066 A 
DOCKED: ATOM     11  C   UNL d   1     -13.207 -20.065   4.468 -0.07 -0.00    -0.021 A 
DOCKED: ATOM     12  C   UNL d   1     -14.090 -19.180   3.844 -0.12 +0.00    +0.000 A 
DOCKED: ATOM     13  C   UNL d   1     -13.377 -18.686   2.752 -0.13 +0.00    +0.070 A 
DOCKED: ATOM     14  C   UNL d   1     -13.424 -20.807   5.762 -0.05 +0.00    +0.052 C 
DOCKED: ATOM     15  C   UNL d   1     -13.360 -17.282   0.651 -0.21 -0.00    +0.066 A 
DOCKED: ATOM     16  C   UNL d   1     -14.033 -16.537  -0.307 -0.21 +0.00    -0.021 A 
DOCKED: ATOM     17  C   UNL d   1     -13.081 -16.233  -1.291 -0.19 -0.00    +0.000 A 
DOCKED: ATOM     18  C   UNL d   1     -11.894 -16.805  -0.845 -0.14 -0.00    +0.070 A 
DOCKED: ATOM     19  C   UNL d   1     -15.496 -16.158  -0.255 -0.10 -0.00    +0.052 C 
DOCKED: ATOM     20  C   UNL d   1      -9.468 -17.416  -1.170 -0.18 +0.00    +0.066 A 
DOCKED: ATOM     21  C   UNL d   1      -8.309 -17.362  -1.941 -0.23 +0.00    -0.025 A 
DOCKED: ATOM     22  C   UNL d   1      -7.375 -18.123  -1.263 -0.22 -0.00    -0.021 A 
DOCKED: ATOM     23  C   UNL d   1      -8.018 -18.617  -0.109 -0.14 +0.01    +0.066 A 
DOCKED: ATOM     24  C   UNL d   1      -8.108 -16.638  -3.269 -0.31 -0.01    +0.051 C 
DOCKED: ATOM     25  N   UNL d   1      -9.448 -19.817   2.207 -0.06 +0.00    -0.248 N 
DOCKED: ATOM     26  N   UNL d   1     -12.109 -19.172   2.698 -0.07 +0.00    -0.248 N 
DOCKED: ATOM     27  N   UNL d   1     -12.105 -17.447   0.298 -0.12 +0.01    -0.248 N 
DOCKED: ATOM     28  N   UNL d   1      -9.287 -18.194  -0.050 -0.10 -0.00    -0.248 N 
DOCKED: ATOM     29 FE   UNL d   1     -10.853 -18.561   1.194 -0.03 -0.00    +0.000 Fe
DOCKED: ENDROOT
DOCKED: BRANCH   6  30
DOCKED: ATOM     30  C   UNL d   1      -6.198 -21.705   2.563 -0.06 +0.01    +0.052 C 
DOCKED: BRANCH  30  31
DOCKED: ATOM     31  C   UNL d   1      -6.204 -22.874   1.579 -0.02 +0.02    +0.115 C 
DOCKED: BRANCH  31  32
DOCKED: ATOM     32  C   UNL d   1      -7.584 -23.152   1.021 -0.00 +0.01    +0.139 C 
DOCKED: ATOM     33  O   UNL d   1      -8.247 -24.067   1.486 +0.01 -0.02    -0.650 OA
DOCKED: BRANCH  32  34
DOCKED: ATOM     34  O   UNL d   1      -8.133 -22.385   0.050 +0.03 -0.06    -0.776 OA
DOCKED: ATOM     35  H   UNL d   1      -7.685 -22.149  -0.774 +0.01 +0.02    +0.167 HD
DOCKED: ENDBRANCH  32  34
DOCKED: ENDBRANCH  31  32
DOCKED: ENDBRANCH  30  31
DOCKED: ENDBRANCH   6  30
DOCKED: BRANCH  29  36
DOCKED: ATOM     36  C   UNL d   1     -11.381 -20.249   0.069 -0.02 -0.00    +0.190 C 
DOCKED: BRANCH  36  37
DOCKED: ATOM     37  O   UNL d   1     -10.847 -21.278  -0.714 +0.00 -0.00    -0.399 OA
DOCKED: ATOM     38  H   UNL d   1      -9.858 -21.190  -0.613 +0.02 +0.00    +0.209 HD
DOCKED: ENDBRANCH  36  37
DOCKED: ENDBRANCH  29  36
DOCKED: BRANCH  22  39
DOCKED: ATOM     39  C   UNL d   1      -5.962 -18.410  -1.738 -0.35 +0.01    +0.052 C 
DOCKED: BRANCH  39  40
DOCKED: ATOM     40  C   UNL d   1      -5.963 -19.509  -2.812 -0.12 -0.00    +0.115 C 
DOCKED: BRANCH  40  41
DOCKED: ATOM     41  C   UNL d   1      -6.746 -20.749  -2.437 -0.11 +0.02    +0.139 C 
DOCKED: ATOM     42  O   UNL d   1      -6.143 -21.769  -2.132 -0.06 -0.20    -0.650 OA
DOCKED: BRANCH  41  43
DOCKED: ATOM     43  O   UNL d   1      -8.094 -20.737  -2.344 +0.06 -0.04    -0.776 OA
DOCKED: ATOM     44  H   UNL d   1      -8.567 -21.123  -1.594 +0.02 +0.01    +0.167 HD
DOCKED: ENDBRANCH  41  43
DOCKED: ENDBRANCH  40  41
DOCKED: ENDBRANCH  39  40
DOCKED: ENDBRANCH  22  39
DOCKED: BRANCH  12  45
DOCKED: ATOM     45  C   UNL d   1     -15.511 -18.732   4.163 -0.19 -0.00    +0.004 C 
DOCKED: ATOM     46  C   UNL d   1     -15.958 -17.626   4.752 -0.31 -0.00    +0.012 C 
DOCKED: ENDBRANCH  12  45
DOCKED: BRANCH  17  47
DOCKED: ATOM     47  C   UNL d   1     -13.246 -15.509  -2.587 -0.29 +0.00    +0.004 C 
DOCKED: ATOM     48  C   UNL d   1     -13.193 -14.180  -2.700 -0.41 +0.00    +0.012 C 
DOCKED: ENDBRANCH  17  47
DOCKED: TORSDOF 12
DOCKED: TER
DOCKED: ENDMDL
________________________________________________________________________________


	BEGINNING GENETIC ALGORITHM DOCKING 18 of 100
Run: 18 Seed: 462260864 321387766 [ Run 18 of 100 GA/GALS ]
Beginning LAMARCKIAN GENETIC ALGORITHM (LGA), with a maximum of 25000000 energy evaluations.

Final-Value: -10.374


	FINAL GENETIC ALGORITHM DOCKED STATE
	_______________________________________________


Detailed state:  trans -4.744 -13.964 -14.063 quatxyzw -0.665372 -0.371315 0.241303 -0.600981 center 8.781 34.984 -0.736 ntor 12 53.3162 118.4022 -143.3140 -93.3543 -23.8490 104.0460 33.4799 117.8654 164.3451 142.3553 -165.4251 168.1659
State:	 -4.744 -13.964 -14.063  -0.832 -0.465  0.302 -106.120     53.32  118.40 -143.31  -93.35  -23.85  104.05   33.48  117.87  164.35  142.36 -165.43  168.17

DOCKED: MODEL       18
DOCKED: USER    Run = 18
DOCKED: USER    DPF = D:/Protein_go_brrr/autodock/final/mut_Y35F/heme_Co/dock.dpf
DOCKED: USER  
DOCKED: USER    Estimated Free Energy of Binding    =   -2.70 kcal/mol  [=(1)+(2)+(3)-(4)]
DOCKED: USER    Estimated Inhibition Constant, Ki   =   10.58 mM (millimolar)  [Temperature = 298.15 K]
DOCKED: USER    
DOCKED: USER    (1) Final Intermolecular Energy     =   -6.27 kcal/mol
DOCKED: USER        vdW + Hbond + desolv Energy     =   -6.00 kcal/mol
DOCKED: USER        Electrostatic Energy            =   -0.28 kcal/mol
DOCKED: USER    (2) Final Total Internal Energy     =   -4.10 kcal/mol
DOCKED: USER    (3) Torsional Free Energy           =   +3.58 kcal/mol
DOCKED: USER    (4) Unbound System's Energy  [=(2)] =   -4.10 kcal/mol
DOCKED: USER    
DOCKED: USER    
DOCKED: USER    NEWDPF move heme_Co_opt.pdbqt
DOCKED: USER    NEWDPF about 8.781000 34.984000 -0.736000
DOCKED: USER    NEWDPF tran0 -4.744407 -13.963526 -14.063128
DOCKED: USER    NEWDPF quaternion0 -0.665372 -0.371315 0.241303 -0.600981
DOCKED: USER    NEWDPF axisangle0 -0.832482 -0.464571 0.301906 -106.119611
DOCKED: USER    NEWDPF quat0 -0.832482 -0.464571 0.301906 -106.119611
DOCKED: USER    NEWDPF dihe0 53.32 118.40 -143.31 -93.35 -23.85 104.05 33.48 117.87 164.35 142.36 -165.43 168.17 
DOCKED: USER  keepresnum = 1 
DOCKED: USER  
DOCKED: REMARK  12 active torsions:
DOCKED: REMARK  status: ('A' for Active; 'I' for Inactive)
DOCKED: REMARK    1  A    between atoms: C_6  and  C_10 
DOCKED: REMARK    2  A    between atoms: C_10  and  C_11 
DOCKED: REMARK    3  A    between atoms: C_11  and  C_12 
DOCKED: REMARK    4  A    between atoms: C_12  and  O_14 
DOCKED: REMARK    5  A    between atoms: C_17  and  C_20 
DOCKED: REMARK    6  A    between atoms: C_24  and  C_27 
DOCKED: REMARK    7  A    between atoms: C_31  and  C_34 
DOCKED: REMARK    8  A    between atoms: C_34  and  C_35 
DOCKED: REMARK    9  A    between atoms: C_35  and  C_36 
DOCKED: REMARK   10  A    between atoms: C_36  and  O_38 
DOCKED: REMARK   11  A    between atoms: FE_43  and  C_44 
DOCKED: REMARK   12  A    between atoms: C_44  and  O_45 
DOCKED: USER                              x       y       z     vdW  Elec       q    Type
DOCKED: USER                           _______ _______ _______ _____ _____    ______ ____
DOCKED: ROOT
DOCKED: ATOM      1  C   UNL d   1      -5.166 -16.009 -14.657 +0.24 +0.02    +0.064 A 
DOCKED: ATOM      2  C   UNL d   1      -7.810 -12.699 -12.497 -0.30 -0.01    +0.064 C 
DOCKED: ATOM      3  C   UNL d   1      -4.051  -9.756 -12.323 +0.30 -0.00    +0.064 A 
DOCKED: ATOM      4  C   UNL d   1      -1.434 -12.969 -14.871 -0.09 +0.00    +0.064 A 
DOCKED: ATOM      5  C   UNL d   1      -6.155 -15.335 -14.047 -0.18 +0.01    +0.066 A 
DOCKED: ATOM      6  C   UNL d   1      -7.465 -15.847 -13.959 -0.19 -0.00    -0.021 A 
DOCKED: ATOM      7  C   UNL d   1      -8.233 -14.873 -13.351 -0.21 -0.00    -0.025 A 
DOCKED: ATOM      8  C   UNL d   1      -7.357 -13.816 -13.081 -0.24 -0.00    +0.066 A 
DOCKED: ATOM      9  C   UNL d   1      -9.735 -14.920 -13.032 -0.20 +0.00    +0.051 C 
DOCKED: ATOM     10  C   UNL d   1      -6.979 -11.572 -12.157 -0.26 -0.01    +0.066 A 
DOCKED: ATOM     11  C   UNL d   1      -7.365 -10.431 -11.419 -0.28 +0.01    -0.021 A 
DOCKED: ATOM     12  C   UNL d   1      -6.249  -9.591 -11.380 -0.36 -0.00    +0.000 A 
DOCKED: ATOM     13  C   UNL d   1      -5.263 -10.285 -12.083 -0.25 -0.01    +0.070 A 
DOCKED: ATOM     14  C   UNL d   1      -8.687 -10.223 -10.726 -0.41 -0.02    +0.052 C 
DOCKED: ATOM     15  C   UNL d   1      -2.938 -10.307 -13.072 -0.18 -0.01    +0.066 A 
DOCKED: ATOM     16  C   UNL d   1      -1.763  -9.648 -13.405 -0.25 +0.00    -0.021 A 
DOCKED: ATOM     17  C   UNL d   1      -1.006 -10.570 -14.142 -0.22 -0.00    +0.000 A 
DOCKED: ATOM     18  C   UNL d   1      -1.775 -11.729 -14.186 -0.16 -0.00    +0.070 A 
DOCKED: ATOM     19  C   UNL d   1      -1.419  -8.225 -13.027 -0.30 -0.00    +0.052 C 
DOCKED: ATOM     20  C   UNL d   1      -2.201 -14.077 -15.001 -0.10 +0.01    +0.066 A 
DOCKED: ATOM     21  C   UNL d   1      -1.778 -15.196 -15.715 -0.07 -0.00    -0.025 A 
DOCKED: ATOM     22  C   UNL d   1      -2.822 -16.100 -15.646 -0.13 -0.01    -0.021 A 
DOCKED: ATOM     23  C   UNL d   1      -3.844 -15.479 -14.897 -0.18 +0.02    +0.066 A 
DOCKED: ATOM     24  C   UNL d   1      -0.451 -15.387 -16.445 -0.03 +0.00    +0.051 C 
DOCKED: ATOM     25  N   UNL d   1      -6.062 -14.077 -13.496 -0.17 -0.00    -0.248 N 
DOCKED: ATOM     26  N   UNL d   1      -5.689 -11.506 -12.504 -0.16 +0.04    -0.248 N 
DOCKED: ATOM     27  N   UNL d   1      -2.931 -11.526 -13.564 -0.13 +0.02    -0.248 N 
DOCKED: ATOM     28  N   UNL d   1      -3.473 -14.253 -14.506 -0.11 -0.03    -0.248 N 
DOCKED: ATOM     29 FE   UNL d   1      -4.402 -12.729 -13.533 -0.05 -0.00    +0.000 Fe
DOCKED: ENDROOT
DOCKED: BRANCH   6  30
DOCKED: ATOM     30  C   UNL d   1      -7.960 -17.179 -14.511 -0.16 +0.02    +0.052 C 
DOCKED: BRANCH  30  31
DOCKED: ATOM     31  C   UNL d   1      -8.259 -17.064 -16.005 -0.09 +0.03    +0.115 C 
DOCKED: BRANCH  31  32
DOCKED: ATOM     32  C   UNL d   1      -8.405 -15.626 -16.455 -0.03 +0.02    +0.139 C 
DOCKED: ATOM     33  O   UNL d   1      -9.519 -15.131 -16.535 +0.02 -0.07    -0.650 OA
DOCKED: BRANCH  32  34
DOCKED: ATOM     34  O   UNL d   1      -7.332 -14.847 -16.729 +0.03 -0.10    -0.776 OA
DOCKED: ATOM     35  H   UNL d   1      -6.598 -15.114 -17.298 +0.02 +0.03    +0.167 HD
DOCKED: ENDBRANCH  32  34
DOCKED: ENDBRANCH  31  32
DOCKED: ENDBRANCH  30  31
DOCKED: ENDBRANCH   6  30
DOCKED: BRANCH  29  36
DOCKED: ATOM     36  C   UNL d   1      -5.171 -12.010 -15.346 -0.03 +0.00    +0.190 C 
DOCKED: BRANCH  36  37
DOCKED: ATOM     37  O   UNL d   1      -5.633 -12.419 -16.601 +0.00 -0.02    -0.399 OA
DOCKED: ATOM     38  H   UNL d   1      -5.632 -13.416 -16.562 +0.02 +0.02    +0.209 HD
DOCKED: ENDBRANCH  36  37
DOCKED: ENDBRANCH  29  36
DOCKED: BRANCH  22  39
DOCKED: ATOM     39  C   UNL d   1      -2.855 -17.459 -16.320 -0.09 +0.03    +0.052 C 
DOCKED: BRANCH  39  40
DOCKED: ATOM     40  C   UNL d   1      -3.465 -17.351 -17.728 -0.07 +0.05    +0.115 C 
DOCKED: BRANCH  40  41
DOCKED: ATOM     41  C   UNL d   1      -4.699 -16.477 -17.809 -0.05 +0.04    +0.139 C 
DOCKED: ATOM     42  O   UNL d   1      -5.799 -17.002 -17.899 -0.01 -0.24    -0.650 OA
DOCKED: BRANCH  41  43
DOCKED: ATOM     43  O   UNL d   1      -4.625 -15.132 -17.697 +0.03 -0.13    -0.776 OA
DOCKED: ATOM     44  H   UNL d   1      -5.253 -14.620 -17.172 +0.02 +0.02    +0.167 HD
DOCKED: ENDBRANCH  41  43
DOCKED: ENDBRANCH  40  41
DOCKED: ENDBRANCH  39  40
DOCKED: ENDBRANCH  22  39
DOCKED: BRANCH  12  45
DOCKED: ATOM     45  C   UNL d   1      -5.995  -8.230 -10.746 -0.29 -0.00    +0.004 C 
DOCKED: ATOM     46  C   UNL d   1      -5.960  -7.016 -11.288 -0.34 -0.00    +0.012 C 
DOCKED: ENDBRANCH  12  45
DOCKED: BRANCH  17  47
DOCKED: ATOM     47  C   UNL d   1       0.316 -10.398 -14.814 -0.19 +0.00    +0.004 C 
DOCKED: ATOM     48  C   UNL d   1       0.630  -9.339 -15.565 -0.13 +0.00    +0.012 C 
DOCKED: ENDBRANCH  17  47
DOCKED: TORSDOF 12
DOCKED: TER
DOCKED: ENDMDL
________________________________________________________________________________


	BEGINNING GENETIC ALGORITHM DOCKING 19 of 100
Run: 19 Seed: 442932380 1090009697 [ Run 19 of 100 GA/GALS ]
Beginning LAMARCKIAN GENETIC ALGORITHM (LGA), with a maximum of 25000000 energy evaluations.

Final-Value: -9.109


	FINAL GENETIC ALGORITHM DOCKED STATE
	_______________________________________________


Detailed state:  trans -11.285 -18.445 -7.256 quatxyzw -0.368979 0.161759 -0.822118 0.402257 center 8.781 34.984 -0.736 ntor 12 -55.9406 101.5631 -163.2878 8.0056 -87.5981 81.4624 67.7872 120.6213 -30.4944 155.8705 20.5797 165.4339
State:	-11.285 -18.445  -7.256  -0.403  0.177 -0.898 132.561    -55.94  101.56 -163.29    8.01  -87.60   81.46   67.79  120.62  -30.49  155.87   20.58  165.43

DOCKED: MODEL       19
DOCKED: USER    Run = 19
DOCKED: USER    DPF = D:/Protein_go_brrr/autodock/final/mut_Y35F/heme_Co/dock.dpf
DOCKED: USER  
DOCKED: USER    Estimated Free Energy of Binding    =   -3.46 kcal/mol  [=(1)+(2)+(3)-(4)]
DOCKED: USER    Estimated Inhibition Constant, Ki   =    2.90 mM (millimolar)  [Temperature = 298.15 K]
DOCKED: USER    
DOCKED: USER    (1) Final Intermolecular Energy     =   -7.04 kcal/mol
DOCKED: USER        vdW + Hbond + desolv Energy     =   -6.18 kcal/mol
DOCKED: USER        Electrostatic Energy            =   -0.86 kcal/mol
DOCKED: USER    (2) Final Total Internal Energy     =   -2.07 kcal/mol
DOCKED: USER    (3) Torsional Free Energy           =   +3.58 kcal/mol
DOCKED: USER    (4) Unbound System's Energy  [=(2)] =   -2.07 kcal/mol
DOCKED: USER    
DOCKED: USER    
DOCKED: USER    NEWDPF move heme_Co_opt.pdbqt
DOCKED: USER    NEWDPF about 8.781000 34.984000 -0.736000
DOCKED: USER    NEWDPF tran0 -11.285306 -18.445120 -7.256417
DOCKED: USER    NEWDPF quaternion0 -0.368979 0.161759 -0.822118 0.402257
DOCKED: USER    NEWDPF axisangle0 -0.403024 0.176685 -0.897972 132.561291
DOCKED: USER    NEWDPF quat0 -0.403024 0.176685 -0.897972 132.561291
DOCKED: USER    NEWDPF dihe0 -55.94 101.56 -163.29 8.01 -87.60 81.46 67.79 120.62 -30.49 155.87 20.58 165.43 
DOCKED: USER  keepresnum = 1 
DOCKED: USER  
DOCKED: REMARK  12 active torsions:
DOCKED: REMARK  status: ('A' for Active; 'I' for Inactive)
DOCKED: REMARK    1  A    between atoms: C_6  and  C_10 
DOCKED: REMARK    2  A    between atoms: C_10  and  C_11 
DOCKED: REMARK    3  A    between atoms: C_11  and  C_12 
DOCKED: REMARK    4  A    between atoms: C_12  and  O_14 
DOCKED: REMARK    5  A    between atoms: C_17  and  C_20 
DOCKED: REMARK    6  A    between atoms: C_24  and  C_27 
DOCKED: REMARK    7  A    between atoms: C_31  and  C_34 
DOCKED: REMARK    8  A    between atoms: C_34  and  C_35 
DOCKED: REMARK    9  A    between atoms: C_35  and  C_36 
DOCKED: REMARK   10  A    between atoms: C_36  and  O_38 
DOCKED: REMARK   11  A    between atoms: FE_43  and  C_44 
DOCKED: REMARK   12  A    between atoms: C_44  and  O_45 
DOCKED: USER                              x       y       z     vdW  Elec       q    Type
DOCKED: USER                           _______ _______ _______ _____ _____    ______ ____
DOCKED: ROOT
DOCKED: ATOM      1  C   UNL d   1     -11.298 -19.327  -9.241 -0.08 +0.00    +0.064 A 
DOCKED: ATOM      2  C   UNL d   1      -7.950 -19.087  -5.873 -0.25 -0.00    +0.064 C 
DOCKED: ATOM      3  C   UNL d   1     -10.794 -16.342  -3.188 -0.01 +0.00    +0.064 A 
DOCKED: ATOM      4  C   UNL d   1     -14.371 -16.892  -6.439 -0.16 +0.01    +0.064 A 
DOCKED: ATOM      5  C   UNL d   1     -10.161 -19.433  -8.534 -0.13 +0.00    +0.066 A 
DOCKED: ATOM      6  C   UNL d   1      -9.085 -20.234  -8.964 -0.15 -0.00    -0.021 A 
DOCKED: ATOM      7  C   UNL d   1      -8.126 -20.179  -7.972 -0.21 +0.00    -0.025 A 
DOCKED: ATOM      8  C   UNL d   1      -8.649 -19.334  -6.988 -0.22 -0.00    +0.066 A 
DOCKED: ATOM      9  C   UNL d   1      -6.764 -20.889  -7.938 -0.23 -0.00    +0.051 C 
DOCKED: ATOM     10  C   UNL d   1      -8.396 -18.211  -4.818 -0.24 -0.01    +0.066 A 
DOCKED: ATOM     11  C   UNL d   1      -7.651 -17.800  -3.691 -0.27 +0.00    -0.021 A 
DOCKED: ATOM     12  C   UNL d   1      -8.503 -16.998  -2.927 -0.28 -0.00    +0.000 A 
DOCKED: ATOM     13  C   UNL d   1      -9.697 -16.968  -3.649 -0.21 -0.00    +0.070 A 
DOCKED: ATOM     14  C   UNL d   1      -6.195 -18.089  -3.431 -0.25 -0.01    +0.052 C 
DOCKED: ATOM     15  C   UNL d   1     -12.118 -16.256  -3.774 -0.22 +0.00    +0.066 A 
DOCKED: ATOM     16  C   UNL d   1     -13.248 -15.717  -3.177 -0.24 -0.00    -0.021 A 
DOCKED: ATOM     17  C   UNL d   1     -14.283 -15.875  -4.110 -0.20 +0.00    +0.000 A 
DOCKED: ATOM     18  C   UNL d   1     -13.696 -16.485  -5.213 -0.19 +0.01    +0.070 A 
DOCKED: ATOM     19  C   UNL d   1     -13.301 -15.098  -1.798 -0.28 -0.00    +0.052 C 
DOCKED: ATOM     20  C   UNL d   1     -13.840 -17.563  -7.489 -0.13 +0.01    +0.066 A 
DOCKED: ATOM     21  C   UNL d   1     -14.600 -17.930  -8.598 -0.07 -0.00    -0.025 A 
DOCKED: ATOM     22  C   UNL d   1     -13.733 -18.609  -9.435 -0.05 -0.00    -0.021 A 
DOCKED: ATOM     23  C   UNL d   1     -12.481 -18.632  -8.785 -0.07 +0.00    +0.066 A 
DOCKED: ATOM     24  C   UNL d   1     -16.083 -17.666  -8.839 -0.04 +0.00    +0.051 C 
DOCKED: ATOM     25  N   UNL d   1      -9.906 -18.853  -7.312 -0.06 +0.00    -0.248 N 
DOCKED: ATOM     26  N   UNL d   1      -9.612 -17.655  -4.819 -0.17 +0.01    -0.248 N 
DOCKED: ATOM     27  N   UNL d   1     -12.413 -16.724  -4.966 -0.10 -0.05    -0.248 N 
DOCKED: ATOM     28  N   UNL d   1     -12.542 -18.003  -7.606 -0.06 -0.03    -0.248 N 
DOCKED: ATOM     29 FE   UNL d   1     -11.236 -17.725  -6.072 -0.05 +0.00    +0.000 Fe
DOCKED: ENDROOT
DOCKED: BRANCH   6  30
DOCKED: ATOM     30  C   UNL d   1      -9.029 -21.075 -10.235 -0.11 +0.01    +0.052 C 
DOCKED: BRANCH  30  31
DOCKED: ATOM     31  C   UNL d   1      -8.143 -20.405 -11.284 -0.15 +0.03    +0.115 C 
DOCKED: BRANCH  31  32
DOCKED: ATOM     32  C   UNL d   1      -7.423 -21.410 -12.158 -0.00 +0.07    +0.139 C 
DOCKED: ATOM     33  O   UNL d   1      -6.636 -22.193 -11.650 -0.03 -0.30    -0.650 OA
DOCKED: BRANCH  32  34
DOCKED: ATOM     34  O   UNL d   1      -7.659 -21.503 -13.488 -0.05 -0.70    -0.776 OA
DOCKED: ATOM     35  H   UNL d   1      -8.521 -21.709 -13.874 +0.01 +0.10    +0.167 HD
DOCKED: ENDBRANCH  32  34
DOCKED: ENDBRANCH  31  32
DOCKED: ENDBRANCH  30  31
DOCKED: ENDBRANCH   6  30
DOCKED: BRANCH  29  36
DOCKED: ATOM     36  C   UNL d   1     -11.812 -19.553  -5.221 -0.04 +0.00    +0.190 C 
DOCKED: BRANCH  36  37
DOCKED: ATOM     37  O   UNL d   1     -12.546 -20.716  -5.472 +0.00 -0.00    -0.399 OA
DOCKED: ATOM     38  H   UNL d   1     -13.064 -20.519  -6.301 +0.01 +0.00    +0.209 HD
DOCKED: ENDBRANCH  36  37
DOCKED: ENDBRANCH  29  36
DOCKED: BRANCH  22  39
DOCKED: ATOM     39  C   UNL d   1     -14.110 -19.253 -10.756 -0.02 +0.00    +0.052 C 
DOCKED: BRANCH  39  40
DOCKED: ATOM     40  C   UNL d   1     -14.474 -20.734 -10.553 -0.00 +0.00    +0.115 C 
DOCKED: BRANCH  40  41
DOCKED: ATOM     41  C   UNL d   1     -13.757 -21.400  -9.398 -0.00 +0.00    +0.139 C 
DOCKED: ATOM     42  O   UNL d   1     -12.795 -22.121  -9.627 +0.00 -0.02    -0.650 OA
DOCKED: BRANCH  41  43
DOCKED: ATOM     43  O   UNL d   1     -14.095 -21.152  -8.114 +0.01 -0.02    -0.776 OA
DOCKED: ATOM     44  H   UNL d   1     -13.482 -21.289  -7.380 +0.00 +0.00    +0.167 HD
DOCKED: ENDBRANCH  41  43
DOCKED: ENDBRANCH  40  41
DOCKED: ENDBRANCH  39  40
DOCKED: ENDBRANCH  22  39
DOCKED: BRANCH  12  45
DOCKED: ATOM     45  C   UNL d   1      -8.322 -16.245  -1.616 -0.43 -0.00    +0.004 C 
DOCKED: ATOM     46  C   UNL d   1      -7.268 -16.151  -0.810 -0.53 -0.00    +0.012 C 
DOCKED: ENDBRANCH  12  45
DOCKED: BRANCH  17  47
DOCKED: ATOM     47  C   UNL d   1     -15.734 -15.540  -3.991 -0.16 +0.00    +0.004 C 
DOCKED: ATOM     48  C   UNL d   1     -16.697 -16.459  -3.894 -0.08 -0.00    +0.012 C 
DOCKED: ENDBRANCH  17  47
DOCKED: TORSDOF 12
DOCKED: TER
DOCKED: ENDMDL
________________________________________________________________________________


	BEGINNING GENETIC ALGORITHM DOCKING 20 of 100
Run: 20 Seed: 1318087385 1307480175 [ Run 20 of 100 GA/GALS ]
Beginning LAMARCKIAN GENETIC ALGORITHM (LGA), with a maximum of 25000000 energy evaluations.

Final-Value: -8.825


	FINAL GENETIC ALGORITHM DOCKED STATE
	_______________________________________________


Detailed state:  trans 0.888 2.738 -14.618 quatxyzw 0.884937 -0.003493 -0.258233 0.387545 center 8.781 34.984 -0.736 ntor 12 -166.0519 127.4254 84.4516 106.2705 125.9419 128.3832 32.0586 -56.7550 -176.2238 -140.5784 -173.5950 -39.6710
State:	  0.888   2.738 -14.618   0.960 -0.004 -0.280 134.396   -166.05  127.43   84.45  106.27  125.94  128.38   32.06  -56.75 -176.22 -140.58 -173.60  -39.67

DOCKED: MODEL       20
DOCKED: USER    Run = 20
DOCKED: USER    DPF = D:/Protein_go_brrr/autodock/final/mut_Y35F/heme_Co/dock.dpf
DOCKED: USER  
DOCKED: USER    Estimated Free Energy of Binding    =   -2.97 kcal/mol  [=(1)+(2)+(3)-(4)]
DOCKED: USER    Estimated Inhibition Constant, Ki   =    6.61 mM (millimolar)  [Temperature = 298.15 K]
DOCKED: USER    
DOCKED: USER    (1) Final Intermolecular Energy     =   -6.55 kcal/mol
DOCKED: USER        vdW + Hbond + desolv Energy     =   -5.91 kcal/mol
DOCKED: USER        Electrostatic Energy            =   -0.65 kcal/mol
DOCKED: USER    (2) Final Total Internal Energy     =   -2.27 kcal/mol
DOCKED: USER    (3) Torsional Free Energy           =   +3.58 kcal/mol
DOCKED: USER    (4) Unbound System's Energy  [=(2)] =   -2.27 kcal/mol
DOCKED: USER    
DOCKED: USER    
DOCKED: USER    NEWDPF move heme_Co_opt.pdbqt
DOCKED: USER    NEWDPF about 8.781000 34.984000 -0.736000
DOCKED: USER    NEWDPF tran0 0.887509 2.738181 -14.618141
DOCKED: USER    NEWDPF quaternion0 0.884937 -0.003493 -0.258233 0.387545
DOCKED: USER    NEWDPF axisangle0 0.959956 -0.003789 -0.280124 134.396397
DOCKED: USER    NEWDPF quat0 0.959956 -0.003789 -0.280124 134.396397
DOCKED: USER    NEWDPF dihe0 -166.05 127.43 84.45 106.27 125.94 128.38 32.06 -56.75 -176.22 -140.58 -173.60 -39.67 
DOCKED: USER  keepresnum = 1 
DOCKED: USER  
DOCKED: REMARK  12 active torsions:
DOCKED: REMARK  status: ('A' for Active; 'I' for Inactive)
DOCKED: REMARK    1  A    between atoms: C_6  and  C_10 
DOCKED: REMARK    2  A    between atoms: C_10  and  C_11 
DOCKED: REMARK    3  A    between atoms: C_11  and  C_12 
DOCKED: REMARK    4  A    between atoms: C_12  and  O_14 
DOCKED: REMARK    5  A    between atoms: C_17  and  C_20 
DOCKED: REMARK    6  A    between atoms: C_24  and  C_27 
DOCKED: REMARK    7  A    between atoms: C_31  and  C_34 
DOCKED: REMARK    8  A    between atoms: C_34  and  C_35 
DOCKED: REMARK    9  A    between atoms: C_35  and  C_36 
DOCKED: REMARK   10  A    between atoms: C_36  and  O_38 
DOCKED: REMARK   11  A    between atoms: FE_43  and  C_44 
DOCKED: REMARK   12  A    between atoms: C_44  and  O_45 
DOCKED: USER                              x       y       z     vdW  Elec       q    Type
DOCKED: USER                           _______ _______ _______ _____ _____    ______ ____
DOCKED: ROOT
DOCKED: ATOM      1  C   UNL d   1      -0.506   1.429 -13.589 -0.14 +0.00    +0.064 A 
DOCKED: ATOM      2  C   UNL d   1      -0.563   6.103 -14.463 -0.17 -0.00    +0.064 C 
DOCKED: ATOM      3  C   UNL d   1       3.808   5.837 -16.373 -0.20 -0.01    +0.064 A 
DOCKED: ATOM      4  C   UNL d   1       3.732   1.002 -15.842 -0.09 +0.00    +0.064 A 
DOCKED: ATOM      5  C   UNL d   1      -0.828   2.732 -13.654 -0.15 +0.00    +0.066 A 
DOCKED: ATOM      6  C   UNL d   1      -2.089   3.211 -13.248 -0.14 -0.00    -0.021 A 
DOCKED: ATOM      7  C   UNL d   1      -2.108   4.564 -13.525 -0.15 -0.00    -0.025 A 
DOCKED: ATOM      8  C   UNL d   1      -0.854   4.855 -14.073 -0.17 -0.00    +0.066 A 
DOCKED: ATOM      9  C   UNL d   1      -3.256   5.558 -13.291 -0.12 +0.00    +0.051 C 
DOCKED: ATOM     10  C   UNL d   1       0.709   6.502 -15.011 -0.23 -0.01    +0.066 A 
DOCKED: ATOM     11  C   UNL d   1       1.124   7.818 -15.309 -0.23 +0.00    -0.021 A 
DOCKED: ATOM     12  C   UNL d   1       2.404   7.711 -15.861 -0.20 -0.00    +0.000 A 
DOCKED: ATOM     13  C   UNL d   1       2.679   6.344 -15.848 -0.16 -0.01    +0.070 A 
DOCKED: ATOM     14  C   UNL d   1       0.372   9.084 -14.990 -0.21 -0.00    +0.052 C 
DOCKED: ATOM     15  C   UNL d   1       4.228   4.455 -16.491 -0.20 -0.00    +0.066 A 
DOCKED: ATOM     16  C   UNL d   1       5.342   3.988 -17.175 -0.13 +0.00    -0.021 A 
DOCKED: ATOM     17  C   UNL d   1       5.322   2.594 -17.027 -0.12 -0.00    +0.000 A 
DOCKED: ATOM     18  C   UNL d   1       4.204   2.320 -16.247 -0.13 -0.00    +0.070 A 
DOCKED: ATOM     19  C   UNL d   1       6.340   4.849 -17.916 -0.08 -0.00    +0.052 C 
DOCKED: ATOM     20  C   UNL d   1       2.601   0.706 -15.157 -0.08 +0.00    +0.066 A 
DOCKED: ATOM     21  C   UNL d   1       2.235  -0.605 -14.859 -0.10 -0.00    -0.025 A 
DOCKED: ATOM     22  C   UNL d   1       1.032  -0.511 -14.184 -0.11 -0.00    -0.021 A 
DOCKED: ATOM     23  C   UNL d   1       0.715   0.862 -14.114 -0.13 +0.00    +0.066 A 
DOCKED: ATOM     24  C   UNL d   1       2.984  -1.886 -15.216 -0.09 +0.01    +0.051 C 
DOCKED: ATOM     25  N   UNL d   1      -0.038   3.740 -14.159 -0.04 +0.00    -0.248 N 
DOCKED: ATOM     26  N   UNL d   1       1.677   5.619 -15.282 -0.14 +0.03    -0.248 N 
DOCKED: ATOM     27  N   UNL d   1       3.560   3.449 -15.971 -0.14 +0.01    -0.248 N 
DOCKED: ATOM     28  N   UNL d   1       1.661   1.602 -14.704 -0.08 -0.01    -0.248 N 
DOCKED: ATOM     29 FE   UNL d   1       1.868   3.582 -15.118 -0.04 -0.00    +0.000 Fe
DOCKED: ENDROOT
DOCKED: BRANCH   6  30
DOCKED: ATOM     30  C   UNL d   1      -3.243   2.382 -12.698 -0.10 +0.00    +0.052 C 
DOCKED: BRANCH  30  31
DOCKED: ATOM     31  C   UNL d   1      -4.138   1.886 -13.833 -0.03 +0.00    +0.115 C 
DOCKED: BRANCH  31  32
DOCKED: ATOM     32  C   UNL d   1      -3.627   2.304 -15.195 -0.01 +0.00    +0.139 C 
DOCKED: ATOM     33  O   UNL d   1      -4.098   3.292 -15.737 +0.01 -0.00    -0.650 OA
DOCKED: BRANCH  32  34
DOCKED: ATOM     34  O   UNL d   1      -2.624   1.642 -15.819 +0.01 -0.01    -0.776 OA
DOCKED: ATOM     35  H   UNL d   1      -2.182   1.956 -16.619 +0.01 +0.00    +0.167 HD
DOCKED: ENDBRANCH  32  34
DOCKED: ENDBRANCH  31  32
DOCKED: ENDBRANCH  30  31
DOCKED: ENDBRANCH   6  30
DOCKED: BRANCH  29  36
DOCKED: ATOM     36  C   UNL d   1       0.817   3.340 -16.916 -0.06 -0.00    +0.190 C 
DOCKED: BRANCH  36  37
DOCKED: ATOM     37  O   UNL d   1      -0.401   2.900 -17.444 -0.01 +0.00    -0.399 OA
DOCKED: ATOM     38  H   UNL d   1      -1.011   2.829 -16.657 +0.02 -0.00    +0.209 HD
DOCKED: ENDBRANCH  36  37
DOCKED: ENDBRANCH  29  36
DOCKED: BRANCH  22  39
DOCKED: ATOM     39  C   UNL d   1       0.205  -1.684 -13.693 -0.13 +0.01    +0.052 C 
DOCKED: BRANCH  39  40
DOCKED: ATOM     40  C   UNL d   1       0.992  -2.509 -12.661 -0.20 +0.04    +0.115 C 
DOCKED: BRANCH  40  41
DOCKED: ATOM     41  C   UNL d   1       1.917  -1.693 -11.783 -0.32 +0.07    +0.139 C 
DOCKED: ATOM     42  O   UNL d   1       1.458  -1.107 -10.813 -0.08 -0.19    -0.650 OA
DOCKED: BRANCH  41  43
DOCKED: ATOM     43  O   UNL d   1       3.252  -1.666 -11.991 -0.48 -0.66    -0.776 OA
DOCKED: ATOM     44  H   UNL d   1       3.675  -1.009 -12.559 +0.07 +0.08    +0.167 HD
DOCKED: ENDBRANCH  41  43
DOCKED: ENDBRANCH  40  41
DOCKED: ENDBRANCH  39  40
DOCKED: ENDBRANCH  22  39
DOCKED: BRANCH  12  45
DOCKED: ATOM     45  C   UNL d   1       3.400   8.740 -16.379 -0.18 -0.00    +0.004 C 
DOCKED: ATOM     46  C   UNL d   1       4.454   9.298 -15.789 -0.26 -0.00    +0.012 C 
DOCKED: ENDBRANCH  12  45
DOCKED: BRANCH  17  47
DOCKED: ATOM     47  C   UNL d   1       6.236   1.561 -17.602 -0.08 -0.00    +0.004 C 
DOCKED: ATOM     48  C   UNL d   1       7.178   0.934 -16.893 -0.11 -0.00    +0.012 C 
DOCKED: ENDBRANCH  17  47
DOCKED: TORSDOF 12
DOCKED: TER
DOCKED: ENDMDL
________________________________________________________________________________


	BEGINNING GENETIC ALGORITHM DOCKING 21 of 100
Run: 21 Seed: 8278302 2053870611 [ Run 21 of 100 GA/GALS ]
Beginning LAMARCKIAN GENETIC ALGORITHM (LGA), with a maximum of 25000000 energy evaluations.

Final-Value: -10.003


	FINAL GENETIC ALGORITHM DOCKED STATE
	_______________________________________________


Detailed state:  trans 18.119 5.572 4.775 quatxyzw -0.527713 -0.006453 0.058834 0.847358 center 8.781 34.984 -0.736 ntor 12 -11.2315 130.1732 137.2746 104.4099 137.8094 79.6758 63.4205 -14.6500 71.3474 -178.5698 -159.6319 180.0000
State:	 18.119   5.572   4.775  -0.994 -0.012  0.111 64.149    -11.23  130.17  137.27  104.41  137.81   79.68   63.42  -14.65   71.35 -178.57 -159.63  180.00

DOCKED: MODEL       21
DOCKED: USER    Run = 21
DOCKED: USER    DPF = D:/Protein_go_brrr/autodock/final/mut_Y35F/heme_Co/dock.dpf
DOCKED: USER  
DOCKED: USER    Estimated Free Energy of Binding    =   -4.46 kcal/mol  [=(1)+(2)+(3)-(4)]
DOCKED: USER    Estimated Inhibition Constant, Ki   =  538.89 uM (micromolar)  [Temperature = 298.15 K]
DOCKED: USER    
DOCKED: USER    (1) Final Intermolecular Energy     =   -8.04 kcal/mol
DOCKED: USER        vdW + Hbond + desolv Energy     =   -6.04 kcal/mol
DOCKED: USER        Electrostatic Energy            =   -2.00 kcal/mol
DOCKED: USER    (2) Final Total Internal Energy     =   -1.96 kcal/mol
DOCKED: USER    (3) Torsional Free Energy           =   +3.58 kcal/mol
DOCKED: USER    (4) Unbound System's Energy  [=(2)] =   -1.96 kcal/mol
DOCKED: USER    
DOCKED: USER    
DOCKED: USER    NEWDPF move heme_Co_opt.pdbqt
DOCKED: USER    NEWDPF about 8.781000 34.984000 -0.736000
DOCKED: USER    NEWDPF tran0 18.119310 5.572164 4.775014
DOCKED: USER    NEWDPF quaternion0 -0.527713 -0.006453 0.058834 0.847358
DOCKED: USER    NEWDPF axisangle0 -0.993769 -0.012152 0.110795 64.148977
DOCKED: USER    NEWDPF quat0 -0.993769 -0.012152 0.110795 64.148977
DOCKED: USER    NEWDPF dihe0 -11.23 130.17 137.27 104.41 137.81 79.68 63.42 -14.65 71.35 -178.57 -159.63 180.00 
DOCKED: USER  keepresnum = 1 
DOCKED: USER  
DOCKED: REMARK  12 active torsions:
DOCKED: REMARK  status: ('A' for Active; 'I' for Inactive)
DOCKED: REMARK    1  A    between atoms: C_6  and  C_10 
DOCKED: REMARK    2  A    between atoms: C_10  and  C_11 
DOCKED: REMARK    3  A    between atoms: C_11  and  C_12 
DOCKED: REMARK    4  A    between atoms: C_12  and  O_14 
DOCKED: REMARK    5  A    between atoms: C_17  and  C_20 
DOCKED: REMARK    6  A    between atoms: C_24  and  C_27 
DOCKED: REMARK    7  A    between atoms: C_31  and  C_34 
DOCKED: REMARK    8  A    between atoms: C_34  and  C_35 
DOCKED: REMARK    9  A    between atoms: C_35  and  C_36 
DOCKED: REMARK   10  A    between atoms: C_36  and  O_38 
DOCKED: REMARK   11  A    between atoms: FE_43  and  C_44 
DOCKED: REMARK   12  A    between atoms: C_44  and  O_45 
DOCKED: USER                              x       y       z     vdW  Elec       q    Type
DOCKED: USER                           _______ _______ _______ _____ _____    ______ ____
DOCKED: ROOT
DOCKED: ATOM      1  C   UNL d   1      16.295   6.730   4.986 -0.18 +0.02    +0.064 A 
DOCKED: ATOM      2  C   UNL d   1      17.070   2.110   4.171 -0.32 +0.02    +0.064 C 
DOCKED: ATOM      3  C   UNL d   1      21.771   2.912   3.881 -0.10 +0.03    +0.064 A 
DOCKED: ATOM      4  C   UNL d   1      21.039   7.566   5.093 -0.09 +0.04    +0.064 A 
DOCKED: ATOM      5  C   UNL d   1      16.158   5.415   4.749 -0.21 +0.02    +0.066 A 
DOCKED: ATOM      6  C   UNL d   1      14.908   4.769   4.818 -0.28 -0.01    -0.021 A 
DOCKED: ATOM      7  C   UNL d   1      15.142   3.425   4.603 -0.38 -0.01    -0.025 A 
DOCKED: ATOM      8  C   UNL d   1      16.521   3.311   4.396 -0.28 +0.02    +0.066 A 
DOCKED: ATOM      9  C   UNL d   1      14.118   2.280   4.591 -0.36 +0.01    +0.051 C 
DOCKED: ATOM     10  C   UNL d   1      18.474   1.899   3.922 -0.21 +0.02    +0.066 A 
DOCKED: ATOM     11  C   UNL d   1      19.090   0.686   3.541 -0.28 -0.00    -0.021 A 
DOCKED: ATOM     12  C   UNL d   1      20.460   0.950   3.460 -0.20 +0.00    +0.000 A 
DOCKED: ATOM     13  C   UNL d   1      20.577   2.302   3.783 -0.14 +0.03    +0.070 A 
DOCKED: ATOM     14  C   UNL d   1      18.387  -0.600   3.191 -0.25 +0.01    +0.052 C 
DOCKED: ATOM     15  C   UNL d   1      22.078   4.280   4.252 -0.02 +0.04    +0.066 A 
DOCKED: ATOM     16  C   UNL d   1      23.341   4.808   4.476 -0.05 -0.01    -0.021 A 
DOCKED: ATOM     17  C   UNL d   1      23.135   6.150   4.828 -0.05 +0.00    +0.000 A 
DOCKED: ATOM     18  C   UNL d   1      21.758   6.339   4.775 -0.07 +0.05    +0.070 A 
DOCKED: ATOM     19  C   UNL d   1      24.644   4.050   4.353 -0.02 +0.01    +0.052 C 
DOCKED: ATOM     20  C   UNL d   1      19.698   7.749   5.133 -0.12 +0.04    +0.066 A 
DOCKED: ATOM     21  C   UNL d   1      19.124   8.968   5.488 -0.10 -0.01    -0.025 A 
DOCKED: ATOM     22  C   UNL d   1      17.757   8.765   5.438 -0.12 -0.01    -0.021 A 
DOCKED: ATOM     23  C   UNL d   1      17.563   7.419   5.063 -0.17 +0.03    +0.066 A 
DOCKED: ATOM     24  C   UNL d   1      19.842  10.257   5.876 -0.05 +0.01    +0.051 C 
DOCKED: ATOM     25  N   UNL d   1      17.175   4.529   4.475 -0.16 -0.10    -0.248 N 
DOCKED: ATOM     26  N   UNL d   1      19.371   2.887   4.007 -0.08 -0.11    -0.248 N 
DOCKED: ATOM     27  N   UNL d   1      21.159   5.196   4.459 -0.05 -0.20    -0.248 N 
DOCKED: ATOM     28  N   UNL d   1      18.735   6.800   4.879 -0.12 -0.15    -0.248 N 
DOCKED: ATOM     29 FE   UNL d   1      19.284   4.886   4.466 -0.04 +0.00    +0.000 Fe
DOCKED: ENDROOT
DOCKED: BRANCH   6  30
DOCKED: ATOM     30  C   UNL d   1      13.569   5.414   5.158 -0.22 +0.02    +0.052 C 
DOCKED: BRANCH  30  31
DOCKED: ATOM     31  C   UNL d   1      13.473   5.696   6.657 -0.15 +0.06    +0.115 C 
DOCKED: BRANCH  31  32
DOCKED: ATOM     32  C   UNL d   1      12.466   4.805   7.349 -0.18 +0.15    +0.139 C 
DOCKED: ATOM     33  O   UNL d   1      11.279   4.917   7.081 -0.50 -0.96    -0.650 OA
DOCKED: BRANCH  32  34
DOCKED: ATOM     34  O   UNL d   1      12.840   3.846   8.228 -0.13 -1.07    -0.776 OA
DOCKED: ATOM     35  H   UNL d   1      13.745   3.515   8.319 +0.03 +0.13    +0.167 HD
DOCKED: ENDBRANCH  32  34
DOCKED: ENDBRANCH  31  32
DOCKED: ENDBRANCH  30  31
DOCKED: ENDBRANCH   6  30
DOCKED: BRANCH  29  36
DOCKED: ATOM     36  C   UNL d   1      19.258   4.413   6.509 -0.03 +0.05    +0.190 C 
DOCKED: BRANCH  36  37
DOCKED: ATOM     37  O   UNL d   1      18.898   4.914   7.764 +0.00 -0.08    -0.399 OA
DOCKED: ATOM     38  H   UNL d   1      18.280   5.673   7.569 +0.02 +0.05    +0.209 HD
DOCKED: ENDBRANCH  36  37
DOCKED: ENDBRANCH  29  36
DOCKED: BRANCH  22  39
DOCKED: ATOM     39  C   UNL d   1      16.701   9.795   5.795 -0.09 +0.02    +0.052 C 
DOCKED: BRANCH  39  40
DOCKED: ATOM     40  C   UNL d   1      16.548   9.907   7.321 -0.02 +0.02    +0.115 C 
DOCKED: BRANCH  40  41
DOCKED: ATOM     41  C   UNL d   1      17.387   8.922   8.108 -0.00 +0.02    +0.139 C 
DOCKED: ATOM     42  O   UNL d   1      18.174   9.342   8.944 +0.01 -0.09    -0.650 OA
DOCKED: BRANCH  41  43
DOCKED: ATOM     43  O   UNL d   1      17.228   7.587   7.973 +0.03 -0.16    -0.776 OA
DOCKED: ATOM     44  H   UNL d   1      17.970   6.970   8.008 +0.01 +0.03    +0.167 HD
DOCKED: ENDBRANCH  41  43
DOCKED: ENDBRANCH  40  41
DOCKED: ENDBRANCH  39  40
DOCKED: ENDBRANCH  22  39
DOCKED: BRANCH  12  45
DOCKED: ATOM     45  C   UNL d   1      21.663   0.089   3.097 -0.14 +0.00    +0.004 C 
DOCKED: ATOM     46  C   UNL d   1      22.303  -0.061   1.940 -0.16 +0.00    +0.012 C 
DOCKED: ENDBRANCH  12  45
DOCKED: BRANCH  17  47
DOCKED: ATOM     47  C   UNL d   1      24.124   7.191   5.240 -0.02 +0.00    +0.004 C 
DOCKED: ATOM     48  C   UNL d   1      24.360   8.302   4.538 -0.02 +0.00    +0.012 C 
DOCKED: ENDBRANCH  17  47
DOCKED: TORSDOF 12
DOCKED: TER
DOCKED: ENDMDL
________________________________________________________________________________


	BEGINNING GENETIC ALGORITHM DOCKING 22 of 100
Run: 22 Seed: 1378061752 1966378242 [ Run 22 of 100 GA/GALS ]
Beginning LAMARCKIAN GENETIC ALGORITHM (LGA), with a maximum of 25000000 energy evaluations.

Final-Value: -8.961


	FINAL GENETIC ALGORITHM DOCKED STATE
	_______________________________________________


Detailed state:  trans 1.352 -18.083 -9.512 quatxyzw -0.927707 -0.168802 -0.332660 0.014253 center 8.781 34.984 -0.736 ntor 12 41.0212 99.1925 -151.9262 144.1596 128.6867 81.1923 40.6810 118.4219 24.3025 148.7925 -175.3079 171.6590
State:	  1.352 -18.083  -9.512  -0.928 -0.169 -0.333 178.367     41.02   99.19 -151.93  144.16  128.69   81.19   40.68  118.42   24.30  148.79 -175.31  171.66

DOCKED: MODEL       22
DOCKED: USER    Run = 22
DOCKED: USER    DPF = D:/Protein_go_brrr/autodock/final/mut_Y35F/heme_Co/dock.dpf
DOCKED: USER  
DOCKED: USER    Estimated Free Energy of Binding    =   -3.40 kcal/mol  [=(1)+(2)+(3)-(4)]
DOCKED: USER    Estimated Inhibition Constant, Ki   =    3.20 mM (millimolar)  [Temperature = 298.15 K]
DOCKED: USER    
DOCKED: USER    (1) Final Intermolecular Energy     =   -6.98 kcal/mol
DOCKED: USER        vdW + Hbond + desolv Energy     =   -5.65 kcal/mol
DOCKED: USER        Electrostatic Energy            =   -1.33 kcal/mol
DOCKED: USER    (2) Final Total Internal Energy     =   -1.98 kcal/mol
DOCKED: USER    (3) Torsional Free Energy           =   +3.58 kcal/mol
DOCKED: USER    (4) Unbound System's Energy  [=(2)] =   -1.98 kcal/mol
DOCKED: USER    
DOCKED: USER    
DOCKED: USER    NEWDPF move heme_Co_opt.pdbqt
DOCKED: USER    NEWDPF about 8.781000 34.984000 -0.736000
DOCKED: USER    NEWDPF tran0 1.351524 -18.082618 -9.512476
DOCKED: USER    NEWDPF quaternion0 -0.927707 -0.168802 -0.332660 0.014253
DOCKED: USER    NEWDPF axisangle0 -0.927801 -0.168819 -0.332693 178.366625
DOCKED: USER    NEWDPF quat0 -0.927801 -0.168819 -0.332693 178.366625
DOCKED: USER    NEWDPF dihe0 41.02 99.19 -151.93 144.16 128.69 81.19 40.68 118.42 24.30 148.79 -175.31 171.66 
DOCKED: USER  keepresnum = 1 
DOCKED: USER  
DOCKED: REMARK  12 active torsions:
DOCKED: REMARK  status: ('A' for Active; 'I' for Inactive)
DOCKED: REMARK    1  A    between atoms: C_6  and  C_10 
DOCKED: REMARK    2  A    between atoms: C_10  and  C_11 
DOCKED: REMARK    3  A    between atoms: C_11  and  C_12 
DOCKED: REMARK    4  A    between atoms: C_12  and  O_14 
DOCKED: REMARK    5  A    between atoms: C_17  and  C_20 
DOCKED: REMARK    6  A    between atoms: C_24  and  C_27 
DOCKED: REMARK    7  A    between atoms: C_31  and  C_34 
DOCKED: REMARK    8  A    between atoms: C_34  and  C_35 
DOCKED: REMARK    9  A    between atoms: C_35  and  C_36 
DOCKED: REMARK   10  A    between atoms: C_36  and  O_38 
DOCKED: REMARK   11  A    between atoms: FE_43  and  C_44 
DOCKED: REMARK   12  A    between atoms: C_44  and  O_45 
DOCKED: USER                              x       y       z     vdW  Elec       q    Type
DOCKED: USER                           _______ _______ _______ _____ _____    ______ ____
DOCKED: ROOT
DOCKED: ATOM      1  C   UNL d   1      -0.422 -19.250  -9.967 -0.18 -0.01    +0.064 A 
DOCKED: ATOM      2  C   UNL d   1       2.002 -16.016 -12.472 -0.15 -0.01    +0.064 C 
DOCKED: ATOM      3  C   UNL d   1       4.836 -15.177  -8.717 -0.19 -0.03    +0.064 A 
DOCKED: ATOM      4  C   UNL d   1       2.623 -18.749  -6.266 -0.11 -0.02    +0.064 A 
DOCKED: ATOM      5  C   UNL d   1       0.009 -18.402 -10.915 -0.18 -0.00    +0.066 A 
DOCKED: ATOM      6  C   UNL d   1      -0.536 -18.395 -12.214 -0.19 -0.00    -0.021 A 
DOCKED: ATOM      7  C   UNL d   1       0.187 -17.470 -12.943 -0.12 -0.00    -0.025 A 
DOCKED: ATOM      8  C   UNL d   1       1.129 -16.942 -12.054 -0.13 -0.00    +0.066 A 
DOCKED: ATOM      9  C   UNL d   1       0.009 -17.088 -14.421 -0.08 +0.01    +0.051 C 
DOCKED: ATOM     10  C   UNL d   1       2.989 -15.397 -11.623 -0.17 -0.02    +0.066 A 
DOCKED: ATOM     11  C   UNL d   1       3.839 -14.321 -11.963 -0.20 +0.01    -0.021 A 
DOCKED: ATOM     12  C   UNL d   1       4.651 -14.095 -10.849 -0.29 -0.00    +0.000 A 
DOCKED: ATOM     13  C   UNL d   1       4.231 -15.038  -9.910 -0.19 -0.03    +0.070 A 
DOCKED: ATOM     14  C   UNL d   1       3.793 -13.517 -13.236 -0.15 -0.01    +0.052 C 
DOCKED: ATOM     15  C   UNL d   1       4.567 -16.127  -7.656 -0.15 -0.03    +0.066 A 
DOCKED: ATOM     16  C   UNL d   1       5.324 -16.314  -6.507 -0.15 +0.01    -0.021 A 
DOCKED: ATOM     17  C   UNL d   1       4.691 -17.345  -5.798 -0.11 -0.00    +0.000 A 
DOCKED: ATOM     18  C   UNL d   1       3.585 -17.695  -6.564 -0.12 -0.02    +0.070 A 
DOCKED: ATOM     19  C   UNL d   1       6.570 -15.538  -6.143 -0.17 -0.02    +0.052 C 
DOCKED: ATOM     20  C   UNL d   1       1.590 -19.166  -7.037 -0.13 -0.03    +0.066 A 
DOCKED: ATOM     21  C   UNL d   1       0.756 -20.215  -6.658 -0.07 +0.02    -0.025 A 
DOCKED: ATOM     22  C   UNL d   1      -0.150 -20.363  -7.693 -0.04 +0.01    -0.021 A 
DOCKED: ATOM     23  C   UNL d   1       0.187 -19.397  -8.664 -0.16 -0.03    +0.066 A 
DOCKED: ATOM     24  C   UNL d   1       0.829 -21.049  -5.382 -0.08 -0.03    +0.051 C 
DOCKED: ATOM     25  N   UNL d   1       1.038 -17.497 -10.789 -0.12 +0.04    -0.248 N 
DOCKED: ATOM     26  N   UNL d   1       3.189 -15.786 -10.359 -0.13 +0.10    -0.248 N 
DOCKED: ATOM     27  N   UNL d   1       3.560 -16.971  -7.678 +0.02 +0.11    -0.248 N 
DOCKED: ATOM     28  N   UNL d   1       1.242 -18.672  -8.272 -0.10 +0.10    -0.248 N 
DOCKED: ATOM     29 FE   UNL d   1       2.372 -17.221  -9.139 -0.05 -0.00    +0.000 Fe
DOCKED: ENDROOT
DOCKED: BRANCH   6  30
DOCKED: ATOM     30  C   UNL d   1      -1.645 -19.298 -12.741 -0.19 +0.02    +0.052 C 
DOCKED: BRANCH  30  31
DOCKED: ATOM     31  C   UNL d   1      -1.057 -20.564 -13.363 -0.10 +0.04    +0.115 C 
DOCKED: BRANCH  31  32
DOCKED: ATOM     32  C   UNL d   1      -2.001 -21.215 -14.351 -0.07 +0.13    +0.139 C 
DOCKED: ATOM     33  O   UNL d   1      -2.811 -22.040 -13.955 -0.41 -0.88    -0.650 OA
DOCKED: BRANCH  32  34
DOCKED: ATOM     34  O   UNL d   1      -2.013 -20.876 -15.661 -0.02 -0.81    -0.776 OA
DOCKED: ATOM     35  H   UNL d   1      -1.223 -20.655 -16.173 +0.01 +0.10    +0.167 HD
DOCKED: ENDBRANCH  32  34
DOCKED: ENDBRANCH  31  32
DOCKED: ENDBRANCH  30  31
DOCKED: ENDBRANCH   6  30
DOCKED: BRANCH  29  36
DOCKED: ATOM     36  C   UNL d   1       3.595 -18.672 -10.029 -0.02 -0.03    +0.190 C 
DOCKED: BRANCH  36  37
DOCKED: ATOM     37  O   UNL d   1       3.699 -20.046 -10.270 +0.00 +0.04    -0.399 OA
DOCKED: ATOM     38  H   UNL d   1       3.022 -20.464  -9.668 +0.01 -0.03    +0.209 HD
DOCKED: ENDBRANCH  36  37
DOCKED: ENDBRANCH  29  36
DOCKED: BRANCH  22  39
DOCKED: ATOM     39  C   UNL d   1      -1.236 -21.420  -7.766 -0.10 -0.03    +0.052 C 
DOCKED: BRANCH  39  40
DOCKED: ATOM     40  C   UNL d   1      -0.691 -22.715  -8.390 -0.03 -0.02    +0.115 C 
DOCKED: BRANCH  40  41
DOCKED: ATOM     41  C   UNL d   1       0.310 -22.499  -9.505 -0.01 -0.01    +0.139 C 
DOCKED: ATOM     42  O   UNL d   1      -0.045 -22.651 -10.666 +0.02 -0.01    -0.650 OA
DOCKED: BRANCH  41  43
DOCKED: ATOM     43  O   UNL d   1       1.563 -22.057  -9.260 +0.02 +0.08    -0.776 OA
DOCKED: ATOM     44  H   UNL d   1       2.037 -21.475  -9.867 +0.01 -0.01    +0.167 HD
DOCKED: ENDBRANCH  41  43
DOCKED: ENDBRANCH  40  41
DOCKED: ENDBRANCH  39  40
DOCKED: ENDBRANCH  22  39
DOCKED: BRANCH  12  45
DOCKED: ATOM     45  C   UNL d   1       5.758 -13.090 -10.558 -0.29 -0.00    +0.004 C 
DOCKED: ATOM     46  C   UNL d   1       5.994 -12.351  -9.477 -0.36 -0.01    +0.012 C 
DOCKED: ENDBRANCH  12  45
DOCKED: BRANCH  17  47
DOCKED: ATOM     47  C   UNL d   1       5.092 -18.011  -4.523 -0.08 -0.00    +0.004 C 
DOCKED: ATOM     48  C   UNL d   1       4.467 -17.814  -3.360 -0.15 -0.00    +0.012 C 
DOCKED: ENDBRANCH  17  47
DOCKED: TORSDOF 12
DOCKED: TER
DOCKED: ENDMDL
________________________________________________________________________________


	BEGINNING GENETIC ALGORITHM DOCKING 23 of 100
Run: 23 Seed: 671691463 107337363 [ Run 23 of 100 GA/GALS ]
Beginning LAMARCKIAN GENETIC ALGORITHM (LGA), with a maximum of 25000000 energy evaluations.

Final-Value: -9.289


	FINAL GENETIC ALGORITHM DOCKED STATE
	_______________________________________________


Detailed state:  trans 10.590 14.518 -9.632 quatxyzw -0.168397 0.801347 -0.060549 -0.570806 center 8.781 34.984 -0.736 ntor 12 -161.9202 111.4474 -62.2834 129.1867 137.3229 139.3645 48.2128 -120.9572 164.9278 4.8015 -159.9924 -179.7257
State:	 10.590  14.518  -9.632  -0.205  0.976 -0.074 -110.387   -161.92  111.45  -62.28  129.19  137.32  139.36   48.21 -120.96  164.93    4.80 -159.99 -179.73

DOCKED: MODEL       23
DOCKED: USER    Run = 23
DOCKED: USER    DPF = D:/Protein_go_brrr/autodock/final/mut_Y35F/heme_Co/dock.dpf
DOCKED: USER  
DOCKED: USER    Estimated Free Energy of Binding    =   -3.52 kcal/mol  [=(1)+(2)+(3)-(4)]
DOCKED: USER    Estimated Inhibition Constant, Ki   =    2.64 mM (millimolar)  [Temperature = 298.15 K]
DOCKED: USER    
DOCKED: USER    (1) Final Intermolecular Energy     =   -7.10 kcal/mol
DOCKED: USER        vdW + Hbond + desolv Energy     =   -6.91 kcal/mol
DOCKED: USER        Electrostatic Energy            =   -0.19 kcal/mol
DOCKED: USER    (2) Final Total Internal Energy     =   -2.19 kcal/mol
DOCKED: USER    (3) Torsional Free Energy           =   +3.58 kcal/mol
DOCKED: USER    (4) Unbound System's Energy  [=(2)] =   -2.19 kcal/mol
DOCKED: USER    
DOCKED: USER    
DOCKED: USER    NEWDPF move heme_Co_opt.pdbqt
DOCKED: USER    NEWDPF about 8.781000 34.984000 -0.736000
DOCKED: USER    NEWDPF tran0 10.590220 14.517636 -9.631985
DOCKED: USER    NEWDPF quaternion0 -0.168397 0.801347 -0.060549 -0.570806
DOCKED: USER    NEWDPF axisangle0 -0.205091 0.975961 -0.073743 -110.387114
DOCKED: USER    NEWDPF quat0 -0.205091 0.975961 -0.073743 -110.387114
DOCKED: USER    NEWDPF dihe0 -161.92 111.45 -62.28 129.19 137.32 139.36 48.21 -120.96 164.93 4.80 -159.99 -179.73 
DOCKED: USER  keepresnum = 1 
DOCKED: USER  
DOCKED: REMARK  12 active torsions:
DOCKED: REMARK  status: ('A' for Active; 'I' for Inactive)
DOCKED: REMARK    1  A    between atoms: C_6  and  C_10 
DOCKED: REMARK    2  A    between atoms: C_10  and  C_11 
DOCKED: REMARK    3  A    between atoms: C_11  and  C_12 
DOCKED: REMARK    4  A    between atoms: C_12  and  O_14 
DOCKED: REMARK    5  A    between atoms: C_17  and  C_20 
DOCKED: REMARK    6  A    between atoms: C_24  and  C_27 
DOCKED: REMARK    7  A    between atoms: C_31  and  C_34 
DOCKED: REMARK    8  A    between atoms: C_34  and  C_35 
DOCKED: REMARK    9  A    between atoms: C_35  and  C_36 
DOCKED: REMARK   10  A    between atoms: C_36  and  O_38 
DOCKED: REMARK   11  A    between atoms: FE_43  and  C_44 
DOCKED: REMARK   12  A    between atoms: C_44  and  O_45 
DOCKED: USER                              x       y       z     vdW  Elec       q    Type
DOCKED: USER                           _______ _______ _______ _____ _____    ______ ____
DOCKED: ROOT
DOCKED: ATOM      1  C   UNL d   1      10.259  15.560  -7.756 -0.19 -0.00    +0.064 A 
DOCKED: ATOM      2  C   UNL d   1      13.919  12.999  -9.386 -0.19 -0.02    +0.064 C 
DOCKED: ATOM      3  C   UNL d   1      11.438  11.884 -13.314 -0.14 -0.01    +0.064 A 
DOCKED: ATOM      4  C   UNL d   1       7.834  14.806 -11.851 -0.21 +0.00    +0.064 A 
DOCKED: ATOM      5  C   UNL d   1      11.428  14.912  -7.896 -0.25 -0.01    +0.066 A 
DOCKED: ATOM      6  C   UNL d   1      12.474  15.048  -6.962 -0.26 +0.01    -0.021 A 
DOCKED: ATOM      7  C   UNL d   1      13.542  14.321  -7.452 -0.21 +0.01    -0.025 A 
DOCKED: ATOM      8  C   UNL d   1      13.096  13.760  -8.654 -0.18 -0.01    +0.066 A 
DOCKED: ATOM      9  C   UNL d   1      14.934  14.152  -6.825 -0.20 -0.02    +0.051 C 
DOCKED: ATOM     10  C   UNL d   1      13.542  12.359 -10.621 -0.12 -0.02    +0.066 A 
DOCKED: ATOM     11  C   UNL d   1      14.311  11.436 -11.363 -0.24 +0.01    -0.021 A 
DOCKED: ATOM     12  C   UNL d   1      13.562  11.125 -12.501 -0.25 -0.00    +0.000 A 
DOCKED: ATOM     13  C   UNL d   1      12.389  11.868 -12.364 -0.18 -0.01    +0.070 A 
DOCKED: ATOM     14  C   UNL d   1      15.628  10.834 -10.946 -0.23 -0.02    +0.052 C 
DOCKED: ATOM     15  C   UNL d   1      10.196  12.630 -13.360 -0.01 -0.00    +0.066 A 
DOCKED: ATOM     16  C   UNL d   1       9.325  12.714 -14.437 -0.10 +0.00    -0.021 A 
DOCKED: ATOM     17  C   UNL d   1       8.286  13.558 -14.021 -0.16 -0.00    +0.000 A 
DOCKED: ATOM     18  C   UNL d   1       8.597  13.910 -12.712 -0.20 +0.00    +0.070 A 
DOCKED: ATOM     19  C   UNL d   1       9.507  12.019 -15.768 -0.09 -0.00    +0.052 C 
DOCKED: ATOM     20  C   UNL d   1       8.161  15.231 -10.607 -0.13 +0.00    +0.066 A 
DOCKED: ATOM     21  C   UNL d   1       7.365  16.122  -9.893 -0.16 -0.00    -0.025 A 
DOCKED: ATOM     22  C   UNL d   1       8.024  16.336  -8.696 -0.26 -0.00    -0.021 A 
DOCKED: ATOM     23  C   UNL d   1       9.206  15.566  -8.745 -0.28 +0.00    +0.066 A 
DOCKED: ATOM     24  C   UNL d   1       6.049  16.757 -10.336 -0.16 +0.01    +0.051 C 
DOCKED: ATOM     25  N   UNL d   1      11.789  14.105  -8.951 -0.14 +0.04    -0.248 N 
DOCKED: ATOM     26  N   UNL d   1      12.354  12.570 -11.200 -0.13 +0.06    -0.248 N 
DOCKED: ATOM     27  N   UNL d   1       9.756  13.364 -12.362 -0.13 +0.01    -0.248 N 
DOCKED: ATOM     28  N   UNL d   1       9.294  14.898  -9.901 -0.18 +0.00    -0.248 N 
DOCKED: ATOM     29 FE   UNL d   1      10.709  13.714 -10.756 -0.05 -0.00    +0.000 Fe
DOCKED: ENDROOT
DOCKED: BRANCH   6  30
DOCKED: ATOM     30  C   UNL d   1      12.463  15.907  -5.703 -0.14 -0.03    +0.052 C 
DOCKED: BRANCH  30  31
DOCKED: ATOM     31  C   UNL d   1      12.637  17.384  -6.058 -0.15 -0.07    +0.115 C 
DOCKED: BRANCH  31  32
DOCKED: ATOM     32  C   UNL d   1      13.174  17.581  -7.459 -0.06 -0.04    +0.139 C 
DOCKED: ATOM     33  O   UNL d   1      14.375  17.476  -7.662 +0.02 +0.20    -0.650 OA
DOCKED: BRANCH  32  34
DOCKED: ATOM     34  O   UNL d   1      12.360  17.825  -8.512 +0.04 +0.12    -0.776 OA
DOCKED: ATOM     35  H   UNL d   1      12.636  17.766  -9.437 +0.01 -0.02    +0.167 HD
DOCKED: ENDBRANCH  32  34
DOCKED: ENDBRANCH  31  32
DOCKED: ENDBRANCH  30  31
DOCKED: ENDBRANCH   6  30
DOCKED: BRANCH  29  36
DOCKED: ATOM     36  C   UNL d   1      11.666  15.397 -11.559 -0.03 -0.02    +0.190 C 
DOCKED: BRANCH  36  37
DOCKED: ATOM     37  O   UNL d   1      12.398  16.536 -11.209 +0.00 +0.04    -0.399 OA
DOCKED: ATOM     38  H   UNL d   1      12.444  16.514 -10.212 +0.03 -0.02    +0.209 HD
DOCKED: ENDBRANCH  36  37
DOCKED: ENDBRANCH  29  36
DOCKED: BRANCH  22  39
DOCKED: ATOM     39  C   UNL d   1       7.571  17.279  -7.598 -0.22 +0.02    +0.052 C 
DOCKED: BRANCH  39  40
DOCKED: ATOM     40  C   UNL d   1       7.909  18.735  -7.958 -0.10 +0.02    +0.115 C 
DOCKED: BRANCH  40  41
DOCKED: ATOM     41  C   UNL d   1       7.475  19.752  -6.924 -0.08 +0.04    +0.139 C 
DOCKED: ATOM     42  O   UNL d   1       7.202  19.376  -5.793 -0.38 -0.36    -0.650 OA
DOCKED: BRANCH  41  43
DOCKED: ATOM     43  O   UNL d   1       7.463  21.076  -7.192 +0.03 -0.09    -0.776 OA
DOCKED: ATOM     44  H   UNL d   1       8.247  21.551  -7.499 +0.01 +0.01    +0.167 HD
DOCKED: ENDBRANCH  41  43
DOCKED: ENDBRANCH  40  41
DOCKED: ENDBRANCH  39  40
DOCKED: ENDBRANCH  22  39
DOCKED: BRANCH  12  45
DOCKED: ATOM     45  C   UNL d   1      13.810  10.202 -13.687 -0.27 -0.00    +0.004 C 
DOCKED: ATOM     46  C   UNL d   1      13.115   9.158 -14.132 -0.30 -0.00    +0.012 C 
DOCKED: ENDBRANCH  12  45
DOCKED: BRANCH  17  47
DOCKED: ATOM     47  C   UNL d   1       7.102  14.059 -14.781 -0.12 -0.00    +0.004 C 
DOCKED: ATOM     48  C   UNL d   1       5.841  13.754 -14.466 -0.18 +0.00    +0.012 C 
DOCKED: ENDBRANCH  17  47
DOCKED: TORSDOF 12
DOCKED: TER
DOCKED: ENDMDL
________________________________________________________________________________


	BEGINNING GENETIC ALGORITHM DOCKING 24 of 100
Run: 24 Seed: 111840181 2010064904 [ Run 24 of 100 GA/GALS ]
Beginning LAMARCKIAN GENETIC ALGORITHM (LGA), with a maximum of 25000000 energy evaluations.

Final-Value: -9.726


	FINAL GENETIC ALGORITHM DOCKED STATE
	_______________________________________________


Detailed state:  trans -1.792 -9.182 -13.758 quatxyzw -0.279021 -0.774614 0.458888 -0.333981 center 8.781 34.984 -0.736 ntor 12 156.8181 108.4949 53.9237 -27.4569 -89.7331 149.5305 -128.8158 -80.4589 -135.3345 72.1084 180.0000 -16.4555
State:	 -1.792  -9.182 -13.758  -0.296 -0.822  0.487 -140.979    156.82  108.49   53.92  -27.46  -89.73  149.53 -128.82  -80.46 -135.33   72.11  180.00  -16.46

DOCKED: MODEL       24
DOCKED: USER    Run = 24
DOCKED: USER    DPF = D:/Protein_go_brrr/autodock/final/mut_Y35F/heme_Co/dock.dpf
DOCKED: USER  
DOCKED: USER    Estimated Free Energy of Binding    =   -3.93 kcal/mol  [=(1)+(2)+(3)-(4)]
DOCKED: USER    Estimated Inhibition Constant, Ki   =    1.31 mM (millimolar)  [Temperature = 298.15 K]
DOCKED: USER    
DOCKED: USER    (1) Final Intermolecular Energy     =   -7.51 kcal/mol
DOCKED: USER        vdW + Hbond + desolv Energy     =   -6.72 kcal/mol
DOCKED: USER        Electrostatic Energy            =   -0.79 kcal/mol
DOCKED: USER    (2) Final Total Internal Energy     =   -2.21 kcal/mol
DOCKED: USER    (3) Torsional Free Energy           =   +3.58 kcal/mol
DOCKED: USER    (4) Unbound System's Energy  [=(2)] =   -2.21 kcal/mol
DOCKED: USER    
DOCKED: USER    
DOCKED: USER    NEWDPF move heme_Co_opt.pdbqt
DOCKED: USER    NEWDPF about 8.781000 34.984000 -0.736000
DOCKED: USER    NEWDPF tran0 -1.791548 -9.182111 -13.758362
DOCKED: USER    NEWDPF quaternion0 -0.279021 -0.774614 0.458888 -0.333981
DOCKED: USER    NEWDPF axisangle0 -0.296019 -0.821801 0.486842 -140.978840
DOCKED: USER    NEWDPF quat0 -0.296019 -0.821801 0.486842 -140.978840
DOCKED: USER    NEWDPF dihe0 156.82 108.49 53.92 -27.46 -89.73 149.53 -128.82 -80.46 -135.33 72.11 180.00 -16.46 
DOCKED: USER  keepresnum = 1 
DOCKED: USER  
DOCKED: REMARK  12 active torsions:
DOCKED: REMARK  status: ('A' for Active; 'I' for Inactive)
DOCKED: REMARK    1  A    between atoms: C_6  and  C_10 
DOCKED: REMARK    2  A    between atoms: C_10  and  C_11 
DOCKED: REMARK    3  A    between atoms: C_11  and  C_12 
DOCKED: REMARK    4  A    between atoms: C_12  and  O_14 
DOCKED: REMARK    5  A    between atoms: C_17  and  C_20 
DOCKED: REMARK    6  A    between atoms: C_24  and  C_27 
DOCKED: REMARK    7  A    between atoms: C_31  and  C_34 
DOCKED: REMARK    8  A    between atoms: C_34  and  C_35 
DOCKED: REMARK    9  A    between atoms: C_35  and  C_36 
DOCKED: REMARK   10  A    between atoms: C_36  and  O_38 
DOCKED: REMARK   11  A    between atoms: FE_43  and  C_44 
DOCKED: REMARK   12  A    between atoms: C_44  and  O_45 
DOCKED: USER                              x       y       z     vdW  Elec       q    Type
DOCKED: USER                           _______ _______ _______ _____ _____    ______ ____
DOCKED: ROOT
DOCKED: ATOM      1  C   UNL d   1       0.131  -9.955 -14.409 -0.17 +0.00    +0.064 A 
DOCKED: ATOM      2  C   UNL d   1      -3.875 -12.109 -13.022 -0.28 -0.01    +0.064 C 
DOCKED: ATOM      3  C   UNL d   1      -5.827  -7.879 -11.960 -0.20 -0.01    +0.064 A 
DOCKED: ATOM      4  C   UNL d   1      -1.892  -5.634 -13.732 -0.12 +0.00    +0.064 A 
DOCKED: ATOM      5  C   UNL d   1      -0.807 -10.856 -14.074 -0.21 -0.00    +0.066 A 
DOCKED: ATOM      6  C   UNL d   1      -0.635 -12.235 -14.307 -0.19 +0.00    -0.021 A 
DOCKED: ATOM      7  C   UNL d   1      -1.809 -12.853 -13.924 -0.19 +0.00    -0.025 A 
DOCKED: ATOM      8  C   UNL d   1      -2.641 -11.828 -13.459 -0.22 -0.01    +0.066 A 
DOCKED: ATOM      9  C   UNL d   1      -2.151 -14.349 -13.988 -0.15 +0.01    +0.051 C 
DOCKED: ATOM     10  C   UNL d   1      -4.791 -11.125 -12.502 -0.26 -0.01    +0.066 A 
DOCKED: ATOM     11  C   UNL d   1      -6.043 -11.374 -11.899 -0.33 +0.00    -0.021 A 
DOCKED: ATOM     12  C   UNL d   1      -6.589 -10.123 -11.596 -0.34 -0.00    +0.000 A 
DOCKED: ATOM     13  C   UNL d   1      -5.626  -9.208 -12.022 -0.20 -0.01    +0.070 A 
DOCKED: ATOM     14  C   UNL d   1      -6.617 -12.725 -11.560 -0.16 -0.02    +0.052 C 
DOCKED: ATOM     15  C   UNL d   1      -4.967  -6.798 -12.401 -0.16 -0.00    +0.066 A 
DOCKED: ATOM     16  C   UNL d   1      -5.295  -5.450 -12.441 -0.17 +0.00    -0.021 A 
DOCKED: ATOM     17  C   UNL d   1      -4.165  -4.799 -12.953 -0.14 +0.00    +0.000 A 
DOCKED: ATOM     18  C   UNL d   1      -3.227  -5.802 -13.170 -0.14 +0.00    +0.070 A 
DOCKED: ATOM     19  C   UNL d   1      -6.618  -4.857 -12.009 -0.10 +0.00    +0.052 C 
DOCKED: ATOM     20  C   UNL d   1      -0.995  -6.603 -14.032 -0.12 +0.00    +0.066 A 
DOCKED: ATOM     21  C   UNL d   1       0.243  -6.320 -14.603 -0.10 -0.00    -0.025 A 
DOCKED: ATOM     22  C   UNL d   1       0.860  -7.544 -14.783 -0.14 -0.00    -0.021 A 
DOCKED: ATOM     23  C   UNL d   1      -0.045  -8.523 -14.320 -0.18 +0.00    +0.066 A 
DOCKED: ATOM     24  C   UNL d   1       0.805  -4.950 -14.978 -0.08 +0.01    +0.051 C 
DOCKED: ATOM     25  N   UNL d   1      -2.043 -10.581 -13.535 -0.15 +0.02    -0.248 N 
DOCKED: ATOM     26  N   UNL d   1      -4.516  -9.817 -12.518 -0.10 +0.02    -0.248 N 
DOCKED: ATOM     27  N   UNL d   1      -3.750  -6.983 -12.859 -0.09 -0.00    -0.248 N 
DOCKED: ATOM     28  N   UNL d   1      -1.170  -7.958 -13.867 -0.10 -0.01    -0.248 N 
DOCKED: ATOM     29 FE   UNL d   1      -2.944  -8.674 -13.178 -0.05 -0.00    +0.000 Fe
DOCKED: ENDROOT
DOCKED: BRANCH   6  30
DOCKED: ATOM     30  C   UNL d   1       0.576 -12.905 -14.946 -0.14 -0.00    +0.052 C 
DOCKED: BRANCH  30  31
DOCKED: ATOM     31  C   UNL d   1       0.343 -13.125 -16.440 -0.02 +0.00    +0.115 C 
DOCKED: BRANCH  31  32
DOCKED: ATOM     32  C   UNL d   1      -0.301 -11.928 -17.106 -0.01 +0.00    +0.139 C 
DOCKED: ATOM     33  O   UNL d   1       0.389 -11.163 -17.764 +0.02 -0.01    -0.650 OA
DOCKED: BRANCH  32  34
DOCKED: ATOM     34  O   UNL d   1      -1.633 -11.699 -17.039 +0.03 -0.01    -0.776 OA
DOCKED: ATOM     35  H   UNL d   1      -2.038 -10.823 -17.096 +0.01 +0.00    +0.167 HD
DOCKED: ENDBRANCH  32  34
DOCKED: ENDBRANCH  31  32
DOCKED: ENDBRANCH  30  31
DOCKED: ENDBRANCH   6  30
DOCKED: BRANCH  29  36
DOCKED: ATOM     36  C   UNL d   1      -3.687  -8.784 -15.135 -0.02 -0.00    +0.190 C 
DOCKED: BRANCH  36  37
DOCKED: ATOM     37  O   UNL d   1      -3.648  -9.557 -16.300 +0.00 -0.00    -0.399 OA
DOCKED: ATOM     38  H   UNL d   1      -2.979 -10.273 -16.110 +0.02 +0.00    +0.209 HD
DOCKED: ENDBRANCH  36  37
DOCKED: ENDBRANCH  29  36
DOCKED: BRANCH  22  39
DOCKED: ATOM     39  C   UNL d   1       2.218  -7.759 -15.425 -0.14 +0.01    +0.052 C 
DOCKED: BRANCH  39  40
DOCKED: ATOM     40  C   UNL d   1       3.342  -7.588 -14.389 -0.11 +0.04    +0.115 C 
DOCKED: BRANCH  40  41
DOCKED: ATOM     41  C   UNL d   1       4.238  -6.391 -14.631 -0.06 +0.09    +0.139 C 
DOCKED: ATOM     42  O   UNL d   1       3.743  -5.274 -14.684 -0.32 -0.55    -0.650 OA
DOCKED: BRANCH  41  43
DOCKED: ATOM     43  O   UNL d   1       5.582  -6.514 -14.704 -0.21 -0.40    -0.776 OA
DOCKED: ATOM     44  H   UNL d   1       6.018  -7.063 -15.367 +0.03 +0.04    +0.167 HD
DOCKED: ENDBRANCH  41  43
DOCKED: ENDBRANCH  40  41
DOCKED: ENDBRANCH  39  40
DOCKED: ENDBRANCH  22  39
DOCKED: BRANCH  12  45
DOCKED: ATOM     45  C   UNL d   1      -7.893  -9.691 -10.938 -0.36 -0.00    +0.004 C 
DOCKED: ATOM     46  C   UNL d   1      -9.114 -10.215 -11.010 -0.47 -0.00    +0.012 C 
DOCKED: ENDBRANCH  12  45
DOCKED: BRANCH  17  47
DOCKED: ATOM     47  C   UNL d   1      -3.961  -3.355 -13.277 -0.07 +0.00    +0.004 C 
DOCKED: ATOM     48  C   UNL d   1      -3.825  -2.891 -14.522 -0.06 +0.00    +0.012 C 
DOCKED: ENDBRANCH  17  47
DOCKED: TORSDOF 12
DOCKED: TER
DOCKED: ENDMDL
________________________________________________________________________________


	BEGINNING GENETIC ALGORITHM DOCKING 25 of 100
Run: 25 Seed: 2100316144 895076773 [ Run 25 of 100 GA/GALS ]
Beginning LAMARCKIAN GENETIC ALGORITHM (LGA), with a maximum of 25000000 energy evaluations.

Final-Value: -10.756


	FINAL GENETIC ALGORITHM DOCKED STATE
	_______________________________________________


Detailed state:  trans 2.315 -16.573 -9.410 quatxyzw -0.721765 0.144325 -0.674620 -0.055801 center 8.781 34.984 -0.736 ntor 12 130.4484 122.7975 -60.2473 120.4917 52.1581 97.3740 -131.5850 -14.9673 -125.5000 -176.5124 -170.0708 -179.9078
State:	  2.315 -16.573  -9.410  -0.723  0.145 -0.676 -173.602    130.45  122.80  -60.25  120.49   52.16   97.37 -131.59  -14.97 -125.50 -176.51 -170.07 -179.91

DOCKED: MODEL       25
DOCKED: USER    Run = 25
DOCKED: USER    DPF = D:/Protein_go_brrr/autodock/final/mut_Y35F/heme_Co/dock.dpf
DOCKED: USER  
DOCKED: USER    Estimated Free Energy of Binding    =   -3.47 kcal/mol  [=(1)+(2)+(3)-(4)]
DOCKED: USER    Estimated Inhibition Constant, Ki   =    2.84 mM (millimolar)  [Temperature = 298.15 K]
DOCKED: USER    
DOCKED: USER    (1) Final Intermolecular Energy     =   -7.05 kcal/mol
DOCKED: USER        vdW + Hbond + desolv Energy     =   -7.14 kcal/mol
DOCKED: USER        Electrostatic Energy            =   +0.08 kcal/mol
DOCKED: USER    (2) Final Total Internal Energy     =   -3.70 kcal/mol
DOCKED: USER    (3) Torsional Free Energy           =   +3.58 kcal/mol
DOCKED: USER    (4) Unbound System's Energy  [=(2)] =   -3.70 kcal/mol
DOCKED: USER    
DOCKED: USER    
DOCKED: USER    NEWDPF move heme_Co_opt.pdbqt
DOCKED: USER    NEWDPF about 8.781000 34.984000 -0.736000
DOCKED: USER    NEWDPF tran0 2.315206 -16.573153 -9.409963
DOCKED: USER    NEWDPF quaternion0 -0.721765 0.144325 -0.674620 -0.055801
DOCKED: USER    NEWDPF axisangle0 -0.722891 0.144550 -0.675672 -173.602329
DOCKED: USER    NEWDPF quat0 -0.722891 0.144550 -0.675672 -173.602329
DOCKED: USER    NEWDPF dihe0 130.45 122.80 -60.25 120.49 52.16 97.37 -131.59 -14.97 -125.50 -176.51 -170.07 -179.91 
DOCKED: USER  keepresnum = 1 
DOCKED: USER  
DOCKED: REMARK  12 active torsions:
DOCKED: REMARK  status: ('A' for Active; 'I' for Inactive)
DOCKED: REMARK    1  A    between atoms: C_6  and  C_10 
DOCKED: REMARK    2  A    between atoms: C_10  and  C_11 
DOCKED: REMARK    3  A    between atoms: C_11  and  C_12 
DOCKED: REMARK    4  A    between atoms: C_12  and  O_14 
DOCKED: REMARK    5  A    between atoms: C_17  and  C_20 
DOCKED: REMARK    6  A    between atoms: C_24  and  C_27 
DOCKED: REMARK    7  A    between atoms: C_31  and  C_34 
DOCKED: REMARK    8  A    between atoms: C_34  and  C_35 
DOCKED: REMARK    9  A    between atoms: C_35  and  C_36 
DOCKED: REMARK   10  A    between atoms: C_36  and  O_38 
DOCKED: REMARK   11  A    between atoms: FE_43  and  C_44 
DOCKED: REMARK   12  A    between atoms: C_44  and  O_45 
DOCKED: USER                              x       y       z     vdW  Elec       q    Type
DOCKED: USER                           _______ _______ _______ _____ _____    ______ ____
DOCKED: ROOT
DOCKED: ATOM      1  C   UNL d   1       1.314 -16.402 -11.330 -0.23 -0.01    +0.064 A 
DOCKED: ATOM      2  C   UNL d   1       5.426 -14.653  -9.704 -0.24 -0.02    +0.064 C 
DOCKED: ATOM      3  C   UNL d   1       4.494 -16.401  -5.356 -0.19 -0.02    +0.064 A 
DOCKED: ATOM      4  C   UNL d   1       0.475 -18.527  -7.086 -0.17 -0.05    +0.064 A 
DOCKED: ATOM      5  C   UNL d   1       2.489 -15.765 -11.196 -0.21 -0.02    +0.066 A 
DOCKED: ATOM      6  C   UNL d   1       3.145 -15.169 -12.291 -0.16 +0.01    -0.021 A 
DOCKED: ATOM      7  C   UNL d   1       4.348 -14.683 -11.818 -0.19 +0.01    -0.025 A 
DOCKED: ATOM      8  C   UNL d   1       4.368 -14.988 -10.452 -0.21 -0.02    +0.066 A 
DOCKED: ATOM      9  C   UNL d   1       5.448 -13.958 -12.608 -0.14 -0.01    +0.051 C 
DOCKED: ATOM     10  C   UNL d   1       5.524 -14.902  -8.287 -0.22 -0.03    +0.066 A 
DOCKED: ATOM     11  C   UNL d   1       6.543 -14.452  -7.420 -0.18 +0.01    -0.021 A 
DOCKED: ATOM     12  C   UNL d   1       6.244 -14.973  -6.158 -0.17 -0.00    +0.000 A 
DOCKED: ATOM     13  C   UNL d   1       5.062 -15.689  -6.345 -0.20 -0.03    +0.070 A 
DOCKED: ATOM     14  C   UNL d   1       7.664 -13.509  -7.774 -0.17 -0.05    +0.052 C 
DOCKED: ATOM     15  C   UNL d   1       3.309 -17.236  -5.387 -0.20 -0.02    +0.066 A 
DOCKED: ATOM     16  C   UNL d   1       2.856 -18.061  -4.367 -0.18 +0.01    -0.021 A 
DOCKED: ATOM     17  C   UNL d   1       1.699 -18.678  -4.862 -0.23 -0.00    +0.000 A 
DOCKED: ATOM     18  C   UNL d   1       1.526 -18.166  -6.144 -0.25 -0.04    +0.070 A 
DOCKED: ATOM     19  C   UNL d   1       3.515 -18.226  -3.015 -0.19 -0.01    +0.052 C 
DOCKED: ATOM     20  C   UNL d   1       0.336 -18.107  -8.367 -0.29 -0.03    +0.066 A 
DOCKED: ATOM     21  C   UNL d   1      -0.698 -18.553  -9.187 -0.29 +0.01    -0.025 A 
DOCKED: ATOM     22  C   UNL d   1      -0.498 -17.935 -10.408 -0.27 +0.00    -0.021 A 
DOCKED: ATOM     23  C   UNL d   1       0.664 -17.146 -10.275 -0.26 -0.01    +0.066 A 
DOCKED: ATOM     24  C   UNL d   1      -1.810 -19.536  -8.832 -0.33 -0.02    +0.051 C 
DOCKED: ATOM     25  N   UNL d   1       3.226 -15.653 -10.038 -0.14 +0.11    -0.248 N 
DOCKED: ATOM     26  N   UNL d   1       4.598 -15.599  -7.620 -0.15 +0.11    -0.248 N 
DOCKED: ATOM     27  N   UNL d   1       2.520 -17.333  -6.434 -0.09 +0.12    -0.248 N 
DOCKED: ATOM     28  N   UNL d   1       1.173 -17.249  -9.041 -0.08 +0.11    -0.248 N 
DOCKED: ATOM     29 FE   UNL d   1       2.849 -16.544  -8.130 -0.04 -0.00    +0.000 Fe
DOCKED: ENDROOT
DOCKED: BRANCH   6  30
DOCKED: ATOM     30  C   UNL d   1       2.664 -15.148 -13.737 -0.10 -0.01    +0.052 C 
DOCKED: BRANCH  30  31
DOCKED: ATOM     31  C   UNL d   1       3.101 -16.417 -14.468 -0.02 -0.01    +0.115 C 
DOCKED: BRANCH  31  32
DOCKED: ATOM     32  C   UNL d   1       2.701 -17.676 -13.729 -0.01 -0.00    +0.139 C 
DOCKED: ATOM     33  O   UNL d   1       1.697 -18.281 -14.073 +0.03 -0.02    -0.650 OA
DOCKED: BRANCH  32  34
DOCKED: ATOM     34  O   UNL d   1       3.448 -18.185 -12.722 +0.03 +0.05    -0.776 OA
DOCKED: ATOM     35  H   UNL d   1       3.106 -18.388 -11.840 +0.02 -0.02    +0.167 HD
DOCKED: ENDBRANCH  32  34
DOCKED: ENDBRANCH  31  32
DOCKED: ENDBRANCH  30  31
DOCKED: ENDBRANCH   6  30
DOCKED: BRANCH  29  36
DOCKED: ATOM     36  C   UNL d   1       3.943 -18.197  -8.812 -0.05 -0.05    +0.190 C 
DOCKED: BRANCH  36  37
DOCKED: ATOM     37  O   UNL d   1       3.994 -19.158  -9.827 +0.00 +0.06    -0.399 OA
DOCKED: ATOM     38  H   UNL d   1       3.321 -18.857 -10.499 +0.02 -0.03    +0.209 HD
DOCKED: ENDBRANCH  36  37
DOCKED: ENDBRANCH  29  36
DOCKED: BRANCH  22  39
DOCKED: ATOM     39  C   UNL d   1      -1.343 -18.147 -11.650 -0.27 +0.01    +0.052 C 
DOCKED: BRANCH  39  40
DOCKED: ATOM     40  C   UNL d   1      -0.967 -19.466 -12.344 -0.16 +0.03    +0.115 C 
DOCKED: BRANCH  40  41
DOCKED: ATOM     41  C   UNL d   1       0.169 -20.219 -11.683 -0.04 +0.01    +0.139 C 
DOCKED: ATOM     42  O   UNL d   1      -0.011 -21.371 -11.314 +0.04 -0.04    -0.650 OA
DOCKED: BRANCH  41  43
DOCKED: ATOM     43  O   UNL d   1       1.403 -19.682 -11.567 +0.06 +0.02    -0.776 OA
DOCKED: ATOM     44  H   UNL d   1       1.893 -19.336 -12.324 +0.02 -0.00    +0.167 HD
DOCKED: ENDBRANCH  41  43
DOCKED: ENDBRANCH  40  41
DOCKED: ENDBRANCH  39  40
DOCKED: ENDBRANCH  22  39
DOCKED: BRANCH  12  45
DOCKED: ATOM     45  C   UNL d   1       6.925 -14.860  -4.800 -0.26 -0.00    +0.004 C 
DOCKED: ATOM     46  C   UNL d   1       6.534 -14.254  -3.683 -0.38 -0.01    +0.012 C 
DOCKED: ENDBRANCH  12  45
DOCKED: BRANCH  17  47
DOCKED: ATOM     47  C   UNL d   1       0.825 -19.712  -4.231 -0.19 -0.00    +0.004 C 
DOCKED: ATOM     48  C   UNL d   1       0.636 -19.814  -2.914 -0.24 -0.00    +0.012 C 
DOCKED: ENDBRANCH  17  47
DOCKED: TORSDOF 12
DOCKED: TER
DOCKED: ENDMDL
________________________________________________________________________________


	BEGINNING GENETIC ALGORITHM DOCKING 26 of 100
Run: 26 Seed: 227395566 1387280858 [ Run 26 of 100 GA/GALS ]
Beginning LAMARCKIAN GENETIC ALGORITHM (LGA), with a maximum of 25000000 energy evaluations.

Final-Value: -10.029


	FINAL GENETIC ALGORITHM DOCKED STATE
	_______________________________________________


Detailed state:  trans -3.742 -10.885 -13.433 quatxyzw 0.095537 -0.350255 -0.903700 -0.226983 center 8.781 34.984 -0.736 ntor 12 21.2381 86.8858 -125.1825 -95.9544 -16.6106 90.5100 -88.3926 -36.9120 -30.8974 -56.8969 50.4446 18.1831
State:	 -3.742 -10.885 -13.433   0.098 -0.360 -0.928 -153.761     21.24   86.89 -125.18  -95.95  -16.61   90.51  -88.39  -36.91  -30.90  -56.90   50.44   18.18

DOCKED: MODEL       26
DOCKED: USER    Run = 26
DOCKED: USER    DPF = D:/Protein_go_brrr/autodock/final/mut_Y35F/heme_Co/dock.dpf
DOCKED: USER  
DOCKED: USER    Estimated Free Energy of Binding    =   -5.81 kcal/mol  [=(1)+(2)+(3)-(4)]
DOCKED: USER    Estimated Inhibition Constant, Ki   =   54.86 uM (micromolar)  [Temperature = 298.15 K]
DOCKED: USER    
DOCKED: USER    (1) Final Intermolecular Energy     =   -9.39 kcal/mol
DOCKED: USER        vdW + Hbond + desolv Energy     =   -8.54 kcal/mol
DOCKED: USER        Electrostatic Energy            =   -0.85 kcal/mol
DOCKED: USER    (2) Final Total Internal Energy     =   -0.64 kcal/mol
DOCKED: USER    (3) Torsional Free Energy           =   +3.58 kcal/mol
DOCKED: USER    (4) Unbound System's Energy  [=(2)] =   -0.64 kcal/mol
DOCKED: USER    
DOCKED: USER    
DOCKED: USER    NEWDPF move heme_Co_opt.pdbqt
DOCKED: USER    NEWDPF about 8.781000 34.984000 -0.736000
DOCKED: USER    NEWDPF tran0 -3.742387 -10.885209 -13.432833
DOCKED: USER    NEWDPF quaternion0 0.095537 -0.350255 -0.903700 -0.226983
DOCKED: USER    NEWDPF axisangle0 0.098097 -0.359642 -0.927920 -153.760987
DOCKED: USER    NEWDPF quat0 0.098097 -0.359642 -0.927920 -153.760987
DOCKED: USER    NEWDPF dihe0 21.24 86.89 -125.18 -95.95 -16.61 90.51 -88.39 -36.91 -30.90 -56.90 50.44 18.18 
DOCKED: USER  keepresnum = 1 
DOCKED: USER  
DOCKED: REMARK  12 active torsions:
DOCKED: REMARK  status: ('A' for Active; 'I' for Inactive)
DOCKED: REMARK    1  A    between atoms: C_6  and  C_10 
DOCKED: REMARK    2  A    between atoms: C_10  and  C_11 
DOCKED: REMARK    3  A    between atoms: C_11  and  C_12 
DOCKED: REMARK    4  A    between atoms: C_12  and  O_14 
DOCKED: REMARK    5  A    between atoms: C_17  and  C_20 
DOCKED: REMARK    6  A    between atoms: C_24  and  C_27 
DOCKED: REMARK    7  A    between atoms: C_31  and  C_34 
DOCKED: REMARK    8  A    between atoms: C_34  and  C_35 
DOCKED: REMARK    9  A    between atoms: C_35  and  C_36 
DOCKED: REMARK   10  A    between atoms: C_36  and  O_38 
DOCKED: REMARK   11  A    between atoms: FE_43  and  C_44 
DOCKED: REMARK   12  A    between atoms: C_44  and  O_45 
DOCKED: USER                              x       y       z     vdW  Elec       q    Type
DOCKED: USER                           _______ _______ _______ _____ _____    ______ ____
DOCKED: ROOT
DOCKED: ATOM      1  C   UNL d   1      -1.589 -10.788 -13.695 -0.22 -0.00    +0.064 A 
DOCKED: ATOM      2  C   UNL d   1      -4.847  -7.453 -12.761 -0.16 -0.00    +0.064 C 
DOCKED: ATOM      3  C   UNL d   1      -8.339 -10.682 -13.225 -0.14 -0.00    +0.064 A 
DOCKED: ATOM      4  C   UNL d   1      -5.009 -14.181 -13.799 -0.18 +0.00    +0.064 A 
DOCKED: ATOM      5  C   UNL d   1      -2.225  -9.633 -13.441 -0.20 -0.00    +0.066 A 
DOCKED: ATOM      6  C   UNL d   1      -1.527  -8.440 -13.168 -0.26 +0.00    -0.021 A 
DOCKED: ATOM      7  C   UNL d   1      -2.477  -7.481 -12.876 -0.20 -0.00    -0.025 A 
DOCKED: ATOM      8  C   UNL d   1      -3.713  -8.125 -12.999 -0.08 -0.00    +0.066 A 
DOCKED: ATOM      9  C   UNL d   1      -2.245  -6.011 -12.493 -0.27 +0.00    +0.051 C 
DOCKED: ATOM     10  C   UNL d   1      -6.165  -8.024 -12.888 -0.13 -0.01    +0.066 A 
DOCKED: ATOM     11  C   UNL d   1      -7.395  -7.338 -12.789 -0.14 +0.00    -0.021 A 
DOCKED: ATOM     12  C   UNL d   1      -8.396  -8.303 -12.932 -0.14 -0.00    +0.000 A 
DOCKED: ATOM     13  C   UNL d   1      -7.705  -9.500 -13.119 -0.12 -0.01    +0.070 A 
DOCKED: ATOM     14  C   UNL d   1      -7.577  -5.847 -12.664 -0.09 -0.00    +0.052 C 
DOCKED: ATOM     15  C   UNL d   1      -7.784 -12.013 -13.368 -0.13 -0.00    +0.066 A 
DOCKED: ATOM     16  C   UNL d   1      -8.489 -13.208 -13.326 -0.17 +0.00    -0.021 A 
DOCKED: ATOM     17  C   UNL d   1      -7.533 -14.220 -13.488 -0.22 +0.00    +0.000 A 
DOCKED: ATOM     18  C   UNL d   1      -6.318 -13.560 -13.635 -0.19 -0.00    +0.070 A 
DOCKED: ATOM     19  C   UNL d   1      -9.985 -13.337 -13.138 -0.18 +0.00    +0.052 C 
DOCKED: ATOM     20  C   UNL d   1      -3.805 -13.564 -13.857 -0.15 +0.00    +0.066 A 
DOCKED: ATOM     21  C   UNL d   1      -2.612 -14.272 -13.980 -0.14 -0.00    -0.025 A 
DOCKED: ATOM     22  C   UNL d   1      -1.610 -13.318 -13.982 -0.18 -0.00    -0.021 A 
DOCKED: ATOM     23  C   UNL d   1      -2.247 -12.066 -13.847 -0.19 -0.00    +0.066 A 
DOCKED: ATOM     24  C   UNL d   1      -2.432 -15.785 -14.071 -0.21 +0.01    +0.051 C 
DOCKED: ATOM     25  N   UNL d   1      -3.587  -9.457 -13.354 -0.09 +0.01    -0.248 N 
DOCKED: ATOM     26  N   UNL d   1      -6.358  -9.322 -13.148 -0.05 +0.02    -0.248 N 
DOCKED: ATOM     27  N   UNL d   1      -6.501 -12.249 -13.528 -0.07 +0.02    -0.248 N 
DOCKED: ATOM     28  N   UNL d   1      -3.575 -12.210 -13.768 -0.11 +0.01    -0.248 N 
DOCKED: ATOM     29 FE   UNL d   1      -5.128 -10.938 -13.447 -0.03 -0.00    +0.000 Fe
DOCKED: ENDROOT
DOCKED: BRANCH   6  30
DOCKED: ATOM     30  C   UNL d   1      -0.013  -8.264 -13.114 -0.21 +0.00    +0.052 C 
DOCKED: BRANCH  30  31
DOCKED: ATOM     31  C   UNL d   1       0.409  -7.004 -13.869 -0.20 +0.02    +0.115 C 
DOCKED: BRANCH  31  32
DOCKED: ATOM     32  C   UNL d   1       1.623  -6.342 -13.255 -0.25 +0.06    +0.139 C 
DOCKED: ATOM     33  O   UNL d   1       2.468  -5.842 -13.982 -0.49 -0.51    -0.650 OA
DOCKED: BRANCH  32  34
DOCKED: ATOM     34  O   UNL d   1       1.784  -6.240 -11.915 -0.01 -0.35    -0.776 OA
DOCKED: ATOM     35  H   UNL d   1       1.294  -6.765 -11.267 -0.15 +0.01    +0.167 HD
DOCKED: ENDBRANCH  32  34
DOCKED: ENDBRANCH  31  32
DOCKED: ENDBRANCH  30  31
DOCKED: ENDBRANCH   6  30
DOCKED: BRANCH  29  36
DOCKED: ATOM     36  C   UNL d   1      -4.899 -11.145 -11.374 -0.35 -0.04    +0.190 C 
DOCKED: BRANCH  36  37
DOCKED: ATOM     37  O   UNL d   1      -3.989 -11.538 -10.387 -0.19 +0.10    -0.399 OA
DOCKED: ATOM     38  H   UNL d   1      -3.385 -12.190 -10.840 -0.41 -0.10    +0.209 HD
DOCKED: ENDBRANCH  36  37
DOCKED: ENDBRANCH  29  36
DOCKED: BRANCH  22  39
DOCKED: ATOM     39  C   UNL d   1      -0.122 -13.605 -14.044 -0.20 -0.00    +0.052 C 
DOCKED: BRANCH  39  40
DOCKED: ATOM     40  C   UNL d   1       0.503 -12.964 -15.294 -0.08 -0.00    +0.115 C 
DOCKED: BRANCH  40  41
DOCKED: ATOM     41  C   UNL d   1       1.551 -11.911 -14.999 -0.08 +0.00    +0.139 C 
DOCKED: ATOM     42  O   UNL d   1       2.735 -12.203 -15.093 -0.03 +0.02    -0.650 OA
DOCKED: BRANCH  41  43
DOCKED: ATOM     43  O   UNL d   1       1.214 -10.633 -14.718 -0.52 -0.15    -0.776 OA
DOCKED: ATOM     44  H   UNL d   1       1.498  -9.889 -15.265 +0.03 +0.03    +0.167 HD
DOCKED: ENDBRANCH  41  43
DOCKED: ENDBRANCH  40  41
DOCKED: ENDBRANCH  39  40
DOCKED: ENDBRANCH  22  39
DOCKED: BRANCH  12  45
DOCKED: ATOM     45  C   UNL d   1      -9.917  -8.228 -12.933 -0.19 -0.00    +0.004 C 
DOCKED: ATOM     46  C   UNL d   1     -10.801  -8.572 -12.000 -0.22 -0.00    +0.012 C 
DOCKED: ENDBRANCH  12  45
DOCKED: BRANCH  17  47
DOCKED: ATOM     47  C   UNL d   1      -7.701 -15.704 -13.462 -0.26 +0.00    +0.004 C 
DOCKED: ATOM     48  C   UNL d   1      -8.529 -16.337 -12.628 -0.29 +0.00    +0.012 C 
DOCKED: ENDBRANCH  17  47
DOCKED: TORSDOF 12
DOCKED: TER
DOCKED: ENDMDL
________________________________________________________________________________


	BEGINNING GENETIC ALGORITHM DOCKING 27 of 100
Run: 27 Seed: 121005726 2027616114 [ Run 27 of 100 GA/GALS ]
Beginning LAMARCKIAN GENETIC ALGORITHM (LGA), with a maximum of 25000000 energy evaluations.

Final-Value: -10.240


	FINAL GENETIC ALGORITHM DOCKED STATE
	_______________________________________________


Detailed state:  trans 4.252 5.736 -16.076 quatxyzw -0.548320 -0.650733 0.305440 -0.427315 center 8.781 34.984 -0.736 ntor 12 44.0790 131.7620 -150.3144 84.4682 88.8762 97.1927 28.8546 117.3567 172.4153 144.3145 -170.4499 168.2925
State:	  4.252   5.736 -16.076  -0.606 -0.720  0.338 -129.405     44.08  131.76 -150.31   84.47   88.88   97.19   28.85  117.36  172.42  144.31 -170.45  168.29

DOCKED: MODEL       27
DOCKED: USER    Run = 27
DOCKED: USER    DPF = D:/Protein_go_brrr/autodock/final/mut_Y35F/heme_Co/dock.dpf
DOCKED: USER  
DOCKED: USER    Estimated Free Energy of Binding    =   -2.60 kcal/mol  [=(1)+(2)+(3)-(4)]
DOCKED: USER    Estimated Inhibition Constant, Ki   =   12.35 mM (millimolar)  [Temperature = 298.15 K]
DOCKED: USER    
DOCKED: USER    (1) Final Intermolecular Energy     =   -6.18 kcal/mol
DOCKED: USER        vdW + Hbond + desolv Energy     =   -6.35 kcal/mol
DOCKED: USER        Electrostatic Energy            =   +0.17 kcal/mol
DOCKED: USER    (2) Final Total Internal Energy     =   -4.06 kcal/mol
DOCKED: USER    (3) Torsional Free Energy           =   +3.58 kcal/mol
DOCKED: USER    (4) Unbound System's Energy  [=(2)] =   -4.06 kcal/mol
DOCKED: USER    
DOCKED: USER    
DOCKED: USER    NEWDPF move heme_Co_opt.pdbqt
DOCKED: USER    NEWDPF about 8.781000 34.984000 -0.736000
DOCKED: USER    NEWDPF tran0 4.251751 5.736457 -16.075527
DOCKED: USER    NEWDPF quaternion0 -0.548320 -0.650733 0.305440 -0.427315
DOCKED: USER    NEWDPF axisangle0 -0.606480 -0.719756 0.337837 -129.405402
DOCKED: USER    NEWDPF quat0 -0.606480 -0.719756 0.337837 -129.405402
DOCKED: USER    NEWDPF dihe0 44.08 131.76 -150.31 84.47 88.88 97.19 28.85 117.36 172.42 144.31 -170.45 168.29 
DOCKED: USER  keepresnum = 1 
DOCKED: USER  
DOCKED: REMARK  12 active torsions:
DOCKED: REMARK  status: ('A' for Active; 'I' for Inactive)
DOCKED: REMARK    1  A    between atoms: C_6  and  C_10 
DOCKED: REMARK    2  A    between atoms: C_10  and  C_11 
DOCKED: REMARK    3  A    between atoms: C_11  and  C_12 
DOCKED: REMARK    4  A    between atoms: C_12  and  O_14 
DOCKED: REMARK    5  A    between atoms: C_17  and  C_20 
DOCKED: REMARK    6  A    between atoms: C_24  and  C_27 
DOCKED: REMARK    7  A    between atoms: C_31  and  C_34 
DOCKED: REMARK    8  A    between atoms: C_34  and  C_35 
DOCKED: REMARK    9  A    between atoms: C_35  and  C_36 
DOCKED: REMARK   10  A    between atoms: C_36  and  O_38 
DOCKED: REMARK   11  A    between atoms: FE_43  and  C_44 
DOCKED: REMARK   12  A    between atoms: C_44  and  O_45 
DOCKED: USER                              x       y       z     vdW  Elec       q    Type
DOCKED: USER                           _______ _______ _______ _____ _____    ______ ____
DOCKED: ROOT
DOCKED: ATOM      1  C   UNL d   1       5.300   3.896 -16.555 -0.20 -0.00    +0.064 A 
DOCKED: ATOM      2  C   UNL d   1       0.726   4.824 -15.646 -0.14 -0.00    +0.064 C 
DOCKED: ATOM      3  C   UNL d   1       1.807   9.370 -14.650 -0.27 -0.01    +0.064 A 
DOCKED: ATOM      4  C   UNL d   1       6.422   8.543 -15.946 -0.16 -0.01    +0.064 A 
DOCKED: ATOM      5  C   UNL d   1       3.976   3.807 -16.345 -0.18 -0.00    +0.066 A 
DOCKED: ATOM      6  C   UNL d   1       3.256   2.624 -16.603 -0.12 +0.00    -0.021 A 
DOCKED: ATOM      7  C   UNL d   1       1.926   2.906 -16.359 -0.11 +0.00    -0.025 A 
DOCKED: ATOM      8  C   UNL d   1       1.893   4.242 -15.948 -0.13 -0.00    +0.066 A 
DOCKED: ATOM      9  C   UNL d   1       0.722   1.964 -16.505 -0.07 +0.00    +0.051 C 
DOCKED: ATOM     10  C   UNL d   1       0.596   6.185 -15.189 -0.21 -0.01    +0.066 A 
DOCKED: ATOM     11  C   UNL d   1      -0.581   6.811 -14.724 -0.19 +0.00    -0.021 A 
DOCKED: ATOM     12  C   UNL d   1      -0.236   8.134 -14.437 -0.22 -0.00    +0.000 A 
DOCKED: ATOM     13  C   UNL d   1       1.124   8.215 -14.735 -0.28 -0.01    +0.070 A 
DOCKED: ATOM     14  C   UNL d   1      -1.912   6.144 -14.487 -0.14 -0.00    +0.052 C 
DOCKED: ATOM     15  C   UNL d   1       3.195   9.644 -14.968 -0.28 -0.01    +0.066 A 
DOCKED: ATOM     16  C   UNL d   1       3.802  10.892 -14.997 -0.24 +0.00    -0.021 A 
DOCKED: ATOM     17  C   UNL d   1       5.133  10.658 -15.373 -0.22 -0.00    +0.000 A 
DOCKED: ATOM     18  C   UNL d   1       5.237   9.280 -15.527 -0.14 -0.01    +0.070 A 
DOCKED: ATOM     19  C   UNL d   1       3.122  12.205 -14.682 -0.17 -0.00    +0.052 C 
DOCKED: ATOM     20  C   UNL d   1       6.524   7.213 -16.185 -0.23 -0.01    +0.066 A 
DOCKED: ATOM     21  C   UNL d   1       7.710   6.625 -16.620 -0.18 +0.00    -0.025 A 
DOCKED: ATOM     22  C   UNL d   1       7.425   5.281 -16.776 -0.19 +0.00    -0.021 A 
DOCKED: ATOM     23  C   UNL d   1       6.065   5.117 -16.438 -0.23 -0.01    +0.066 A 
DOCKED: ATOM     24  C   UNL d   1       9.046   7.313 -16.892 -0.14 -0.01    +0.051 C 
DOCKED: ATOM     25  N   UNL d   1       3.150   4.824 -15.924 -0.16 +0.02    -0.248 N 
DOCKED: ATOM     26  N   UNL d   1       1.638   7.022 -15.136 -0.17 +0.05    -0.248 N 
DOCKED: ATOM     27  N   UNL d   1       4.057   8.711 -15.307 -0.18 +0.06    -0.248 N 
DOCKED: ATOM     28  N   UNL d   1       5.515   6.284 -16.082 -0.20 +0.05    -0.248 N 
DOCKED: ATOM     29 FE   UNL d   1       3.634   6.882 -15.597 -0.06 -0.00    +0.000 Fe
DOCKED: ENDROOT
DOCKED: BRANCH   6  30
DOCKED: ATOM     30  C   UNL d   1       3.823   1.313 -17.138 -0.07 +0.00    +0.052 C 
DOCKED: BRANCH  30  31
DOCKED: ATOM     31  C   UNL d   1       3.867   1.331 -18.666 -0.02 -0.00    +0.115 C 
DOCKED: BRANCH  31  32
DOCKED: ATOM     32  C   UNL d   1       3.139   2.522 -19.250 -0.01 -0.00    +0.139 C 
DOCKED: ATOM     33  O   UNL d   1       2.011   2.377 -19.697 +0.00 +0.01    -0.650 OA
DOCKED: BRANCH  32  34
DOCKED: ATOM     34  O   UNL d   1       3.679   3.763 -19.252 +0.02 +0.03    -0.776 OA
DOCKED: ATOM     35  H   UNL d   1       4.611   3.950 -19.432 +0.01 -0.01    +0.167 HD
DOCKED: ENDBRANCH  32  34
DOCKED: ENDBRANCH  31  32
DOCKED: ENDBRANCH  30  31
DOCKED: ENDBRANCH   6  30
DOCKED: BRANCH  29  36
DOCKED: ATOM     36  C   UNL d   1       3.185   7.192 -17.622 -0.06 -0.02    +0.190 C 
DOCKED: BRANCH  36  37
DOCKED: ATOM     37  O   UNL d   1       3.529   6.783 -18.914 -0.00 +0.02    -0.399 OA
DOCKED: ATOM     38  H   UNL d   1       4.000   5.912 -18.791 +0.02 -0.01    +0.209 HD
DOCKED: ENDBRANCH  36  37
DOCKED: ENDBRANCH  29  36
DOCKED: BRANCH  22  39
DOCKED: ATOM     39  C   UNL d   1       8.393   4.229 -17.285 -0.16 -0.00    +0.052 C 
DOCKED: BRANCH  39  40
DOCKED: ATOM     40  C   UNL d   1       8.299   4.101 -18.814 -0.05 -0.01    +0.115 C 
DOCKED: BRANCH  40  41
DOCKED: ATOM     41  C   UNL d   1       6.887   4.147 -19.360 -0.02 -0.01    +0.139 C 
DOCKED: ATOM     42  O   UNL d   1       6.356   3.111 -19.733 +0.01 +0.03    -0.650 OA
DOCKED: BRANCH  41  43
DOCKED: ATOM     43  O   UNL d   1       6.165   5.289 -19.365 +0.02 +0.05    -0.776 OA
DOCKED: ATOM     44  H   UNL d   1       5.211   5.301 -19.209 +0.01 -0.01    +0.167 HD
DOCKED: ENDBRANCH  41  43
DOCKED: ENDBRANCH  40  41
DOCKED: ENDBRANCH  39  40
DOCKED: ENDBRANCH  22  39
DOCKED: BRANCH  12  45
DOCKED: ATOM     45  C   UNL d   1      -1.026   9.320 -13.900 -0.23 -0.00    +0.004 C 
DOCKED: ATOM     46  C   UNL d   1      -1.445   9.596 -12.667 -0.25 -0.00    +0.012 C 
DOCKED: ENDBRANCH  12  45
DOCKED: BRANCH  17  47
DOCKED: ATOM     47  C   UNL d   1       6.236  11.631 -15.628 -0.18 -0.00    +0.004 C 
DOCKED: ATOM     48  C   UNL d   1       6.788  12.387 -14.675 -0.21 +0.00    +0.012 C 
DOCKED: ENDBRANCH  17  47
DOCKED: TORSDOF 12
DOCKED: TER
DOCKED: ENDMDL
________________________________________________________________________________


	BEGINNING GENETIC ALGORITHM DOCKING 28 of 100
Run: 28 Seed: 533273121 1192038022 [ Run 28 of 100 GA/GALS ]
Beginning LAMARCKIAN GENETIC ALGORITHM (LGA), with a maximum of 25000000 energy evaluations.

Final-Value: -10.148


	FINAL GENETIC ALGORITHM DOCKED STATE
	_______________________________________________


Detailed state:  trans 11.858 11.787 7.610 quatxyzw -0.587276 -0.627436 -0.134728 0.493233 center 8.781 34.984 -0.736 ntor 12 -96.5141 103.9386 73.2501 151.6236 137.4229 143.5935 -20.6298 136.3589 -105.5151 -45.7925 -9.6530 -178.3056
State:	 11.858  11.787   7.610  -0.675 -0.721 -0.155 120.893    -96.51  103.94   73.25  151.62  137.42  143.59  -20.63  136.36 -105.52  -45.79   -9.65 -178.31

DOCKED: MODEL       28
DOCKED: USER    Run = 28
DOCKED: USER    DPF = D:/Protein_go_brrr/autodock/final/mut_Y35F/heme_Co/dock.dpf
DOCKED: USER  
DOCKED: USER    Estimated Free Energy of Binding    =   -5.70 kcal/mol  [=(1)+(2)+(3)-(4)]
DOCKED: USER    Estimated Inhibition Constant, Ki   =   66.37 uM (micromolar)  [Temperature = 298.15 K]
DOCKED: USER    
DOCKED: USER    (1) Final Intermolecular Energy     =   -9.28 kcal/mol
DOCKED: USER        vdW + Hbond + desolv Energy     =   -6.59 kcal/mol
DOCKED: USER        Electrostatic Energy            =   -2.69 kcal/mol
DOCKED: USER    (2) Final Total Internal Energy     =   -0.87 kcal/mol
DOCKED: USER    (3) Torsional Free Energy           =   +3.58 kcal/mol
DOCKED: USER    (4) Unbound System's Energy  [=(2)] =   -0.87 kcal/mol
DOCKED: USER    
DOCKED: USER    
DOCKED: USER    NEWDPF move heme_Co_opt.pdbqt
DOCKED: USER    NEWDPF about 8.781000 34.984000 -0.736000
DOCKED: USER    NEWDPF tran0 11.858209 11.786814 7.609851
DOCKED: USER    NEWDPF quaternion0 -0.587276 -0.627436 -0.134728 0.493233
DOCKED: USER    NEWDPF axisangle0 -0.675110 -0.721276 -0.154878 120.893367
DOCKED: USER    NEWDPF quat0 -0.675110 -0.721276 -0.154878 120.893367
DOCKED: USER    NEWDPF dihe0 -96.51 103.94 73.25 151.62 137.42 143.59 -20.63 136.36 -105.52 -45.79 -9.65 -178.31 
DOCKED: USER  keepresnum = 1 
DOCKED: USER  
DOCKED: REMARK  12 active torsions:
DOCKED: REMARK  status: ('A' for Active; 'I' for Inactive)
DOCKED: REMARK    1  A    between atoms: C_6  and  C_10 
DOCKED: REMARK    2  A    between atoms: C_10  and  C_11 
DOCKED: REMARK    3  A    between atoms: C_11  and  C_12 
DOCKED: REMARK    4  A    between atoms: C_12  and  O_14 
DOCKED: REMARK    5  A    between atoms: C_17  and  C_20 
DOCKED: REMARK    6  A    between atoms: C_24  and  C_27 
DOCKED: REMARK    7  A    between atoms: C_31  and  C_34 
DOCKED: REMARK    8  A    between atoms: C_34  and  C_35 
DOCKED: REMARK    9  A    between atoms: C_35  and  C_36 
DOCKED: REMARK   10  A    between atoms: C_36  and  O_38 
DOCKED: REMARK   11  A    between atoms: FE_43  and  C_44 
DOCKED: REMARK   12  A    between atoms: C_44  and  O_45 
DOCKED: USER                              x       y       z     vdW  Elec       q    Type
DOCKED: USER                           _______ _______ _______ _____ _____    ______ ____
DOCKED: ROOT
DOCKED: ATOM      1  C   UNL d   1      11.158  10.589   9.280 -0.15 +0.02    +0.064 A 
DOCKED: ATOM      2  C   UNL d   1      12.676   9.423   4.927 -0.18 +0.01    +0.064 C 
DOCKED: ATOM      3  C   UNL d   1      13.002  14.046   3.762 -0.10 -0.01    +0.064 A 
DOCKED: ATOM      4  C   UNL d   1      11.824  15.264   8.322 -0.14 +0.00    +0.064 A 
DOCKED: ATOM      5  C   UNL d   1      11.514   9.931   8.165 -0.11 +0.02    +0.066 A 
DOCKED: ATOM      6  C   UNL d   1      11.615   8.526   8.126 -0.09 -0.01    -0.021 A 
DOCKED: ATOM      7  C   UNL d   1      12.077   8.195   6.868 -0.10 -0.01    -0.025 A 
DOCKED: ATOM      8  C   UNL d   1      12.223   9.409   6.188 -0.09 +0.01    +0.066 A 
DOCKED: ATOM      9  C   UNL d   1      12.376   6.794   6.312 -0.18 +0.02    +0.051 C 
DOCKED: ATOM     10  C   UNL d   1      12.834  10.621   4.140 -0.20 +0.00    +0.066 A 
DOCKED: ATOM     11  C   UNL d   1      13.169  10.692   2.770 -0.35 +0.00    -0.021 A 
DOCKED: ATOM     12  C   UNL d   1      13.253  12.051   2.456 -0.36 -0.00    +0.000 A 
DOCKED: ATOM     13  C   UNL d   1      12.952  12.706   3.650 -0.17 -0.01    +0.070 A 
DOCKED: ATOM     14  C   UNL d   1      13.300   9.527   1.823 -0.41 -0.00    +0.052 C 
DOCKED: ATOM     15  C   UNL d   1      12.773  14.880   4.925 -0.06 -0.01    +0.066 A 
DOCKED: ATOM     16  C   UNL d   1      12.983  16.249   5.010 -0.04 +0.00    -0.021 A 
DOCKED: ATOM     17  C   UNL d   1      12.647  16.605   6.324 -0.06 -0.00    +0.000 A 
DOCKED: ATOM     18  C   UNL d   1      12.241  15.423   6.934 -0.10 -0.00    +0.070 A 
DOCKED: ATOM     19  C   UNL d   1      13.476  17.132   3.885 -0.03 -0.01    +0.052 C 
DOCKED: ATOM     20  C   UNL d   1      11.508  14.113   8.961 -0.18 +0.01    +0.066 A 
DOCKED: ATOM     21  C   UNL d   1      11.157  14.083  10.309 -0.22 -0.01    -0.025 A 
DOCKED: ATOM     22  C   UNL d   1      10.931  12.751  10.606 -0.22 -0.01    -0.021 A 
DOCKED: ATOM     23  C   UNL d   1      11.169  12.028   9.418 -0.18 +0.01    +0.066 A 
DOCKED: ATOM     24  C   UNL d   1      11.060  15.262  11.273 -0.07 +0.02    +0.051 C 
DOCKED: ATOM     25  N   UNL d   1      11.876  10.500   6.965 -0.06 -0.04    -0.248 N 
DOCKED: ATOM     26  N   UNL d   1      12.643  11.841   4.653 -0.08 +0.00    -0.248 N 
DOCKED: ATOM     27  N   UNL d   1      12.358  14.412   6.081 -0.05 +0.01    -0.248 N 
DOCKED: ATOM     28  N   UNL d   1      11.521  12.848   8.421 -0.06 -0.03    -0.248 N 
DOCKED: ATOM     29 FE   UNL d   1      12.130  12.573   6.500 -0.03 +0.00    +0.000 Fe
DOCKED: ENDROOT
DOCKED: BRANCH   6  30
DOCKED: ATOM     30  C   UNL d   1      11.354   7.563   9.280 -0.12 +0.04    +0.052 C 
DOCKED: BRANCH  30  31
DOCKED: ATOM     31  C   UNL d   1       9.854   7.431   9.540 -0.15 +0.10    +0.115 C 
DOCKED: BRANCH  31  32
DOCKED: ATOM     32  C   UNL d   1       9.149   6.633   8.465 -0.11 +0.15    +0.139 C 
DOCKED: ATOM     33  O   UNL d   1       7.979   6.875   8.206 -0.02 -0.38    -0.650 OA
DOCKED: BRANCH  32  34
DOCKED: ATOM     34  O   UNL d   1       9.787   5.685   7.740 -0.23 -1.46    -0.776 OA
DOCKED: ATOM     35  H   UNL d   1      10.118   5.818   6.842 +0.06 +0.17    +0.167 HD
DOCKED: ENDBRANCH  32  34
DOCKED: ENDBRANCH  31  32
DOCKED: ENDBRANCH  30  31
DOCKED: ENDBRANCH   6  30
DOCKED: BRANCH  29  36
DOCKED: ATOM     36  C   UNL d   1      14.116  12.356   7.136 -0.03 +0.02    +0.190 C 
DOCKED: BRANCH  36  37
DOCKED: ATOM     37  O   UNL d   1      14.986  11.481   7.793 +0.00 -0.05    -0.399 OA
DOCKED: ATOM     38  H   UNL d   1      14.398  10.764   8.162 +0.01 +0.03    +0.209 HD
DOCKED: ENDBRANCH  36  37
DOCKED: ENDBRANCH  29  36
DOCKED: BRANCH  22  39
DOCKED: ATOM     39  C   UNL d   1      10.570  12.204  11.974 -0.20 +0.04    +0.052 C 
DOCKED: BRANCH  39  40
DOCKED: ATOM     40  C   UNL d   1      11.810  12.148  12.881 -0.11 +0.07    +0.115 C 
DOCKED: BRANCH  40  41
DOCKED: ATOM     41  C   UNL d   1      11.626  12.805  14.233 +0.02 +0.16    +0.139 C 
DOCKED: ATOM     42  O   UNL d   1      11.811  14.009  14.343 -0.57 -0.84    -0.650 OA
DOCKED: BRANCH  41  43
DOCKED: ATOM     43  O   UNL d   1      11.177  12.114  15.304 -0.02 -0.81    -0.776 OA
DOCKED: ATOM     44  H   UNL d   1      11.750  11.539  15.827 +0.01 +0.10    +0.167 HD
DOCKED: ENDBRANCH  41  43
DOCKED: ENDBRANCH  40  41
DOCKED: ENDBRANCH  39  40
DOCKED: ENDBRANCH  22  39
DOCKED: BRANCH  12  45
DOCKED: ATOM     45  C   UNL d   1      13.564  12.801   1.168 -0.46 -0.00    +0.004 C 
DOCKED: ATOM     46  C   UNL d   1      13.063  13.935   0.684 -0.45 -0.00    +0.012 C 
DOCKED: ENDBRANCH  12  45
DOCKED: BRANCH  17  47
DOCKED: ATOM     47  C   UNL d   1      12.736  17.931   7.005 -0.05 -0.00    +0.004 C 
DOCKED: ATOM     48  C   UNL d   1      11.673  18.602   7.455 -0.09 -0.00    +0.012 C 
DOCKED: ENDBRANCH  17  47
DOCKED: TORSDOF 12
DOCKED: TER
DOCKED: ENDMDL
________________________________________________________________________________


	BEGINNING GENETIC ALGORITHM DOCKING 29 of 100
Run: 29 Seed: 952620117 1814713216 [ Run 29 of 100 GA/GALS ]
Beginning LAMARCKIAN GENETIC ALGORITHM (LGA), with a maximum of 25000000 energy evaluations.

Final-Value: -9.549


	FINAL GENETIC ALGORITHM DOCKED STATE
	_______________________________________________


Detailed state:  trans -11.301 -18.364 -7.392 quatxyzw -0.360623 0.187092 -0.824627 0.393621 center 8.781 34.984 -0.736 ntor 12 97.2122 115.4684 106.5004 22.1539 -87.6980 116.3540 -85.8556 -148.5814 48.8181 -57.8625 20.9295 27.6177
State:	-11.301 -18.364  -7.392  -0.392  0.204 -0.897 133.640     97.21  115.47  106.50   22.15  -87.70  116.35  -85.86 -148.58   48.82  -57.86   20.93   27.62

DOCKED: MODEL       29
DOCKED: USER    Run = 29
DOCKED: USER    DPF = D:/Protein_go_brrr/autodock/final/mut_Y35F/heme_Co/dock.dpf
DOCKED: USER  
DOCKED: USER    Estimated Free Energy of Binding    =   -3.23 kcal/mol  [=(1)+(2)+(3)-(4)]
DOCKED: USER    Estimated Inhibition Constant, Ki   =    4.32 mM (millimolar)  [Temperature = 298.15 K]
DOCKED: USER    
DOCKED: USER    (1) Final Intermolecular Energy     =   -6.81 kcal/mol
DOCKED: USER        vdW + Hbond + desolv Energy     =   -6.20 kcal/mol
DOCKED: USER        Electrostatic Energy            =   -0.60 kcal/mol
DOCKED: USER    (2) Final Total Internal Energy     =   -2.74 kcal/mol
DOCKED: USER    (3) Torsional Free Energy           =   +3.58 kcal/mol
DOCKED: USER    (4) Unbound System's Energy  [=(2)] =   -2.74 kcal/mol
DOCKED: USER    
DOCKED: USER    
DOCKED: USER    NEWDPF move heme_Co_opt.pdbqt
DOCKED: USER    NEWDPF about 8.781000 34.984000 -0.736000
DOCKED: USER    NEWDPF tran0 -11.300610 -18.364027 -7.391976
DOCKED: USER    NEWDPF quaternion0 -0.360623 0.187092 -0.824627 0.393621
DOCKED: USER    NEWDPF axisangle0 -0.392292 0.203521 -0.897043 133.640053
DOCKED: USER    NEWDPF quat0 -0.392292 0.203521 -0.897043 133.640053
DOCKED: USER    NEWDPF dihe0 97.21 115.47 106.50 22.15 -87.70 116.35 -85.86 -148.58 48.82 -57.86 20.93 27.62 
DOCKED: USER  keepresnum = 1 
DOCKED: USER  
DOCKED: REMARK  12 active torsions:
DOCKED: REMARK  status: ('A' for Active; 'I' for Inactive)
DOCKED: REMARK    1  A    between atoms: C_6  and  C_10 
DOCKED: REMARK    2  A    between atoms: C_10  and  C_11 
DOCKED: REMARK    3  A    between atoms: C_11  and  C_12 
DOCKED: REMARK    4  A    between atoms: C_12  and  O_14 
DOCKED: REMARK    5  A    between atoms: C_17  and  C_20 
DOCKED: REMARK    6  A    between atoms: C_24  and  C_27 
DOCKED: REMARK    7  A    between atoms: C_31  and  C_34 
DOCKED: REMARK    8  A    between atoms: C_34  and  C_35 
DOCKED: REMARK    9  A    between atoms: C_35  and  C_36 
DOCKED: REMARK   10  A    between atoms: C_36  and  O_38 
DOCKED: REMARK   11  A    between atoms: FE_43  and  C_44 
DOCKED: REMARK   12  A    between atoms: C_44  and  O_45 
DOCKED: USER                              x       y       z     vdW  Elec       q    Type
DOCKED: USER                           _______ _______ _______ _____ _____    ______ ____
DOCKED: ROOT
DOCKED: ATOM      1  C   UNL d   1     -11.240 -19.165  -9.410 -0.08 +0.00    +0.064 A 
DOCKED: ATOM      2  C   UNL d   1      -8.024 -19.081  -5.908 -0.25 -0.00    +0.064 C 
DOCKED: ATOM      3  C   UNL d   1     -10.959 -16.430  -3.226 -0.08 +0.00    +0.064 A 
DOCKED: ATOM      4  C   UNL d   1     -14.409 -16.826  -6.632 -0.17 +0.01    +0.064 A 
DOCKED: ATOM      5  C   UNL d   1     -10.132 -19.306  -8.664 -0.10 +0.00    +0.066 A 
DOCKED: ATOM      6  C   UNL d   1      -9.044 -20.096  -9.085 -0.17 -0.00    -0.021 A 
DOCKED: ATOM      7  C   UNL d   1      -8.123 -20.086  -8.055 -0.22 +0.00    -0.025 A 
DOCKED: ATOM      8  C   UNL d   1      -8.681 -19.279  -7.058 -0.22 -0.00    +0.066 A 
DOCKED: ATOM      9  C   UNL d   1      -6.767 -20.806  -7.997 -0.24 -0.00    +0.051 C 
DOCKED: ATOM     10  C   UNL d   1      -8.507 -18.246  -4.836 -0.24 -0.01    +0.066 A 
DOCKED: ATOM     11  C   UNL d   1      -7.805 -17.885  -3.666 -0.26 +0.00    -0.021 A 
DOCKED: ATOM     12  C   UNL d   1      -8.682 -17.109  -2.903 -0.25 -0.00    +0.000 A 
DOCKED: ATOM     13  C   UNL d   1      -9.847 -17.043  -3.669 -0.20 -0.00    +0.070 A 
DOCKED: ATOM     14  C   UNL d   1      -6.361 -18.193  -3.361 -0.27 -0.01    +0.052 C 
DOCKED: ATOM     15  C   UNL d   1     -12.258 -16.312  -3.858 -0.22 +0.01    +0.066 A 
DOCKED: ATOM     16  C   UNL d   1     -13.409 -15.791  -3.284 -0.23 -0.00    -0.021 A 
DOCKED: ATOM     17  C   UNL d   1     -14.407 -15.905  -4.262 -0.19 +0.00    +0.000 A 
DOCKED: ATOM     18  C   UNL d   1     -13.780 -16.474  -5.366 -0.19 +0.01    +0.070 A 
DOCKED: ATOM     19  C   UNL d   1     -13.513 -15.228  -1.884 -0.27 -0.00    +0.052 C 
DOCKED: ATOM     20  C   UNL d   1     -13.840 -17.458  -7.687 -0.13 +0.01    +0.066 A 
DOCKED: ATOM     21  C   UNL d   1     -14.558 -17.776  -8.838 -0.07 -0.00    -0.025 A 
DOCKED: ATOM     22  C   UNL d   1     -13.663 -18.425  -9.669 -0.06 -0.00    -0.021 A 
DOCKED: ATOM     23  C   UNL d   1     -12.437 -18.482  -8.972 -0.06 +0.01    +0.066 A 
DOCKED: ATOM     24  C   UNL d   1     -16.030 -17.493  -9.126 -0.05 +0.00    +0.051 C 
DOCKED: ATOM     25  N   UNL d   1      -9.922 -18.777  -7.411 -0.05 +0.00    -0.248 N 
DOCKED: ATOM     26  N   UNL d   1      -9.720 -17.683  -4.862 -0.16 +0.01    -0.248 N 
DOCKED: ATOM     27  N   UNL d   1     -12.509 -16.730  -5.079 -0.10 -0.05    -0.248 N 
DOCKED: ATOM     28  N   UNL d   1     -12.541 -17.900  -7.772 -0.04 -0.03    -0.248 N 
DOCKED: ATOM     29 FE   UNL d   1     -11.294 -17.693  -6.178 -0.05 +0.00    +0.000 Fe
DOCKED: ENDROOT
DOCKED: BRANCH   6  30
DOCKED: ATOM     30  C   UNL d   1      -8.942 -20.885 -10.385 -0.13 +0.01    +0.052 C 
DOCKED: BRANCH  30  31
DOCKED: ATOM     31  C   UNL d   1      -8.006 -20.183 -11.368 -0.12 +0.03    +0.115 C 
DOCKED: BRANCH  31  32
DOCKED: ATOM     32  C   UNL d   1      -8.595 -20.088 -12.759 -0.15 +0.05    +0.139 C 
DOCKED: ATOM     33  O   UNL d   1      -8.370 -19.099 -13.440 -0.02 -0.30    -0.650 OA
DOCKED: BRANCH  32  34
DOCKED: ATOM     34  O   UNL d   1      -9.330 -21.089 -13.297 +0.01 -0.27    -0.776 OA
DOCKED: ATOM     35  H   UNL d   1     -10.294 -21.144 -13.246 +0.02 +0.04    +0.167 HD
DOCKED: ENDBRANCH  32  34
DOCKED: ENDBRANCH  31  32
DOCKED: ENDBRANCH  30  31
DOCKED: ENDBRANCH   6  30
DOCKED: BRANCH  29  36
DOCKED: ATOM     36  C   UNL d   1     -11.911 -19.550  -5.425 -0.04 +0.00    +0.190 C 
DOCKED: BRANCH  36  37
DOCKED: ATOM     37  O   UNL d   1     -12.166 -20.874  -5.797 -0.00 -0.00    -0.399 OA
DOCKED: ATOM     38  H   UNL d   1     -11.941 -20.915  -6.768 +0.01 +0.00    +0.209 HD
DOCKED: ENDBRANCH  36  37
DOCKED: ENDBRANCH  29  36
DOCKED: BRANCH  22  39
DOCKED: ATOM     39  C   UNL d   1     -13.991 -19.013 -11.028 -0.02 +0.00    +0.052 C 
DOCKED: BRANCH  39  40
DOCKED: ATOM     40  C   UNL d   1     -12.989 -18.525 -12.087 -0.03 +0.01    +0.115 C 
DOCKED: BRANCH  40  41
DOCKED: ATOM     41  C   UNL d   1     -12.149 -19.623 -12.705 -0.02 +0.01    +0.139 C 
DOCKED: ATOM     42  O   UNL d   1     -12.170 -20.742 -12.212 +0.01 -0.06    -0.650 OA
DOCKED: BRANCH  41  43
DOCKED: ATOM     43  O   UNL d   1     -11.442 -19.423 -13.840 +0.03 -0.11    -0.776 OA
DOCKED: ATOM     44  H   UNL d   1     -10.477 -19.422 -13.857 +0.02 +0.03    +0.167 HD
DOCKED: ENDBRANCH  41  43
DOCKED: ENDBRANCH  40  41
DOCKED: ENDBRANCH  39  40
DOCKED: ENDBRANCH  22  39
DOCKED: BRANCH  12  45
DOCKED: ATOM     45  C   UNL d   1      -8.549 -16.411  -1.557 -0.39 -0.00    +0.004 C 
DOCKED: ATOM     46  C   UNL d   1      -7.472 -16.143  -0.823 -0.52 -0.00    +0.012 C 
DOCKED: ENDBRANCH  12  45
DOCKED: BRANCH  17  47
DOCKED: ATOM     47  C   UNL d   1     -15.860 -15.566  -4.186 -0.15 +0.00    +0.004 C 
DOCKED: ATOM     48  C   UNL d   1     -16.830 -16.483  -4.165 -0.08 -0.00    +0.012 C 
DOCKED: ENDBRANCH  17  47
DOCKED: TORSDOF 12
DOCKED: TER
DOCKED: ENDMDL
________________________________________________________________________________


	BEGINNING GENETIC ALGORITHM DOCKING 30 of 100
Run: 30 Seed: 601453435 1359652341 [ Run 30 of 100 GA/GALS ]
Beginning LAMARCKIAN GENETIC ALGORITHM (LGA), with a maximum of 25000000 energy evaluations.

Final-Value: -9.216


	FINAL GENETIC ALGORITHM DOCKED STATE
	_______________________________________________


Detailed state:  trans 7.677 16.065 -10.129 quatxyzw -0.573430 0.240003 -0.211381 -0.754251 center 8.781 34.984 -0.736 ntor 12 -131.5223 117.0564 113.6206 140.4351 78.1387 97.2484 -179.0811 -41.5432 -69.6564 -130.4886 6.6865 132.0487
State:	  7.677  16.065 -10.129  -0.873  0.366 -0.322 -82.080   -131.52  117.06  113.62  140.44   78.14   97.25 -179.08  -41.54  -69.66 -130.49    6.69  132.05

DOCKED: MODEL       30
DOCKED: USER    Run = 30
DOCKED: USER    DPF = D:/Protein_go_brrr/autodock/final/mut_Y35F/heme_Co/dock.dpf
DOCKED: USER  
DOCKED: USER    Estimated Free Energy of Binding    =   -3.61 kcal/mol  [=(1)+(2)+(3)-(4)]
DOCKED: USER    Estimated Inhibition Constant, Ki   =    2.25 mM (millimolar)  [Temperature = 298.15 K]
DOCKED: USER    
DOCKED: USER    (1) Final Intermolecular Energy     =   -7.19 kcal/mol
DOCKED: USER        vdW + Hbond + desolv Energy     =   -6.60 kcal/mol
DOCKED: USER        Electrostatic Energy            =   -0.59 kcal/mol
DOCKED: USER    (2) Final Total Internal Energy     =   -2.02 kcal/mol
DOCKED: USER    (3) Torsional Free Energy           =   +3.58 kcal/mol
DOCKED: USER    (4) Unbound System's Energy  [=(2)] =   -2.02 kcal/mol
DOCKED: USER    
DOCKED: USER    
DOCKED: USER    NEWDPF move heme_Co_opt.pdbqt
DOCKED: USER    NEWDPF about 8.781000 34.984000 -0.736000
DOCKED: USER    NEWDPF tran0 7.676640 16.065189 -10.128513
DOCKED: USER    NEWDPF quaternion0 -0.573430 0.240003 -0.211381 -0.754251
DOCKED: USER    NEWDPF axisangle0 -0.873351 0.365532 -0.321939 -82.079996
DOCKED: USER    NEWDPF quat0 -0.873351 0.365532 -0.321939 -82.079996
DOCKED: USER    NEWDPF dihe0 -131.52 117.06 113.62 140.44 78.14 97.25 -179.08 -41.54 -69.66 -130.49 6.69 132.05 
DOCKED: USER  keepresnum = 1 
DOCKED: USER  
DOCKED: REMARK  12 active torsions:
DOCKED: REMARK  status: ('A' for Active; 'I' for Inactive)
DOCKED: REMARK    1  A    between atoms: C_6  and  C_10 
DOCKED: REMARK    2  A    between atoms: C_10  and  C_11 
DOCKED: REMARK    3  A    between atoms: C_11  and  C_12 
DOCKED: REMARK    4  A    between atoms: C_12  and  O_14 
DOCKED: REMARK    5  A    between atoms: C_17  and  C_20 
DOCKED: REMARK    6  A    between atoms: C_24  and  C_27 
DOCKED: REMARK    7  A    between atoms: C_31  and  C_34 
DOCKED: REMARK    8  A    between atoms: C_34  and  C_35 
DOCKED: REMARK    9  A    between atoms: C_35  and  C_36 
DOCKED: REMARK   10  A    between atoms: C_36  and  O_38 
DOCKED: REMARK   11  A    between atoms: FE_43  and  C_44 
DOCKED: REMARK   12  A    between atoms: C_44  and  O_45 
DOCKED: USER                              x       y       z     vdW  Elec       q    Type
DOCKED: USER                           _______ _______ _______ _____ _____    ______ ____
DOCKED: ROOT
DOCKED: ATOM      1  C   UNL d   1       5.645  16.692 -10.572 -0.10 +0.01    +0.064 A 
DOCKED: ATOM      2  C   UNL d   1       8.789  18.123  -7.304 -0.15 +0.01    +0.064 C 
DOCKED: ATOM      3  C   UNL d   1      11.828  14.701  -8.674 -0.19 -0.01    +0.064 A 
DOCKED: ATOM      4  C   UNL d   1       8.797  13.468 -12.274 -0.21 +0.00    +0.064 A 
DOCKED: ATOM      5  C   UNL d   1       6.266  17.311  -9.555 -0.13 +0.01    +0.066 A 
DOCKED: ATOM      6  C   UNL d   1       5.714  18.440  -8.919 -0.11 -0.01    -0.021 A 
DOCKED: ATOM      7  C   UNL d   1       6.640  18.865  -7.987 -0.11 -0.01    -0.025 A 
DOCKED: ATOM      8  C   UNL d   1       7.710  17.968  -8.082 -0.14 +0.02    +0.066 A 
DOCKED: ATOM      9  C   UNL d   1       6.537  20.068  -7.036 -0.09 +0.02    +0.051 C 
DOCKED: ATOM     10  C   UNL d   1       9.925  17.236  -7.313 -0.12 +0.00    +0.066 A 
DOCKED: ATOM     11  C   UNL d   1      11.023  17.261  -6.426 -0.03 +0.00    -0.021 A 
DOCKED: ATOM     12  C   UNL d   1      11.892  16.250  -6.846 -0.20 -0.00    +0.000 A 
DOCKED: ATOM     13  C   UNL d   1      11.256  15.676  -7.947 -0.18 -0.01    +0.070 A 
DOCKED: ATOM     14  C   UNL d   1      11.165  18.138  -5.208 -0.18 -0.02    +0.052 C 
DOCKED: ATOM     15  C   UNL d   1      11.340  14.034  -9.865 -0.21 -0.01    +0.066 A 
DOCKED: ATOM     16  C   UNL d   1      12.045  13.135 -10.653 -0.22 +0.00    -0.021 A 
DOCKED: ATOM     17  C   UNL d   1      11.176  12.779 -11.694 -0.25 -0.00    +0.000 A 
DOCKED: ATOM     18  C   UNL d   1       9.998  13.478 -11.448 -0.24 -0.01    +0.070 A 
DOCKED: ATOM     19  C   UNL d   1      13.461  12.669 -10.398 -0.16 -0.02    +0.052 C 
DOCKED: ATOM     20  C   UNL d   1       7.673  14.205 -12.103 -0.26 +0.00    +0.066 A 
DOCKED: ATOM     21  C   UNL d   1       6.597  14.135 -12.985 -0.27 -0.00    -0.025 A 
DOCKED: ATOM     22  C   UNL d   1       5.662  15.032 -12.503 -0.21 -0.00    -0.021 A 
DOCKED: ATOM     23  C   UNL d   1       6.223  15.619 -11.349 -0.10 +0.01    +0.066 A 
DOCKED: ATOM     24  C   UNL d   1       6.474  13.271 -14.237 -0.23 +0.00    +0.051 C 
DOCKED: ATOM     25  N   UNL d   1       7.502  16.992  -9.041 -0.11 -0.04    -0.248 N 
DOCKED: ATOM     26  N   UNL d   1      10.041  16.236  -8.193 -0.12 +0.00    -0.248 N 
DOCKED: ATOM     27  N   UNL d   1      10.143  14.238 -10.368 -0.16 +0.02    -0.248 N 
DOCKED: ATOM     28  N   UNL d   1       7.441  15.122 -11.104 -0.10 -0.02    -0.248 N 
DOCKED: ATOM     29 FE   UNL d   1       8.898  15.532  -9.746 -0.05 +0.00    +0.000 Fe
DOCKED: ENDROOT
DOCKED: BRANCH   6  30
DOCKED: ATOM     30  C   UNL d   1       4.391  19.119  -9.258 -0.06 +0.01    +0.052 C 
DOCKED: BRANCH  30  31
DOCKED: ATOM     31  C   UNL d   1       3.253  18.523  -8.430 -0.09 +0.03    +0.115 C 
DOCKED: BRANCH  31  32
DOCKED: ATOM     32  C   UNL d   1       2.756  19.473  -7.363 -0.05 +0.05    +0.139 C 
DOCKED: ATOM     33  O   UNL d   1       2.450  20.616  -7.671 +0.01 -0.09    -0.650 OA
DOCKED: BRANCH  32  34
DOCKED: ATOM     34  O   UNL d   1       2.590  19.085  -6.077 -0.47 -0.62    -0.776 OA
DOCKED: ATOM     35  H   UNL d   1       1.819  19.307  -5.537 +0.02 +0.07    +0.167 HD
DOCKED: ENDBRANCH  32  34
DOCKED: ENDBRANCH  31  32
DOCKED: ENDBRANCH  30  31
DOCKED: ENDBRANCH   6  30
DOCKED: BRANCH  29  36
DOCKED: ATOM     36  C   UNL d   1       9.668  17.033 -10.991 -0.03 -0.00    +0.190 C 
DOCKED: BRANCH  36  37
DOCKED: ATOM     37  O   UNL d   1       9.314  17.934 -12.000 +0.00 +0.01    -0.399 OA
DOCKED: ATOM     38  H   UNL d   1       8.329  17.820 -12.111 +0.02 -0.00    +0.209 HD
DOCKED: ENDBRANCH  36  37
DOCKED: ENDBRANCH  29  36
DOCKED: BRANCH  22  39
DOCKED: ATOM     39  C   UNL d   1       4.331  15.352 -13.158 -0.16 +0.00    +0.052 C 
DOCKED: BRANCH  39  40
DOCKED: ATOM     40  C   UNL d   1       4.182  16.867 -13.373 -0.05 +0.00    +0.115 C 
DOCKED: BRANCH  40  41
DOCKED: ATOM     41  C   UNL d   1       5.421  17.547 -13.916 -0.02 -0.00    +0.139 C 
DOCKED: ATOM     42  O   UNL d   1       5.514  17.749 -15.119 +0.01 +0.01    -0.650 OA
DOCKED: BRANCH  41  43
DOCKED: ATOM     43  O   UNL d   1       6.391  18.015 -13.100 +0.02 -0.00    -0.776 OA
DOCKED: ATOM     44  H   UNL d   1       7.303  17.698 -13.142 +0.01 -0.00    +0.167 HD
DOCKED: ENDBRANCH  41  43
DOCKED: ENDBRANCH  40  41
DOCKED: ENDBRANCH  39  40
DOCKED: ENDBRANCH  22  39
DOCKED: BRANCH  12  45
DOCKED: ATOM     45  C   UNL d   1      13.233  15.751  -6.325 -0.27 -0.00    +0.004 C 
DOCKED: ATOM     46  C   UNL d   1      13.660  14.516  -6.076 -0.37 -0.01    +0.012 C 
DOCKED: ENDBRANCH  12  45
DOCKED: BRANCH  17  47
DOCKED: ATOM     47  C   UNL d   1      11.413  11.894 -12.874 -0.21 -0.00    +0.004 C 
DOCKED: ATOM     48  C   UNL d   1      11.813  10.625 -12.775 -0.31 -0.00    +0.012 C 
DOCKED: ENDBRANCH  17  47
DOCKED: TORSDOF 12
DOCKED: TER
DOCKED: ENDMDL
________________________________________________________________________________


	BEGINNING GENETIC ALGORITHM DOCKING 31 of 100
Run: 31 Seed: 85609994 1513271248 [ Run 31 of 100 GA/GALS ]
Beginning LAMARCKIAN GENETIC ALGORITHM (LGA), with a maximum of 25000000 energy evaluations.

Final-Value: -9.339


	FINAL GENETIC ALGORITHM DOCKED STATE
	_______________________________________________


Detailed state:  trans -10.487 4.830 17.272 quatxyzw 0.189961 -0.497572 0.119808 -0.837844 center 8.781 34.984 -0.736 ntor 12 13.8889 101.0556 160.8152 115.8329 -93.7121 119.1647 130.8166 123.1651 19.8787 78.6367 -124.1879 180.0000
State:	-10.487   4.830  17.272   0.348 -0.911  0.219 -66.174     13.89  101.06  160.82  115.83  -93.71  119.16  130.82  123.17   19.88   78.64 -124.19  180.00

DOCKED: MODEL       31
DOCKED: USER    Run = 31
DOCKED: USER    DPF = D:/Protein_go_brrr/autodock/final/mut_Y35F/heme_Co/dock.dpf
DOCKED: USER  
DOCKED: USER    Estimated Free Energy of Binding    =   -3.79 kcal/mol  [=(1)+(2)+(3)-(4)]
DOCKED: USER    Estimated Inhibition Constant, Ki   =    1.67 mM (millimolar)  [Temperature = 298.15 K]
DOCKED: USER    
DOCKED: USER    (1) Final Intermolecular Energy     =   -7.37 kcal/mol
DOCKED: USER        vdW + Hbond + desolv Energy     =   -4.53 kcal/mol
DOCKED: USER        Electrostatic Energy            =   -2.84 kcal/mol
DOCKED: USER    (2) Final Total Internal Energy     =   -1.97 kcal/mol
DOCKED: USER    (3) Torsional Free Energy           =   +3.58 kcal/mol
DOCKED: USER    (4) Unbound System's Energy  [=(2)] =   -1.97 kcal/mol
DOCKED: USER    
DOCKED: USER    
DOCKED: USER    NEWDPF move heme_Co_opt.pdbqt
DOCKED: USER    NEWDPF about 8.781000 34.984000 -0.736000
DOCKED: USER    NEWDPF tran0 -10.486681 4.830297 17.271959
DOCKED: USER    NEWDPF quaternion0 0.189961 -0.497572 0.119808 -0.837844
DOCKED: USER    NEWDPF axisangle0 0.347972 -0.911455 0.219465 -66.173707
DOCKED: USER    NEWDPF quat0 0.347972 -0.911455 0.219465 -66.173707
DOCKED: USER    NEWDPF dihe0 13.89 101.06 160.82 115.83 -93.71 119.16 130.82 123.17 19.88 78.64 -124.19 180.00 
DOCKED: USER  keepresnum = 1 
DOCKED: USER  
DOCKED: REMARK  12 active torsions:
DOCKED: REMARK  status: ('A' for Active; 'I' for Inactive)
DOCKED: REMARK    1  A    between atoms: C_6  and  C_10 
DOCKED: REMARK    2  A    between atoms: C_10  and  C_11 
DOCKED: REMARK    3  A    between atoms: C_11  and  C_12 
DOCKED: REMARK    4  A    between atoms: C_12  and  O_14 
DOCKED: REMARK    5  A    between atoms: C_17  and  C_20 
DOCKED: REMARK    6  A    between atoms: C_24  and  C_27 
DOCKED: REMARK    7  A    between atoms: C_31  and  C_34 
DOCKED: REMARK    8  A    between atoms: C_34  and  C_35 
DOCKED: REMARK    9  A    between atoms: C_35  and  C_36 
DOCKED: REMARK   10  A    between atoms: C_36  and  O_38 
DOCKED: REMARK   11  A    between atoms: FE_43  and  C_44 
DOCKED: REMARK   12  A    between atoms: C_44  and  O_45 
DOCKED: USER                              x       y       z     vdW  Elec       q    Type
DOCKED: USER                           _______ _______ _______ _____ _____    ______ ____
DOCKED: ROOT
DOCKED: ATOM      1  C   UNL d   1     -10.932   5.628  15.302 -0.16 +0.02    +0.064 A 
DOCKED: ATOM      2  C   UNL d   1     -12.240   1.617  17.496 -0.18 +0.00    +0.064 C 
DOCKED: ATOM      3  C   UNL d   1      -9.416   2.678  21.201 -0.04 +0.00    +0.064 A 
DOCKED: ATOM      4  C   UNL d   1      -8.363   6.964  19.154 -0.04 +0.00    +0.064 A 
DOCKED: ATOM      5  C   UNL d   1     -11.469   4.437  15.613 -0.20 +0.01    +0.066 A 
DOCKED: ATOM      6  C   UNL d   1     -12.427   3.811  14.791 -0.25 -0.01    -0.021 A 
DOCKED: ATOM      7  C   UNL d   1     -12.820   2.659  15.444 -0.23 -0.00    -0.025 A 
DOCKED: ATOM      8  C   UNL d   1     -12.074   2.622  16.627 -0.15 +0.00    +0.066 A 
DOCKED: ATOM      9  C   UNL d   1     -13.857   1.623  14.984 -0.09 +0.00    +0.051 C 
DOCKED: ATOM     10  C   UNL d   1     -11.499   1.482  18.725 -0.10 +0.00    +0.066 A 
DOCKED: ATOM     11  C   UNL d   1     -11.526   0.381  19.609 -0.09 -0.00    -0.021 A 
DOCKED: ATOM     12  C   UNL d   1     -10.691   0.716  20.678 -0.06 +0.00    +0.000 A 
DOCKED: ATOM     13  C   UNL d   1     -10.208   1.986  20.363 -0.07 +0.00    +0.070 A 
DOCKED: ATOM     14  C   UNL d   1     -12.233  -0.930  19.380 -0.07 +0.00    +0.052 C 
DOCKED: ATOM     15  C   UNL d   1      -8.872   4.014  21.059 -0.03 +0.00    +0.066 A 
DOCKED: ATOM     16  C   UNL d   1      -8.180   4.728  22.027 -0.01 -0.00    -0.021 A 
DOCKED: ATOM     17  C   UNL d   1      -7.877   5.966  21.442 -0.01 +0.00    +0.000 A 
DOCKED: ATOM     18  C   UNL d   1      -8.394   5.903  20.153 -0.03 +0.00    +0.070 A 
DOCKED: ATOM     19  C   UNL d   1      -7.849   4.229  23.416 -0.00 +0.00    +0.052 C 
DOCKED: ATOM     20  C   UNL d   1      -8.934   6.957  17.926 -0.09 +0.01    +0.066 A 
DOCKED: ATOM     21  C   UNL d   1      -8.867   8.052  17.068 -0.12 -0.00    -0.025 A 
DOCKED: ATOM     22  C   UNL d   1      -9.574   7.686  15.938 -0.21 -0.01    -0.021 A 
DOCKED: ATOM     23  C   UNL d   1     -10.052   6.378  16.169 -0.20 +0.02    +0.066 A 
DOCKED: ATOM     24  C   UNL d   1      -8.179   9.391  17.320 -0.09 +0.01    +0.051 C 
DOCKED: ATOM     25  N   UNL d   1     -11.225   3.708  16.755 -0.05 +0.01    -0.248 N 
DOCKED: ATOM     26  N   UNL d   1     -10.653   2.424  19.155 -0.09 -0.00    -0.248 N 
DOCKED: ATOM     27  N   UNL d   1      -9.006   4.738  19.970 -0.04 -0.01    -0.248 N 
DOCKED: ATOM     28  N   UNL d   1      -9.669   5.934  17.372 -0.10 -0.03    -0.248 N 
DOCKED: ATOM     29 FE   UNL d   1     -10.049   4.256  18.456 -0.03 +0.00    +0.000 Fe
DOCKED: ENDROOT
DOCKED: BRANCH   6  30
DOCKED: ATOM     30  C   UNL d   1     -12.991   4.349  13.480 -0.27 +0.04    +0.052 C 
DOCKED: BRANCH  30  31
DOCKED: ATOM     31  C   UNL d   1     -13.232   5.855  13.576 -0.13 +0.10    +0.115 C 
DOCKED: BRANCH  31  32
DOCKED: ATOM     32  C   UNL d   1     -14.171   6.359  12.502 -0.04 +0.18    +0.139 C 
DOCKED: ATOM     33  O   UNL d   1     -14.652   5.568  11.705 -0.05 -0.78    -0.650 OA
DOCKED: BRANCH  32  34
DOCKED: ATOM     34  O   UNL d   1     -14.537   7.659  12.421 -0.46 -1.32    -0.776 OA
DOCKED: ATOM     35  H   UNL d   1     -14.134   8.371  12.939 +0.03 +0.31    +0.167 HD
DOCKED: ENDBRANCH  32  34
DOCKED: ENDBRANCH  31  32
DOCKED: ENDBRANCH  30  31
DOCKED: ENDBRANCH   6  30
DOCKED: BRANCH  29  36
DOCKED: ATOM     36  C   UNL d   1     -11.788   5.126  19.238 -0.02 +0.01    +0.190 C 
DOCKED: BRANCH  36  37
DOCKED: ATOM     37  O   UNL d   1     -12.945   5.823  18.875 +0.00 -0.03    -0.399 OA
DOCKED: ATOM     38  H   UNL d   1     -12.793   6.099  17.928 +0.02 +0.03    +0.209 HD
DOCKED: ENDBRANCH  36  37
DOCKED: ENDBRANCH  29  36
DOCKED: BRANCH  22  39
DOCKED: ATOM     39  C   UNL d   1      -9.828   8.572  14.733 -0.16 +0.02    +0.052 C 
DOCKED: BRANCH  39  40
DOCKED: ATOM     40  C   UNL d   1     -10.962   9.569  15.022 -0.16 +0.05    +0.115 C 
DOCKED: BRANCH  40  41
DOCKED: ATOM     41  C   UNL d   1     -12.264   9.257  14.315 -0.17 +0.13    +0.139 C 
DOCKED: ATOM     42  O   UNL d   1     -12.541   9.849  13.282 -0.28 -1.18    -0.650 OA
DOCKED: BRANCH  41  43
DOCKED: ATOM     43  O   UNL d   1     -13.090   8.278  14.747 -0.01 -0.56    -0.776 OA
DOCKED: ATOM     44  H   UNL d   1     -13.996   8.183  14.426 +0.02 +0.13    +0.167 HD
DOCKED: ENDBRANCH  41  43
DOCKED: ENDBRANCH  40  41
DOCKED: ENDBRANCH  39  40
DOCKED: ENDBRANCH  22  39
DOCKED: BRANCH  12  45
DOCKED: ATOM     45  C   UNL d   1     -10.281  -0.022  21.946 -0.02 +0.00    +0.004 C 
DOCKED: ATOM     46  C   UNL d   1      -9.126  -0.592  22.281 -0.01 +0.00    +0.012 C 
DOCKED: ENDBRANCH  12  45
DOCKED: BRANCH  17  47
DOCKED: ATOM     47  C   UNL d   1      -7.200   7.160  22.032 -0.01 +0.00    +0.004 C 
DOCKED: ATOM     48  C   UNL d   1      -7.804   8.337  22.209 -0.00 +0.00    +0.012 C 
DOCKED: ENDBRANCH  17  47
DOCKED: TORSDOF 12
DOCKED: TER
DOCKED: ENDMDL
________________________________________________________________________________


	BEGINNING GENETIC ALGORITHM DOCKING 32 of 100
Run: 32 Seed: 118810980 1185905681 [ Run 32 of 100 GA/GALS ]
Beginning LAMARCKIAN GENETIC ALGORITHM (LGA), with a maximum of 25000000 energy evaluations.

Final-Value: -9.022


	FINAL GENETIC ALGORITHM DOCKED STATE
	_______________________________________________


Detailed state:  trans -10.405 -19.135 -7.631 quatxyzw -0.290243 0.148568 -0.861762 0.388655 center 8.781 34.984 -0.736 ntor 12 -96.6198 106.1340 -11.2230 69.0405 -87.3753 129.9833 138.5736 128.5348 63.3909 -131.8989 -8.4046 -12.4616
State:	-10.405 -19.135  -7.631  -0.315  0.161 -0.935 134.258    -96.62  106.13  -11.22   69.04  -87.38  129.98  138.57  128.53   63.39 -131.90   -8.40  -12.46

DOCKED: MODEL       32
DOCKED: USER    Run = 32
DOCKED: USER    DPF = D:/Protein_go_brrr/autodock/final/mut_Y35F/heme_Co/dock.dpf
DOCKED: USER  
DOCKED: USER    Estimated Free Energy of Binding    =   -3.09 kcal/mol  [=(1)+(2)+(3)-(4)]
DOCKED: USER    Estimated Inhibition Constant, Ki   =    5.47 mM (millimolar)  [Temperature = 298.15 K]
DOCKED: USER    
DOCKED: USER    (1) Final Intermolecular Energy     =   -6.67 kcal/mol
DOCKED: USER        vdW + Hbond + desolv Energy     =   -5.96 kcal/mol
DOCKED: USER        Electrostatic Energy            =   -0.71 kcal/mol
DOCKED: USER    (2) Final Total Internal Energy     =   -2.36 kcal/mol
DOCKED: USER    (3) Torsional Free Energy           =   +3.58 kcal/mol
DOCKED: USER    (4) Unbound System's Energy  [=(2)] =   -2.36 kcal/mol
DOCKED: USER    
DOCKED: USER    
DOCKED: USER    NEWDPF move heme_Co_opt.pdbqt
DOCKED: USER    NEWDPF about 8.781000 34.984000 -0.736000
DOCKED: USER    NEWDPF tran0 -10.405457 -19.134513 -7.631334
DOCKED: USER    NEWDPF quaternion0 -0.290243 0.148568 -0.861762 0.388655
DOCKED: USER    NEWDPF axisangle0 -0.315008 0.161244 -0.935292 134.258345
DOCKED: USER    NEWDPF quat0 -0.315008 0.161244 -0.935292 134.258345
DOCKED: USER    NEWDPF dihe0 -96.62 106.13 -11.22 69.04 -87.38 129.98 138.57 128.53 63.39 -131.90 -8.40 -12.46 
DOCKED: USER  keepresnum = 1 
DOCKED: USER  
DOCKED: REMARK  12 active torsions:
DOCKED: REMARK  status: ('A' for Active; 'I' for Inactive)
DOCKED: REMARK    1  A    between atoms: C_6  and  C_10 
DOCKED: REMARK    2  A    between atoms: C_10  and  C_11 
DOCKED: REMARK    3  A    between atoms: C_11  and  C_12 
DOCKED: REMARK    4  A    between atoms: C_12  and  O_14 
DOCKED: REMARK    5  A    between atoms: C_17  and  C_20 
DOCKED: REMARK    6  A    between atoms: C_24  and  C_27 
DOCKED: REMARK    7  A    between atoms: C_31  and  C_34 
DOCKED: REMARK    8  A    between atoms: C_34  and  C_35 
DOCKED: REMARK    9  A    between atoms: C_35  and  C_36 
DOCKED: REMARK   10  A    between atoms: C_36  and  O_38 
DOCKED: REMARK   11  A    between atoms: FE_43  and  C_44 
DOCKED: REMARK   12  A    between atoms: C_44  and  O_45 
DOCKED: USER                              x       y       z     vdW  Elec       q    Type
DOCKED: USER                           _______ _______ _______ _____ _____    ______ ____
DOCKED: ROOT
DOCKED: ATOM      1  C   UNL d   1     -10.085 -20.181  -9.507 -0.09 +0.00    +0.064 A 
DOCKED: ATOM      2  C   UNL d   1      -7.304 -19.506  -5.710 -0.23 -0.01    +0.064 C 
DOCKED: ATOM      3  C   UNL d   1     -10.612 -16.675  -3.742 -0.13 -0.00    +0.064 A 
DOCKED: ATOM      4  C   UNL d   1     -13.628 -17.658  -7.431 -0.12 +0.01    +0.064 A 
DOCKED: ATOM      5  C   UNL d   1      -9.067 -20.175  -8.631 -0.15 -0.00    +0.066 A 
DOCKED: ATOM      6  C   UNL d   1      -7.914 -20.961  -8.820 -0.16 -0.00    -0.021 A 
DOCKED: ATOM      7  C   UNL d   1      -7.120 -20.778  -7.705 -0.20 +0.00    -0.025 A 
DOCKED: ATOM      8  C   UNL d   1      -7.815 -19.878  -6.890 -0.21 -0.00    +0.066 A 
DOCKED: ATOM      9  C   UNL d   1      -5.758 -21.421  -7.402 -0.17 -0.00    +0.051 C 
DOCKED: ATOM     10  C   UNL d   1      -7.934 -18.565  -4.818 -0.23 -0.01    +0.066 A 
DOCKED: ATOM     11  C   UNL d   1      -7.384 -18.027  -3.634 -0.28 +0.00    -0.021 A 
DOCKED: ATOM     12  C   UNL d   1      -8.368 -17.202  -3.082 -0.27 -0.00    +0.000 A 
DOCKED: ATOM     13  C   UNL d   1      -9.437 -17.287  -3.975 -0.23 -0.01    +0.070 A 
DOCKED: ATOM     14  C   UNL d   1      -5.977 -18.227  -3.133 -0.24 -0.01    +0.052 C 
DOCKED: ATOM     15  C   UNL d   1     -11.832 -16.698  -4.526 -0.15 +0.01    +0.066 A 
DOCKED: ATOM     16  C   UNL d   1     -13.057 -16.162  -4.157 -0.24 -0.00    -0.021 A 
DOCKED: ATOM     17  C   UNL d   1     -13.931 -16.445  -5.216 -0.21 +0.00    +0.000 A 
DOCKED: ATOM     18  C   UNL d   1     -13.162 -17.119  -6.159 -0.15 +0.01    +0.070 A 
DOCKED: ATOM     19  C   UNL d   1     -13.341 -15.432  -2.863 -0.28 +0.00    +0.052 C 
DOCKED: ATOM     20  C   UNL d   1     -12.921 -18.391  -8.324 -0.08 +0.01    +0.066 A 
DOCKED: ATOM     21  C   UNL d   1     -13.489 -18.885  -9.496 -0.05 -0.00    -0.025 A 
DOCKED: ATOM     22  C   UNL d   1     -12.483 -19.592 -10.129 -0.04 -0.00    -0.021 A 
DOCKED: ATOM     23  C   UNL d   1     -11.345 -19.504  -9.299 -0.07 +0.00    +0.066 A 
DOCKED: ATOM     24  C   UNL d   1     -14.926 -18.709  -9.981 -0.03 +0.00    +0.051 C 
DOCKED: ATOM     25  N   UNL d   1      -9.022 -19.483  -7.442 -0.13 +0.01    -0.248 N 
DOCKED: ATOM     26  N   UNL d   1      -9.152 -18.067  -5.052 -0.16 +0.02    -0.248 N 
DOCKED: ATOM     27  N   UNL d   1     -11.925 -17.279  -5.701 -0.05 -0.04    -0.248 N 
DOCKED: ATOM     28  N   UNL d   1     -11.607 -18.780  -8.204 -0.05 -0.02    -0.248 N 
DOCKED: ATOM     29 FE   UNL d   1     -10.562 -18.316  -6.523 -0.04 +0.00    +0.000 Fe
DOCKED: ENDROOT
DOCKED: BRANCH   6  30
DOCKED: ATOM     30  C   UNL d   1      -7.637 -21.903  -9.987 -0.12 +0.01    +0.052 C 
DOCKED: BRANCH  30  31
DOCKED: ATOM     31  C   UNL d   1      -7.253 -21.112 -11.237 -0.09 +0.04    +0.115 C 
DOCKED: BRANCH  31  32
DOCKED: ATOM     32  C   UNL d   1      -8.225 -21.326 -12.377 -0.11 +0.06    +0.139 C 
DOCKED: ATOM     33  O   UNL d   1      -9.266 -21.933 -12.173 +0.01 -0.16    -0.650 OA
DOCKED: BRANCH  32  34
DOCKED: ATOM     34  O   UNL d   1      -8.002 -20.824 -13.614 -0.04 -0.60    -0.776 OA
DOCKED: ATOM     35  H   UNL d   1      -8.420 -20.023 -13.959 +0.01 +0.10    +0.167 HD
DOCKED: ENDBRANCH  32  34
DOCKED: ENDBRANCH  31  32
DOCKED: ENDBRANCH  30  31
DOCKED: ENDBRANCH   6  30
DOCKED: BRANCH  29  36
DOCKED: ATOM     36  C   UNL d   1     -11.203 -20.089  -5.607 -0.03 +0.00    +0.190 C 
DOCKED: BRANCH  36  37
DOCKED: ATOM     37  O   UNL d   1     -11.191 -21.481  -5.743 +0.00 -0.00    -0.399 OA
DOCKED: ATOM     38  H   UNL d   1     -10.797 -21.647  -6.644 +0.02 +0.00    +0.209 HD
DOCKED: ENDBRANCH  36  37
DOCKED: ENDBRANCH  29  36
DOCKED: BRANCH  22  39
DOCKED: ATOM     39  C   UNL d   1     -12.633 -20.362 -11.428 -0.02 +0.00    +0.052 C 
DOCKED: BRANCH  39  40
DOCKED: ATOM     40  C   UNL d   1     -12.345 -19.453 -12.634 -0.02 +0.01    +0.115 C 
DOCKED: BRANCH  40  41
DOCKED: ATOM     41  C   UNL d   1     -11.149 -18.542 -12.459 -0.06 +0.02    +0.139 C 
DOCKED: ATOM     42  O   UNL d   1     -11.317 -17.408 -12.032 +0.03 -0.06    -0.650 OA
DOCKED: BRANCH  41  43
DOCKED: ATOM     43  O   UNL d   1      -9.887 -18.975 -12.678 +0.04 -0.14    -0.776 OA
DOCKED: ATOM     44  H   UNL d   1      -9.684 -19.895 -12.889 +0.03 +0.04    +0.167 HD
DOCKED: ENDBRANCH  41  43
DOCKED: ENDBRANCH  40  41
DOCKED: ENDBRANCH  39  40
DOCKED: ENDBRANCH  22  39
DOCKED: BRANCH  12  45
DOCKED: ATOM     45  C   UNL d   1      -8.414 -16.334  -1.832 -0.40 -0.00    +0.004 C 
DOCKED: ATOM     46  C   UNL d   1      -7.664 -15.296  -1.471 -0.51 -0.00    +0.012 C 
DOCKED: ENDBRANCH  12  45
DOCKED: BRANCH  17  47
DOCKED: ATOM     47  C   UNL d   1     -15.392 -16.167  -5.348 -0.17 +0.00    +0.004 C 
DOCKED: ATOM     48  C   UNL d   1     -16.330 -17.117  -5.309 -0.07 +0.00    +0.012 C 
DOCKED: ENDBRANCH  17  47
DOCKED: TORSDOF 12
DOCKED: TER
DOCKED: ENDMDL
________________________________________________________________________________


	BEGINNING GENETIC ALGORITHM DOCKING 33 of 100
Run: 33 Seed: 225339788 885761773 [ Run 33 of 100 GA/GALS ]
Beginning LAMARCKIAN GENETIC ALGORITHM (LGA), with a maximum of 25000000 energy evaluations.

Final-Value: -9.421


	FINAL GENETIC ALGORITHM DOCKED STATE
	_______________________________________________


Detailed state:  trans 6.109 16.692 -9.840 quatxyzw 0.381578 -0.700281 0.120495 0.591172 center 8.781 34.984 -0.736 ntor 12 -167.4084 109.9218 21.1180 65.2388 115.6014 138.5946 35.9427 107.2200 -179.9189 -98.3926 -170.4901 -11.7047
State:	  6.109  16.692  -9.840   0.473 -0.868  0.149 107.520   -167.41  109.92   21.12   65.24  115.60  138.59   35.94  107.22 -179.92  -98.39 -170.49  -11.70

DOCKED: MODEL       33
DOCKED: USER    Run = 33
DOCKED: USER    DPF = D:/Protein_go_brrr/autodock/final/mut_Y35F/heme_Co/dock.dpf
DOCKED: USER  
DOCKED: USER    Estimated Free Energy of Binding    =   -3.58 kcal/mol  [=(1)+(2)+(3)-(4)]
DOCKED: USER    Estimated Inhibition Constant, Ki   =    2.39 mM (millimolar)  [Temperature = 298.15 K]
DOCKED: USER    
DOCKED: USER    (1) Final Intermolecular Energy     =   -7.16 kcal/mol
DOCKED: USER        vdW + Hbond + desolv Energy     =   -6.22 kcal/mol
DOCKED: USER        Electrostatic Energy            =   -0.94 kcal/mol
DOCKED: USER    (2) Final Total Internal Energy     =   -2.26 kcal/mol
DOCKED: USER    (3) Torsional Free Energy           =   +3.58 kcal/mol
DOCKED: USER    (4) Unbound System's Energy  [=(2)] =   -2.26 kcal/mol
DOCKED: USER    
DOCKED: USER    
DOCKED: USER    NEWDPF move heme_Co_opt.pdbqt
DOCKED: USER    NEWDPF about 8.781000 34.984000 -0.736000
DOCKED: USER    NEWDPF tran0 6.109103 16.692206 -9.839861
DOCKED: USER    NEWDPF quaternion0 0.381578 -0.700281 0.120495 0.591172
DOCKED: USER    NEWDPF axisangle0 0.473102 -0.868248 0.149396 107.519498
DOCKED: USER    NEWDPF quat0 0.473102 -0.868248 0.149396 107.519498
DOCKED: USER    NEWDPF dihe0 -167.41 109.92 21.12 65.24 115.60 138.59 35.94 107.22 -179.92 -98.39 -170.49 -11.70 
DOCKED: USER  keepresnum = 1 
DOCKED: USER  
DOCKED: REMARK  12 active torsions:
DOCKED: REMARK  status: ('A' for Active; 'I' for Inactive)
DOCKED: REMARK    1  A    between atoms: C_6  and  C_10 
DOCKED: REMARK    2  A    between atoms: C_10  and  C_11 
DOCKED: REMARK    3  A    between atoms: C_11  and  C_12 
DOCKED: REMARK    4  A    between atoms: C_12  and  O_14 
DOCKED: REMARK    5  A    between atoms: C_17  and  C_20 
DOCKED: REMARK    6  A    between atoms: C_24  and  C_27 
DOCKED: REMARK    7  A    between atoms: C_31  and  C_34 
DOCKED: REMARK    8  A    between atoms: C_34  and  C_35 
DOCKED: REMARK    9  A    between atoms: C_35  and  C_36 
DOCKED: REMARK   10  A    between atoms: C_36  and  O_38 
DOCKED: REMARK   11  A    between atoms: FE_43  and  C_44 
DOCKED: REMARK   12  A    between atoms: C_44  and  O_45 
DOCKED: USER                              x       y       z     vdW  Elec       q    Type
DOCKED: USER                           _______ _______ _______ _____ _____    ______ ____
DOCKED: ROOT
DOCKED: ATOM      1  C   UNL d   1       5.151  18.101  -8.494 -0.12 +0.02    +0.064 A 
DOCKED: ATOM      2  C   UNL d   1       9.617  16.496  -8.787 -0.18 +0.00    +0.064 C 
DOCKED: ATOM      3  C   UNL d   1       8.340  13.466 -12.255 -0.22 +0.00    +0.064 A 
DOCKED: ATOM      4  C   UNL d   1       3.859  15.360 -12.241 -0.19 +0.00    +0.064 A 
DOCKED: ATOM      5  C   UNL d   1       6.457  17.859  -8.294 -0.17 +0.02    +0.066 A 
DOCKED: ATOM      6  C   UNL d   1       7.226  18.612  -7.386 -0.14 -0.01    -0.021 A 
DOCKED: ATOM      7  C   UNL d   1       8.526  18.157  -7.491 -0.14 -0.00    -0.025 A 
DOCKED: ATOM      8  C   UNL d   1       8.491  17.136  -8.447 -0.17 +0.01    +0.066 A 
DOCKED: ATOM      9  C   UNL d   1       9.763  18.655  -6.730 -0.12 +0.00    +0.051 C 
DOCKED: ATOM     10  C   UNL d   1       9.674  15.415  -9.740 -0.19 -0.00    +0.066 A 
DOCKED: ATOM     11  C   UNL d   1      10.796  14.610 -10.037 -0.19 +0.00    -0.021 A 
DOCKED: ATOM     12  C   UNL d   1      10.394  13.733 -11.048 -0.25 -0.00    +0.000 A 
DOCKED: ATOM     13  C   UNL d   1       9.058  14.058 -11.284 -0.23 -0.00    +0.070 A 
DOCKED: ATOM     14  C   UNL d   1      12.122  14.631  -9.322 -0.16 -0.01    +0.052 C 
DOCKED: ATOM     15  C   UNL d   1       6.973  13.715 -12.669 -0.30 +0.00    +0.066 A 
DOCKED: ATOM     16  C   UNL d   1       6.336  13.170 -13.775 -0.28 -0.00    -0.021 A 
DOCKED: ATOM     17  C   UNL d   1       5.044  13.715 -13.776 -0.23 +0.00    +0.000 A 
DOCKED: ATOM     18  C   UNL d   1       4.989  14.539 -12.657 -0.22 +0.00    +0.070 A 
DOCKED: ATOM     19  C   UNL d   1       6.954  12.193 -14.750 -0.19 +0.00    +0.052 C 
DOCKED: ATOM     20  C   UNL d   1       3.812  16.234 -11.207 -0.16 +0.01    +0.066 A 
DOCKED: ATOM     21  C   UNL d   1       2.678  16.995 -10.928 -0.11 -0.00    -0.025 A 
DOCKED: ATOM     22  C   UNL d   1       3.011  17.773  -9.835 -0.08 -0.00    -0.021 A 
DOCKED: ATOM     23  C   UNL d   1       4.346  17.456  -9.506 -0.13 +0.01    +0.066 A 
DOCKED: ATOM     24  C   UNL d   1       1.349  16.995 -11.678 -0.06 -0.00    +0.051 C 
DOCKED: ATOM     25  N   UNL d   1       7.221  16.926  -8.957 -0.13 -0.05    -0.248 N 
DOCKED: ATOM     26  N   UNL d   1       8.609  15.037 -10.454 -0.15 -0.01    -0.248 N 
DOCKED: ATOM     27  N   UNL d   1       6.165  14.538 -12.039 -0.20 -0.03    -0.248 N 
DOCKED: ATOM     28  N   UNL d   1       4.835  16.526 -10.336 -0.03 -0.04    -0.248 N 
DOCKED: ATOM     29 FE   UNL d   1       6.658  15.662 -10.589 -0.06 +0.00    +0.000 Fe
DOCKED: ENDROOT
DOCKED: BRANCH   6  30
DOCKED: ATOM     30  C   UNL d   1       6.737  19.769  -6.521 +0.01 +0.02    +0.052 C 
DOCKED: BRANCH  30  31
DOCKED: ATOM     31  C   UNL d   1       6.808  21.086  -7.294 -0.03 +0.02    +0.115 C 
DOCKED: BRANCH  31  32
DOCKED: ATOM     32  C   UNL d   1       7.379  20.908  -8.685 -0.01 +0.01    +0.139 C 
DOCKED: ATOM     33  O   UNL d   1       8.576  21.074  -8.869 +0.01 -0.01    -0.650 OA
DOCKED: BRANCH  32  34
DOCKED: ATOM     34  O   UNL d   1       6.613  20.522  -9.731 +0.02 -0.05    -0.776 OA
DOCKED: ATOM     35  H   UNL d   1       6.961  20.286 -10.602 +0.01 +0.00    +0.167 HD
DOCKED: ENDBRANCH  32  34
DOCKED: ENDBRANCH  31  32
DOCKED: ENDBRANCH  30  31
DOCKED: ENDBRANCH   6  30
DOCKED: BRANCH  29  36
DOCKED: ATOM     36  C   UNL d   1       7.249  17.225 -11.856 -0.05 +0.01    +0.190 C 
DOCKED: BRANCH  36  37
DOCKED: ATOM     37  O   UNL d   1       7.546  18.591 -11.876 +0.00 -0.00    -0.399 OA
DOCKED: ATOM     38  H   UNL d   1       7.369  18.906 -10.945 +0.02 +0.01    +0.209 HD
DOCKED: ENDBRANCH  36  37
DOCKED: ENDBRANCH  29  36
DOCKED: BRANCH  22  39
DOCKED: ATOM     39  C   UNL d   1       2.113  18.811  -9.188 -0.04 +0.00    +0.052 C 
DOCKED: BRANCH  39  40
DOCKED: ATOM     40  C   UNL d   1       1.259  18.174  -8.079 -0.05 +0.01    +0.115 C 
DOCKED: BRANCH  40  41
DOCKED: ATOM     41  C   UNL d   1       2.012  17.891  -6.795 -0.08 +0.06    +0.139 C 
DOCKED: ATOM     42  O   UNL d   1       2.168  16.732  -6.436 +0.02 -0.33    -0.650 OA
DOCKED: BRANCH  41  43
DOCKED: ATOM     43  O   UNL d   1       2.592  18.879  -6.080 -0.41 -0.69    -0.776 OA
DOCKED: ATOM     44  H   UNL d   1       2.267  19.789  -6.091 +0.01 +0.07    +0.167 HD
DOCKED: ENDBRANCH  41  43
DOCKED: ENDBRANCH  40  41
DOCKED: ENDBRANCH  39  40
DOCKED: ENDBRANCH  22  39
DOCKED: BRANCH  12  45
DOCKED: ATOM     45  C   UNL d   1      11.109  12.619 -11.801 -0.27 -0.00    +0.004 C 
DOCKED: ATOM     46  C   UNL d   1      11.723  11.527 -11.353 -0.26 -0.00    +0.012 C 
DOCKED: ENDBRANCH  12  45
DOCKED: BRANCH  17  47
DOCKED: ATOM     47  C   UNL d   1       3.936  13.540 -14.763 -0.16 -0.00    +0.004 C 
DOCKED: ATOM     48  C   UNL d   1       2.971  12.626 -14.634 -0.18 -0.00    +0.012 C 
DOCKED: ENDBRANCH  17  47
DOCKED: TORSDOF 12
DOCKED: TER
DOCKED: ENDMDL
________________________________________________________________________________


	BEGINNING GENETIC ALGORITHM DOCKING 34 of 100
Run: 34 Seed: 1056913846 1811120473 [ Run 34 of 100 GA/GALS ]
Beginning LAMARCKIAN GENETIC ALGORITHM (LGA), with a maximum of 25000000 energy evaluations.

Final-Value: -9.607


	FINAL GENETIC ALGORITHM DOCKED STATE
	_______________________________________________


Detailed state:  trans -16.627 4.652 10.061 quatxyzw -0.116875 0.894143 0.330809 0.278235 center 8.781 34.984 -0.736 ntor 12 -101.5240 148.4018 29.2898 115.4736 137.1739 157.2390 148.8761 -171.9622 -95.2216 -100.2719 -22.2272 -33.1090
State:	-16.627   4.652  10.061  -0.122  0.931  0.344 147.690   -101.52  148.40   29.29  115.47  137.17  157.24  148.88 -171.96  -95.22 -100.27  -22.23  -33.11

DOCKED: MODEL       34
DOCKED: USER    Run = 34
DOCKED: USER    DPF = D:/Protein_go_brrr/autodock/final/mut_Y35F/heme_Co/dock.dpf
DOCKED: USER  
DOCKED: USER    Estimated Free Energy of Binding    =   -5.32 kcal/mol  [=(1)+(2)+(3)-(4)]
DOCKED: USER    Estimated Inhibition Constant, Ki   =  126.44 uM (micromolar)  [Temperature = 298.15 K]
DOCKED: USER    
DOCKED: USER    (1) Final Intermolecular Energy     =   -8.90 kcal/mol
DOCKED: USER        vdW + Hbond + desolv Energy     =   -6.17 kcal/mol
DOCKED: USER        Electrostatic Energy            =   -2.73 kcal/mol
DOCKED: USER    (2) Final Total Internal Energy     =   -0.71 kcal/mol
DOCKED: USER    (3) Torsional Free Energy           =   +3.58 kcal/mol
DOCKED: USER    (4) Unbound System's Energy  [=(2)] =   -0.71 kcal/mol
DOCKED: USER    
DOCKED: USER    
DOCKED: USER    NEWDPF move heme_Co_opt.pdbqt
DOCKED: USER    NEWDPF about 8.781000 34.984000 -0.736000
DOCKED: USER    NEWDPF tran0 -16.627040 4.651999 10.060677
DOCKED: USER    NEWDPF quaternion0 -0.116875 0.894143 0.330809 0.278235
DOCKED: USER    NEWDPF axisangle0 -0.121679 0.930901 0.344408 147.690172
DOCKED: USER    NEWDPF quat0 -0.121679 0.930901 0.344408 147.690172
DOCKED: USER    NEWDPF dihe0 -101.52 148.40 29.29 115.47 137.17 157.24 148.88 -171.96 -95.22 -100.27 -22.23 -33.11 
DOCKED: USER  keepresnum = 1 
DOCKED: USER  
DOCKED: REMARK  12 active torsions:
DOCKED: REMARK  status: ('A' for Active; 'I' for Inactive)
DOCKED: REMARK    1  A    between atoms: C_6  and  C_10 
DOCKED: REMARK    2  A    between atoms: C_10  and  C_11 
DOCKED: REMARK    3  A    between atoms: C_11  and  C_12 
DOCKED: REMARK    4  A    between atoms: C_12  and  O_14 
DOCKED: REMARK    5  A    between atoms: C_17  and  C_20 
DOCKED: REMARK    6  A    between atoms: C_24  and  C_27 
DOCKED: REMARK    7  A    between atoms: C_31  and  C_34 
DOCKED: REMARK    8  A    between atoms: C_34  and  C_35 
DOCKED: REMARK    9  A    between atoms: C_35  and  C_36 
DOCKED: REMARK   10  A    between atoms: C_36  and  O_38 
DOCKED: REMARK   11  A    between atoms: FE_43  and  C_44 
DOCKED: REMARK   12  A    between atoms: C_44  and  O_45 
DOCKED: USER                              x       y       z     vdW  Elec       q    Type
DOCKED: USER                           _______ _______ _______ _____ _____    ______ ____
DOCKED: ROOT
DOCKED: ATOM      1  C   UNL d   1     -14.568   5.341  10.108 +0.06 +0.11    +0.064 A 
DOCKED: ATOM      2  C   UNL d   1     -17.679   4.808   6.551 -0.08 +0.02    +0.064 C 
DOCKED: ATOM      3  C   UNL d   1     -20.843   2.867   9.559 -0.10 +0.01    +0.064 A 
DOCKED: ATOM      4  C   UNL d   1     -17.834   3.754  13.276 -0.06 +0.02    +0.064 A 
DOCKED: ATOM      5  C   UNL d   1     -15.172   5.305   8.908 -0.02 +0.10    +0.066 A 
DOCKED: ATOM      6  C   UNL d   1     -14.580   5.859   7.756 -0.13 -0.03    -0.021 A 
DOCKED: ATOM      7  C   UNL d   1     -15.496   5.722   6.732 -0.09 -0.02    -0.025 A 
DOCKED: ATOM      8  C   UNL d   1     -16.601   5.076   7.298 -0.10 +0.04    +0.066 A 
DOCKED: ATOM      9  C   UNL d   1     -15.353   6.178   5.272 -0.05 +0.02    +0.051 C 
DOCKED: ATOM     10  C   UNL d   1     -18.850   4.123   7.039 -0.09 +0.02    +0.066 A 
DOCKED: ATOM     11  C   UNL d   1     -19.954   3.689   6.274 -0.08 -0.00    -0.021 A 
DOCKED: ATOM     12  C   UNL d   1     -20.859   3.123   7.175 -0.09 +0.00    +0.000 A 
DOCKED: ATOM     13  C   UNL d   1     -20.238   3.242   8.418 -0.03 +0.02    +0.070 A 
DOCKED: ATOM     14  C   UNL d   1     -20.071   3.734   4.772 -0.05 +0.01    +0.052 C 
DOCKED: ATOM     15  C   UNL d   1     -20.372   2.966  10.926 -0.10 +0.01    +0.066 A 
DOCKED: ATOM     16  C   UNL d   1     -21.106   2.694  12.072 -0.05 -0.00    -0.021 A 
DOCKED: ATOM     17  C   UNL d   1     -20.243   2.951  13.147 -0.06 +0.00    +0.000 A 
DOCKED: ATOM     18  C   UNL d   1     -19.041   3.345  12.569 -0.08 +0.01    +0.070 A 
DOCKED: ATOM     19  C   UNL d   1     -22.542   2.220  12.101 -0.02 +0.00    +0.052 C 
DOCKED: ATOM     20  C   UNL d   1     -16.682   4.224  12.739 -0.10 +0.03    +0.066 A 
DOCKED: ATOM     21  C   UNL d   1     -15.602   4.620  13.524 -0.10 -0.01    -0.025 A 
DOCKED: ATOM     22  C   UNL d   1     -14.635   5.055  12.637 -0.17 -0.02    -0.021 A 
DOCKED: ATOM     23  C   UNL d   1     -15.182   4.913  11.344 -0.18 +0.08    +0.066 A 
DOCKED: ATOM     24  C   UNL d   1     -15.503   4.605  15.047 -0.06 +0.01    +0.051 C 
DOCKED: ATOM     25  N   UNL d   1     -16.425   4.800   8.644 -0.11 -0.22    -0.248 N 
DOCKED: ATOM     26  N   UNL d   1     -18.999   3.796   8.327 -0.09 -0.09    -0.248 N 
DOCKED: ATOM     27  N   UNL d   1     -19.163   3.372  11.247 -0.09 -0.05    -0.248 N 
DOCKED: ATOM     28  N   UNL d   1     -16.422   4.412  11.401 -0.11 -0.18    -0.248 N 
DOCKED: ATOM     29 FE   UNL d   1     -17.873   4.044  10.025 -0.03 +0.00    +0.000 Fe
DOCKED: ENDROOT
DOCKED: BRANCH   6  30
DOCKED: ATOM     30  C   UNL d   1     -13.228   6.560   7.676 -0.20 +0.07    +0.052 C 
DOCKED: BRANCH  30  31
DOCKED: ATOM     31  C   UNL d   1     -12.102   5.600   8.058 -0.18 +0.19    +0.115 C 
DOCKED: BRANCH  31  32
DOCKED: ATOM     32  C   UNL d   1     -11.671   4.726   6.900 -0.27 +0.20    +0.139 C 
DOCKED: ATOM     33  O   UNL d   1     -11.945   5.063   5.758 -0.38 -0.62    -0.650 OA
DOCKED: BRANCH  32  34
DOCKED: ATOM     34  O   UNL d   1     -10.946   3.598   7.083 -0.45 -1.13    -0.776 OA
DOCKED: ATOM     35  H   UNL d   1     -10.004   3.518   6.877 -0.28 +0.12    +0.167 HD
DOCKED: ENDBRANCH  32  34
DOCKED: ENDBRANCH  31  32
DOCKED: ENDBRANCH  30  31
DOCKED: ENDBRANCH   6  30
DOCKED: BRANCH  29  36
DOCKED: ATOM     36  C   UNL d   1     -18.570   6.013  10.199 -0.01 +0.06    +0.190 C 
DOCKED: BRANCH  36  37
DOCKED: ATOM     37  O   UNL d   1     -18.376   7.310   9.714 +0.01 -0.12    -0.399 OA
DOCKED: ATOM     38  H   UNL d   1     -18.133   7.191   8.753 +0.02 +0.07    +0.209 HD
DOCKED: ENDBRANCH  36  37
DOCKED: ENDBRANCH  29  36
DOCKED: BRANCH  22  39
DOCKED: ATOM     39  C   UNL d   1     -13.287   5.637  13.020 -0.14 +0.05    +0.052 C 
DOCKED: BRANCH  39  40
DOCKED: ATOM     40  C   UNL d   1     -12.390   4.558  13.648 -0.25 +0.08    +0.115 C 
DOCKED: BRANCH  40  41
DOCKED: ATOM     41  C   UNL d   1     -11.827   3.559  12.659 -0.44 +0.13    +0.139 C 
DOCKED: ATOM     42  O   UNL d   1     -12.498   3.234  11.689 -0.42 -1.13    -0.650 OA
DOCKED: BRANCH  41  43
DOCKED: ATOM     43  O   UNL d   1     -10.568   3.081  12.771 -0.57 -0.67    -0.776 OA
DOCKED: ATOM     44  H   UNL d   1     -10.152   2.909  13.625 -0.08 +0.10    +0.167 HD
DOCKED: ENDBRANCH  41  43
DOCKED: ENDBRANCH  40  41
DOCKED: ENDBRANCH  39  40
DOCKED: ENDBRANCH  22  39
DOCKED: BRANCH  12  45
DOCKED: ATOM     45  C   UNL d   1     -22.224   2.469   7.004 -0.07 +0.00    +0.004 C 
DOCKED: ATOM     46  C   UNL d   1     -22.589   1.193   7.085 -0.09 +0.00    +0.012 C 
DOCKED: ENDBRANCH  12  45
DOCKED: BRANCH  17  47
DOCKED: ATOM     47  C   UNL d   1     -20.505   2.892  14.616 -0.04 +0.00    +0.004 C 
DOCKED: ATOM     48  C   UNL d   1     -19.903   2.030  15.439 -0.05 +0.00    +0.012 C 
DOCKED: ENDBRANCH  17  47
DOCKED: TORSDOF 12
DOCKED: TER
DOCKED: ENDMDL
________________________________________________________________________________


	BEGINNING GENETIC ALGORITHM DOCKING 35 of 100
Run: 35 Seed: 600363582 2086848630 [ Run 35 of 100 GA/GALS ]
Beginning LAMARCKIAN GENETIC ALGORITHM (LGA), with a maximum of 25000000 energy evaluations.

Final-Value: -10.022


	FINAL GENETIC ALGORITHM DOCKED STATE
	_______________________________________________


Detailed state:  trans -11.629 5.016 16.457 quatxyzw 0.197568 -0.433309 -0.093231 -0.874367 center 8.781 34.984 -0.736 ntor 12 8.1650 109.5082 59.4263 115.6189 138.1232 151.2058 -164.7715 123.8918 105.6857 70.1484 41.3122 150.0890
State:	-11.629   5.016  16.457   0.407 -0.893 -0.192 -58.060      8.17  109.51   59.43  115.62  138.12  151.21 -164.77  123.89  105.69   70.15   41.31  150.09

DOCKED: MODEL       35
DOCKED: USER    Run = 35
DOCKED: USER    DPF = D:/Protein_go_brrr/autodock/final/mut_Y35F/heme_Co/dock.dpf
DOCKED: USER  
DOCKED: USER    Estimated Free Energy of Binding    =   -5.72 kcal/mol  [=(1)+(2)+(3)-(4)]
DOCKED: USER    Estimated Inhibition Constant, Ki   =   64.26 uM (micromolar)  [Temperature = 298.15 K]
DOCKED: USER    
DOCKED: USER    (1) Final Intermolecular Energy     =   -9.30 kcal/mol
DOCKED: USER        vdW + Hbond + desolv Energy     =   -5.51 kcal/mol
DOCKED: USER        Electrostatic Energy            =   -3.79 kcal/mol
DOCKED: USER    (2) Final Total Internal Energy     =   -0.72 kcal/mol
DOCKED: USER    (3) Torsional Free Energy           =   +3.58 kcal/mol
DOCKED: USER    (4) Unbound System's Energy  [=(2)] =   -0.72 kcal/mol
DOCKED: USER    
DOCKED: USER    
DOCKED: USER    NEWDPF move heme_Co_opt.pdbqt
DOCKED: USER    NEWDPF about 8.781000 34.984000 -0.736000
DOCKED: USER    NEWDPF tran0 -11.629200 5.016391 16.456508
DOCKED: USER    NEWDPF quaternion0 0.197568 -0.433309 -0.093231 -0.874367
DOCKED: USER    NEWDPF axisangle0 0.407134 -0.892933 -0.192124 -58.059643
DOCKED: USER    NEWDPF quat0 0.407134 -0.892933 -0.192124 -58.059643
DOCKED: USER    NEWDPF dihe0 8.17 109.51 59.43 115.62 138.12 151.21 -164.77 123.89 105.69 70.15 41.31 150.09 
DOCKED: USER  keepresnum = 1 
DOCKED: USER  
DOCKED: REMARK  12 active torsions:
DOCKED: REMARK  status: ('A' for Active; 'I' for Inactive)
DOCKED: REMARK    1  A    between atoms: C_6  and  C_10 
DOCKED: REMARK    2  A    between atoms: C_10  and  C_11 
DOCKED: REMARK    3  A    between atoms: C_11  and  C_12 
DOCKED: REMARK    4  A    between atoms: C_12  and  O_14 
DOCKED: REMARK    5  A    between atoms: C_17  and  C_20 
DOCKED: REMARK    6  A    between atoms: C_24  and  C_27 
DOCKED: REMARK    7  A    between atoms: C_31  and  C_34 
DOCKED: REMARK    8  A    between atoms: C_34  and  C_35 
DOCKED: REMARK    9  A    between atoms: C_35  and  C_36 
DOCKED: REMARK   10  A    between atoms: C_36  and  O_38 
DOCKED: REMARK   11  A    between atoms: FE_43  and  C_44 
DOCKED: REMARK   12  A    between atoms: C_44  and  O_45 
DOCKED: USER                              x       y       z     vdW  Elec       q    Type
DOCKED: USER                           _______ _______ _______ _____ _____    ______ ____
DOCKED: ROOT
DOCKED: ATOM      1  C   UNL d   1     -12.133   6.340  14.810 -0.10 +0.04    +0.064 A 
DOCKED: ATOM      2  C   UNL d   1     -14.314   2.524  16.624 -0.10 +0.01    +0.064 C 
DOCKED: ATOM      3  C   UNL d   1     -10.654   1.804  19.609 -0.10 +0.00    +0.064 A 
DOCKED: ATOM      4  C   UNL d   1      -8.583   5.917  18.041 -0.15 +0.01    +0.064 A 
DOCKED: ATOM      5  C   UNL d   1     -12.981   5.329  15.061 -0.11 +0.03    +0.066 A 
DOCKED: ATOM      6  C   UNL d   1     -14.233   5.228  14.424 -0.09 -0.01    -0.021 A 
DOCKED: ATOM      7  C   UNL d   1     -14.871   4.132  14.970 -0.08 -0.01    -0.025 A 
DOCKED: ATOM      8  C   UNL d   1     -13.976   3.602  15.906 -0.08 +0.01    +0.066 A 
DOCKED: ATOM      9  C   UNL d   1     -16.270   3.593  14.636 -0.04 +0.01    +0.051 C 
DOCKED: ATOM     10  C   UNL d   1     -13.449   1.893  17.590 -0.09 +0.00    +0.066 A 
DOCKED: ATOM     11  C   UNL d   1     -13.689   0.681  18.273 -0.07 -0.00    -0.021 A 
DOCKED: ATOM     12  C   UNL d   1     -12.604   0.493  19.134 -0.08 +0.00    +0.000 A 
DOCKED: ATOM     13  C   UNL d   1     -11.779   1.594  18.904 -0.11 +0.00    +0.070 A 
DOCKED: ATOM     14  C   UNL d   1     -14.837  -0.265  18.034 -0.06 -0.00    +0.052 C 
DOCKED: ATOM     15  C   UNL d   1      -9.716   2.907  19.540 -0.06 +0.00    +0.066 A 
DOCKED: ATOM     16  C   UNL d   1      -8.650   3.137  20.398 -0.08 -0.00    -0.021 A 
DOCKED: ATOM     17  C   UNL d   1      -8.051   4.324  19.951 -0.11 +0.00    +0.000 A 
DOCKED: ATOM     18  C   UNL d   1      -8.792   4.716  18.841 -0.14 +0.01    +0.070 A 
DOCKED: ATOM     19  C   UNL d   1      -8.258   2.257  21.564 -0.04 +0.00    +0.052 C 
DOCKED: ATOM     20  C   UNL d   1      -9.341   6.364  17.012 -0.18 +0.01    +0.066 A 
DOCKED: ATOM     21  C   UNL d   1      -9.060   7.553  16.343 -0.20 -0.01    -0.025 A 
DOCKED: ATOM     22  C   UNL d   1     -10.050   7.686  15.387 -0.18 -0.01    -0.021 A 
DOCKED: ATOM     23  C   UNL d   1     -10.900   6.569  15.529 -0.15 +0.02    +0.066 A 
DOCKED: ATOM     24  C   UNL d   1      -7.915   8.526  16.614 -0.19 +0.01    +0.051 C 
DOCKED: ATOM     25  N   UNL d   1     -12.794   4.320  15.979 -0.05 -0.05    -0.248 N 
DOCKED: ATOM     26  N   UNL d   1     -12.264   2.410  17.930 -0.09 -0.01    -0.248 N 
DOCKED: ATOM     27  N   UNL d   1      -9.793   3.866  18.644 -0.09 -0.00    -0.248 N 
DOCKED: ATOM     28  N   UNL d   1     -10.476   5.767  16.513 -0.12 -0.04    -0.248 N 
DOCKED: ATOM     29 FE   UNL d   1     -11.203   4.082  17.389 -0.03 +0.00    +0.000 Fe
DOCKED: ENDROOT
DOCKED: BRANCH   6  30
DOCKED: ATOM     30  C   UNL d   1     -14.811   6.195  13.396 -0.11 +0.04    +0.052 C 
DOCKED: BRANCH  30  31
DOCKED: ATOM     31  C   UNL d   1     -15.217   5.450  12.125 -0.15 +0.10    +0.115 C 
DOCKED: BRANCH  31  32
DOCKED: ATOM     32  C   UNL d   1     -14.026   5.079  11.268 -0.10 +0.23    +0.139 C 
DOCKED: ATOM     33  O   UNL d   1     -13.209   4.275  11.691 -0.62 -1.15    -0.650 OA
DOCKED: BRANCH  32  34
DOCKED: ATOM     34  O   UNL d   1     -13.859   5.574  10.020 -0.06 -1.57    -0.776 OA
DOCKED: ATOM     35  H   UNL d   1     -14.441   6.230   9.612 +0.03 +0.26    +0.167 HD
DOCKED: ENDBRANCH  32  34
DOCKED: ENDBRANCH  31  32
DOCKED: ENDBRANCH  30  31
DOCKED: ENDBRANCH   6  30
DOCKED: BRANCH  29  36
DOCKED: ATOM     36  C   UNL d   1     -12.352   5.236  18.709 -0.02 +0.01    +0.190 C 
DOCKED: BRANCH  36  37
DOCKED: ATOM     37  O   UNL d   1     -13.543   5.962  18.808 +0.00 -0.03    -0.399 OA
DOCKED: ATOM     38  H   UNL d   1     -13.940   5.928  17.893 +0.01 +0.03    +0.209 HD
DOCKED: ENDBRANCH  36  37
DOCKED: ENDBRANCH  29  36
DOCKED: BRANCH  22  39
DOCKED: ATOM     39  C   UNL d   1     -10.202   8.858  14.435 -0.13 +0.03    +0.052 C 
DOCKED: BRANCH  39  40
DOCKED: ATOM     40  C   UNL d   1     -11.416   9.718  14.824 -0.11 +0.07    +0.115 C 
DOCKED: BRANCH  40  41
DOCKED: ATOM     41  C   UNL d   1     -12.524   9.739  13.791 -0.04 +0.17    +0.139 C 
DOCKED: ATOM     42  O   UNL d   1     -12.594  10.676  13.009 -0.66 -1.05    -0.650 OA
DOCKED: BRANCH  41  43
DOCKED: ATOM     43  O   UNL d   1     -13.386   8.708  13.653 -0.34 -1.09    -0.776 OA
DOCKED: ATOM     44  H   UNL d   1     -14.018   8.463  14.342 +0.02 +0.13    +0.167 HD
DOCKED: ENDBRANCH  41  43
DOCKED: ENDBRANCH  40  41
DOCKED: ENDBRANCH  39  40
DOCKED: ENDBRANCH  22  39
DOCKED: BRANCH  12  45
DOCKED: ATOM     45  C   UNL d   1     -12.245  -0.603  20.128 -0.04 +0.00    +0.004 C 
DOCKED: ATOM     46  C   UNL d   1     -11.322  -1.559  20.067 -0.06 +0.00    +0.012 C 
DOCKED: ENDBRANCH  12  45
DOCKED: BRANCH  17  47
DOCKED: ATOM     47  C   UNL d   1      -6.904   5.088  20.526 -0.06 +0.00    +0.004 C 
DOCKED: ATOM     48  C   UNL d   1      -5.748   5.275  19.885 -0.10 +0.00    +0.012 C 
DOCKED: ENDBRANCH  17  47
DOCKED: TORSDOF 12
DOCKED: TER
DOCKED: ENDMDL
________________________________________________________________________________


	BEGINNING GENETIC ALGORITHM DOCKING 36 of 100
Run: 36 Seed: 1142652066 469963151 [ Run 36 of 100 GA/GALS ]
Beginning LAMARCKIAN GENETIC ALGORITHM (LGA), with a maximum of 25000000 energy evaluations.

Final-Value: -10.772


	FINAL GENETIC ALGORITHM DOCKED STATE
	_______________________________________________


Detailed state:  trans 14.532 11.948 4.370 quatxyzw 0.694722 0.595455 -0.393071 0.091050 center 8.781 34.984 -0.736 ntor 12 6.5321 8.5972 -36.6069 -112.7507 -87.1946 -168.2784 153.3580 118.7463 61.8475 -61.3791 156.0099 133.9636
State:	 14.532  11.948   4.370   0.698  0.598 -0.395 169.552      6.53    8.60  -36.61 -112.75  -87.19 -168.28  153.36  118.75   61.85  -61.38  156.01  133.96

DOCKED: MODEL       36
DOCKED: USER    Run = 36
DOCKED: USER    DPF = D:/Protein_go_brrr/autodock/final/mut_Y35F/heme_Co/dock.dpf
DOCKED: USER  
DOCKED: USER    Estimated Free Energy of Binding    =   -6.41 kcal/mol  [=(1)+(2)+(3)-(4)]
DOCKED: USER    Estimated Inhibition Constant, Ki   =   19.93 uM (micromolar)  [Temperature = 298.15 K]
DOCKED: USER    
DOCKED: USER    (1) Final Intermolecular Energy     =   -9.99 kcal/mol
DOCKED: USER        vdW + Hbond + desolv Energy     =   -8.13 kcal/mol
DOCKED: USER        Electrostatic Energy            =   -1.86 kcal/mol
DOCKED: USER    (2) Final Total Internal Energy     =   -0.78 kcal/mol
DOCKED: USER    (3) Torsional Free Energy           =   +3.58 kcal/mol
DOCKED: USER    (4) Unbound System's Energy  [=(2)] =   -0.78 kcal/mol
DOCKED: USER    
DOCKED: USER    
DOCKED: USER    NEWDPF move heme_Co_opt.pdbqt
DOCKED: USER    NEWDPF about 8.781000 34.984000 -0.736000
DOCKED: USER    NEWDPF tran0 14.531787 11.947607 4.369963
DOCKED: USER    NEWDPF quaternion0 0.694722 0.595455 -0.393071 0.091050
DOCKED: USER    NEWDPF axisangle0 0.697620 0.597939 -0.394710 169.552009
DOCKED: USER    NEWDPF quat0 0.697620 0.597939 -0.394710 169.552009
DOCKED: USER    NEWDPF dihe0 6.53 8.60 -36.61 -112.75 -87.19 -168.28 153.36 118.75 61.85 -61.38 156.01 133.96 
DOCKED: USER  keepresnum = 1 
DOCKED: USER  
DOCKED: REMARK  12 active torsions:
DOCKED: REMARK  status: ('A' for Active; 'I' for Inactive)
DOCKED: REMARK    1  A    between atoms: C_6  and  C_10 
DOCKED: REMARK    2  A    between atoms: C_10  and  C_11 
DOCKED: REMARK    3  A    between atoms: C_11  and  C_12 
DOCKED: REMARK    4  A    between atoms: C_12  and  O_14 
DOCKED: REMARK    5  A    between atoms: C_17  and  C_20 
DOCKED: REMARK    6  A    between atoms: C_24  and  C_27 
DOCKED: REMARK    7  A    between atoms: C_31  and  C_34 
DOCKED: REMARK    8  A    between atoms: C_34  and  C_35 
DOCKED: REMARK    9  A    between atoms: C_35  and  C_36 
DOCKED: REMARK   10  A    between atoms: C_36  and  O_38 
DOCKED: REMARK   11  A    between atoms: FE_43  and  C_44 
DOCKED: REMARK   12  A    between atoms: C_44  and  O_45 
DOCKED: USER                              x       y       z     vdW  Elec       q    Type
DOCKED: USER                           _______ _______ _______ _____ _____    ______ ____
DOCKED: ROOT
DOCKED: ATOM      1  C   UNL d   1      15.500  10.362   5.493 +0.02 +0.02    +0.064 A 
DOCKED: ATOM      2  C   UNL d   1      11.022  10.947   4.005 -0.27 -0.01    +0.064 C 
DOCKED: ATOM      3  C   UNL d   1      12.097  15.305   2.367 -0.16 -0.02    +0.064 A 
DOCKED: ATOM      4  C   UNL d   1      16.764  14.577   3.530 -0.08 -0.00    +0.064 A 
DOCKED: ATOM      5  C   UNL d   1      14.189  10.216   5.240 -0.11 +0.01    +0.066 A 
DOCKED: ATOM      6  C   UNL d   1      13.504   9.017   5.515 -0.12 -0.00    -0.021 A 
DOCKED: ATOM      7  C   UNL d   1      12.210   9.184   5.060 -0.17 -0.00    -0.025 A 
DOCKED: ATOM      8  C   UNL d   1      12.158  10.483   4.542 -0.18 +0.00    +0.066 A 
DOCKED: ATOM      9  C   UNL d   1      11.057   8.170   5.104 -0.26 +0.01    +0.051 C 
DOCKED: ATOM     10  C   UNL d   1      10.866  12.278   3.472 -0.14 -0.01    +0.066 A 
DOCKED: ATOM     11  C   UNL d   1       9.667  12.871   3.024 -0.39 +0.00    -0.021 A 
DOCKED: ATOM     12  C   UNL d   1      10.008  14.143   2.555 -0.42 -0.00    +0.000 A 
DOCKED: ATOM     13  C   UNL d   1      11.384  14.236   2.764 -0.23 -0.02    +0.070 A 
DOCKED: ATOM     14  C   UNL d   1       8.284  12.282   3.134 -0.46 -0.00    +0.052 C 
DOCKED: ATOM     15  C   UNL d   1      13.524  15.543   2.455 -0.11 -0.02    +0.066 A 
DOCKED: ATOM     16  C   UNL d   1      14.217  16.607   1.894 -0.11 +0.01    -0.021 A 
DOCKED: ATOM     17  C   UNL d   1      15.564  16.400   2.225 -0.10 -0.00    +0.000 A 
DOCKED: ATOM     18  C   UNL d   1      15.584  15.231   2.978 -0.08 -0.02    +0.070 A 
DOCKED: ATOM     19  C   UNL d   1      13.598  17.734   1.097 -0.09 -0.04    +0.052 C 
DOCKED: ATOM     20  C   UNL d   1      16.818  13.396   4.191 -0.05 +0.01    +0.066 A 
DOCKED: ATOM     21  C   UNL d   1      18.018  12.852   4.643 -0.05 -0.00    -0.025 A 
DOCKED: ATOM     22  C   UNL d   1      17.682  11.650   5.238 -0.04 -0.01    -0.021 A 
DOCKED: ATOM     23  C   UNL d   1      16.283  11.514   5.109 -0.05 +0.02    +0.066 A 
DOCKED: ATOM     24  C   UNL d   1      19.420  13.437   4.496 -0.05 +0.01    +0.051 C 
DOCKED: ATOM     25  N   UNL d   1      13.368  11.147   4.646 -0.08 -0.02    -0.248 N 
DOCKED: ATOM     26  N   UNL d   1      11.892  13.129   3.369 -0.13 +0.04    -0.248 N 
DOCKED: ATOM     27  N   UNL d   1      14.356  14.732   3.069 -0.04 +0.05    -0.248 N 
DOCKED: ATOM     28  N   UNL d   1      15.757  12.568   4.474 -0.07 -0.03    -0.248 N 
DOCKED: ATOM     29 FE   UNL d   1      13.895  13.046   3.812 -0.03 -0.00    +0.000 Fe
DOCKED: ENDROOT
DOCKED: BRANCH   6  30
DOCKED: ATOM     30  C   UNL d   1      14.098   7.746   6.113 -0.11 +0.01    +0.052 C 
DOCKED: BRANCH  30  31
DOCKED: ATOM     31  C   UNL d   1      13.938   6.572   5.147 -0.21 +0.03    +0.115 C 
DOCKED: BRANCH  31  32
DOCKED: ATOM     32  C   UNL d   1      13.125   5.442   5.742 -0.16 +0.07    +0.139 C 
DOCKED: ATOM     33  O   UNL d   1      12.338   5.679   6.646 -0.14 -0.46    -0.650 OA
DOCKED: BRANCH  32  34
DOCKED: ATOM     34  O   UNL d   1      13.206   4.176   5.271 -0.33 -0.47    -0.776 OA
DOCKED: ATOM     35  H   UNL d   1      13.798   3.897   4.559 +0.08 +0.06    +0.167 HD
DOCKED: ENDBRANCH  32  34
DOCKED: ENDBRANCH  31  32
DOCKED: ENDBRANCH  30  31
DOCKED: ENDBRANCH   6  30
DOCKED: BRANCH  29  36
DOCKED: ATOM     36  C   UNL d   1      14.249  12.031   2.012 -0.20 +0.00    +0.190 C 
DOCKED: BRANCH  36  37
DOCKED: ATOM     37  O   UNL d   1      13.780  10.983   1.214 -0.70 +0.00    -0.399 OA
DOCKED: ATOM     38  H   UNL d   1      14.436  10.243   1.350 -0.45 -0.02    +0.209 HD
DOCKED: ENDBRANCH  36  37
DOCKED: ENDBRANCH  29  36
DOCKED: BRANCH  22  39
DOCKED: ATOM     39  C   UNL d   1      18.663  10.660   5.839 -0.07 +0.01    +0.052 C 
DOCKED: BRANCH  39  40
DOCKED: ATOM     40  C   UNL d   1      18.488   9.270   5.205 -0.12 +0.05    +0.115 C 
DOCKED: BRANCH  40  41
DOCKED: ATOM     41  C   UNL d   1      19.662   8.813   4.366 -0.18 +0.10    +0.139 C 
DOCKED: ATOM     42  O   UNL d   1      19.581   8.862   3.147 -0.45 -0.78    -0.650 OA
DOCKED: BRANCH  41  43
DOCKED: ATOM     43  O   UNL d   1      20.832   8.435   4.927 +0.02 -0.48    -0.776 OA
DOCKED: ATOM     44  H   UNL d   1      21.151   8.804   5.761 +0.02 +0.06    +0.167 HD
DOCKED: ENDBRANCH  41  43
DOCKED: ENDBRANCH  40  41
DOCKED: ENDBRANCH  39  40
DOCKED: ENDBRANCH  22  39
DOCKED: BRANCH  12  45
DOCKED: ATOM     45  C   UNL d   1       9.194  15.282   1.956 -0.46 -0.00    +0.004 C 
DOCKED: ATOM     46  C   UNL d   1       9.295  15.891   0.777 -0.39 -0.00    +0.012 C 
DOCKED: ENDBRANCH  12  45
DOCKED: BRANCH  17  47
DOCKED: ATOM     47  C   UNL d   1      16.772  17.188   1.839 -0.08 -0.00    +0.004 C 
DOCKED: ATOM     48  C   UNL d   1      17.692  16.751   0.975 -0.11 -0.01    +0.012 C 
DOCKED: ENDBRANCH  17  47
DOCKED: TORSDOF 12
DOCKED: TER
DOCKED: ENDMDL
________________________________________________________________________________


	BEGINNING GENETIC ALGORITHM DOCKING 37 of 100
Run: 37 Seed: 1774440146 1450115657 [ Run 37 of 100 GA/GALS ]
Beginning LAMARCKIAN GENETIC ALGORITHM (LGA), with a maximum of 25000000 energy evaluations.

Final-Value: -9.910


	FINAL GENETIC ALGORITHM DOCKED STATE
	_______________________________________________


Detailed state:  trans 2.290 -16.619 -9.715 quatxyzw -0.731106 0.138304 -0.663720 -0.076367 center 8.781 34.984 -0.736 ntor 12 61.3688 109.8930 53.2493 120.5170 69.1662 156.5674 -179.5048 -179.9014 -93.8155 -54.2669 -8.2497 179.1880
State:	  2.290 -16.619  -9.715  -0.733  0.139 -0.666 -171.240     61.37  109.89   53.25  120.52   69.17  156.57 -179.50 -179.90  -93.82  -54.27   -8.25  179.19

DOCKED: MODEL       37
DOCKED: USER    Run = 37
DOCKED: USER    DPF = D:/Protein_go_brrr/autodock/final/mut_Y35F/heme_Co/dock.dpf
DOCKED: USER  
DOCKED: USER    Estimated Free Energy of Binding    =   -5.44 kcal/mol  [=(1)+(2)+(3)-(4)]
DOCKED: USER    Estimated Inhibition Constant, Ki   =  102.57 uM (micromolar)  [Temperature = 298.15 K]
DOCKED: USER    
DOCKED: USER    (1) Final Intermolecular Energy     =   -9.02 kcal/mol
DOCKED: USER        vdW + Hbond + desolv Energy     =   -8.22 kcal/mol
DOCKED: USER        Electrostatic Energy            =   -0.80 kcal/mol
DOCKED: USER    (2) Final Total Internal Energy     =   -0.89 kcal/mol
DOCKED: USER    (3) Torsional Free Energy           =   +3.58 kcal/mol
DOCKED: USER    (4) Unbound System's Energy  [=(2)] =   -0.89 kcal/mol
DOCKED: USER    
DOCKED: USER    
DOCKED: USER    NEWDPF move heme_Co_opt.pdbqt
DOCKED: USER    NEWDPF about 8.781000 34.984000 -0.736000
DOCKED: USER    NEWDPF tran0 2.290029 -16.619456 -9.714998
DOCKED: USER    NEWDPF quaternion0 -0.731106 0.138304 -0.663720 -0.076367
DOCKED: USER    NEWDPF axisangle0 -0.733247 0.138709 -0.665664 -171.240457
DOCKED: USER    NEWDPF quat0 -0.733247 0.138709 -0.665664 -171.240457
DOCKED: USER    NEWDPF dihe0 61.37 109.89 53.25 120.52 69.17 156.57 -179.50 -179.90 -93.82 -54.27 -8.25 179.19 
DOCKED: USER  keepresnum = 1 
DOCKED: USER  
DOCKED: REMARK  12 active torsions:
DOCKED: REMARK  status: ('A' for Active; 'I' for Inactive)
DOCKED: REMARK    1  A    between atoms: C_6  and  C_10 
DOCKED: REMARK    2  A    between atoms: C_10  and  C_11 
DOCKED: REMARK    3  A    between atoms: C_11  and  C_12 
DOCKED: REMARK    4  A    between atoms: C_12  and  O_14 
DOCKED: REMARK    5  A    between atoms: C_17  and  C_20 
DOCKED: REMARK    6  A    between atoms: C_24  and  C_27 
DOCKED: REMARK    7  A    between atoms: C_31  and  C_34 
DOCKED: REMARK    8  A    between atoms: C_34  and  C_35 
DOCKED: REMARK    9  A    between atoms: C_35  and  C_36 
DOCKED: REMARK   10  A    between atoms: C_36  and  O_38 
DOCKED: REMARK   11  A    between atoms: FE_43  and  C_44 
DOCKED: REMARK   12  A    between atoms: C_44  and  O_45 
DOCKED: USER                              x       y       z     vdW  Elec       q    Type
DOCKED: USER                           _______ _______ _______ _____ _____    ______ ____
DOCKED: ROOT
DOCKED: ATOM      1  C   UNL d   1       1.241 -16.445 -11.608 -0.21 -0.01    +0.064 A 
DOCKED: ATOM      2  C   UNL d   1       5.314 -14.569 -10.028 -0.24 -0.02    +0.064 C 
DOCKED: ATOM      3  C   UNL d   1       4.549 -16.453  -5.705 -0.17 -0.02    +0.064 A 
DOCKED: ATOM      4  C   UNL d   1       0.581 -18.699  -7.400 -0.24 -0.04    +0.064 A 
DOCKED: ATOM      5  C   UNL d   1       2.392 -15.764 -11.484 -0.20 -0.02    +0.066 A 
DOCKED: ATOM      6  C   UNL d   1       2.999 -15.117 -12.578 -0.15 +0.00    -0.021 A 
DOCKED: ATOM      7  C   UNL d   1       4.192 -14.593 -12.119 -0.18 +0.01    -0.025 A 
DOCKED: ATOM      8  C   UNL d   1       4.254 -14.929 -10.762 -0.21 -0.02    +0.066 A 
DOCKED: ATOM      9  C   UNL d   1       5.244 -13.806 -12.915 -0.12 -0.01    +0.051 C 
DOCKED: ATOM     10  C   UNL d   1       5.454 -14.846  -8.620 -0.22 -0.03    +0.066 A 
DOCKED: ATOM     11  C   UNL d   1       6.473 -14.375  -7.764 -0.19 +0.01    -0.021 A 
DOCKED: ATOM     12  C   UNL d   1       6.223 -14.937  -6.509 -0.19 -0.00    +0.000 A 
DOCKED: ATOM     13  C   UNL d   1       5.066 -15.696  -6.688 -0.19 -0.03    +0.070 A 
DOCKED: ATOM     14  C   UNL d   1       7.547 -13.380  -8.120 -0.17 -0.04    +0.052 C 
DOCKED: ATOM     15  C   UNL d   1       3.398 -17.334  -5.731 -0.17 -0.02    +0.066 A 
DOCKED: ATOM     16  C   UNL d   1       3.002 -18.200  -4.722 -0.16 +0.01    -0.021 A 
DOCKED: ATOM     17  C   UNL d   1       1.859 -18.853  -5.207 -0.19 -0.00    +0.000 A 
DOCKED: ATOM     18  C   UNL d   1       1.638 -18.318  -6.472 -0.22 -0.04    +0.070 A 
DOCKED: ATOM     19  C   UNL d   1       3.697 -18.371  -3.389 -0.15 -0.01    +0.052 C 
DOCKED: ATOM     20  C   UNL d   1       0.398 -18.257  -8.667 -0.26 -0.03    +0.066 A 
DOCKED: ATOM     21  C   UNL d   1      -0.635 -18.725  -9.476 -0.29 +0.01    -0.025 A 
DOCKED: ATOM     22  C   UNL d   1      -0.488 -18.071 -10.686 -0.28 +0.00    -0.021 A 
DOCKED: ATOM     23  C   UNL d   1       0.644 -17.239 -10.558 -0.25 -0.01    +0.066 A 
DOCKED: ATOM     24  C   UNL d   1      -1.700 -19.760  -9.122 -0.30 -0.01    +0.051 C 
DOCKED: ATOM     25  N   UNL d   1       3.149 -15.649 -10.340 -0.14 +0.10    -0.248 N 
DOCKED: ATOM     26  N   UNL d   1       4.571 -15.595  -7.951 -0.14 +0.11    -0.248 N 
DOCKED: ATOM     27  N   UNL d   1       2.591 -17.439  -6.763 -0.11 +0.12    -0.248 N 
DOCKED: ATOM     28  N   UNL d   1       1.185 -17.350  -9.338 -0.17 +0.09    -0.248 N 
DOCKED: ATOM     29 FE   UNL d   1       2.850 -16.598  -8.447 -0.05 -0.00    +0.000 Fe
DOCKED: ENDROOT
DOCKED: BRANCH   6  30
DOCKED: ATOM     30  C   UNL d   1       2.485 -15.081 -14.013 -0.09 -0.01    +0.052 C 
DOCKED: BRANCH  30  31
DOCKED: ATOM     31  C   UNL d   1       1.316 -14.105 -14.142 -0.14 -0.01    +0.115 C 
DOCKED: BRANCH  31  32
DOCKED: ATOM     32  C   UNL d   1       1.777 -12.678 -14.348 -0.16 -0.01    +0.139 C 
DOCKED: ATOM     33  O   UNL d   1       2.591 -12.430 -15.225 -0.04 +0.02    -0.650 OA
DOCKED: BRANCH  32  34
DOCKED: ATOM     34  O   UNL d   1       1.278 -11.650 -13.622 -0.18 -0.00    -0.776 OA
DOCKED: ATOM     35  H   UNL d   1       1.306 -11.603 -12.656 -0.37 -0.03    +0.167 HD
DOCKED: ENDBRANCH  32  34
DOCKED: ENDBRANCH  31  32
DOCKED: ENDBRANCH  30  31
DOCKED: ENDBRANCH   6  30
DOCKED: BRANCH  29  36
DOCKED: ATOM     36  C   UNL d   1       3.995 -18.190  -9.191 -0.04 -0.04    +0.190 C 
DOCKED: BRANCH  36  37
DOCKED: ATOM     37  O   UNL d   1       4.718 -18.614 -10.310 +0.00 +0.06    -0.399 OA
DOCKED: ATOM     38  H   UNL d   1       4.592 -17.891 -10.986 +0.02 -0.03    +0.209 HD
DOCKED: ENDBRANCH  36  37
DOCKED: ENDBRANCH  29  36
DOCKED: BRANCH  22  39
DOCKED: ATOM     39  C   UNL d   1      -1.351 -18.288 -11.914 -0.27 +0.01    +0.052 C 
DOCKED: BRANCH  39  40
DOCKED: ATOM     40  C   UNL d   1      -0.923 -19.563 -12.660 -0.14 +0.03    +0.115 C 
DOCKED: BRANCH  40  41
DOCKED: ATOM     41  C   UNL d   1      -2.011 -20.609 -12.784 -0.14 +0.07    +0.139 C 
DOCKED: ATOM     42  O   UNL d   1      -2.733 -20.838 -11.824 -0.02 -0.29    -0.650 OA
DOCKED: BRANCH  41  43
DOCKED: ATOM     43  O   UNL d   1      -2.262 -21.238 -13.954 -0.08 -0.77    -0.776 OA
DOCKED: ATOM     44  H   UNL d   1      -1.596 -21.764 -14.414 +0.01 +0.12    +0.167 HD
DOCKED: ENDBRANCH  41  43
DOCKED: ENDBRANCH  40  41
DOCKED: ENDBRANCH  39  40
DOCKED: ENDBRANCH  22  39
DOCKED: BRANCH  12  45
DOCKED: ATOM     45  C   UNL d   1       6.929 -14.829  -5.164 -0.25 -0.00    +0.004 C 
DOCKED: ATOM     46  C   UNL d   1       6.539 -14.265  -4.024 -0.34 -0.01    +0.012 C 
DOCKED: ENDBRANCH  12  45
DOCKED: BRANCH  17  47
DOCKED: ATOM     47  C   UNL d   1       1.042 -19.935  -4.583 -0.14 -0.00    +0.004 C 
DOCKED: ATOM     48  C   UNL d   1       0.614 -19.900  -3.319 -0.27 -0.00    +0.012 C 
DOCKED: ENDBRANCH  17  47
DOCKED: TORSDOF 12
DOCKED: TER
DOCKED: ENDMDL
________________________________________________________________________________


	BEGINNING GENETIC ALGORITHM DOCKING 38 of 100
Run: 38 Seed: 696174223 654571288 [ Run 38 of 100 GA/GALS ]
Beginning LAMARCKIAN GENETIC ALGORITHM (LGA), with a maximum of 25000000 energy evaluations.

Final-Value: -9.245


	FINAL GENETIC ALGORITHM DOCKED STATE
	_______________________________________________


Detailed state:  trans 3.688 2.339 -15.926 quatxyzw 0.828139 0.369377 -0.183546 0.379548 center 8.781 34.984 -0.736 ntor 12 -126.3231 103.3109 -31.2307 121.3779 90.2185 153.6053 31.9005 -157.8971 109.2173 140.8933 16.5650 32.0393
State:	  3.688   2.339 -15.926   0.895  0.399 -0.198 135.389   -126.32  103.31  -31.23  121.38   90.22  153.61   31.90 -157.90  109.22  140.89   16.56   32.04

DOCKED: MODEL       38
DOCKED: USER    Run = 38
DOCKED: USER    DPF = D:/Protein_go_brrr/autodock/final/mut_Y35F/heme_Co/dock.dpf
DOCKED: USER  
DOCKED: USER    Estimated Free Energy of Binding    =   -3.29 kcal/mol  [=(1)+(2)+(3)-(4)]
DOCKED: USER    Estimated Inhibition Constant, Ki   =    3.87 mM (millimolar)  [Temperature = 298.15 K]
DOCKED: USER    
DOCKED: USER    (1) Final Intermolecular Energy     =   -6.87 kcal/mol
DOCKED: USER        vdW + Hbond + desolv Energy     =   -5.95 kcal/mol
DOCKED: USER        Electrostatic Energy            =   -0.92 kcal/mol
DOCKED: USER    (2) Final Total Internal Energy     =   -2.37 kcal/mol
DOCKED: USER    (3) Torsional Free Energy           =   +3.58 kcal/mol
DOCKED: USER    (4) Unbound System's Energy  [=(2)] =   -2.37 kcal/mol
DOCKED: USER    
DOCKED: USER    
DOCKED: USER    NEWDPF move heme_Co_opt.pdbqt
DOCKED: USER    NEWDPF about 8.781000 34.984000 -0.736000
DOCKED: USER    NEWDPF tran0 3.687584 2.339175 -15.925731
DOCKED: USER    NEWDPF quaternion0 0.828139 0.369377 -0.183546 0.379548
DOCKED: USER    NEWDPF axisangle0 0.895119 0.399252 -0.198391 135.388640
DOCKED: USER    NEWDPF quat0 0.895119 0.399252 -0.198391 135.388640
DOCKED: USER    NEWDPF dihe0 -126.32 103.31 -31.23 121.38 90.22 153.61 31.90 -157.90 109.22 140.89 16.56 32.04 
DOCKED: USER  keepresnum = 1 
DOCKED: USER  
DOCKED: REMARK  12 active torsions:
DOCKED: REMARK  status: ('A' for Active; 'I' for Inactive)
DOCKED: REMARK    1  A    between atoms: C_6  and  C_10 
DOCKED: REMARK    2  A    between atoms: C_10  and  C_11 
DOCKED: REMARK    3  A    between atoms: C_11  and  C_12 
DOCKED: REMARK    4  A    between atoms: C_12  and  O_14 
DOCKED: REMARK    5  A    between atoms: C_17  and  C_20 
DOCKED: REMARK    6  A    between atoms: C_24  and  C_27 
DOCKED: REMARK    7  A    between atoms: C_31  and  C_34 
DOCKED: REMARK    8  A    between atoms: C_34  and  C_35 
DOCKED: REMARK    9  A    between atoms: C_35  and  C_36 
DOCKED: REMARK   10  A    between atoms: C_36  and  O_38 
DOCKED: REMARK   11  A    between atoms: FE_43  and  C_44 
DOCKED: REMARK   12  A    between atoms: C_44  and  O_45 
DOCKED: USER                              x       y       z     vdW  Elec       q    Type
DOCKED: USER                           _______ _______ _______ _____ _____    ______ ____
DOCKED: ROOT
DOCKED: ATOM      1  C   UNL d   1       3.143   0.248 -15.714 -0.08 +0.00    +0.064 A 
DOCKED: ATOM      2  C   UNL d   1       0.535   4.203 -16.118 -0.11 -0.00    +0.064 C 
DOCKED: ATOM      3  C   UNL d   1       4.494   6.874 -15.978 -0.23 -0.01    +0.064 A 
DOCKED: ATOM      4  C   UNL d   1       7.203   2.833 -15.953 -0.12 -0.00    +0.064 A 
DOCKED: ATOM      5  C   UNL d   1       2.138   1.134 -15.798 -0.09 +0.00    +0.066 A 
DOCKED: ATOM      6  C   UNL d   1       0.795   0.730 -15.934 -0.06 -0.00    -0.021 A 
DOCKED: ATOM      7  C   UNL d   1       0.045   1.881 -16.073 -0.06 -0.00    -0.025 A 
DOCKED: ATOM      8  C   UNL d   1       0.959   2.938 -16.000 -0.10 -0.00    +0.066 A 
DOCKED: ATOM      9  C   UNL d   1      -1.474   1.998 -16.270 -0.03 +0.00    +0.051 C 
DOCKED: ATOM     10  C   UNL d   1       1.397   5.354 -16.029 -0.15 -0.00    +0.066 A 
DOCKED: ATOM     11  C   UNL d   1       0.996   6.708 -16.004 -0.16 +0.00    -0.021 A 
DOCKED: ATOM     12  C   UNL d   1       2.170   7.465 -15.959 -0.20 -0.00    +0.000 A 
DOCKED: ATOM     13  C   UNL d   1       3.197   6.520 -15.947 -0.20 -0.01    +0.070 A 
DOCKED: ATOM     14  C   UNL d   1      -0.420   7.218 -15.930 -0.11 -0.00    +0.052 C 
DOCKED: ATOM     15  C   UNL d   1       5.675   6.034 -16.023 -0.28 -0.01    +0.066 A 
DOCKED: ATOM     16  C   UNL d   1       6.983   6.463 -16.200 -0.23 +0.00    -0.021 A 
DOCKED: ATOM     17  C   UNL d   1       7.768   5.301 -16.196 -0.22 -0.00    +0.000 A 
DOCKED: ATOM     18  C   UNL d   1       6.875   4.253 -15.999 -0.26 -0.01    +0.070 A 
DOCKED: ATOM     19  C   UNL d   1       7.420   7.902 -16.361 -0.18 -0.01    +0.052 C 
DOCKED: ATOM     20  C   UNL d   1       6.343   1.792 -15.850 -0.18 -0.00    +0.066 A 
DOCKED: ATOM     21  C   UNL d   1       6.776   0.467 -15.853 -0.14 -0.00    -0.025 A 
DOCKED: ATOM     22  C   UNL d   1       5.630  -0.300 -15.755 -0.10 -0.00    -0.021 A 
DOCKED: ATOM     23  C   UNL d   1       4.545   0.601 -15.710 -0.08 +0.00    +0.066 A 
DOCKED: ATOM     24  C   UNL d   1       8.210  -0.043 -15.963 -0.15 -0.00    +0.051 C 
DOCKED: ATOM     25  N   UNL d   1       2.262   2.504 -15.824 -0.08 -0.00    -0.248 N 
DOCKED: ATOM     26  N   UNL d   1       2.726   5.244 -15.933 -0.15 +0.03    -0.248 N 
DOCKED: ATOM     27  N   UNL d   1       5.635   4.724 -15.931 -0.23 +0.03    -0.248 N 
DOCKED: ATOM     28  N   UNL d   1       4.972   1.868 -15.769 -0.08 -0.00    -0.248 N 
DOCKED: ATOM     29 FE   UNL d   1       4.050   3.677 -15.880 -0.05 -0.00    +0.000 Fe
DOCKED: ENDROOT
DOCKED: BRANCH   6  30
DOCKED: ATOM     30  C   UNL d   1       0.280  -0.704 -16.007 -0.03 +0.00    +0.052 C 
DOCKED: BRANCH  30  31
DOCKED: ATOM     31  C   UNL d   1      -0.290  -1.140 -14.658 -0.06 +0.01    +0.115 C 
DOCKED: BRANCH  31  32
DOCKED: ATOM     32  C   UNL d   1       0.790  -1.382 -13.626 -0.13 +0.03    +0.139 C 
DOCKED: ATOM     33  O   UNL d   1       1.181  -2.522 -13.421 +0.00 -0.22    -0.650 OA
DOCKED: BRANCH  32  34
DOCKED: ATOM     34  O   UNL d   1       1.379  -0.367 -12.951 +0.07 -0.13    -0.776 OA
DOCKED: ATOM     35  H   UNL d   1       2.335  -0.258 -12.858 +0.07 +0.04    +0.167 HD
DOCKED: ENDBRANCH  32  34
DOCKED: ENDBRANCH  31  32
DOCKED: ENDBRANCH  30  31
DOCKED: ENDBRANCH   6  30
DOCKED: BRANCH  29  36
DOCKED: ATOM     36  C   UNL d   1       3.951   3.524 -17.968 -0.04 -0.01    +0.190 C 
DOCKED: BRANCH  36  37
DOCKED: ATOM     37  O   UNL d   1       3.202   2.968 -19.010 -0.00 +0.01    -0.399 OA
DOCKED: ATOM     38  H   UNL d   1       2.562   2.346 -18.563 +0.01 -0.00    +0.209 HD
DOCKED: ENDBRANCH  36  37
DOCKED: ENDBRANCH  29  36
DOCKED: BRANCH  22  39
DOCKED: ATOM     39  C   UNL d   1       5.582  -1.816 -15.772 -0.07 +0.01    +0.052 C 
DOCKED: BRANCH  39  40
DOCKED: ATOM     40  C   UNL d   1       4.675  -2.343 -14.648 -0.13 +0.05    +0.115 C 
DOCKED: BRANCH  40  41
DOCKED: ATOM     41  C   UNL d   1       4.883  -1.667 -13.309 -0.20 +0.08    +0.139 C 
DOCKED: ATOM     42  O   UNL d   1       5.926  -1.066 -13.098 -0.05 -0.22    -0.650 OA
DOCKED: BRANCH  41  43
DOCKED: ATOM     43  O   UNL d   1       3.910  -1.636 -12.371 -0.23 -0.65    -0.776 OA
DOCKED: ATOM     44  H   UNL d   1       2.973  -1.706 -12.592 +0.06 +0.12    +0.167 HD
DOCKED: ENDBRANCH  41  43
DOCKED: ENDBRANCH  40  41
DOCKED: ENDBRANCH  39  40
DOCKED: ENDBRANCH  22  39
DOCKED: BRANCH  12  45
DOCKED: ATOM     45  C   UNL d   1       2.439   8.963 -15.906 -0.21 -0.00    +0.004 C 
DOCKED: ATOM     46  C   UNL d   1       2.961   9.716 -14.941 -0.32 -0.00    +0.012 C 
DOCKED: ENDBRANCH  12  45
DOCKED: BRANCH  17  47
DOCKED: ATOM     47  C   UNL d   1       9.237   5.142 -16.409 -0.26 -0.00    +0.004 C 
DOCKED: ATOM     48  C   UNL d   1      10.159   5.573 -15.544 -0.35 -0.00    +0.012 C 
DOCKED: ENDBRANCH  17  47
DOCKED: TORSDOF 12
DOCKED: TER
DOCKED: ENDMDL
________________________________________________________________________________


	BEGINNING GENETIC ALGORITHM DOCKING 39 of 100
Run: 39 Seed: 2131692366 372843754 [ Run 39 of 100 GA/GALS ]
Beginning LAMARCKIAN GENETIC ALGORITHM (LGA), with a maximum of 25000000 energy evaluations.

Final-Value: -10.255


	FINAL GENETIC ALGORITHM DOCKED STATE
	_______________________________________________


Detailed state:  trans 18.110 5.642 4.722 quatxyzw -0.528928 0.002299 0.055123 0.846872 center 8.781 34.984 -0.736 ntor 12 18.9752 103.3760 -147.6680 101.7600 135.7278 83.1570 -169.6045 108.7044 62.5635 146.3319 -163.3782 -180.0000
State:	 18.110   5.642   4.722  -0.995  0.004  0.104 64.254     18.98  103.38 -147.67  101.76  135.73   83.16 -169.60  108.70   62.56  146.33 -163.38 -180.00

DOCKED: MODEL       39
DOCKED: USER    Run = 39
DOCKED: USER    DPF = D:/Protein_go_brrr/autodock/final/mut_Y35F/heme_Co/dock.dpf
DOCKED: USER  
DOCKED: USER    Estimated Free Energy of Binding    =   -4.71 kcal/mol  [=(1)+(2)+(3)-(4)]
DOCKED: USER    Estimated Inhibition Constant, Ki   =  353.78 uM (micromolar)  [Temperature = 298.15 K]
DOCKED: USER    
DOCKED: USER    (1) Final Intermolecular Energy     =   -8.29 kcal/mol
DOCKED: USER        vdW + Hbond + desolv Energy     =   -6.17 kcal/mol
DOCKED: USER        Electrostatic Energy            =   -2.12 kcal/mol
DOCKED: USER    (2) Final Total Internal Energy     =   -1.97 kcal/mol
DOCKED: USER    (3) Torsional Free Energy           =   +3.58 kcal/mol
DOCKED: USER    (4) Unbound System's Energy  [=(2)] =   -1.97 kcal/mol
DOCKED: USER    
DOCKED: USER    
DOCKED: USER    NEWDPF move heme_Co_opt.pdbqt
DOCKED: USER    NEWDPF about 8.781000 34.984000 -0.736000
DOCKED: USER    NEWDPF tran0 18.110108 5.641568 4.722320
DOCKED: USER    NEWDPF quaternion0 -0.528928 0.002299 0.055123 0.846872
DOCKED: USER    NEWDPF axisangle0 -0.994604 0.004323 0.103655 64.253947
DOCKED: USER    NEWDPF quat0 -0.994604 0.004323 0.103655 64.253947
DOCKED: USER    NEWDPF dihe0 18.98 103.38 -147.67 101.76 135.73 83.16 -169.60 108.70 62.56 146.33 -163.38 -180.00 
DOCKED: USER  keepresnum = 1 
DOCKED: USER  
DOCKED: REMARK  12 active torsions:
DOCKED: REMARK  status: ('A' for Active; 'I' for Inactive)
DOCKED: REMARK    1  A    between atoms: C_6  and  C_10 
DOCKED: REMARK    2  A    between atoms: C_10  and  C_11 
DOCKED: REMARK    3  A    between atoms: C_11  and  C_12 
DOCKED: REMARK    4  A    between atoms: C_12  and  O_14 
DOCKED: REMARK    5  A    between atoms: C_17  and  C_20 
DOCKED: REMARK    6  A    between atoms: C_24  and  C_27 
DOCKED: REMARK    7  A    between atoms: C_31  and  C_34 
DOCKED: REMARK    8  A    between atoms: C_34  and  C_35 
DOCKED: REMARK    9  A    between atoms: C_35  and  C_36 
DOCKED: REMARK   10  A    between atoms: C_36  and  O_38 
DOCKED: REMARK   11  A    between atoms: FE_43  and  C_44 
DOCKED: REMARK   12  A    between atoms: C_44  and  O_45 
DOCKED: USER                              x       y       z     vdW  Elec       q    Type
DOCKED: USER                           _______ _______ _______ _____ _____    ______ ____
DOCKED: ROOT
DOCKED: ATOM      1  C   UNL d   1      16.285   6.805   4.900 -0.19 +0.02    +0.064 A 
DOCKED: ATOM      2  C   UNL d   1      17.062   2.184   4.093 -0.33 +0.02    +0.064 C 
DOCKED: ATOM      3  C   UNL d   1      21.771   2.972   3.893 -0.10 +0.03    +0.064 A 
DOCKED: ATOM      4  C   UNL d   1      21.029   7.626   5.099 -0.09 +0.04    +0.064 A 
DOCKED: ATOM      5  C   UNL d   1      16.149   5.491   4.659 -0.22 +0.02    +0.066 A 
DOCKED: ATOM      6  C   UNL d   1      14.897   4.848   4.703 -0.28 -0.01    -0.021 A 
DOCKED: ATOM      7  C   UNL d   1      15.131   3.504   4.491 -0.39 -0.01    -0.025 A 
DOCKED: ATOM      8  C   UNL d   1      16.513   3.386   4.310 -0.29 +0.02    +0.066 A 
DOCKED: ATOM      9  C   UNL d   1      14.103   2.362   4.458 -0.34 +0.01    +0.051 C 
DOCKED: ATOM     10  C   UNL d   1      18.470   1.968   3.870 -0.20 +0.02    +0.066 A 
DOCKED: ATOM     11  C   UNL d   1      19.089   0.755   3.499 -0.28 -0.01    -0.021 A 
DOCKED: ATOM     12  C   UNL d   1      20.462   1.014   3.444 -0.20 +0.00    +0.000 A 
DOCKED: ATOM     13  C   UNL d   1      20.577   2.365   3.771 -0.14 +0.03    +0.070 A 
DOCKED: ATOM     14  C   UNL d   1      18.389  -0.529   3.133 -0.26 +0.01    +0.052 C 
DOCKED: ATOM     15  C   UNL d   1      22.074   4.338   4.273 -0.02 +0.04    +0.066 A 
DOCKED: ATOM     16  C   UNL d   1      23.334   4.862   4.521 -0.05 -0.01    -0.021 A 
DOCKED: ATOM     17  C   UNL d   1      23.126   6.204   4.871 -0.05 +0.00    +0.000 A 
DOCKED: ATOM     18  C   UNL d   1      21.750   6.397   4.792 -0.07 +0.05    +0.070 A 
DOCKED: ATOM     19  C   UNL d   1      24.637   4.100   4.421 -0.02 +0.01    +0.052 C 
DOCKED: ATOM     20  C   UNL d   1      19.688   7.813   5.113 -0.12 +0.04    +0.066 A 
DOCKED: ATOM     21  C   UNL d   1      19.111   9.033   5.460 -0.10 -0.01    -0.025 A 
DOCKED: ATOM     22  C   UNL d   1      17.745   8.835   5.383 -0.12 -0.01    -0.021 A 
DOCKED: ATOM     23  C   UNL d   1      17.554   7.489   5.002 -0.18 +0.03    +0.066 A 
DOCKED: ATOM     24  C   UNL d   1      19.826  10.320   5.864 -0.05 +0.01    +0.051 C 
DOCKED: ATOM     25  N   UNL d   1      17.168   4.602   4.402 -0.16 -0.10    -0.248 N 
DOCKED: ATOM     26  N   UNL d   1      19.368   2.954   3.974 -0.08 -0.12    -0.248 N 
DOCKED: ATOM     27  N   UNL d   1      21.154   5.257   4.463 -0.05 -0.20    -0.248 N 
DOCKED: ATOM     28  N   UNL d   1      18.728   6.867   4.840 -0.12 -0.16    -0.248 N 
DOCKED: ATOM     29 FE   UNL d   1      19.279   4.952   4.435 -0.04 +0.00    +0.000 Fe
DOCKED: ENDROOT
DOCKED: BRANCH   6  30
DOCKED: ATOM     30  C   UNL d   1      13.553   5.496   5.019 -0.23 +0.02    +0.052 C 
DOCKED: BRANCH  30  31
DOCKED: ATOM     31  C   UNL d   1      13.391   5.692   6.526 -0.16 +0.06    +0.115 C 
DOCKED: BRANCH  31  32
DOCKED: ATOM     32  C   UNL d   1      12.201   4.941   7.081 -0.18 +0.15    +0.139 C 
DOCKED: ATOM     33  O   UNL d   1      12.159   3.724   6.981 -0.33 -0.75    -0.650 OA
DOCKED: BRANCH  32  34
DOCKED: ATOM     34  O   UNL d   1      11.196   5.570   7.734 -0.37 -1.38    -0.776 OA
DOCKED: ATOM     35  H   UNL d   1      11.051   6.526   7.716 +0.04 +0.17    +0.167 HD
DOCKED: ENDBRANCH  32  34
DOCKED: ENDBRANCH  31  32
DOCKED: ENDBRANCH  30  31
DOCKED: ENDBRANCH   6  30
DOCKED: BRANCH  29  36
DOCKED: ATOM     36  C   UNL d   1      19.213   4.476   6.475 -0.03 +0.05    +0.190 C 
DOCKED: BRANCH  36  37
DOCKED: ATOM     37  O   UNL d   1      18.784   4.955   7.718 +0.00 -0.09    -0.399 OA
DOCKED: ATOM     38  H   UNL d   1      18.516   5.901   7.549 +0.02 +0.05    +0.209 HD
DOCKED: ENDBRANCH  36  37
DOCKED: ENDBRANCH  29  36
DOCKED: BRANCH  22  39
DOCKED: ATOM     39  C   UNL d   1      16.686   9.867   5.722 -0.07 +0.02    +0.052 C 
DOCKED: BRANCH  39  40
DOCKED: ATOM     40  C   UNL d   1      16.504   9.978   7.245 -0.02 +0.02    +0.115 C 
DOCKED: BRANCH  40  41
DOCKED: ATOM     41  C   UNL d   1      16.566   8.655   7.980 -0.00 +0.03    +0.139 C 
DOCKED: ATOM     42  O   UNL d   1      15.560   8.226   8.526 +0.02 -0.14    -0.650 OA
DOCKED: BRANCH  41  43
DOCKED: ATOM     43  O   UNL d   1      17.681   7.891   7.975 +0.02 -0.16    -0.776 OA
DOCKED: ATOM     44  H   UNL d   1      17.650   6.927   7.919 +0.01 +0.04    +0.167 HD
DOCKED: ENDBRANCH  41  43
DOCKED: ENDBRANCH  40  41
DOCKED: ENDBRANCH  39  40
DOCKED: ENDBRANCH  22  39
DOCKED: BRANCH  12  45
DOCKED: ATOM     45  C   UNL d   1      21.669   0.151   3.103 -0.15 +0.00    +0.004 C 
DOCKED: ATOM     46  C   UNL d   1      22.301  -0.036   1.947 -0.16 +0.00    +0.012 C 
DOCKED: ENDBRANCH  12  45
DOCKED: BRANCH  17  47
DOCKED: ATOM     47  C   UNL d   1      24.109   7.241   5.303 -0.02 +0.00    +0.004 C 
DOCKED: ATOM     48  C   UNL d   1      24.392   8.333   4.588 -0.01 +0.00    +0.012 C 
DOCKED: ENDBRANCH  17  47
DOCKED: TORSDOF 12
DOCKED: TER
DOCKED: ENDMDL
________________________________________________________________________________


	BEGINNING GENETIC ALGORITHM DOCKING 40 of 100
Run: 40 Seed: 1824806045 1290137768 [ Run 40 of 100 GA/GALS ]
Beginning LAMARCKIAN GENETIC ALGORITHM (LGA), with a maximum of 25000000 energy evaluations.

Final-Value: -9.683


	FINAL GENETIC ALGORITHM DOCKED STATE
	_______________________________________________


Detailed state:  trans 17.682 -1.813 4.640 quatxyzw 0.326889 0.453562 0.826215 0.069236 center 8.781 34.984 -0.736 ntor 12 44.1563 88.1481 -141.9024 97.8603 111.7321 122.5612 34.5287 116.3688 170.0423 140.5520 -168.9086 171.9082
State:	 17.682  -1.813   4.640   0.328  0.455  0.828 172.060     44.16   88.15 -141.90   97.86  111.73  122.56   34.53  116.37  170.04  140.55 -168.91  171.91

DOCKED: MODEL       40
DOCKED: USER    Run = 40
DOCKED: USER    DPF = D:/Protein_go_brrr/autodock/final/mut_Y35F/heme_Co/dock.dpf
DOCKED: USER  
DOCKED: USER    Estimated Free Energy of Binding    =   -2.21 kcal/mol  [=(1)+(2)+(3)-(4)]
DOCKED: USER    Estimated Inhibition Constant, Ki   =   23.85 mM (millimolar)  [Temperature = 298.15 K]
DOCKED: USER    
DOCKED: USER    (1) Final Intermolecular Energy     =   -5.79 kcal/mol
DOCKED: USER        vdW + Hbond + desolv Energy     =   -5.68 kcal/mol
DOCKED: USER        Electrostatic Energy            =   -0.11 kcal/mol
DOCKED: USER    (2) Final Total Internal Energy     =   -3.89 kcal/mol
DOCKED: USER    (3) Torsional Free Energy           =   +3.58 kcal/mol
DOCKED: USER    (4) Unbound System's Energy  [=(2)] =   -3.89 kcal/mol
DOCKED: USER    
DOCKED: USER    
DOCKED: USER    NEWDPF move heme_Co_opt.pdbqt
DOCKED: USER    NEWDPF about 8.781000 34.984000 -0.736000
DOCKED: USER    NEWDPF tran0 17.681823 -1.813321 4.640176
DOCKED: USER    NEWDPF quaternion0 0.326889 0.453562 0.826215 0.069236
DOCKED: USER    NEWDPF axisangle0 0.327675 0.454653 0.828203 172.059788
DOCKED: USER    NEWDPF quat0 0.327675 0.454653 0.828203 172.059788
DOCKED: USER    NEWDPF dihe0 44.16 88.15 -141.90 97.86 111.73 122.56 34.53 116.37 170.04 140.55 -168.91 171.91 
DOCKED: USER  keepresnum = 1 
DOCKED: USER  
DOCKED: REMARK  12 active torsions:
DOCKED: REMARK  status: ('A' for Active; 'I' for Inactive)
DOCKED: REMARK    1  A    between atoms: C_6  and  C_10 
DOCKED: REMARK    2  A    between atoms: C_10  and  C_11 
DOCKED: REMARK    3  A    between atoms: C_11  and  C_12 
DOCKED: REMARK    4  A    between atoms: C_12  and  O_14 
DOCKED: REMARK    5  A    between atoms: C_17  and  C_20 
DOCKED: REMARK    6  A    between atoms: C_24  and  C_27 
DOCKED: REMARK    7  A    between atoms: C_31  and  C_34 
DOCKED: REMARK    8  A    between atoms: C_34  and  C_35 
DOCKED: REMARK    9  A    between atoms: C_35  and  C_36 
DOCKED: REMARK   10  A    between atoms: C_36  and  O_38 
DOCKED: REMARK   11  A    between atoms: FE_43  and  C_44 
DOCKED: REMARK   12  A    between atoms: C_44  and  O_45 
DOCKED: USER                              x       y       z     vdW  Elec       q    Type
DOCKED: USER                           _______ _______ _______ _____ _____    ______ ____
DOCKED: ROOT
DOCKED: ATOM      1  C   UNL d   1      18.984  -3.130   3.506 -0.13 +0.01    +0.064 A 
DOCKED: ATOM      2  C   UNL d   1      18.696   1.608   3.792 -0.29 +0.02    +0.064 C 
DOCKED: ATOM      3  C   UNL d   1      14.836   1.242   6.584 -0.19 +0.02    +0.064 A 
DOCKED: ATOM      4  C   UNL d   1      15.338  -3.596   6.622 -0.15 +0.02    +0.064 A 
DOCKED: ATOM      5  C   UNL d   1      19.167  -1.809   3.350 -0.19 +0.01    +0.066 A 
DOCKED: ATOM      6  C   UNL d   1      20.265  -1.285   2.638 -0.20 -0.00    -0.021 A 
DOCKED: ATOM      7  C   UNL d   1      20.189   0.089   2.744 -0.26 -0.01    -0.025 A 
DOCKED: ATOM      8  C   UNL d   1      19.040   0.347   3.500 -0.26 +0.01    +0.066 A 
DOCKED: ATOM      9  C   UNL d   1      21.153   1.134   2.161 -0.26 +0.02    +0.051 C 
DOCKED: ATOM     10  C   UNL d   1      17.519   1.970   4.541 -0.23 +0.02    +0.066 A 
DOCKED: ATOM     11  C   UNL d   1      17.027   3.275   4.761 -0.23 -0.01    -0.021 A 
DOCKED: ATOM     12  C   UNL d   1      15.899   3.139   5.574 -0.19 +0.00    +0.000 A 
DOCKED: ATOM     13  C   UNL d   1      15.779   1.764   5.780 -0.17 +0.02    +0.070 A 
DOCKED: ATOM     14  C   UNL d   1      17.559   4.544   4.146 -0.20 +0.03    +0.052 C 
DOCKED: ATOM     15  C   UNL d   1      14.601  -0.141   6.948 -0.18 +0.02    +0.066 A 
DOCKED: ATOM     16  C   UNL d   1      13.700  -0.601   7.898 -0.21 -0.01    -0.021 A 
DOCKED: ATOM     17  C   UNL d   1      13.843  -1.996   7.915 -0.19 +0.00    +0.000 A 
DOCKED: ATOM     18  C   UNL d   1      14.811  -2.279   6.957 -0.16 +0.01    +0.070 A 
DOCKED: ATOM     19  C   UNL d   1      12.776   0.267   8.722 -0.14 +0.03    +0.052 C 
DOCKED: ATOM     20  C   UNL d   1      16.339  -3.888   5.758 -0.12 +0.01    +0.066 A 
DOCKED: ATOM     21  C   UNL d   1      16.782  -5.192   5.547 -0.09 -0.01    -0.025 A 
DOCKED: ATOM     22  C   UNL d   1      17.814  -5.092   4.631 -0.06 -0.00    -0.021 A 
DOCKED: ATOM     23  C   UNL d   1      17.958  -3.719   4.336 -0.10 +0.01    +0.066 A 
DOCKED: ATOM     24  C   UNL d   1      16.262  -6.470   6.200 -0.10 +0.02    +0.051 C 
DOCKED: ATOM     25  N   UNL d   1      18.385  -0.811   3.884 -0.12 -0.04    -0.248 N 
DOCKED: ATOM     26  N   UNL d   1      16.725   1.055   5.109 -0.05 -0.06    -0.248 N 
DOCKED: ATOM     27  N   UNL d   1      15.262  -1.149   6.424 -0.07 -0.05    -0.248 N 
DOCKED: ATOM     28  N   UNL d   1      17.069  -2.987   5.018 -0.02 -0.05    -0.248 N 
DOCKED: ATOM     29 FE   UNL d   1      16.731  -0.994   5.229 -0.04 +0.00    +0.000 Fe
DOCKED: ENDROOT
DOCKED: BRANCH   6  30
DOCKED: ATOM     30  C   UNL d   1      21.374  -2.084   1.962 -0.08 +0.01    +0.052 C 
DOCKED: BRANCH  30  31
DOCKED: ATOM     31  C   UNL d   1      22.468  -2.441   2.968 -0.05 +0.01    +0.115 C 
DOCKED: BRANCH  31  32
DOCKED: ATOM     32  C   UNL d   1      22.323  -1.686   4.272 -0.03 +0.01    +0.139 C 
DOCKED: ATOM     33  O   UNL d   1      22.948  -0.650   4.439 +0.02 -0.07    -0.650 OA
DOCKED: BRANCH  32  34
DOCKED: ATOM     34  O   UNL d   1      21.480  -2.097   5.248 +0.02 -0.07    -0.776 OA
DOCKED: ATOM     35  H   UNL d   1      21.349  -3.021   5.500 +0.01 +0.01    +0.167 HD
DOCKED: ENDBRANCH  32  34
DOCKED: ENDBRANCH  31  32
DOCKED: ENDBRANCH  30  31
DOCKED: ENDBRANCH   6  30
DOCKED: BRANCH  29  36
DOCKED: ATOM     36  C   UNL d   1      18.131  -0.897   6.786 -0.04 +0.03    +0.190 C 
DOCKED: BRANCH  36  37
DOCKED: ATOM     37  O   UNL d   1      19.445  -1.234   7.125 -0.00 -0.05    -0.399 OA
DOCKED: ATOM     38  H   UNL d   1      19.674  -2.003   6.531 +0.02 +0.02    +0.209 HD
DOCKED: ENDBRANCH  36  37
DOCKED: ENDBRANCH  29  36
DOCKED: BRANCH  22  39
DOCKED: ATOM     39  C   UNL d   1      18.654  -6.248   4.122 -0.03 +0.01    +0.052 C 
DOCKED: BRANCH  39  40
DOCKED: ATOM     40  C   UNL d   1      19.841  -6.512   5.063 -0.00 +0.01    +0.115 C 
DOCKED: BRANCH  40  41
DOCKED: ATOM     41  C   UNL d   1      20.577  -5.265   5.505 -0.00 +0.01    +0.139 C 
DOCKED: ATOM     42  O   UNL d   1      21.672  -5.014   5.022 +0.00 -0.04    -0.650 OA
DOCKED: BRANCH  41  43
DOCKED: ATOM     43  O   UNL d   1      20.019  -4.375   6.355 +0.01 -0.07    -0.776 OA
DOCKED: ATOM     44  H   UNL d   1      20.066  -3.421   6.213 +0.01 +0.02    +0.167 HD
DOCKED: ENDBRANCH  41  43
DOCKED: ENDBRANCH  40  41
DOCKED: ENDBRANCH  39  40
DOCKED: ENDBRANCH  22  39
DOCKED: BRANCH  12  45
DOCKED: ATOM     45  C   UNL d   1      14.915   4.142   6.162 -0.18 +0.00    +0.004 C 
DOCKED: ATOM     46  C   UNL d   1      13.781   4.632   5.670 -0.29 +0.01    +0.012 C 
DOCKED: ENDBRANCH  12  45
DOCKED: BRANCH  17  47
DOCKED: ATOM     47  C   UNL d   1      13.178  -3.012   8.783 -0.18 +0.00    +0.004 C 
DOCKED: ATOM     48  C   UNL d   1      12.027  -3.612   8.468 -0.27 +0.00    +0.012 C 
DOCKED: ENDBRANCH  17  47
DOCKED: TORSDOF 12
DOCKED: TER
DOCKED: ENDMDL
________________________________________________________________________________


	BEGINNING GENETIC ALGORITHM DOCKING 41 of 100
Run: 41 Seed: 637524237 577964291 [ Run 41 of 100 GA/GALS ]
Beginning LAMARCKIAN GENETIC ALGORITHM (LGA), with a maximum of 25000000 energy evaluations.

Final-Value: -10.006


	FINAL GENETIC ALGORITHM DOCKED STATE
	_______________________________________________


Detailed state:  trans 8.873 2.600 12.987 quatxyzw -0.360350 0.140238 0.798684 0.461069 center 8.781 34.984 -0.736 ntor 12 180.0000 120.8685 -30.6010 33.0155 87.1940 128.3218 40.9052 -45.4983 162.6407 -161.1368 -157.9409 -21.3432
State:	  8.873   2.600  12.987  -0.406  0.158  0.900 125.088    180.00  120.87  -30.60   33.02   87.19  128.32   40.91  -45.50  162.64 -161.14 -157.94  -21.34

DOCKED: MODEL       41
DOCKED: USER    Run = 41
DOCKED: USER    DPF = D:/Protein_go_brrr/autodock/final/mut_Y35F/heme_Co/dock.dpf
DOCKED: USER  
DOCKED: USER    Estimated Free Energy of Binding    =   -4.15 kcal/mol  [=(1)+(2)+(3)-(4)]
DOCKED: USER    Estimated Inhibition Constant, Ki   =  908.52 uM (micromolar)  [Temperature = 298.15 K]
DOCKED: USER    
DOCKED: USER    (1) Final Intermolecular Energy     =   -7.73 kcal/mol
DOCKED: USER        vdW + Hbond + desolv Energy     =   -5.70 kcal/mol
DOCKED: USER        Electrostatic Energy            =   -2.03 kcal/mol
DOCKED: USER    (2) Final Total Internal Energy     =   -2.28 kcal/mol
DOCKED: USER    (3) Torsional Free Energy           =   +3.58 kcal/mol
DOCKED: USER    (4) Unbound System's Energy  [=(2)] =   -2.28 kcal/mol
DOCKED: USER    
DOCKED: USER    
DOCKED: USER    NEWDPF move heme_Co_opt.pdbqt
DOCKED: USER    NEWDPF about 8.781000 34.984000 -0.736000
DOCKED: USER    NEWDPF tran0 8.872866 2.599670 12.986832
DOCKED: USER    NEWDPF quaternion0 -0.360350 0.140238 0.798684 0.461069
DOCKED: USER    NEWDPF axisangle0 -0.406090 0.158038 0.900064 125.087722
DOCKED: USER    NEWDPF quat0 -0.406090 0.158038 0.900064 125.087722
DOCKED: USER    NEWDPF dihe0 180.00 120.87 -30.60 33.02 87.19 128.32 40.91 -45.50 162.64 -161.14 -157.94 -21.34 
DOCKED: USER  keepresnum = 1 
DOCKED: USER  
DOCKED: REMARK  12 active torsions:
DOCKED: REMARK  status: ('A' for Active; 'I' for Inactive)
DOCKED: REMARK    1  A    between atoms: C_6  and  C_10 
DOCKED: REMARK    2  A    between atoms: C_10  and  C_11 
DOCKED: REMARK    3  A    between atoms: C_11  and  C_12 
DOCKED: REMARK    4  A    between atoms: C_12  and  O_14 
DOCKED: REMARK    5  A    between atoms: C_17  and  C_20 
DOCKED: REMARK    6  A    between atoms: C_24  and  C_27 
DOCKED: REMARK    7  A    between atoms: C_31  and  C_34 
DOCKED: REMARK    8  A    between atoms: C_34  and  C_35 
DOCKED: REMARK    9  A    between atoms: C_35  and  C_36 
DOCKED: REMARK   10  A    between atoms: C_36  and  O_38 
DOCKED: REMARK   11  A    between atoms: FE_43  and  C_44 
DOCKED: REMARK   12  A    between atoms: C_44  and  O_45 
DOCKED: USER                              x       y       z     vdW  Elec       q    Type
DOCKED: USER                           _______ _______ _______ _____ _____    ______ ____
DOCKED: ROOT
DOCKED: ATOM      1  C   UNL d   1      10.399   4.045  13.532 -0.06 +0.04    +0.064 A 
DOCKED: ATOM      2  C   UNL d   1       5.679   4.011  14.109 -0.17 +0.01    +0.064 C 
DOCKED: ATOM      3  C   UNL d   1       5.366  -0.053  11.616 -0.22 -0.02    +0.064 A 
DOCKED: ATOM      4  C   UNL d   1      10.220  -0.245  11.344 -0.10 +0.03    +0.064 A 
DOCKED: ATOM      5  C   UNL d   1       9.129   4.353  13.842 -0.06 +0.03    +0.066 A 
DOCKED: ATOM      6  C   UNL d   1       8.804   5.463  14.646 -0.04 -0.01    -0.021 A 
DOCKED: ATOM      7  C   UNL d   1       7.435   5.435  14.829 -0.08 -0.00    -0.025 A 
DOCKED: ATOM      8  C   UNL d   1       6.982   4.320  14.116 -0.09 +0.01    +0.066 A 
DOCKED: ATOM      9  C   UNL d   1       6.573   6.413  15.642 -0.10 +0.01    +0.051 C 
DOCKED: ATOM     10  C   UNL d   1       5.117   2.899  13.382 -0.14 +0.00    +0.066 A 
DOCKED: ATOM     11  C   UNL d   1       3.746   2.604  13.220 -0.17 +0.00    -0.021 A 
DOCKED: ATOM     12  C   UNL d   1       3.684   1.416  12.486 -0.22 -0.00    +0.000 A 
DOCKED: ATOM     13  C   UNL d   1       5.017   1.083  12.244 -0.18 -0.01    +0.070 A 
DOCKED: ATOM     14  C   UNL d   1       2.590   3.463  13.662 -0.36 -0.00    +0.052 C 
DOCKED: ATOM     15  C   UNL d   1       6.688  -0.577  11.330 -0.20 -0.00    +0.066 A 
DOCKED: ATOM     16  C   UNL d   1       6.981  -1.828  10.806 -0.27 +0.00    -0.021 A 
DOCKED: ATOM     17  C   UNL d   1       8.380  -1.889  10.728 -0.21 +0.00    +0.000 A 
DOCKED: ATOM     18  C   UNL d   1       8.830  -0.659  11.196 -0.14 +0.02    +0.070 A 
DOCKED: ATOM     19  C   UNL d   1       5.964  -2.877  10.416 -0.06 -0.02    +0.052 C 
DOCKED: ATOM     20  C   UNL d   1      10.683   0.911  11.877 -0.06 +0.04    +0.066 A 
DOCKED: ATOM     21  C   UNL d   1      12.044   1.181  11.998 -0.09 -0.01    -0.025 A 
DOCKED: ATOM     22  C   UNL d   1      12.126   2.424  12.599 -0.07 -0.01    -0.021 A 
DOCKED: ATOM     23  C   UNL d   1      10.800   2.849  12.828 -0.05 +0.05    +0.066 A 
DOCKED: ATOM     24  C   UNL d   1      13.211   0.290  11.580 -0.05 +0.02    +0.051 C 
DOCKED: ATOM     25  N   UNL d   1       8.009   3.635  13.489 -0.05 -0.10    -0.248 N 
DOCKED: ATOM     26  N   UNL d   1       5.880   2.010  12.738 -0.08 -0.02    -0.248 N 
DOCKED: ATOM     27  N   UNL d   1       7.796   0.085  11.574 -0.10 -0.05    -0.248 N 
DOCKED: ATOM     28  N   UNL d   1       9.924   1.935  12.394 -0.07 -0.19    -0.248 N 
DOCKED: ATOM     29 FE   UNL d   1       7.900   1.755  12.474 -0.02 +0.00    +0.000 Fe
DOCKED: ENDROOT
DOCKED: BRANCH   6  30
DOCKED: ATOM     30  C   UNL d   1       9.783   6.450  15.273 -0.02 +0.01    +0.052 C 
DOCKED: BRANCH  30  31
DOCKED: ATOM     31  C   UNL d   1      10.516   5.806  16.449 -0.00 +0.02    +0.115 C 
DOCKED: BRANCH  31  32
DOCKED: ATOM     32  C   UNL d   1       9.794   4.588  16.982 -0.00 +0.02    +0.139 C 
DOCKED: ATOM     33  O   UNL d   1       8.947   4.723  17.852 +0.00 -0.05    -0.650 OA
DOCKED: BRANCH  32  34
DOCKED: ATOM     34  O   UNL d   1      10.021   3.347  16.491 +0.01 -0.10    -0.776 OA
DOCKED: ATOM     35  H   UNL d   1       9.622   2.540  16.845 +0.00 +0.01    +0.167 HD
DOCKED: ENDBRANCH  32  34
DOCKED: ENDBRANCH  31  32
DOCKED: ENDBRANCH  30  31
DOCKED: ENDBRANCH   6  30
DOCKED: BRANCH  29  36
DOCKED: ATOM     36  C   UNL d   1       8.031   0.855  14.363 -0.02 +0.02    +0.190 C 
DOCKED: BRANCH  36  37
DOCKED: ATOM     37  O   UNL d   1       8.512   1.055  15.661 +0.00 -0.02    -0.399 OA
DOCKED: ATOM     38  H   UNL d   1       8.823   2.003  15.677 +0.01 +0.02    +0.209 HD
DOCKED: ENDBRANCH  36  37
DOCKED: ENDBRANCH  29  36
DOCKED: BRANCH  22  39
DOCKED: ATOM     39  C   UNL d   1      13.412   3.129  12.989 -0.03 +0.02    +0.052 C 
DOCKED: BRANCH  39  40
DOCKED: ATOM     40  C   UNL d   1      14.051   3.808  11.767 -0.03 +0.06    +0.115 C 
DOCKED: BRANCH  40  41
DOCKED: ATOM     41  C   UNL d   1      13.142   3.904  10.559 +0.05 +0.17    +0.139 C 
DOCKED: ATOM     42  O   UNL d   1      12.467   4.910  10.398 -0.11 -1.13    -0.650 OA
DOCKED: BRANCH  41  43
DOCKED: ATOM     43  O   UNL d   1      13.122   2.945   9.607 -0.56 -0.99    -0.776 OA
DOCKED: ATOM     44  H   UNL d   1      13.871   2.356   9.447 +0.02 +0.11    +0.167 HD
DOCKED: ENDBRANCH  41  43
DOCKED: ENDBRANCH  40  41
DOCKED: ENDBRANCH  39  40
DOCKED: ENDBRANCH  22  39
DOCKED: BRANCH  12  45
DOCKED: ATOM     45  C   UNL d   1       2.525   0.573  11.972 -0.39 -0.00    +0.004 C 
DOCKED: ATOM     46  C   UNL d   1       1.267   0.907  11.694 -0.58 -0.00    +0.012 C 
DOCKED: ENDBRANCH  12  45
DOCKED: BRANCH  17  47
DOCKED: ATOM     47  C   UNL d   1       9.264  -3.015  10.301 -0.21 +0.00    +0.004 C 
DOCKED: ATOM     48  C   UNL d   1       9.293  -3.498   9.057 -0.37 +0.00    +0.012 C 
DOCKED: ENDBRANCH  17  47
DOCKED: TORSDOF 12
DOCKED: TER
DOCKED: ENDMDL
________________________________________________________________________________


	BEGINNING GENETIC ALGORITHM DOCKING 42 of 100
Run: 42 Seed: 1756050265 1146187633 [ Run 42 of 100 GA/GALS ]
Beginning LAMARCKIAN GENETIC ALGORITHM (LGA), with a maximum of 25000000 energy evaluations.

Final-Value: -10.496


	FINAL GENETIC ALGORITHM DOCKED STATE
	_______________________________________________


Detailed state:  trans 18.112 5.575 4.719 quatxyzw -0.528633 0.001613 0.055471 0.847035 center 8.781 34.984 -0.736 ntor 12 29.6467 148.2505 130.5836 103.3570 135.3642 80.8006 -168.0983 -37.6037 60.7034 -146.5863 -163.3716 149.5822
State:	 18.112   5.575   4.719  -0.995  0.003  0.104 64.219     29.65  148.25  130.58  103.36  135.36   80.80 -168.10  -37.60   60.70 -146.59 -163.37  149.58

DOCKED: MODEL       42
DOCKED: USER    Run = 42
DOCKED: USER    DPF = D:/Protein_go_brrr/autodock/final/mut_Y35F/heme_Co/dock.dpf
DOCKED: USER  
DOCKED: USER    Estimated Free Energy of Binding    =   -4.68 kcal/mol  [=(1)+(2)+(3)-(4)]
DOCKED: USER    Estimated Inhibition Constant, Ki   =  368.51 uM (micromolar)  [Temperature = 298.15 K]
DOCKED: USER    
DOCKED: USER    (1) Final Intermolecular Energy     =   -8.26 kcal/mol
DOCKED: USER        vdW + Hbond + desolv Energy     =   -6.18 kcal/mol
DOCKED: USER        Electrostatic Energy            =   -2.09 kcal/mol
DOCKED: USER    (2) Final Total Internal Energy     =   -2.23 kcal/mol
DOCKED: USER    (3) Torsional Free Energy           =   +3.58 kcal/mol
DOCKED: USER    (4) Unbound System's Energy  [=(2)] =   -2.23 kcal/mol
DOCKED: USER    
DOCKED: USER    
DOCKED: USER    NEWDPF move heme_Co_opt.pdbqt
DOCKED: USER    NEWDPF about 8.781000 34.984000 -0.736000
DOCKED: USER    NEWDPF tran0 18.111622 5.574706 4.719490
DOCKED: USER    NEWDPF quaternion0 -0.528633 0.001613 0.055471 0.847035
DOCKED: USER    NEWDPF axisangle0 -0.994535 0.003035 0.104360 64.218833
DOCKED: USER    NEWDPF quat0 -0.994535 0.003035 0.104360 64.218833
DOCKED: USER    NEWDPF dihe0 29.65 148.25 130.58 103.36 135.36 80.80 -168.10 -37.60 60.70 -146.59 -163.37 149.58 
DOCKED: USER  keepresnum = 1 
DOCKED: USER  
DOCKED: REMARK  12 active torsions:
DOCKED: REMARK  status: ('A' for Active; 'I' for Inactive)
DOCKED: REMARK    1  A    between atoms: C_6  and  C_10 
DOCKED: REMARK    2  A    between atoms: C_10  and  C_11 
DOCKED: REMARK    3  A    between atoms: C_11  and  C_12 
DOCKED: REMARK    4  A    between atoms: C_12  and  O_14 
DOCKED: REMARK    5  A    between atoms: C_17  and  C_20 
DOCKED: REMARK    6  A    between atoms: C_24  and  C_27 
DOCKED: REMARK    7  A    between atoms: C_31  and  C_34 
DOCKED: REMARK    8  A    between atoms: C_34  and  C_35 
DOCKED: REMARK    9  A    between atoms: C_35  and  C_36 
DOCKED: REMARK   10  A    between atoms: C_36  and  O_38 
DOCKED: REMARK   11  A    between atoms: FE_43  and  C_44 
DOCKED: REMARK   12  A    between atoms: C_44  and  O_45 
DOCKED: USER                              x       y       z     vdW  Elec       q    Type
DOCKED: USER                           _______ _______ _______ _____ _____    ______ ____
DOCKED: ROOT
DOCKED: ATOM      1  C   UNL d   1      16.287   6.738   4.900 -0.19 +0.02    +0.064 A 
DOCKED: ATOM      2  C   UNL d   1      17.063   2.116   4.094 -0.33 +0.02    +0.064 C 
DOCKED: ATOM      3  C   UNL d   1      21.771   2.905   3.886 -0.10 +0.03    +0.064 A 
DOCKED: ATOM      4  C   UNL d   1      21.031   7.560   5.090 -0.09 +0.04    +0.064 A 
DOCKED: ATOM      5  C   UNL d   1      16.151   5.424   4.659 -0.22 +0.02    +0.066 A 
DOCKED: ATOM      6  C   UNL d   1      14.898   4.781   4.706 -0.29 -0.01    -0.021 A 
DOCKED: ATOM      7  C   UNL d   1      15.132   3.436   4.494 -0.40 -0.01    -0.025 A 
DOCKED: ATOM      8  C   UNL d   1      16.514   3.318   4.311 -0.29 +0.02    +0.066 A 
DOCKED: ATOM      9  C   UNL d   1      14.105   2.294   4.463 -0.33 +0.01    +0.051 C 
DOCKED: ATOM     10  C   UNL d   1      18.471   1.901   3.869 -0.21 +0.02    +0.066 A 
DOCKED: ATOM     11  C   UNL d   1      19.090   0.687   3.498 -0.28 -0.00    -0.021 A 
DOCKED: ATOM     12  C   UNL d   1      20.462   0.947   3.440 -0.20 +0.00    +0.000 A 
DOCKED: ATOM     13  C   UNL d   1      20.577   2.298   3.767 -0.14 +0.03    +0.070 A 
DOCKED: ATOM     14  C   UNL d   1      18.389  -0.597   3.134 -0.25 +0.01    +0.052 C 
DOCKED: ATOM     15  C   UNL d   1      22.075   4.271   4.264 -0.03 +0.04    +0.066 A 
DOCKED: ATOM     16  C   UNL d   1      23.336   4.796   4.510 -0.05 -0.01    -0.021 A 
DOCKED: ATOM     17  C   UNL d   1      23.127   6.138   4.860 -0.05 +0.00    +0.000 A 
DOCKED: ATOM     18  C   UNL d   1      21.752   6.331   4.784 -0.07 +0.05    +0.070 A 
DOCKED: ATOM     19  C   UNL d   1      24.638   4.034   4.409 -0.02 +0.01    +0.052 C 
DOCKED: ATOM     20  C   UNL d   1      19.690   7.747   5.106 -0.13 +0.04    +0.066 A 
DOCKED: ATOM     21  C   UNL d   1      19.113   8.967   5.453 -0.10 -0.01    -0.025 A 
DOCKED: ATOM     22  C   UNL d   1      17.747   8.768   5.379 -0.13 -0.01    -0.021 A 
DOCKED: ATOM     23  C   UNL d   1      17.556   7.423   4.999 -0.18 +0.03    +0.066 A 
DOCKED: ATOM     24  C   UNL d   1      19.828  10.254   5.855 -0.05 +0.01    +0.051 C 
DOCKED: ATOM     25  N   UNL d   1      17.170   4.535   4.402 -0.16 -0.10    -0.248 N 
DOCKED: ATOM     26  N   UNL d   1      19.368   2.887   3.970 -0.08 -0.11    -0.248 N 
DOCKED: ATOM     27  N   UNL d   1      21.155   5.190   4.455 -0.05 -0.20    -0.248 N 
DOCKED: ATOM     28  N   UNL d   1      18.729   6.800   4.836 -0.12 -0.16    -0.248 N 
DOCKED: ATOM     29 FE   UNL d   1      19.280   4.885   4.430 -0.04 +0.00    +0.000 Fe
DOCKED: ENDROOT
DOCKED: BRANCH   6  30
DOCKED: ATOM     30  C   UNL d   1      13.555   5.429   5.023 -0.21 +0.02    +0.052 C 
DOCKED: BRANCH  30  31
DOCKED: ATOM     31  C   UNL d   1      13.396   5.626   6.530 -0.16 +0.06    +0.115 C 
DOCKED: BRANCH  31  32
DOCKED: ATOM     32  C   UNL d   1      12.181   4.911   7.081 -0.17 +0.15    +0.139 C 
DOCKED: ATOM     33  O   UNL d   1      12.113   3.694   7.002 -0.32 -0.77    -0.650 OA
DOCKED: BRANCH  32  34
DOCKED: ATOM     34  O   UNL d   1      11.180   5.574   7.706 -0.38 -1.36    -0.776 OA
DOCKED: ATOM     35  H   UNL d   1      10.967   6.505   7.554 +0.04 +0.17    +0.167 HD
DOCKED: ENDBRANCH  32  34
DOCKED: ENDBRANCH  31  32
DOCKED: ENDBRANCH  30  31
DOCKED: ENDBRANCH   6  30
DOCKED: BRANCH  29  36
DOCKED: ATOM     36  C   UNL d   1      19.217   4.411   6.471 -0.03 +0.05    +0.190 C 
DOCKED: BRANCH  36  37
DOCKED: ATOM     37  O   UNL d   1      18.821   4.905   7.719 +0.00 -0.09    -0.399 OA
DOCKED: ATOM     38  H   UNL d   1      17.993   5.430   7.535 +0.02 +0.05    +0.209 HD
DOCKED: ENDBRANCH  36  37
DOCKED: ENDBRANCH  29  36
DOCKED: BRANCH  22  39
DOCKED: ATOM     39  C   UNL d   1      16.688   9.800   5.719 -0.07 +0.02    +0.052 C 
DOCKED: BRANCH  39  40
DOCKED: ATOM     40  C   UNL d   1      15.969   9.430   7.027 -0.03 +0.02    +0.115 C 
DOCKED: BRANCH  40  41
DOCKED: ATOM     41  C   UNL d   1      16.808   8.618   7.992 -0.00 +0.03    +0.139 C 
DOCKED: ATOM     42  O   UNL d   1      17.338   9.177   8.941 +0.01 -0.10    -0.650 OA
DOCKED: BRANCH  41  43
DOCKED: ATOM     43  O   UNL d   1      16.915   7.275   7.884 +0.03 -0.17    -0.776 OA
DOCKED: ATOM     44  H   UNL d   1      17.756   6.811   7.986 +0.01 +0.04    +0.167 HD
DOCKED: ENDBRANCH  41  43
DOCKED: ENDBRANCH  40  41
DOCKED: ENDBRANCH  39  40
DOCKED: ENDBRANCH  22  39
DOCKED: BRANCH  12  45
DOCKED: ATOM     45  C   UNL d   1      21.668   0.083   3.098 -0.14 +0.00    +0.004 C 
DOCKED: ATOM     46  C   UNL d   1      22.316  -0.082   1.948 -0.16 +0.00    +0.012 C 
DOCKED: ENDBRANCH  12  45
DOCKED: BRANCH  17  47
DOCKED: ATOM     47  C   UNL d   1      24.112   7.176   5.290 -0.02 +0.00    +0.004 C 
DOCKED: ATOM     48  C   UNL d   1      24.398   8.263   4.570 -0.01 +0.00    +0.012 C 
DOCKED: ENDBRANCH  17  47
DOCKED: TORSDOF 12
DOCKED: TER
DOCKED: ENDMDL
________________________________________________________________________________


	BEGINNING GENETIC ALGORITHM DOCKING 43 of 100
Run: 43 Seed: 1321033813 1290031317 [ Run 43 of 100 GA/GALS ]
Beginning LAMARCKIAN GENETIC ALGORITHM (LGA), with a maximum of 25000000 energy evaluations.

Final-Value: -10.228


	FINAL GENETIC ALGORITHM DOCKED STATE
	_______________________________________________


Detailed state:  trans 11.747 11.895 7.325 quatxyzw -0.573882 -0.694429 -0.360123 0.242360 center 8.781 34.984 -0.736 ntor 12 27.6505 96.7500 -144.8361 59.2971 77.3766 89.3956 -146.8182 112.9193 55.0589 142.4249 19.1472 -180.0000
State:	 11.747  11.895   7.325  -0.592 -0.716 -0.371 151.948     27.65   96.75 -144.84   59.30   77.38   89.40 -146.82  112.92   55.06  142.42   19.15 -180.00

DOCKED: MODEL       43
DOCKED: USER    Run = 43
DOCKED: USER    DPF = D:/Protein_go_brrr/autodock/final/mut_Y35F/heme_Co/dock.dpf
DOCKED: USER  
DOCKED: USER    Estimated Free Energy of Binding    =   -4.78 kcal/mol  [=(1)+(2)+(3)-(4)]
DOCKED: USER    Estimated Inhibition Constant, Ki   =  313.34 uM (micromolar)  [Temperature = 298.15 K]
DOCKED: USER    
DOCKED: USER    (1) Final Intermolecular Energy     =   -8.36 kcal/mol
DOCKED: USER        vdW + Hbond + desolv Energy     =   -6.50 kcal/mol
DOCKED: USER        Electrostatic Energy            =   -1.86 kcal/mol
DOCKED: USER    (2) Final Total Internal Energy     =   -1.87 kcal/mol
DOCKED: USER    (3) Torsional Free Energy           =   +3.58 kcal/mol
DOCKED: USER    (4) Unbound System's Energy  [=(2)] =   -1.87 kcal/mol
DOCKED: USER    
DOCKED: USER    
DOCKED: USER    NEWDPF move heme_Co_opt.pdbqt
DOCKED: USER    NEWDPF about 8.781000 34.984000 -0.736000
DOCKED: USER    NEWDPF tran0 11.746868 11.895321 7.324896
DOCKED: USER    NEWDPF quaternion0 -0.573882 -0.694429 -0.360123 0.242360
DOCKED: USER    NEWDPF axisangle0 -0.591518 -0.715769 -0.371189 151.948212
DOCKED: USER    NEWDPF quat0 -0.591518 -0.715769 -0.371189 151.948212
DOCKED: USER    NEWDPF dihe0 27.65 96.75 -144.84 59.30 77.38 89.40 -146.82 112.92 55.06 142.42 19.15 -180.00 
DOCKED: USER  keepresnum = 1 
DOCKED: USER  
DOCKED: REMARK  12 active torsions:
DOCKED: REMARK  status: ('A' for Active; 'I' for Inactive)
DOCKED: REMARK    1  A    between atoms: C_6  and  C_10 
DOCKED: REMARK    2  A    between atoms: C_10  and  C_11 
DOCKED: REMARK    3  A    between atoms: C_11  and  C_12 
DOCKED: REMARK    4  A    between atoms: C_12  and  O_14 
DOCKED: REMARK    5  A    between atoms: C_17  and  C_20 
DOCKED: REMARK    6  A    between atoms: C_24  and  C_27 
DOCKED: REMARK    7  A    between atoms: C_31  and  C_34 
DOCKED: REMARK    8  A    between atoms: C_34  and  C_35 
DOCKED: REMARK    9  A    between atoms: C_35  and  C_36 
DOCKED: REMARK   10  A    between atoms: C_36  and  O_38 
DOCKED: REMARK   11  A    between atoms: FE_43  and  C_44 
DOCKED: REMARK   12  A    between atoms: C_44  and  O_45 
DOCKED: USER                              x       y       z     vdW  Elec       q    Type
DOCKED: USER                           _______ _______ _______ _____ _____    ______ ____
DOCKED: ROOT
DOCKED: ATOM      1  C   UNL d   1      11.853   9.867   8.094 -0.09 +0.01    +0.064 A 
DOCKED: ATOM      2  C   UNL d   1      12.717  11.702   3.793 -0.24 -0.00    +0.064 C 
DOCKED: ATOM      3  C   UNL d   1      11.236  15.993   5.285 -0.15 -0.01    +0.064 A 
DOCKED: ATOM      4  C   UNL d   1      10.712  14.232   9.789 -0.24 +0.02    +0.064 A 
DOCKED: ATOM      5  C   UNL d   1      12.163  10.045   6.800 -0.09 +0.01    +0.066 A 
DOCKED: ATOM      6  C   UNL d   1      12.714   9.013   6.015 -0.10 -0.00    -0.021 A 
DOCKED: ATOM      7  C   UNL d   1      12.984   9.557   4.774 -0.18 -0.00    -0.025 A 
DOCKED: ATOM      8  C   UNL d   1      12.572  10.892   4.850 -0.14 +0.00    +0.066 A 
DOCKED: ATOM      9  C   UNL d   1      13.606   8.861   3.555 -0.27 +0.00    +0.051 C 
DOCKED: ATOM     10  C   UNL d   1      12.298  13.081   3.770 -0.16 -0.01    +0.066 A 
DOCKED: ATOM     11  C   UNL d   1      12.293  13.942   2.651 -0.23 +0.00    -0.021 A 
DOCKED: ATOM     12  C   UNL d   1      11.854  15.186   3.113 -0.14 -0.00    +0.000 A 
DOCKED: ATOM     13  C   UNL d   1      11.611  14.989   4.473 -0.12 -0.01    +0.070 A 
DOCKED: ATOM     14  C   UNL d   1      12.600  13.556   1.227 -0.36 -0.02    +0.052 C 
DOCKED: ATOM     15  C   UNL d   1      10.995  15.979   6.714 -0.16 -0.01    +0.066 A 
DOCKED: ATOM     16  C   UNL d   1      10.751  17.083   7.519 -0.04 +0.00    -0.021 A 
DOCKED: ATOM     17  C   UNL d   1      10.602  16.580   8.819 -0.20 -0.00    +0.000 A 
DOCKED: ATOM     18  C   UNL d   1      10.750  15.202   8.702 -0.24 +0.00    +0.070 A 
DOCKED: ATOM     19  C   UNL d   1      10.674  18.516   7.041 -0.14 -0.01    +0.052 C 
DOCKED: ATOM     20  C   UNL d   1      10.939  12.899   9.712 -0.23 +0.02    +0.066 A 
DOCKED: ATOM     21  C   UNL d   1      10.910  12.074  10.834 -0.19 -0.01    -0.025 A 
DOCKED: ATOM     22  C   UNL d   1      11.207  10.805  10.372 -0.15 -0.01    -0.021 A 
DOCKED: ATOM     23  C   UNL d   1      11.415  10.921   8.981 -0.14 +0.01    +0.066 A 
DOCKED: ATOM     24  C   UNL d   1      10.633  12.477  12.280 -0.15 +0.04    +0.051 C 
DOCKED: ATOM     25  N   UNL d   1      12.054  11.221   6.092 -0.06 -0.02    -0.248 N 
DOCKED: ATOM     26  N   UNL d   1      11.826  13.702   4.856 -0.07 +0.02    -0.248 N 
DOCKED: ATOM     27  N   UNL d   1      11.013  14.883   7.440 -0.11 +0.01    -0.248 N 
DOCKED: ATOM     28  N   UNL d   1      11.256  12.188   8.578 -0.07 -0.04    -0.248 N 
DOCKED: ATOM     29 FE   UNL d   1      11.501  13.159   6.809 -0.04 +0.00    +0.000 Fe
DOCKED: ENDROOT
DOCKED: BRANCH   6  30
DOCKED: ATOM     30  C   UNL d   1      13.037   7.595   6.473 -0.11 +0.02    +0.052 C 
DOCKED: BRANCH  30  31
DOCKED: ATOM     31  C   UNL d   1      11.981   6.613   5.968 -0.10 +0.05    +0.115 C 
DOCKED: BRANCH  31  32
DOCKED: ATOM     32  C   UNL d   1      11.390   5.776   7.082 -0.13 +0.15    +0.139 C 
DOCKED: ATOM     33  O   UNL d   1      10.475   6.229   7.753 -0.51 -0.88    -0.650 OA
DOCKED: BRANCH  32  34
DOCKED: ATOM     34  O   UNL d   1      11.812   4.515   7.332 -0.26 -1.19    -0.776 OA
DOCKED: ATOM     35  H   UNL d   1      12.681   4.172   7.083 +0.04 +0.16    +0.167 HD
DOCKED: ENDBRANCH  32  34
DOCKED: ENDBRANCH  31  32
DOCKED: ENDBRANCH  30  31
DOCKED: ENDBRANCH   6  30
DOCKED: BRANCH  29  36
DOCKED: ATOM     36  C   UNL d   1      13.533  13.459   7.228 -0.04 +0.01    +0.190 C 
DOCKED: BRANCH  36  37
DOCKED: ATOM     37  O   UNL d   1      14.583  13.006   8.034 -0.00 -0.03    -0.399 OA
DOCKED: ATOM     38  H   UNL d   1      14.142  12.494   8.767 +0.02 +0.02    +0.209 HD
DOCKED: ENDBRANCH  36  37
DOCKED: ENDBRANCH  29  36
DOCKED: BRANCH  22  39
DOCKED: ATOM     39  C   UNL d   1      11.345   9.564  11.235 -0.10 +0.02    +0.052 C 
DOCKED: BRANCH  39  40
DOCKED: ATOM     40  C   UNL d   1      12.713   9.542  11.937 -0.02 +0.03    +0.115 C 
DOCKED: BRANCH  40  41
DOCKED: ATOM     41  C   UNL d   1      13.876   9.938  11.053 -0.01 +0.03    +0.139 C 
DOCKED: ATOM     42  O   UNL d   1      14.677   9.084  10.699 +0.01 -0.14    -0.650 OA
DOCKED: BRANCH  41  43
DOCKED: ATOM     43  O   UNL d   1      14.007  11.194  10.572 +0.02 -0.15    -0.776 OA
DOCKED: ATOM     44  H   UNL d   1      14.285  11.377   9.665 +0.01 +0.03    +0.167 HD
DOCKED: ENDBRANCH  41  43
DOCKED: ENDBRANCH  40  41
DOCKED: ENDBRANCH  39  40
DOCKED: ENDBRANCH  22  39
DOCKED: BRANCH  12  45
DOCKED: ATOM     45  C   UNL d   1      11.618  16.525   2.427 -0.14 -0.00    +0.004 C 
DOCKED: ATOM     46  C   UNL d   1      10.927  16.826   1.331 -0.22 -0.00    +0.012 C 
DOCKED: ENDBRANCH  12  45
DOCKED: BRANCH  17  47
DOCKED: ATOM     47  C   UNL d   1      10.387  17.309  10.105 -0.23 +0.00    +0.004 C 
DOCKED: ATOM     48  C   UNL d   1       9.381  18.163  10.309 -0.24 +0.00    +0.012 C 
DOCKED: ENDBRANCH  17  47
DOCKED: TORSDOF 12
DOCKED: TER
DOCKED: ENDMDL
________________________________________________________________________________


	BEGINNING GENETIC ALGORITHM DOCKING 44 of 100
Run: 44 Seed: 1150813613 1620531033 [ Run 44 of 100 GA/GALS ]
Beginning LAMARCKIAN GENETIC ALGORITHM (LGA), with a maximum of 25000000 energy evaluations.

Final-Value: -9.728


	FINAL GENETIC ALGORITHM DOCKED STATE
	_______________________________________________


Detailed state:  trans 17.907 8.742 5.246 quatxyzw -0.284097 0.352260 0.788043 0.417360 center 8.781 34.984 -0.736 ntor 12 163.7859 131.0252 40.9074 50.9822 105.4388 137.3779 -130.5695 -178.8222 -136.4057 138.6225 -176.7715 9.5027
State:	 17.907   8.742   5.246  -0.313  0.388  0.867 130.664    163.79  131.03   40.91   50.98  105.44  137.38 -130.57 -178.82 -136.41  138.62 -176.77    9.50

DOCKED: MODEL       44
DOCKED: USER    Run = 44
DOCKED: USER    DPF = D:/Protein_go_brrr/autodock/final/mut_Y35F/heme_Co/dock.dpf
DOCKED: USER  
DOCKED: USER    Estimated Free Energy of Binding    =   -3.87 kcal/mol  [=(1)+(2)+(3)-(4)]
DOCKED: USER    Estimated Inhibition Constant, Ki   =    1.45 mM (millimolar)  [Temperature = 298.15 K]
DOCKED: USER    
DOCKED: USER    (1) Final Intermolecular Energy     =   -7.45 kcal/mol
DOCKED: USER        vdW + Hbond + desolv Energy     =   -5.69 kcal/mol
DOCKED: USER        Electrostatic Energy            =   -1.76 kcal/mol
DOCKED: USER    (2) Final Total Internal Energy     =   -2.28 kcal/mol
DOCKED: USER    (3) Torsional Free Energy           =   +3.58 kcal/mol
DOCKED: USER    (4) Unbound System's Energy  [=(2)] =   -2.28 kcal/mol
DOCKED: USER    
DOCKED: USER    
DOCKED: USER    NEWDPF move heme_Co_opt.pdbqt
DOCKED: USER    NEWDPF about 8.781000 34.984000 -0.736000
DOCKED: USER    NEWDPF tran0 17.907146 8.742421 5.246148
DOCKED: USER    NEWDPF quaternion0 -0.284097 0.352260 0.788043 0.417360
DOCKED: USER    NEWDPF axisangle0 -0.312627 0.387635 0.867181 130.663924
DOCKED: USER    NEWDPF quat0 -0.312627 0.387635 0.867181 130.663924
DOCKED: USER    NEWDPF dihe0 163.79 131.03 40.91 50.98 105.44 137.38 -130.57 -178.82 -136.41 138.62 -176.77 9.50 
DOCKED: USER  keepresnum = 1 
DOCKED: USER  
DOCKED: REMARK  12 active torsions:
DOCKED: REMARK  status: ('A' for Active; 'I' for Inactive)
DOCKED: REMARK    1  A    between atoms: C_6  and  C_10 
DOCKED: REMARK    2  A    between atoms: C_10  and  C_11 
DOCKED: REMARK    3  A    between atoms: C_11  and  C_12 
DOCKED: REMARK    4  A    between atoms: C_12  and  O_14 
DOCKED: REMARK    5  A    between atoms: C_17  and  C_20 
DOCKED: REMARK    6  A    between atoms: C_24  and  C_27 
DOCKED: REMARK    7  A    between atoms: C_31  and  C_34 
DOCKED: REMARK    8  A    between atoms: C_34  and  C_35 
DOCKED: REMARK    9  A    between atoms: C_35  and  C_36 
DOCKED: REMARK   10  A    between atoms: C_36  and  O_38 
DOCKED: REMARK   11  A    between atoms: FE_43  and  C_44 
DOCKED: REMARK   12  A    between atoms: C_44  and  O_45 
DOCKED: USER                              x       y       z     vdW  Elec       q    Type
DOCKED: USER                           _______ _______ _______ _____ _____    ______ ____
DOCKED: ROOT
DOCKED: ATOM      1  C   UNL d   1      19.715   9.931   5.437 -0.07 +0.02    +0.064 A 
DOCKED: ATOM      2  C   UNL d   1      15.109  11.112   5.341 -0.09 +0.01    +0.064 C 
DOCKED: ATOM      3  C   UNL d   1      13.924   6.568   4.458 -0.08 +0.01    +0.064 A 
DOCKED: ATOM      4  C   UNL d   1      18.589   5.272   4.935 -0.14 +0.03    +0.064 A 
DOCKED: ATOM      5  C   UNL d   1      18.546  10.593   5.440 -0.06 +0.02    +0.066 A 
DOCKED: ATOM      6  C   UNL d   1      18.467  11.967   5.740 -0.05 -0.00    -0.021 A 
DOCKED: ATOM      7  C   UNL d   1      17.126  12.300   5.733 -0.06 -0.00    -0.025 A 
DOCKED: ATOM      8  C   UNL d   1      16.447  11.119   5.413 -0.02 +0.02    +0.066 A 
DOCKED: ATOM      9  C   UNL d   1      16.494  13.671   6.015 -0.03 +0.00    +0.051 C 
DOCKED: ATOM     10  C   UNL d   1      14.326   9.952   4.994 -0.09 +0.02    +0.066 A 
DOCKED: ATOM     11  C   UNL d   1      12.934   9.913   4.764 -0.17 -0.00    -0.021 A 
DOCKED: ATOM     12  C   UNL d   1      12.616   8.577   4.505 -0.25 +0.00    +0.000 A 
DOCKED: ATOM     13  C   UNL d   1      13.835   7.904   4.583 -0.19 +0.01    +0.070 A 
DOCKED: ATOM     14  C   UNL d   1      12.005  11.098   4.707 -0.20 -0.00    +0.052 C 
DOCKED: ATOM     15  C   UNL d   1      15.088   5.710   4.562 -0.17 +0.02    +0.066 A 
DOCKED: ATOM     16  C   UNL d   1      15.089   4.322   4.568 -0.33 -0.01    -0.021 A 
DOCKED: ATOM     17  C   UNL d   1      16.432   3.944   4.707 -0.27 +0.00    +0.000 A 
DOCKED: ATOM     18  C   UNL d   1      17.148   5.135   4.759 -0.20 +0.03    +0.070 A 
DOCKED: ATOM     19  C   UNL d   1      13.864   3.444   4.447 -0.40 +0.02    +0.052 C 
DOCKED: ATOM     20  C   UNL d   1      19.296   6.419   5.074 -0.13 +0.04    +0.066 A 
DOCKED: ATOM     21  C   UNL d   1      20.675   6.422   5.274 -0.10 -0.02    -0.025 A 
DOCKED: ATOM     22  C   UNL d   1      21.032   7.752   5.393 -0.07 -0.01    -0.021 A 
DOCKED: ATOM     23  C   UNL d   1      19.842   8.501   5.272 -0.10 +0.03    +0.066 A 
DOCKED: ATOM     24  C   UNL d   1      21.605   5.215   5.367 -0.07 +0.02    +0.051 C 
DOCKED: ATOM     25  N   UNL d   1      17.302  10.048   5.220 -0.05 -0.10    -0.248 N 
DOCKED: ATOM     26  N   UNL d   1      14.876   8.746   4.822 -0.05 -0.08    -0.248 N 
DOCKED: ATOM     27  N   UNL d   1      16.313   6.166   4.700 -0.14 -0.08    -0.248 N 
DOCKED: ATOM     28  N   UNL d   1      18.789   7.697   5.081 -0.10 -0.13    -0.248 N 
DOCKED: ATOM     29 FE   UNL d   1      16.781   7.991   4.945 -0.04 +0.00    +0.000 Fe
DOCKED: ENDROOT
DOCKED: BRANCH   6  30
DOCKED: ATOM     30  C   UNL d   1      19.628  12.889   6.096 -0.02 +0.01    +0.052 C 
DOCKED: BRANCH  30  31
DOCKED: ATOM     31  C   UNL d   1      19.822  12.948   7.611 -0.00 +0.01    +0.115 C 
DOCKED: BRANCH  31  32
DOCKED: ATOM     32  C   UNL d   1      19.682  11.590   8.264 +0.00 +0.01    +0.139 C 
DOCKED: ATOM     33  O   UNL d   1      20.686  10.959   8.561 +0.00 -0.06    -0.650 OA
DOCKED: BRANCH  32  34
DOCKED: ATOM     34  O   UNL d   1      18.474  11.065   8.577 +0.01 -0.09    -0.776 OA
DOCKED: ATOM     35  H   UNL d   1      18.313  10.123   8.725 +0.00 +0.02    +0.167 HD
DOCKED: ENDBRANCH  32  34
DOCKED: ENDBRANCH  31  32
DOCKED: ENDBRANCH  30  31
DOCKED: ENDBRANCH   6  30
DOCKED: BRANCH  29  36
DOCKED: ATOM     36  C   UNL d   1      16.599   7.874   7.030 -0.01 +0.05    +0.190 C 
DOCKED: BRANCH  36  37
DOCKED: ATOM     37  O   UNL d   1      16.947   8.527   8.217 +0.01 -0.07    -0.399 OA
DOCKED: ATOM     38  H   UNL d   1      17.193   9.453   7.938 +0.01 +0.04    +0.209 HD
DOCKED: ENDBRANCH  36  37
DOCKED: ENDBRANCH  29  36
DOCKED: BRANCH  22  39
DOCKED: ATOM     39  C   UNL d   1      22.432   8.266   5.674 -0.03 +0.02    +0.052 C 
DOCKED: BRANCH  39  40
DOCKED: ATOM     40  C   UNL d   1      23.002   8.989   4.443 -0.04 +0.05    +0.115 C 
DOCKED: BRANCH  40  41
DOCKED: ATOM     41  C   UNL d   1      22.823   8.239   3.140 +0.06 +0.15    +0.139 C 
DOCKED: ATOM     42  O   UNL d   1      22.992   7.028   3.118 -0.47 -0.89    -0.650 OA
DOCKED: BRANCH  41  43
DOCKED: ATOM     43  O   UNL d   1      22.397   8.857   2.016 -0.10 -1.00    -0.776 OA
DOCKED: ATOM     44  H   UNL d   1      22.769   9.695   1.712 +0.03 +0.11    +0.167 HD
DOCKED: ENDBRANCH  41  43
DOCKED: ENDBRANCH  40  41
DOCKED: ENDBRANCH  39  40
DOCKED: ENDBRANCH  22  39
DOCKED: BRANCH  12  45
DOCKED: ATOM     45  C   UNL d   1      11.310   7.865   4.176 -0.36 +0.00    +0.004 C 
DOCKED: ATOM     46  C   UNL d   1      10.316   8.212   3.363 -0.43 +0.00    +0.012 C 
DOCKED: ENDBRANCH  12  45
DOCKED: BRANCH  17  47
DOCKED: ATOM     47  C   UNL d   1      17.030   2.582   4.838 -0.27 +0.00    +0.004 C 
DOCKED: ATOM     48  C   UNL d   1      17.317   1.799   3.795 -0.36 +0.00    +0.012 C 
DOCKED: ENDBRANCH  17  47
DOCKED: TORSDOF 12
DOCKED: TER
DOCKED: ENDMDL
________________________________________________________________________________


	BEGINNING GENETIC ALGORITHM DOCKING 45 of 100
Run: 45 Seed: 1104122 2003793686 [ Run 45 of 100 GA/GALS ]
Beginning LAMARCKIAN GENETIC ALGORITHM (LGA), with a maximum of 25000000 energy evaluations.

Final-Value: -9.948


	FINAL GENETIC ALGORITHM DOCKED STATE
	_______________________________________________


Detailed state:  trans 11.750 11.822 7.594 quatxyzw -0.617123 -0.590153 -0.126374 0.504885 center 8.781 34.984 -0.736 ntor 12 -131.2486 91.5570 71.8808 127.0540 138.5831 139.5013 43.2384 112.9732 153.4851 -32.8831 -162.0486 -178.8771
State:	 11.750  11.822   7.594  -0.715 -0.684 -0.146 119.353   -131.25   91.56   71.88  127.05  138.58  139.50   43.24  112.97  153.49  -32.88 -162.05 -178.88

DOCKED: MODEL       45
DOCKED: USER    Run = 45
DOCKED: USER    DPF = D:/Protein_go_brrr/autodock/final/mut_Y35F/heme_Co/dock.dpf
DOCKED: USER  
DOCKED: USER    Estimated Free Energy of Binding    =   -4.12 kcal/mol  [=(1)+(2)+(3)-(4)]
DOCKED: USER    Estimated Inhibition Constant, Ki   =  948.97 uM (micromolar)  [Temperature = 298.15 K]
DOCKED: USER    
DOCKED: USER    (1) Final Intermolecular Energy     =   -7.70 kcal/mol
DOCKED: USER        vdW + Hbond + desolv Energy     =   -5.98 kcal/mol
DOCKED: USER        Electrostatic Energy            =   -1.72 kcal/mol
DOCKED: USER    (2) Final Total Internal Energy     =   -2.24 kcal/mol
DOCKED: USER    (3) Torsional Free Energy           =   +3.58 kcal/mol
DOCKED: USER    (4) Unbound System's Energy  [=(2)] =   -2.24 kcal/mol
DOCKED: USER    
DOCKED: USER    
DOCKED: USER    NEWDPF move heme_Co_opt.pdbqt
DOCKED: USER    NEWDPF about 8.781000 34.984000 -0.736000
DOCKED: USER    NEWDPF tran0 11.750144 11.821869 7.594140
DOCKED: USER    NEWDPF quaternion0 -0.617123 -0.590153 -0.126374 0.504885
DOCKED: USER    NEWDPF axisangle0 -0.714936 -0.683691 -0.146404 119.352587
DOCKED: USER    NEWDPF quat0 -0.714936 -0.683691 -0.146404 119.352587
DOCKED: USER    NEWDPF dihe0 -131.25 91.56 71.88 127.05 138.58 139.50 43.24 112.97 153.49 -32.88 -162.05 -178.88 
DOCKED: USER  keepresnum = 1 
DOCKED: USER  
DOCKED: REMARK  12 active torsions:
DOCKED: REMARK  status: ('A' for Active; 'I' for Inactive)
DOCKED: REMARK    1  A    between atoms: C_6  and  C_10 
DOCKED: REMARK    2  A    between atoms: C_10  and  C_11 
DOCKED: REMARK    3  A    between atoms: C_11  and  C_12 
DOCKED: REMARK    4  A    between atoms: C_12  and  O_14 
DOCKED: REMARK    5  A    between atoms: C_17  and  C_20 
DOCKED: REMARK    6  A    between atoms: C_24  and  C_27 
DOCKED: REMARK    7  A    between atoms: C_31  and  C_34 
DOCKED: REMARK    8  A    between atoms: C_34  and  C_35 
DOCKED: REMARK    9  A    between atoms: C_35  and  C_36 
DOCKED: REMARK   10  A    between atoms: C_36  and  O_38 
DOCKED: REMARK   11  A    between atoms: FE_43  and  C_44 
DOCKED: REMARK   12  A    between atoms: C_44  and  O_45 
DOCKED: USER                              x       y       z     vdW  Elec       q    Type
DOCKED: USER                           _______ _______ _______ _____ _____    ______ ____
DOCKED: ROOT
DOCKED: ATOM      1  C   UNL d   1      10.885  10.671   9.220 -0.17 +0.02    +0.064 A 
DOCKED: ATOM      2  C   UNL d   1      12.438   9.430   4.901 -0.19 +0.01    +0.064 C 
DOCKED: ATOM      3  C   UNL d   1      13.228  14.017   3.825 -0.09 -0.01    +0.064 A 
DOCKED: ATOM      4  C   UNL d   1      12.013  15.278   8.363 -0.13 +0.00    +0.064 A 
DOCKED: ATOM      5  C   UNL d   1      11.217   9.998   8.106 -0.13 +0.02    +0.066 A 
DOCKED: ATOM      6  C   UNL d   1      11.189   8.591   8.047 -0.12 -0.01    -0.021 A 
DOCKED: ATOM      7  C   UNL d   1      11.662   8.236   6.799 -0.12 -0.01    -0.025 A 
DOCKED: ATOM      8  C   UNL d   1      11.943   9.440   6.145 -0.11 +0.01    +0.066 A 
DOCKED: ATOM      9  C   UNL d   1      11.849   6.821   6.230 -0.18 +0.02    +0.051 C 
DOCKED: ATOM     10  C   UNL d   1      12.732  10.618   4.139 -0.21 +0.00    +0.066 A 
DOCKED: ATOM     11  C   UNL d   1      13.119  10.676   2.783 -0.36 +0.00    -0.021 A 
DOCKED: ATOM     12  C   UNL d   1      13.339  12.026   2.494 -0.37 -0.00    +0.000 A 
DOCKED: ATOM     13  C   UNL d   1      13.059  12.690   3.688 -0.17 -0.01    +0.070 A 
DOCKED: ATOM     14  C   UNL d   1      13.175   9.518   1.820 -0.46 -0.01    +0.052 C 
DOCKED: ATOM     15  C   UNL d   1      13.038  14.854   4.994 -0.05 -0.01    +0.066 A 
DOCKED: ATOM     16  C   UNL d   1      13.370  16.196   5.108 -0.03 +0.00    -0.021 A 
DOCKED: ATOM     17  C   UNL d   1      13.024  16.564   6.416 -0.04 -0.00    +0.000 A 
DOCKED: ATOM     18  C   UNL d   1      12.490  15.416   6.993 -0.08 -0.00    +0.070 A 
DOCKED: ATOM     19  C   UNL d   1      13.981  17.045   4.015 -0.02 -0.01    +0.052 C 
DOCKED: ATOM     20  C   UNL d   1      11.570  14.151   8.972 -0.17 +0.01    +0.066 A 
DOCKED: ATOM     21  C   UNL d   1      11.171  14.136  10.307 -0.22 -0.01    -0.025 A 
DOCKED: ATOM     22  C   UNL d   1      10.814  12.827  10.574 -0.23 -0.01    -0.021 A 
DOCKED: ATOM     23  C   UNL d   1      11.025  12.101   9.383 -0.18 +0.01    +0.066 A 
DOCKED: ATOM     24  C   UNL d   1      11.151  15.306  11.287 -0.17 +0.02    +0.051 C 
DOCKED: ATOM     25  N   UNL d   1      11.671  10.548   6.929 -0.06 -0.03    -0.248 N 
DOCKED: ATOM     26  N   UNL d   1      12.638  11.844   4.666 -0.08 +0.00    -0.248 N 
DOCKED: ATOM     27  N   UNL d   1      12.542  14.410   6.127 -0.05 +0.01    -0.248 N 
DOCKED: ATOM     28  N   UNL d   1      11.485  12.898   8.411 -0.06 -0.03    -0.248 N 
DOCKED: ATOM     29 FE   UNL d   1      12.131  12.595   6.507 -0.03 +0.00    +0.000 Fe
DOCKED: ENDROOT
DOCKED: BRANCH   6  30
DOCKED: ATOM     30  C   UNL d   1      10.801   7.641   9.175 -0.15 +0.04    +0.052 C 
DOCKED: BRANCH  30  31
DOCKED: ATOM     31  C   UNL d   1      11.947   7.500  10.177 -0.07 +0.07    +0.115 C 
DOCKED: BRANCH  31  32
DOCKED: ATOM     32  C   UNL d   1      13.303   7.711   9.537 -0.02 +0.06    +0.139 C 
DOCKED: ATOM     33  O   UNL d   1      13.871   6.767   9.008 +0.03 -0.31    -0.650 OA
DOCKED: BRANCH  32  34
DOCKED: ATOM     34  O   UNL d   1      13.891   8.928   9.487 +0.03 -0.20    -0.776 OA
DOCKED: ATOM     35  H   UNL d   1      14.326   9.291   8.702 +0.01 +0.04    +0.167 HD
DOCKED: ENDBRANCH  32  34
DOCKED: ENDBRANCH  31  32
DOCKED: ENDBRANCH  30  31
DOCKED: ENDBRANCH   6  30
DOCKED: BRANCH  29  36
DOCKED: ATOM     36  C   UNL d   1      14.066  12.186   7.204 -0.03 +0.02    +0.190 C 
DOCKED: BRANCH  36  37
DOCKED: ATOM     37  O   UNL d   1      14.816  11.253   7.927 +0.00 -0.05    -0.399 OA
DOCKED: ATOM     38  H   UNL d   1      14.147  10.758   8.478 +0.01 +0.03    +0.209 HD
DOCKED: ENDBRANCH  36  37
DOCKED: ENDBRANCH  29  36
DOCKED: BRANCH  22  39
DOCKED: ATOM     39  C   UNL d   1      10.357  12.297  11.920 -0.06 +0.04    +0.052 C 
DOCKED: BRANCH  39  40
DOCKED: ATOM     40  C   UNL d   1      11.557  12.100  12.862 -0.13 +0.08    +0.115 C 
DOCKED: BRANCH  40  41
DOCKED: ATOM     41  C   UNL d   1      11.287  12.473  14.304 +0.08 +0.17    +0.139 C 
DOCKED: ATOM     42  O   UNL d   1      11.806  13.478  14.769 -0.42 -0.79    -0.650 OA
DOCKED: BRANCH  41  43
DOCKED: ATOM     43  O   UNL d   1      10.418  11.775  15.068 -0.04 -1.04    -0.776 OA
DOCKED: ATOM     44  H   UNL d   1      10.646  10.926  15.469 +0.02 +0.12    +0.167 HD
DOCKED: ENDBRANCH  41  43
DOCKED: ENDBRANCH  40  41
DOCKED: ENDBRANCH  39  40
DOCKED: ENDBRANCH  22  39
DOCKED: BRANCH  12  45
DOCKED: ATOM     45  C   UNL d   1      13.761  12.762   1.230 -0.50 -0.00    +0.004 C 
DOCKED: ATOM     46  C   UNL d   1      13.129  13.690   0.515 -0.39 -0.00    +0.012 C 
DOCKED: ENDBRANCH  12  45
DOCKED: BRANCH  17  47
DOCKED: ATOM     47  C   UNL d   1      13.211  17.866   7.122 -0.03 -0.00    +0.004 C 
DOCKED: ATOM     48  C   UNL d   1      12.200  18.615   7.568 -0.06 -0.00    +0.012 C 
DOCKED: ENDBRANCH  17  47
DOCKED: TORSDOF 12
DOCKED: TER
DOCKED: ENDMDL
________________________________________________________________________________


	BEGINNING GENETIC ALGORITHM DOCKING 46 of 100
Run: 46 Seed: 1973532638 1489666684 [ Run 46 of 100 GA/GALS ]
Beginning LAMARCKIAN GENETIC ALGORITHM (LGA), with a maximum of 25000000 energy evaluations.

Final-Value: -11.021


	FINAL GENETIC ALGORITHM DOCKED STATE
	_______________________________________________


Detailed state:  trans 11.661 11.836 6.913 quatxyzw -0.624015 -0.663839 -0.383904 0.150139 center 8.781 34.984 -0.736 ntor 12 -41.1568 113.1768 -54.7425 111.4504 63.8154 134.3313 45.0782 56.5597 -129.2748 -69.5209 -174.7385 12.1131
State:	 11.661  11.836   6.913  -0.631 -0.671 -0.388 162.730    -41.16  113.18  -54.74  111.45   63.82  134.33   45.08   56.56 -129.27  -69.52 -174.74   12.11

DOCKED: MODEL       46
DOCKED: USER    Run = 46
DOCKED: USER    DPF = D:/Protein_go_brrr/autodock/final/mut_Y35F/heme_Co/dock.dpf
DOCKED: USER  
DOCKED: USER    Estimated Free Energy of Binding    =   -4.65 kcal/mol  [=(1)+(2)+(3)-(4)]
DOCKED: USER    Estimated Inhibition Constant, Ki   =  389.36 uM (micromolar)  [Temperature = 298.15 K]
DOCKED: USER    
DOCKED: USER    (1) Final Intermolecular Energy     =   -8.23 kcal/mol
DOCKED: USER        vdW + Hbond + desolv Energy     =   -6.57 kcal/mol
DOCKED: USER        Electrostatic Energy            =   -1.66 kcal/mol
DOCKED: USER    (2) Final Total Internal Energy     =   -2.79 kcal/mol
DOCKED: USER    (3) Torsional Free Energy           =   +3.58 kcal/mol
DOCKED: USER    (4) Unbound System's Energy  [=(2)] =   -2.79 kcal/mol
DOCKED: USER    
DOCKED: USER    
DOCKED: USER    NEWDPF move heme_Co_opt.pdbqt
DOCKED: USER    NEWDPF about 8.781000 34.984000 -0.736000
DOCKED: USER    NEWDPF tran0 11.660996 11.836169 6.912622
DOCKED: USER    NEWDPF quaternion0 -0.624015 -0.663839 -0.383904 0.150139
DOCKED: USER    NEWDPF axisangle0 -0.631169 -0.671450 -0.388305 162.729995
DOCKED: USER    NEWDPF quat0 -0.631169 -0.671450 -0.388305 162.729995
DOCKED: USER    NEWDPF dihe0 -41.16 113.18 -54.74 111.45 63.82 134.33 45.08 56.56 -129.27 -69.52 -174.74 12.11 
DOCKED: USER  keepresnum = 1 
DOCKED: USER  
DOCKED: REMARK  12 active torsions:
DOCKED: REMARK  status: ('A' for Active; 'I' for Inactive)
DOCKED: REMARK    1  A    between atoms: C_6  and  C_10 
DOCKED: REMARK    2  A    between atoms: C_10  and  C_11 
DOCKED: REMARK    3  A    between atoms: C_11  and  C_12 
DOCKED: REMARK    4  A    between atoms: C_12  and  O_14 
DOCKED: REMARK    5  A    between atoms: C_17  and  C_20 
DOCKED: REMARK    6  A    between atoms: C_24  and  C_27 
DOCKED: REMARK    7  A    between atoms: C_31  and  C_34 
DOCKED: REMARK    8  A    between atoms: C_34  and  C_35 
DOCKED: REMARK    9  A    between atoms: C_35  and  C_36 
DOCKED: REMARK   10  A    between atoms: C_36  and  O_38 
DOCKED: REMARK   11  A    between atoms: FE_43  and  C_44 
DOCKED: REMARK   12  A    between atoms: C_44  and  O_45 
DOCKED: USER                              x       y       z     vdW  Elec       q    Type
DOCKED: USER                           _______ _______ _______ _____ _____    ______ ____
DOCKED: ROOT
DOCKED: ATOM      1  C   UNL d   1      11.781   9.699   7.280 -0.10 +0.01    +0.064 A 
DOCKED: ATOM      2  C   UNL d   1      12.196  12.287   3.313 -0.23 -0.01    +0.064 C 
DOCKED: ATOM      3  C   UNL d   1      11.067  16.249   5.733 -0.17 -0.01    +0.064 A 
DOCKED: ATOM      4  C   UNL d   1      11.015  13.690   9.870 -0.22 +0.02    +0.064 A 
DOCKED: ATOM      5  C   UNL d   1      11.942  10.110   6.011 -0.11 +0.01    +0.066 A 
DOCKED: ATOM      6  C   UNL d   1      12.356   9.233   4.989 -0.17 -0.00    -0.021 A 
DOCKED: ATOM      7  C   UNL d   1      12.496   9.994   3.845 -0.28 +0.00    -0.025 A 
DOCKED: ATOM      8  C   UNL d   1      12.147  11.298   4.214 -0.19 -0.00    +0.066 A 
DOCKED: ATOM      9  C   UNL d   1      12.942   9.526   2.451 -0.50 -0.00    +0.051 C 
DOCKED: ATOM     10  C   UNL d   1      11.830  13.653   3.593 -0.18 -0.01    +0.066 A 
DOCKED: ATOM     11  C   UNL d   1      11.726  14.707   2.659 -0.21 +0.01    -0.021 A 
DOCKED: ATOM     12  C   UNL d   1      11.391  15.849   3.392 -0.14 -0.00    +0.000 A 
DOCKED: ATOM     13  C   UNL d   1      11.305  15.407   4.712 -0.15 -0.01    +0.070 A 
DOCKED: ATOM     14  C   UNL d   1      11.846  14.588   1.162 -0.39 -0.02    +0.052 C 
DOCKED: ATOM     15  C   UNL d   1      10.997  15.973   7.155 -0.15 -0.01    +0.066 A 
DOCKED: ATOM     16  C   UNL d   1      10.893  16.912   8.171 -0.13 +0.00    -0.021 A 
DOCKED: ATOM     17  C   UNL d   1      10.880  16.179   9.366 -0.22 +0.00    +0.000 A 
DOCKED: ATOM     18  C   UNL d   1      10.960  14.845   8.983 -0.23 +0.01    +0.070 A 
DOCKED: ATOM     19  C   UNL d   1      10.814  18.410   7.976 -0.14 -0.01    +0.052 C 
DOCKED: ATOM     20  C   UNL d   1      11.181  12.391   9.524 -0.18 +0.02    +0.066 A 
DOCKED: ATOM     21  C   UNL d   1      11.254  11.373  10.472 -0.16 -0.01    -0.025 A 
DOCKED: ATOM     22  C   UNL d   1      11.446  10.207   9.753 -0.13 -0.01    -0.021 A 
DOCKED: ATOM     23  C   UNL d   1      11.492  10.577   8.392 -0.12 +0.01    +0.066 A 
DOCKED: ATOM     24  C   UNL d   1      11.167  11.505  11.990 -0.16 +0.03    +0.051 C 
DOCKED: ATOM     25  N   UNL d   1      11.794  11.397   5.549 -0.07 -0.01    -0.248 N 
DOCKED: ATOM     26  N   UNL d   1      11.515  14.068   4.824 -0.07 +0.02    -0.248 N 
DOCKED: ATOM     27  N   UNL d   1      11.059  14.761   7.660 -0.13 +0.00    -0.248 N 
DOCKED: ATOM     28  N   UNL d   1      11.334  11.898   8.249 -0.01 -0.04    -0.248 N 
DOCKED: ATOM     29 FE   UNL d   1      11.404  13.177   6.670 -0.04 +0.00    +0.000 Fe
DOCKED: ENDROOT
DOCKED: BRANCH   6  30
DOCKED: ATOM     30  C   UNL d   1      12.677   7.750   5.138 -0.23 +0.01    +0.052 C 
DOCKED: BRANCH  30  31
DOCKED: ATOM     31  C   UNL d   1      14.159   7.551   5.456 -0.15 +0.03    +0.115 C 
DOCKED: BRANCH  31  32
DOCKED: ATOM     32  C   UNL d   1      14.632   8.444   6.582 -0.04 +0.03    +0.139 C 
DOCKED: ATOM     33  O   UNL d   1      14.979   9.590   6.335 -0.01 -0.14    -0.650 OA
DOCKED: BRANCH  32  34
DOCKED: ATOM     34  O   UNL d   1      14.641   8.031   7.871 +0.04 -0.21    -0.776 OA
DOCKED: ATOM     35  H   UNL d   1      13.910   7.562   8.296 +0.02 +0.06    +0.167 HD
DOCKED: ENDBRANCH  32  34
DOCKED: ENDBRANCH  31  32
DOCKED: ENDBRANCH  30  31
DOCKED: ENDBRANCH   6  30
DOCKED: BRANCH  29  36
DOCKED: ATOM     36  C   UNL d   1      13.481  13.363   6.883 -0.04 +0.01    +0.190 C 
DOCKED: BRANCH  36  37
DOCKED: ATOM     37  O   UNL d   1      14.677  12.639   6.824 -0.00 -0.03    -0.399 OA
DOCKED: ATOM     38  H   UNL d   1      14.401  11.707   6.598 +0.02 +0.02    +0.209 HD
DOCKED: ENDBRANCH  36  37
DOCKED: ENDBRANCH  29  36
DOCKED: BRANCH  22  39
DOCKED: ATOM     39  C   UNL d   1      11.639   8.826  10.351 -0.08 +0.02    +0.052 C 
DOCKED: BRANCH  39  40
DOCKED: ATOM     40  C   UNL d   1      10.451   7.913  10.003 -0.14 +0.07    +0.115 C 
DOCKED: BRANCH  40  41
DOCKED: ATOM     41  C   UNL d   1      10.747   6.884   8.932 -0.11 +0.16    +0.139 C 
DOCKED: ATOM     42  O   UNL d   1       9.818   6.298   8.393 -0.24 -1.05    -0.650 OA
DOCKED: BRANCH  41  43
DOCKED: ATOM     43  O   UNL d   1      12.004   6.657   8.493 -0.01 -0.72    -0.776 OA
DOCKED: ATOM     44  H   UNL d   1      12.602   7.372   8.236 +0.03 +0.09    +0.167 HD
DOCKED: ENDBRANCH  41  43
DOCKED: ENDBRANCH  40  41
DOCKED: ENDBRANCH  39  40
DOCKED: ENDBRANCH  22  39
DOCKED: BRANCH  12  45
DOCKED: ATOM     45  C   UNL d   1      11.127  17.296   2.996 -0.11 -0.00    +0.004 C 
DOCKED: ATOM     46  C   UNL d   1       9.983  17.965   2.873 -0.16 -0.00    +0.012 C 
DOCKED: ENDBRANCH  12  45
DOCKED: BRANCH  17  47
DOCKED: ATOM     47  C   UNL d   1      10.848  16.660  10.780 -0.20 +0.00    +0.004 C 
DOCKED: ATOM     48  C   UNL d   1      10.076  17.666  11.199 -0.19 +0.00    +0.012 C 
DOCKED: ENDBRANCH  17  47
DOCKED: TORSDOF 12
DOCKED: TER
DOCKED: ENDMDL
________________________________________________________________________________


	BEGINNING GENETIC ALGORITHM DOCKING 47 of 100
Run: 47 Seed: 1568037190 1128425606 [ Run 47 of 100 GA/GALS ]
Beginning LAMARCKIAN GENETIC ALGORITHM (LGA), with a maximum of 25000000 energy evaluations.

Final-Value: -9.748


	FINAL GENETIC ALGORITHM DOCKED STATE
	_______________________________________________


Detailed state:  trans 22.119 -0.817 -7.822 quatxyzw 0.377960 -0.254683 -0.685514 0.567762 center 8.781 34.984 -0.736 ntor 12 29.6465 -104.6002 -129.7623 120.6210 63.6703 -133.9615 -152.5267 167.6943 -56.9799 -82.1959 -168.1437 161.9128
State:	 22.119  -0.817  -7.822   0.459 -0.309 -0.833 110.811     29.65 -104.60 -129.76  120.62   63.67 -133.96 -152.53  167.69  -56.98  -82.20 -168.14  161.91

DOCKED: MODEL       47
DOCKED: USER    Run = 47
DOCKED: USER    DPF = D:/Protein_go_brrr/autodock/final/mut_Y35F/heme_Co/dock.dpf
DOCKED: USER  
DOCKED: USER    Estimated Free Energy of Binding    =   -5.48 kcal/mol  [=(1)+(2)+(3)-(4)]
DOCKED: USER    Estimated Inhibition Constant, Ki   =   96.12 uM (micromolar)  [Temperature = 298.15 K]
DOCKED: USER    
DOCKED: USER    (1) Final Intermolecular Energy     =   -9.06 kcal/mol
DOCKED: USER        vdW + Hbond + desolv Energy     =   -7.17 kcal/mol
DOCKED: USER        Electrostatic Energy            =   -1.89 kcal/mol
DOCKED: USER    (2) Final Total Internal Energy     =   -0.69 kcal/mol
DOCKED: USER    (3) Torsional Free Energy           =   +3.58 kcal/mol
DOCKED: USER    (4) Unbound System's Energy  [=(2)] =   -0.69 kcal/mol
DOCKED: USER    
DOCKED: USER    
DOCKED: USER    NEWDPF move heme_Co_opt.pdbqt
DOCKED: USER    NEWDPF about 8.781000 34.984000 -0.736000
DOCKED: USER    NEWDPF tran0 22.119248 -0.817084 -7.822088
DOCKED: USER    NEWDPF quaternion0 0.377960 -0.254683 -0.685514 0.567762
DOCKED: USER    NEWDPF axisangle0 0.459139 -0.309384 -0.832750 110.811367
DOCKED: USER    NEWDPF quat0 0.459139 -0.309384 -0.832750 110.811367
DOCKED: USER    NEWDPF dihe0 29.65 -104.60 -129.76 120.62 63.67 -133.96 -152.53 167.69 -56.98 -82.20 -168.14 161.91 
DOCKED: USER  keepresnum = 1 
DOCKED: USER  
DOCKED: REMARK  12 active torsions:
DOCKED: REMARK  status: ('A' for Active; 'I' for Inactive)
DOCKED: REMARK    1  A    between atoms: C_6  and  C_10 
DOCKED: REMARK    2  A    between atoms: C_10  and  C_11 
DOCKED: REMARK    3  A    between atoms: C_11  and  C_12 
DOCKED: REMARK    4  A    between atoms: C_12  and  O_14 
DOCKED: REMARK    5  A    between atoms: C_17  and  C_20 
DOCKED: REMARK    6  A    between atoms: C_24  and  C_27 
DOCKED: REMARK    7  A    between atoms: C_31  and  C_34 
DOCKED: REMARK    8  A    between atoms: C_34  and  C_35 
DOCKED: REMARK    9  A    between atoms: C_35  and  C_36 
DOCKED: REMARK   10  A    between atoms: C_36  and  O_38 
DOCKED: REMARK   11  A    between atoms: FE_43  and  C_44 
DOCKED: REMARK   12  A    between atoms: C_44  and  O_45 
DOCKED: USER                              x       y       z     vdW  Elec       q    Type
DOCKED: USER                           _______ _______ _______ _____ _____    ______ ____
DOCKED: ROOT
DOCKED: ATOM      1  C   UNL d   1      21.964  -2.725  -6.797 -0.12 +0.00    +0.064 A 
DOCKED: ATOM      2  C   UNL d   1      23.604   1.520  -5.417 -0.08 -0.00    +0.064 C 
DOCKED: ATOM      3  C   UNL d   1      22.958   3.244  -9.826 -0.10 -0.04    +0.064 A 
DOCKED: ATOM      4  C   UNL d   1      20.920  -0.966 -11.160 -0.19 -0.01    +0.064 A 
DOCKED: ATOM      5  C   UNL d   1      22.493  -1.702  -6.105 -0.13 +0.00    +0.066 A 
DOCKED: ATOM      6  C   UNL d   1      22.765  -1.794  -4.726 -0.15 -0.00    -0.021 A 
DOCKED: ATOM      7  C   UNL d   1      23.219  -0.552  -4.326 -0.12 -0.00    -0.025 A 
DOCKED: ATOM      8  C   UNL d   1      23.221   0.238  -5.480 -0.10 +0.00    +0.066 A 
DOCKED: ATOM      9  C   UNL d   1      23.638  -0.111  -2.915 -0.10 +0.01    +0.051 C 
DOCKED: ATOM     10  C   UNL d   1      23.664   2.402  -6.556 -0.05 -0.01    +0.066 A 
DOCKED: ATOM     11  C   UNL d   1      24.188   3.712  -6.581 -0.06 +0.00    -0.021 A 
DOCKED: ATOM     12  C   UNL d   1      23.991   4.190  -7.880 -0.10 -0.00    +0.000 A 
DOCKED: ATOM     13  C   UNL d   1      23.374   3.135  -8.552 -0.09 -0.03    +0.070 A 
DOCKED: ATOM     14  C   UNL d   1      24.912   4.406  -5.456 -0.03 -0.00    +0.052 C 
DOCKED: ATOM     15  C   UNL d   1      22.260   2.279 -10.652 -0.14 -0.03    +0.066 A 
DOCKED: ATOM     16  C   UNL d   1      21.730   2.506 -11.914 -0.19 +0.01    -0.021 A 
DOCKED: ATOM     17  C   UNL d   1      21.139   1.295 -12.302 -0.23 -0.00    +0.000 A 
DOCKED: ATOM     18  C   UNL d   1      21.371   0.417 -11.249 -0.17 -0.02    +0.070 A 
DOCKED: ATOM     19  C   UNL d   1      21.800   3.813 -12.672 -0.19 -0.04    +0.052 C 
DOCKED: ATOM     20  C   UNL d   1      21.059  -1.813 -10.112 -0.15 -0.01    +0.066 A 
DOCKED: ATOM     21  C   UNL d   1      20.551  -3.110 -10.131 -0.13 +0.00    -0.025 A 
DOCKED: ATOM     22  C   UNL d   1      20.862  -3.651  -8.897 -0.11 -0.00    -0.021 A 
DOCKED: ATOM     23  C   UNL d   1      21.540  -2.645  -8.176 -0.11 +0.00    +0.066 A 
DOCKED: ATOM     24  C   UNL d   1      19.787  -3.794 -11.262 -0.14 -0.01    +0.051 C 
DOCKED: ATOM     25  N   UNL d   1      22.782  -0.450  -6.599 -0.06 +0.01    -0.248 N 
DOCKED: ATOM     26  N   UNL d   1      23.228   2.035  -7.765 -0.02 +0.05    -0.248 N 
DOCKED: ATOM     27  N   UNL d   1      22.015   1.045 -10.272 -0.08 +0.07    -0.248 N 
DOCKED: ATOM     28  N   UNL d   1      21.660  -1.530  -8.907 -0.07 +0.02    -0.248 N 
DOCKED: ATOM     29 FE   UNL d   1      22.375   0.338  -8.545 -0.03 -0.00    +0.000 Fe
DOCKED: ENDROOT
DOCKED: BRANCH   6  30
DOCKED: ATOM     30  C   UNL d   1      22.516  -3.001  -3.828 -0.17 +0.01    +0.052 C 
DOCKED: BRANCH  30  31
DOCKED: ATOM     31  C   UNL d   1      21.066  -3.021  -3.344 -0.15 +0.02    +0.115 C 
DOCKED: BRANCH  31  32
DOCKED: ATOM     32  C   UNL d   1      20.339  -4.285  -3.750 -0.26 +0.06    +0.139 C 
DOCKED: ATOM     33  O   UNL d   1      20.537  -5.318  -3.128 -0.01 -0.29    -0.650 OA
DOCKED: BRANCH  32  34
DOCKED: ATOM     34  O   UNL d   1      19.434  -4.300  -4.756 -0.40 -0.88    -0.776 OA
DOCKED: ATOM     35  H   UNL d   1      19.428  -3.673  -5.492 -0.51 +0.06    +0.167 HD
DOCKED: ENDBRANCH  32  34
DOCKED: ENDBRANCH  31  32
DOCKED: ENDBRANCH  30  31
DOCKED: ENDBRANCH   6  30
DOCKED: BRANCH  29  36
DOCKED: ATOM     36  C   UNL d   1      20.511   0.931  -7.792 -0.32 -0.04    +0.190 C 
DOCKED: BRANCH  36  37
DOCKED: ATOM     37  O   UNL d   1      19.897   1.846  -6.930 -0.23 +0.10    -0.399 OA
DOCKED: ATOM     38  H   UNL d   1      19.045   2.096  -7.385 -0.41 -0.15    +0.209 HD
DOCKED: ENDBRANCH  36  37
DOCKED: ENDBRANCH  29  36
DOCKED: BRANCH  22  39
DOCKED: ATOM     39  C   UNL d   1      20.469  -5.036  -8.419 -0.10 +0.01    +0.052 C 
DOCKED: BRANCH  39  40
DOCKED: ATOM     40  C   UNL d   1      19.190  -4.974  -7.568 -0.15 +0.08    +0.115 C 
DOCKED: BRANCH  40  41
DOCKED: ATOM     41  C   UNL d   1      17.909  -5.176  -8.349 -0.04 +0.11    +0.139 C 
DOCKED: ATOM     42  O   UNL d   1      17.683  -4.469  -9.321 +0.03 -0.17    -0.650 OA
DOCKED: BRANCH  41  43
DOCKED: ATOM     43  O   UNL d   1      17.047  -6.175  -8.055 -0.54 -0.86    -0.776 OA
DOCKED: ATOM     44  H   UNL d   1      16.775  -6.835  -8.706 +0.03 +0.08    +0.167 HD
DOCKED: ENDBRANCH  41  43
DOCKED: ENDBRANCH  40  41
DOCKED: ENDBRANCH  39  40
DOCKED: ENDBRANCH  22  39
DOCKED: BRANCH  12  45
DOCKED: ATOM     45  C   UNL d   1      24.329   5.508  -8.564 -0.12 -0.00    +0.004 C 
DOCKED: ATOM     46  C   UNL d   1      25.201   5.783  -9.530 -0.08 -0.00    +0.012 C 
DOCKED: ENDBRANCH  12  45
DOCKED: BRANCH  17  47
DOCKED: ATOM     47  C   UNL d   1      20.362   0.965 -13.534 -0.28 -0.00    +0.004 C 
DOCKED: ATOM     48  C   UNL d   1      20.708   1.376 -14.756 -0.24 -0.00    +0.012 C 
DOCKED: ENDBRANCH  17  47
DOCKED: TORSDOF 12
DOCKED: TER
DOCKED: ENDMDL
________________________________________________________________________________


	BEGINNING GENETIC ALGORITHM DOCKING 48 of 100
Run: 48 Seed: 632983096 1758663022 [ Run 48 of 100 GA/GALS ]
Beginning LAMARCKIAN GENETIC ALGORITHM (LGA), with a maximum of 25000000 energy evaluations.

Final-Value: -11.552


	FINAL GENETIC ALGORITHM DOCKED STATE
	_______________________________________________


Detailed state:  trans 11.428 11.580 7.075 quatxyzw 0.657245 0.642214 0.356893 -0.167981 center 8.781 34.984 -0.736 ntor 12 130.9724 101.9310 75.8651 107.4771 75.4301 119.5428 -179.8351 8.2050 -56.6506 -52.6548 -136.3603 -19.0306
State:	 11.428  11.580   7.075   0.667  0.651  0.362 -160.659    130.97  101.93   75.87  107.48   75.43  119.54 -179.84    8.21  -56.65  -52.65 -136.36  -19.03

DOCKED: MODEL       48
DOCKED: USER    Run = 48
DOCKED: USER    DPF = D:/Protein_go_brrr/autodock/final/mut_Y35F/heme_Co/dock.dpf
DOCKED: USER  
DOCKED: USER    Estimated Free Energy of Binding    =   -5.78 kcal/mol  [=(1)+(2)+(3)-(4)]
DOCKED: USER    Estimated Inhibition Constant, Ki   =   58.40 uM (micromolar)  [Temperature = 298.15 K]
DOCKED: USER    
DOCKED: USER    (1) Final Intermolecular Energy     =   -9.36 kcal/mol
DOCKED: USER        vdW + Hbond + desolv Energy     =   -6.77 kcal/mol
DOCKED: USER        Electrostatic Energy            =   -2.59 kcal/mol
DOCKED: USER    (2) Final Total Internal Energy     =   -2.20 kcal/mol
DOCKED: USER    (3) Torsional Free Energy           =   +3.58 kcal/mol
DOCKED: USER    (4) Unbound System's Energy  [=(2)] =   -2.20 kcal/mol
DOCKED: USER    
DOCKED: USER    
DOCKED: USER    NEWDPF move heme_Co_opt.pdbqt
DOCKED: USER    NEWDPF about 8.781000 34.984000 -0.736000
DOCKED: USER    NEWDPF tran0 11.427637 11.580495 7.074650
DOCKED: USER    NEWDPF quaternion0 0.657245 0.642214 0.356893 -0.167981
DOCKED: USER    NEWDPF axisangle0 0.666719 0.651471 0.362037 -160.659155
DOCKED: USER    NEWDPF quat0 0.666719 0.651471 0.362037 -160.659155
DOCKED: USER    NEWDPF dihe0 130.97 101.93 75.87 107.48 75.43 119.54 -179.84 8.21 -56.65 -52.65 -136.36 -19.03 
DOCKED: USER  keepresnum = 1 
DOCKED: USER  
DOCKED: REMARK  12 active torsions:
DOCKED: REMARK  status: ('A' for Active; 'I' for Inactive)
DOCKED: REMARK    1  A    between atoms: C_6  and  C_10 
DOCKED: REMARK    2  A    between atoms: C_10  and  C_11 
DOCKED: REMARK    3  A    between atoms: C_11  and  C_12 
DOCKED: REMARK    4  A    between atoms: C_12  and  O_14 
DOCKED: REMARK    5  A    between atoms: C_17  and  C_20 
DOCKED: REMARK    6  A    between atoms: C_24  and  C_27 
DOCKED: REMARK    7  A    between atoms: C_31  and  C_34 
DOCKED: REMARK    8  A    between atoms: C_34  and  C_35 
DOCKED: REMARK    9  A    between atoms: C_35  and  C_36 
DOCKED: REMARK   10  A    between atoms: C_36  and  O_38 
DOCKED: REMARK   11  A    between atoms: FE_43  and  C_44 
DOCKED: REMARK   12  A    between atoms: C_44  and  O_45 
DOCKED: USER                              x       y       z     vdW  Elec       q    Type
DOCKED: USER                           _______ _______ _______ _____ _____    ______ ____
DOCKED: ROOT
DOCKED: ATOM      1  C   UNL d   1      11.361   9.454   7.509 -0.12 +0.02    +0.064 A 
DOCKED: ATOM      2  C   UNL d   1      11.892  11.871   3.448 -0.17 -0.01    +0.064 C 
DOCKED: ATOM      3  C   UNL d   1      11.208  15.992   5.768 -0.17 -0.01    +0.064 A 
DOCKED: ATOM      4  C   UNL d   1      11.046  13.575   9.987 -0.22 +0.02    +0.064 A 
DOCKED: ATOM      5  C   UNL d   1      11.520   9.809   6.223 -0.12 +0.01    +0.066 A 
DOCKED: ATOM      6  C   UNL d   1      11.820   8.867   5.219 -0.18 -0.00    -0.021 A 
DOCKED: ATOM      7  C   UNL d   1      11.995   9.577   4.047 -0.27 -0.00    -0.025 A 
DOCKED: ATOM      8  C   UNL d   1      11.780  10.918   4.382 -0.19 -0.00    +0.066 A 
DOCKED: ATOM      9  C   UNL d   1      12.354   9.028   2.658 -0.45 -0.00    +0.051 C 
DOCKED: ATOM     10  C   UNL d   1      11.663  13.273   3.694 -0.19 -0.01    +0.066 A 
DOCKED: ATOM     11  C   UNL d   1      11.627  14.303   2.729 -0.24 +0.00    -0.021 A 
DOCKED: ATOM     12  C   UNL d   1      11.422  15.493   3.432 -0.15 -0.00    +0.000 A 
DOCKED: ATOM     13  C   UNL d   1      11.336  15.101   4.768 -0.14 -0.01    +0.070 A 
DOCKED: ATOM     14  C   UNL d   1      11.691  14.128   1.234 -0.36 -0.02    +0.052 C 
DOCKED: ATOM     15  C   UNL d   1      11.156  15.767   7.199 -0.19 -0.01    +0.066 A 
DOCKED: ATOM     16  C   UNL d   1      11.170  16.742   8.186 -0.18 +0.00    -0.021 A 
DOCKED: ATOM     17  C   UNL d   1      11.126  16.050   9.405 -0.22 +0.00    +0.000 A 
DOCKED: ATOM     18  C   UNL d   1      11.071  14.702   9.063 -0.23 +0.01    +0.070 A 
DOCKED: ATOM     19  C   UNL d   1      11.224  18.234   7.945 -0.13 -0.01    +0.052 C 
DOCKED: ATOM     20  C   UNL d   1      11.080  12.256   9.679 -0.19 +0.02    +0.066 A 
DOCKED: ATOM     21  C   UNL d   1      11.088  11.264  10.657 -0.16 -0.01    -0.025 A 
DOCKED: ATOM     22  C   UNL d   1      11.149  10.065   9.972 -0.14 -0.01    -0.021 A 
DOCKED: ATOM     23  C   UNL d   1      11.188  10.388   8.598 -0.15 +0.01    +0.066 A 
DOCKED: ATOM     24  C   UNL d   1      11.060  11.450  12.172 -0.16 +0.03    +0.051 C 
DOCKED: ATOM     25  N   UNL d   1      11.478  11.090   5.723 +0.03 -0.01    -0.248 N 
DOCKED: ATOM     26  N   UNL d   1      11.425  13.752   4.919 -0.01 +0.02    -0.248 N 
DOCKED: ATOM     27  N   UNL d   1      11.122  14.570   7.742 -0.10 -0.00    -0.248 N 
DOCKED: ATOM     28  N   UNL d   1      11.149  11.713   8.417 -0.08 -0.04    -0.248 N 
DOCKED: ATOM     29 FE   UNL d   1      11.288  12.932   6.795 -0.04 +0.00    +0.000 Fe
DOCKED: ENDROOT
DOCKED: BRANCH   6  30
DOCKED: ATOM     30  C   UNL d   1      12.008   7.366   5.408 -0.22 +0.01    +0.052 C 
DOCKED: BRANCH  30  31
DOCKED: ATOM     31  C   UNL d   1      13.023   7.086   6.515 -0.11 +0.04    +0.115 C 
DOCKED: BRANCH  31  32
DOCKED: ATOM     32  C   UNL d   1      12.439   6.253   7.637 -0.13 +0.11    +0.139 C 
DOCKED: ATOM     33  O   UNL d   1      11.848   5.217   7.371 -0.30 -0.85    -0.650 OA
DOCKED: BRANCH  32  34
DOCKED: ATOM     34  O   UNL d   1      12.591   6.594   8.937 +0.03 -0.63    -0.776 OA
DOCKED: ATOM     35  H   UNL d   1      11.860   6.687   9.564 +0.02 +0.17    +0.167 HD
DOCKED: ENDBRANCH  32  34
DOCKED: ENDBRANCH  31  32
DOCKED: ENDBRANCH  30  31
DOCKED: ENDBRANCH   6  30
DOCKED: BRANCH  29  36
DOCKED: ATOM     36  C   UNL d   1      13.379  12.929   6.944 -0.05 +0.01    +0.190 C 
DOCKED: BRANCH  36  37
DOCKED: ATOM     37  O   UNL d   1      14.485  12.086   7.093 -0.00 -0.04    -0.399 OA
DOCKED: ATOM     38  H   UNL d   1      14.099  11.196   7.330 +0.02 +0.03    +0.209 HD
DOCKED: ENDBRANCH  36  37
DOCKED: ENDBRANCH  29  36
DOCKED: BRANCH  22  39
DOCKED: ATOM     39  C   UNL d   1      11.232   8.691  10.609 -0.11 +0.02    +0.052 C 
DOCKED: BRANCH  39  40
DOCKED: ATOM     40  C   UNL d   1       9.835   8.198  11.019 -0.06 +0.06    +0.115 C 
DOCKED: BRANCH  40  41
DOCKED: ATOM     41  C   UNL d   1       9.424   6.885  10.385 -0.09 +0.15    +0.139 C 
DOCKED: ATOM     42  O   UNL d   1       8.722   6.109  11.017 -0.29 -0.82    -0.650 OA
DOCKED: BRANCH  41  43
DOCKED: ATOM     43  O   UNL d   1       9.739   6.586   9.105 +0.07 -1.15    -0.776 OA
DOCKED: ATOM     44  H   UNL d   1      10.601   6.231   8.852 +0.03 +0.31    +0.167 HD
DOCKED: ENDBRANCH  41  43
DOCKED: ENDBRANCH  40  41
DOCKED: ENDBRANCH  39  40
DOCKED: ENDBRANCH  22  39
DOCKED: BRANCH  12  45
DOCKED: ATOM     45  C   UNL d   1      11.281  16.946   2.997 -0.12 -0.00    +0.004 C 
DOCKED: ATOM     46  C   UNL d   1      10.195  17.694   2.817 -0.16 -0.00    +0.012 C 
DOCKED: ENDBRANCH  12  45
DOCKED: BRANCH  17  47
DOCKED: ATOM     47  C   UNL d   1      11.181  16.574  10.802 -0.19 +0.00    +0.004 C 
DOCKED: ATOM     48  C   UNL d   1      10.358  17.515  11.270 -0.20 +0.00    +0.012 C 
DOCKED: ENDBRANCH  17  47
DOCKED: TORSDOF 12
DOCKED: TER
DOCKED: ENDMDL
________________________________________________________________________________


	BEGINNING GENETIC ALGORITHM DOCKING 49 of 100
Run: 49 Seed: 391827270 918848221 [ Run 49 of 100 GA/GALS ]
Beginning LAMARCKIAN GENETIC ALGORITHM (LGA), with a maximum of 25000000 energy evaluations.

Final-Value: -10.790


	FINAL GENETIC ALGORITHM DOCKED STATE
	_______________________________________________


Detailed state:  trans 15.375 9.845 5.156 quatxyzw 0.096768 -0.499217 -0.853704 0.112288 center 8.781 34.984 -0.736 ntor 12 -143.0977 114.7918 -7.9031 125.7633 51.4994 144.4898 59.2934 149.8686 119.7125 164.5297 6.7392 12.7529
State:	 15.375   9.845   5.156   0.097 -0.502 -0.859 167.105   -143.10  114.79   -7.90  125.76   51.50  144.49   59.29  149.87  119.71  164.53    6.74   12.75

DOCKED: MODEL       49
DOCKED: USER    Run = 49
DOCKED: USER    DPF = D:/Protein_go_brrr/autodock/final/mut_Y35F/heme_Co/dock.dpf
DOCKED: USER  
DOCKED: USER    Estimated Free Energy of Binding    =   -4.83 kcal/mol  [=(1)+(2)+(3)-(4)]
DOCKED: USER    Estimated Inhibition Constant, Ki   =  289.74 uM (micromolar)  [Temperature = 298.15 K]
DOCKED: USER    
DOCKED: USER    (1) Final Intermolecular Energy     =   -8.41 kcal/mol
DOCKED: USER        vdW + Hbond + desolv Energy     =   -6.65 kcal/mol
DOCKED: USER        Electrostatic Energy            =   -1.76 kcal/mol
DOCKED: USER    (2) Final Total Internal Energy     =   -2.38 kcal/mol
DOCKED: USER    (3) Torsional Free Energy           =   +3.58 kcal/mol
DOCKED: USER    (4) Unbound System's Energy  [=(2)] =   -2.38 kcal/mol
DOCKED: USER    
DOCKED: USER    
DOCKED: USER    NEWDPF move heme_Co_opt.pdbqt
DOCKED: USER    NEWDPF about 8.781000 34.984000 -0.736000
DOCKED: USER    NEWDPF tran0 15.375062 9.844629 5.156351
DOCKED: USER    NEWDPF quaternion0 0.096768 -0.499217 -0.853704 0.112288
DOCKED: USER    NEWDPF axisangle0 0.097383 -0.502394 -0.859137 167.105501
DOCKED: USER    NEWDPF quat0 0.097383 -0.502394 -0.859137 167.105501
DOCKED: USER    NEWDPF dihe0 -143.10 114.79 -7.90 125.76 51.50 144.49 59.29 149.87 119.71 164.53 6.74 12.75 
DOCKED: USER  keepresnum = 1 
DOCKED: USER  
DOCKED: REMARK  12 active torsions:
DOCKED: REMARK  status: ('A' for Active; 'I' for Inactive)
DOCKED: REMARK    1  A    between atoms: C_6  and  C_10 
DOCKED: REMARK    2  A    between atoms: C_10  and  C_11 
DOCKED: REMARK    3  A    between atoms: C_11  and  C_12 
DOCKED: REMARK    4  A    between atoms: C_12  and  O_14 
DOCKED: REMARK    5  A    between atoms: C_17  and  C_20 
DOCKED: REMARK    6  A    between atoms: C_24  and  C_27 
DOCKED: REMARK    7  A    between atoms: C_31  and  C_34 
DOCKED: REMARK    8  A    between atoms: C_34  and  C_35 
DOCKED: REMARK    9  A    between atoms: C_35  and  C_36 
DOCKED: REMARK   10  A    between atoms: C_36  and  O_38 
DOCKED: REMARK   11  A    between atoms: FE_43  and  C_44 
DOCKED: REMARK   12  A    between atoms: C_44  and  O_45 
DOCKED: USER                              x       y       z     vdW  Elec       q    Type
DOCKED: USER                           _______ _______ _______ _____ _____    ______ ____
DOCKED: ROOT
DOCKED: ATOM      1  C   UNL d   1      17.126   8.680   5.697 -0.09 +0.02    +0.064 A 
DOCKED: ATOM      2  C   UNL d   1      16.491  13.331   4.942 -0.07 +0.00    +0.064 C 
DOCKED: ATOM      3  C   UNL d   1      11.966  12.539   3.628 -0.19 -0.01    +0.064 A 
DOCKED: ATOM      4  C   UNL d   1      12.475   7.835   4.761 -0.23 +0.01    +0.064 A 
DOCKED: ATOM      5  C   UNL d   1      17.296  10.005   5.552 -0.03 +0.02    +0.066 A 
DOCKED: ATOM      6  C   UNL d   1      18.496  10.648   5.913 -0.06 -0.01    -0.021 A 
DOCKED: ATOM      7  C   UNL d   1      18.298  12.000   5.713 -0.05 -0.00    -0.025 A 
DOCKED: ATOM      8  C   UNL d   1      16.993  12.122   5.224 -0.06 +0.01    +0.066 A 
DOCKED: ATOM      9  C   UNL d   1      19.290  13.146   5.969 -0.02 +0.00    +0.051 C 
DOCKED: ATOM     10  C   UNL d   1      15.170  13.553   4.410 -0.07 +0.00    +0.066 A 
DOCKED: ATOM     11  C   UNL d   1      14.635  14.780   3.962 -0.05 +0.00    -0.021 A 
DOCKED: ATOM     12  C   UNL d   1      13.316  14.520   3.581 -0.10 -0.00    +0.000 A 
DOCKED: ATOM     13  C   UNL d   1      13.148  13.154   3.812 -0.13 -0.01    +0.070 A 
DOCKED: ATOM     14  C   UNL d   1      15.383  16.082   3.825 -0.03 -0.01    +0.052 C 
DOCKED: ATOM     15  C   UNL d   1      11.603  11.156   3.866 -0.22 -0.01    +0.066 A 
DOCKED: ATOM     16  C   UNL d   1      10.327  10.616   3.793 -0.32 +0.00    -0.021 A 
DOCKED: ATOM     17  C   UNL d   1      10.468   9.260   4.122 -0.33 +0.00    +0.000 A 
DOCKED: ATOM     18  C   UNL d   1      11.827   9.075   4.353 -0.23 +0.00    +0.070 A 
DOCKED: ATOM     19  C   UNL d   1       9.071  11.378   3.431 -0.35 -0.00    +0.052 C 
DOCKED: ATOM     20  C   UNL d   1      13.780   7.652   5.075 -0.18 +0.01    +0.066 A 
DOCKED: ATOM     21  C   UNL d   1      14.279   6.419   5.490 -0.18 -0.01    -0.025 A 
DOCKED: ATOM     22  C   UNL d   1      15.623   6.625   5.739 -0.12 -0.01    -0.021 A 
DOCKED: ATOM     23  C   UNL d   1      15.878   7.987   5.473 -0.12 +0.02    +0.066 A 
DOCKED: ATOM     24  C   UNL d   1      13.508   5.112   5.660 -0.18 +0.02    +0.051 C 
DOCKED: ATOM     25  N   UNL d   1      16.351  10.901   5.109 -0.04 -0.09    -0.248 N 
DOCKED: ATOM     26  N   UNL d   1      14.286  12.560   4.260 -0.07 -0.01    -0.248 N 
DOCKED: ATOM     27  N   UNL d   1      12.468  10.232   4.221 -0.12 -0.00    -0.248 N 
DOCKED: ATOM     28  N   UNL d   1      14.764   8.613   5.074 -0.09 -0.07    -0.248 N 
DOCKED: ATOM     29 FE   UNL d   1      14.295  10.543   4.639 -0.04 +0.00    +0.000 Fe
DOCKED: ENDROOT
DOCKED: BRANCH   6  30
DOCKED: ATOM     30  C   UNL d   1      19.740   9.990   6.500 -0.03 +0.01    +0.052 C 
DOCKED: BRANCH  30  31
DOCKED: ATOM     31  C   UNL d   1      20.701   9.571   5.388 -0.05 +0.04    +0.115 C 
DOCKED: BRANCH  31  32
DOCKED: ATOM     32  C   UNL d   1      20.094   8.542   4.458 -0.16 +0.11    +0.139 C 
DOCKED: ATOM     33  O   UNL d   1      19.903   7.405   4.863 -0.04 -0.50    -0.650 OA
DOCKED: BRANCH  32  34
DOCKED: ATOM     34  O   UNL d   1      19.708   8.851   3.199 -0.38 -0.96    -0.776 OA
DOCKED: ATOM     35  H   UNL d   1      18.961   8.441   2.743 -0.26 +0.23    +0.167 HD
DOCKED: ENDBRANCH  32  34
DOCKED: ENDBRANCH  31  32
DOCKED: ENDBRANCH  30  31
DOCKED: ENDBRANCH   6  30
DOCKED: BRANCH  29  36
DOCKED: ATOM     36  C   UNL d   1      13.883  10.922   6.659 -0.04 +0.02    +0.190 C 
DOCKED: BRANCH  36  37
DOCKED: ATOM     37  O   UNL d   1      14.492  11.109   7.904 -0.00 -0.05    -0.399 OA
DOCKED: ATOM     38  H   UNL d   1      15.472  11.051   7.722 +0.01 +0.03    +0.209 HD
DOCKED: ENDBRANCH  36  37
DOCKED: ENDBRANCH  29  36
DOCKED: BRANCH  22  39
DOCKED: ATOM     39  C   UNL d   1      16.590   5.582   6.266 -0.08 +0.02    +0.052 C 
DOCKED: BRANCH  39  40
DOCKED: ATOM     40  C   UNL d   1      17.657   5.248   5.210 -0.15 +0.05    +0.115 C 
DOCKED: BRANCH  40  41
DOCKED: ATOM     41  C   UNL d   1      17.261   5.594   3.790 -0.26 +0.07    +0.139 C 
DOCKED: ATOM     42  O   UNL d   1      16.413   4.919   3.224 -0.06 -0.27    -0.650 OA
DOCKED: BRANCH  41  43
DOCKED: ATOM     43  O   UNL d   1      17.755   6.683   3.160 -0.08 -0.64    -0.776 OA
DOCKED: ATOM     44  H   UNL d   1      18.363   7.300   3.589 +0.03 +0.16    +0.167 HD
DOCKED: ENDBRANCH  41  43
DOCKED: ENDBRANCH  40  41
DOCKED: ENDBRANCH  39  40
DOCKED: ENDBRANCH  22  39
DOCKED: BRANCH  12  45
DOCKED: ATOM     45  C   UNL d   1      12.208  15.394   3.010 -0.15 -0.00    +0.004 C 
DOCKED: ATOM     46  C   UNL d   1      11.573  15.336   1.843 -0.29 -0.00    +0.012 C 
DOCKED: ENDBRANCH  12  45
DOCKED: BRANCH  17  47
DOCKED: ATOM     47  C   UNL d   1       9.426   8.200   4.268 -0.39 +0.00    +0.004 C 
DOCKED: ATOM     48  C   UNL d   1       8.279   8.195   3.585 -0.47 +0.00    +0.012 C 
DOCKED: ENDBRANCH  17  47
DOCKED: TORSDOF 12
DOCKED: TER
DOCKED: ENDMDL
________________________________________________________________________________


	BEGINNING GENETIC ALGORITHM DOCKING 50 of 100
Run: 50 Seed: 1973370509 690781623 [ Run 50 of 100 GA/GALS ]
Beginning LAMARCKIAN GENETIC ALGORITHM (LGA), with a maximum of 25000000 energy evaluations.

Final-Value: -8.620


	FINAL GENETIC ALGORITHM DOCKED STATE
	_______________________________________________


Detailed state:  trans -9.485 -19.547 -8.287 quatxyzw -0.141927 -0.206624 0.950123 -0.185549 center 8.781 34.984 -0.736 ntor 12 -168.4159 135.1962 9.6504 64.4667 132.4071 123.0984 40.0532 -143.8402 177.0740 -50.6321 -166.2002 -156.9093
State:	 -9.485 -19.547  -8.287  -0.144 -0.210  0.967 -158.614   -168.42  135.20    9.65   64.47  132.41  123.10   40.05 -143.84  177.07  -50.63 -166.20 -156.91

DOCKED: MODEL       50
DOCKED: USER    Run = 50
DOCKED: USER    DPF = D:/Protein_go_brrr/autodock/final/mut_Y35F/heme_Co/dock.dpf
DOCKED: USER  
DOCKED: USER    Estimated Free Energy of Binding    =   -2.84 kcal/mol  [=(1)+(2)+(3)-(4)]
DOCKED: USER    Estimated Inhibition Constant, Ki   =    8.31 mM (millimolar)  [Temperature = 298.15 K]
DOCKED: USER    
DOCKED: USER    (1) Final Intermolecular Energy     =   -6.42 kcal/mol
DOCKED: USER        vdW + Hbond + desolv Energy     =   -5.08 kcal/mol
DOCKED: USER        Electrostatic Energy            =   -1.34 kcal/mol
DOCKED: USER    (2) Final Total Internal Energy     =   -2.20 kcal/mol
DOCKED: USER    (3) Torsional Free Energy           =   +3.58 kcal/mol
DOCKED: USER    (4) Unbound System's Energy  [=(2)] =   -2.20 kcal/mol
DOCKED: USER    
DOCKED: USER    
DOCKED: USER    NEWDPF move heme_Co_opt.pdbqt
DOCKED: USER    NEWDPF about 8.781000 34.984000 -0.736000
DOCKED: USER    NEWDPF tran0 -9.484985 -19.546824 -8.286696
DOCKED: USER    NEWDPF quaternion0 -0.141927 -0.206624 0.950123 -0.185549
DOCKED: USER    NEWDPF axisangle0 -0.144435 -0.210276 0.966914 -158.613695
DOCKED: USER    NEWDPF quat0 -0.144435 -0.210276 0.966914 -158.613695
DOCKED: USER    NEWDPF dihe0 -168.42 135.20 9.65 64.47 132.41 123.10 40.05 -143.84 177.07 -50.63 -166.20 -156.91 
DOCKED: USER  keepresnum = 1 
DOCKED: USER  
DOCKED: REMARK  12 active torsions:
DOCKED: REMARK  status: ('A' for Active; 'I' for Inactive)
DOCKED: REMARK    1  A    between atoms: C_6  and  C_10 
DOCKED: REMARK    2  A    between atoms: C_10  and  C_11 
DOCKED: REMARK    3  A    between atoms: C_11  and  C_12 
DOCKED: REMARK    4  A    between atoms: C_12  and  O_14 
DOCKED: REMARK    5  A    between atoms: C_17  and  C_20 
DOCKED: REMARK    6  A    between atoms: C_24  and  C_27 
DOCKED: REMARK    7  A    between atoms: C_31  and  C_34 
DOCKED: REMARK    8  A    between atoms: C_34  and  C_35 
DOCKED: REMARK    9  A    between atoms: C_35  and  C_36 
DOCKED: REMARK   10  A    between atoms: C_36  and  O_38 
DOCKED: REMARK   11  A    between atoms: FE_43  and  C_44 
DOCKED: REMARK   12  A    between atoms: C_44  and  O_45 
DOCKED: USER                              x       y       z     vdW  Elec       q    Type
DOCKED: USER                           _______ _______ _______ _____ _____    ______ ____
DOCKED: ROOT
DOCKED: ATOM      1  C   UNL d   1      -7.613 -20.476  -8.879 -0.20 +0.00    +0.064 A 
DOCKED: ATOM      2  C   UNL d   1      -9.247 -18.978  -4.671 -0.15 -0.00    +0.064 C 
DOCKED: ATOM      3  C   UNL d   1     -13.155 -17.210  -6.776 -0.13 +0.01    +0.064 A 
DOCKED: ATOM      4  C   UNL d   1     -11.692 -19.070 -11.026 -0.06 +0.00    +0.064 A 
DOCKED: ATOM      5  C   UNL d   1      -7.756 -20.164  -7.580 -0.21 -0.00    +0.066 A 
DOCKED: ATOM      6  C   UNL d   1      -6.828 -20.582  -6.605 -0.15 +0.00    -0.021 A 
DOCKED: ATOM      7  C   UNL d   1      -7.319 -20.165  -5.384 -0.18 +0.00    -0.025 A 
DOCKED: ATOM      8  C   UNL d   1      -8.515 -19.496  -5.666 -0.17 -0.00    +0.066 A 
DOCKED: ATOM      9  C   UNL d   1      -6.698 -20.380  -3.995 -0.18 -0.01    +0.051 C 
DOCKED: ATOM     10  C   UNL d   1     -10.476 -18.251  -4.868 -0.14 +0.00    +0.066 A 
DOCKED: ATOM     11  C   UNL d   1     -11.217 -17.564  -3.882 -0.16 -0.00    -0.021 A 
DOCKED: ATOM     12  C   UNL d   1     -12.349 -17.054  -4.523 -0.19 +0.00    +0.000 A 
DOCKED: ATOM     13  C   UNL d   1     -12.210 -17.457  -5.852 -0.09 +0.01    +0.070 A 
DOCKED: ATOM     14  C   UNL d   1     -10.802 -17.339  -2.450 -0.16 -0.00    +0.052 C 
DOCKED: ATOM     15  C   UNL d   1     -13.199 -17.596  -8.173 -0.12 +0.01    +0.066 A 
DOCKED: ATOM     16  C   UNL d   1     -14.272 -17.436  -9.038 -0.10 -0.00    -0.021 A 
DOCKED: ATOM     17  C   UNL d   1     -13.856 -17.973 -10.264 -0.06 +0.00    +0.000 A 
DOCKED: ATOM     18  C   UNL d   1     -12.551 -18.404 -10.054 -0.08 +0.01    +0.070 A 
DOCKED: ATOM     19  C   UNL d   1     -15.600 -16.805  -8.680 -0.10 +0.00    +0.052 C 
DOCKED: ATOM     20  C   UNL d   1     -10.452 -19.575 -10.821 -0.09 +0.01    +0.066 A 
DOCKED: ATOM     21  C   UNL d   1      -9.739 -20.226 -11.825 -0.10 -0.00    -0.025 A 
DOCKED: ATOM     22  C   UNL d   1      -8.547 -20.617 -11.243 -0.16 -0.00    -0.021 A 
DOCKED: ATOM     23  C   UNL d   1      -8.598 -20.193  -9.898 -0.18 +0.00    +0.066 A 
DOCKED: ATOM     24  C   UNL d   1     -10.179 -20.481 -13.264 -0.06 +0.01    +0.051 C 
DOCKED: ATOM     25  N   UNL d   1      -8.807 -19.475  -7.019 -0.14 +0.01    -0.248 N 
DOCKED: ATOM     26  N   UNL d   1     -11.050 -18.132  -6.070 -0.07 -0.01    -0.248 N 
DOCKED: ATOM     27  N   UNL d   1     -12.203 -18.192  -8.790 -0.02 -0.02    -0.248 N 
DOCKED: ATOM     28  N   UNL d   1      -9.750 -19.564  -9.638 -0.10 -0.00    -0.248 N 
DOCKED: ATOM     29 FE   UNL d   1     -10.605 -18.796  -7.960 -0.04 +0.00    +0.000 Fe
DOCKED: ENDROOT
DOCKED: BRANCH   6  30
DOCKED: ATOM     30  C   UNL d   1      -5.574 -21.416  -6.842 -0.10 -0.01    +0.052 C 
DOCKED: BRANCH  30  31
DOCKED: ATOM     31  C   UNL d   1      -5.923 -22.902  -6.919 -0.06 -0.01    +0.115 C 
DOCKED: BRANCH  31  32
DOCKED: ATOM     32  C   UNL d   1      -7.384 -23.167  -6.627 -0.02 -0.00    +0.139 C 
DOCKED: ATOM     33  O   UNL d   1      -7.740 -23.371  -5.476 +0.02 +0.00    -0.650 OA
DOCKED: BRANCH  32  34
DOCKED: ATOM     34  O   UNL d   1      -8.327 -23.140  -7.598 +0.03 -0.02    -0.776 OA
DOCKED: ATOM     35  H   UNL d   1      -9.278 -23.202  -7.435 +0.01 +0.00    +0.167 HD
DOCKED: ENDBRANCH  32  34
DOCKED: ENDBRANCH  31  32
DOCKED: ENDBRANCH  30  31
DOCKED: ENDBRANCH   6  30
DOCKED: BRANCH  29  36
DOCKED: ATOM     36  C   UNL d   1     -11.423 -20.669  -7.493 -0.03 +0.00    +0.190 C 
DOCKED: BRANCH  36  37
DOCKED: ATOM     37  O   UNL d   1     -11.095 -22.018  -7.324 +0.00 -0.01    -0.399 OA
DOCKED: ATOM     38  H   UNL d   1     -10.116 -22.021  -7.131 +0.02 +0.00    +0.209 HD
DOCKED: ENDBRANCH  36  37
DOCKED: ENDBRANCH  29  36
DOCKED: BRANCH  22  39
DOCKED: ATOM     39  C   UNL d   1      -7.452 -21.412 -11.929 -0.10 +0.02    +0.052 C 
DOCKED: BRANCH  39  40
DOCKED: ATOM     40  C   UNL d   1      -8.012 -22.725 -12.502 -0.08 +0.05    +0.115 C 
DOCKED: BRANCH  40  41
DOCKED: ATOM     41  C   UNL d   1      -7.776 -22.910 -13.986 -0.08 +0.11    +0.139 C 
DOCKED: ATOM     42  O   UNL d   1      -7.277 -21.999 -14.631 -0.48 -1.17    -0.650 OA
DOCKED: BRANCH  41  43
DOCKED: ATOM     43  O   UNL d   1      -8.023 -24.087 -14.603 -0.00 -0.39    -0.776 OA
DOCKED: ATOM     44  H   UNL d   1      -8.559 -24.782 -14.200 +0.01 +0.05    +0.167 HD
DOCKED: ENDBRANCH  41  43
DOCKED: ENDBRANCH  40  41
DOCKED: ENDBRANCH  39  40
DOCKED: ENDBRANCH  22  39
DOCKED: BRANCH  12  45
DOCKED: ATOM     45  C   UNL d   1     -13.530 -16.223  -4.041 -0.24 +0.00    +0.004 C 
DOCKED: ATOM     46  C   UNL d   1     -13.565 -15.043  -3.428 -0.31 +0.00    +0.012 C 
DOCKED: ENDBRANCH  12  45
DOCKED: BRANCH  17  47
DOCKED: ATOM     47  C   UNL d   1     -14.613 -18.133 -11.541 -0.03 +0.00    +0.004 C 
DOCKED: ATOM     48  C   UNL d   1     -14.350 -17.433 -12.647 -0.03 +0.00    +0.012 C 
DOCKED: ENDBRANCH  17  47
DOCKED: TORSDOF 12
DOCKED: TER
DOCKED: ENDMDL
________________________________________________________________________________


	BEGINNING GENETIC ALGORITHM DOCKING 51 of 100
Run: 51 Seed: 211225595 1128272370 [ Run 51 of 100 GA/GALS ]
Beginning LAMARCKIAN GENETIC ALGORITHM (LGA), with a maximum of 25000000 energy evaluations.

Final-Value: -11.358


	FINAL GENETIC ALGORITHM DOCKED STATE
	_______________________________________________


Detailed state:  trans 11.346 11.151 7.276 quatxyzw 0.674062 0.582146 0.410927 -0.194642 center 8.781 34.984 -0.736 ntor 12 144.3175 102.6150 -50.2163 115.5244 -98.6686 125.2069 144.1373 -176.2820 -65.3301 9.3541 -166.9697 158.3355
State:	 11.346  11.151   7.276   0.687  0.593  0.419 -157.552    144.32  102.61  -50.22  115.52  -98.67  125.21  144.14 -176.28  -65.33    9.35 -166.97  158.34

DOCKED: MODEL       51
DOCKED: USER    Run = 51
DOCKED: USER    DPF = D:/Protein_go_brrr/autodock/final/mut_Y35F/heme_Co/dock.dpf
DOCKED: USER  
DOCKED: USER    Estimated Free Energy of Binding    =   -5.44 kcal/mol  [=(1)+(2)+(3)-(4)]
DOCKED: USER    Estimated Inhibition Constant, Ki   =  103.33 uM (micromolar)  [Temperature = 298.15 K]
DOCKED: USER    
DOCKED: USER    (1) Final Intermolecular Energy     =   -9.02 kcal/mol
DOCKED: USER        vdW + Hbond + desolv Energy     =   -6.42 kcal/mol
DOCKED: USER        Electrostatic Energy            =   -2.59 kcal/mol
DOCKED: USER    (2) Final Total Internal Energy     =   -2.34 kcal/mol
DOCKED: USER    (3) Torsional Free Energy           =   +3.58 kcal/mol
DOCKED: USER    (4) Unbound System's Energy  [=(2)] =   -2.34 kcal/mol
DOCKED: USER    
DOCKED: USER    
DOCKED: USER    NEWDPF move heme_Co_opt.pdbqt
DOCKED: USER    NEWDPF about 8.781000 34.984000 -0.736000
DOCKED: USER    NEWDPF tran0 11.346312 11.150898 7.275572
DOCKED: USER    NEWDPF quaternion0 0.674062 0.582146 0.410927 -0.194642
DOCKED: USER    NEWDPF axisangle0 0.687205 0.593497 0.418940 -157.552320
DOCKED: USER    NEWDPF quat0 0.687205 0.593497 0.418940 -157.552320
DOCKED: USER    NEWDPF dihe0 144.32 102.61 -50.22 115.52 -98.67 125.21 144.14 -176.28 -65.33 9.35 -166.97 158.34 
DOCKED: USER  keepresnum = 1 
DOCKED: USER  
DOCKED: REMARK  12 active torsions:
DOCKED: REMARK  status: ('A' for Active; 'I' for Inactive)
DOCKED: REMARK    1  A    between atoms: C_6  and  C_10 
DOCKED: REMARK    2  A    between atoms: C_10  and  C_11 
DOCKED: REMARK    3  A    between atoms: C_11  and  C_12 
DOCKED: REMARK    4  A    between atoms: C_12  and  O_14 
DOCKED: REMARK    5  A    between atoms: C_17  and  C_20 
DOCKED: REMARK    6  A    between atoms: C_24  and  C_27 
DOCKED: REMARK    7  A    between atoms: C_31  and  C_34 
DOCKED: REMARK    8  A    between atoms: C_34  and  C_35 
DOCKED: REMARK    9  A    between atoms: C_35  and  C_36 
DOCKED: REMARK   10  A    between atoms: C_36  and  O_38 
DOCKED: REMARK   11  A    between atoms: FE_43  and  C_44 
DOCKED: REMARK   12  A    between atoms: C_44  and  O_45 
DOCKED: USER                              x       y       z     vdW  Elec       q    Type
DOCKED: USER                           _______ _______ _______ _____ _____    ______ ____
DOCKED: ROOT
DOCKED: ATOM      1  C   UNL d   1      11.025   9.016   7.510 -0.13 +0.02    +0.064 A 
DOCKED: ATOM      2  C   UNL d   1      12.259  11.668   3.761 -0.24 -0.01    +0.064 C 
DOCKED: ATOM      3  C   UNL d   1      11.708  15.648   6.347 -0.13 -0.01    +0.064 A 
DOCKED: ATOM      4  C   UNL d   1      10.820  12.945  10.293 -0.23 +0.02    +0.064 A 
DOCKED: ATOM      5  C   UNL d   1      11.367   9.450   6.286 -0.13 +0.01    +0.066 A 
DOCKED: ATOM      6  C   UNL d   1      11.690   8.562   5.242 -0.19 -0.00    -0.021 A 
DOCKED: ATOM      7  C   UNL d   1      12.069   9.337   4.163 -0.26 -0.00    -0.025 A 
DOCKED: ATOM      8  C   UNL d   1      11.946  10.664   4.590 -0.18 +0.00    +0.066 A 
DOCKED: ATOM      9  C   UNL d   1      12.534   8.861   2.778 -0.45 -0.00    +0.051 C 
DOCKED: ATOM     10  C   UNL d   1      12.138  13.063   4.103 -0.15 -0.01    +0.066 A 
DOCKED: ATOM     11  C   UNL d   1      12.316  14.163   3.235 -0.16 +0.00    -0.021 A 
DOCKED: ATOM     12  C   UNL d   1      12.145  15.311   4.014 -0.10 -0.00    +0.000 A 
DOCKED: ATOM     13  C   UNL d   1      11.865  14.828   5.293 -0.11 -0.01    +0.070 A 
DOCKED: ATOM     14  C   UNL d   1      12.537  14.097   1.746 -0.36 -0.02    +0.052 C 
DOCKED: ATOM     15  C   UNL d   1      11.467  15.320   7.739 -0.17 -0.00    +0.066 A 
DOCKED: ATOM     16  C   UNL d   1      11.459  16.210   8.804 -0.17 -0.00    -0.021 A 
DOCKED: ATOM     17  C   UNL d   1      11.206  15.434   9.945 -0.22 +0.00    +0.000 A 
DOCKED: ATOM     18  C   UNL d   1      11.062  14.131   9.481 -0.22 +0.01    +0.070 A 
DOCKED: ATOM     19  C   UNL d   1      11.684  17.702   8.703 -0.11 -0.00    +0.052 C 
DOCKED: ATOM     20  C   UNL d   1      10.763  11.658   9.876 -0.19 +0.02    +0.066 A 
DOCKED: ATOM     21  C   UNL d   1      10.561  10.598  10.758 -0.13 -0.01    -0.025 A 
DOCKED: ATOM     22  C   UNL d   1      10.586   9.455   9.980 -0.16 -0.01    -0.021 A 
DOCKED: ATOM     23  C   UNL d   1      10.816   9.876   8.653 -0.16 +0.02    +0.066 A 
DOCKED: ATOM     24  C   UNL d   1      10.373  10.669  12.271 -0.10 +0.03    +0.051 C 
DOCKED: ATOM     25  N   UNL d   1      11.507  10.764   5.899 -0.05 -0.02    -0.248 N 
DOCKED: ATOM     26  N   UNL d   1      11.806  13.470   5.333 -0.06 +0.01    -0.248 N 
DOCKED: ATOM     27  N   UNL d   1      11.254  14.096   8.167 -0.10 -0.02    -0.248 N 
DOCKED: ATOM     28  N   UNL d   1      10.926  11.209   8.586 -0.08 -0.05    -0.248 N 
DOCKED: ATOM     29 FE   UNL d   1      11.372  12.527   7.103 -0.04 +0.00    +0.000 Fe
DOCKED: ENDROOT
DOCKED: BRANCH   6  30
DOCKED: ATOM     30  C   UNL d   1      11.709   7.039   5.316 -0.10 +0.01    +0.052 C 
DOCKED: BRANCH  30  31
DOCKED: ATOM     31  C   UNL d   1      13.028   6.546   5.910 -0.18 +0.04    +0.115 C 
DOCKED: BRANCH  31  32
DOCKED: ATOM     32  C   UNL d   1      12.845   5.899   7.266 -0.14 +0.10    +0.139 C 
DOCKED: ATOM     33  O   UNL d   1      11.723   5.582   7.634 -0.33 -0.88    -0.650 OA
DOCKED: BRANCH  32  34
DOCKED: ATOM     34  O   UNL d   1      13.893   5.613   8.072 +0.05 -0.45    -0.776 OA
DOCKED: ATOM     35  H   UNL d   1      13.890   5.732   9.032 +0.02 +0.10    +0.167 HD
DOCKED: ENDBRANCH  32  34
DOCKED: ENDBRANCH  31  32
DOCKED: ENDBRANCH  30  31
DOCKED: ENDBRANCH   6  30
DOCKED: BRANCH  29  36
DOCKED: ATOM     36  C   UNL d   1      13.421  12.292   7.478 -0.04 +0.02    +0.190 C 
DOCKED: BRANCH  36  37
DOCKED: ATOM     37  O   UNL d   1      14.430  11.330   7.589 -0.00 -0.05    -0.399 OA
DOCKED: ATOM     38  H   UNL d   1      13.950  10.455   7.602 +0.02 +0.03    +0.209 HD
DOCKED: ENDBRANCH  36  37
DOCKED: ENDBRANCH  29  36
DOCKED: BRANCH  22  39
DOCKED: ATOM     39  C   UNL d   1      10.460   8.035  10.499 -0.14 +0.03    +0.052 C 
DOCKED: BRANCH  39  40
DOCKED: ATOM     40  C   UNL d   1      11.843   7.369  10.597 -0.07 +0.08    +0.115 C 
DOCKED: BRANCH  40  41
DOCKED: ATOM     41  C   UNL d   1      11.808   5.916  11.022 +0.08 +0.18    +0.139 C 
DOCKED: ATOM     42  O   UNL d   1      11.001   5.560  11.869 -0.17 -0.86    -0.650 OA
DOCKED: BRANCH  41  43
DOCKED: ATOM     43  O   UNL d   1      12.585   4.984  10.428 -0.11 -1.22    -0.776 OA
DOCKED: ATOM     44  H   UNL d   1      12.701   4.937   9.470 +0.01 +0.28    +0.167 HD
DOCKED: ENDBRANCH  41  43
DOCKED: ENDBRANCH  40  41
DOCKED: ENDBRANCH  39  40
DOCKED: ENDBRANCH  22  39
DOCKED: BRANCH  12  45
DOCKED: ATOM     45  C   UNL d   1      12.196  16.799   3.696 -0.07 -0.00    +0.004 C 
DOCKED: ATOM     46  C   UNL d   1      11.220  17.699   3.604 -0.09 -0.00    +0.012 C 
DOCKED: ENDBRANCH  12  45
DOCKED: BRANCH  17  47
DOCKED: ATOM     47  C   UNL d   1      11.147  15.841  11.381 -0.18 +0.00    +0.004 C 
DOCKED: ATOM     48  C   UNL d   1      11.948  15.337  12.323 -0.14 +0.01    +0.012 C 
DOCKED: ENDBRANCH  17  47
DOCKED: TORSDOF 12
DOCKED: TER
DOCKED: ENDMDL
________________________________________________________________________________


	BEGINNING GENETIC ALGORITHM DOCKING 52 of 100
Run: 52 Seed: 1933444104 658453673 [ Run 52 of 100 GA/GALS ]
Beginning LAMARCKIAN GENETIC ALGORITHM (LGA), with a maximum of 25000000 energy evaluations.

Final-Value: -10.027


	FINAL GENETIC ALGORITHM DOCKED STATE
	_______________________________________________


Detailed state:  trans -17.676 -1.886 -0.868 quatxyzw -0.499970 0.086926 0.262089 -0.820843 center 8.781 34.984 -0.736 ntor 12 -163.7343 111.9377 -140.1342 -41.3148 141.5037 136.0518 36.3512 -36.3898 179.9910 -150.9338 -171.9143 0.8346
State:	-17.676  -1.886  -0.868  -0.875  0.152  0.459 -69.661   -163.73  111.94 -140.13  -41.31  141.50  136.05   36.35  -36.39  179.99 -150.93 -171.91    0.83

DOCKED: MODEL       52
DOCKED: USER    Run = 52
DOCKED: USER    DPF = D:/Protein_go_brrr/autodock/final/mut_Y35F/heme_Co/dock.dpf
DOCKED: USER  
DOCKED: USER    Estimated Free Energy of Binding    =   -4.27 kcal/mol  [=(1)+(2)+(3)-(4)]
DOCKED: USER    Estimated Inhibition Constant, Ki   =  746.55 uM (micromolar)  [Temperature = 298.15 K]
DOCKED: USER    
DOCKED: USER    (1) Final Intermolecular Energy     =   -7.85 kcal/mol
DOCKED: USER        vdW + Hbond + desolv Energy     =   -7.00 kcal/mol
DOCKED: USER        Electrostatic Energy            =   -0.85 kcal/mol
DOCKED: USER    (2) Final Total Internal Energy     =   -2.18 kcal/mol
DOCKED: USER    (3) Torsional Free Energy           =   +3.58 kcal/mol
DOCKED: USER    (4) Unbound System's Energy  [=(2)] =   -2.18 kcal/mol
DOCKED: USER    
DOCKED: USER    
DOCKED: USER    NEWDPF move heme_Co_opt.pdbqt
DOCKED: USER    NEWDPF about 8.781000 34.984000 -0.736000
DOCKED: USER    NEWDPF tran0 -17.675625 -1.886331 -0.867644
DOCKED: USER    NEWDPF quaternion0 -0.499970 0.086926 0.262089 -0.820843
DOCKED: USER    NEWDPF axisangle0 -0.875368 0.152193 0.458877 -69.661421
DOCKED: USER    NEWDPF quat0 -0.875368 0.152193 0.458877 -69.661421
DOCKED: USER    NEWDPF dihe0 -163.73 111.94 -140.13 -41.31 141.50 136.05 36.35 -36.39 179.99 -150.93 -171.91 0.83 
DOCKED: USER  keepresnum = 1 
DOCKED: USER  
DOCKED: REMARK  12 active torsions:
DOCKED: REMARK  status: ('A' for Active; 'I' for Inactive)
DOCKED: REMARK    1  A    between atoms: C_6  and  C_10 
DOCKED: REMARK    2  A    between atoms: C_10  and  C_11 
DOCKED: REMARK    3  A    between atoms: C_11  and  C_12 
DOCKED: REMARK    4  A    between atoms: C_12  and  O_14 
DOCKED: REMARK    5  A    between atoms: C_17  and  C_20 
DOCKED: REMARK    6  A    between atoms: C_24  and  C_27 
DOCKED: REMARK    7  A    between atoms: C_31  and  C_34 
DOCKED: REMARK    8  A    between atoms: C_34  and  C_35 
DOCKED: REMARK    9  A    between atoms: C_35  and  C_36 
DOCKED: REMARK   10  A    between atoms: C_36  and  O_38 
DOCKED: REMARK   11  A    between atoms: FE_43  and  C_44 
DOCKED: REMARK   12  A    between atoms: C_44  and  O_45 
DOCKED: USER                              x       y       z     vdW  Elec       q    Type
DOCKED: USER                           _______ _______ _______ _____ _____    ______ ____
DOCKED: ROOT
DOCKED: ATOM      1  C   UNL d   1     -19.472  -3.106  -0.883 -0.05 +0.03    +0.064 A 
DOCKED: ATOM      2  C   UNL d   1     -17.475  -0.403   2.480 -0.27 +0.02    +0.064 C 
DOCKED: ATOM      3  C   UNL d   1     -13.740   0.454  -0.373 -0.18 +0.01    +0.064 A 
DOCKED: ATOM      4  C   UNL d   1     -15.939  -1.984  -3.962 -0.13 +0.01    +0.064 A 
DOCKED: ATOM      5  C   UNL d   1     -19.184  -2.460   0.258 -0.10 +0.03    +0.066 A 
DOCKED: ATOM      6  C   UNL d   1     -20.087  -2.412   1.338 -0.10 -0.01    -0.021 A 
DOCKED: ATOM      7  C   UNL d   1     -19.512  -1.608   2.303 -0.16 -0.01    -0.025 A 
DOCKED: ATOM      8  C   UNL d   1     -18.277  -1.213   1.777 -0.20 +0.02    +0.066 A 
DOCKED: ATOM      9  C   UNL d   1     -20.091  -1.216   3.671 -0.11 +0.01    +0.051 C 
DOCKED: ATOM     10  C   UNL d   1     -16.177   0.035   2.033 -0.24 +0.02    +0.066 A 
DOCKED: ATOM     11  C   UNL d   1     -15.230   0.768   2.780 -0.30 -0.01    -0.021 A 
DOCKED: ATOM     12  C   UNL d   1     -14.149   1.001   1.925 -0.32 +0.00    +0.000 A 
DOCKED: ATOM     13  C   UNL d   1     -14.509   0.383   0.728 -0.24 +0.01    +0.070 A 
DOCKED: ATOM     14  C   UNL d   1     -15.331   1.129   4.240 -0.31 +0.01    +0.052 C 
DOCKED: ATOM     15  C   UNL d   1     -13.982  -0.077  -1.700 -0.18 +0.01    +0.066 A 
DOCKED: ATOM     16  C   UNL d   1     -13.214   0.156  -2.832 -0.30 -0.00    -0.021 A 
DOCKED: ATOM     17  C   UNL d   1     -13.845  -0.543  -3.871 -0.24 +0.00    +0.000 A 
DOCKED: ATOM     18  C   UNL d   1     -14.943  -1.164  -3.284 -0.19 +0.01    +0.070 A 
DOCKED: ATOM     19  C   UNL d   1     -11.960   1.001  -2.883 -0.32 -0.00    +0.052 C 
DOCKED: ATOM     20  C   UNL d   1     -17.061  -2.526  -3.431 -0.10 +0.02    +0.066 A 
DOCKED: ATOM     21  C   UNL d   1     -17.961  -3.267  -4.193 -0.06 -0.00    -0.025 A 
DOCKED: ATOM     22  C   UNL d   1     -18.976  -3.628  -3.326 -0.06 -0.01    -0.021 A 
DOCKED: ATOM     23  C   UNL d   1     -18.647  -3.075  -2.070 -0.02 +0.03    +0.066 A 
DOCKED: ATOM     24  C   UNL d   1     -17.871  -3.598  -5.681 -0.04 +0.00    +0.051 C 
DOCKED: ATOM     25  N   UNL d   1     -18.045  -1.731   0.514 -0.09 -0.12    -0.248 N 
DOCKED: ATOM     26  N   UNL d   1     -15.711  -0.248   0.812 -0.13 -0.07    -0.248 N 
DOCKED: ATOM     27  N   UNL d   1     -15.010  -0.839  -1.998 -0.06 -0.05    -0.248 N 
DOCKED: ATOM     28  N   UNL d   1     -17.490  -2.406  -2.130 +0.05 -0.12    -0.248 N 
DOCKED: ATOM     29 FE   UNL d   1     -16.439  -1.261  -0.818 -0.05 +0.00    +0.000 Fe
DOCKED: ENDROOT
DOCKED: BRANCH   6  30
DOCKED: ATOM     30  C   UNL d   1     -21.472  -3.048   1.395 -0.04 +0.01    +0.052 C 
DOCKED: BRANCH  30  31
DOCKED: ATOM     31  C   UNL d   1     -22.524  -2.095   0.828 -0.01 +0.01    +0.115 C 
DOCKED: BRANCH  31  32
DOCKED: ATOM     32  C   UNL d   1     -21.932  -0.767   0.406 -0.00 +0.01    +0.139 C 
DOCKED: ATOM     33  O   UNL d   1     -21.926   0.166   1.195 +0.02 -0.05    -0.650 OA
DOCKED: BRANCH  32  34
DOCKED: ATOM     34  O   UNL d   1     -21.362  -0.590  -0.809 +0.02 -0.08    -0.776 OA
DOCKED: ATOM     35  H   UNL d   1     -20.830   0.180  -1.052 +0.01 +0.02    +0.167 HD
DOCKED: ENDBRANCH  32  34
DOCKED: ENDBRANCH  31  32
DOCKED: ENDBRANCH  30  31
DOCKED: ENDBRANCH   6  30
DOCKED: BRANCH  29  36
DOCKED: ATOM     36  C   UNL d   1     -17.544   0.432  -1.374 -0.04 +0.03    +0.190 C 
DOCKED: BRANCH  36  37
DOCKED: ATOM     37  O   UNL d   1     -18.832   0.977  -1.354 +0.00 -0.04    -0.399 OA
DOCKED: ATOM     38  H   UNL d   1     -19.401   0.276  -0.929 +0.02 +0.03    +0.209 HD
DOCKED: ENDBRANCH  36  37
DOCKED: ENDBRANCH  29  36
DOCKED: BRANCH  22  39
DOCKED: ATOM     39  C   UNL d   1     -20.222  -4.406  -3.704 -0.02 +0.01    +0.052 C 
DOCKED: BRANCH  39  40
DOCKED: ATOM     40  C   UNL d   1     -20.098  -5.876  -3.268 -0.04 +0.01    +0.115 C 
DOCKED: BRANCH  40  41
DOCKED: ATOM     41  C   UNL d   1     -19.124  -6.110  -2.132 -0.11 +0.05    +0.139 C 
DOCKED: ATOM     42  O   UNL d   1     -19.555  -6.275  -0.999 -0.48 -0.40    -0.650 OA
DOCKED: BRANCH  41  43
DOCKED: ATOM     43  O   UNL d   1     -17.796  -6.229  -2.349 -0.08 -0.21    -0.776 OA
DOCKED: ATOM     44  H   UNL d   1     -17.264  -6.928  -1.946 -0.44 -0.11    +0.167 HD
DOCKED: ENDBRANCH  41  43
DOCKED: ENDBRANCH  40  41
DOCKED: ENDBRANCH  39  40
DOCKED: ENDBRANCH  22  39
DOCKED: BRANCH  12  45
DOCKED: ATOM     45  C   UNL d   1     -12.816   1.716   2.107 -0.45 +0.00    +0.004 C 
DOCKED: ATOM     46  C   UNL d   1     -12.540   2.920   2.598 -0.41 +0.00    +0.012 C 
DOCKED: ENDBRANCH  12  45
DOCKED: BRANCH  17  47
DOCKED: ATOM     47  C   UNL d   1     -13.504  -0.607  -5.323 -0.19 +0.00    +0.004 C 
DOCKED: ATOM     48  C   UNL d   1     -13.201  -1.740  -5.961 -0.24 +0.00    +0.012 C 
DOCKED: ENDBRANCH  17  47
DOCKED: TORSDOF 12
DOCKED: TER
DOCKED: ENDMDL
________________________________________________________________________________


	BEGINNING GENETIC ALGORITHM DOCKING 53 of 100
Run: 53 Seed: 1886374569 456754087 [ Run 53 of 100 GA/GALS ]
Beginning LAMARCKIAN GENETIC ALGORITHM (LGA), with a maximum of 25000000 energy evaluations.

Final-Value: -12.358


	FINAL GENETIC ALGORITHM DOCKED STATE
	_______________________________________________


Detailed state:  trans 13.877 11.396 4.490 quatxyzw -0.743082 -0.569629 0.325878 -0.130982 center 8.781 34.984 -0.736 ntor 12 -7.0209 52.0322 -66.2486 -86.1336 -84.3510 146.2914 68.8616 -32.3889 -47.2987 -70.2916 -1.4747 130.5945
State:	 13.877  11.396   4.490  -0.750 -0.575  0.329 -164.947     -7.02   52.03  -66.25  -86.13  -84.35  146.29   68.86  -32.39  -47.30  -70.29   -1.47  130.59

DOCKED: MODEL       53
DOCKED: USER    Run = 53
DOCKED: USER    DPF = D:/Protein_go_brrr/autodock/final/mut_Y35F/heme_Co/dock.dpf
DOCKED: USER  
DOCKED: USER    Estimated Free Energy of Binding    =   -7.96 kcal/mol  [=(1)+(2)+(3)-(4)]
DOCKED: USER    Estimated Inhibition Constant, Ki   =    1.46 uM (micromolar)  [Temperature = 298.15 K]
DOCKED: USER    
DOCKED: USER    (1) Final Intermolecular Energy     =  -11.54 kcal/mol
DOCKED: USER        vdW + Hbond + desolv Energy     =   -8.60 kcal/mol
DOCKED: USER        Electrostatic Energy            =   -2.94 kcal/mol
DOCKED: USER    (2) Final Total Internal Energy     =   -0.82 kcal/mol
DOCKED: USER    (3) Torsional Free Energy           =   +3.58 kcal/mol
DOCKED: USER    (4) Unbound System's Energy  [=(2)] =   -0.82 kcal/mol
DOCKED: USER    
DOCKED: USER    
DOCKED: USER    NEWDPF move heme_Co_opt.pdbqt
DOCKED: USER    NEWDPF about 8.781000 34.984000 -0.736000
DOCKED: USER    NEWDPF tran0 13.877182 11.396128 4.490320
DOCKED: USER    NEWDPF quaternion0 -0.743082 -0.569629 0.325878 -0.130982
DOCKED: USER    NEWDPF axisangle0 -0.749539 -0.574579 0.328710 -164.947286
DOCKED: USER    NEWDPF quat0 -0.749539 -0.574579 0.328710 -164.947286
DOCKED: USER    NEWDPF dihe0 -7.02 52.03 -66.25 -86.13 -84.35 146.29 68.86 -32.39 -47.30 -70.29 -1.47 130.59 
DOCKED: USER  keepresnum = 1 
DOCKED: USER  
DOCKED: REMARK  12 active torsions:
DOCKED: REMARK  status: ('A' for Active; 'I' for Inactive)
DOCKED: REMARK    1  A    between atoms: C_6  and  C_10 
DOCKED: REMARK    2  A    between atoms: C_10  and  C_11 
DOCKED: REMARK    3  A    between atoms: C_11  and  C_12 
DOCKED: REMARK    4  A    between atoms: C_12  and  O_14 
DOCKED: REMARK    5  A    between atoms: C_17  and  C_20 
DOCKED: REMARK    6  A    between atoms: C_24  and  C_27 
DOCKED: REMARK    7  A    between atoms: C_31  and  C_34 
DOCKED: REMARK    8  A    between atoms: C_34  and  C_35 
DOCKED: REMARK    9  A    between atoms: C_35  and  C_36 
DOCKED: REMARK   10  A    between atoms: C_36  and  O_38 
DOCKED: REMARK   11  A    between atoms: FE_43  and  C_44 
DOCKED: REMARK   12  A    between atoms: C_44  and  O_45 
DOCKED: USER                              x       y       z     vdW  Elec       q    Type
DOCKED: USER                           _______ _______ _______ _____ _____    ______ ____
DOCKED: ROOT
DOCKED: ATOM      1  C   UNL d   1      14.527   9.585   5.497 -0.09 +0.02    +0.064 A 
DOCKED: ATOM      2  C   UNL d   1      10.311  10.941   3.767 -0.31 -0.01    +0.064 C 
DOCKED: ATOM      3  C   UNL d   1      12.089  15.247   2.704 -0.14 -0.02    +0.064 A 
DOCKED: ATOM      4  C   UNL d   1      16.501  13.757   4.110 -0.08 +0.00    +0.064 A 
DOCKED: ATOM      5  C   UNL d   1      13.235   9.651   5.135 -0.12 +0.01    +0.066 A 
DOCKED: ATOM      6  C   UNL d   1      12.376   8.539   5.225 -0.17 -0.00    -0.021 A 
DOCKED: ATOM      7  C   UNL d   1      11.160   8.932   4.701 -0.25 -0.00    -0.025 A 
DOCKED: ATOM      8  C   UNL d   1      11.324  10.270   4.329 -0.22 -0.00    +0.066 A 
DOCKED: ATOM      9  C   UNL d   1       9.883   8.090   4.549 -0.21 +0.01    +0.051 C 
DOCKED: ATOM     10  C   UNL d   1      10.379  12.327   3.375 -0.17 -0.01    +0.066 A 
DOCKED: ATOM     11  C   UNL d   1       9.311  13.126   2.911 -0.44 +0.00    -0.021 A 
DOCKED: ATOM     12  C   UNL d   1       9.857  14.377   2.613 -0.42 -0.00    +0.000 A 
DOCKED: ATOM     13  C   UNL d   1      11.210  14.254   2.928 -0.23 -0.01    +0.070 A 
DOCKED: ATOM     14  C   UNL d   1       7.858  12.729   2.856 -0.25 -0.00    +0.052 C 
DOCKED: ATOM     15  C   UNL d   1      13.523  15.272   2.920 -0.09 -0.02    +0.066 A 
DOCKED: ATOM     16  C   UNL d   1      14.396  16.279   2.533 -0.08 +0.01    -0.021 A 
DOCKED: ATOM     17  C   UNL d   1      15.670  15.852   2.934 -0.08 -0.00    +0.000 A 
DOCKED: ATOM     18  C   UNL d   1      15.470  14.622   3.552 -0.07 -0.01    +0.070 A 
DOCKED: ATOM     19  C   UNL d   1      14.003  17.555   1.823 -0.09 -0.03    +0.052 C 
DOCKED: ATOM     20  C   UNL d   1      16.342  12.519   4.638 -0.01 +0.01    +0.066 A 
DOCKED: ATOM     21  C   UNL d   1      17.416  11.769   5.110 -0.04 -0.01    -0.025 A 
DOCKED: ATOM     22  C   UNL d   1      16.874  10.572   5.543 -0.01 -0.01    -0.021 A 
DOCKED: ATOM     23  C   UNL d   1      15.486  10.649   5.300 +0.01 +0.02    +0.066 A 
DOCKED: ATOM     24  C   UNL d   1      18.891  12.163   5.131 -0.07 +0.01    +0.051 C 
DOCKED: ATOM     25  N   UNL d   1      12.599  10.744   4.592 -0.09 -0.01    -0.248 N 
DOCKED: ATOM     26  N   UNL d   1      11.513  13.032   3.441 -0.14 +0.04    -0.248 N 
DOCKED: ATOM     27  N   UNL d   1      14.184  14.294   3.498 -0.04 +0.03    -0.248 N 
DOCKED: ATOM     28  N   UNL d   1      15.160  11.824   4.750 -0.07 -0.04    -0.248 N 
DOCKED: ATOM     29 FE   UNL d   1      13.441  12.624   4.014 -0.04 -0.00    +0.000 Fe
DOCKED: ENDROOT
DOCKED: BRANCH   6  30
DOCKED: ATOM     30  C   UNL d   1      12.743   7.144   5.719 -0.20 +0.02    +0.052 C 
DOCKED: BRANCH  30  31
DOCKED: ATOM     31  C   UNL d   1      12.690   7.083   7.245 -0.10 +0.05    +0.115 C 
DOCKED: BRANCH  31  32
DOCKED: ATOM     32  C   UNL d   1      11.898   5.895   7.749 -0.09 +0.16    +0.139 C 
DOCKED: ATOM     33  O   UNL d   1      10.718   5.791   7.452 -0.36 -0.99    -0.650 OA
DOCKED: BRANCH  32  34
DOCKED: ATOM     34  O   UNL d   1      12.469   4.912   8.483 -0.07 -1.26    -0.776 OA
DOCKED: ATOM     35  H   UNL d   1      13.422   4.809   8.607 +0.02 +0.16    +0.167 HD
DOCKED: ENDBRANCH  32  34
DOCKED: ENDBRANCH  31  32
DOCKED: ENDBRANCH  30  31
DOCKED: ENDBRANCH   6  30
DOCKED: BRANCH  29  36
DOCKED: ATOM     36  C   UNL d   1      13.811  11.755   2.142 -0.35 -0.01    +0.190 C 
DOCKED: BRANCH  36  37
DOCKED: ATOM     37  O   UNL d   1      13.782  10.538   1.453 -0.47 +0.02    -0.399 OA
DOCKED: ATOM     38  H   UNL d   1      14.428   9.953   1.939 -0.40 -0.05    +0.209 HD
DOCKED: ENDBRANCH  36  37
DOCKED: ENDBRANCH  29  36
DOCKED: BRANCH  22  39
DOCKED: ATOM     39  C   UNL d   1      17.660   9.399   6.098 -0.08 +0.01    +0.052 C 
DOCKED: BRANCH  39  40
DOCKED: ATOM     40  C   UNL d   1      17.295   8.102   5.357 -0.14 +0.04    +0.115 C 
DOCKED: BRANCH  40  41
DOCKED: ATOM     41  C   UNL d   1      18.336   7.637   4.362 -0.25 +0.09    +0.139 C 
DOCKED: ATOM     42  O   UNL d   1      19.041   6.676   4.638 -0.05 -0.49    -0.650 OA
DOCKED: BRANCH  41  43
DOCKED: ATOM     43  O   UNL d   1      18.451   8.200   3.138 -0.56 -0.76    -0.776 OA
DOCKED: ATOM     44  H   UNL d   1      17.729   8.200   2.497 -0.48 +0.09    +0.167 HD
DOCKED: ENDBRANCH  41  43
DOCKED: ENDBRANCH  40  41
DOCKED: ENDBRANCH  39  40
DOCKED: ENDBRANCH  22  39
DOCKED: BRANCH  12  45
DOCKED: ATOM     45  C   UNL d   1       9.255  15.674   2.087 -0.42 -0.00    +0.004 C 
DOCKED: ATOM     46  C   UNL d   1       9.162  16.145   0.846 -0.41 -0.00    +0.012 C 
DOCKED: ENDBRANCH  12  45
DOCKED: BRANCH  17  47
DOCKED: ATOM     47  C   UNL d   1      17.001  16.497   2.725 -0.06 -0.00    +0.004 C 
DOCKED: ATOM     48  C   UNL d   1      17.904  16.055   1.847 -0.10 -0.00    +0.012 C 
DOCKED: ENDBRANCH  17  47
DOCKED: TORSDOF 12
DOCKED: TER
DOCKED: ENDMDL
________________________________________________________________________________


	BEGINNING GENETIC ALGORITHM DOCKING 54 of 100
Run: 54 Seed: 1264686276 1280150712 [ Run 54 of 100 GA/GALS ]
Beginning LAMARCKIAN GENETIC ALGORITHM (LGA), with a maximum of 25000000 energy evaluations.

Final-Value: -8.831


	FINAL GENETIC ALGORITHM DOCKED STATE
	_______________________________________________


Detailed state:  trans 10.861 -1.524 9.658 quatxyzw -0.470104 -0.202643 -0.835540 0.199529 center 8.781 34.984 -0.736 ntor 12 -102.0999 111.7179 -155.1107 116.9200 140.1418 78.4185 -177.4516 114.3227 17.7554 148.5787 169.9562 176.5820
State:	 10.861  -1.524   9.658  -0.480 -0.207 -0.853 156.981   -102.10  111.72 -155.11  116.92  140.14   78.42 -177.45  114.32   17.76  148.58  169.96  176.58

DOCKED: MODEL       54
DOCKED: USER    Run = 54
DOCKED: USER    DPF = D:/Protein_go_brrr/autodock/final/mut_Y35F/heme_Co/dock.dpf
DOCKED: USER  
DOCKED: USER    Estimated Free Energy of Binding    =   -3.33 kcal/mol  [=(1)+(2)+(3)-(4)]
DOCKED: USER    Estimated Inhibition Constant, Ki   =    3.64 mM (millimolar)  [Temperature = 298.15 K]
DOCKED: USER    
DOCKED: USER    (1) Final Intermolecular Energy     =   -6.91 kcal/mol
DOCKED: USER        vdW + Hbond + desolv Energy     =   -5.38 kcal/mol
DOCKED: USER        Electrostatic Energy            =   -1.53 kcal/mol
DOCKED: USER    (2) Final Total Internal Energy     =   -1.92 kcal/mol
DOCKED: USER    (3) Torsional Free Energy           =   +3.58 kcal/mol
DOCKED: USER    (4) Unbound System's Energy  [=(2)] =   -1.92 kcal/mol
DOCKED: USER    
DOCKED: USER    
DOCKED: USER    NEWDPF move heme_Co_opt.pdbqt
DOCKED: USER    NEWDPF about 8.781000 34.984000 -0.736000
DOCKED: USER    NEWDPF tran0 10.861196 -1.524107 9.657740
DOCKED: USER    NEWDPF quaternion0 -0.470104 -0.202643 -0.835540 0.199529
DOCKED: USER    NEWDPF axisangle0 -0.479750 -0.206801 -0.852686 156.981110
DOCKED: USER    NEWDPF quat0 -0.479750 -0.206801 -0.852686 156.981110
DOCKED: USER    NEWDPF dihe0 -102.10 111.72 -155.11 116.92 140.14 78.42 -177.45 114.32 17.76 148.58 169.96 176.58 
DOCKED: USER  keepresnum = 1 
DOCKED: USER  
DOCKED: REMARK  12 active torsions:
DOCKED: REMARK  status: ('A' for Active; 'I' for Inactive)
DOCKED: REMARK    1  A    between atoms: C_6  and  C_10 
DOCKED: REMARK    2  A    between atoms: C_10  and  C_11 
DOCKED: REMARK    3  A    between atoms: C_11  and  C_12 
DOCKED: REMARK    4  A    between atoms: C_12  and  O_14 
DOCKED: REMARK    5  A    between atoms: C_17  and  C_20 
DOCKED: REMARK    6  A    between atoms: C_24  and  C_27 
DOCKED: REMARK    7  A    between atoms: C_31  and  C_34 
DOCKED: REMARK    8  A    between atoms: C_34  and  C_35 
DOCKED: REMARK    9  A    between atoms: C_35  and  C_36 
DOCKED: REMARK   10  A    between atoms: C_36  and  O_38 
DOCKED: REMARK   11  A    between atoms: FE_43  and  C_44 
DOCKED: REMARK   12  A    between atoms: C_44  and  O_45 
DOCKED: USER                              x       y       z     vdW  Elec       q    Type
DOCKED: USER                           _______ _______ _______ _____ _____    ______ ____
DOCKED: ROOT
DOCKED: ATOM      1  C   UNL d   1      10.979  -3.085   8.152 -0.27 +0.01    +0.064 A 
DOCKED: ATOM      2  C   UNL d   1      13.993   0.369   9.417 -0.10 +0.02    +0.064 C 
DOCKED: ATOM      3  C   UNL d   1      10.759   2.127  12.463 -0.06 +0.05    +0.064 A 
DOCKED: ATOM      4  C   UNL d   1       7.811  -1.613  11.472 -0.13 -0.00    +0.064 A 
DOCKED: ATOM      5  C   UNL d   1      12.026  -2.249   8.248 -0.26 +0.02    +0.066 A 
DOCKED: ATOM      6  C   UNL d   1      13.227  -2.473   7.546 -0.28 -0.00    -0.021 A 
DOCKED: ATOM      7  C   UNL d   1      14.106  -1.481   7.934 -0.17 -0.01    -0.025 A 
DOCKED: ATOM      8  C   UNL d   1      13.399  -0.685   8.843 -0.14 +0.02    +0.066 A 
DOCKED: ATOM      9  C   UNL d   1      15.559  -1.277   7.478 -0.12 +0.01    +0.051 C 
DOCKED: ATOM     10  C   UNL d   1      13.338   1.259  10.342 -0.09 +0.04    +0.066 A 
DOCKED: ATOM     11  C   UNL d   1      13.860   2.460  10.871 -0.07 -0.01    -0.021 A 
DOCKED: ATOM     12  C   UNL d   1      12.894   2.954  11.753 -0.07 +0.00    +0.000 A 
DOCKED: ATOM     13  C   UNL d   1      11.853   2.028  11.688 -0.06 +0.07    +0.070 A 
DOCKED: ATOM     14  C   UNL d   1      15.154   3.122  10.473 -0.02 +0.02    +0.052 C 
DOCKED: ATOM     15  C   UNL d   1       9.619   1.238  12.563 -0.08 +0.03    +0.066 A 
DOCKED: ATOM     16  C   UNL d   1       8.589   1.321  13.489 -0.06 -0.01    -0.021 A 
DOCKED: ATOM     17  C   UNL d   1       7.737   0.243  13.209 -0.06 +0.00    +0.000 A 
DOCKED: ATOM     18  C   UNL d   1       8.308  -0.405  12.119 -0.10 +0.01    +0.070 A 
DOCKED: ATOM     19  C   UNL d   1       8.458   2.378  14.563 -0.03 +0.01    +0.052 C 
DOCKED: ATOM     20  C   UNL d   1       8.394  -2.310  10.467 -0.21 +0.00    +0.066 A 
DOCKED: ATOM     21  C   UNL d   1       7.837  -3.478   9.952 -0.27 +0.00    -0.025 A 
DOCKED: ATOM     22  C   UNL d   1       8.714  -3.909   8.973 -0.34 -0.00    -0.021 A 
DOCKED: ATOM     23  C   UNL d   1       9.777  -2.981   8.948 -0.23 +0.01    +0.066 A 
DOCKED: ATOM     24  C   UNL d   1       6.543  -4.163  10.384 -0.16 -0.01    +0.051 C 
DOCKED: ATOM     25  N   UNL d   1      12.106  -1.134   9.051 -0.13 -0.08    -0.248 N 
DOCKED: ATOM     26  N   UNL d   1      12.099   1.034  10.793 -0.08 -0.19    -0.248 N 
DOCKED: ATOM     27  N   UNL d   1       9.443   0.197  11.780 -0.09 -0.10    -0.248 N 
DOCKED: ATOM     28  N   UNL d   1       9.588  -2.013   9.852 -0.14 -0.05    -0.248 N 
DOCKED: ATOM     29 FE   UNL d   1      10.693  -0.432  10.495 -0.04 +0.00    +0.000 Fe
DOCKED: ENDROOT
DOCKED: BRANCH   6  30
DOCKED: ATOM     30  C   UNL d   1      13.531  -3.639   6.611 -0.15 +0.02    +0.052 C 
DOCKED: BRANCH  30  31
DOCKED: ATOM     31  C   UNL d   1      14.478  -4.633   7.283 -0.12 +0.05    +0.115 C 
DOCKED: BRANCH  31  32
DOCKED: ATOM     32  C   UNL d   1      15.109  -5.588   6.292 -0.11 +0.09    +0.139 C 
DOCKED: ATOM     33  O   UNL d   1      15.686  -5.142   5.312 -0.02 -0.22    -0.650 OA
DOCKED: BRANCH  32  34
DOCKED: ATOM     34  O   UNL d   1      15.098  -6.928   6.481 -0.34 -1.17    -0.776 OA
DOCKED: ATOM     35  H   UNL d   1      15.871  -7.447   6.743 +0.01 +0.13    +0.167 HD
DOCKED: ENDBRANCH  32  34
DOCKED: ENDBRANCH  31  32
DOCKED: ENDBRANCH  30  31
DOCKED: ENDBRANCH   6  30
DOCKED: BRANCH  29  36
DOCKED: ATOM     36  C   UNL d   1      11.676  -1.654  11.886 -0.04 +0.03    +0.190 C 
DOCKED: BRANCH  36  37
DOCKED: ATOM     37  O   UNL d   1      11.823  -2.984  12.293 +0.00 -0.04    -0.399 OA
DOCKED: ATOM     38  H   UNL d   1      11.216  -3.504  11.695 +0.03 +0.02    +0.209 HD
DOCKED: ENDBRANCH  36  37
DOCKED: ENDBRANCH  29  36
DOCKED: BRANCH  22  39
DOCKED: ATOM     39  C   UNL d   1       8.566  -5.179   8.157 -0.39 -0.00    +0.052 C 
DOCKED: BRANCH  39  40
DOCKED: ATOM     40  C   UNL d   1       9.082  -6.395   8.945 -0.19 +0.01    +0.115 C 
DOCKED: BRANCH  40  41
DOCKED: ATOM     41  C   UNL d   1      10.304  -6.116   9.794 -0.10 +0.03    +0.139 C 
DOCKED: ATOM     42  O   UNL d   1      11.388  -6.563   9.447 +0.11 -0.30    -0.650 OA
DOCKED: BRANCH  41  43
DOCKED: ATOM     43  O   UNL d   1      10.247  -5.312  10.879 +0.06 -0.07    -0.776 OA
DOCKED: ATOM     44  H   UNL d   1      10.996  -4.774  11.167 +0.03 +0.02    +0.167 HD
DOCKED: ENDBRANCH  41  43
DOCKED: ENDBRANCH  40  41
DOCKED: ENDBRANCH  39  40
DOCKED: ENDBRANCH  22  39
DOCKED: BRANCH  12  45
DOCKED: ATOM     45  C   UNL d   1      12.829   4.197  12.630 -0.05 +0.00    +0.004 C 
DOCKED: ATOM     46  C   UNL d   1      12.095   5.301  12.514 -0.06 +0.01    +0.012 C 
DOCKED: ENDBRANCH  12  45
DOCKED: BRANCH  17  47
DOCKED: ATOM     47  C   UNL d   1       6.502  -0.207  13.919 -0.06 -0.00    +0.004 C 
DOCKED: ATOM     48  C   UNL d   1       5.298  -0.254  13.345 -0.13 -0.00    +0.012 C 
DOCKED: ENDBRANCH  17  47
DOCKED: TORSDOF 12
DOCKED: TER
DOCKED: ENDMDL
________________________________________________________________________________


	BEGINNING GENETIC ALGORITHM DOCKING 55 of 100
Run: 55 Seed: 1137540355 1730325933 [ Run 55 of 100 GA/GALS ]
Beginning LAMARCKIAN GENETIC ALGORITHM (LGA), with a maximum of 25000000 energy evaluations.

Final-Value: -9.869


	FINAL GENETIC ALGORITHM DOCKED STATE
	_______________________________________________


Detailed state:  trans 21.932 -4.685 -5.907 quatxyzw 0.023250 0.114939 -0.665834 0.736826 center 8.781 34.984 -0.736 ntor 12 7.6563 85.5882 119.5740 -101.8887 -14.5698 101.9798 53.0344 -84.8399 165.5867 145.2473 -156.3698 -177.7467
State:	 21.932  -4.685  -5.907   0.034  0.170 -0.985 85.076      7.66   85.59  119.57 -101.89  -14.57  101.98   53.03  -84.84  165.59  145.25 -156.37 -177.75

DOCKED: MODEL       55
DOCKED: USER    Run = 55
DOCKED: USER    DPF = D:/Protein_go_brrr/autodock/final/mut_Y35F/heme_Co/dock.dpf
DOCKED: USER  
DOCKED: USER    Estimated Free Energy of Binding    =   -3.48 kcal/mol  [=(1)+(2)+(3)-(4)]
DOCKED: USER    Estimated Inhibition Constant, Ki   =    2.83 mM (millimolar)  [Temperature = 298.15 K]
DOCKED: USER    
DOCKED: USER    (1) Final Intermolecular Energy     =   -7.06 kcal/mol
DOCKED: USER        vdW + Hbond + desolv Energy     =   -4.55 kcal/mol
DOCKED: USER        Electrostatic Energy            =   -2.50 kcal/mol
DOCKED: USER    (2) Final Total Internal Energy     =   -2.81 kcal/mol
DOCKED: USER    (3) Torsional Free Energy           =   +3.58 kcal/mol
DOCKED: USER    (4) Unbound System's Energy  [=(2)] =   -2.81 kcal/mol
DOCKED: USER    
DOCKED: USER    
DOCKED: USER    NEWDPF move heme_Co_opt.pdbqt
DOCKED: USER    NEWDPF about 8.781000 34.984000 -0.736000
DOCKED: USER    NEWDPF tran0 21.931598 -4.684521 -5.907241
DOCKED: USER    NEWDPF quaternion0 0.023250 0.114939 -0.665834 0.736826
DOCKED: USER    NEWDPF axisangle0 0.034389 0.170008 -0.984843 85.076471
DOCKED: USER    NEWDPF quat0 0.034389 0.170008 -0.984843 85.076471
DOCKED: USER    NEWDPF dihe0 7.66 85.59 119.57 -101.89 -14.57 101.98 53.03 -84.84 165.59 145.25 -156.37 -177.75 
DOCKED: USER  keepresnum = 1 
DOCKED: USER  
DOCKED: REMARK  12 active torsions:
DOCKED: REMARK  status: ('A' for Active; 'I' for Inactive)
DOCKED: REMARK    1  A    between atoms: C_6  and  C_10 
DOCKED: REMARK    2  A    between atoms: C_10  and  C_11 
DOCKED: REMARK    3  A    between atoms: C_11  and  C_12 
DOCKED: REMARK    4  A    between atoms: C_12  and  O_14 
DOCKED: REMARK    5  A    between atoms: C_17  and  C_20 
DOCKED: REMARK    6  A    between atoms: C_24  and  C_27 
DOCKED: REMARK    7  A    between atoms: C_31  and  C_34 
DOCKED: REMARK    8  A    between atoms: C_34  and  C_35 
DOCKED: REMARK    9  A    between atoms: C_35  and  C_36 
DOCKED: REMARK   10  A    between atoms: C_36  and  O_38 
DOCKED: REMARK   11  A    between atoms: FE_43  and  C_44 
DOCKED: REMARK   12  A    between atoms: C_44  and  O_45 
DOCKED: USER                              x       y       z     vdW  Elec       q    Type
DOCKED: USER                           _______ _______ _______ _____ _____    ______ ____
DOCKED: ROOT
DOCKED: ATOM      1  C   UNL d   1      21.447  -6.437  -7.095 -0.02 +0.01    +0.064 A 
DOCKED: ATOM      2  C   UNL d   1      23.404  -5.937  -2.790 -0.02 +0.01    +0.064 C 
DOCKED: ATOM      3  C   UNL d   1      23.446  -1.188  -3.319 -0.08 +0.01    +0.064 A 
DOCKED: ATOM      4  C   UNL d   1      21.095  -1.652  -7.553 -0.13 -0.00    +0.064 A 
DOCKED: ATOM      5  C   UNL d   1      22.012  -6.651  -5.895 -0.01 +0.01    +0.066 A 
DOCKED: ATOM      6  C   UNL d   1      22.118  -7.940  -5.339 -0.00 -0.00    -0.021 A 
DOCKED: ATOM      7  C   UNL d   1      22.666  -7.787  -4.080 +0.00 -0.00    -0.025 A 
DOCKED: ATOM      8  C   UNL d   1      22.885  -6.413  -3.929 -0.01 +0.01    +0.066 A 
DOCKED: ATOM      9  C   UNL d   1      22.976  -8.882  -3.048 +0.00 +0.00    +0.051 C 
DOCKED: ATOM     10  C   UNL d   1      23.689  -4.543  -2.554 -0.03 +0.01    +0.066 A 
DOCKED: ATOM     11  C   UNL d   1      24.360  -3.997  -1.439 -0.03 -0.00    -0.021 A 
DOCKED: ATOM     12  C   UNL d   1      24.362  -2.611  -1.621 -0.07 +0.00    +0.000 A 
DOCKED: ATOM     13  C   UNL d   1      23.705  -2.416  -2.836 -0.09 +0.01    +0.070 A 
DOCKED: ATOM     14  C   UNL d   1      25.032  -4.772  -0.334 -0.01 +0.00    +0.052 C 
DOCKED: ATOM     15  C   UNL d   1      22.736  -0.805  -4.524 -0.08 +0.00    +0.066 A 
DOCKED: ATOM     16  C   UNL d   1      22.376   0.484  -4.892 -0.14 -0.00    -0.021 A 
DOCKED: ATOM     17  C   UNL d   1      21.696   0.355  -6.111 -0.27 -0.00    +0.000 A 
DOCKED: ATOM     18  C   UNL d   1      21.710  -1.006  -6.400 -0.20 -0.00    +0.070 A 
DOCKED: ATOM     19  C   UNL d   1      22.679   1.738  -4.103 -0.17 +0.00    +0.052 C 
DOCKED: ATOM     20  C   UNL d   1      21.020  -2.980  -7.811 -0.13 +0.00    +0.066 A 
DOCKED: ATOM     21  C   UNL d   1      20.371  -3.484  -8.936 -0.11 -0.00    -0.025 A 
DOCKED: ATOM     22  C   UNL d   1      20.481  -4.859  -8.845 -0.08 -0.00    -0.021 A 
DOCKED: ATOM     23  C   UNL d   1      21.188  -5.129  -7.654 -0.06 +0.01    +0.066 A 
DOCKED: ATOM     24  C   UNL d   1      19.662  -2.694 -10.033 -0.19 -0.00    +0.051 C 
DOCKED: ATOM     25  N   UNL d   1      22.494  -5.686  -5.041 -0.01 -0.04    -0.248 N 
DOCKED: ATOM     26  N   UNL d   1      23.348  -3.588  -3.426 -0.04 -0.02    -0.248 N 
DOCKED: ATOM     27  N   UNL d   1      22.311  -1.669  -5.419 -0.12 -0.01    -0.248 N 
DOCKED: ATOM     28  N   UNL d   1      21.514  -3.994  -7.024 -0.07 -0.03    -0.248 N 
DOCKED: ATOM     29 FE   UNL d   1      22.396  -3.559  -5.244 -0.02 +0.00    +0.000 Fe
DOCKED: ENDROOT
DOCKED: BRANCH   6  30
DOCKED: ATOM     30  C   UNL d   1      21.636  -9.244  -5.966 +0.00 +0.01    +0.052 C 
DOCKED: BRANCH  30  31
DOCKED: ATOM     31  C   UNL d   1      20.109  -9.321  -5.938 -0.00 +0.03    +0.115 C 
DOCKED: BRANCH  31  32
DOCKED: ATOM     32  C   UNL d   1      19.499  -8.323  -4.977 -0.05 +0.07    +0.139 C 
DOCKED: ATOM     33  O   UNL d   1      19.532  -8.548  -3.776 +0.01 -0.26    -0.650 OA
DOCKED: BRANCH  32  34
DOCKED: ATOM     34  O   UNL d   1      18.955  -7.159  -5.401 +0.13 -1.01    -0.776 OA
DOCKED: ATOM     35  H   UNL d   1      18.873  -6.904  -6.330 +0.02 +0.21    +0.167 HD
DOCKED: ENDBRANCH  32  34
DOCKED: ENDBRANCH  31  32
DOCKED: ENDBRANCH  30  31
DOCKED: ENDBRANCH   6  30
DOCKED: BRANCH  29  36
DOCKED: ATOM     36  C   UNL d   1      20.541  -3.664  -4.273 +0.08 +0.05    +0.190 C 
DOCKED: BRANCH  36  37
DOCKED: ATOM     37  O   UNL d   1      19.296  -4.299  -4.315 -0.65 -0.47    -0.399 OA
DOCKED: ATOM     38  H   UNL d   1      19.159  -4.531  -5.276 -0.22 +0.34    +0.209 HD
DOCKED: ENDBRANCH  36  37
DOCKED: ENDBRANCH  29  36
DOCKED: BRANCH  22  39
DOCKED: ATOM     39  C   UNL d   1      19.882  -5.856  -9.820 -0.05 +0.00    +0.052 C 
DOCKED: BRANCH  39  40
DOCKED: ATOM     40  C   UNL d   1      18.368  -5.996  -9.589 -0.09 +0.02    +0.115 C 
DOCKED: BRANCH  40  41
DOCKED: ATOM     41  C   UNL d   1      17.957  -6.012  -8.132 -0.08 +0.12    +0.139 C 
DOCKED: ATOM     42  O   UNL d   1      18.324  -5.106  -7.397 -0.14 -0.86    -0.650 OA
DOCKED: BRANCH  41  43
DOCKED: ATOM     43  O   UNL d   1      17.122  -6.954  -7.639 -0.25 -0.93    -0.776 OA
DOCKED: ATOM     44  H   UNL d   1      17.348  -7.499  -6.874 +0.01 +0.22    +0.167 HD
DOCKED: ENDBRANCH  41  43
DOCKED: ENDBRANCH  40  41
DOCKED: ENDBRANCH  39  40
DOCKED: ENDBRANCH  22  39
DOCKED: BRANCH  12  45
DOCKED: ATOM     45  C   UNL d   1      24.923  -1.457  -0.801 -0.06 +0.00    +0.004 C 
DOCKED: ATOM     46  C   UNL d   1      24.302  -0.509  -0.103 -0.09 +0.00    +0.012 C 
DOCKED: ENDBRANCH  12  45
DOCKED: BRANCH  17  47
DOCKED: ATOM     47  C   UNL d   1      21.026   1.398  -6.945 -0.40 -0.00    +0.004 C 
DOCKED: ATOM     48  C   UNL d   1      20.368   2.440  -6.432 -0.52 -0.00    +0.012 C 
DOCKED: ENDBRANCH  17  47
DOCKED: TORSDOF 12
DOCKED: TER
DOCKED: ENDMDL
________________________________________________________________________________


	BEGINNING GENETIC ALGORITHM DOCKING 56 of 100
Run: 56 Seed: 1451990264 941475585 [ Run 56 of 100 GA/GALS ]
Beginning LAMARCKIAN GENETIC ALGORITHM (LGA), with a maximum of 25000000 energy evaluations.

Final-Value: -9.345


	FINAL GENETIC ALGORITHM DOCKED STATE
	_______________________________________________


Detailed state:  trans -16.909 -0.938 -0.350 quatxyzw 0.411540 -0.692260 -0.318998 0.499651 center 8.781 34.984 -0.736 ntor 12 -144.3878 98.0937 36.9220 129.6504 -89.5553 132.0019 45.6254 163.1388 155.4165 139.4451 -160.5720 4.8366
State:	-16.909  -0.938  -0.350   0.475 -0.799 -0.368 120.046   -144.39   98.09   36.92  129.65  -89.56  132.00   45.63  163.14  155.42  139.45 -160.57    4.84

DOCKED: MODEL       56
DOCKED: USER    Run = 56
DOCKED: USER    DPF = D:/Protein_go_brrr/autodock/final/mut_Y35F/heme_Co/dock.dpf
DOCKED: USER  
DOCKED: USER    Estimated Free Energy of Binding    =   -3.39 kcal/mol  [=(1)+(2)+(3)-(4)]
DOCKED: USER    Estimated Inhibition Constant, Ki   =    3.30 mM (millimolar)  [Temperature = 298.15 K]
DOCKED: USER    
DOCKED: USER    (1) Final Intermolecular Energy     =   -6.96 kcal/mol
DOCKED: USER        vdW + Hbond + desolv Energy     =   -5.97 kcal/mol
DOCKED: USER        Electrostatic Energy            =   -0.99 kcal/mol
DOCKED: USER    (2) Final Total Internal Energy     =   -2.38 kcal/mol
DOCKED: USER    (3) Torsional Free Energy           =   +3.58 kcal/mol
DOCKED: USER    (4) Unbound System's Energy  [=(2)] =   -2.38 kcal/mol
DOCKED: USER    
DOCKED: USER    
DOCKED: USER    NEWDPF move heme_Co_opt.pdbqt
DOCKED: USER    NEWDPF about 8.781000 34.984000 -0.736000
DOCKED: USER    NEWDPF tran0 -16.909487 -0.938424 -0.350498
DOCKED: USER    NEWDPF quaternion0 0.411540 -0.692260 -0.318998 0.499651
DOCKED: USER    NEWDPF axisangle0 0.475095 -0.799167 -0.368262 120.046213
DOCKED: USER    NEWDPF quat0 0.475095 -0.799167 -0.368262 120.046213
DOCKED: USER    NEWDPF dihe0 -144.39 98.09 36.92 129.65 -89.56 132.00 45.63 163.14 155.42 139.45 -160.57 4.84 
DOCKED: USER  keepresnum = 1 
DOCKED: USER  
DOCKED: REMARK  12 active torsions:
DOCKED: REMARK  status: ('A' for Active; 'I' for Inactive)
DOCKED: REMARK    1  A    between atoms: C_6  and  C_10 
DOCKED: REMARK    2  A    between atoms: C_10  and  C_11 
DOCKED: REMARK    3  A    between atoms: C_11  and  C_12 
DOCKED: REMARK    4  A    between atoms: C_12  and  O_14 
DOCKED: REMARK    5  A    between atoms: C_17  and  C_20 
DOCKED: REMARK    6  A    between atoms: C_24  and  C_27 
DOCKED: REMARK    7  A    between atoms: C_31  and  C_34 
DOCKED: REMARK    8  A    between atoms: C_34  and  C_35 
DOCKED: REMARK    9  A    between atoms: C_35  and  C_36 
DOCKED: REMARK   10  A    between atoms: C_36  and  O_38 
DOCKED: REMARK   11  A    between atoms: FE_43  and  C_44 
DOCKED: REMARK   12  A    between atoms: C_44  and  O_45 
DOCKED: USER                              x       y       z     vdW  Elec       q    Type
DOCKED: USER                           _______ _______ _______ _____ _____    ______ ____
DOCKED: ROOT
DOCKED: ATOM      1  C   UNL d   1     -17.404  -0.949   1.764 -0.24 +0.02    +0.064 A 
DOCKED: ATOM      2  C   UNL d   1     -13.642   0.703  -0.628 -0.26 +0.01    +0.064 C 
DOCKED: ATOM      3  C   UNL d   1     -15.381  -1.112  -4.692 -0.09 +0.01    +0.064 A 
DOCKED: ATOM      4  C   UNL d   1     -19.417  -2.473  -2.341 -0.05 +0.02    +0.064 A 
DOCKED: ATOM      5  C   UNL d   1     -16.231  -0.396   1.415 -0.22 +0.02    +0.066 A 
DOCKED: ATOM      6  C   UNL d   1     -15.436   0.314   2.336 -0.30 -0.01    -0.021 A 
DOCKED: ATOM      7  C   UNL d   1     -14.357   0.810   1.632 -0.28 -0.00    -0.025 A 
DOCKED: ATOM      8  C   UNL d   1     -14.531   0.369   0.316 -0.22 +0.01    +0.066 A 
DOCKED: ATOM      9  C   UNL d   1     -13.200   1.670   2.163 -0.40 +0.01    +0.051 C 
DOCKED: ATOM     10  C   UNL d   1     -13.723   0.273  -2.002 -0.26 +0.01    +0.066 A 
DOCKED: ATOM     11  C   UNL d   1     -12.751   0.472  -3.007 -0.29 -0.00    -0.021 A 
DOCKED: ATOM     12  C   UNL d   1     -13.283  -0.071  -4.181 -0.23 +0.00    +0.000 A 
DOCKED: ATOM     13  C   UNL d   1     -14.530  -0.570  -3.803 -0.16 +0.01    +0.070 A 
DOCKED: ATOM     14  C   UNL d   1     -11.376   1.056  -2.815 -0.10 -0.00    +0.052 C 
DOCKED: ATOM     15  C   UNL d   1     -16.720  -1.627  -4.486 -0.06 +0.01    +0.066 A 
DOCKED: ATOM     16  C   UNL d   1     -17.603  -2.041  -5.473 -0.03 -0.00    -0.021 A 
DOCKED: ATOM     17  C   UNL d   1     -18.770  -2.432  -4.800 -0.02 +0.00    +0.000 A 
DOCKED: ATOM     18  C   UNL d   1     -18.499  -2.241  -3.450 -0.04 +0.01    +0.070 A 
DOCKED: ATOM     19  C   UNL d   1     -17.318  -2.048  -6.959 -0.02 +0.00    +0.052 C 
DOCKED: ATOM     20  C   UNL d   1     -19.206  -2.213  -1.029 -0.08 +0.03    +0.066 A 
DOCKED: ATOM     21  C   UNL d   1     -20.180  -2.445  -0.059 -0.07 -0.01    -0.025 A 
DOCKED: ATOM     22  C   UNL d   1     -19.617  -2.042   1.138 -0.12 -0.01    -0.021 A 
DOCKED: ATOM     23  C   UNL d   1     -18.323  -1.569   0.836 -0.15 +0.03    +0.066 A 
DOCKED: ATOM     24  C   UNL d   1     -21.585  -3.004  -0.266 -0.02 +0.01    +0.051 C 
DOCKED: ATOM     25  N   UNL d   1     -15.680  -0.386   0.154 -0.08 -0.07    -0.248 N 
DOCKED: ATOM     26  N   UNL d   1     -14.770  -0.411  -2.474 -0.13 -0.04    -0.248 N 
DOCKED: ATOM     27  N   UNL d   1     -17.281  -1.732  -3.302 -0.05 -0.05    -0.248 N 
DOCKED: ATOM     28  N   UNL d   1     -18.071  -1.668  -0.475 -0.08 -0.11    -0.248 N 
DOCKED: ATOM     29 FE   UNL d   1     -16.531  -1.100  -1.675 -0.04 +0.00    +0.000 Fe
DOCKED: ENDROOT
DOCKED: BRANCH   6  30
DOCKED: ATOM     30  C   UNL d   1     -15.754   0.566   3.806 -0.38 +0.02    +0.052 C 
DOCKED: BRANCH  30  31
DOCKED: ATOM     31  C   UNL d   1     -16.812   1.660   3.948 -0.19 +0.03    +0.115 C 
DOCKED: BRANCH  31  32
DOCKED: ATOM     32  C   UNL d   1     -16.809   2.620   2.778 -0.06 +0.02    +0.139 C 
DOCKED: ATOM     33  O   UNL d   1     -16.024   3.556   2.770 +0.06 -0.12    -0.650 OA
DOCKED: BRANCH  32  34
DOCKED: ATOM     34  O   UNL d   1     -17.620   2.450   1.708 +0.06 -0.10    -0.776 OA
DOCKED: ATOM     35  H   UNL d   1     -17.394   2.717   0.806 +0.02 +0.02    +0.167 HD
DOCKED: ENDBRANCH  32  34
DOCKED: ENDBRANCH  31  32
DOCKED: ENDBRANCH  30  31
DOCKED: ENDBRANCH   6  30
DOCKED: BRANCH  29  36
DOCKED: ATOM     36  C   UNL d   1     -17.375   0.806  -1.895 -0.03 +0.02    +0.190 C 
DOCKED: BRANCH  36  37
DOCKED: ATOM     37  O   UNL d   1     -17.763   1.943  -1.179 +0.00 -0.04    -0.399 OA
DOCKED: ATOM     38  H   UNL d   1     -17.783   1.650  -0.225 +0.02 +0.03    +0.209 HD
DOCKED: ENDBRANCH  36  37
DOCKED: ENDBRANCH  29  36
DOCKED: BRANCH  22  39
DOCKED: ATOM     39  C   UNL d   1     -20.315  -2.053   2.485 -0.13 +0.01    +0.052 C 
DOCKED: BRANCH  39  40
DOCKED: ATOM     40  C   UNL d   1     -19.780  -3.196   3.364 -0.11 +0.03    +0.115 C 
DOCKED: BRANCH  40  41
DOCKED: ATOM     41  C   UNL d   1     -19.665  -4.528   2.655 -0.24 +0.05    +0.139 C 
DOCKED: ATOM     42  O   UNL d   1     -20.664  -5.031   2.159 +0.03 -0.17    -0.650 OA
DOCKED: BRANCH  41  43
DOCKED: ATOM     43  O   UNL d   1     -18.472  -5.138   2.477 -0.33 -0.71    -0.776 OA
DOCKED: ATOM     44  H   UNL d   1     -17.806  -5.189   3.175 -0.25 +0.03    +0.167 HD
DOCKED: ENDBRANCH  41  43
DOCKED: ENDBRANCH  40  41
DOCKED: ENDBRANCH  39  40
DOCKED: ENDBRANCH  22  39
DOCKED: BRANCH  12  45
DOCKED: ATOM     45  C   UNL d   1     -12.751  -0.191  -5.602 -0.20 +0.00    +0.004 C 
DOCKED: ATOM     46  C   UNL d   1     -12.540  -1.264  -6.360 -0.18 +0.00    +0.012 C 
DOCKED: ENDBRANCH  12  45
DOCKED: BRANCH  17  47
DOCKED: ATOM     47  C   UNL d   1     -20.075  -2.905  -5.350 -0.01 +0.00    +0.004 C 
DOCKED: ATOM     48  C   UNL d   1     -21.205  -2.197  -5.278 -0.00 +0.00    +0.012 C 
DOCKED: ENDBRANCH  17  47
DOCKED: TORSDOF 12
DOCKED: TER
DOCKED: ENDMDL
________________________________________________________________________________


	BEGINNING GENETIC ALGORITHM DOCKING 57 of 100
Run: 57 Seed: 581475008 370575662 [ Run 57 of 100 GA/GALS ]
Beginning LAMARCKIAN GENETIC ALGORITHM (LGA), with a maximum of 25000000 energy evaluations.

Final-Value: -9.791


	FINAL GENETIC ALGORITHM DOCKED STATE
	_______________________________________________


Detailed state:  trans -10.704 0.276 -6.920 quatxyzw 0.291402 -0.922207 0.038206 -0.251314 center 8.781 34.984 -0.736 ntor 12 -4.0325 124.2371 136.9098 48.1214 -99.2610 83.7645 129.8205 -12.7504 -25.1650 -179.2805 -171.6254 -180.0000
State:	-10.704   0.276  -6.920   0.301 -0.953  0.039 -150.889     -4.03  124.24  136.91   48.12  -99.26   83.76  129.82  -12.75  -25.16 -179.28 -171.63 -180.00

DOCKED: MODEL       57
DOCKED: USER    Run = 57
DOCKED: USER    DPF = D:/Protein_go_brrr/autodock/final/mut_Y35F/heme_Co/dock.dpf
DOCKED: USER  
DOCKED: USER    Estimated Free Energy of Binding    =   -4.37 kcal/mol  [=(1)+(2)+(3)-(4)]
DOCKED: USER    Estimated Inhibition Constant, Ki   =  626.73 uM (micromolar)  [Temperature = 298.15 K]
DOCKED: USER    
DOCKED: USER    (1) Final Intermolecular Energy     =   -7.95 kcal/mol
DOCKED: USER        vdW + Hbond + desolv Energy     =   -7.08 kcal/mol
DOCKED: USER        Electrostatic Energy            =   -0.87 kcal/mol
DOCKED: USER    (2) Final Total Internal Energy     =   -1.84 kcal/mol
DOCKED: USER    (3) Torsional Free Energy           =   +3.58 kcal/mol
DOCKED: USER    (4) Unbound System's Energy  [=(2)] =   -1.84 kcal/mol
DOCKED: USER    
DOCKED: USER    
DOCKED: USER    NEWDPF move heme_Co_opt.pdbqt
DOCKED: USER    NEWDPF about 8.781000 34.984000 -0.736000
DOCKED: USER    NEWDPF tran0 -10.703593 0.275997 -6.919762
DOCKED: USER    NEWDPF quaternion0 0.291402 -0.922207 0.038206 -0.251314
DOCKED: USER    NEWDPF axisangle0 0.301065 -0.952786 0.039472 -150.889401
DOCKED: USER    NEWDPF quat0 0.301065 -0.952786 0.039472 -150.889401
DOCKED: USER    NEWDPF dihe0 -4.03 124.24 136.91 48.12 -99.26 83.76 129.82 -12.75 -25.16 -179.28 -171.63 -180.00 
DOCKED: USER  keepresnum = 1 
DOCKED: USER  
DOCKED: REMARK  12 active torsions:
DOCKED: REMARK  status: ('A' for Active; 'I' for Inactive)
DOCKED: REMARK    1  A    between atoms: C_6  and  C_10 
DOCKED: REMARK    2  A    between atoms: C_10  and  C_11 
DOCKED: REMARK    3  A    between atoms: C_11  and  C_12 
DOCKED: REMARK    4  A    between atoms: C_12  and  O_14 
DOCKED: REMARK    5  A    between atoms: C_17  and  C_20 
DOCKED: REMARK    6  A    between atoms: C_24  and  C_27 
DOCKED: REMARK    7  A    between atoms: C_31  and  C_34 
DOCKED: REMARK    8  A    between atoms: C_34  and  C_35 
DOCKED: REMARK    9  A    between atoms: C_35  and  C_36 
DOCKED: REMARK   10  A    between atoms: C_36  and  O_38 
DOCKED: REMARK   11  A    between atoms: FE_43  and  C_44 
DOCKED: REMARK   12  A    between atoms: C_44  and  O_45 
DOCKED: USER                              x       y       z     vdW  Elec       q    Type
DOCKED: USER                           _______ _______ _______ _____ _____    ______ ____
DOCKED: ROOT
DOCKED: ATOM      1  C   UNL d   1      -9.244   1.876  -7.082 -0.21 -0.00    +0.064 A 
DOCKED: ATOM      2  C   UNL d   1     -10.298  -1.787  -9.925 -0.16 +0.01    +0.064 C 
DOCKED: ATOM      3  C   UNL d   1     -13.395  -3.454  -6.691 -0.23 +0.01    +0.064 A 
DOCKED: ATOM      4  C   UNL d   1     -12.622   0.482  -3.940 -0.23 +0.00    +0.064 A 
DOCKED: ATOM      5  C   UNL d   1      -9.278   0.978  -8.080 -0.17 +0.00    +0.066 A 
DOCKED: ATOM      6  C   UNL d   1      -8.544   1.155  -9.269 -0.16 -0.00    -0.021 A 
DOCKED: ATOM      7  C   UNL d   1      -8.871   0.101 -10.099 -0.10 -0.00    -0.025 A 
DOCKED: ATOM      8  C   UNL d   1      -9.777  -0.682  -9.376 -0.13 +0.01    +0.066 A 
DOCKED: ATOM      9  C   UNL d   1      -8.359  -0.172 -11.522 -0.05 +0.00    +0.051 C 
DOCKED: ATOM     10  C   UNL d   1     -11.216  -2.668  -9.248 -0.19 +0.01    +0.066 A 
DOCKED: ATOM     11  C   UNL d   1     -11.689  -3.914  -9.714 -0.16 -0.00    -0.021 A 
DOCKED: ATOM     12  C   UNL d   1     -12.588  -4.380  -8.750 -0.26 +0.00    +0.000 A 
DOCKED: ATOM     13  C   UNL d   1     -12.587  -3.393  -7.764 -0.23 +0.01    +0.070 A 
DOCKED: ATOM     14  C   UNL d   1     -11.227  -4.637 -10.953 -0.11 -0.00    +0.052 C 
DOCKED: ATOM     15  C   UNL d   1     -13.562  -2.504  -5.609 -0.22 +0.01    +0.066 A 
DOCKED: ATOM     16  C   UNL d   1     -14.519  -2.557  -4.606 -0.26 -0.00    -0.021 A 
DOCKED: ATOM     17  C   UNL d   1     -14.302  -1.423  -3.812 -0.27 +0.00    +0.000 A 
DOCKED: ATOM     18  C   UNL d   1     -13.214  -0.773  -4.385 -0.21 +0.01    +0.070 A 
DOCKED: ATOM     19  C   UNL d   1     -15.564  -3.640  -4.448 -0.24 +0.01    +0.052 C 
DOCKED: ATOM     20  C   UNL d   1     -11.620   1.177  -4.531 -0.22 +0.00    +0.066 A 
DOCKED: ATOM     21  C   UNL d   1     -11.161   2.392  -4.028 -0.20 -0.00    -0.025 A 
DOCKED: ATOM     22  C   UNL d   1     -10.167   2.804  -4.897 -0.22 -0.00    -0.021 A 
DOCKED: ATOM     23  C   UNL d   1     -10.077   1.817  -5.902 -0.19 -0.00    +0.066 A 
DOCKED: ATOM     24  C   UNL d   1     -11.658   3.136  -2.792 -0.06 +0.00    +0.051 C 
DOCKED: ATOM     25  N   UNL d   1     -10.043  -0.165  -8.120 -0.04 -0.01    -0.248 N 
DOCKED: ATOM     26  N   UNL d   1     -11.716  -2.386  -8.039 -0.14 -0.04    -0.248 N 
DOCKED: ATOM     27  N   UNL d   1     -12.818  -1.429  -5.471 -0.01 -0.03    -0.248 N 
DOCKED: ATOM     28  N   UNL d   1     -10.956   0.831  -5.685 -0.12 +0.01    -0.248 N 
DOCKED: ATOM     29 FE   UNL d   1     -11.512  -0.832  -6.714 -0.06 +0.00    +0.000 Fe
DOCKED: ENDROOT
DOCKED: BRANCH   6  30
DOCKED: ATOM     30  C   UNL d   1      -7.636   2.331  -9.611 -0.14 +0.01    +0.052 C 
DOCKED: BRANCH  30  31
DOCKED: ATOM     31  C   UNL d   1      -8.440   3.461 -10.255 -0.07 +0.03    +0.115 C 
DOCKED: BRANCH  31  32
DOCKED: ATOM     32  C   UNL d   1      -7.813   4.819 -10.025 -0.09 +0.07    +0.139 C 
DOCKED: ATOM     33  O   UNL d   1      -6.775   4.902  -9.386 -0.48 -0.62    -0.650 OA
DOCKED: BRANCH  32  34
DOCKED: ATOM     34  O   UNL d   1      -8.341   5.951 -10.547 -0.08 -0.32    -0.776 OA
DOCKED: ATOM     35  H   UNL d   1      -9.069   5.968 -11.183 +0.01 +0.04    +0.167 HD
DOCKED: ENDBRANCH  32  34
DOCKED: ENDBRANCH  31  32
DOCKED: ENDBRANCH  30  31
DOCKED: ENDBRANCH   6  30
DOCKED: BRANCH  29  36
DOCKED: ATOM     36  C   UNL d   1     -12.906   0.284  -7.812 -0.04 +0.01    +0.190 C 
DOCKED: BRANCH  36  37
DOCKED: ATOM     37  O   UNL d   1     -13.298   1.593  -8.111 +0.00 -0.02    -0.399 OA
DOCKED: ATOM     38  H   UNL d   1     -12.564   2.168  -7.756 +0.02 +0.01    +0.209 HD
DOCKED: ENDBRANCH  36  37
DOCKED: ENDBRANCH  29  36
DOCKED: BRANCH  22  39
DOCKED: ATOM     39  C   UNL d   1      -9.396   4.106  -4.799 -0.26 +0.02    +0.052 C 
DOCKED: BRANCH  39  40
DOCKED: ATOM     40  C   UNL d   1     -10.238   5.277  -5.333 -0.11 +0.05    +0.115 C 
DOCKED: BRANCH  40  41
DOCKED: ATOM     41  C   UNL d   1     -11.566   4.868  -5.933 -0.05 +0.02    +0.139 C 
DOCKED: ATOM     42  O   UNL d   1     -12.595   5.383  -5.516 +0.03 -0.06    -0.650 OA
DOCKED: BRANCH  41  43
DOCKED: ATOM     43  O   UNL d   1     -11.641   4.015  -6.978 +0.06 -0.11    -0.776 OA
DOCKED: ATOM     44  H   UNL d   1     -12.345   3.359  -7.063 +0.02 +0.01    +0.167 HD
DOCKED: ENDBRANCH  41  43
DOCKED: ENDBRANCH  40  41
DOCKED: ENDBRANCH  39  40
DOCKED: ENDBRANCH  22  39
DOCKED: BRANCH  12  45
DOCKED: ATOM     45  C   UNL d   1     -13.427  -5.645  -8.638 -0.34 +0.00    +0.004 C 
DOCKED: ATOM     46  C   UNL d   1     -13.138  -6.907  -8.947 -0.38 -0.00    +0.012 C 
DOCKED: ENDBRANCH  12  45
DOCKED: BRANCH  17  47
DOCKED: ATOM     47  C   UNL d   1     -15.067  -0.925  -2.629 -0.22 +0.00    +0.004 C 
DOCKED: ATOM     48  C   UNL d   1     -15.651   0.274  -2.581 -0.12 +0.00    +0.012 C 
DOCKED: ENDBRANCH  17  47
DOCKED: TORSDOF 12
DOCKED: TER
DOCKED: ENDMDL
________________________________________________________________________________


	BEGINNING GENETIC ALGORITHM DOCKING 58 of 100
Run: 58 Seed: 2000553943 1073722042 [ Run 58 of 100 GA/GALS ]
Beginning LAMARCKIAN GENETIC ALGORITHM (LGA), with a maximum of 25000000 energy evaluations.

Final-Value: -10.275


	FINAL GENETIC ALGORITHM DOCKED STATE
	_______________________________________________


Detailed state:  trans 18.389 5.616 4.647 quatxyzw -0.529517 0.007300 0.043754 0.847139 center 8.781 34.984 -0.736 ntor 12 6.5958 101.6122 -157.2578 100.1097 -89.3251 83.5085 179.6778 118.0848 60.7987 146.3318 -160.5410 171.9630
State:	 18.389   5.616   4.647  -0.997  0.014  0.082 64.196      6.60  101.61 -157.26  100.11  -89.33   83.51  179.68  118.08   60.80  146.33 -160.54  171.96

DOCKED: MODEL       58
DOCKED: USER    Run = 58
DOCKED: USER    DPF = D:/Protein_go_brrr/autodock/final/mut_Y35F/heme_Co/dock.dpf
DOCKED: USER  
DOCKED: USER    Estimated Free Energy of Binding    =   -4.59 kcal/mol  [=(1)+(2)+(3)-(4)]
DOCKED: USER    Estimated Inhibition Constant, Ki   =  428.67 uM (micromolar)  [Temperature = 298.15 K]
DOCKED: USER    
DOCKED: USER    (1) Final Intermolecular Energy     =   -8.17 kcal/mol
DOCKED: USER        vdW + Hbond + desolv Energy     =   -6.26 kcal/mol
DOCKED: USER        Electrostatic Energy            =   -1.91 kcal/mol
DOCKED: USER    (2) Final Total Internal Energy     =   -2.10 kcal/mol
DOCKED: USER    (3) Torsional Free Energy           =   +3.58 kcal/mol
DOCKED: USER    (4) Unbound System's Energy  [=(2)] =   -2.10 kcal/mol
DOCKED: USER    
DOCKED: USER    
DOCKED: USER    NEWDPF move heme_Co_opt.pdbqt
DOCKED: USER    NEWDPF about 8.781000 34.984000 -0.736000
DOCKED: USER    NEWDPF tran0 18.388613 5.615847 4.647448
DOCKED: USER    NEWDPF quaternion0 -0.529517 0.007300 0.043754 0.847139
DOCKED: USER    NEWDPF axisangle0 -0.996509 0.013738 0.082342 64.196359
DOCKED: USER    NEWDPF quat0 -0.996509 0.013738 0.082342 64.196359
DOCKED: USER    NEWDPF dihe0 6.60 101.61 -157.26 100.11 -89.33 83.51 179.68 118.08 60.80 146.33 -160.54 171.96 
DOCKED: USER  keepresnum = 1 
DOCKED: USER  
DOCKED: REMARK  12 active torsions:
DOCKED: REMARK  status: ('A' for Active; 'I' for Inactive)
DOCKED: REMARK    1  A    between atoms: C_6  and  C_10 
DOCKED: REMARK    2  A    between atoms: C_10  and  C_11 
DOCKED: REMARK    3  A    between atoms: C_11  and  C_12 
DOCKED: REMARK    4  A    between atoms: C_12  and  O_14 
DOCKED: REMARK    5  A    between atoms: C_17  and  C_20 
DOCKED: REMARK    6  A    between atoms: C_24  and  C_27 
DOCKED: REMARK    7  A    between atoms: C_31  and  C_34 
DOCKED: REMARK    8  A    between atoms: C_34  and  C_35 
DOCKED: REMARK    9  A    between atoms: C_35  and  C_36 
DOCKED: REMARK   10  A    between atoms: C_36  and  O_38 
DOCKED: REMARK   11  A    between atoms: FE_43  and  C_44 
DOCKED: REMARK   12  A    between atoms: C_44  and  O_45 
DOCKED: USER                              x       y       z     vdW  Elec       q    Type
DOCKED: USER                           _______ _______ _______ _____ _____    ______ ____
DOCKED: ROOT
DOCKED: ATOM      1  C   UNL d   1      16.544   6.754   4.788 -0.20 +0.02    +0.064 A 
DOCKED: ATOM      2  C   UNL d   1      17.402   2.144   3.997 -0.31 +0.02    +0.064 C 
DOCKED: ATOM      3  C   UNL d   1      22.102   2.998   3.894 -0.09 +0.03    +0.064 A 
DOCKED: ATOM      4  C   UNL d   1      21.272   7.641   5.084 -0.08 +0.04    +0.064 A 
DOCKED: ATOM      5  C   UNL d   1      16.432   5.438   4.543 -0.24 +0.02    +0.066 A 
DOCKED: ATOM      6  C   UNL d   1      15.188   4.778   4.562 -0.30 -0.01    -0.021 A 
DOCKED: ATOM      7  C   UNL d   1      15.445   3.437   4.355 -0.39 -0.01    -0.025 A 
DOCKED: ATOM      8  C   UNL d   1      16.832   3.338   4.202 -0.27 +0.02    +0.066 A 
DOCKED: ATOM      9  C   UNL d   1      14.434   2.281   4.301 -0.47 +0.01    +0.051 C 
DOCKED: ATOM     10  C   UNL d   1      18.817   1.948   3.803 -0.19 +0.02    +0.066 A 
DOCKED: ATOM     11  C   UNL d   1      19.461   0.743   3.445 -0.26 -0.01    -0.021 A 
DOCKED: ATOM     12  C   UNL d   1      20.830   1.022   3.418 -0.18 +0.00    +0.000 A 
DOCKED: ATOM     13  C   UNL d   1      20.920   2.375   3.748 -0.13 +0.03    +0.070 A 
DOCKED: ATOM     14  C   UNL d   1      18.787  -0.550   3.065 -0.27 +0.01    +0.052 C 
DOCKED: ATOM     15  C   UNL d   1      22.379   4.368   4.279 -0.06 +0.04    +0.066 A 
DOCKED: ATOM     16  C   UNL d   1      23.626   4.910   4.553 -0.04 -0.01    -0.021 A 
DOCKED: ATOM     17  C   UNL d   1      23.392   6.248   4.900 -0.04 +0.00    +0.000 A 
DOCKED: ATOM     18  C   UNL d   1      22.016   6.422   4.792 -0.07 +0.05    +0.070 A 
DOCKED: ATOM     19  C   UNL d   1      24.941   4.166   4.481 -0.01 +0.01    +0.052 C 
DOCKED: ATOM     20  C   UNL d   1      19.928   7.809   5.070 -0.12 +0.04    +0.066 A 
DOCKED: ATOM     21  C   UNL d   1      19.327   9.021   5.405 -0.10 -0.01    -0.025 A 
DOCKED: ATOM     22  C   UNL d   1      17.965   8.803   5.300 -0.13 -0.01    -0.021 A 
DOCKED: ATOM     23  C   UNL d   1      17.801   7.456   4.916 -0.19 +0.03    +0.066 A 
DOCKED: ATOM     24  C   UNL d   1      20.015  10.317   5.824 -0.04 +0.01    +0.051 C 
DOCKED: ATOM     25  N   UNL d   1      17.468   4.563   4.308 -0.15 -0.11    -0.248 N 
DOCKED: ATOM     26  N   UNL d   1      19.699   2.946   3.925 -0.09 -0.12    -0.248 N 
DOCKED: ATOM     27  N   UNL d   1      21.442   5.274   4.451 -0.06 -0.20    -0.248 N 
DOCKED: ATOM     28  N   UNL d   1      18.986   6.850   4.778 -0.12 -0.17    -0.248 N 
DOCKED: ATOM     29 FE   UNL d   1      19.572   4.943   4.384 -0.05 +0.00    +0.000 Fe
DOCKED: ENDROOT
DOCKED: BRANCH   6  30
DOCKED: ATOM     30  C   UNL d   1      13.828   5.407   4.850 -0.28 +0.02    +0.052 C 
DOCKED: BRANCH  30  31
DOCKED: ATOM     31  C   UNL d   1      13.662   5.665   6.347 -0.16 +0.05    +0.115 C 
DOCKED: BRANCH  31  32
DOCKED: ATOM     32  C   UNL d   1      12.464   4.944   6.928 -0.15 +0.13    +0.139 C 
DOCKED: ATOM     33  O   UNL d   1      12.316   3.751   6.706 -0.43 -0.67    -0.650 OA
DOCKED: BRANCH  32  34
DOCKED: ATOM     34  O   UNL d   1      11.570   5.568   7.729 -0.32 -1.18    -0.776 OA
DOCKED: ATOM     35  H   UNL d   1      11.608   6.507   7.959 +0.03 +0.17    +0.167 HD
DOCKED: ENDBRANCH  32  34
DOCKED: ENDBRANCH  31  32
DOCKED: ENDBRANCH  30  31
DOCKED: ENDBRANCH   6  30
DOCKED: BRANCH  29  36
DOCKED: ATOM     36  C   UNL d   1      19.471   4.466   6.423 -0.04 +0.06    +0.190 C 
DOCKED: BRANCH  36  37
DOCKED: ATOM     37  O   UNL d   1      19.006   4.935   7.655 +0.00 -0.09    -0.399 OA
DOCKED: ATOM     38  H   UNL d   1      18.750   5.885   7.488 +0.02 +0.05    +0.209 HD
DOCKED: ENDBRANCH  36  37
DOCKED: ENDBRANCH  29  36
DOCKED: BRANCH  22  39
DOCKED: ATOM     39  C   UNL d   1      16.885   9.820   5.618 -0.04 +0.02    +0.052 C 
DOCKED: BRANCH  39  40
DOCKED: ATOM     40  C   UNL d   1      16.530   9.786   7.114 -0.03 +0.02    +0.115 C 
DOCKED: BRANCH  40  41
DOCKED: ATOM     41  C   UNL d   1      16.492   8.397   7.715 -0.01 +0.03    +0.139 C 
DOCKED: ATOM     42  O   UNL d   1      15.411   7.870   7.938 +0.02 -0.16    -0.650 OA
DOCKED: BRANCH  41  43
DOCKED: ATOM     43  O   UNL d   1      17.621   7.686   7.932 +0.03 -0.16    -0.776 OA
DOCKED: ATOM     44  H   UNL d   1      17.638   6.720   7.914 +0.01 +0.04    +0.167 HD
DOCKED: ENDBRANCH  41  43
DOCKED: ENDBRANCH  40  41
DOCKED: ENDBRANCH  39  40
DOCKED: ENDBRANCH  22  39
DOCKED: BRANCH  12  45
DOCKED: ATOM     45  C   UNL d   1      22.056   0.176   3.102 -0.12 +0.00    +0.004 C 
DOCKED: ATOM     46  C   UNL d   1      22.698  -0.024   1.953 -0.13 +0.00    +0.012 C 
DOCKED: ENDBRANCH  12  45
DOCKED: BRANCH  17  47
DOCKED: ATOM     47  C   UNL d   1      24.352   7.299   5.352 -0.01 +0.00    +0.004 C 
DOCKED: ATOM     48  C   UNL d   1      24.374   7.793   6.592 +0.00 +0.00    +0.012 C 
DOCKED: ENDBRANCH  17  47
DOCKED: TORSDOF 12
DOCKED: TER
DOCKED: ENDMDL
________________________________________________________________________________


	BEGINNING GENETIC ALGORITHM DOCKING 59 of 100
Run: 59 Seed: 1556964765 970410693 [ Run 59 of 100 GA/GALS ]
Beginning LAMARCKIAN GENETIC ALGORITHM (LGA), with a maximum of 25000000 energy evaluations.

Final-Value: -8.777


	FINAL GENETIC ALGORITHM DOCKED STATE
	_______________________________________________


Detailed state:  trans 9.500 12.768 -13.332 quatxyzw 0.586902 0.528192 0.281482 0.545277 center 8.781 34.984 -0.736 ntor 12 166.3841 123.0064 -156.0361 127.7315 67.5578 139.0890 -128.0974 -20.0528 -136.1403 -81.2961 180.0000 -38.5172
State:	  9.500  12.768 -13.332   0.700  0.630  0.336 113.913    166.38  123.01 -156.04  127.73   67.56  139.09 -128.10  -20.05 -136.14  -81.30  180.00  -38.52

DOCKED: MODEL       59
DOCKED: USER    Run = 59
DOCKED: USER    DPF = D:/Protein_go_brrr/autodock/final/mut_Y35F/heme_Co/dock.dpf
DOCKED: USER  
DOCKED: USER    Estimated Free Energy of Binding    =   -3.08 kcal/mol  [=(1)+(2)+(3)-(4)]
DOCKED: USER    Estimated Inhibition Constant, Ki   =    5.54 mM (millimolar)  [Temperature = 298.15 K]
DOCKED: USER    
DOCKED: USER    (1) Final Intermolecular Energy     =   -6.66 kcal/mol
DOCKED: USER        vdW + Hbond + desolv Energy     =   -6.80 kcal/mol
DOCKED: USER        Electrostatic Energy            =   +0.14 kcal/mol
DOCKED: USER    (2) Final Total Internal Energy     =   -2.12 kcal/mol
DOCKED: USER    (3) Torsional Free Energy           =   +3.58 kcal/mol
DOCKED: USER    (4) Unbound System's Energy  [=(2)] =   -2.12 kcal/mol
DOCKED: USER    
DOCKED: USER    
DOCKED: USER    NEWDPF move heme_Co_opt.pdbqt
DOCKED: USER    NEWDPF about 8.781000 34.984000 -0.736000
DOCKED: USER    NEWDPF tran0 9.499569 12.767700 -13.331588
DOCKED: USER    NEWDPF quaternion0 0.586902 0.528192 0.281482 0.545277
DOCKED: USER    NEWDPF axisangle0 0.700146 0.630109 0.335795 113.912803
DOCKED: USER    NEWDPF quat0 0.700146 0.630109 0.335795 113.912803
DOCKED: USER    NEWDPF dihe0 166.38 123.01 -156.04 127.73 67.56 139.09 -128.10 -20.05 -136.14 -81.30 180.00 -38.52 
DOCKED: USER  keepresnum = 1 
DOCKED: USER  
DOCKED: REMARK  12 active torsions:
DOCKED: REMARK  status: ('A' for Active; 'I' for Inactive)
DOCKED: REMARK    1  A    between atoms: C_6  and  C_10 
DOCKED: REMARK    2  A    between atoms: C_10  and  C_11 
DOCKED: REMARK    3  A    between atoms: C_11  and  C_12 
DOCKED: REMARK    4  A    between atoms: C_12  and  O_14 
DOCKED: REMARK    5  A    between atoms: C_17  and  C_20 
DOCKED: REMARK    6  A    between atoms: C_24  and  C_27 
DOCKED: REMARK    7  A    between atoms: C_31  and  C_34 
DOCKED: REMARK    8  A    between atoms: C_34  and  C_35 
DOCKED: REMARK    9  A    between atoms: C_35  and  C_36 
DOCKED: REMARK   10  A    between atoms: C_36  and  O_38 
DOCKED: REMARK   11  A    between atoms: FE_43  and  C_44 
DOCKED: REMARK   12  A    between atoms: C_44  and  O_45 
DOCKED: USER                              x       y       z     vdW  Elec       q    Type
DOCKED: USER                           _______ _______ _______ _____ _____    ______ ____
DOCKED: ROOT
DOCKED: ATOM      1  C   UNL d   1       9.622  11.441 -15.047 -0.02 -0.00    +0.064 A 
DOCKED: ATOM      2  C   UNL d   1       6.596  14.931 -13.916 -0.11 +0.00    +0.064 C 
DOCKED: ATOM      3  C   UNL d   1       8.720  15.447  -9.667 -0.22 +0.00    +0.064 A 
DOCKED: ATOM      4  C   UNL d   1      12.061  12.153 -10.952 -0.21 -0.02    +0.064 A 
DOCKED: ATOM      5  C   UNL d   1       8.617  12.332 -15.035 -0.10 -0.00    +0.066 A 
DOCKED: ATOM      6  C   UNL d   1       7.788  12.538 -16.155 -0.08 +0.00    -0.021 A 
DOCKED: ATOM      7  C   UNL d   1       6.926  13.567 -15.830 -0.07 +0.00    -0.025 A 
DOCKED: ATOM      8  C   UNL d   1       7.255  13.934 -14.520 -0.11 -0.00    +0.066 A 
DOCKED: ATOM      9  C   UNL d   1       5.831  14.193 -16.707 -0.03 -0.00    +0.051 C 
DOCKED: ATOM     10  C   UNL d   1       6.847  15.360 -12.563 -0.15 +0.00    +0.066 A 
DOCKED: ATOM     11  C   UNL d   1       6.098  16.303 -11.825 -0.13 -0.00    -0.021 A 
DOCKED: ATOM     12  C   UNL d   1       6.737  16.431 -10.588 -0.13 +0.00    +0.000 A 
DOCKED: ATOM     13  C   UNL d   1       7.817  15.551 -10.658 -0.17 +0.01    +0.070 A 
DOCKED: ATOM     14  C   UNL d   1       4.808  16.952 -12.255 -0.09 +0.00    +0.052 C 
DOCKED: ATOM     15  C   UNL d   1       9.917  14.632  -9.595 -0.27 -0.00    +0.066 A 
DOCKED: ATOM     16  C   UNL d   1      10.886  14.679  -8.603 -0.30 +0.00    -0.021 A 
DOCKED: ATOM     17  C   UNL d   1      11.853  13.733  -8.970 -0.30 -0.00    +0.000 A 
DOCKED: ATOM     18  C   UNL d   1      11.387  13.169 -10.153 -0.27 -0.01    +0.070 A 
DOCKED: ATOM     19  C   UNL d   1      10.858  15.586  -7.392 -0.23 -0.00    +0.052 C 
DOCKED: ATOM     20  C   UNL d   1      11.671  11.652 -12.148 -0.22 -0.01    +0.066 A 
DOCKED: ATOM     21  C   UNL d   1      12.422  10.703 -12.838 -0.25 +0.01    -0.025 A 
DOCKED: ATOM     22  C   UNL d   1      11.729  10.457 -14.009 -0.18 +0.00    -0.021 A 
DOCKED: ATOM     23  C   UNL d   1      10.586  11.284 -13.981 +0.02 -0.00    +0.066 A 
DOCKED: ATOM     24  C   UNL d   1      13.747  10.075 -12.412 -0.34 -0.02    +0.051 C 
DOCKED: ATOM     25  N   UNL d   1       8.295  13.181 -14.001 -0.11 -0.00    -0.248 N 
DOCKED: ATOM     26  N   UNL d   1       7.849  14.863 -11.831 -0.15 -0.01    -0.248 N 
DOCKED: ATOM     27  N   UNL d   1      10.248  13.750 -10.511 -0.18 +0.03    -0.248 N 
DOCKED: ATOM     28  N   UNL d   1      10.548  12.011 -12.858 +0.05 +0.02    -0.248 N 
DOCKED: ATOM     29 FE   UNL d   1       9.331  13.480 -12.154 -0.05 -0.00    +0.000 Fe
DOCKED: ENDROOT
DOCKED: BRANCH   6  30
DOCKED: ATOM     30  C   UNL d   1       7.884  11.827 -17.501 -0.04 -0.00    +0.052 C 
DOCKED: BRANCH  30  31
DOCKED: ATOM     31  C   UNL d   1       8.695  12.661 -18.493 -0.01 -0.01    +0.115 C 
DOCKED: BRANCH  31  32
DOCKED: ATOM     32  C   UNL d   1       9.921  13.281 -17.859 -0.01 -0.01    +0.139 C 
DOCKED: ATOM     33  O   UNL d   1      11.019  12.781 -18.059 +0.00 +0.04    -0.650 OA
DOCKED: BRANCH  32  34
DOCKED: ATOM     34  O   UNL d   1       9.851  14.406 -17.110 +0.01 +0.04    -0.776 OA
DOCKED: ATOM     35  H   UNL d   1      10.541  14.695 -16.496 +0.00 -0.01    +0.167 HD
DOCKED: ENDBRANCH  32  34
DOCKED: ENDBRANCH  31  32
DOCKED: ENDBRANCH  30  31
DOCKED: ENDBRANCH   6  30
DOCKED: BRANCH  29  36
DOCKED: ATOM     36  C   UNL d   1      10.466  14.931 -13.154 -0.04 -0.01    +0.190 C 
DOCKED: BRANCH  36  37
DOCKED: ATOM     37  O   UNL d   1      10.802  15.399 -14.429 +0.00 +0.02    -0.399 OA
DOCKED: ATOM     38  H   UNL d   1      10.187  14.918 -15.049 +0.02 -0.01    +0.209 HD
DOCKED: ENDBRANCH  36  37
DOCKED: ENDBRANCH  29  36
DOCKED: BRANCH  22  39
DOCKED: ATOM     39  C   UNL d   1      12.179   9.527 -15.119 -0.17 -0.01    +0.052 C 
DOCKED: BRANCH  39  40
DOCKED: ATOM     40  C   UNL d   1      12.266   8.078 -14.611 -0.28 -0.02    +0.115 C 
DOCKED: BRANCH  40  41
DOCKED: ATOM     41  C   UNL d   1      11.011   7.262 -14.833 -0.28 -0.02    +0.139 C 
DOCKED: ATOM     42  O   UNL d   1      11.061   6.268 -15.545 -0.01 +0.08    -0.650 OA
DOCKED: BRANCH  41  43
DOCKED: ATOM     43  O   UNL d   1       9.854   7.550 -14.197 +0.06 +0.15    -0.776 OA
DOCKED: ATOM     44  H   UNL d   1       9.203   6.873 -13.970 -0.49 -0.07    +0.167 HD
DOCKED: ENDBRANCH  41  43
DOCKED: ENDBRANCH  40  41
DOCKED: ENDBRANCH  39  40
DOCKED: ENDBRANCH  22  39
DOCKED: BRANCH  12  45
DOCKED: ATOM     45  C   UNL d   1       6.442  17.265  -9.348 -0.18 +0.00    +0.004 C 
DOCKED: ATOM     46  C   UNL d   1       6.177  16.894  -8.098 -0.31 +0.01    +0.012 C 
DOCKED: ENDBRANCH  12  45
DOCKED: BRANCH  17  47
DOCKED: ATOM     47  C   UNL d   1      13.151  13.392  -8.315 -0.30 -0.00    +0.004 C 
DOCKED: ATOM     48  C   UNL d   1      13.286  13.201  -7.000 -0.37 -0.00    +0.012 C 
DOCKED: ENDBRANCH  17  47
DOCKED: TORSDOF 12
DOCKED: TER
DOCKED: ENDMDL
________________________________________________________________________________


	BEGINNING GENETIC ALGORITHM DOCKING 60 of 100
Run: 60 Seed: 397587044 1140352649 [ Run 60 of 100 GA/GALS ]
Beginning LAMARCKIAN GENETIC ALGORITHM (LGA), with a maximum of 25000000 energy evaluations.

Final-Value: -10.007


	FINAL GENETIC ALGORITHM DOCKED STATE
	_______________________________________________


Detailed state:  trans 9.150 14.874 -10.541 quatxyzw 0.474962 -0.308610 0.209976 0.796920 center 8.781 34.984 -0.736 ntor 12 31.6016 125.2567 179.9514 94.9697 93.6412 94.2723 24.7350 33.6398 5.2531 -59.0306 5.6242 17.9742
State:	  9.150  14.874 -10.541   0.786 -0.511  0.348 74.326     31.60  125.26  179.95   94.97   93.64   94.27   24.74   33.64    5.25  -59.03    5.62   17.97

DOCKED: MODEL       60
DOCKED: USER    Run = 60
DOCKED: USER    DPF = D:/Protein_go_brrr/autodock/final/mut_Y35F/heme_Co/dock.dpf
DOCKED: USER  
DOCKED: USER    Estimated Free Energy of Binding    =   -4.09 kcal/mol  [=(1)+(2)+(3)-(4)]
DOCKED: USER    Estimated Inhibition Constant, Ki   =    1.01 mM (millimolar)  [Temperature = 298.15 K]
DOCKED: USER    
DOCKED: USER    (1) Final Intermolecular Energy     =   -7.67 kcal/mol
DOCKED: USER        vdW + Hbond + desolv Energy     =   -7.25 kcal/mol
DOCKED: USER        Electrostatic Energy            =   -0.42 kcal/mol
DOCKED: USER    (2) Final Total Internal Energy     =   -2.34 kcal/mol
DOCKED: USER    (3) Torsional Free Energy           =   +3.58 kcal/mol
DOCKED: USER    (4) Unbound System's Energy  [=(2)] =   -2.34 kcal/mol
DOCKED: USER    
DOCKED: USER    
DOCKED: USER    NEWDPF move heme_Co_opt.pdbqt
DOCKED: USER    NEWDPF about 8.781000 34.984000 -0.736000
DOCKED: USER    NEWDPF tran0 9.150171 14.874038 -10.540681
DOCKED: USER    NEWDPF quaternion0 0.474962 -0.308610 0.209976 0.796920
DOCKED: USER    NEWDPF axisangle0 0.786250 -0.510871 0.347593 74.326097
DOCKED: USER    NEWDPF quat0 0.786250 -0.510871 0.347593 74.326097
DOCKED: USER    NEWDPF dihe0 31.60 125.26 179.95 94.97 93.64 94.27 24.74 33.64 5.25 -59.03 5.62 17.97 
DOCKED: USER  keepresnum = 1 
DOCKED: USER  
DOCKED: REMARK  12 active torsions:
DOCKED: REMARK  status: ('A' for Active; 'I' for Inactive)
DOCKED: REMARK    1  A    between atoms: C_6  and  C_10 
DOCKED: REMARK    2  A    between atoms: C_10  and  C_11 
DOCKED: REMARK    3  A    between atoms: C_11  and  C_12 
DOCKED: REMARK    4  A    between atoms: C_12  and  O_14 
DOCKED: REMARK    5  A    between atoms: C_17  and  C_20 
DOCKED: REMARK    6  A    between atoms: C_24  and  C_27 
DOCKED: REMARK    7  A    between atoms: C_31  and  C_34 
DOCKED: REMARK    8  A    between atoms: C_34  and  C_35 
DOCKED: REMARK    9  A    between atoms: C_35  and  C_36 
DOCKED: REMARK   10  A    between atoms: C_36  and  O_38 
DOCKED: REMARK   11  A    between atoms: FE_43  and  C_44 
DOCKED: REMARK   12  A    between atoms: C_44  and  O_45 
DOCKED: USER                              x       y       z     vdW  Elec       q    Type
DOCKED: USER                           _______ _______ _______ _____ _____    ______ ____
DOCKED: ROOT
DOCKED: ATOM      1  C   UNL d   1       7.187  15.785 -10.722 -0.11 +0.01    +0.064 A 
DOCKED: ATOM      2  C   UNL d   1      10.567  16.113  -7.393 -0.19 -0.00    +0.064 C 
DOCKED: ATOM      3  C   UNL d   1      13.169  12.806  -9.656 -0.18 -0.02    +0.064 A 
DOCKED: ATOM      4  C   UNL d   1       9.913  12.734 -13.269 -0.01 -0.00    +0.064 A 
DOCKED: ATOM      5  C   UNL d   1       7.903  16.091  -9.627 -0.20 +0.01    +0.066 A 
DOCKED: ATOM      6  C   UNL d   1       7.498  17.096  -8.726 -0.20 -0.00    -0.021 A 
DOCKED: ATOM      7  C   UNL d   1       8.494  17.202  -7.775 -0.20 -0.00    -0.025 A 
DOCKED: ATOM      8  C   UNL d   1       9.455  16.248  -8.126 -0.23 +0.00    +0.066 A 
DOCKED: ATOM      9  C   UNL d   1       8.553  18.161  -6.576 -0.13 +0.01    +0.051 C 
DOCKED: ATOM     10  C   UNL d   1      11.598  15.142  -7.662 -0.22 -0.01    +0.066 A 
DOCKED: ATOM     11  C   UNL d   1      12.719  14.855  -6.853 -0.28 +0.01    -0.021 A 
DOCKED: ATOM     12  C   UNL d   1      13.459  13.885  -7.535 -0.26 -0.00    +0.000 A 
DOCKED: ATOM     13  C   UNL d   1      12.730  13.643  -8.700 -0.22 -0.01    +0.070 A 
DOCKED: ATOM     14  C   UNL d   1      12.994  15.413  -5.480 -0.14 -0.04    +0.052 C 
DOCKED: ATOM     15  C   UNL d   1      12.574  12.480 -10.937 -0.17 -0.02    +0.066 A 
DOCKED: ATOM     16  C   UNL d   1      13.152  11.718 -11.943 -0.19 +0.01    -0.021 A 
DOCKED: ATOM     17  C   UNL d   1      12.217  11.697 -12.988 -0.18 -0.00    +0.000 A 
DOCKED: ATOM     18  C   UNL d   1      11.132  12.436 -12.529 -0.17 -0.01    +0.070 A 
DOCKED: ATOM     19  C   UNL d   1      14.516  11.067 -11.877 -0.29 -0.02    +0.052 C 
DOCKED: ATOM     20  C   UNL d   1       8.882  13.521 -12.877 -0.19 +0.00    +0.066 A 
DOCKED: ATOM     21  C   UNL d   1       7.779  13.762 -13.692 -0.19 -0.00    -0.025 A 
DOCKED: ATOM     22  C   UNL d   1       6.962  14.616 -12.972 -0.20 -0.00    -0.021 A 
DOCKED: ATOM     23  C   UNL d   1       7.619  14.865 -11.749 -0.21 +0.00    +0.066 A 
DOCKED: ATOM     24  C   UNL d   1       7.523  13.223 -15.097 -0.13 -0.00    +0.051 C 
DOCKED: ATOM     25  N   UNL d   1       9.112  15.541  -9.266 -0.16 -0.01    -0.248 N 
DOCKED: ATOM     26  N   UNL d   1      11.577  14.362  -8.748 -0.15 +0.04    -0.248 N 
DOCKED: ATOM     27  N   UNL d   1      11.392  12.912 -11.316 -0.16 +0.04    -0.248 N 
DOCKED: ATOM     28  N   UNL d   1       8.783  14.206 -11.688 -0.18 +0.00    -0.248 N 
DOCKED: ATOM     29 FE   UNL d   1      10.317  14.148 -10.355 -0.05 -0.00    +0.000 Fe
DOCKED: ENDROOT
DOCKED: BRANCH   6  30
DOCKED: ATOM     30  C   UNL d   1       6.248  17.963  -8.833 -0.16 +0.01    +0.052 C 
DOCKED: BRANCH  30  31
DOCKED: ATOM     31  C   UNL d   1       5.071  17.298  -8.121 -0.19 +0.06    +0.115 C 
DOCKED: BRANCH  31  32
DOCKED: ATOM     32  C   UNL d   1       3.787  18.085  -8.270 -0.11 +0.05    +0.139 C 
DOCKED: ATOM     33  O   UNL d   1       3.367  18.735  -7.324 -0.08 -0.38    -0.650 OA
DOCKED: BRANCH  32  34
DOCKED: ATOM     34  O   UNL d   1       3.106  18.134  -9.439 +0.06 -0.10    -0.776 OA
DOCKED: ATOM     35  H   UNL d   1       3.126  17.436 -10.108 +0.04 +0.02    +0.167 HD
DOCKED: ENDBRANCH  32  34
DOCKED: ENDBRANCH  31  32
DOCKED: ENDBRANCH  30  31
DOCKED: ENDBRANCH   6  30
DOCKED: BRANCH  29  36
DOCKED: ATOM     36  C   UNL d   1      11.208  15.809 -11.273 -0.03 -0.01    +0.190 C 
DOCKED: BRANCH  36  37
DOCKED: ATOM     37  O   UNL d   1      10.931  16.923 -12.072 +0.00 +0.02    -0.399 OA
DOCKED: ATOM     38  H   UNL d   1       9.935  16.991 -12.080 +0.02 -0.01    +0.209 HD
DOCKED: ENDBRANCH  36  37
DOCKED: ENDBRANCH  29  36
DOCKED: BRANCH  22  39
DOCKED: ATOM     39  C   UNL d   1       5.655  15.208 -13.466 -0.15 +0.00    +0.052 C 
DOCKED: BRANCH  39  40
DOCKED: ATOM     40  C   UNL d   1       4.489  14.776 -12.562 -0.22 +0.01    +0.115 C 
DOCKED: BRANCH  40  41
DOCKED: ATOM     41  C   UNL d   1       3.823  15.913 -11.815 -0.17 +0.01    +0.139 C 
DOCKED: ATOM     42  O   UNL d   1       2.794  15.698 -11.191 -0.05 -0.03    -0.650 OA
DOCKED: BRANCH  41  43
DOCKED: ATOM     43  O   UNL d   1       4.382  17.141 -11.747 +0.05 -0.04    -0.776 OA
DOCKED: ATOM     44  H   UNL d   1       4.016  17.849 -11.201 +0.03 +0.01    +0.167 HD
DOCKED: ENDBRANCH  41  43
DOCKED: ENDBRANCH  40  41
DOCKED: ENDBRANCH  39  40
DOCKED: ENDBRANCH  22  39
DOCKED: BRANCH  12  45
DOCKED: ATOM     45  C   UNL d   1      14.752  13.149  -7.213 -0.28 -0.00    +0.004 C 
DOCKED: ATOM     46  C   UNL d   1      14.965  12.036  -6.515 -0.45 -0.00    +0.012 C 
DOCKED: ENDBRANCH  12  45
DOCKED: BRANCH  17  47
DOCKED: ATOM     47  C   UNL d   1      12.320  11.085 -14.347 -0.14 -0.00    +0.004 C 
DOCKED: ATOM     48  C   UNL d   1      12.282   9.769 -14.567 -0.21 -0.00    +0.012 C 
DOCKED: ENDBRANCH  17  47
DOCKED: TORSDOF 12
DOCKED: TER
DOCKED: ENDMDL
________________________________________________________________________________


	BEGINNING GENETIC ALGORITHM DOCKING 61 of 100
Run: 61 Seed: 1075862733 382520240 [ Run 61 of 100 GA/GALS ]
Beginning LAMARCKIAN GENETIC ALGORITHM (LGA), with a maximum of 25000000 energy evaluations.

Final-Value: -9.552


	FINAL GENETIC ALGORITHM DOCKED STATE
	_______________________________________________


Detailed state:  trans 1.990 -20.178 -1.247 quatxyzw 0.908438 0.367381 0.096787 -0.174368 center 8.781 34.984 -0.736 ntor 12 146.3613 110.2453 153.9077 -108.6050 121.5415 137.6507 -81.0347 -29.1728 75.1216 -75.8468 20.6852 -10.9159
State:	  1.990 -20.178  -1.247   0.923  0.373  0.098 -159.916    146.36  110.25  153.91 -108.61  121.54  137.65  -81.03  -29.17   75.12  -75.85   20.69  -10.92

DOCKED: MODEL       61
DOCKED: USER    Run = 61
DOCKED: USER    DPF = D:/Protein_go_brrr/autodock/final/mut_Y35F/heme_Co/dock.dpf
DOCKED: USER  
DOCKED: USER    Estimated Free Energy of Binding    =   -3.28 kcal/mol  [=(1)+(2)+(3)-(4)]
DOCKED: USER    Estimated Inhibition Constant, Ki   =    3.93 mM (millimolar)  [Temperature = 298.15 K]
DOCKED: USER    
DOCKED: USER    (1) Final Intermolecular Energy     =   -6.86 kcal/mol
DOCKED: USER        vdW + Hbond + desolv Energy     =   -5.77 kcal/mol
DOCKED: USER        Electrostatic Energy            =   -1.09 kcal/mol
DOCKED: USER    (2) Final Total Internal Energy     =   -2.69 kcal/mol
DOCKED: USER    (3) Torsional Free Energy           =   +3.58 kcal/mol
DOCKED: USER    (4) Unbound System's Energy  [=(2)] =   -2.69 kcal/mol
DOCKED: USER    
DOCKED: USER    
DOCKED: USER    NEWDPF move heme_Co_opt.pdbqt
DOCKED: USER    NEWDPF about 8.781000 34.984000 -0.736000
DOCKED: USER    NEWDPF tran0 1.990167 -20.177615 -1.246560
DOCKED: USER    NEWDPF quaternion0 0.908438 0.367381 0.096787 -0.174368
DOCKED: USER    NEWDPF axisangle0 0.922571 0.373097 0.098292 -159.916277
DOCKED: USER    NEWDPF quat0 0.922571 0.373097 0.098292 -159.916277
DOCKED: USER    NEWDPF dihe0 146.36 110.25 153.91 -108.61 121.54 137.65 -81.03 -29.17 75.12 -75.85 20.69 -10.92 
DOCKED: USER  keepresnum = 1 
DOCKED: USER  
DOCKED: REMARK  12 active torsions:
DOCKED: REMARK  status: ('A' for Active; 'I' for Inactive)
DOCKED: REMARK    1  A    between atoms: C_6  and  C_10 
DOCKED: REMARK    2  A    between atoms: C_10  and  C_11 
DOCKED: REMARK    3  A    between atoms: C_11  and  C_12 
DOCKED: REMARK    4  A    between atoms: C_12  and  O_14 
DOCKED: REMARK    5  A    between atoms: C_17  and  C_20 
DOCKED: REMARK    6  A    between atoms: C_24  and  C_27 
DOCKED: REMARK    7  A    between atoms: C_31  and  C_34 
DOCKED: REMARK    8  A    between atoms: C_34  and  C_35 
DOCKED: REMARK    9  A    between atoms: C_35  and  C_36 
DOCKED: REMARK   10  A    between atoms: C_36  and  O_38 
DOCKED: REMARK   11  A    between atoms: FE_43  and  C_44 
DOCKED: REMARK   12  A    between atoms: C_44  and  O_45 
DOCKED: USER                              x       y       z     vdW  Elec       q    Type
DOCKED: USER                           _______ _______ _______ _____ _____    ______ ____
DOCKED: ROOT
DOCKED: ATOM      1  C   UNL d   1       0.672 -21.660  -0.363 -0.12 +0.02    +0.064 A 
DOCKED: ATOM      2  C   UNL d   1       1.017 -19.914  -4.773 -0.10 -0.04    +0.064 C 
DOCKED: ATOM      3  C   UNL d   1       4.344 -16.806  -3.323 -0.19 -0.02    +0.064 A 
DOCKED: ATOM      4  C   UNL d   1       4.288 -18.831   1.101 -0.17 -0.01    +0.064 A 
DOCKED: ATOM      5  C   UNL d   1       0.495 -21.387  -1.666 -0.12 +0.02    +0.066 A 
DOCKED: ATOM      6  C   UNL d   1      -0.367 -22.147  -2.479 -0.14 -0.00    -0.021 A 
DOCKED: ATOM      7  C   UNL d   1      -0.246 -21.651  -3.762 -0.13 +0.01    -0.025 A 
DOCKED: ATOM      8  C   UNL d   1       0.672 -20.599  -3.675 -0.17 -0.02    +0.066 A 
DOCKED: ATOM      9  C   UNL d   1      -0.960 -22.138  -5.033 -0.06 -0.03    +0.051 C 
DOCKED: ATOM     10  C   UNL d   1       1.932 -18.801  -4.775 -0.18 -0.03    +0.066 A 
DOCKED: ATOM     11  C   UNL d   1       2.227 -17.953  -5.865 -0.23 +0.01    -0.021 A 
DOCKED: ATOM     12  C   UNL d   1       3.197 -17.054  -5.414 -0.25 -0.00    +0.000 A 
DOCKED: ATOM     13  C   UNL d   1       3.412 -17.410  -4.082 -0.18 -0.02    +0.070 A 
DOCKED: ATOM     14  C   UNL d   1       1.546 -17.960  -7.210 -0.24 -0.03    +0.052 C 
DOCKED: ATOM     15  C   UNL d   1       4.733 -17.080  -1.953 -0.13 -0.02    +0.066 A 
DOCKED: ATOM     16  C   UNL d   1       5.803 -16.517  -1.273 -0.19 +0.01    -0.021 A 
DOCKED: ATOM     17  C   UNL d   1       5.793 -17.099   0.002 -0.18 -0.00    +0.000 A 
DOCKED: ATOM     18  C   UNL d   1       4.702 -17.963   0.005 -0.09 -0.02    +0.070 A 
DOCKED: ATOM     19  C   UNL d   1       6.758 -15.489  -1.838 -0.24 -0.02    +0.052 C 
DOCKED: ATOM     20  C   UNL d   1       3.285 -19.741   1.097 -0.17 -0.00    +0.066 A 
DOCKED: ATOM     21  C   UNL d   1       3.005 -20.543   2.201 -0.11 +0.00    -0.025 A 
DOCKED: ATOM     22  C   UNL d   1       1.948 -21.349   1.818 -0.10 -0.00    -0.021 A 
DOCKED: ATOM     23  C   UNL d   1       1.641 -21.004   0.485 -0.12 +0.01    +0.066 A 
DOCKED: ATOM     24  C   UNL d   1       3.722 -20.556   3.548 -0.07 -0.00    +0.051 C 
DOCKED: ATOM     25  N   UNL d   1       1.143 -20.409  -2.387 -0.12 -0.01    -0.248 N 
DOCKED: ATOM     26  N   UNL d   1       2.606 -18.429  -3.681 -0.11 +0.06    -0.248 N 
DOCKED: ATOM     27  N   UNL d   1       4.113 -17.948  -1.185 -0.10 +0.06    -0.248 N 
DOCKED: ATOM     28  N   UNL d   1       2.449 -20.032   0.044 -0.12 -0.01    -0.248 N 
DOCKED: ATOM     29 FE   UNL d   1       2.716 -19.107  -1.747 -0.04 -0.00    +0.000 Fe
DOCKED: ENDROOT
DOCKED: BRANCH   6  30
DOCKED: ATOM     30  C   UNL d   1      -1.203 -23.347  -2.046 -0.09 +0.01    +0.052 C 
DOCKED: BRANCH  30  31
DOCKED: ATOM     31  C   UNL d   1      -2.675 -22.959  -1.918 -0.04 +0.07    +0.115 C 
DOCKED: BRANCH  31  32
DOCKED: ATOM     32  C   UNL d   1      -3.124 -22.864  -0.475 -0.02 +0.10    +0.139 C 
DOCKED: ATOM     33  O   UNL d   1      -4.006 -22.074  -0.171 -0.36 -0.74    -0.650 OA
DOCKED: BRANCH  32  34
DOCKED: ATOM     34  O   UNL d   1      -2.612 -23.663   0.489 +0.01 -0.23    -0.776 OA
DOCKED: ATOM     35  H   UNL d   1      -2.426 -23.373   1.393 +0.02 +0.04    +0.167 HD
DOCKED: ENDBRANCH  32  34
DOCKED: ENDBRANCH  31  32
DOCKED: ENDBRANCH  30  31
DOCKED: ENDBRANCH   6  30
DOCKED: BRANCH  29  36
DOCKED: ATOM     36  C   UNL d   1       4.050 -20.607  -2.350 -0.03 -0.02    +0.190 C 
DOCKED: BRANCH  36  37
DOCKED: ATOM     37  O   UNL d   1       4.128 -21.966  -2.672 +0.00 +0.03    -0.399 OA
DOCKED: ATOM     38  H   UNL d   1       3.208 -22.319  -2.518 +0.02 -0.01    +0.209 HD
DOCKED: ENDBRANCH  36  37
DOCKED: ENDBRANCH  29  36
DOCKED: BRANCH  22  39
DOCKED: ATOM     39  C   UNL d   1       1.316 -22.434   2.669 -0.05 +0.00    +0.052 C 
DOCKED: BRANCH  39  40
DOCKED: ATOM     40  C   UNL d   1       0.152 -21.865   3.498 -0.06 +0.01    +0.115 C 
DOCKED: BRANCH  40  41
DOCKED: ATOM     41  C   UNL d   1      -1.218 -22.111   2.903 -0.07 +0.02    +0.139 C 
DOCKED: ATOM     42  O   UNL d   1      -1.969 -22.912   3.441 +0.02 -0.06    -0.650 OA
DOCKED: BRANCH  41  43
DOCKED: ATOM     43  O   UNL d   1      -1.668 -21.406   1.842 +0.04 -0.32    -0.776 OA
DOCKED: ATOM     44  H   UNL d   1      -2.392 -21.716   1.281 +0.03 +0.10    +0.167 HD
DOCKED: ENDBRANCH  41  43
DOCKED: ENDBRANCH  40  41
DOCKED: ENDBRANCH  39  40
DOCKED: ENDBRANCH  22  39
DOCKED: BRANCH  12  45
DOCKED: ATOM     45  C   UNL d   1       3.927 -15.894  -6.077 -0.26 -0.00    +0.004 C 
DOCKED: ATOM     46  C   UNL d   1       5.221 -15.719  -6.335 -0.25 -0.00    +0.012 C 
DOCKED: ENDBRANCH  12  45
DOCKED: BRANCH  17  47
DOCKED: ATOM     47  C   UNL d   1       6.745 -16.924   1.139 -0.20 -0.00    +0.004 C 
DOCKED: ATOM     48  C   UNL d   1       6.507 -16.127   2.184 -0.29 -0.00    +0.012 C 
DOCKED: ENDBRANCH  17  47
DOCKED: TORSDOF 12
DOCKED: TER
DOCKED: ENDMDL
________________________________________________________________________________


	BEGINNING GENETIC ALGORITHM DOCKING 62 of 100
Run: 62 Seed: 1756984993 399693613 [ Run 62 of 100 GA/GALS ]
Beginning LAMARCKIAN GENETIC ALGORITHM (LGA), with a maximum of 25000000 energy evaluations.

Final-Value: -8.314


	FINAL GENETIC ALGORITHM DOCKED STATE
	_______________________________________________


Detailed state:  trans 0.957 -21.085 -0.585 quatxyzw -0.912677 -0.312926 -0.215527 0.150484 center 8.781 34.984 -0.736 ntor 12 126.5302 131.4839 145.8396 115.1913 122.2579 79.5283 -178.5028 -14.9552 -105.6737 -178.9119 -10.5714 176.6833
State:	  0.957 -21.085  -0.585  -0.923 -0.317 -0.218 162.690    126.53  131.48  145.84  115.19  122.26   79.53 -178.50  -14.96 -105.67 -178.91  -10.57  176.68

DOCKED: MODEL       62
DOCKED: USER    Run = 62
DOCKED: USER    DPF = D:/Protein_go_brrr/autodock/final/mut_Y35F/heme_Co/dock.dpf
DOCKED: USER  
DOCKED: USER    Estimated Free Energy of Binding    =   -2.65 kcal/mol  [=(1)+(2)+(3)-(4)]
DOCKED: USER    Estimated Inhibition Constant, Ki   =   11.46 mM (millimolar)  [Temperature = 298.15 K]
DOCKED: USER    
DOCKED: USER    (1) Final Intermolecular Energy     =   -6.23 kcal/mol
DOCKED: USER        vdW + Hbond + desolv Energy     =   -5.50 kcal/mol
DOCKED: USER        Electrostatic Energy            =   -0.72 kcal/mol
DOCKED: USER    (2) Final Total Internal Energy     =   -2.09 kcal/mol
DOCKED: USER    (3) Torsional Free Energy           =   +3.58 kcal/mol
DOCKED: USER    (4) Unbound System's Energy  [=(2)] =   -2.09 kcal/mol
DOCKED: USER    
DOCKED: USER    
DOCKED: USER    NEWDPF move heme_Co_opt.pdbqt
DOCKED: USER    NEWDPF about 8.781000 34.984000 -0.736000
DOCKED: USER    NEWDPF tran0 0.957343 -21.085470 -0.585022
DOCKED: USER    NEWDPF quaternion0 -0.912677 -0.312926 -0.215527 0.150484
DOCKED: USER    NEWDPF axisangle0 -0.923190 -0.316531 -0.218010 162.690057
DOCKED: USER    NEWDPF quat0 -0.923190 -0.316531 -0.218010 162.690057
DOCKED: USER    NEWDPF dihe0 126.53 131.48 145.84 115.19 122.26 79.53 -178.50 -14.96 -105.67 -178.91 -10.57 176.68 
DOCKED: USER  keepresnum = 1 
DOCKED: USER  
DOCKED: REMARK  12 active torsions:
DOCKED: REMARK  status: ('A' for Active; 'I' for Inactive)
DOCKED: REMARK    1  A    between atoms: C_6  and  C_10 
DOCKED: REMARK    2  A    between atoms: C_10  and  C_11 
DOCKED: REMARK    3  A    between atoms: C_11  and  C_12 
DOCKED: REMARK    4  A    between atoms: C_12  and  O_14 
DOCKED: REMARK    5  A    between atoms: C_17  and  C_20 
DOCKED: REMARK    6  A    between atoms: C_24  and  C_27 
DOCKED: REMARK    7  A    between atoms: C_31  and  C_34 
DOCKED: REMARK    8  A    between atoms: C_34  and  C_35 
DOCKED: REMARK    9  A    between atoms: C_35  and  C_36 
DOCKED: REMARK   10  A    between atoms: C_36  and  O_38 
DOCKED: REMARK   11  A    between atoms: FE_43  and  C_44 
DOCKED: REMARK   12  A    between atoms: C_44  and  O_45 
DOCKED: USER                              x       y       z     vdW  Elec       q    Type
DOCKED: USER                           _______ _______ _______ _____ _____    ______ ____
DOCKED: ROOT
DOCKED: ATOM      1  C   UNL d   1      -0.581 -22.576  -0.227 -0.07 +0.02    +0.064 A 
DOCKED: ATOM      2  C   UNL d   1       0.789 -20.279  -4.159 -0.16 -0.03    +0.064 C 
DOCKED: ATOM      3  C   UNL d   1       3.841 -17.640  -1.599 -0.11 -0.02    +0.064 A 
DOCKED: ATOM      4  C   UNL d   1       2.739 -20.235   2.365 -0.14 -0.00    +0.064 A 
DOCKED: ATOM      5  C   UNL d   1      -0.457 -22.117  -1.483 -0.09 +0.03    +0.066 A 
DOCKED: ATOM      6  C   UNL d   1      -1.151 -22.698  -2.563 -0.12 -0.01    -0.021 A 
DOCKED: ATOM      7  C   UNL d   1      -0.733 -22.042  -3.704 -0.14 +0.00    -0.025 A 
DOCKED: ATOM      8  C   UNL d   1       0.186 -21.080  -3.271 -0.17 -0.01    +0.066 A 
DOCKED: ATOM      9  C   UNL d   1      -1.170 -22.301  -5.154 -0.05 -0.03    +0.051 C 
DOCKED: ATOM     10  C   UNL d   1       1.727 -19.243  -3.804 -0.19 -0.02    +0.066 A 
DOCKED: ATOM     11  C   UNL d   1       2.287 -18.279  -4.671 -0.21 +0.01    -0.021 A 
DOCKED: ATOM     12  C   UNL d   1       3.170 -17.520  -3.897 -0.23 -0.00    +0.000 A 
DOCKED: ATOM     13  C   UNL d   1       3.074 -18.067  -2.618 -0.22 -0.01    +0.070 A 
DOCKED: ATOM     14  C   UNL d   1       1.916 -18.055  -6.114 -0.27 -0.02    +0.052 C 
DOCKED: ATOM     15  C   UNL d   1       3.910 -18.124  -0.234 -0.14 -0.01    +0.066 A 
DOCKED: ATOM     16  C   UNL d   1       4.828 -17.735   0.732 -0.10 +0.01    -0.021 A 
DOCKED: ATOM     17  C   UNL d   1       4.515 -18.482   1.876 -0.20 -0.00    +0.000 A 
DOCKED: ATOM     18  C   UNL d   1       3.417 -19.259   1.522 -0.18 -0.01    +0.070 A 
DOCKED: ATOM     19  C   UNL d   1       5.923 -16.710   0.538 -0.26 -0.01    +0.052 C 
DOCKED: ATOM     20  C   UNL d   1       1.725 -21.063   2.017 -0.12 +0.00    +0.066 A 
DOCKED: ATOM     21  C   UNL d   1       1.179 -21.985   2.906 -0.06 -0.00    -0.025 A 
DOCKED: ATOM     22  C   UNL d   1       0.200 -22.655   2.195 -0.06 -0.00    -0.021 A 
DOCKED: ATOM     23  C   UNL d   1       0.205 -22.111   0.893 -0.10 +0.01    +0.066 A 
DOCKED: ATOM     24  C   UNL d   1       1.583 -22.232   4.357 -0.03 -0.00    +0.051 C 
DOCKED: ATOM     25  N   UNL d   1       0.372 -21.100  -1.899 -0.09 -0.07    -0.248 N 
DOCKED: ATOM     26  N   UNL d   1       2.160 -19.072  -2.551 -0.14 +0.03    -0.248 N 
DOCKED: ATOM     27  N   UNL d   1       3.103 -19.041   0.250 -0.13 +0.01    -0.248 N 
DOCKED: ATOM     28  N   UNL d   1       1.129 -21.149   0.780 -0.10 -0.04    -0.248 N 
DOCKED: ATOM     29 FE   UNL d   1       1.817 -20.011  -0.758 -0.04 +0.00    +0.000 Fe
DOCKED: ENDROOT
DOCKED: BRANCH   6  30
DOCKED: ATOM     30  C   UNL d   1      -2.108 -23.883  -2.497 -0.06 +0.01    +0.052 C 
DOCKED: BRANCH  30  31
DOCKED: ATOM     31  C   UNL d   1      -3.436 -23.467  -1.866 -0.07 +0.04    +0.115 C 
DOCKED: BRANCH  31  32
DOCKED: ATOM     32  C   UNL d   1      -4.267 -22.600  -2.788 -0.07 +0.05    +0.139 C 
DOCKED: ATOM     33  O   UNL d   1      -4.493 -22.980  -3.928 -0.02 -0.00    -0.650 OA
DOCKED: BRANCH  32  34
DOCKED: ATOM     34  O   UNL d   1      -4.813 -21.432  -2.377 +0.02 -0.73    -0.776 OA
DOCKED: ATOM     35  H   UNL d   1      -4.644 -20.576  -2.794 -0.31 +0.08    +0.167 HD
DOCKED: ENDBRANCH  32  34
DOCKED: ENDBRANCH  31  32
DOCKED: ENDBRANCH  30  31
DOCKED: ENDBRANCH   6  30
DOCKED: BRANCH  29  36
DOCKED: ATOM     36  C   UNL d   1       3.190 -21.506  -1.281 -0.04 -0.01    +0.190 C 
DOCKED: BRANCH  36  37
DOCKED: ATOM     37  O   UNL d   1       3.559 -22.827  -1.003 +0.00 +0.01    -0.399 OA
DOCKED: ATOM     38  H   UNL d   1       2.764 -23.225  -0.551 +0.01 -0.00    +0.209 HD
DOCKED: ENDBRANCH  36  37
DOCKED: ENDBRANCH  29  36
DOCKED: BRANCH  22  39
DOCKED: ATOM     39  C   UNL d   1      -0.646 -23.798   2.725 -0.02 +0.00    +0.052 C 
DOCKED: BRANCH  39  40
DOCKED: ATOM     40  C   UNL d   1       0.121 -25.127   2.636 -0.00 +0.00    +0.115 C 
DOCKED: BRANCH  40  41
DOCKED: ATOM     41  C   UNL d   1       1.471 -25.025   1.957 -0.00 +0.00    +0.139 C 
DOCKED: ATOM     42  O   UNL d   1       2.472 -25.388   2.559 +0.00 +0.01    -0.650 OA
DOCKED: BRANCH  41  43
DOCKED: ATOM     43  O   UNL d   1       1.592 -24.625   0.672 +0.01 -0.02    -0.776 OA
DOCKED: ATOM     44  H   UNL d   1       2.384 -24.186   0.337 +0.01 +0.00    +0.167 HD
DOCKED: ENDBRANCH  41  43
DOCKED: ENDBRANCH  40  41
DOCKED: ENDBRANCH  39  40
DOCKED: ENDBRANCH  22  39
DOCKED: BRANCH  12  45
DOCKED: ATOM     45  C   UNL d   1       4.073 -16.336  -4.214 -0.30 -0.00    +0.004 C 
DOCKED: ATOM     46  C   UNL d   1       3.958 -15.050  -3.895 -0.47 -0.00    +0.012 C 
DOCKED: ENDBRANCH  12  45
DOCKED: BRANCH  17  47
DOCKED: ATOM     47  C   UNL d   1       5.203 -18.530   3.201 -0.13 -0.00    +0.004 C 
DOCKED: ATOM     48  C   UNL d   1       4.767 -17.878   4.282 -0.15 -0.00    +0.012 C 
DOCKED: ENDBRANCH  17  47
DOCKED: TORSDOF 12
DOCKED: TER
DOCKED: ENDMDL
________________________________________________________________________________


	BEGINNING GENETIC ALGORITHM DOCKING 63 of 100
Run: 63 Seed: 66277458 469548844 [ Run 63 of 100 GA/GALS ]
Beginning LAMARCKIAN GENETIC ALGORITHM (LGA), with a maximum of 25000000 energy evaluations.

Final-Value: -9.338


	FINAL GENETIC ALGORITHM DOCKED STATE
	_______________________________________________


Detailed state:  trans -7.371 -18.540 -16.836 quatxyzw 0.450442 0.364375 -0.335621 0.742759 center 8.781 34.984 -0.736 ntor 12 -34.5992 109.9147 -35.3492 -94.7632 133.2481 150.9815 -134.8287 144.4301 -157.3523 -166.9820 -5.9519 4.5495
State:	 -7.371 -18.540 -16.836   0.673  0.544 -0.501 84.066    -34.60  109.91  -35.35  -94.76  133.25  150.98 -134.83  144.43 -157.35 -166.98   -5.95    4.55

DOCKED: MODEL       63
DOCKED: USER    Run = 63
DOCKED: USER    DPF = D:/Protein_go_brrr/autodock/final/mut_Y35F/heme_Co/dock.dpf
DOCKED: USER  
DOCKED: USER    Estimated Free Energy of Binding    =   -3.94 kcal/mol  [=(1)+(2)+(3)-(4)]
DOCKED: USER    Estimated Inhibition Constant, Ki   =    1.29 mM (millimolar)  [Temperature = 298.15 K]
DOCKED: USER    
DOCKED: USER    (1) Final Intermolecular Energy     =   -7.52 kcal/mol
DOCKED: USER        vdW + Hbond + desolv Energy     =   -4.81 kcal/mol
DOCKED: USER        Electrostatic Energy            =   -2.71 kcal/mol
DOCKED: USER    (2) Final Total Internal Energy     =   -1.82 kcal/mol
DOCKED: USER    (3) Torsional Free Energy           =   +3.58 kcal/mol
DOCKED: USER    (4) Unbound System's Energy  [=(2)] =   -1.82 kcal/mol
DOCKED: USER    
DOCKED: USER    
DOCKED: USER    NEWDPF move heme_Co_opt.pdbqt
DOCKED: USER    NEWDPF about 8.781000 34.984000 -0.736000
DOCKED: USER    NEWDPF tran0 -7.370508 -18.540062 -16.836258
DOCKED: USER    NEWDPF quaternion0 0.450442 0.364375 -0.335621 0.742759
DOCKED: USER    NEWDPF axisangle0 0.672744 0.544202 -0.501258 84.065995
DOCKED: USER    NEWDPF quat0 0.672744 0.544202 -0.501258 84.065995
DOCKED: USER    NEWDPF dihe0 -34.60 109.91 -35.35 -94.76 133.25 150.98 -134.83 144.43 -157.35 -166.98 -5.95 4.55 
DOCKED: USER  keepresnum = 1 
DOCKED: USER  
DOCKED: REMARK  12 active torsions:
DOCKED: REMARK  status: ('A' for Active; 'I' for Inactive)
DOCKED: REMARK    1  A    between atoms: C_6  and  C_10 
DOCKED: REMARK    2  A    between atoms: C_10  and  C_11 
DOCKED: REMARK    3  A    between atoms: C_11  and  C_12 
DOCKED: REMARK    4  A    between atoms: C_12  and  O_14 
DOCKED: REMARK    5  A    between atoms: C_17  and  C_20 
DOCKED: REMARK    6  A    between atoms: C_24  and  C_27 
DOCKED: REMARK    7  A    between atoms: C_31  and  C_34 
DOCKED: REMARK    8  A    between atoms: C_34  and  C_35 
DOCKED: REMARK    9  A    between atoms: C_35  and  C_36 
DOCKED: REMARK   10  A    between atoms: C_36  and  O_38 
DOCKED: REMARK   11  A    between atoms: FE_43  and  C_44 
DOCKED: REMARK   12  A    between atoms: C_44  and  O_45 
DOCKED: USER                              x       y       z     vdW  Elec       q    Type
DOCKED: USER                           _______ _______ _______ _____ _____    ______ ____
DOCKED: ROOT
DOCKED: ATOM      1  C   UNL d   1      -7.724 -20.317 -18.034 -0.06 +0.04    +0.064 A 
DOCKED: ATOM      2  C   UNL d   1      -9.781 -18.671 -14.075 -0.10 +0.02    +0.064 C 
DOCKED: ATOM      3  C   UNL d   1      -6.614 -15.099 -13.870 -0.20 +0.01    +0.064 A 
DOCKED: ATOM      4  C   UNL d   1      -4.737 -16.536 -18.121 -0.04 +0.02    +0.064 A 
DOCKED: ATOM      5  C   UNL d   1      -8.496 -20.150 -16.947 -0.07 +0.04    +0.066 A 
DOCKED: ATOM      6  C   UNL d   1      -9.607 -20.976 -16.687 -0.04 -0.01    -0.021 A 
DOCKED: ATOM      7  C   UNL d   1     -10.214 -20.480 -15.550 -0.03 -0.01    -0.025 A 
DOCKED: ATOM      8  C   UNL d   1      -9.438 -19.384 -15.156 -0.08 +0.02    +0.066 A 
DOCKED: ATOM      9  C   UNL d   1     -11.476 -21.005 -14.849 -0.01 +0.01    +0.051 C 
DOCKED: ATOM     10  C   UNL d   1      -9.029 -17.546 -13.579 -0.15 +0.02    +0.066 A 
DOCKED: ATOM     11  C   UNL d   1      -9.256 -16.844 -12.375 -0.24 -0.00    -0.021 A 
DOCKED: ATOM     12  C   UNL d   1      -8.316 -15.811 -12.338 -0.28 +0.00    +0.000 A 
DOCKED: ATOM     13  C   UNL d   1      -7.580 -15.965 -13.513 -0.18 +0.01    +0.070 A 
DOCKED: ATOM     14  C   UNL d   1     -10.247 -17.214 -11.300 -0.23 +0.00    +0.052 C 
DOCKED: ATOM     15  C   UNL d   1      -5.795 -15.077 -15.065 -0.14 +0.01    +0.066 A 
DOCKED: ATOM     16  C   UNL d   1      -4.915 -14.072 -15.442 -0.09 -0.00    -0.021 A 
DOCKED: ATOM     17  C   UNL d   1      -4.373 -14.480 -16.669 -0.04 +0.00    +0.000 A 
DOCKED: ATOM     18  C   UNL d   1      -4.954 -15.715 -16.936 -0.07 +0.02    +0.070 A 
DOCKED: ATOM     19  C   UNL d   1      -4.635 -12.811 -14.654 -0.12 +0.00    +0.052 C 
DOCKED: ATOM     20  C   UNL d   1      -5.355 -17.697 -18.444 -0.05 +0.03    +0.066 A 
DOCKED: ATOM     21  C   UNL d   1      -5.088 -18.376 -19.631 -0.03 -0.01    -0.025 A 
DOCKED: ATOM     22  C   UNL d   1      -5.913 -19.486 -19.620 -0.04 -0.01    -0.021 A 
DOCKED: ATOM     23  C   UNL d   1      -6.658 -19.422 -18.423 -0.06 +0.05    +0.066 A 
DOCKED: ATOM     24  C   UNL d   1      -4.108 -17.978 -20.732 -0.01 +0.01    +0.051 C 
DOCKED: ATOM     25  N   UNL d   1      -8.363 -19.161 -16.000 -0.08 -0.15    -0.248 N 
DOCKED: ATOM     26  N   UNL d   1      -7.975 -17.047 -14.234 -0.12 -0.08    -0.248 N 
DOCKED: ATOM     27  N   UNL d   1      -5.818 -16.025 -15.975 -0.08 -0.08    -0.248 N 
DOCKED: ATOM     28  N   UNL d   1      -6.325 -18.339 -17.710 -0.04 -0.17    -0.248 N 
DOCKED: ATOM     29 FE   UNL d   1      -7.013 -17.501 -15.990 -0.03 +0.00    +0.000 Fe
DOCKED: ENDROOT
DOCKED: BRANCH   6  30
DOCKED: ATOM     30  C   UNL d   1     -10.101 -22.135 -17.547 -0.01 +0.01    +0.052 C 
DOCKED: BRANCH  30  31
DOCKED: ATOM     31  C   UNL d   1      -9.239 -23.376 -17.320 -0.01 +0.04    +0.115 C 
DOCKED: BRANCH  31  32
DOCKED: ATOM     32  C   UNL d   1      -8.487 -23.326 -16.008 -0.04 +0.08    +0.139 C 
DOCKED: ATOM     33  O   UNL d   1      -8.958 -23.874 -15.023 +0.00 -0.25    -0.650 OA
DOCKED: BRANCH  32  34
DOCKED: ATOM     34  O   UNL d   1      -7.276 -22.730 -15.898 -0.46 -1.20    -0.776 OA
DOCKED: ATOM     35  H   UNL d   1      -6.583 -22.778 -16.571 -0.00 +0.32    +0.167 HD
DOCKED: ENDBRANCH  32  34
DOCKED: ENDBRANCH  31  32
DOCKED: ENDBRANCH  30  31
DOCKED: ENDBRANCH   6  30
DOCKED: BRANCH  29  36
DOCKED: ATOM     36  C   UNL d   1      -8.477 -16.449 -17.061 -0.03 +0.04    +0.190 C 
DOCKED: BRANCH  36  37
DOCKED: ATOM     37  O   UNL d   1      -9.733 -16.586 -17.659 +0.00 -0.05    -0.399 OA
DOCKED: ATOM     38  H   UNL d   1      -9.968 -17.549 -17.545 +0.01 +0.03    +0.209 HD
DOCKED: ENDBRANCH  36  37
DOCKED: ENDBRANCH  29  36
DOCKED: BRANCH  22  39
DOCKED: ATOM     39  C   UNL d   1      -6.022 -20.512 -20.732 -0.01 +0.02    +0.052 C 
DOCKED: BRANCH  39  40
DOCKED: ATOM     40  C   UNL d   1      -5.327 -21.824 -20.330 -0.02 +0.05    +0.115 C 
DOCKED: BRANCH  40  41
DOCKED: ATOM     41  C   UNL d   1      -4.859 -21.867 -18.891 +0.04 +0.14    +0.139 C 
DOCKED: ATOM     42  O   UNL d   1      -3.838 -21.272 -18.575 -0.52 -0.72    -0.650 OA
DOCKED: BRANCH  41  43
DOCKED: ATOM     43  O   UNL d   1      -5.584 -22.474 -17.926 -0.12 -1.18    -0.776 OA
DOCKED: ATOM     44  H   UNL d   1      -6.547 -22.543 -17.965 -0.00 +0.18    +0.167 HD
DOCKED: ENDBRANCH  41  43
DOCKED: ENDBRANCH  40  41
DOCKED: ENDBRANCH  39  40
DOCKED: ENDBRANCH  22  39
DOCKED: BRANCH  12  45
DOCKED: ATOM     45  C   UNL d   1      -8.019 -14.713 -11.325 -0.53 -0.00    +0.004 C 
DOCKED: ATOM     46  C   UNL d   1      -8.314 -13.416 -11.342 -0.39 -0.00    +0.012 C 
DOCKED: ENDBRANCH  12  45
DOCKED: BRANCH  17  47
DOCKED: ATOM     47  C   UNL d   1      -3.421 -13.771 -17.574 -0.02 +0.00    +0.004 C 
DOCKED: ATOM     48  C   UNL d   1      -2.166 -14.175 -17.787 -0.01 +0.00    +0.012 C 
DOCKED: ENDBRANCH  17  47
DOCKED: TORSDOF 12
DOCKED: TER
DOCKED: ENDMDL
________________________________________________________________________________


	BEGINNING GENETIC ALGORITHM DOCKING 64 of 100
Run: 64 Seed: 1945963987 1310546802 [ Run 64 of 100 GA/GALS ]
Beginning LAMARCKIAN GENETIC ALGORITHM (LGA), with a maximum of 25000000 energy evaluations.

Final-Value: -9.222


	FINAL GENETIC ALGORITHM DOCKED STATE
	_______________________________________________


Detailed state:  trans -6.759 -10.610 -13.002 quatxyzw -0.885220 0.181292 -0.008267 -0.428311 center 8.781 34.984 -0.736 ntor 12 -109.3876 115.1295 -162.2978 129.4140 -114.9731 100.2136 30.1172 119.6898 -97.5785 101.6209 159.0426 -179.6023
State:	 -6.759 -10.610 -13.002  -0.980  0.201 -0.009 -129.279   -109.39  115.13 -162.30  129.41 -114.97  100.21   30.12  119.69  -97.58  101.62  159.04 -179.60

DOCKED: MODEL       64
DOCKED: USER    Run = 64
DOCKED: USER    DPF = D:/Protein_go_brrr/autodock/final/mut_Y35F/heme_Co/dock.dpf
DOCKED: USER  
DOCKED: USER    Estimated Free Energy of Binding    =   -2.75 kcal/mol  [=(1)+(2)+(3)-(4)]
DOCKED: USER    Estimated Inhibition Constant, Ki   =    9.57 mM (millimolar)  [Temperature = 298.15 K]
DOCKED: USER    
DOCKED: USER    (1) Final Intermolecular Energy     =   -6.33 kcal/mol
DOCKED: USER        vdW + Hbond + desolv Energy     =   -6.32 kcal/mol
DOCKED: USER        Electrostatic Energy            =   -0.02 kcal/mol
DOCKED: USER    (2) Final Total Internal Energy     =   -2.89 kcal/mol
DOCKED: USER    (3) Torsional Free Energy           =   +3.58 kcal/mol
DOCKED: USER    (4) Unbound System's Energy  [=(2)] =   -2.89 kcal/mol
DOCKED: USER    
DOCKED: USER    
DOCKED: USER    NEWDPF move heme_Co_opt.pdbqt
DOCKED: USER    NEWDPF about 8.781000 34.984000 -0.736000
DOCKED: USER    NEWDPF tran0 -6.758859 -10.609714 -13.001875
DOCKED: USER    NEWDPF quaternion0 -0.885220 0.181292 -0.008267 -0.428311
DOCKED: USER    NEWDPF axisangle0 -0.979625 0.200626 -0.009149 -129.279217
DOCKED: USER    NEWDPF quat0 -0.979625 0.200626 -0.009149 -129.279217
DOCKED: USER    NEWDPF dihe0 -109.39 115.13 -162.30 129.41 -114.97 100.21 30.12 119.69 -97.58 101.62 159.04 -179.60 
DOCKED: USER  keepresnum = 1 
DOCKED: USER  
DOCKED: REMARK  12 active torsions:
DOCKED: REMARK  status: ('A' for Active; 'I' for Inactive)
DOCKED: REMARK    1  A    between atoms: C_6  and  C_10 
DOCKED: REMARK    2  A    between atoms: C_10  and  C_11 
DOCKED: REMARK    3  A    between atoms: C_11  and  C_12 
DOCKED: REMARK    4  A    between atoms: C_12  and  O_14 
DOCKED: REMARK    5  A    between atoms: C_17  and  C_20 
DOCKED: REMARK    6  A    between atoms: C_24  and  C_27 
DOCKED: REMARK    7  A    between atoms: C_31  and  C_34 
DOCKED: REMARK    8  A    between atoms: C_34  and  C_35 
DOCKED: REMARK    9  A    between atoms: C_35  and  C_36 
DOCKED: REMARK   10  A    between atoms: C_36  and  O_38 
DOCKED: REMARK   11  A    between atoms: FE_43  and  C_44 
DOCKED: REMARK   12  A    between atoms: C_44  and  O_45 
DOCKED: USER                              x       y       z     vdW  Elec       q    Type
DOCKED: USER                           _______ _______ _______ _____ _____    ______ ____
DOCKED: ROOT
DOCKED: ATOM      1  C   UNL d   1      -8.867 -10.900 -12.572 -0.24 -0.01    +0.064 A 
DOCKED: ATOM      2  C   UNL d   1      -6.222  -6.983 -13.088 -0.13 -0.00    +0.064 C 
DOCKED: ATOM      3  C   UNL d   1      -2.281  -9.653 -13.499 -0.20 -0.00    +0.064 A 
DOCKED: ATOM      4  C   UNL d   1      -5.010 -13.678 -13.361 -0.17 -0.00    +0.064 A 
DOCKED: ATOM      5  C   UNL d   1      -8.429  -9.633 -12.646 -0.19 -0.01    +0.066 A 
DOCKED: ATOM      6  C   UNL d   1      -9.312  -8.535 -12.636 -0.15 +0.00    -0.021 A 
DOCKED: ATOM      7  C   UNL d   1      -8.541  -7.402 -12.809 -0.04 +0.00    -0.025 A 
DOCKED: ATOM      8  C   UNL d   1      -7.220  -7.855 -12.901 -0.13 -0.01    +0.066 A 
DOCKED: ATOM      9  C   UNL d   1      -9.015  -5.943 -12.889 -0.06 -0.00    +0.051 C 
DOCKED: ATOM     10  C   UNL d   1      -4.831  -7.353 -13.167 -0.10 -0.00    +0.066 A 
DOCKED: ATOM     11  C   UNL d   1      -3.726  -6.476 -13.222 -0.13 -0.00    -0.021 A 
DOCKED: ATOM     12  C   UNL d   1      -2.589  -7.281 -13.337 -0.18 +0.00    +0.000 A 
DOCKED: ATOM     13  C   UNL d   1      -3.082  -8.586 -13.332 -0.15 -0.00    +0.070 A 
DOCKED: ATOM     14  C   UNL d   1      -3.769  -4.976 -13.075 -0.15 +0.00    +0.052 C 
DOCKED: ATOM     15  C   UNL d   1      -2.625 -11.059 -13.571 -0.20 -0.01    +0.066 A 
DOCKED: ATOM     16  C   UNL d   1      -1.766 -12.102 -13.891 -0.21 +0.00    -0.021 A 
DOCKED: ATOM     17  C   UNL d   1      -2.549 -13.264 -13.855 -0.13 +0.00    +0.000 A 
DOCKED: ATOM     18  C   UNL d   1      -3.825 -12.840 -13.498 -0.19 -0.00    +0.070 A 
DOCKED: ATOM     19  C   UNL d   1      -0.294 -11.959 -14.207 -0.24 -0.00    +0.052 C 
DOCKED: ATOM     20  C   UNL d   1      -6.277 -13.277 -13.100 -0.23 -0.01    +0.066 A 
DOCKED: ATOM     21  C   UNL d   1      -7.340 -14.175 -13.028 -0.28 +0.00    -0.025 A 
DOCKED: ATOM     22  C   UNL d   1      -8.461 -13.406 -12.773 -0.26 +0.00    -0.021 A 
DOCKED: ATOM     23  C   UNL d   1      -8.024 -12.065 -12.713 -0.22 -0.01    +0.066 A 
DOCKED: ATOM     24  C   UNL d   1      -7.295 -15.689 -13.213 -0.19 +0.01    +0.051 C 
DOCKED: ATOM     25  N   UNL d   1      -7.121  -9.232 -12.797 -0.08 +0.03    -0.248 N 
DOCKED: ATOM     26  N   UNL d   1      -4.432  -8.630 -13.172 -0.07 +0.01    -0.248 N 
DOCKED: ATOM     27  N   UNL d   1      -3.840 -11.518 -13.367 -0.13 +0.02    -0.248 N 
DOCKED: ATOM     28  N   UNL d   1      -6.703 -11.983 -12.913 -0.11 +0.03    -0.248 N 
DOCKED: ATOM     29 FE   UNL d   1      -5.385 -10.446 -13.098 -0.04 -0.00    +0.000 Fe
DOCKED: ENDROOT
DOCKED: BRANCH   6  30
DOCKED: ATOM     30  C   UNL d   1     -10.833  -8.592 -12.547 -0.21 -0.00    +0.052 C 
DOCKED: BRANCH  30  31
DOCKED: ATOM     31  C   UNL d   1     -11.467  -8.019 -13.815 -0.10 -0.00    +0.115 C 
DOCKED: BRANCH  31  32
DOCKED: ATOM     32  C   UNL d   1     -11.484  -9.017 -14.953 -0.05 +0.00    +0.139 C 
DOCKED: ATOM     33  O   UNL d   1     -10.628  -8.951 -15.823 +0.01 -0.00    -0.650 OA
DOCKED: BRANCH  32  34
DOCKED: ATOM     34  O   UNL d   1     -12.393 -10.018 -15.017 +0.01 -0.03    -0.776 OA
DOCKED: ATOM     35  H   UNL d   1     -12.174 -10.957 -14.941 +0.02 +0.01    +0.167 HD
DOCKED: ENDBRANCH  32  34
DOCKED: ENDBRANCH  31  32
DOCKED: ENDBRANCH  30  31
DOCKED: ENDBRANCH   6  30
DOCKED: BRANCH  29  36
DOCKED: ATOM     36  C   UNL d   1      -5.789 -10.316 -15.151 -0.02 -0.00    +0.190 C 
DOCKED: BRANCH  36  37
DOCKED: ATOM     37  O   UNL d   1      -6.786 -10.537 -16.107 +0.00 -0.00    -0.399 OA
DOCKED: ATOM     38  H   UNL d   1      -7.578 -10.846 -15.584 +0.02 -0.00    +0.209 HD
DOCKED: ENDBRANCH  36  37
DOCKED: ENDBRANCH  29  36
DOCKED: BRANCH  22  39
DOCKED: ATOM     39  C   UNL d   1      -9.880 -13.929 -12.659 -0.24 +0.00    +0.052 C 
DOCKED: BRANCH  39  40
DOCKED: ATOM     40  C   UNL d   1     -10.472 -14.201 -14.052 -0.10 +0.01    +0.115 C 
DOCKED: BRANCH  40  41
DOCKED: ATOM     41  C   UNL d   1     -11.067 -12.983 -14.726 -0.08 +0.01    +0.139 C 
DOCKED: ATOM     42  O   UNL d   1     -12.281 -12.838 -14.738 -0.01 -0.04    -0.650 OA
DOCKED: BRANCH  41  43
DOCKED: ATOM     43  O   UNL d   1     -10.288 -12.005 -15.241 +0.02 -0.03    -0.776 OA
DOCKED: ATOM     44  H   UNL d   1     -10.603 -11.100 -15.361 +0.02 +0.00    +0.167 HD
DOCKED: ENDBRANCH  41  43
DOCKED: ENDBRANCH  40  41
DOCKED: ENDBRANCH  39  40
DOCKED: ENDBRANCH  22  39
DOCKED: BRANCH  12  45
DOCKED: ATOM     45  C   UNL d   1      -1.102  -6.970 -13.432 -0.26 +0.00    +0.004 C 
DOCKED: ATOM     46  C   UNL d   1      -0.089  -7.336 -12.651 -0.38 +0.00    +0.012 C 
DOCKED: ENDBRANCH  12  45
DOCKED: BRANCH  17  47
DOCKED: ATOM     47  C   UNL d   1      -2.178 -14.675 -14.174 -0.17 +0.00    +0.004 C 
DOCKED: ATOM     48  C   UNL d   1      -2.947 -15.495 -14.894 -0.20 +0.00    +0.012 C 
DOCKED: ENDBRANCH  17  47
DOCKED: TORSDOF 12
DOCKED: TER
DOCKED: ENDMDL
________________________________________________________________________________


	BEGINNING GENETIC ALGORITHM DOCKING 65 of 100
Run: 65 Seed: 341177807 2015245246 [ Run 65 of 100 GA/GALS ]
Beginning LAMARCKIAN GENETIC ALGORITHM (LGA), with a maximum of 25000000 energy evaluations.

Final-Value: -10.546


	FINAL GENETIC ALGORITHM DOCKED STATE
	_______________________________________________


Detailed state:  trans 4.992 -9.217 8.943 quatxyzw -0.193593 -0.000801 0.911213 0.363610 center 8.781 34.984 -0.736 ntor 12 43.2659 108.8458 -53.8492 115.4039 -102.2742 131.6127 -82.5142 88.5745 76.6180 47.4068 -0.8354 -175.6144
State:	  4.992  -9.217   8.943  -0.208 -0.001  0.978 137.356     43.27  108.85  -53.85  115.40 -102.27  131.61  -82.51   88.57   76.62   47.41   -0.84 -175.61

DOCKED: MODEL       65
DOCKED: USER    Run = 65
DOCKED: USER    DPF = D:/Protein_go_brrr/autodock/final/mut_Y35F/heme_Co/dock.dpf
DOCKED: USER  
DOCKED: USER    Estimated Free Energy of Binding    =   -5.13 kcal/mol  [=(1)+(2)+(3)-(4)]
DOCKED: USER    Estimated Inhibition Constant, Ki   =  175.02 uM (micromolar)  [Temperature = 298.15 K]
DOCKED: USER    
DOCKED: USER    (1) Final Intermolecular Energy     =   -8.70 kcal/mol
DOCKED: USER        vdW + Hbond + desolv Energy     =   -7.72 kcal/mol
DOCKED: USER        Electrostatic Energy            =   -0.98 kcal/mol
DOCKED: USER    (2) Final Total Internal Energy     =   -1.84 kcal/mol
DOCKED: USER    (3) Torsional Free Energy           =   +3.58 kcal/mol
DOCKED: USER    (4) Unbound System's Energy  [=(2)] =   -1.84 kcal/mol
DOCKED: USER    
DOCKED: USER    
DOCKED: USER    NEWDPF move heme_Co_opt.pdbqt
DOCKED: USER    NEWDPF about 8.781000 34.984000 -0.736000
DOCKED: USER    NEWDPF tran0 4.992466 -9.216995 8.943335
DOCKED: USER    NEWDPF quaternion0 -0.193593 -0.000801 0.911213 0.363610
DOCKED: USER    NEWDPF axisangle0 -0.207818 -0.000860 0.978167 137.355812
DOCKED: USER    NEWDPF quat0 -0.207818 -0.000860 0.978167 137.355812
DOCKED: USER    NEWDPF dihe0 43.27 108.85 -53.85 115.40 -102.27 131.61 -82.51 88.57 76.62 47.41 -0.84 -175.61 
DOCKED: USER  keepresnum = 1 
DOCKED: USER  
DOCKED: REMARK  12 active torsions:
DOCKED: REMARK  status: ('A' for Active; 'I' for Inactive)
DOCKED: REMARK    1  A    between atoms: C_6  and  C_10 
DOCKED: REMARK    2  A    between atoms: C_10  and  C_11 
DOCKED: REMARK    3  A    between atoms: C_11  and  C_12 
DOCKED: REMARK    4  A    between atoms: C_12  and  O_14 
DOCKED: REMARK    5  A    between atoms: C_17  and  C_20 
DOCKED: REMARK    6  A    between atoms: C_24  and  C_27 
DOCKED: REMARK    7  A    between atoms: C_31  and  C_34 
DOCKED: REMARK    8  A    between atoms: C_34  and  C_35 
DOCKED: REMARK    9  A    between atoms: C_35  and  C_36 
DOCKED: REMARK   10  A    between atoms: C_36  and  O_38 
DOCKED: REMARK   11  A    between atoms: FE_43  and  C_44 
DOCKED: REMARK   12  A    between atoms: C_44  and  O_45 
DOCKED: USER                              x       y       z     vdW  Elec       q    Type
DOCKED: USER                           _______ _______ _______ _____ _____    ______ ____
DOCKED: ROOT
DOCKED: ATOM      1  C   UNL d   1       6.901  -8.182   8.910 -0.13 -0.01    +0.064 A 
DOCKED: ATOM      2  C   UNL d   1       2.990  -7.590  11.550 -0.23 -0.05    +0.064 C 
DOCKED: ATOM      3  C   UNL d   1       0.716 -10.927   8.996 -0.19 -0.01    +0.064 A 
DOCKED: ATOM      4  C   UNL d   1       4.818 -11.822   6.538 -0.14 -0.01    +0.064 A 
DOCKED: ATOM      5  C   UNL d   1       5.988  -7.749   9.796 -0.13 -0.01    +0.066 A 
DOCKED: ATOM      6  C   UNL d   1       6.300  -6.800  10.788 -0.11 +0.01    -0.021 A 
DOCKED: ATOM      7  C   UNL d   1       5.169  -6.649  11.565 -0.16 +0.01    -0.025 A 
DOCKED: ATOM      8  C   UNL d   1       4.210  -7.499  11.005 -0.18 -0.03    +0.066 A 
DOCKED: ATOM      9  C   UNL d   1       4.982  -5.743  12.792 -0.11 -0.05    +0.051 C 
DOCKED: ATOM     10  C   UNL d   1       1.932  -8.417  11.027 -0.19 -0.03    +0.066 A 
DOCKED: ATOM     11  C   UNL d   1       0.591  -8.451  11.468 -0.26 +0.01    -0.021 A 
DOCKED: ATOM     12  C   UNL d   1      -0.051  -9.429  10.704 -0.25 -0.00    +0.000 A 
DOCKED: ATOM     13  C   UNL d   1       0.940  -9.910   9.847 -0.17 -0.01    +0.070 A 
DOCKED: ATOM     14  C   UNL d   1      -0.037  -7.533  12.486 -0.32 -0.03    +0.052 C 
DOCKED: ATOM     15  C   UNL d   1       1.633 -11.580   8.082 -0.20 -0.01    +0.066 A 
DOCKED: ATOM     16  C   UNL d   1       1.377 -12.721   7.335 -0.27 +0.00    -0.021 A 
DOCKED: ATOM     17  C   UNL d   1       2.557 -12.984   6.626 -0.30 -0.00    +0.000 A 
DOCKED: ATOM     18  C   UNL d   1       3.438 -11.970   6.986 -0.20 -0.01    +0.070 A 
DOCKED: ATOM     19  C   UNL d   1       0.073 -13.487   7.324 -0.23 -0.01    +0.052 C 
DOCKED: ATOM     20  C   UNL d   1       5.720 -10.895   6.940 +0.03 -0.01    +0.066 A 
DOCKED: ATOM     21  C   UNL d   1       7.029 -10.876   6.464 -0.17 +0.00    -0.025 A 
DOCKED: ATOM     22  C   UNL d   1       7.645  -9.819   7.108 -0.21 +0.00    -0.021 A 
DOCKED: ATOM     23  C   UNL d   1       6.677  -9.248   7.962 -0.15 -0.01    +0.066 A 
DOCKED: ATOM     24  C   UNL d   1       7.668 -11.831   5.459 -0.31 -0.01    +0.051 C 
DOCKED: ATOM     25  N   UNL d   1       4.688  -8.189   9.903 -0.11 +0.05    -0.248 N 
DOCKED: ATOM     26  N   UNL d   1       2.123  -9.259  10.005 +0.01 +0.04    -0.248 N 
DOCKED: ATOM     27  N   UNL d   1       2.864 -11.170   7.877 -0.13 +0.03    -0.248 N 
DOCKED: ATOM     28  N   UNL d   1       5.511  -9.898   7.864 -0.10 +0.02    -0.248 N 
DOCKED: ATOM     29 FE   UNL d   1       3.725  -9.768   8.828 -0.04 -0.00    +0.000 Fe
DOCKED: ENDROOT
DOCKED: BRANCH   6  30
DOCKED: ATOM     30  C   UNL d   1       7.654  -6.137  11.019 -0.08 -0.01    +0.052 C 
DOCKED: BRANCH  30  31
DOCKED: ATOM     31  C   UNL d   1       7.831  -4.938  10.087 -0.16 -0.01    +0.115 C 
DOCKED: BRANCH  31  32
DOCKED: ATOM     32  C   UNL d   1       8.784  -5.228   8.947 -0.25 +0.01    +0.139 C 
DOCKED: ATOM     33  O   UNL d   1       8.609  -4.689   7.865 -0.09 +0.02    -0.650 OA
DOCKED: BRANCH  32  34
DOCKED: ATOM     34  O   UNL d   1       9.861  -6.034   9.100 +0.06 -0.15    -0.776 OA
DOCKED: ATOM     35  H   UNL d   1       9.862  -6.847   9.624 +0.04 +0.03    +0.167 HD
DOCKED: ENDBRANCH  32  34
DOCKED: ENDBRANCH  31  32
DOCKED: ENDBRANCH  30  31
DOCKED: ENDBRANCH   6  30
DOCKED: BRANCH  29  36
DOCKED: ATOM     36  C   UNL d   1       4.415 -11.059  10.329 -0.02 -0.02    +0.190 C 
DOCKED: BRANCH  36  37
DOCKED: ATOM     37  O   UNL d   1       5.397 -11.197  11.315 +0.00 +0.04    -0.399 OA
DOCKED: ATOM     38  H   UNL d   1       5.988 -10.401  11.202 +0.02 -0.02    +0.209 HD
DOCKED: ENDBRANCH  36  37
DOCKED: ENDBRANCH  29  36
DOCKED: BRANCH  22  39
DOCKED: ATOM     39  C   UNL d   1       9.103  -9.426   6.957 -0.21 -0.02    +0.052 C 
DOCKED: BRANCH  39  40
DOCKED: ATOM     40  C   UNL d   1      10.012 -10.419   7.699 -0.15 -0.00    +0.115 C 
DOCKED: BRANCH  40  41
DOCKED: ATOM     41  C   UNL d   1      11.148  -9.774   8.465 -0.01 +0.07    +0.139 C 
DOCKED: ATOM     42  O   UNL d   1      12.277 -10.233   8.360 -0.57 -0.51    -0.650 OA
DOCKED: BRANCH  41  43
DOCKED: ATOM     43  O   UNL d   1      10.966  -8.651   9.194 -0.05 -0.37    -0.776 OA
DOCKED: ATOM     44  H   UNL d   1      10.498  -7.879   8.851 +0.03 +0.07    +0.167 HD
DOCKED: ENDBRANCH  41  43
DOCKED: ENDBRANCH  40  41
DOCKED: ENDBRANCH  39  40
DOCKED: ENDBRANCH  22  39
DOCKED: BRANCH  12  45
DOCKED: ATOM     45  C   UNL d   1      -1.482  -9.949  10.671 -0.30 -0.00    +0.004 C 
DOCKED: ATOM     46  C   UNL d   1      -2.449  -9.766   9.777 -0.43 -0.00    +0.012 C 
DOCKED: ENDBRANCH  12  45
DOCKED: BRANCH  17  47
DOCKED: ATOM     47  C   UNL d   1       2.889 -14.119   5.713 -0.36 -0.00    +0.004 C 
DOCKED: ATOM     48  C   UNL d   1       3.938 -14.925   5.890 -0.25 -0.00    +0.012 C 
DOCKED: ENDBRANCH  17  47
DOCKED: TORSDOF 12
DOCKED: TER
DOCKED: ENDMDL
________________________________________________________________________________


	BEGINNING GENETIC ALGORITHM DOCKING 66 of 100
Run: 66 Seed: 2122695977 1852790473 [ Run 66 of 100 GA/GALS ]
Beginning LAMARCKIAN GENETIC ALGORITHM (LGA), with a maximum of 25000000 energy evaluations.

Final-Value: -9.385


	FINAL GENETIC ALGORITHM DOCKED STATE
	_______________________________________________


Detailed state:  trans 19.702 4.577 4.638 quatxyzw 0.044053 0.333135 0.941779 0.011508 center 8.781 34.984 -0.736 ntor 12 35.4889 141.6718 129.0742 134.0030 -26.8467 82.5203 16.5221 -38.5630 -165.1365 -149.2505 -2.9957 153.6723
State:	 19.702   4.577   4.638   0.044  0.333  0.942 178.681     35.49  141.67  129.07  134.00  -26.85   82.52   16.52  -38.56 -165.14 -149.25   -3.00  153.67

DOCKED: MODEL       66
DOCKED: USER    Run = 66
DOCKED: USER    DPF = D:/Protein_go_brrr/autodock/final/mut_Y35F/heme_Co/dock.dpf
DOCKED: USER  
DOCKED: USER    Estimated Free Energy of Binding    =   -3.59 kcal/mol  [=(1)+(2)+(3)-(4)]
DOCKED: USER    Estimated Inhibition Constant, Ki   =    2.36 mM (millimolar)  [Temperature = 298.15 K]
DOCKED: USER    
DOCKED: USER    (1) Final Intermolecular Energy     =   -7.16 kcal/mol
DOCKED: USER        vdW + Hbond + desolv Energy     =   -5.56 kcal/mol
DOCKED: USER        Electrostatic Energy            =   -1.60 kcal/mol
DOCKED: USER    (2) Final Total Internal Energy     =   -2.22 kcal/mol
DOCKED: USER    (3) Torsional Free Energy           =   +3.58 kcal/mol
DOCKED: USER    (4) Unbound System's Energy  [=(2)] =   -2.22 kcal/mol
DOCKED: USER    
DOCKED: USER    
DOCKED: USER    NEWDPF move heme_Co_opt.pdbqt
DOCKED: USER    NEWDPF about 8.781000 34.984000 -0.736000
DOCKED: USER    NEWDPF tran0 19.701606 4.577268 4.638130
DOCKED: USER    NEWDPF quaternion0 0.044053 0.333135 0.941779 0.011508
DOCKED: USER    NEWDPF axisangle0 0.044055 0.333157 0.941842 178.681295
DOCKED: USER    NEWDPF quat0 0.044055 0.333157 0.941842 178.681295
DOCKED: USER    NEWDPF dihe0 35.49 141.67 129.07 134.00 -26.85 82.52 16.52 -38.56 -165.14 -149.25 -3.00 153.67 
DOCKED: USER  keepresnum = 1 
DOCKED: USER  
DOCKED: REMARK  12 active torsions:
DOCKED: REMARK  status: ('A' for Active; 'I' for Inactive)
DOCKED: REMARK    1  A    between atoms: C_6  and  C_10 
DOCKED: REMARK    2  A    between atoms: C_10  and  C_11 
DOCKED: REMARK    3  A    between atoms: C_11  and  C_12 
DOCKED: REMARK    4  A    between atoms: C_12  and  O_14 
DOCKED: REMARK    5  A    between atoms: C_17  and  C_20 
DOCKED: REMARK    6  A    between atoms: C_24  and  C_27 
DOCKED: REMARK    7  A    between atoms: C_31  and  C_34 
DOCKED: REMARK    8  A    between atoms: C_34  and  C_35 
DOCKED: REMARK    9  A    between atoms: C_35  and  C_36 
DOCKED: REMARK   10  A    between atoms: C_36  and  O_38 
DOCKED: REMARK   11  A    between atoms: FE_43  and  C_44 
DOCKED: REMARK   12  A    between atoms: C_44  and  O_45 
DOCKED: USER                              x       y       z     vdW  Elec       q    Type
DOCKED: USER                           _______ _______ _______ _____ _____    ______ ____
DOCKED: ROOT
DOCKED: ATOM      1  C   UNL d   1      21.590   3.640   4.117 -0.04 +0.04    +0.064 A 
DOCKED: ATOM      2  C   UNL d   1      20.482   8.066   5.457 -0.09 +0.03    +0.064 C 
DOCKED: ATOM      3  C   UNL d   1      15.834   6.959   5.404 -0.13 +0.02    +0.064 A 
DOCKED: ATOM      4  C   UNL d   1      16.961   2.332   4.412 -0.27 +0.02    +0.064 A 
DOCKED: ATOM      5  C   UNL d   1      21.626   4.940   4.452 -0.04 +0.05    +0.066 A 
DOCKED: ATOM      6  C   UNL d   1      22.840   5.629   4.644 -0.06 -0.01    -0.021 A 
DOCKED: ATOM      7  C   UNL d   1      22.513   6.906   5.055 -0.06 -0.01    -0.025 A 
DOCKED: ATOM      8  C   UNL d   1      21.115   6.948   5.080 -0.09 +0.05    +0.066 A 
DOCKED: ATOM      9  C   UNL d   1      23.468   8.054   5.414 -0.02 +0.02    +0.051 C 
DOCKED: ATOM     10  C   UNL d   1      19.048   8.211   5.488 -0.10 +0.03    +0.066 A 
DOCKED: ATOM     11  C   UNL d   1      18.325   9.397   5.738 -0.09 -0.01    -0.021 A 
DOCKED: ATOM     12  C   UNL d   1      16.972   9.046   5.713 -0.10 +0.00    +0.000 A 
DOCKED: ATOM     13  C   UNL d   1      16.970   7.679   5.437 -0.13 +0.02    +0.070 A 
DOCKED: ATOM     14  C   UNL d   1      18.905  10.780   5.892 -0.06 +0.01    +0.052 C 
DOCKED: ATOM     15  C   UNL d   1      15.653   5.537   5.187 -0.16 +0.02    +0.066 A 
DOCKED: ATOM     16  C   UNL d   1      14.465   4.830   5.309 -0.25 -0.01    -0.021 A 
DOCKED: ATOM     17  C   UNL d   1      14.785   3.495   5.026 -0.34 +0.00    +0.000 A 
DOCKED: ATOM     18  C   UNL d   1      16.145   3.495   4.736 -0.26 +0.02    +0.070 A 
DOCKED: ATOM     19  C   UNL d   1      13.124   5.427   5.676 -0.18 +0.02    +0.052 C 
DOCKED: ATOM     20  C   UNL d   1      18.301   2.294   4.211 -0.19 +0.02    +0.066 A 
DOCKED: ATOM     21  C   UNL d   1      18.979   1.107   3.941 -0.24 -0.01    -0.025 A 
DOCKED: ATOM     22  C   UNL d   1      20.311   1.458   3.822 -0.17 -0.01    -0.021 A 
DOCKED: ATOM     23  C   UNL d   1      20.382   2.851   4.040 -0.11 +0.03    +0.066 A 
DOCKED: ATOM     24  C   UNL d   1      18.390  -0.296   3.821 -0.22 +0.01    +0.051 C 
DOCKED: ATOM     25  N   UNL d   1      20.539   5.745   4.705 -0.05 -0.20    -0.248 N 
DOCKED: ATOM     26  N   UNL d   1      18.223   7.186   5.246 -0.09 -0.11    -0.248 N 
DOCKED: ATOM     27  N   UNL d   1      16.635   4.722   4.872 -0.12 -0.08    -0.248 N 
DOCKED: ATOM     28  N   UNL d   1      19.167   3.360   4.278 -0.08 -0.12    -0.248 N 
DOCKED: ATOM     29 FE   UNL d   1      18.472   5.200   4.792 -0.04 +0.00    +0.000 Fe
DOCKED: ENDROOT
DOCKED: BRANCH   6  30
DOCKED: ATOM     30  C   UNL d   1      24.245   5.049   4.516 -0.03 +0.02    +0.052 C 
DOCKED: BRANCH  30  31
DOCKED: ATOM     31  C   UNL d   1      24.675   5.003   3.050 -0.04 +0.04    +0.115 C 
DOCKED: BRANCH  31  32
DOCKED: ATOM     32  C   UNL d   1      23.761   5.812   2.154 -0.03 +0.13    +0.139 C 
DOCKED: ATOM     33  O   UNL d   1      23.067   5.238   1.328 +0.10 -0.78    -0.650 OA
DOCKED: BRANCH  32  34
DOCKED: ATOM     34  O   UNL d   1      23.649   7.156   2.270 -0.54 -0.85    -0.776 OA
DOCKED: ATOM     35  H   UNL d   1      24.366   7.738   2.557 +0.01 +0.10    +0.167 HD
DOCKED: ENDBRANCH  32  34
DOCKED: ENDBRANCH  31  32
DOCKED: ENDBRANCH  30  31
DOCKED: ENDBRANCH   6  30
DOCKED: BRANCH  29  36
DOCKED: ATOM     36  C   UNL d   1      18.785   4.778   6.821 -0.02 +0.05    +0.190 C 
DOCKED: BRANCH  36  37
DOCKED: ATOM     37  O   UNL d   1      19.391   3.863   7.688 +0.00 -0.08    -0.399 OA
DOCKED: ATOM     38  H   UNL d   1      20.164   3.495   7.174 +0.01 +0.04    +0.209 HD
DOCKED: ENDBRANCH  36  37
DOCKED: ENDBRANCH  29  36
DOCKED: BRANCH  22  39
DOCKED: ATOM     39  C   UNL d   1      21.456   0.493   3.578 -0.12 +0.01    +0.052 C 
DOCKED: BRANCH  39  40
DOCKED: ATOM     40  C   UNL d   1      22.265   0.274   4.868 -0.03 +0.02    +0.115 C 
DOCKED: BRANCH  40  41
DOCKED: ATOM     41  C   UNL d   1      21.486   0.516   6.143 -0.02 +0.02    +0.139 C 
DOCKED: ATOM     42  O   UNL d   1      21.027  -0.439   6.755 +0.01 -0.07    -0.650 OA
DOCKED: BRANCH  41  43
DOCKED: ATOM     43  O   UNL d   1      21.356   1.753   6.672 +0.02 -0.12    -0.776 OA
DOCKED: ATOM     44  H   UNL d   1      20.514   2.090   7.004 +0.01 +0.03    +0.167 HD
DOCKED: ENDBRANCH  41  43
DOCKED: ENDBRANCH  40  41
DOCKED: ENDBRANCH  39  40
DOCKED: ENDBRANCH  22  39
DOCKED: BRANCH  12  45
DOCKED: ATOM     45  C   UNL d   1      15.689   9.845   5.897 -0.10 +0.00    +0.004 C 
DOCKED: ATOM     46  C   UNL d   1      14.620   9.960   5.113 -0.12 +0.00    +0.012 C 
DOCKED: ENDBRANCH  12  45
DOCKED: BRANCH  17  47
DOCKED: ATOM     47  C   UNL d   1      13.921   2.278   5.065 -0.46 +0.00    +0.004 C 
DOCKED: ATOM     48  C   UNL d   1      13.122   1.973   6.091 -0.45 +0.01    +0.012 C 
DOCKED: ENDBRANCH  17  47
DOCKED: TORSDOF 12
DOCKED: TER
DOCKED: ENDMDL
________________________________________________________________________________


	BEGINNING GENETIC ALGORITHM DOCKING 67 of 100
Run: 67 Seed: 989163267 688646205 [ Run 67 of 100 GA/GALS ]
Beginning LAMARCKIAN GENETIC ALGORITHM (LGA), with a maximum of 25000000 energy evaluations.

Final-Value: -8.812


	FINAL GENETIC ALGORITHM DOCKED STATE
	_______________________________________________


Detailed state:  trans -11.278 -18.374 -7.043 quatxyzw -0.368192 0.157319 -0.822576 0.403800 center 8.781 34.984 -0.736 ntor 12 113.9246 111.9596 -15.3071 -1.7376 -90.3574 92.0275 -11.1109 152.6657 67.2720 167.1752 17.0599 14.6096
State:	-11.278 -18.374  -7.043  -0.402  0.172 -0.899 132.368    113.92  111.96  -15.31   -1.74  -90.36   92.03  -11.11  152.67   67.27  167.18   17.06   14.61

DOCKED: MODEL       67
DOCKED: USER    Run = 67
DOCKED: USER    DPF = D:/Protein_go_brrr/autodock/final/mut_Y35F/heme_Co/dock.dpf
DOCKED: USER  
DOCKED: USER    Estimated Free Energy of Binding    =   -3.27 kcal/mol  [=(1)+(2)+(3)-(4)]
DOCKED: USER    Estimated Inhibition Constant, Ki   =    4.00 mM (millimolar)  [Temperature = 298.15 K]
DOCKED: USER    
DOCKED: USER    (1) Final Intermolecular Energy     =   -6.85 kcal/mol
DOCKED: USER        vdW + Hbond + desolv Energy     =   -6.35 kcal/mol
DOCKED: USER        Electrostatic Energy            =   -0.50 kcal/mol
DOCKED: USER    (2) Final Total Internal Energy     =   -1.96 kcal/mol
DOCKED: USER    (3) Torsional Free Energy           =   +3.58 kcal/mol
DOCKED: USER    (4) Unbound System's Energy  [=(2)] =   -1.96 kcal/mol
DOCKED: USER    
DOCKED: USER    
DOCKED: USER    NEWDPF move heme_Co_opt.pdbqt
DOCKED: USER    NEWDPF about 8.781000 34.984000 -0.736000
DOCKED: USER    NEWDPF tran0 -11.277856 -18.373521 -7.043486
DOCKED: USER    NEWDPF quaternion0 -0.368192 0.157319 -0.822576 0.403800
DOCKED: USER    NEWDPF axisangle0 -0.402463 0.171962 -0.899140 132.368133
DOCKED: USER    NEWDPF quat0 -0.402463 0.171962 -0.899140 132.368133
DOCKED: USER    NEWDPF dihe0 113.92 111.96 -15.31 -1.74 -90.36 92.03 -11.11 152.67 67.27 167.18 17.06 14.61 
DOCKED: USER  keepresnum = 1 
DOCKED: USER  
DOCKED: REMARK  12 active torsions:
DOCKED: REMARK  status: ('A' for Active; 'I' for Inactive)
DOCKED: REMARK    1  A    between atoms: C_6  and  C_10 
DOCKED: REMARK    2  A    between atoms: C_10  and  C_11 
DOCKED: REMARK    3  A    between atoms: C_11  and  C_12 
DOCKED: REMARK    4  A    between atoms: C_12  and  O_14 
DOCKED: REMARK    5  A    between atoms: C_17  and  C_20 
DOCKED: REMARK    6  A    between atoms: C_24  and  C_27 
DOCKED: REMARK    7  A    between atoms: C_31  and  C_34 
DOCKED: REMARK    8  A    between atoms: C_34  and  C_35 
DOCKED: REMARK    9  A    between atoms: C_35  and  C_36 
DOCKED: REMARK   10  A    between atoms: C_36  and  O_38 
DOCKED: REMARK   11  A    between atoms: FE_43  and  C_44 
DOCKED: REMARK   12  A    between atoms: C_44  and  O_45 
DOCKED: USER                              x       y       z     vdW  Elec       q    Type
DOCKED: USER                           _______ _______ _______ _____ _____    ______ ____
DOCKED: ROOT
DOCKED: ATOM      1  C   UNL d   1     -11.295 -19.274  -9.020 -0.07 +0.00    +0.064 A 
DOCKED: ATOM      2  C   UNL d   1      -7.939 -19.000  -5.662 -0.26 -0.01    +0.064 C 
DOCKED: ATOM      3  C   UNL d   1     -10.779 -16.233  -2.996 +0.00 +0.00    +0.064 A 
DOCKED: ATOM      4  C   UNL d   1     -14.363 -16.815  -6.233 -0.17 +0.01    +0.064 A 
DOCKED: ATOM      5  C   UNL d   1     -10.156 -19.372  -8.315 -0.11 +0.00    +0.066 A 
DOCKED: ATOM      6  C   UNL d   1      -9.080 -20.176  -8.740 -0.16 +0.00    -0.021 A 
DOCKED: ATOM      7  C   UNL d   1      -8.119 -20.111  -7.751 -0.22 +0.00    -0.025 A 
DOCKED: ATOM      8  C   UNL d   1      -8.641 -19.258  -6.773 -0.23 -0.00    +0.066 A 
DOCKED: ATOM      9  C   UNL d   1      -6.756 -20.820  -7.713 -0.23 -0.00    +0.051 C 
DOCKED: ATOM     10  C   UNL d   1      -8.383 -18.114  -4.614 -0.24 -0.01    +0.066 A 
DOCKED: ATOM     11  C   UNL d   1      -7.635 -17.693  -3.493 -0.28 +0.00    -0.021 A 
DOCKED: ATOM     12  C   UNL d   1      -8.486 -16.884  -2.735 -0.29 -0.00    +0.000 A 
DOCKED: ATOM     13  C   UNL d   1      -9.682 -16.862  -3.454 -0.21 -0.00    +0.070 A 
DOCKED: ATOM     14  C   UNL d   1      -6.178 -17.977  -3.234 -0.29 -0.01    +0.052 C 
DOCKED: ATOM     15  C   UNL d   1     -12.104 -16.153  -3.579 -0.22 +0.00    +0.066 A 
DOCKED: ATOM     16  C   UNL d   1     -13.233 -15.609  -2.985 -0.25 -0.00    -0.021 A 
DOCKED: ATOM     17  C   UNL d   1     -14.270 -15.777  -3.913 -0.20 +0.00    +0.000 A 
DOCKED: ATOM     18  C   UNL d   1     -13.685 -16.397  -5.013 -0.19 +0.01    +0.070 A 
DOCKED: ATOM     19  C   UNL d   1     -13.284 -14.978  -1.611 -0.28 -0.00    +0.052 C 
DOCKED: ATOM     20  C   UNL d   1     -13.834 -17.496  -7.278 -0.13 +0.01    +0.066 A 
DOCKED: ATOM     21  C   UNL d   1     -14.596 -17.874  -8.381 -0.07 -0.00    -0.025 A 
DOCKED: ATOM     22  C   UNL d   1     -13.731 -18.559  -9.215 -0.06 -0.00    -0.021 A 
DOCKED: ATOM     23  C   UNL d   1     -12.477 -18.576  -8.568 -0.07 +0.01    +0.066 A 
DOCKED: ATOM     24  C   UNL d   1     -16.080 -17.613  -8.622 -0.05 +0.00    +0.051 C 
DOCKED: ATOM     25  N   UNL d   1      -9.899 -18.780  -7.099 -0.07 +0.00    -0.248 N 
DOCKED: ATOM     26  N   UNL d   1      -9.599 -17.560  -4.618 -0.17 +0.02    -0.248 N 
DOCKED: ATOM     27  N   UNL d   1     -12.401 -16.632  -4.766 -0.14 -0.04    -0.248 N 
DOCKED: ATOM     28  N   UNL d   1     -12.536 -17.935  -7.394 -0.05 -0.03    -0.248 N 
DOCKED: ATOM     29 FE   UNL d   1     -11.227 -17.643  -5.866 -0.05 +0.00    +0.000 Fe
DOCKED: ENDROOT
DOCKED: BRANCH   6  30
DOCKED: ATOM     30  C   UNL d   1      -9.027 -21.029 -10.003 -0.11 +0.00    +0.052 C 
DOCKED: BRANCH  30  31
DOCKED: ATOM     31  C   UNL d   1      -8.215 -20.327 -11.091 -0.16 +0.02    +0.115 C 
DOCKED: BRANCH  31  32
DOCKED: ATOM     32  C   UNL d   1      -9.060 -19.947 -12.288 -0.14 +0.04    +0.139 C 
DOCKED: ATOM     33  O   UNL d   1      -8.599 -20.069 -13.413 -0.05 -0.32    -0.650 OA
DOCKED: BRANCH  32  34
DOCKED: ATOM     34  O   UNL d   1     -10.337 -19.519 -12.157 +0.04 -0.11    -0.776 OA
DOCKED: ATOM     35  H   UNL d   1     -10.626 -18.610 -12.319 +0.04 +0.02    +0.167 HD
DOCKED: ENDBRANCH  32  34
DOCKED: ENDBRANCH  31  32
DOCKED: ENDBRANCH  30  31
DOCKED: ENDBRANCH   6  30
DOCKED: BRANCH  29  36
DOCKED: ATOM     36  C   UNL d   1     -11.798 -19.463  -4.997 -0.04 +0.00    +0.190 C 
DOCKED: BRANCH  36  37
DOCKED: ATOM     37  O   UNL d   1     -12.398 -20.694  -5.282 +0.00 -0.00    -0.399 OA
DOCKED: ATOM     38  H   UNL d   1     -12.637 -20.645  -6.249 +0.01 +0.00    +0.209 HD
DOCKED: ENDBRANCH  36  37
DOCKED: ENDBRANCH  29  36
DOCKED: BRANCH  22  39
DOCKED: ATOM     39  C   UNL d   1     -14.111 -19.216 -10.529 -0.02 +0.00    +0.052 C 
DOCKED: BRANCH  39  40
DOCKED: ATOM     40  C   UNL d   1     -13.380 -18.545 -11.703 -0.03 +0.01    +0.115 C 
DOCKED: BRANCH  40  41
DOCKED: ATOM     41  C   UNL d   1     -12.828 -17.170 -11.390 -0.09 +0.01    +0.139 C 
DOCKED: ATOM     42  O   UNL d   1     -13.602 -16.240 -11.213 +0.00 -0.07    -0.650 OA
DOCKED: BRANCH  41  43
DOCKED: ATOM     43  O   UNL d   1     -11.504 -16.958 -11.216 +0.04 -0.08    -0.776 OA
DOCKED: ATOM     44  H   UNL d   1     -10.866 -17.681 -11.157 +0.05 +0.01    +0.167 HD
DOCKED: ENDBRANCH  41  43
DOCKED: ENDBRANCH  40  41
DOCKED: ENDBRANCH  39  40
DOCKED: ENDBRANCH  22  39
DOCKED: BRANCH  12  45
DOCKED: ATOM     45  C   UNL d   1      -8.302 -16.119  -1.431 -0.45 -0.00    +0.004 C 
DOCKED: ATOM     46  C   UNL d   1      -7.314 -16.148  -0.541 -0.45 -0.00    +0.012 C 
DOCKED: ENDBRANCH  12  45
DOCKED: BRANCH  17  47
DOCKED: ATOM     47  C   UNL d   1     -15.721 -15.442  -3.795 -0.15 +0.00    +0.004 C 
DOCKED: ATOM     48  C   UNL d   1     -16.688 -16.361  -3.740 -0.08 -0.00    +0.012 C 
DOCKED: ENDBRANCH  17  47
DOCKED: TORSDOF 12
DOCKED: TER
DOCKED: ENDMDL
________________________________________________________________________________


	BEGINNING GENETIC ALGORITHM DOCKING 68 of 100
Run: 68 Seed: 1386194058 594880667 [ Run 68 of 100 GA/GALS ]
Beginning LAMARCKIAN GENETIC ALGORITHM (LGA), with a maximum of 25000000 energy evaluations.

Final-Value: -11.071


	FINAL GENETIC ALGORITHM DOCKED STATE
	_______________________________________________


Detailed state:  trans 13.930 5.681 9.316 quatxyzw 0.746141 -0.645296 -0.163319 0.013938 center 8.781 34.984 -0.736 ntor 12 150.2047 105.2120 -68.0871 136.3085 -55.9367 117.0567 -117.6269 -30.3545 -128.5780 -155.5933 178.9562 157.2635
State:	 13.930   5.681   9.316   0.746 -0.645 -0.163 178.403    150.20  105.21  -68.09  136.31  -55.94  117.06 -117.63  -30.35 -128.58 -155.59  178.96  157.26

DOCKED: MODEL       68
DOCKED: USER    Run = 68
DOCKED: USER    DPF = D:/Protein_go_brrr/autodock/final/mut_Y35F/heme_Co/dock.dpf
DOCKED: USER  
DOCKED: USER    Estimated Free Energy of Binding    =   -3.38 kcal/mol  [=(1)+(2)+(3)-(4)]
DOCKED: USER    Estimated Inhibition Constant, Ki   =    3.35 mM (millimolar)  [Temperature = 298.15 K]
DOCKED: USER    
DOCKED: USER    (1) Final Intermolecular Energy     =   -6.96 kcal/mol
DOCKED: USER        vdW + Hbond + desolv Energy     =   -4.73 kcal/mol
DOCKED: USER        Electrostatic Energy            =   -2.23 kcal/mol
DOCKED: USER    (2) Final Total Internal Energy     =   -4.11 kcal/mol
DOCKED: USER    (3) Torsional Free Energy           =   +3.58 kcal/mol
DOCKED: USER    (4) Unbound System's Energy  [=(2)] =   -4.11 kcal/mol
DOCKED: USER    
DOCKED: USER    
DOCKED: USER    NEWDPF move heme_Co_opt.pdbqt
DOCKED: USER    NEWDPF about 8.781000 34.984000 -0.736000
DOCKED: USER    NEWDPF tran0 13.930398 5.681450 9.315611
DOCKED: USER    NEWDPF quaternion0 0.746141 -0.645296 -0.163319 0.013938
DOCKED: USER    NEWDPF axisangle0 0.746213 -0.645358 -0.163335 178.402774
DOCKED: USER    NEWDPF quat0 0.746213 -0.645358 -0.163335 178.402774
DOCKED: USER    NEWDPF dihe0 150.20 105.21 -68.09 136.31 -55.94 117.06 -117.63 -30.35 -128.58 -155.59 178.96 157.26 
DOCKED: USER  keepresnum = 1 
DOCKED: USER  
DOCKED: REMARK  12 active torsions:
DOCKED: REMARK  status: ('A' for Active; 'I' for Inactive)
DOCKED: REMARK    1  A    between atoms: C_6  and  C_10 
DOCKED: REMARK    2  A    between atoms: C_10  and  C_11 
DOCKED: REMARK    3  A    between atoms: C_11  and  C_12 
DOCKED: REMARK    4  A    between atoms: C_12  and  O_14 
DOCKED: REMARK    5  A    between atoms: C_17  and  C_20 
DOCKED: REMARK    6  A    between atoms: C_24  and  C_27 
DOCKED: REMARK    7  A    between atoms: C_31  and  C_34 
DOCKED: REMARK    8  A    between atoms: C_34  and  C_35 
DOCKED: REMARK    9  A    between atoms: C_35  and  C_36 
DOCKED: REMARK   10  A    between atoms: C_36  and  O_38 
DOCKED: REMARK   11  A    between atoms: FE_43  and  C_44 
DOCKED: REMARK   12  A    between atoms: C_44  and  O_45 
DOCKED: USER                              x       y       z     vdW  Elec       q    Type
DOCKED: USER                           _______ _______ _______ _____ _____    ______ ____
DOCKED: ROOT
DOCKED: ATOM      1  C   UNL d   1      13.419   7.256  10.721 -0.02 +0.03    +0.064 A 
DOCKED: ATOM      2  C   UNL d   1      15.293   7.358   6.352 -0.08 +0.02    +0.064 C 
DOCKED: ATOM      3  C   UNL d   1      15.492   2.585   6.285 -0.13 +0.02    +0.064 A 
DOCKED: ATOM      4  C   UNL d   1      13.224   2.443  10.586 -0.07 +0.06    +0.064 A 
DOCKED: ATOM      5  C   UNL d   1      13.950   7.635   9.547 -0.00 +0.02    +0.066 A 
DOCKED: ATOM      6  C   UNL d   1      14.005   8.987   9.154 -0.01 -0.01    -0.021 A 
DOCKED: ATOM      7  C   UNL d   1      14.528   9.009   7.876 -0.01 -0.01    -0.025 A 
DOCKED: ATOM      8  C   UNL d   1      14.786   7.673   7.551 -0.01 +0.02    +0.066 A 
DOCKED: ATOM      9  C   UNL d   1      14.782  10.232   6.982 -0.04 +0.01    +0.051 C 
DOCKED: ATOM     10  C   UNL d   1      15.615   6.015   5.939 -0.09 +0.02    +0.066 A 
DOCKED: ATOM     11  C   UNL d   1      16.278   5.633   4.752 -0.23 -0.01    -0.021 A 
DOCKED: ATOM     12  C   UNL d   1      16.326   4.236   4.760 -0.26 +0.00    +0.000 A 
DOCKED: ATOM     13  C   UNL d   1      15.702   3.871   5.954 -0.11 +0.02    +0.070 A 
DOCKED: ATOM     14  C   UNL d   1      16.900   6.560   3.740 -0.34 +0.02    +0.052 C 
DOCKED: ATOM     15  C   UNL d   1      14.822   2.032   7.446 -0.11 +0.02    +0.066 A 
DOCKED: ATOM     16  C   UNL d   1      14.510   0.696   7.657 -0.15 -0.01    -0.021 A 
DOCKED: ATOM     17  C   UNL d   1      13.853   0.650   8.895 -0.13 +0.00    +0.000 A 
DOCKED: ATOM     18  C   UNL d   1      13.832   1.964   9.351 -0.10 +0.04    +0.070 A 
DOCKED: ATOM     19  C   UNL d   1      14.832  -0.440   6.713 -0.17 +0.01    +0.052 C 
DOCKED: ATOM     20  C   UNL d   1      13.115   3.725  11.009 -0.03 +0.07    +0.066 A 
DOCKED: ATOM     21  C   UNL d   1      12.476   4.064  12.199 -0.06 -0.02    -0.025 A 
DOCKED: ATOM     22  C   UNL d   1      12.542   5.443  12.279 -0.05 -0.01    -0.021 A 
DOCKED: ATOM     23  C   UNL d   1      13.213   5.881  11.118 -0.04 +0.05    +0.066 A 
DOCKED: ATOM     24  C   UNL d   1      11.816   3.122  13.203 -0.06 +0.03    +0.051 C 
DOCKED: ATOM     25  N   UNL d   1      14.443   6.800   8.570 +0.00 -0.09    -0.248 N 
DOCKED: ATOM     26  N   UNL d   1      15.323   4.948   6.691 -0.03 -0.08    -0.248 N 
DOCKED: ATOM     27  N   UNL d   1      14.390   2.763   8.448 -0.05 -0.13    -0.248 N 
DOCKED: ATOM     28  N   UNL d   1      13.559   4.845  10.345 -0.05 -0.22    -0.248 N 
DOCKED: ATOM     29 FE   UNL d   1      14.414   4.662   8.509 -0.01 +0.00    +0.000 Fe
DOCKED: ENDROOT
DOCKED: BRANCH   6  30
DOCKED: ATOM     30  C   UNL d   1      13.497  10.186   9.947 -0.02 +0.01    +0.052 C 
DOCKED: BRANCH  30  31
DOCKED: ATOM     31  C   UNL d   1      12.095  10.582   9.484 -0.09 +0.03    +0.115 C 
DOCKED: BRANCH  31  32
DOCKED: ATOM     32  C   UNL d   1      11.152   9.399   9.423 -0.12 +0.05    +0.139 C 
DOCKED: ATOM     33  O   UNL d   1      10.212   9.340  10.203 +0.00 -0.25    -0.650 OA
DOCKED: BRANCH  32  34
DOCKED: ATOM     34  O   UNL d   1      11.286   8.421   8.498 +0.05 -0.34    -0.776 OA
DOCKED: ATOM     35  H   UNL d   1      11.077   7.490   8.656 +0.04 +0.12    +0.167 HD
DOCKED: ENDBRANCH  32  34
DOCKED: ENDBRANCH  31  32
DOCKED: ENDBRANCH  30  31
DOCKED: ENDBRANCH   6  30
DOCKED: BRANCH  29  36
DOCKED: ATOM     36  C   UNL d   1      12.535   4.826   7.593 -0.13 +0.22    +0.190 C 
DOCKED: BRANCH  36  37
DOCKED: ATOM     37  O   UNL d   1      11.351   5.569   7.605 -0.49 -0.63    -0.399 OA
DOCKED: ATOM     38  H   UNL d   1      11.432   6.168   8.399 +0.04 +0.31    +0.209 HD
DOCKED: ENDBRANCH  36  37
DOCKED: ENDBRANCH  29  36
DOCKED: BRANCH  22  39
DOCKED: ATOM     39  C   UNL d   1      11.934   6.291  13.381 -0.02 +0.02    +0.052 C 
DOCKED: BRANCH  39  40
DOCKED: ATOM     40  C   UNL d   1      10.614   6.924  12.912 -0.06 +0.06    +0.115 C 
DOCKED: BRANCH  40  41
DOCKED: ATOM     41  C   UNL d   1       9.990   6.250  11.708 -0.06 +0.16    +0.139 C 
DOCKED: ATOM     42  O   UNL d   1       8.981   5.575  11.856 -0.52 -0.81    -0.650 OA
DOCKED: BRANCH  41  43
DOCKED: ATOM     43  O   UNL d   1      10.467   6.445  10.459 +0.07 -1.22    -0.776 OA
DOCKED: ATOM     44  H   UNL d   1      10.479   7.313  10.037 +0.03 +0.15    +0.167 HD
DOCKED: ENDBRANCH  41  43
DOCKED: ENDBRANCH  40  41
DOCKED: ENDBRANCH  39  40
DOCKED: ENDBRANCH  22  39
DOCKED: BRANCH  12  45
DOCKED: ATOM     45  C   UNL d   1      16.903   3.211   3.793 -0.36 +0.00    +0.004 C 
DOCKED: ATOM     46  C   UNL d   1      17.739   2.198   4.002 -0.30 +0.00    +0.012 C 
DOCKED: ENDBRANCH  12  45
DOCKED: BRANCH  17  47
DOCKED: ATOM     47  C   UNL d   1      13.234  -0.509   9.605 -0.14 +0.00    +0.004 C 
DOCKED: ATOM     48  C   UNL d   1      12.047  -1.025   9.277 -0.21 +0.00    +0.012 C 
DOCKED: ENDBRANCH  17  47
DOCKED: TORSDOF 12
DOCKED: TER
DOCKED: ENDMDL
________________________________________________________________________________


	BEGINNING GENETIC ALGORITHM DOCKING 69 of 100
Run: 69 Seed: 703478203 767830766 [ Run 69 of 100 GA/GALS ]
Beginning LAMARCKIAN GENETIC ALGORITHM (LGA), with a maximum of 25000000 energy evaluations.

Final-Value: -9.646


	FINAL GENETIC ALGORITHM DOCKED STATE
	_______________________________________________


Detailed state:  trans -4.801 -15.418 -15.832 quatxyzw -0.575809 -0.388535 0.186701 -0.694713 center 8.781 34.984 -0.736 ntor 12 127.9727 109.0838 71.3491 -50.0225 105.4226 142.0293 -67.8058 -32.2236 54.2944 -29.6513 31.5344 -0.2883
State:	 -4.801 -15.418 -15.832  -0.801 -0.540  0.260 -91.991    127.97  109.08   71.35  -50.02  105.42  142.03  -67.81  -32.22   54.29  -29.65   31.53   -0.29

DOCKED: MODEL       69
DOCKED: USER    Run = 69
DOCKED: USER    DPF = D:/Protein_go_brrr/autodock/final/mut_Y35F/heme_Co/dock.dpf
DOCKED: USER  
DOCKED: USER    Estimated Free Energy of Binding    =   -4.49 kcal/mol  [=(1)+(2)+(3)-(4)]
DOCKED: USER    Estimated Inhibition Constant, Ki   =  507.34 uM (micromolar)  [Temperature = 298.15 K]
DOCKED: USER    
DOCKED: USER    (1) Final Intermolecular Energy     =   -8.07 kcal/mol
DOCKED: USER        vdW + Hbond + desolv Energy     =   -6.06 kcal/mol
DOCKED: USER        Electrostatic Energy            =   -2.02 kcal/mol
DOCKED: USER    (2) Final Total Internal Energy     =   -1.57 kcal/mol
DOCKED: USER    (3) Torsional Free Energy           =   +3.58 kcal/mol
DOCKED: USER    (4) Unbound System's Energy  [=(2)] =   -1.57 kcal/mol
DOCKED: USER    
DOCKED: USER    
DOCKED: USER    NEWDPF move heme_Co_opt.pdbqt
DOCKED: USER    NEWDPF about 8.781000 34.984000 -0.736000
DOCKED: USER    NEWDPF tran0 -4.801012 -15.418080 -15.831869
DOCKED: USER    NEWDPF quaternion0 -0.575809 -0.388535 0.186701 -0.694713
DOCKED: USER    NEWDPF axisangle0 -0.800528 -0.540168 0.259564 -91.991278
DOCKED: USER    NEWDPF quat0 -0.800528 -0.540168 0.259564 -91.991278
DOCKED: USER    NEWDPF dihe0 127.97 109.08 71.35 -50.02 105.42 142.03 -67.81 -32.22 54.29 -29.65 31.53 -0.29 
DOCKED: USER  keepresnum = 1 
DOCKED: USER  
DOCKED: REMARK  12 active torsions:
DOCKED: REMARK  status: ('A' for Active; 'I' for Inactive)
DOCKED: REMARK    1  A    between atoms: C_6  and  C_10 
DOCKED: REMARK    2  A    between atoms: C_10  and  C_11 
DOCKED: REMARK    3  A    between atoms: C_11  and  C_12 
DOCKED: REMARK    4  A    between atoms: C_12  and  O_14 
DOCKED: REMARK    5  A    between atoms: C_17  and  C_20 
DOCKED: REMARK    6  A    between atoms: C_24  and  C_27 
DOCKED: REMARK    7  A    between atoms: C_31  and  C_34 
DOCKED: REMARK    8  A    between atoms: C_34  and  C_35 
DOCKED: REMARK    9  A    between atoms: C_35  and  C_36 
DOCKED: REMARK   10  A    between atoms: C_36  and  O_38 
DOCKED: REMARK   11  A    between atoms: FE_43  and  C_44 
DOCKED: REMARK   12  A    between atoms: C_44  and  O_45 
DOCKED: USER                              x       y       z     vdW  Elec       q    Type
DOCKED: USER                           _______ _______ _______ _____ _____    ______ ____
DOCKED: ROOT
DOCKED: ATOM      1  C   UNL d   1      -5.281 -17.209 -16.962 +0.03 +0.04    +0.064 A 
DOCKED: ATOM      2  C   UNL d   1      -7.810 -14.584 -13.908 -0.17 +0.00    +0.064 C 
DOCKED: ATOM      3  C   UNL d   1      -3.978 -11.876 -13.006 -0.24 -0.01    +0.064 A 
DOCKED: ATOM      4  C   UNL d   1      -1.481 -14.299 -16.405 -0.02 +0.00    +0.064 A 
DOCKED: ATOM      5  C   UNL d   1      -6.244 -16.713 -16.167 -0.10 +0.03    +0.066 A 
DOCKED: ATOM      6  C   UNL d   1      -7.563 -17.205 -16.195 -0.10 -0.01    -0.021 A 
DOCKED: ATOM      7  C   UNL d   1      -8.298 -16.425 -15.324 -0.10 -0.01    -0.025 A 
DOCKED: ATOM      8  C   UNL d   1      -7.393 -15.502 -14.789 -0.13 +0.01    +0.066 A 
DOCKED: ATOM      9  C   UNL d   1      -9.795 -16.531 -14.997 -0.06 +0.01    +0.051 C 
DOCKED: ATOM     10  C   UNL d   1      -6.947 -13.611 -13.286 -0.21 -0.00    +0.066 A 
DOCKED: ATOM     11  C   UNL d   1      -7.293 -12.715 -12.252 -0.32 +0.00    -0.021 A 
DOCKED: ATOM     12  C   UNL d   1      -6.156 -11.940 -12.005 -0.35 -0.00    +0.000 A 
DOCKED: ATOM     13  C   UNL d   1      -5.200 -12.428 -12.896 -0.22 -0.01    +0.070 A 
DOCKED: ATOM     14  C   UNL d   1      -8.598 -12.683 -11.498 -0.25 -0.01    +0.052 C 
DOCKED: ATOM     15  C   UNL d   1      -2.892 -12.217 -13.903 -0.17 -0.00    +0.066 A 
DOCKED: ATOM     16  C   UNL d   1      -1.707 -11.513 -14.066 -0.19 +0.00    -0.021 A 
DOCKED: ATOM     17  C   UNL d   1      -0.985 -12.207 -15.047 -0.10 -0.00    +0.000 A 
DOCKED: ATOM     18  C   UNL d   1      -1.781 -13.293 -15.394 -0.06 +0.00    +0.070 A 
DOCKED: ATOM     19  C   UNL d   1      -1.322 -10.258 -13.315 -0.30 -0.00    +0.052 C 
DOCKED: ATOM     20  C   UNL d   1      -2.277 -15.313 -16.820 -0.03 +0.01    +0.066 A 
DOCKED: ATOM     21  C   UNL d   1      -1.892 -16.196 -17.827 -0.02 -0.00    -0.025 A 
DOCKED: ATOM     22  C   UNL d   1      -2.956 -17.064 -17.989 -0.05 -0.01    -0.021 A 
DOCKED: ATOM     23  C   UNL d   1      -3.951 -16.657 -17.074 -0.08 +0.02    +0.066 A 
DOCKED: ATOM     24  C   UNL d   1      -0.582 -16.200 -18.611 -0.00 +0.00    +0.051 C 
DOCKED: ATOM     25  N   UNL d   1      -6.111 -15.661 -15.289 -0.10 -0.06    -0.248 N 
DOCKED: ATOM     26  N   UNL d   1      -5.661 -13.475 -13.630 -0.13 +0.00    -0.248 N 
DOCKED: ATOM     27  N   UNL d   1      -2.922 -13.250 -14.715 -0.07 -0.01    -0.248 N 
DOCKED: ATOM     28  N   UNL d   1      -3.544 -15.596 -16.367 -0.05 -0.06    -0.248 N 
DOCKED: ATOM     29 FE   UNL d   1      -4.420 -14.386 -14.987 -0.03 +0.00    +0.000 Fe
DOCKED: ENDROOT
DOCKED: BRANCH   6  30
DOCKED: ATOM     30  C   UNL d   1      -8.099 -18.322 -17.085 -0.08 +0.02    +0.052 C 
DOCKED: BRANCH  30  31
DOCKED: ATOM     31  C   UNL d   1      -8.551 -19.513 -16.239 -0.09 +0.07    +0.115 C 
DOCKED: BRANCH  31  32
DOCKED: ATOM     32  C   UNL d   1      -7.929 -20.814 -16.697 -0.05 +0.14    +0.139 C 
DOCKED: ATOM     33  O   UNL d   1      -7.934 -21.779 -15.948 -0.45 -0.79    -0.650 OA
DOCKED: BRANCH  32  34
DOCKED: ATOM     34  O   UNL d   1      -7.406 -20.963 -17.937 -0.02 -0.68    -0.776 OA
DOCKED: ATOM     35  H   UNL d   1      -6.496 -21.240 -18.114 -0.00 +0.21    +0.167 HD
DOCKED: ENDBRANCH  32  34
DOCKED: ENDBRANCH  31  32
DOCKED: ENDBRANCH  30  31
DOCKED: ENDBRANCH   6  30
DOCKED: BRANCH  29  36
DOCKED: ATOM     36  C   UNL d   1      -5.202 -13.177 -16.511 -0.02 +0.01    +0.190 C 
DOCKED: BRANCH  36  37
DOCKED: ATOM     37  O   UNL d   1      -6.158 -13.149 -17.531 +0.00 -0.02    -0.399 OA
DOCKED: ATOM     38  H   UNL d   1      -6.559 -14.062 -17.532 +0.01 +0.02    +0.209 HD
DOCKED: ENDBRANCH  36  37
DOCKED: ENDBRANCH  29  36
DOCKED: BRANCH  22  39
DOCKED: ATOM     39  C   UNL d   1      -3.033 -18.180 -19.014 -0.04 +0.02    +0.052 C 
DOCKED: BRANCH  39  40
DOCKED: ATOM     40  C   UNL d   1      -2.731 -19.539 -18.360 -0.06 +0.07    +0.115 C 
DOCKED: BRANCH  40  41
DOCKED: ATOM     41  C   UNL d   1      -3.526 -20.696 -18.928 -0.04 +0.11    +0.139 C 
DOCKED: ATOM     42  O   UNL d   1      -2.969 -21.504 -19.658 -0.01 -0.29    -0.650 OA
DOCKED: BRANCH  41  43
DOCKED: ATOM     43  O   UNL d   1      -4.815 -20.910 -18.581 -0.55 -1.01    -0.776 OA
DOCKED: ATOM     44  H   UNL d   1      -5.544 -20.394 -18.947 +0.00 +0.15    +0.167 HD
DOCKED: ENDBRANCH  41  43
DOCKED: ENDBRANCH  40  41
DOCKED: ENDBRANCH  39  40
DOCKED: ENDBRANCH  22  39
DOCKED: BRANCH  12  45
DOCKED: ATOM     45  C   UNL d   1      -5.860 -10.814 -11.024 -0.33 -0.00    +0.004 C 
DOCKED: ATOM     46  C   UNL d   1      -6.449  -9.633 -10.857 -0.44 -0.00    +0.012 C 
DOCKED: ENDBRANCH  12  45
DOCKED: BRANCH  17  47
DOCKED: ATOM     47  C   UNL d   1       0.331 -11.879 -15.674 -0.10 +0.00    +0.004 C 
DOCKED: ATOM     48  C   UNL d   1       1.507 -12.197 -15.128 -0.16 -0.00    +0.012 C 
DOCKED: ENDBRANCH  17  47
DOCKED: TORSDOF 12
DOCKED: TER
DOCKED: ENDMDL
________________________________________________________________________________


	BEGINNING GENETIC ALGORITHM DOCKING 70 of 100
Run: 70 Seed: 17149996 1315661702 [ Run 70 of 100 GA/GALS ]
Beginning LAMARCKIAN GENETIC ALGORITHM (LGA), with a maximum of 25000000 energy evaluations.

Final-Value: -9.671


	FINAL GENETIC ALGORITHM DOCKED STATE
	_______________________________________________


Detailed state:  trans 10.956 13.812 -10.360 quatxyzw 0.403801 0.883383 0.151619 0.183278 center 8.781 34.984 -0.736 ntor 12 111.6940 100.4356 -94.0563 101.3278 -99.4445 115.3683 -125.9340 -45.2066 -116.7711 -132.5318 167.3571 133.7389
State:	 10.956  13.812 -10.360   0.411  0.899  0.154 158.878    111.69  100.44  -94.06  101.33  -99.44  115.37 -125.93  -45.21 -116.77 -132.53  167.36  133.74

DOCKED: MODEL       70
DOCKED: USER    Run = 70
DOCKED: USER    DPF = D:/Protein_go_brrr/autodock/final/mut_Y35F/heme_Co/dock.dpf
DOCKED: USER  
DOCKED: USER    Estimated Free Energy of Binding    =   -2.56 kcal/mol  [=(1)+(2)+(3)-(4)]
DOCKED: USER    Estimated Inhibition Constant, Ki   =   13.23 mM (millimolar)  [Temperature = 298.15 K]
DOCKED: USER    
DOCKED: USER    (1) Final Intermolecular Energy     =   -6.14 kcal/mol
DOCKED: USER        vdW + Hbond + desolv Energy     =   -6.40 kcal/mol
DOCKED: USER        Electrostatic Energy            =   +0.26 kcal/mol
DOCKED: USER    (2) Final Total Internal Energy     =   -3.53 kcal/mol
DOCKED: USER    (3) Torsional Free Energy           =   +3.58 kcal/mol
DOCKED: USER    (4) Unbound System's Energy  [=(2)] =   -3.53 kcal/mol
DOCKED: USER    
DOCKED: USER    
DOCKED: USER    NEWDPF move heme_Co_opt.pdbqt
DOCKED: USER    NEWDPF about 8.781000 34.984000 -0.736000
DOCKED: USER    NEWDPF tran0 10.955791 13.811770 -10.359734
DOCKED: USER    NEWDPF quaternion0 0.403801 0.883383 0.151619 0.183278
DOCKED: USER    NEWDPF axisangle0 0.410759 0.898604 0.154232 158.878449
DOCKED: USER    NEWDPF quat0 0.410759 0.898604 0.154232 158.878449
DOCKED: USER    NEWDPF dihe0 111.69 100.44 -94.06 101.33 -99.44 115.37 -125.93 -45.21 -116.77 -132.53 167.36 133.74 
DOCKED: USER  keepresnum = 1 
DOCKED: USER  
DOCKED: REMARK  12 active torsions:
DOCKED: REMARK  status: ('A' for Active; 'I' for Inactive)
DOCKED: REMARK    1  A    between atoms: C_6  and  C_10 
DOCKED: REMARK    2  A    between atoms: C_10  and  C_11 
DOCKED: REMARK    3  A    between atoms: C_11  and  C_12 
DOCKED: REMARK    4  A    between atoms: C_12  and  O_14 
DOCKED: REMARK    5  A    between atoms: C_17  and  C_20 
DOCKED: REMARK    6  A    between atoms: C_24  and  C_27 
DOCKED: REMARK    7  A    between atoms: C_31  and  C_34 
DOCKED: REMARK    8  A    between atoms: C_34  and  C_35 
DOCKED: REMARK    9  A    between atoms: C_35  and  C_36 
DOCKED: REMARK   10  A    between atoms: C_36  and  O_38 
DOCKED: REMARK   11  A    between atoms: FE_43  and  C_44 
DOCKED: REMARK   12  A    between atoms: C_44  and  O_45 
DOCKED: USER                              x       y       z     vdW  Elec       q    Type
DOCKED: USER                           _______ _______ _______ _____ _____    ______ ____
DOCKED: ROOT
DOCKED: ATOM      1  C   UNL d   1      12.685  12.499 -10.410 -0.09 -0.02    +0.064 A 
DOCKED: ATOM      2  C   UNL d   1       9.123  13.210 -13.479 -0.11 -0.00    +0.064 C 
DOCKED: ATOM      3  C   UNL d   1       6.997  16.165 -10.385 -0.11 +0.01    +0.064 A 
DOCKED: ATOM      4  C   UNL d   1      10.811  15.756  -7.393 -0.17 -0.00    +0.064 A 
DOCKED: ATOM      5  C   UNL d   1      11.850  12.448 -11.461 -0.22 -0.01    +0.066 A 
DOCKED: ATOM      6  C   UNL d   1      12.162  11.726 -12.629 -0.20 +0.00    -0.021 A 
DOCKED: ATOM      7  C   UNL d   1      11.136  11.954 -13.525 -0.14 +0.00    -0.025 A 
DOCKED: ATOM      8  C   UNL d   1      10.234  12.792 -12.860 -0.09 -0.00    +0.066 A 
DOCKED: ATOM      9  C   UNL d   1      10.997  11.413 -14.956 -0.11 -0.00    +0.051 C 
DOCKED: ATOM     10  C   UNL d   1       8.125  14.051 -12.866 -0.21 +0.00    +0.066 A 
DOCKED: ATOM     11  C   UNL d   1       6.873  14.409 -13.412 -0.19 -0.00    -0.021 A 
DOCKED: ATOM     12  C   UNL d   1       6.273  15.268 -12.487 -0.19 +0.00    +0.000 A 
DOCKED: ATOM     13  C   UNL d   1       7.194  15.359 -11.443 -0.18 +0.01    +0.070 A 
DOCKED: ATOM     14  C   UNL d   1       6.271  13.879 -14.687 -0.14 +0.00    +0.052 C 
DOCKED: ATOM     15  C   UNL d   1       7.861  16.420  -9.249 -0.19 +0.01    +0.066 A 
DOCKED: ATOM     16  C   UNL d   1       7.663  17.374  -8.262 -0.21 -0.01    -0.021 A 
DOCKED: ATOM     17  C   UNL d   1       8.761  17.262  -7.398 -0.21 +0.00    +0.000 A 
DOCKED: ATOM     18  C   UNL d   1       9.538  16.233  -7.919 -0.21 +0.00    +0.070 A 
DOCKED: ATOM     19  C   UNL d   1       6.485  18.320  -8.180 -0.16 +0.02    +0.052 C 
DOCKED: ATOM     20  C   UNL d   1      11.625  14.817  -7.931 -0.24 -0.01    +0.066 A 
DOCKED: ATOM     21  C   UNL d   1      12.843  14.469  -7.351 -0.26 +0.01    -0.025 A 
DOCKED: ATOM     22  C   UNL d   1      13.393  13.511  -8.183 -0.24 +0.00    -0.021 A 
DOCKED: ATOM     23  C   UNL d   1      12.481  13.329  -9.244 -0.22 -0.02    +0.066 A 
DOCKED: ATOM     24  C   UNL d   1      13.464  15.036  -6.077 -0.32 -0.02    +0.051 C 
DOCKED: ATOM     25  N   UNL d   1      10.648  13.109 -11.577 -0.16 +0.03    -0.248 N 
DOCKED: ATOM     26  N   UNL d   1       8.288  14.579 -11.648 -0.17 -0.01    -0.248 N 
DOCKED: ATOM     27  N   UNL d   1       8.987  15.775  -9.038 -0.16 -0.02    -0.248 N 
DOCKED: ATOM     28  N   UNL d   1      11.410  14.119  -9.097 -0.16 +0.04    -0.248 N 
DOCKED: ATOM     29 FE   UNL d   1       9.771  14.520 -10.230 -0.05 -0.00    +0.000 Fe
DOCKED: ENDROOT
DOCKED: BRANCH   6  30
DOCKED: ATOM     30  C   UNL d   1      13.433  10.924 -12.890 -0.26 -0.01    +0.052 C 
DOCKED: BRANCH  30  31
DOCKED: ATOM     31  C   UNL d   1      14.316  11.635 -13.914 -0.12 -0.02    +0.115 C 
DOCKED: BRANCH  31  32
DOCKED: ATOM     32  C   UNL d   1      14.765  13.000 -13.440 -0.04 -0.02    +0.139 C 
DOCKED: ATOM     33  O   UNL d   1      15.914  13.154 -13.052 +0.02 +0.09    -0.650 OA
DOCKED: BRANCH  32  34
DOCKED: ATOM     34  O   UNL d   1      13.947  14.078 -13.476 +0.04 +0.09    -0.776 OA
DOCKED: ATOM     35  H   UNL d   1      13.548  14.483 -12.694 +0.02 -0.02    +0.167 HD
DOCKED: ENDBRANCH  32  34
DOCKED: ENDBRANCH  31  32
DOCKED: ENDBRANCH  30  31
DOCKED: ENDBRANCH   6  30
DOCKED: BRANCH  29  36
DOCKED: ATOM     36  C   UNL d   1      10.825  16.001 -11.273 -0.03 -0.01    +0.190 C 
DOCKED: BRANCH  36  37
DOCKED: ATOM     37  O   UNL d   1      12.052  16.272 -11.888 +0.00 +0.03    -0.399 OA
DOCKED: ATOM     38  H   UNL d   1      12.657  15.537 -11.587 +0.02 -0.02    +0.209 HD
DOCKED: ENDBRANCH  36  37
DOCKED: ENDBRANCH  29  36
DOCKED: BRANCH  22  39
DOCKED: ATOM     39  C   UNL d   1      14.750  12.858  -7.998 -0.23 -0.01    +0.052 C 
DOCKED: BRANCH  39  40
DOCKED: ATOM     40  C   UNL d   1      15.612  13.032  -9.259 -0.11 -0.03    +0.115 C 
DOCKED: BRANCH  40  41
DOCKED: ATOM     41  C   UNL d   1      15.532  14.407  -9.887 -0.03 -0.03    +0.139 C 
DOCKED: ATOM     42  O   UNL d   1      16.351  15.258  -9.571 +0.02 +0.11    -0.650 OA
DOCKED: BRANCH  41  43
DOCKED: ATOM     43  O   UNL d   1      14.631  14.696 -10.853 +0.04 +0.12    -0.776 OA
DOCKED: ATOM     44  H   UNL d   1      14.811  14.547 -11.791 +0.02 -0.02    +0.167 HD
DOCKED: ENDBRANCH  41  43
DOCKED: ENDBRANCH  40  41
DOCKED: ENDBRANCH  39  40
DOCKED: ENDBRANCH  22  39
DOCKED: BRANCH  12  45
DOCKED: ATOM     45  C   UNL d   1       4.934  15.993 -12.461 -0.17 +0.00    +0.004 C 
DOCKED: ATOM     46  C   UNL d   1       3.764  15.633 -11.939 -0.23 +0.00    +0.012 C 
DOCKED: ENDBRANCH  12  45
DOCKED: BRANCH  17  47
DOCKED: ATOM     47  C   UNL d   1       9.117  18.074  -6.196 -0.15 +0.00    +0.004 C 
DOCKED: ATOM     48  C   UNL d   1      10.257  18.759  -6.079 -0.13 -0.00    +0.012 C 
DOCKED: ENDBRANCH  17  47
DOCKED: TORSDOF 12
DOCKED: TER
DOCKED: ENDMDL
________________________________________________________________________________


	BEGINNING GENETIC ALGORITHM DOCKING 71 of 100
Run: 71 Seed: 1757756756 23648731 [ Run 71 of 100 GA/GALS ]
Beginning LAMARCKIAN GENETIC ALGORITHM (LGA), with a maximum of 25000000 energy evaluations.

Final-Value: -10.292


	FINAL GENETIC ALGORITHM DOCKED STATE
	_______________________________________________


Detailed state:  trans 4.255 5.593 -16.057 quatxyzw -0.544744 -0.662292 0.314433 -0.407131 center 8.781 34.984 -0.736 ntor 12 64.7582 125.7518 -146.2995 105.0864 93.1795 98.6688 35.8380 112.4728 156.3042 144.1937 -157.1772 170.5964
State:	  4.255   5.593 -16.057  -0.596 -0.725  0.344 -131.951     64.76  125.75 -146.30  105.09   93.18   98.67   35.84  112.47  156.30  144.19 -157.18  170.60

DOCKED: MODEL       71
DOCKED: USER    Run = 71
DOCKED: USER    DPF = D:/Protein_go_brrr/autodock/final/mut_Y35F/heme_Co/dock.dpf
DOCKED: USER  
DOCKED: USER    Estimated Free Energy of Binding    =   -2.56 kcal/mol  [=(1)+(2)+(3)-(4)]
DOCKED: USER    Estimated Inhibition Constant, Ki   =   13.36 mM (millimolar)  [Temperature = 298.15 K]
DOCKED: USER    
DOCKED: USER    (1) Final Intermolecular Energy     =   -6.14 kcal/mol
DOCKED: USER        vdW + Hbond + desolv Energy     =   -6.30 kcal/mol
DOCKED: USER        Electrostatic Energy            =   +0.17 kcal/mol
DOCKED: USER    (2) Final Total Internal Energy     =   -4.16 kcal/mol
DOCKED: USER    (3) Torsional Free Energy           =   +3.58 kcal/mol
DOCKED: USER    (4) Unbound System's Energy  [=(2)] =   -4.16 kcal/mol
DOCKED: USER    
DOCKED: USER    
DOCKED: USER    NEWDPF move heme_Co_opt.pdbqt
DOCKED: USER    NEWDPF about 8.781000 34.984000 -0.736000
DOCKED: USER    NEWDPF tran0 4.254880 5.593266 -16.056934
DOCKED: USER    NEWDPF quaternion0 -0.544744 -0.662292 0.314433 -0.407131
DOCKED: USER    NEWDPF axisangle0 -0.596411 -0.725108 0.344256 -131.950573
DOCKED: USER    NEWDPF quat0 -0.596411 -0.725108 0.344256 -131.950573
DOCKED: USER    NEWDPF dihe0 64.76 125.75 -146.30 105.09 93.18 98.67 35.84 112.47 156.30 144.19 -157.18 170.60 
DOCKED: USER  keepresnum = 1 
DOCKED: USER  
DOCKED: REMARK  12 active torsions:
DOCKED: REMARK  status: ('A' for Active; 'I' for Inactive)
DOCKED: REMARK    1  A    between atoms: C_6  and  C_10 
DOCKED: REMARK    2  A    between atoms: C_10  and  C_11 
DOCKED: REMARK    3  A    between atoms: C_11  and  C_12 
DOCKED: REMARK    4  A    between atoms: C_12  and  O_14 
DOCKED: REMARK    5  A    between atoms: C_17  and  C_20 
DOCKED: REMARK    6  A    between atoms: C_24  and  C_27 
DOCKED: REMARK    7  A    between atoms: C_31  and  C_34 
DOCKED: REMARK    8  A    between atoms: C_34  and  C_35 
DOCKED: REMARK    9  A    between atoms: C_35  and  C_36 
DOCKED: REMARK   10  A    between atoms: C_36  and  O_38 
DOCKED: REMARK   11  A    between atoms: FE_43  and  C_44 
DOCKED: REMARK   12  A    between atoms: C_44  and  O_45 
DOCKED: USER                              x       y       z     vdW  Elec       q    Type
DOCKED: USER                           _______ _______ _______ _____ _____    ______ ____
DOCKED: ROOT
DOCKED: ATOM      1  C   UNL d   1       5.382   3.783 -16.467 -0.20 -0.00    +0.064 A 
DOCKED: ATOM      2  C   UNL d   1       0.755   4.559 -15.689 -0.12 -0.00    +0.064 C 
DOCKED: ATOM      3  C   UNL d   1       1.643   9.165 -14.778 -0.26 -0.01    +0.064 A 
DOCKED: ATOM      4  C   UNL d   1       6.316   8.481 -15.944 -0.18 -0.01    +0.064 A 
DOCKED: ATOM      5  C   UNL d   1       4.058   3.649 -16.286 -0.18 -0.00    +0.066 A 
DOCKED: ATOM      6  C   UNL d   1       3.389   2.434 -16.532 -0.12 +0.00    -0.021 A 
DOCKED: ATOM      7  C   UNL d   1       2.044   2.671 -16.327 -0.11 +0.00    -0.025 A 
DOCKED: ATOM      8  C   UNL d   1       1.951   4.015 -15.949 -0.12 -0.00    +0.066 A 
DOCKED: ATOM      9  C   UNL d   1       0.878   1.681 -16.478 -0.06 +0.00    +0.051 C 
DOCKED: ATOM     10  C   UNL d   1       0.565   5.925 -15.268 -0.19 -0.01    +0.066 A 
DOCKED: ATOM     11  C   UNL d   1      -0.646   6.516 -14.846 -0.18 +0.00    -0.021 A 
DOCKED: ATOM     12  C   UNL d   1      -0.358   7.858 -14.583 -0.21 -0.00    +0.000 A 
DOCKED: ATOM     13  C   UNL d   1       1.006   7.983 -14.851 -0.26 -0.01    +0.070 A 
DOCKED: ATOM     14  C   UNL d   1      -1.956   5.805 -14.625 -0.13 -0.00    +0.052 C 
DOCKED: ATOM     15  C   UNL d   1       3.027   9.483 -15.069 -0.27 -0.01    +0.066 A 
DOCKED: ATOM     16  C   UNL d   1       3.588  10.751 -15.115 -0.23 +0.00    -0.021 A 
DOCKED: ATOM     17  C   UNL d   1       4.935  10.560 -15.453 -0.22 -0.00    +0.000 A 
DOCKED: ATOM     18  C   UNL d   1       5.094   9.183 -15.571 -0.17 -0.01    +0.070 A 
DOCKED: ATOM     19  C   UNL d   1       2.852  12.046 -14.847 -0.15 -0.00    +0.052 C 
DOCKED: ATOM     20  C   UNL d   1       6.473   7.152 -16.149 -0.24 -0.01    +0.066 A 
DOCKED: ATOM     21  C   UNL d   1       7.691   6.599 -16.540 -0.19 +0.00    -0.025 A 
DOCKED: ATOM     22  C   UNL d   1       7.459   5.241 -16.671 -0.20 +0.00    -0.021 A 
DOCKED: ATOM     23  C   UNL d   1       6.098   5.034 -16.361 -0.24 -0.01    +0.066 A 
DOCKED: ATOM     24  C   UNL d   1       9.006   7.329 -16.797 -0.15 -0.01    +0.051 C 
DOCKED: ATOM     25  N   UNL d   1       3.184   4.644 -15.909 -0.15 +0.02    -0.248 N 
DOCKED: ATOM     26  N   UNL d   1       1.573   6.801 -15.211 -0.17 +0.04    -0.248 N 
DOCKED: ATOM     27  N   UNL d   1       3.931   8.576 -15.365 -0.15 +0.06    -0.248 N 
DOCKED: ATOM     28  N   UNL d   1       5.497   6.188 -16.047 -0.20 +0.05    -0.248 N 
DOCKED: ATOM     29 FE   UNL d   1       3.583   6.726 -15.621 -0.06 -0.00    +0.000 Fe
DOCKED: ENDROOT
DOCKED: BRANCH   6  30
DOCKED: ATOM     30  C   UNL d   1       4.016   1.133 -17.022 -0.07 +0.00    +0.052 C 
DOCKED: BRANCH  30  31
DOCKED: ATOM     31  C   UNL d   1       4.399   1.244 -18.498 -0.02 -0.00    +0.115 C 
DOCKED: BRANCH  31  32
DOCKED: ATOM     32  C   UNL d   1       3.560   2.265 -19.236 -0.01 -0.00    +0.139 C 
DOCKED: ATOM     33  O   UNL d   1       2.555   1.902 -19.828 +0.00 +0.01    -0.650 OA
DOCKED: BRANCH  32  34
DOCKED: ATOM     34  O   UNL d   1       3.862   3.584 -19.225 +0.02 +0.03    -0.776 OA
DOCKED: ATOM     35  H   UNL d   1       4.690   3.956 -19.559 +0.01 -0.01    +0.167 HD
DOCKED: ENDBRANCH  32  34
DOCKED: ENDBRANCH  31  32
DOCKED: ENDBRANCH  30  31
DOCKED: ENDBRANCH   6  30
DOCKED: BRANCH  29  36
DOCKED: ATOM     36  C   UNL d   1       3.173   6.971 -17.663 -0.06 -0.02    +0.190 C 
DOCKED: BRANCH  36  37
DOCKED: ATOM     37  O   UNL d   1       3.549   6.530 -18.935 -0.00 +0.02    -0.399 OA
DOCKED: ATOM     38  H   UNL d   1       4.113   5.723 -18.771 +0.02 -0.01    +0.209 HD
DOCKED: ENDBRANCH  36  37
DOCKED: ENDBRANCH  29  36
DOCKED: BRANCH  22  39
DOCKED: ATOM     39  C   UNL d   1       8.477   4.215 -17.131 -0.17 -0.00    +0.052 C 
DOCKED: BRANCH  39  40
DOCKED: ATOM     40  C   UNL d   1       8.466   4.089 -18.664 -0.06 -0.01    +0.115 C 
DOCKED: BRANCH  40  41
DOCKED: ATOM     41  C   UNL d   1       7.083   4.100 -19.281 -0.02 -0.01    +0.139 C 
DOCKED: ATOM     42  O   UNL d   1       6.636   3.069 -19.765 +0.01 +0.03    -0.650 OA
DOCKED: BRANCH  41  43
DOCKED: ATOM     43  O   UNL d   1       6.293   5.195 -19.235 +0.03 +0.05    -0.776 OA
DOCKED: ATOM     44  H   UNL d   1       5.342   5.143 -19.075 +0.02 -0.01    +0.167 HD
DOCKED: ENDBRANCH  41  43
DOCKED: ENDBRANCH  40  41
DOCKED: ENDBRANCH  39  40
DOCKED: ENDBRANCH  22  39
DOCKED: BRANCH  12  45
DOCKED: ATOM     45  C   UNL d   1      -1.204   9.026 -14.094 -0.21 -0.00    +0.004 C 
DOCKED: ATOM     46  C   UNL d   1      -1.368   9.524 -12.871 -0.25 -0.00    +0.012 C 
DOCKED: ENDBRANCH  12  45
DOCKED: BRANCH  17  47
DOCKED: ATOM     47  C   UNL d   1       6.008  11.567 -15.705 -0.18 -0.00    +0.004 C 
DOCKED: ATOM     48  C   UNL d   1       6.566  12.307 -14.744 -0.23 +0.00    +0.012 C 
DOCKED: ENDBRANCH  17  47
DOCKED: TORSDOF 12
DOCKED: TER
DOCKED: ENDMDL
________________________________________________________________________________


	BEGINNING GENETIC ALGORITHM DOCKING 72 of 100
Run: 72 Seed: 1573786006 1612487986 [ Run 72 of 100 GA/GALS ]
Beginning LAMARCKIAN GENETIC ALGORITHM (LGA), with a maximum of 25000000 energy evaluations.

Final-Value: -9.673


	FINAL GENETIC ALGORITHM DOCKED STATE
	_______________________________________________


Detailed state:  trans -6.952 -17.963 -16.752 quatxyzw 0.507680 0.326829 -0.321619 0.729387 center 8.781 34.984 -0.736 ntor 12 60.1431 107.5834 -42.7065 -114.9973 -85.0918 153.0078 -147.4254 156.7034 157.6709 -147.1541 2.7199 -18.6809
State:	 -6.952 -17.963 -16.752   0.742  0.478 -0.470 86.330     60.14  107.58  -42.71 -115.00  -85.09  153.01 -147.43  156.70  157.67 -147.15    2.72  -18.68

DOCKED: MODEL       72
DOCKED: USER    Run = 72
DOCKED: USER    DPF = D:/Protein_go_brrr/autodock/final/mut_Y35F/heme_Co/dock.dpf
DOCKED: USER  
DOCKED: USER    Estimated Free Energy of Binding    =   -4.63 kcal/mol  [=(1)+(2)+(3)-(4)]
DOCKED: USER    Estimated Inhibition Constant, Ki   =  403.05 uM (micromolar)  [Temperature = 298.15 K]
DOCKED: USER    
DOCKED: USER    (1) Final Intermolecular Energy     =   -8.21 kcal/mol
DOCKED: USER        vdW + Hbond + desolv Energy     =   -4.95 kcal/mol
DOCKED: USER        Electrostatic Energy            =   -3.26 kcal/mol
DOCKED: USER    (2) Final Total Internal Energy     =   -1.46 kcal/mol
DOCKED: USER    (3) Torsional Free Energy           =   +3.58 kcal/mol
DOCKED: USER    (4) Unbound System's Energy  [=(2)] =   -1.46 kcal/mol
DOCKED: USER    
DOCKED: USER    
DOCKED: USER    NEWDPF move heme_Co_opt.pdbqt
DOCKED: USER    NEWDPF about 8.781000 34.984000 -0.736000
DOCKED: USER    NEWDPF tran0 -6.952126 -17.963046 -16.751840
DOCKED: USER    NEWDPF quaternion0 0.507680 0.326829 -0.321619 0.729387
DOCKED: USER    NEWDPF axisangle0 0.742112 0.477749 -0.470133 86.330011
DOCKED: USER    NEWDPF quat0 0.742112 0.477749 -0.470133 86.330011
DOCKED: USER    NEWDPF dihe0 60.14 107.58 -42.71 -115.00 -85.09 153.01 -147.43 156.70 157.67 -147.15 2.72 -18.68 
DOCKED: USER  keepresnum = 1 
DOCKED: USER  
DOCKED: REMARK  12 active torsions:
DOCKED: REMARK  status: ('A' for Active; 'I' for Inactive)
DOCKED: REMARK    1  A    between atoms: C_6  and  C_10 
DOCKED: REMARK    2  A    between atoms: C_10  and  C_11 
DOCKED: REMARK    3  A    between atoms: C_11  and  C_12 
DOCKED: REMARK    4  A    between atoms: C_12  and  O_14 
DOCKED: REMARK    5  A    between atoms: C_17  and  C_20 
DOCKED: REMARK    6  A    between atoms: C_24  and  C_27 
DOCKED: REMARK    7  A    between atoms: C_31  and  C_34 
DOCKED: REMARK    8  A    between atoms: C_34  and  C_35 
DOCKED: REMARK    9  A    between atoms: C_35  and  C_36 
DOCKED: REMARK   10  A    between atoms: C_36  and  O_38 
DOCKED: REMARK   11  A    between atoms: FE_43  and  C_44 
DOCKED: REMARK   12  A    between atoms: C_44  and  O_45 
DOCKED: USER                              x       y       z     vdW  Elec       q    Type
DOCKED: USER                           _______ _______ _______ _____ _____    ______ ____
DOCKED: ROOT
DOCKED: ATOM      1  C   UNL d   1      -7.459 -19.825 -17.747 -0.06 +0.05    +0.064 A 
DOCKED: ATOM      2  C   UNL d   1      -9.365 -17.574 -14.017 -0.13 +0.01    +0.064 C 
DOCKED: ATOM      3  C   UNL d   1      -5.898 -14.290 -14.180 -0.19 +0.00    +0.064 A 
DOCKED: ATOM      4  C   UNL d   1      -4.154 -16.352 -18.226 -0.03 +0.02    +0.064 A 
DOCKED: ATOM      5  C   UNL d   1      -8.214 -19.472 -16.694 -0.08 +0.04    +0.066 A 
DOCKED: ATOM      6  C   UNL d   1      -9.393 -20.163 -16.354 -0.06 -0.01    -0.021 A 
DOCKED: ATOM      7  C   UNL d   1      -9.954 -19.492 -15.285 -0.05 -0.01    -0.025 A 
DOCKED: ATOM      8  C   UNL d   1      -9.085 -18.431 -15.008 -0.10 +0.02    +0.066 A 
DOCKED: ATOM      9  C   UNL d   1     -11.258 -19.824 -14.543 -0.02 +0.01    +0.051 C 
DOCKED: ATOM     10  C   UNL d   1      -8.518 -16.470 -13.642 -0.17 +0.01    +0.066 A 
DOCKED: ATOM     11  C   UNL d   1      -8.683 -15.621 -12.526 -0.29 -0.00    -0.021 A 
DOCKED: ATOM     12  C   UNL d   1      -7.656 -14.675 -12.596 -0.34 +0.00    +0.000 A 
DOCKED: ATOM     13  C   UNL d   1      -6.936 -15.023 -13.739 -0.20 +0.01    +0.070 A 
DOCKED: ATOM     14  C   UNL d   1      -9.702 -15.780 -11.427 -0.34 +0.00    +0.052 C 
DOCKED: ATOM     15  C   UNL d   1      -5.080 -14.473 -15.363 -0.10 +0.01    +0.066 A 
DOCKED: ATOM     16  C   UNL d   1      -4.116 -13.597 -15.840 -0.06 -0.00    -0.021 A 
DOCKED: ATOM     17  C   UNL d   1      -3.611 -14.186 -17.009 -0.03 +0.00    +0.000 A 
DOCKED: ATOM     18  C   UNL d   1      -4.298 -15.388 -17.143 -0.04 +0.01    +0.070 A 
DOCKED: ATOM     19  C   UNL d   1      -3.727 -12.285 -15.196 -0.07 +0.00    +0.052 C 
DOCKED: ATOM     20  C   UNL d   1      -4.870 -17.484 -18.424 -0.05 +0.03    +0.066 A 
DOCKED: ATOM     21  C   UNL d   1      -4.663 -18.312 -19.524 -0.03 -0.01    -0.025 A 
DOCKED: ATOM     22  C   UNL d   1      -5.583 -19.338 -19.398 -0.05 -0.01    -0.021 A 
DOCKED: ATOM     23  C   UNL d   1      -6.319 -19.075 -18.223 -0.04 +0.05    +0.066 A 
DOCKED: ATOM     24  C   UNL d   1      -3.653 -18.127 -20.653 -0.01 +0.01    +0.051 C 
DOCKED: ATOM     25  N   UNL d   1      -7.996 -18.398 -15.861 -0.09 -0.14    -0.248 N 
DOCKED: ATOM     26  N   UNL d   1      -7.424 -16.142 -14.339 -0.13 -0.06    -0.248 N 
DOCKED: ATOM     27  N   UNL d   1      -5.186 -15.512 -16.162 -0.06 -0.06    -0.248 N 
DOCKED: ATOM     28  N   UNL d   1      -5.893 -17.953 -17.632 -0.04 -0.15    -0.248 N 
DOCKED: ATOM     29 FE   UNL d   1      -6.506 -16.871 -16.023 -0.03 +0.00    +0.000 Fe
DOCKED: ENDROOT
DOCKED: BRANCH   6  30
DOCKED: ATOM     30  C   UNL d   1      -9.986 -21.364 -17.084 -0.02 +0.02    +0.052 C 
DOCKED: BRANCH  30  31
DOCKED: ATOM     31  C   UNL d   1      -9.384 -22.665 -16.555 -0.02 +0.05    +0.115 C 
DOCKED: BRANCH  31  32
DOCKED: ATOM     32  C   UNL d   1      -8.021 -22.458 -15.930 -0.03 +0.14    +0.139 C 
DOCKED: ATOM     33  O   UNL d   1      -7.942 -22.079 -14.771 -0.54 -0.71    -0.650 OA
DOCKED: BRANCH  32  34
DOCKED: ATOM     34  O   UNL d   1      -6.876 -22.726 -16.601 -0.07 -1.30    -0.776 OA
DOCKED: ATOM     35  H   UNL d   1      -6.644 -22.340 -17.457 -0.00 +0.24    +0.167 HD
DOCKED: ENDBRANCH  32  34
DOCKED: ENDBRANCH  31  32
DOCKED: ENDBRANCH  30  31
DOCKED: ENDBRANCH   6  30
DOCKED: BRANCH  29  36
DOCKED: ATOM     36  C   UNL d   1      -7.871 -15.822 -17.219 -0.02 +0.03    +0.190 C 
DOCKED: BRANCH  36  37
DOCKED: ATOM     37  O   UNL d   1      -9.147 -15.903 -17.786 +0.00 -0.05    -0.399 OA
DOCKED: ATOM     38  H   UNL d   1      -9.464 -16.825 -17.574 +0.01 +0.03    +0.209 HD
DOCKED: ENDBRANCH  36  37
DOCKED: ENDBRANCH  29  36
DOCKED: BRANCH  22  39
DOCKED: ATOM     39  C   UNL d   1      -5.781 -20.469 -20.389 -0.02 +0.02    +0.052 C 
DOCKED: BRANCH  39  40
DOCKED: ATOM     40  C   UNL d   1      -4.755 -21.588 -20.148 -0.02 +0.05    +0.115 C 
DOCKED: BRANCH  40  41
DOCKED: ATOM     41  C   UNL d   1      -4.258 -21.683 -18.721 +0.08 +0.15    +0.139 C 
DOCKED: ATOM     42  O   UNL d   1      -3.604 -20.762 -18.252 -0.35 -0.85    -0.650 OA
DOCKED: BRANCH  41  43
DOCKED: ATOM     43  O   UNL d   1      -4.590 -22.721 -17.921 -0.23 -1.11    -0.776 OA
DOCKED: ATOM     44  H   UNL d   1      -5.460 -23.140 -17.949 -0.00 +0.19    +0.167 HD
DOCKED: ENDBRANCH  41  43
DOCKED: ENDBRANCH  40  41
DOCKED: ENDBRANCH  39  40
DOCKED: ENDBRANCH  22  39
DOCKED: BRANCH  12  45
DOCKED: ATOM     45  C   UNL d   1      -7.264 -13.501 -11.709 -0.44 -0.00    +0.004 C 
DOCKED: ATOM     46  C   UNL d   1      -7.113 -12.211 -11.997 -0.37 -0.00    +0.012 C 
DOCKED: ENDBRANCH  12  45
DOCKED: BRANCH  17  47
DOCKED: ATOM     47  C   UNL d   1      -2.601 -13.668 -17.978 -0.01 +0.00    +0.004 C 
DOCKED: ATOM     48  C   UNL d   1      -2.911 -13.218 -19.196 -0.00 +0.00    +0.012 C 
DOCKED: ENDBRANCH  17  47
DOCKED: TORSDOF 12
DOCKED: TER
DOCKED: ENDMDL
________________________________________________________________________________


	BEGINNING GENETIC ALGORITHM DOCKING 73 of 100
Run: 73 Seed: 2008631720 1779727899 [ Run 73 of 100 GA/GALS ]
Beginning LAMARCKIAN GENETIC ALGORITHM (LGA), with a maximum of 25000000 energy evaluations.

Final-Value: -10.933


	FINAL GENETIC ALGORITHM DOCKED STATE
	_______________________________________________


Detailed state:  trans 11.346 11.267 7.002 quatxyzw 0.665462 0.607118 0.395162 -0.180041 center 8.781 34.984 -0.736 ntor 12 26.4364 92.0578 -79.1433 115.6154 -99.5626 137.9094 35.9678 -146.6841 -174.1241 83.6699 -170.8009 147.9370
State:	 11.346  11.267   7.002   0.677  0.617  0.402 -159.256     26.44   92.06  -79.14  115.62  -99.56  137.91   35.97 -146.68 -174.12   83.67 -170.80  147.94

DOCKED: MODEL       73
DOCKED: USER    Run = 73
DOCKED: USER    DPF = D:/Protein_go_brrr/autodock/final/mut_Y35F/heme_Co/dock.dpf
DOCKED: USER  
DOCKED: USER    Estimated Free Energy of Binding    =   -4.39 kcal/mol  [=(1)+(2)+(3)-(4)]
DOCKED: USER    Estimated Inhibition Constant, Ki   =  605.55 uM (micromolar)  [Temperature = 298.15 K]
DOCKED: USER    
DOCKED: USER    (1) Final Intermolecular Energy     =   -7.97 kcal/mol
DOCKED: USER        vdW + Hbond + desolv Energy     =   -6.48 kcal/mol
DOCKED: USER        Electrostatic Energy            =   -1.49 kcal/mol
DOCKED: USER    (2) Final Total Internal Energy     =   -2.96 kcal/mol
DOCKED: USER    (3) Torsional Free Energy           =   +3.58 kcal/mol
DOCKED: USER    (4) Unbound System's Energy  [=(2)] =   -2.96 kcal/mol
DOCKED: USER    
DOCKED: USER    
DOCKED: USER    NEWDPF move heme_Co_opt.pdbqt
DOCKED: USER    NEWDPF about 8.781000 34.984000 -0.736000
DOCKED: USER    NEWDPF tran0 11.346498 11.266638 7.002402
DOCKED: USER    NEWDPF quaternion0 0.665462 0.607118 0.395162 -0.180041
DOCKED: USER    NEWDPF axisangle0 0.676517 0.617204 0.401726 -159.255681
DOCKED: USER    NEWDPF quat0 0.676517 0.617204 0.401726 -159.255681
DOCKED: USER    NEWDPF dihe0 26.44 92.06 -79.14 115.62 -99.56 137.91 35.97 -146.68 -174.12 83.67 -170.80 147.94 
DOCKED: USER  keepresnum = 1 
DOCKED: USER  
DOCKED: REMARK  12 active torsions:
DOCKED: REMARK  status: ('A' for Active; 'I' for Inactive)
DOCKED: REMARK    1  A    between atoms: C_6  and  C_10 
DOCKED: REMARK    2  A    between atoms: C_10  and  C_11 
DOCKED: REMARK    3  A    between atoms: C_11  and  C_12 
DOCKED: REMARK    4  A    between atoms: C_12  and  O_14 
DOCKED: REMARK    5  A    between atoms: C_17  and  C_20 
DOCKED: REMARK    6  A    between atoms: C_24  and  C_27 
DOCKED: REMARK    7  A    between atoms: C_31  and  C_34 
DOCKED: REMARK    8  A    between atoms: C_34  and  C_35 
DOCKED: REMARK    9  A    between atoms: C_35  and  C_36 
DOCKED: REMARK   10  A    between atoms: C_36  and  O_38 
DOCKED: REMARK   11  A    between atoms: FE_43  and  C_44 
DOCKED: REMARK   12  A    between atoms: C_44  and  O_45 
DOCKED: USER                              x       y       z     vdW  Elec       q    Type
DOCKED: USER                           _______ _______ _______ _____ _____    ______ ____
DOCKED: ROOT
DOCKED: ATOM      1  C   UNL d   1      11.142   9.125   7.296 -0.13 +0.02    +0.064 A 
DOCKED: ATOM      2  C   UNL d   1      12.089  11.745   3.443 -0.18 -0.01    +0.064 C 
DOCKED: ATOM      3  C   UNL d   1      11.445  15.753   5.963 -0.15 -0.01    +0.064 A 
DOCKED: ATOM      4  C   UNL d   1      10.854  13.103  10.000 -0.23 +0.02    +0.064 A 
DOCKED: ATOM      5  C   UNL d   1      11.412   9.546   6.050 -0.13 +0.01    +0.066 A 
DOCKED: ATOM      6  C   UNL d   1      11.737   8.651   5.012 -0.21 -0.00    -0.021 A 
DOCKED: ATOM      7  C   UNL d   1      12.033   9.417   3.902 -0.29 -0.00    -0.025 A 
DOCKED: ATOM      8  C   UNL d   1      11.861  10.746   4.305 -0.20 -0.00    +0.066 A 
DOCKED: ATOM      9  C   UNL d   1      12.464   8.933   2.510 -0.47 -0.00    +0.051 C 
DOCKED: ATOM     10  C   UNL d   1      11.913  13.140   3.759 -0.18 -0.01    +0.066 A 
DOCKED: ATOM     11  C   UNL d   1      12.000  14.227   2.861 -0.21 +0.00    -0.021 A 
DOCKED: ATOM     12  C   UNL d   1      11.804  15.383   3.622 -0.12 -0.00    +0.000 A 
DOCKED: ATOM     13  C   UNL d   1      11.600  14.917   4.921 -0.12 -0.01    +0.070 A 
DOCKED: ATOM     14  C   UNL d   1      12.164  14.137   1.366 -0.40 -0.02    +0.052 C 
DOCKED: ATOM     15  C   UNL d   1      11.277  15.447   7.371 -0.19 -0.00    +0.066 A 
DOCKED: ATOM     16  C   UNL d   1      11.267  16.359   8.416 -0.19 +0.00    -0.021 A 
DOCKED: ATOM     17  C   UNL d   1      11.100  15.600   9.582 -0.23 +0.00    +0.000 A 
DOCKED: ATOM     18  C   UNL d   1      11.003  14.280   9.153 -0.23 +0.01    +0.070 A 
DOCKED: ATOM     19  C   UNL d   1      11.414  17.858   8.273 -0.13 -0.00    +0.052 C 
DOCKED: ATOM     20  C   UNL d   1      10.844  11.805   9.613 -0.19 +0.02    +0.066 A 
DOCKED: ATOM     21  C   UNL d   1      10.730  10.758  10.525 -0.14 -0.01    -0.025 A 
DOCKED: ATOM     22  C   UNL d   1      10.781   9.600   9.772 -0.16 -0.01    -0.021 A 
DOCKED: ATOM     23  C   UNL d   1      10.937  10.000   8.427 -0.16 +0.02    +0.066 A 
DOCKED: ATOM     24  C   UNL d   1      10.600  10.855  12.043 -0.15 +0.02    +0.051 C 
DOCKED: ATOM     25  N   UNL d   1      11.471  10.855   5.629 -0.06 -0.02    -0.248 N 
DOCKED: ATOM     26  N   UNL d   1      11.610  13.559   4.993 -0.02 +0.01    -0.248 N 
DOCKED: ATOM     27  N   UNL d   1      11.143  14.224   7.834 -0.06 -0.01    -0.248 N 
DOCKED: ATOM     28  N   UNL d   1      10.977  11.335   8.327 -0.00 -0.04    -0.248 N 
DOCKED: ATOM     29 FE   UNL d   1      11.296  12.638   6.800 -0.04 +0.00    +0.000 Fe
DOCKED: ENDROOT
DOCKED: BRANCH   6  30
DOCKED: ATOM     30  C   UNL d   1      11.835   7.132   5.118 -0.20 +0.01    +0.052 C 
DOCKED: BRANCH  30  31
DOCKED: ATOM     31  C   UNL d   1      13.231   6.715   5.577 -0.20 +0.04    +0.115 C 
DOCKED: BRANCH  31  32
DOCKED: ATOM     32  C   UNL d   1      14.113   7.903   5.897 -0.10 +0.03    +0.139 C 
DOCKED: ATOM     33  O   UNL d   1      14.850   8.354   5.033 -0.06 -0.18    -0.650 OA
DOCKED: BRANCH  32  34
DOCKED: ATOM     34  O   UNL d   1      14.079   8.518   7.102 +0.05 -0.19    -0.776 OA
DOCKED: ATOM     35  H   UNL d   1      13.760   8.104   7.915 +0.02 +0.05    +0.167 HD
DOCKED: ENDBRANCH  32  34
DOCKED: ENDBRANCH  31  32
DOCKED: ENDBRANCH  30  31
DOCKED: ENDBRANCH   6  30
DOCKED: BRANCH  29  36
DOCKED: ATOM     36  C   UNL d   1      13.368  12.512   7.094 -0.05 +0.01    +0.190 C 
DOCKED: BRANCH  36  37
DOCKED: ATOM     37  O   UNL d   1      14.455  11.638   7.002 -0.00 -0.05    -0.399 OA
DOCKED: ATOM     38  H   UNL d   1      14.053  10.725   7.027 +0.02 +0.03    +0.209 HD
DOCKED: ENDBRANCH  36  37
DOCKED: ENDBRANCH  29  36
DOCKED: BRANCH  22  39
DOCKED: ATOM     39  C   UNL d   1      10.748   8.188  10.326 -0.13 +0.03    +0.052 C 
DOCKED: BRANCH  39  40
DOCKED: ATOM     40  C   UNL d   1      12.112   7.501  10.143 -0.06 +0.07    +0.115 C 
DOCKED: BRANCH  40  41
DOCKED: ATOM     41  C   UNL d   1      12.169   6.523   8.988 -0.06 +0.14    +0.139 C 
DOCKED: ATOM     42  O   UNL d   1      11.137   6.228   8.402 -0.25 -1.00    -0.650 OA
DOCKED: BRANCH  41  43
DOCKED: ATOM     43  O   UNL d   1      13.343   6.033   8.531 +0.03 -0.55    -0.776 OA
DOCKED: ATOM     44  H   UNL d   1      13.965   6.568   8.021 +0.02 +0.07    +0.167 HD
DOCKED: ENDBRANCH  41  43
DOCKED: ENDBRANCH  40  41
DOCKED: ENDBRANCH  39  40
DOCKED: ENDBRANCH  22  39
DOCKED: BRANCH  12  45
DOCKED: ATOM     45  C   UNL d   1      11.768  16.864   3.270 -0.09 -0.00    +0.004 C 
DOCKED: ATOM     46  C   UNL d   1      10.746  17.712   3.201 -0.12 -0.00    +0.012 C 
DOCKED: ENDBRANCH  12  45
DOCKED: BRANCH  17  47
DOCKED: ATOM     47  C   UNL d   1      11.079  16.037  11.010 -0.19 +0.00    +0.004 C 
DOCKED: ATOM     48  C   UNL d   1      11.930  15.582  11.933 -0.14 +0.01    +0.012 C 
DOCKED: ENDBRANCH  17  47
DOCKED: TORSDOF 12
DOCKED: TER
DOCKED: ENDMDL
________________________________________________________________________________


	BEGINNING GENETIC ALGORITHM DOCKING 74 of 100
Run: 74 Seed: 861456253 865619870 [ Run 74 of 100 GA/GALS ]
Beginning LAMARCKIAN GENETIC ALGORITHM (LGA), with a maximum of 25000000 energy evaluations.

Final-Value: -8.367


	FINAL GENETIC ALGORITHM DOCKED STATE
	_______________________________________________


Detailed state:  trans 0.611 13.759 -12.115 quatxyzw 0.301678 -0.927749 0.009183 -0.219516 center 8.781 34.984 -0.736 ntor 12 -163.6596 114.3239 44.4495 96.0048 -94.3342 139.7890 29.2938 -15.4284 -176.4737 99.3985 -176.5191 -4.1321
State:	  0.611  13.759 -12.115   0.309 -0.951  0.009 -154.639   -163.66  114.32   44.45   96.00  -94.33  139.79   29.29  -15.43 -176.47   99.40 -176.52   -4.13

DOCKED: MODEL       74
DOCKED: USER    Run = 74
DOCKED: USER    DPF = D:/Protein_go_brrr/autodock/final/mut_Y35F/heme_Co/dock.dpf
DOCKED: USER  
DOCKED: USER    Estimated Free Energy of Binding    =   -2.48 kcal/mol  [=(1)+(2)+(3)-(4)]
DOCKED: USER    Estimated Inhibition Constant, Ki   =   15.20 mM (millimolar)  [Temperature = 298.15 K]
DOCKED: USER    
DOCKED: USER    (1) Final Intermolecular Energy     =   -6.06 kcal/mol
DOCKED: USER        vdW + Hbond + desolv Energy     =   -5.21 kcal/mol
DOCKED: USER        Electrostatic Energy            =   -0.85 kcal/mol
DOCKED: USER    (2) Final Total Internal Energy     =   -2.31 kcal/mol
DOCKED: USER    (3) Torsional Free Energy           =   +3.58 kcal/mol
DOCKED: USER    (4) Unbound System's Energy  [=(2)] =   -2.31 kcal/mol
DOCKED: USER    
DOCKED: USER    
DOCKED: USER    NEWDPF move heme_Co_opt.pdbqt
DOCKED: USER    NEWDPF about 8.781000 34.984000 -0.736000
DOCKED: USER    NEWDPF tran0 0.610728 13.759257 -12.115038
DOCKED: USER    NEWDPF quaternion0 0.301678 -0.927749 0.009183 -0.219516
DOCKED: USER    NEWDPF axisangle0 0.309221 -0.950944 0.009412 -154.638800
DOCKED: USER    NEWDPF quat0 0.309221 -0.950944 0.009412 -154.638800
DOCKED: USER    NEWDPF dihe0 -163.66 114.32 44.45 96.00 -94.33 139.79 29.29 -15.43 -176.47 99.40 -176.52 -4.13 
DOCKED: USER  keepresnum = 1 
DOCKED: USER  
DOCKED: REMARK  12 active torsions:
DOCKED: REMARK  status: ('A' for Active; 'I' for Inactive)
DOCKED: REMARK    1  A    between atoms: C_6  and  C_10 
DOCKED: REMARK    2  A    between atoms: C_10  and  C_11 
DOCKED: REMARK    3  A    between atoms: C_11  and  C_12 
DOCKED: REMARK    4  A    between atoms: C_12  and  O_14 
DOCKED: REMARK    5  A    between atoms: C_17  and  C_20 
DOCKED: REMARK    6  A    between atoms: C_24  and  C_27 
DOCKED: REMARK    7  A    between atoms: C_31  and  C_34 
DOCKED: REMARK    8  A    between atoms: C_34  and  C_35 
DOCKED: REMARK    9  A    between atoms: C_35  and  C_36 
DOCKED: REMARK   10  A    between atoms: C_36  and  O_38 
DOCKED: REMARK   11  A    between atoms: FE_43  and  C_44 
DOCKED: REMARK   12  A    between atoms: C_44  and  O_45 
DOCKED: USER                              x       y       z     vdW  Elec       q    Type
DOCKED: USER                           _______ _______ _______ _____ _____    ______ ____
DOCKED: ROOT
DOCKED: ATOM      1  C   UNL d   1       2.067  15.370 -12.088 -0.18 +0.00    +0.064 A 
DOCKED: ATOM      2  C   UNL d   1       1.158  11.936 -15.250 -0.13 -0.00    +0.064 C 
DOCKED: ATOM      3  C   UNL d   1      -2.069  10.017 -12.294 -0.20 -0.00    +0.064 A 
DOCKED: ATOM      4  C   UNL d   1      -1.437  13.730  -9.215 -0.19 -0.01    +0.064 A 
DOCKED: ATOM      5  C   UNL d   1       2.082  14.552 -13.154 -0.15 -0.00    +0.066 A 
DOCKED: ATOM      6  C   UNL d   1       2.866  14.822 -14.292 -0.10 +0.00    -0.021 A 
DOCKED: ATOM      7  C   UNL d   1       2.581  13.835 -15.215 -0.09 +0.00    -0.025 A 
DOCKED: ATOM      8  C   UNL d   1       1.648  12.997 -14.595 -0.12 -0.00    +0.066 A 
DOCKED: ATOM      9  C   UNL d   1       3.156  13.674 -16.631 -0.04 -0.00    +0.051 C 
DOCKED: ATOM     10  C   UNL d   1       0.215  11.004 -14.684 -0.13 -0.00    +0.066 A 
DOCKED: ATOM     11  C   UNL d   1      -0.230   9.797 -15.266 -0.12 +0.00    -0.021 A 
DOCKED: ATOM     12  C   UNL d   1      -1.167   9.256 -14.381 -0.16 -0.00    +0.000 A 
DOCKED: ATOM     13  C   UNL d   1      -1.215  10.163 -13.323 -0.17 -0.00    +0.070 A 
DOCKED: ATOM     14  C   UNL d   1       0.289   9.174 -16.536 -0.07 -0.00    +0.052 C 
DOCKED: ATOM     15  C   UNL d   1      -2.287  10.881 -11.150 -0.19 -0.01    +0.066 A 
DOCKED: ATOM     16  C   UNL d   1      -3.287  10.748 -10.198 -0.23 +0.00    -0.021 A 
DOCKED: ATOM     17  C   UNL d   1      -3.111  11.818  -9.309 -0.24 -0.00    +0.000 A 
DOCKED: ATOM     18  C   UNL d   1      -2.002  12.512  -9.782 -0.20 -0.01    +0.070 A 
DOCKED: ATOM     19  C   UNL d   1      -4.332   9.654 -10.170 -0.23 -0.00    +0.052 C 
DOCKED: ATOM     20  C   UNL d   1      -0.414  14.470  -9.706 -0.20 -0.01    +0.066 A 
DOCKED: ATOM     21  C   UNL d   1       0.017  15.644  -9.091 -0.15 +0.00    -0.025 A 
DOCKED: ATOM     22  C   UNL d   1       1.045  16.123  -9.881 -0.16 +0.00    -0.021 A 
DOCKED: ATOM     23  C   UNL d   1       1.184  15.217 -10.954 -0.21 -0.00    +0.066 A 
DOCKED: ATOM     24  C   UNL d   1      -0.538  16.288  -7.823 -0.10 -0.01    +0.051 C 
DOCKED: ATOM     25  N   UNL d   1       1.325  13.414 -13.315 -0.07 +0.01    -0.248 N 
DOCKED: ATOM     26  N   UNL d   1      -0.337  11.190 -13.481 -0.01 +0.01    -0.248 N 
DOCKED: ATOM     27  N   UNL d   1      -1.556  11.943 -10.896 -0.05 +0.03    -0.248 N 
DOCKED: ATOM     28  N   UNL d   1       0.301  14.217 -10.853 -0.19 +0.02    -0.248 N 
DOCKED: ATOM     29 FE   UNL d   1      -0.200  12.637 -12.032 -0.06 -0.00    +0.000 Fe
DOCKED: ENDROOT
DOCKED: BRANCH   6  30
DOCKED: ATOM     30  C   UNL d   1       3.782  16.023 -14.502 -0.05 -0.00    +0.052 C 
DOCKED: BRANCH  30  31
DOCKED: ATOM     31  C   UNL d   1       3.031  17.155 -15.202 -0.01 -0.00    +0.115 C 
DOCKED: BRANCH  31  32
DOCKED: ATOM     32  C   UNL d   1       1.581  16.810 -15.465 -0.01 -0.00    +0.139 C 
DOCKED: ATOM     33  O   UNL d   1       1.244  16.443 -16.581 +0.00 +0.02    -0.650 OA
DOCKED: BRANCH  32  34
DOCKED: ATOM     34  O   UNL d   1       0.645  16.847 -14.488 +0.02 +0.03    -0.776 OA
DOCKED: ATOM     35  H   UNL d   1      -0.244  16.477 -14.572 +0.01 -0.01    +0.167 HD
DOCKED: ENDBRANCH  32  34
DOCKED: ENDBRANCH  31  32
DOCKED: ENDBRANCH  30  31
DOCKED: ENDBRANCH   6  30
DOCKED: BRANCH  29  36
DOCKED: ATOM     36  C   UNL d   1      -1.550  13.833 -13.100 -0.07 -0.01    +0.190 C 
DOCKED: BRANCH  36  37
DOCKED: ATOM     37  O   UNL d   1      -1.623  14.904 -13.996 -0.00 +0.02    -0.399 OA
DOCKED: ATOM     38  H   UNL d   1      -0.673  15.152 -14.176 +0.02 -0.01    +0.209 HD
DOCKED: ENDBRANCH  36  37
DOCKED: ENDBRANCH  29  36
DOCKED: BRANCH  22  39
DOCKED: ATOM     39  C   UNL d   1       1.805  17.416  -9.648 -0.09 +0.00    +0.052 C 
DOCKED: BRANCH  39  40
DOCKED: ATOM     40  C   UNL d   1       3.126  17.144  -8.910 -0.17 +0.02    +0.115 C 
DOCKED: BRANCH  40  41
DOCKED: ATOM     41  C   UNL d   1       3.002  17.102  -7.402 -0.12 +0.07    +0.139 C 
DOCKED: ATOM     42  O   UNL d   1       3.357  16.099  -6.799 +0.04 -0.46    -0.650 OA
DOCKED: BRANCH  41  43
DOCKED: ATOM     43  O   UNL d   1       2.591  18.177  -6.693 -0.17 -0.54    -0.776 OA
DOCKED: ATOM     44  H   UNL d   1       1.787  18.666  -6.911 +0.02 +0.05    +0.167 HD
DOCKED: ENDBRANCH  41  43
DOCKED: ENDBRANCH  40  41
DOCKED: ENDBRANCH  39  40
DOCKED: ENDBRANCH  22  39
DOCKED: BRANCH  12  45
DOCKED: ATOM     45  C   UNL d   1      -2.004   7.984 -14.405 -0.14 -0.00    +0.004 C 
DOCKED: ATOM     46  C   UNL d   1      -1.725   6.755 -13.979 -0.16 -0.00    +0.012 C 
DOCKED: ENDBRANCH  12  45
DOCKED: BRANCH  17  47
DOCKED: ATOM     47  C   UNL d   1      -3.929  12.220  -8.126 -0.06 -0.00    +0.004 C 
DOCKED: ATOM     48  C   UNL d   1      -4.598  13.373  -8.051 -0.14 -0.01    +0.012 C 
DOCKED: ENDBRANCH  17  47
DOCKED: TORSDOF 12
DOCKED: TER
DOCKED: ENDMDL
________________________________________________________________________________


	BEGINNING GENETIC ALGORITHM DOCKING 75 of 100
Run: 75 Seed: 1754678468 1832427947 [ Run 75 of 100 GA/GALS ]
Beginning LAMARCKIAN GENETIC ALGORITHM (LGA), with a maximum of 25000000 energy evaluations.

Final-Value: -9.108


	FINAL GENETIC ALGORITHM DOCKED STATE
	_______________________________________________


Detailed state:  trans -14.237 -0.410 -5.165 quatxyzw 0.261599 -0.181722 0.935015 0.155853 center 8.781 34.984 -0.736 ntor 12 94.7568 105.8827 -144.2984 -63.3659 -87.6368 81.0271 -105.0888 119.4293 -47.5942 145.5205 14.1268 173.1374
State:	-14.237  -0.410  -5.165   0.265 -0.184  0.947 162.067     94.76  105.88 -144.30  -63.37  -87.64   81.03 -105.09  119.43  -47.59  145.52   14.13  173.14

DOCKED: MODEL       75
DOCKED: USER    Run = 75
DOCKED: USER    DPF = D:/Protein_go_brrr/autodock/final/mut_Y35F/heme_Co/dock.dpf
DOCKED: USER  
DOCKED: USER    Estimated Free Energy of Binding    =   -3.42 kcal/mol  [=(1)+(2)+(3)-(4)]
DOCKED: USER    Estimated Inhibition Constant, Ki   =    3.10 mM (millimolar)  [Temperature = 298.15 K]
DOCKED: USER    
DOCKED: USER    (1) Final Intermolecular Energy     =   -7.00 kcal/mol
DOCKED: USER        vdW + Hbond + desolv Energy     =   -6.08 kcal/mol
DOCKED: USER        Electrostatic Energy            =   -0.92 kcal/mol
DOCKED: USER    (2) Final Total Internal Energy     =   -2.11 kcal/mol
DOCKED: USER    (3) Torsional Free Energy           =   +3.58 kcal/mol
DOCKED: USER    (4) Unbound System's Energy  [=(2)] =   -2.11 kcal/mol
DOCKED: USER    
DOCKED: USER    
DOCKED: USER    NEWDPF move heme_Co_opt.pdbqt
DOCKED: USER    NEWDPF about 8.781000 34.984000 -0.736000
DOCKED: USER    NEWDPF tran0 -14.236828 -0.410170 -5.164728
DOCKED: USER    NEWDPF quaternion0 0.261599 -0.181722 0.935015 0.155853
DOCKED: USER    NEWDPF axisangle0 0.264835 -0.183970 0.946582 162.067425
DOCKED: USER    NEWDPF quat0 0.264835 -0.183970 0.946582 162.067425
DOCKED: USER    NEWDPF dihe0 94.76 105.88 -144.30 -63.37 -87.64 81.03 -105.09 119.43 -47.59 145.52 14.13 173.14 
DOCKED: USER  keepresnum = 1 
DOCKED: USER  
DOCKED: REMARK  12 active torsions:
DOCKED: REMARK  status: ('A' for Active; 'I' for Inactive)
DOCKED: REMARK    1  A    between atoms: C_6  and  C_10 
DOCKED: REMARK    2  A    between atoms: C_10  and  C_11 
DOCKED: REMARK    3  A    between atoms: C_11  and  C_12 
DOCKED: REMARK    4  A    between atoms: C_12  and  O_14 
DOCKED: REMARK    5  A    between atoms: C_17  and  C_20 
DOCKED: REMARK    6  A    between atoms: C_24  and  C_27 
DOCKED: REMARK    7  A    between atoms: C_31  and  C_34 
DOCKED: REMARK    8  A    between atoms: C_34  and  C_35 
DOCKED: REMARK    9  A    between atoms: C_35  and  C_36 
DOCKED: REMARK   10  A    between atoms: C_36  and  O_38 
DOCKED: REMARK   11  A    between atoms: FE_43  and  C_44 
DOCKED: REMARK   12  A    between atoms: C_44  and  O_45 
DOCKED: USER                              x       y       z     vdW  Elec       q    Type
DOCKED: USER                           _______ _______ _______ _____ _____    ______ ____
DOCKED: ROOT
DOCKED: ATOM      1  C   UNL d   1     -13.027   0.115  -6.890 -0.08 +0.00    +0.064 A 
DOCKED: ATOM      2  C   UNL d   1     -12.536   1.019  -2.247 -0.31 +0.00    +0.064 C 
DOCKED: ATOM      3  C   UNL d   1     -16.772  -1.007  -1.366 -0.12 +0.02    +0.064 A 
DOCKED: ATOM      4  C   UNL d   1     -17.120  -2.284  -6.047 -0.02 +0.00    +0.064 A 
DOCKED: ATOM      5  C   UNL d   1     -12.598   0.544  -5.691 -0.13 +0.00    +0.066 A 
DOCKED: ATOM      6  C   UNL d   1     -11.334   1.141  -5.518 -0.20 -0.00    -0.021 A 
DOCKED: ATOM      7  C   UNL d   1     -11.187   1.380  -4.166 -0.27 +0.00    -0.025 A 
DOCKED: ATOM      8  C   UNL d   1     -12.374   0.934  -3.574 -0.24 +0.00    +0.066 A 
DOCKED: ATOM      9  C   UNL d   1      -9.983   2.003  -3.445 -0.35 -0.00    +0.051 C 
DOCKED: ATOM     10  C   UNL d   1     -13.731   0.611  -1.552 -0.24 +0.01    +0.066 A 
DOCKED: ATOM     11  C   UNL d   1     -14.018   0.803  -0.183 -0.25 -0.00    -0.021 A 
DOCKED: ATOM     12  C   UNL d   1     -15.261   0.206   0.046 -0.18 +0.00    +0.000 A 
DOCKED: ATOM     13  C   UNL d   1     -15.645  -0.293  -1.199 -0.12 +0.02    +0.070 A 
DOCKED: ATOM     14  C   UNL d   1     -13.191   1.590   0.800 -0.33 +0.01    +0.052 C 
DOCKED: ATOM     15  C   UNL d   1     -17.292  -1.638  -2.563 -0.09 +0.02    +0.066 A 
DOCKED: ATOM     16  C   UNL d   1     -18.390  -2.485  -2.637 -0.07 -0.01    -0.021 A 
DOCKED: ATOM     17  C   UNL d   1     -18.492  -2.858  -3.984 -0.05 +0.00    +0.000 A 
DOCKED: ATOM     18  C   UNL d   1     -17.456  -2.193  -4.632 -0.04 +0.01    +0.070 A 
DOCKED: ATOM     19  C   UNL d   1     -19.263  -2.892  -1.471 -0.09 +0.02    +0.052 C 
DOCKED: ATOM     20  C   UNL d   1     -16.067  -1.717  -6.682 -0.03 +0.00    +0.066 A 
DOCKED: ATOM     21  C   UNL d   1     -15.828  -1.907  -8.042 -0.02 -0.00    -0.025 A 
DOCKED: ATOM     22  C   UNL d   1     -14.670  -1.203  -8.319 -0.02 -0.00    -0.021 A 
DOCKED: ATOM     23  C   UNL d   1     -14.250  -0.624  -7.103 -0.04 +0.00    +0.066 A 
DOCKED: ATOM     24  C   UNL d   1     -16.651  -2.735  -9.025 -0.01 +0.00    +0.051 C 
DOCKED: ATOM     25  N   UNL d   1     -13.268   0.417  -4.495 -0.09 -0.02    -0.248 N 
DOCKED: ATOM     26  N   UNL d   1     -14.745   0.002  -2.175 -0.12 -0.03    -0.248 N 
DOCKED: ATOM     27  N   UNL d   1     -16.744  -1.501  -3.750 -0.05 -0.04    -0.248 N 
DOCKED: ATOM     28  N   UNL d   1     -15.091  -0.934  -6.109 -0.02 -0.02    -0.248 N 
DOCKED: ATOM     29 FE   UNL d   1     -15.110  -0.599  -4.104 -0.03 +0.00    +0.000 Fe
DOCKED: ENDROOT
DOCKED: BRANCH   6  30
DOCKED: ATOM     30  C   UNL d   1     -10.290   1.389  -6.602 -0.16 -0.00    +0.052 C 
DOCKED: BRANCH  30  31
DOCKED: ATOM     31  C   UNL d   1     -10.360   2.834  -7.095 -0.12 +0.02    +0.115 C 
DOCKED: BRANCH  31  32
DOCKED: ATOM     32  C   UNL d   1      -9.002   3.503  -7.117 -0.12 +0.06    +0.139 C 
DOCKED: ATOM     33  O   UNL d   1      -8.601   4.013  -8.152 -0.14 -0.43    -0.650 OA
DOCKED: BRANCH  32  34
DOCKED: ATOM     34  O   UNL d   1      -8.231   3.598  -6.009 -0.43 -0.43    -0.776 OA
DOCKED: ATOM     35  H   UNL d   1      -7.573   2.940  -5.746 -0.44 -0.02    +0.167 HD
DOCKED: ENDBRANCH  32  34
DOCKED: ENDBRANCH  31  32
DOCKED: ENDBRANCH  30  31
DOCKED: ENDBRANCH   6  30
DOCKED: BRANCH  29  36
DOCKED: ATOM     36  C   UNL d   1     -13.960  -2.323  -3.782 -0.32 +0.02    +0.190 C 
DOCKED: BRANCH  36  37
DOCKED: ATOM     37  O   UNL d   1     -13.215  -3.305  -4.443 +0.07 -0.03    -0.399 OA
DOCKED: ATOM     38  H   UNL d   1     -13.376  -3.138  -5.414 +0.08 +0.03    +0.209 HD
DOCKED: ENDBRANCH  36  37
DOCKED: ENDBRANCH  29  36
DOCKED: BRANCH  22  39
DOCKED: ATOM     39  C   UNL d   1     -13.975  -1.148  -9.667 -0.02 +0.00    +0.052 C 
DOCKED: BRANCH  39  40
DOCKED: ATOM     40  C   UNL d   1     -13.027  -2.347  -9.837 -0.04 +0.01    +0.115 C 
DOCKED: BRANCH  40  41
DOCKED: ATOM     41  C   UNL d   1     -12.252  -2.713  -8.589 -0.16 +0.01    +0.139 C 
DOCKED: ATOM     42  O   UNL d   1     -11.078  -2.383  -8.495 -0.04 -0.11    -0.650 OA
DOCKED: BRANCH  41  43
DOCKED: ATOM     43  O   UNL d   1     -12.845  -3.319  -7.537 +0.04 -0.09    -0.776 OA
DOCKED: ATOM     44  H   UNL d   1     -12.662  -3.068  -6.622 +0.06 +0.03    +0.167 HD
DOCKED: ENDBRANCH  41  43
DOCKED: ENDBRANCH  40  41
DOCKED: ENDBRANCH  39  40
DOCKED: ENDBRANCH  22  39
DOCKED: BRANCH  12  45
DOCKED: ATOM     45  C   UNL d   1     -16.134   0.067   1.286 -0.24 +0.00    +0.004 C 
DOCKED: ATOM     46  C   UNL d   1     -15.979  -0.683   2.374 -0.42 +0.00    +0.012 C 
DOCKED: ENDBRANCH  12  45
DOCKED: BRANCH  17  47
DOCKED: ATOM     47  C   UNL d   1     -19.444  -3.802  -4.643 -0.03 +0.00    +0.004 C 
DOCKED: ATOM     48  C   UNL d   1     -19.085  -4.996  -5.121 -0.03 +0.00    +0.012 C 
DOCKED: ENDBRANCH  17  47
DOCKED: TORSDOF 12
DOCKED: TER
DOCKED: ENDMDL
________________________________________________________________________________


	BEGINNING GENETIC ALGORITHM DOCKING 76 of 100
Run: 76 Seed: 2055948411 791026644 [ Run 76 of 100 GA/GALS ]
Beginning LAMARCKIAN GENETIC ALGORITHM (LGA), with a maximum of 25000000 energy evaluations.

Final-Value: -8.233


	FINAL GENETIC ALGORITHM DOCKED STATE
	_______________________________________________


Detailed state:  trans 1.380 15.007 -10.239 quatxyzw -0.377229 0.890468 0.241607 -0.079941 center 8.781 34.984 -0.736 ntor 12 -121.9499 97.2941 62.0557 119.2574 115.5627 165.7318 70.1029 -180.0000 -56.5048 61.2735 -31.5861 -178.6067
State:	  1.380  15.007 -10.239  -0.378  0.893  0.242 -170.830   -121.95   97.29   62.06  119.26  115.56  165.73   70.10 -180.00  -56.50   61.27  -31.59 -178.61

DOCKED: MODEL       76
DOCKED: USER    Run = 76
DOCKED: USER    DPF = D:/Protein_go_brrr/autodock/final/mut_Y35F/heme_Co/dock.dpf
DOCKED: USER  
DOCKED: USER    Estimated Free Energy of Binding    =   -3.99 kcal/mol  [=(1)+(2)+(3)-(4)]
DOCKED: USER    Estimated Inhibition Constant, Ki   =    1.19 mM (millimolar)  [Temperature = 298.15 K]
DOCKED: USER    
DOCKED: USER    (1) Final Intermolecular Energy     =   -7.57 kcal/mol
DOCKED: USER        vdW + Hbond + desolv Energy     =   -6.49 kcal/mol
DOCKED: USER        Electrostatic Energy            =   -1.08 kcal/mol
DOCKED: USER    (2) Final Total Internal Energy     =   -0.66 kcal/mol
DOCKED: USER    (3) Torsional Free Energy           =   +3.58 kcal/mol
DOCKED: USER    (4) Unbound System's Energy  [=(2)] =   -0.66 kcal/mol
DOCKED: USER    
DOCKED: USER    
DOCKED: USER    NEWDPF move heme_Co_opt.pdbqt
DOCKED: USER    NEWDPF about 8.781000 34.984000 -0.736000
DOCKED: USER    NEWDPF tran0 1.379638 15.006657 -10.238765
DOCKED: USER    NEWDPF quaternion0 -0.377229 0.890468 0.241607 -0.079941
DOCKED: USER    NEWDPF axisangle0 -0.378440 0.893327 0.242383 -170.829666
DOCKED: USER    NEWDPF quat0 -0.378440 0.893327 0.242383 -170.829666
DOCKED: USER    NEWDPF dihe0 -121.95 97.29 62.06 119.26 115.56 165.73 70.10 -180.00 -56.50 61.27 -31.59 -178.61 
DOCKED: USER  keepresnum = 1 
DOCKED: USER  
DOCKED: REMARK  12 active torsions:
DOCKED: REMARK  status: ('A' for Active; 'I' for Inactive)
DOCKED: REMARK    1  A    between atoms: C_6  and  C_10 
DOCKED: REMARK    2  A    between atoms: C_10  and  C_11 
DOCKED: REMARK    3  A    between atoms: C_11  and  C_12 
DOCKED: REMARK    4  A    between atoms: C_12  and  O_14 
DOCKED: REMARK    5  A    between atoms: C_17  and  C_20 
DOCKED: REMARK    6  A    between atoms: C_24  and  C_27 
DOCKED: REMARK    7  A    between atoms: C_31  and  C_34 
DOCKED: REMARK    8  A    between atoms: C_34  and  C_35 
DOCKED: REMARK    9  A    between atoms: C_35  and  C_36 
DOCKED: REMARK   10  A    between atoms: C_36  and  O_38 
DOCKED: REMARK   11  A    between atoms: FE_43  and  C_44 
DOCKED: REMARK   12  A    between atoms: C_44  and  O_45 
DOCKED: USER                              x       y       z     vdW  Elec       q    Type
DOCKED: USER                           _______ _______ _______ _____ _____    ______ ____
DOCKED: ROOT
DOCKED: ATOM      1  C   UNL d   1       2.419  16.114  -8.686 -0.22 +0.01    +0.064 A 
DOCKED: ATOM      2  C   UNL d   1       3.275  15.556 -13.330 -0.13 +0.00    +0.064 C 
DOCKED: ATOM      3  C   UNL d   1      -0.344  12.455 -13.664 -0.11 -0.00    +0.064 A 
DOCKED: ATOM      4  C   UNL d   1      -1.480  13.300  -9.010 -0.21 -0.01    +0.064 A 
DOCKED: ATOM      5  C   UNL d   1       2.941  16.162  -9.923 -0.18 +0.01    +0.066 A 
DOCKED: ATOM      6  C   UNL d   1       3.998  17.031 -10.254 -0.14 -0.00    -0.021 A 
DOCKED: ATOM      7  C   UNL d   1       4.227  16.882 -11.608 -0.11 -0.00    -0.025 A 
DOCKED: ATOM      8  C   UNL d   1       3.312  15.917 -12.041 -0.16 +0.00    +0.066 A 
DOCKED: ATOM      9  C   UNL d   1       5.264  17.614 -12.474 -0.05 +0.00    +0.051 C 
DOCKED: ATOM     10  C   UNL d   1       2.386  14.554 -13.863 -0.12 -0.00    +0.066 A 
DOCKED: ATOM     11  C   UNL d   1       2.393  14.031 -15.174 -0.08 +0.00    -0.021 A 
DOCKED: ATOM     12  C   UNL d   1       1.330  13.126 -15.243 -0.10 -0.00    +0.000 A 
DOCKED: ATOM     13  C   UNL d   1       0.763  13.154 -13.968 -0.12 -0.00    +0.070 A 
DOCKED: ATOM     14  C   UNL d   1       3.415  14.319 -16.244 -0.04 -0.00    +0.052 C 
DOCKED: ATOM     15  C   UNL d   1      -1.090  12.408 -12.421 -0.05 -0.00    +0.066 A 
DOCKED: ATOM     16  C   UNL d   1      -2.309  11.778 -12.216 -0.14 +0.00    -0.021 A 
DOCKED: ATOM     17  C   UNL d   1      -2.642  12.021 -10.876 -0.16 -0.00    +0.000 A 
DOCKED: ATOM     18  C   UNL d   1      -1.587  12.768 -10.363 -0.16 -0.01    +0.070 A 
DOCKED: ATOM     19  C   UNL d   1      -3.081  11.001 -13.259 -0.08 -0.00    +0.052 C 
DOCKED: ATOM     20  C   UNL d   1      -0.507  14.101  -8.513 -0.22 -0.02    +0.066 A 
DOCKED: ATOM     21  C   UNL d   1      -0.533  14.578  -7.205 -0.25 +0.01    -0.025 A 
DOCKED: ATOM     22  C   UNL d   1       0.594  15.369  -7.074 -0.25 +0.01    -0.021 A 
DOCKED: ATOM     23  C   UNL d   1       1.250  15.344  -8.323 -0.19 -0.00    +0.066 A 
DOCKED: ATOM     24  C   UNL d   1      -1.590  14.311  -6.136 -0.21 -0.05    +0.051 C 
DOCKED: ATOM     25  N   UNL d   1       2.507  15.448 -11.017 -0.18 -0.01    -0.248 N 
DOCKED: ATOM     26  N   UNL d   1       1.437  13.975 -13.119 -0.10 +0.00    -0.248 N 
DOCKED: ATOM     27  N   UNL d   1      -0.696  13.005 -11.319 -0.11 +0.02    -0.248 N 
DOCKED: ATOM     28  N   UNL d   1       0.586  14.580  -9.197 -0.17 +0.03    -0.248 N 
DOCKED: ATOM     29 FE   UNL d   1       0.810  14.155 -11.173 -0.06 -0.00    +0.000 Fe
DOCKED: ENDROOT
DOCKED: BRANCH   6  30
DOCKED: ATOM     30  C   UNL d   1       4.693  18.016  -9.319 -0.12 +0.01    +0.052 C 
DOCKED: BRANCH  30  31
DOCKED: ATOM     31  C   UNL d   1       5.173  17.308  -8.053 -0.20 +0.06    +0.115 C 
DOCKED: BRANCH  31  32
DOCKED: ATOM     32  C   UNL d   1       6.668  17.439  -7.850 -0.17 +0.07    +0.139 C 
DOCKED: ATOM     33  O   UNL d   1       7.430  17.012  -8.705 -0.01 -0.14    -0.650 OA
DOCKED: BRANCH  32  34
DOCKED: ATOM     34  O   UNL d   1       7.193  18.060  -6.769 -0.51 -0.55    -0.776 OA
DOCKED: ATOM     35  H   UNL d   1       7.833  18.784  -6.815 +0.03 +0.06    +0.167 HD
DOCKED: ENDBRANCH  32  34
DOCKED: ENDBRANCH  31  32
DOCKED: ENDBRANCH  30  31
DOCKED: ENDBRANCH   6  30
DOCKED: BRANCH  29  36
DOCKED: ATOM     36  C   UNL d   1      -0.299  15.857 -11.689 -0.06 -0.01    +0.190 C 
DOCKED: BRANCH  36  37
DOCKED: ATOM     37  O   UNL d   1      -0.172  17.203 -12.048 -0.00 +0.02    -0.399 OA
DOCKED: ATOM     38  H   UNL d   1       0.761  17.449 -11.793 +0.02 -0.01    +0.209 HD
DOCKED: ENDBRANCH  36  37
DOCKED: ENDBRANCH  29  36
DOCKED: BRANCH  22  39
DOCKED: ATOM     39  C   UNL d   1       0.978  16.155  -5.834 -0.20 -0.01    +0.052 C 
DOCKED: BRANCH  39  40
DOCKED: ATOM     40  C   UNL d   1       0.131  17.433  -5.717 -0.10 -0.04    +0.115 C 
DOCKED: BRANCH  40  41
DOCKED: ATOM     41  C   UNL d   1       0.938  18.710  -5.617 -0.09 +0.02    +0.139 C 
DOCKED: ATOM     42  O   UNL d   1       1.936  18.733  -4.910 -0.46 -0.49    -0.650 OA
DOCKED: BRANCH  41  43
DOCKED: ATOM     43  O   UNL d   1       0.637  19.801  -6.355 +0.03 -0.03    -0.776 OA
DOCKED: ATOM     44  H   UNL d   1      -0.166  20.319  -6.212 +0.01 -0.01    +0.167 HD
DOCKED: ENDBRANCH  41  43
DOCKED: ENDBRANCH  40  41
DOCKED: ENDBRANCH  39  40
DOCKED: ENDBRANCH  22  39
DOCKED: BRANCH  12  45
DOCKED: ATOM     45  C   UNL d   1       0.800  12.229 -16.353 -0.06 -0.00    +0.004 C 
DOCKED: ATOM     46  C   UNL d   1       0.815  10.905 -16.479 -0.07 -0.00    +0.012 C 
DOCKED: ENDBRANCH  12  45
DOCKED: BRANCH  17  47
DOCKED: ATOM     47  C   UNL d   1      -3.869  11.642 -10.114 -0.17 -0.00    +0.004 C 
DOCKED: ATOM     48  C   UNL d   1      -3.968  10.531  -9.379 -0.29 -0.00    +0.012 C 
DOCKED: ENDBRANCH  17  47
DOCKED: TORSDOF 12
DOCKED: TER
DOCKED: ENDMDL
________________________________________________________________________________


	BEGINNING GENETIC ALGORITHM DOCKING 77 of 100
Run: 77 Seed: 643253392 831073144 [ Run 77 of 100 GA/GALS ]
Beginning LAMARCKIAN GENETIC ALGORITHM (LGA), with a maximum of 25000000 energy evaluations.

Final-Value: -9.884


	FINAL GENETIC ALGORITHM DOCKED STATE
	_______________________________________________


Detailed state:  trans 9.136 14.279 -11.214 quatxyzw -0.466091 0.317552 -0.208001 -0.799159 center 8.781 34.984 -0.736 ntor 12 -133.1795 146.9854 -133.6682 86.2649 89.8368 106.7192 60.3789 85.3363 -124.0525 121.9110 176.1504 -168.1677
State:	  9.136  14.279 -11.214  -0.775  0.528 -0.346 -73.900   -133.18  146.99 -133.67   86.26   89.84  106.72   60.38   85.34 -124.05  121.91  176.15 -168.17

DOCKED: MODEL       77
DOCKED: USER    Run = 77
DOCKED: USER    DPF = D:/Protein_go_brrr/autodock/final/mut_Y35F/heme_Co/dock.dpf
DOCKED: USER  
DOCKED: USER    Estimated Free Energy of Binding    =   -2.88 kcal/mol  [=(1)+(2)+(3)-(4)]
DOCKED: USER    Estimated Inhibition Constant, Ki   =    7.73 mM (millimolar)  [Temperature = 298.15 K]
DOCKED: USER    
DOCKED: USER    (1) Final Intermolecular Energy     =   -6.46 kcal/mol
DOCKED: USER        vdW + Hbond + desolv Energy     =   -6.49 kcal/mol
DOCKED: USER        Electrostatic Energy            =   +0.02 kcal/mol
DOCKED: USER    (2) Final Total Internal Energy     =   -3.42 kcal/mol
DOCKED: USER    (3) Torsional Free Energy           =   +3.58 kcal/mol
DOCKED: USER    (4) Unbound System's Energy  [=(2)] =   -3.42 kcal/mol
DOCKED: USER    
DOCKED: USER    
DOCKED: USER    NEWDPF move heme_Co_opt.pdbqt
DOCKED: USER    NEWDPF about 8.781000 34.984000 -0.736000
DOCKED: USER    NEWDPF tran0 9.136439 14.278667 -11.213913
DOCKED: USER    NEWDPF quaternion0 -0.466091 0.317552 -0.208001 -0.799159
DOCKED: USER    NEWDPF axisangle0 -0.775371 0.528268 -0.346023 -73.900197
DOCKED: USER    NEWDPF quat0 -0.775371 0.528268 -0.346023 -73.900197
DOCKED: USER    NEWDPF dihe0 -133.18 146.99 -133.67 86.26 89.84 106.72 60.38 85.34 -124.05 121.91 176.15 -168.17 
DOCKED: USER  keepresnum = 1 
DOCKED: USER  
DOCKED: REMARK  12 active torsions:
DOCKED: REMARK  status: ('A' for Active; 'I' for Inactive)
DOCKED: REMARK    1  A    between atoms: C_6  and  C_10 
DOCKED: REMARK    2  A    between atoms: C_10  and  C_11 
DOCKED: REMARK    3  A    between atoms: C_11  and  C_12 
DOCKED: REMARK    4  A    between atoms: C_12  and  O_14 
DOCKED: REMARK    5  A    between atoms: C_17  and  C_20 
DOCKED: REMARK    6  A    between atoms: C_24  and  C_27 
DOCKED: REMARK    7  A    between atoms: C_31  and  C_34 
DOCKED: REMARK    8  A    between atoms: C_34  and  C_35 
DOCKED: REMARK    9  A    between atoms: C_35  and  C_36 
DOCKED: REMARK   10  A    between atoms: C_36  and  O_38 
DOCKED: REMARK   11  A    between atoms: FE_43  and  C_44 
DOCKED: REMARK   12  A    between atoms: C_44  and  O_45 
DOCKED: USER                              x       y       z     vdW  Elec       q    Type
DOCKED: USER                           _______ _______ _______ _____ _____    ______ ____
DOCKED: ROOT
DOCKED: ATOM      1  C   UNL d   1       7.181  15.213 -11.354 -0.18 +0.01    +0.064 A 
DOCKED: ATOM      2  C   UNL d   1      10.600  15.437  -8.057 -0.28 -0.00    +0.064 C 
DOCKED: ATOM      3  C   UNL d   1      13.144  12.153 -10.418 +0.02 -0.03    +0.064 A 
DOCKED: ATOM      4  C   UNL d   1       9.848  12.190 -13.995 -0.01 -0.00    +0.064 A 
DOCKED: ATOM      5  C   UNL d   1       7.912  15.488 -10.261 -0.14 +0.01    +0.066 A 
DOCKED: ATOM      6  C   UNL d   1       7.527  16.477  -9.334 -0.18 -0.00    -0.021 A 
DOCKED: ATOM      7  C   UNL d   1       8.534  16.554  -8.392 -0.24 -0.00    -0.025 A 
DOCKED: ATOM      8  C   UNL d   1       9.481  15.598  -8.774 -0.26 +0.00    +0.066 A 
DOCKED: ATOM      9  C   UNL d   1       8.615  17.486  -7.174 -0.16 +0.01    +0.051 C 
DOCKED: ATOM     10  C   UNL d   1      11.618  14.461  -8.358 -0.25 -0.01    +0.066 A 
DOCKED: ATOM     11  C   UNL d   1      12.745  14.146  -7.567 -0.28 +0.00    -0.021 A 
DOCKED: ATOM     12  C   UNL d   1      13.467  13.184  -8.278 -0.25 -0.00    +0.000 A 
DOCKED: ATOM     13  C   UNL d   1      12.724  12.973  -9.439 -0.21 -0.02    +0.070 A 
DOCKED: ATOM     14  C   UNL d   1      13.041  14.672  -6.186 -0.33 -0.02    +0.052 C 
DOCKED: ATOM     15  C   UNL d   1      12.532  11.860 -11.699 -0.17 -0.02    +0.066 A 
DOCKED: ATOM     16  C   UNL d   1      13.091  11.115 -12.727 -0.23 +0.01    -0.021 A 
DOCKED: ATOM     17  C   UNL d   1      12.145  11.125 -13.762 -0.16 -0.00    +0.000 A 
DOCKED: ATOM     18  C   UNL d   1      11.072  11.864 -13.275 -0.10 -0.01    +0.070 A 
DOCKED: ATOM     19  C   UNL d   1      14.449  10.449 -12.690 -0.25 -0.02    +0.052 C 
DOCKED: ATOM     20  C   UNL d   1       8.829  12.979 -13.575 -0.03 +0.00    +0.066 A 
DOCKED: ATOM     21  C   UNL d   1       7.719  13.248 -14.373 -0.16 -0.00    -0.025 A 
DOCKED: ATOM     22  C   UNL d   1       6.920  14.094 -13.626 -0.20 -0.00    -0.021 A 
DOCKED: ATOM     23  C   UNL d   1       7.593  14.310 -12.405 -0.24 +0.00    +0.066 A 
DOCKED: ATOM     24  C   UNL d   1       7.443  12.740 -15.785 -0.11 -0.00    +0.051 C 
DOCKED: ATOM     25  N   UNL d   1       9.119  14.919  -9.925 -0.18 -0.00    -0.248 N 
DOCKED: ATOM     26  N   UNL d   1      11.578  13.705  -9.460 -0.17 +0.04    -0.248 N 
DOCKED: ATOM     27  N   UNL d   1      11.350  12.312 -12.056 -0.16 +0.04    -0.248 N 
DOCKED: ATOM     28  N   UNL d   1       8.750  13.639 -12.371 -0.18 -0.00    -0.248 N 
DOCKED: ATOM     29 FE   UNL d   1      10.298  13.538 -11.056 -0.05 -0.00    +0.000 Fe
DOCKED: ENDROOT
DOCKED: BRANCH   6  30
DOCKED: ATOM     30  C   UNL d   1       6.284  17.359  -9.409 -0.16 +0.01    +0.052 C 
DOCKED: BRANCH  30  31
DOCKED: ATOM     31  C   UNL d   1       6.638  18.740  -9.960 -0.04 +0.01    +0.115 C 
DOCKED: BRANCH  31  32
DOCKED: ATOM     32  C   UNL d   1       7.358  18.664 -11.289 -0.02 +0.00    +0.139 C 
DOCKED: ATOM     33  O   UNL d   1       8.497  18.222 -11.331 +0.02 -0.00    -0.650 OA
DOCKED: BRANCH  32  34
DOCKED: ATOM     34  O   UNL d   1       6.763  19.025 -12.449 +0.01 -0.00    -0.776 OA
DOCKED: ATOM     35  H   UNL d   1       6.838  18.530 -13.277 +0.01 -0.00    +0.167 HD
DOCKED: ENDBRANCH  32  34
DOCKED: ENDBRANCH  31  32
DOCKED: ENDBRANCH  30  31
DOCKED: ENDBRANCH   6  30
DOCKED: BRANCH  29  36
DOCKED: ATOM     36  C   UNL d   1      11.196  15.208 -11.949 -0.04 -0.01    +0.190 C 
DOCKED: BRANCH  36  37
DOCKED: ATOM     37  O   UNL d   1      10.910  16.433 -12.562 +0.00 +0.02    -0.399 OA
DOCKED: ATOM     38  H   UNL d   1      10.094  16.769 -12.096 +0.02 -0.01    +0.209 HD
DOCKED: ENDBRANCH  36  37
DOCKED: ENDBRANCH  29  36
DOCKED: BRANCH  22  39
DOCKED: ATOM     39  C   UNL d   1       5.613  14.709 -14.092 -0.13 +0.00    +0.052 C 
DOCKED: BRANCH  39  40
DOCKED: ATOM     40  C   UNL d   1       5.861  15.706 -15.236 -0.03 -0.00    +0.115 C 
DOCKED: BRANCH  40  41
DOCKED: ATOM     41  C   UNL d   1       6.697  16.907 -14.848 -0.01 -0.00    +0.139 C 
DOCKED: ATOM     42  O   UNL d   1       6.361  18.019 -15.231 +0.00 +0.02    -0.650 OA
DOCKED: BRANCH  41  43
DOCKED: ATOM     43  O   UNL d   1       7.756  16.797 -14.016 +0.03 +0.01    -0.776 OA
DOCKED: ATOM     44  H   UNL d   1       7.856  17.345 -13.227 +0.01 -0.00    +0.167 HD
DOCKED: ENDBRANCH  41  43
DOCKED: ENDBRANCH  40  41
DOCKED: ENDBRANCH  39  40
DOCKED: ENDBRANCH  22  39
DOCKED: BRANCH  12  45
DOCKED: ATOM     45  C   UNL d   1      14.757  12.428  -7.986 -0.30 -0.00    +0.004 C 
DOCKED: ATOM     46  C   UNL d   1      14.990  11.387  -7.191 -0.45 -0.00    +0.012 C 
DOCKED: ENDBRANCH  12  45
DOCKED: BRANCH  17  47
DOCKED: ATOM     47  C   UNL d   1      12.226  10.541 -15.135 -0.12 -0.00    +0.004 C 
DOCKED: ATOM     48  C   UNL d   1      12.247   9.228 -15.377 -0.18 -0.00    +0.012 C 
DOCKED: ENDBRANCH  17  47
DOCKED: TORSDOF 12
DOCKED: TER
DOCKED: ENDMDL
________________________________________________________________________________


	BEGINNING GENETIC ALGORITHM DOCKING 78 of 100
Run: 78 Seed: 1499657427 637879771 [ Run 78 of 100 GA/GALS ]
Beginning LAMARCKIAN GENETIC ALGORITHM (LGA), with a maximum of 25000000 energy evaluations.

Final-Value: -8.825


	FINAL GENETIC ALGORITHM DOCKED STATE
	_______________________________________________


Detailed state:  trans -0.940 11.094 -12.721 quatxyzw -0.499596 -0.206076 0.375904 -0.752750 center 8.781 34.984 -0.736 ntor 12 33.5434 112.6405 179.2471 106.0251 133.5910 137.1871 -32.9908 107.7516 -76.9222 115.5292 20.3890 26.5054
State:	 -0.940  11.094 -12.721  -0.759 -0.313  0.571 -82.342     33.54  112.64  179.25  106.03  133.59  137.19  -32.99  107.75  -76.92  115.53   20.39   26.51

DOCKED: MODEL       78
DOCKED: USER    Run = 78
DOCKED: USER    DPF = D:/Protein_go_brrr/autodock/final/mut_Y35F/heme_Co/dock.dpf
DOCKED: USER  
DOCKED: USER    Estimated Free Energy of Binding    =   -4.35 kcal/mol  [=(1)+(2)+(3)-(4)]
DOCKED: USER    Estimated Inhibition Constant, Ki   =  643.86 uM (micromolar)  [Temperature = 298.15 K]
DOCKED: USER    
DOCKED: USER    (1) Final Intermolecular Energy     =   -7.93 kcal/mol
DOCKED: USER        vdW + Hbond + desolv Energy     =   -7.15 kcal/mol
DOCKED: USER        Electrostatic Energy            =   -0.78 kcal/mol
DOCKED: USER    (2) Final Total Internal Energy     =   -0.89 kcal/mol
DOCKED: USER    (3) Torsional Free Energy           =   +3.58 kcal/mol
DOCKED: USER    (4) Unbound System's Energy  [=(2)] =   -0.89 kcal/mol
DOCKED: USER    
DOCKED: USER    
DOCKED: USER    NEWDPF move heme_Co_opt.pdbqt
DOCKED: USER    NEWDPF about 8.781000 34.984000 -0.736000
DOCKED: USER    NEWDPF tran0 -0.940084 11.094274 -12.720782
DOCKED: USER    NEWDPF quaternion0 -0.499596 -0.206076 0.375904 -0.752750
DOCKED: USER    NEWDPF axisangle0 -0.758912 -0.313040 0.571016 -82.341690
DOCKED: USER    NEWDPF quat0 -0.758912 -0.313040 0.571016 -82.341690
DOCKED: USER    NEWDPF dihe0 33.54 112.64 179.25 106.03 133.59 137.19 -32.99 107.75 -76.92 115.53 20.39 26.51 
DOCKED: USER  keepresnum = 1 
DOCKED: USER  
DOCKED: REMARK  12 active torsions:
DOCKED: REMARK  status: ('A' for Active; 'I' for Inactive)
DOCKED: REMARK    1  A    between atoms: C_6  and  C_10 
DOCKED: REMARK    2  A    between atoms: C_10  and  C_11 
DOCKED: REMARK    3  A    between atoms: C_11  and  C_12 
DOCKED: REMARK    4  A    between atoms: C_12  and  O_14 
DOCKED: REMARK    5  A    between atoms: C_17  and  C_20 
DOCKED: REMARK    6  A    between atoms: C_24  and  C_27 
DOCKED: REMARK    7  A    between atoms: C_31  and  C_34 
DOCKED: REMARK    8  A    between atoms: C_34  and  C_35 
DOCKED: REMARK    9  A    between atoms: C_35  and  C_36 
DOCKED: REMARK   10  A    between atoms: C_36  and  O_38 
DOCKED: REMARK   11  A    between atoms: FE_43  and  C_44 
DOCKED: REMARK   12  A    between atoms: C_44  and  O_45 
DOCKED: USER                              x       y       z     vdW  Elec       q    Type
DOCKED: USER                           _______ _______ _______ _____ _____    ______ ____
DOCKED: ROOT
DOCKED: ATOM      1  C   UNL d   1      -1.761   9.202 -13.400 -0.17 -0.00    +0.064 A 
DOCKED: ATOM      2  C   UNL d   1      -2.568  11.824  -9.517 -0.26 -0.01    +0.064 C 
DOCKED: ATOM      3  C   UNL d   1       0.883  14.866 -10.806 -0.23 -0.00    +0.064 A 
DOCKED: ATOM      4  C   UNL d   1       1.464  12.420 -14.971 -0.11 -0.00    +0.064 A 
DOCKED: ATOM      5  C   UNL d   1      -2.210   9.675 -12.226 -0.20 -0.00    +0.066 A 
DOCKED: ATOM      6  C   UNL d   1      -3.295   9.084 -11.549 -0.19 +0.00    -0.021 A 
DOCKED: ATOM      7  C   UNL d   1      -3.539   9.863 -10.434 -0.23 +0.00    -0.025 A 
DOCKED: ATOM      8  C   UNL d   1      -2.584  10.884 -10.471 -0.22 -0.01    +0.066 A 
DOCKED: ATOM      9  C   UNL d   1      -4.627   9.665  -9.368 -0.13 -0.01    +0.051 C 
DOCKED: ATOM     10  C   UNL d   1      -1.608  12.897  -9.457 -0.19 -0.01    +0.066 A 
DOCKED: ATOM     11  C   UNL d   1      -1.450  13.831  -8.409 -0.22 +0.01    -0.021 A 
DOCKED: ATOM     12  C   UNL d   1      -0.434  14.703  -8.810 -0.22 -0.00    +0.000 A 
DOCKED: ATOM     13  C   UNL d   1      -0.040  14.232 -10.062 -0.23 -0.01    +0.070 A 
DOCKED: ATOM     14  C   UNL d   1      -2.166  13.813  -7.083 -0.22 -0.03    +0.052 C 
DOCKED: ATOM     15  C   UNL d   1       1.369  14.549 -12.135 -0.17 -0.00    +0.066 A 
DOCKED: ATOM     16  C   UNL d   1       2.219  15.328 -12.908 -0.14 +0.00    -0.021 A 
DOCKED: ATOM     17  C   UNL d   1       2.388  14.628 -14.111 -0.12 -0.00    +0.000 A 
DOCKED: ATOM     18  C   UNL d   1       1.638  13.465 -13.970 -0.13 -0.00    +0.070 A 
DOCKED: ATOM     19  C   UNL d   1       2.813  16.655 -12.491 -0.09 +0.00    +0.052 C 
DOCKED: ATOM     20  C   UNL d   1       0.673  11.324 -14.890 -0.12 -0.00    +0.066 A 
DOCKED: ATOM     21  C   UNL d   1       0.561  10.409 -15.934 -0.09 +0.00    -0.025 A 
DOCKED: ATOM     22  C   UNL d   1      -0.340   9.454 -15.499 -0.11 +0.00    -0.021 A 
DOCKED: ATOM     23  C   UNL d   1      -0.746   9.844 -14.204 -0.17 -0.00    +0.066 A 
DOCKED: ATOM     24  C   UNL d   1       1.262  10.451 -17.289 -0.04 -0.00    +0.051 C 
DOCKED: ATOM     25  N   UNL d   1      -1.744  10.789 -11.567 -0.03 +0.02    -0.248 N 
DOCKED: ATOM     26  N   UNL d   1      -0.711  13.107 -10.427 -0.06 +0.03    -0.248 N 
DOCKED: ATOM     27  N   UNL d   1       1.022  13.466 -12.793 -0.05 +0.01    -0.248 N 
DOCKED: ATOM     28  N   UNL d   1      -0.137  10.977 -13.833 -0.06 +0.01    -0.248 N 
DOCKED: ATOM     29 FE   UNL d   1      -0.278  12.205 -12.219 -0.06 -0.00    +0.000 Fe
DOCKED: ENDROOT
DOCKED: BRANCH   6  30
DOCKED: ATOM     30  C   UNL d   1      -4.103   7.875 -12.006 -0.14 +0.00    +0.052 C 
DOCKED: BRANCH  30  31
DOCKED: ATOM     31  C   UNL d   1      -3.719   6.636 -11.198 -0.19 +0.01    +0.115 C 
DOCKED: BRANCH  31  32
DOCKED: ATOM     32  C   UNL d   1      -4.725   6.320 -10.112 -0.22 +0.06    +0.139 C 
DOCKED: ATOM     33  O   UNL d   1      -4.407   5.575  -9.197 -0.38 -0.37    -0.650 OA
DOCKED: BRANCH  32  34
DOCKED: ATOM     34  O   UNL d   1      -5.958   6.877 -10.092 -0.48 -0.67    -0.776 OA
DOCKED: ATOM     35  H   UNL d   1      -6.443   7.153 -10.882 +0.03 +0.07    +0.167 HD
DOCKED: ENDBRANCH  32  34
DOCKED: ENDBRANCH  31  32
DOCKED: ENDBRANCH  30  31
DOCKED: ENDBRANCH   6  30
DOCKED: BRANCH  29  36
DOCKED: ATOM     36  C   UNL d   1      -1.854  13.250 -13.124 -0.07 -0.01    +0.190 C 
DOCKED: BRANCH  36  37
DOCKED: ATOM     37  O   UNL d   1      -3.178  13.116 -13.554 -0.00 +0.02    -0.399 OA
DOCKED: ATOM     38  H   UNL d   1      -3.422  12.171 -13.345 +0.02 -0.01    +0.209 HD
DOCKED: ENDBRANCH  36  37
DOCKED: ENDBRANCH  29  36
DOCKED: BRANCH  22  39
DOCKED: ATOM     39  C   UNL d   1      -0.830   8.271 -16.312 -0.06 -0.00    +0.052 C 
DOCKED: BRANCH  39  40
DOCKED: ATOM     40  C   UNL d   1      -0.656   6.962 -15.525 -0.12 -0.01    +0.115 C 
DOCKED: BRANCH  40  41
DOCKED: ATOM     41  C   UNL d   1       0.784   6.526 -15.349 -0.21 -0.01    +0.139 C 
DOCKED: ATOM     42  O   UNL d   1       1.168   5.497 -15.887 -0.02 +0.05    -0.650 OA
DOCKED: BRANCH  41  43
DOCKED: ATOM     43  O   UNL d   1       1.680   7.288 -14.684 +0.00 +0.20    -0.776 OA
DOCKED: ATOM     44  H   UNL d   1       2.618   7.061 -14.632 -0.50 -0.09    +0.167 HD
DOCKED: ENDBRANCH  41  43
DOCKED: ENDBRANCH  40  41
DOCKED: ENDBRANCH  39  40
DOCKED: ENDBRANCH  22  39
DOCKED: BRANCH  12  45
DOCKED: ATOM     45  C   UNL d   1       0.218  15.910  -8.149 -0.18 -0.00    +0.004 C 
DOCKED: ATOM     46  C   UNL d   1       1.349  16.012  -7.456 -0.27 +0.00    +0.012 C 
DOCKED: ENDBRANCH  12  45
DOCKED: BRANCH  17  47
DOCKED: ATOM     47  C   UNL d   1       3.143  15.012 -15.340 -0.06 -0.00    +0.004 C 
DOCKED: ATOM     48  C   UNL d   1       4.252  14.391 -15.749 -0.06 -0.00    +0.012 C 
DOCKED: ENDBRANCH  17  47
DOCKED: TORSDOF 12
DOCKED: TER
DOCKED: ENDMDL
________________________________________________________________________________


	BEGINNING GENETIC ALGORITHM DOCKING 79 of 100
Run: 79 Seed: 1545993752 578493390 [ Run 79 of 100 GA/GALS ]
Beginning LAMARCKIAN GENETIC ALGORITHM (LGA), with a maximum of 25000000 energy evaluations.

Final-Value: -9.540


	FINAL GENETIC ALGORITHM DOCKED STATE
	_______________________________________________


Detailed state:  trans 18.870 3.942 4.224 quatxyzw 0.389501 0.231702 0.597212 -0.661771 center 8.781 34.984 -0.736 ntor 12 -180.0000 128.7516 -90.5794 120.0177 -90.8668 131.6476 -122.7388 -180.0000 -136.0517 -47.3992 -177.6201 152.6332
State:	 18.870   3.942   4.224   0.520  0.309  0.797 -97.130   -180.00  128.75  -90.58  120.02  -90.87  131.65 -122.74 -180.00 -136.05  -47.40 -177.62  152.63

DOCKED: MODEL       79
DOCKED: USER    Run = 79
DOCKED: USER    DPF = D:/Protein_go_brrr/autodock/final/mut_Y35F/heme_Co/dock.dpf
DOCKED: USER  
DOCKED: USER    Estimated Free Energy of Binding    =   -3.82 kcal/mol  [=(1)+(2)+(3)-(4)]
DOCKED: USER    Estimated Inhibition Constant, Ki   =    1.60 mM (millimolar)  [Temperature = 298.15 K]
DOCKED: USER    
DOCKED: USER    (1) Final Intermolecular Energy     =   -7.40 kcal/mol
DOCKED: USER        vdW + Hbond + desolv Energy     =   -6.36 kcal/mol
DOCKED: USER        Electrostatic Energy            =   -1.04 kcal/mol
DOCKED: USER    (2) Final Total Internal Energy     =   -2.14 kcal/mol
DOCKED: USER    (3) Torsional Free Energy           =   +3.58 kcal/mol
DOCKED: USER    (4) Unbound System's Energy  [=(2)] =   -2.14 kcal/mol
DOCKED: USER    
DOCKED: USER    
DOCKED: USER    NEWDPF move heme_Co_opt.pdbqt
DOCKED: USER    NEWDPF about 8.781000 34.984000 -0.736000
DOCKED: USER    NEWDPF tran0 18.870171 3.942251 4.224479
DOCKED: USER    NEWDPF quaternion0 0.389501 0.231702 0.597212 -0.661771
DOCKED: USER    NEWDPF axisangle0 0.519538 0.309058 0.796595 -97.129917
DOCKED: USER    NEWDPF quat0 0.519538 0.309058 0.796595 -97.129917
DOCKED: USER    NEWDPF dihe0 -180.00 128.75 -90.58 120.02 -90.87 131.65 -122.74 -180.00 -136.05 -47.40 -177.62 152.63 
DOCKED: USER  keepresnum = 1 
DOCKED: USER  
DOCKED: REMARK  12 active torsions:
DOCKED: REMARK  status: ('A' for Active; 'I' for Inactive)
DOCKED: REMARK    1  A    between atoms: C_6  and  C_10 
DOCKED: REMARK    2  A    between atoms: C_10  and  C_11 
DOCKED: REMARK    3  A    between atoms: C_11  and  C_12 
DOCKED: REMARK    4  A    between atoms: C_12  and  O_14 
DOCKED: REMARK    5  A    between atoms: C_17  and  C_20 
DOCKED: REMARK    6  A    between atoms: C_24  and  C_27 
DOCKED: REMARK    7  A    between atoms: C_31  and  C_34 
DOCKED: REMARK    8  A    between atoms: C_34  and  C_35 
DOCKED: REMARK    9  A    between atoms: C_35  and  C_36 
DOCKED: REMARK   10  A    between atoms: C_36  and  O_38 
DOCKED: REMARK   11  A    between atoms: FE_43  and  C_44 
DOCKED: REMARK   12  A    between atoms: C_44  and  O_45 
DOCKED: USER                              x       y       z     vdW  Elec       q    Type
DOCKED: USER                           _______ _______ _______ _____ _____    ______ ____
DOCKED: ROOT
DOCKED: ATOM      1  C   UNL d   1      17.563   2.258   3.812 -0.25 +0.02    +0.064 A 
DOCKED: ATOM      2  C   UNL d   1      22.294   2.633   4.105 -0.08 +0.02    +0.064 C 
DOCKED: ATOM      3  C   UNL d   1      21.922   7.364   4.665 -0.07 +0.05    +0.064 A 
DOCKED: ATOM      4  C   UNL d   1      17.075   6.959   4.755 -0.21 +0.03    +0.064 A 
DOCKED: ATOM      5  C   UNL d   1      18.884   2.018   3.815 -0.17 +0.02    +0.066 A 
DOCKED: ATOM      6  C   UNL d   1      19.406   0.711   3.744 -0.23 -0.00    -0.021 A 
DOCKED: ATOM      7  C   UNL d   1      20.779   0.825   3.852 -0.13 -0.01    -0.025 A 
DOCKED: ATOM      8  C   UNL d   1      21.036   2.195   3.968 -0.12 +0.02    +0.066 A 
DOCKED: ATOM      9  C   UNL d   1      21.820  -0.305   3.849 -0.08 +0.01    +0.051 C 
DOCKED: ATOM     10  C   UNL d   1      22.657   4.025   4.205 -0.06 +0.03    +0.066 A 
DOCKED: ATOM     11  C   UNL d   1      23.965   4.557   4.209 -0.04 -0.01    -0.021 A 
DOCKED: ATOM     12  C   UNL d   1      23.827   5.939   4.369 -0.05 +0.00    +0.000 A 
DOCKED: ATOM     13  C   UNL d   1      22.449   6.148   4.438 -0.07 +0.05    +0.070 A 
DOCKED: ATOM     14  C   UNL d   1      25.241   3.790   3.978 -0.01 +0.01    +0.052 C 
DOCKED: ATOM     15  C   UNL d   1      20.533   7.750   4.816 -0.11 +0.05    +0.066 A 
DOCKED: ATOM     16  C   UNL d   1      20.063   9.000   5.194 -0.10 -0.01    -0.021 A 
DOCKED: ATOM     17  C   UNL d   1      18.665   8.887   5.224 -0.14 +0.00    +0.000 A 
DOCKED: ATOM     18  C   UNL d   1      18.392   7.577   4.844 -0.19 +0.04    +0.070 A 
DOCKED: ATOM     19  C   UNL d   1      20.924  10.205   5.501 -0.04 +0.01    +0.052 C 
DOCKED: ATOM     20  C   UNL d   1      16.790   5.665   4.473 -0.24 +0.03    +0.066 A 
DOCKED: ATOM     21  C   UNL d   1      15.484   5.179   4.452 -0.27 -0.01    -0.025 A 
DOCKED: ATOM     22  C   UNL d   1      15.592   3.833   4.154 -0.39 -0.01    -0.021 A 
DOCKED: ATOM     23  C   UNL d   1      16.969   3.560   4.019 -0.25 +0.02    +0.066 A 
DOCKED: ATOM     24  C   UNL d   1      14.197   5.955   4.723 -0.19 +0.01    +0.051 C 
DOCKED: ATOM     25  N   UNL d   1      19.881   2.958   3.942 -0.09 -0.12    -0.248 N 
DOCKED: ATOM     26  N   UNL d   1      21.742   4.997   4.282 +0.02 -0.20    -0.248 N 
DOCKED: ATOM     27  N   UNL d   1      19.528   6.921   4.639 -0.12 -0.21    -0.248 N 
DOCKED: ATOM     28  N   UNL d   1      17.698   4.665   4.213 -0.14 -0.12    -0.248 N 
DOCKED: ATOM     29 FE   UNL d   1      19.691   5.057   4.311 -0.05 +0.00    +0.000 Fe
DOCKED: ENDROOT
DOCKED: BRANCH   6  30
DOCKED: ATOM     30  C   UNL d   1      18.607  -0.584   3.658 -0.22 +0.01    +0.052 C 
DOCKED: BRANCH  30  31
DOCKED: ATOM     31  C   UNL d   1      18.379  -1.168   5.053 -0.10 +0.02    +0.115 C 
DOCKED: BRANCH  31  32
DOCKED: ATOM     32  C   UNL d   1      18.019  -0.107   6.071 -0.07 +0.02    +0.139 C 
DOCKED: ATOM     33  O   UNL d   1      16.874  -0.040   6.490 +0.02 -0.12    -0.650 OA
DOCKED: BRANCH  32  34
DOCKED: ATOM     34  O   UNL d   1      18.941   0.748   6.573 +0.04 -0.13    -0.776 OA
DOCKED: ATOM     35  H   UNL d   1      18.737   1.473   7.179 +0.02 +0.03    +0.167 HD
DOCKED: ENDBRANCH  32  34
DOCKED: ENDBRANCH  31  32
DOCKED: ENDBRANCH  30  31
DOCKED: ENDBRANCH   6  30
DOCKED: BRANCH  29  36
DOCKED: ATOM     36  C   UNL d   1      19.707   4.585   6.353 -0.04 +0.06    +0.190 C 
DOCKED: BRANCH  36  37
DOCKED: ATOM     37  O   UNL d   1      19.455   3.551   7.260 -0.00 -0.08    -0.399 OA
DOCKED: ATOM     38  H   UNL d   1      19.421   2.724   6.703 +0.02 +0.04    +0.209 HD
DOCKED: ENDBRANCH  36  37
DOCKED: ENDBRANCH  29  36
DOCKED: BRANCH  22  39
DOCKED: ATOM     39  C   UNL d   1      14.434   2.855   4.071 -0.50 +0.01    +0.052 C 
DOCKED: BRANCH  39  40
DOCKED: ATOM     40  C   UNL d   1      14.415   1.931   5.300 -0.34 +0.03    +0.115 C 
DOCKED: BRANCH  40  41
DOCKED: ATOM     41  C   UNL d   1      13.089   1.890   6.030 -0.37 +0.06    +0.139 C 
DOCKED: ATOM     42  O   UNL d   1      12.471   2.931   6.206 -0.49 -0.50    -0.650 OA
DOCKED: BRANCH  41  43
DOCKED: ATOM     43  O   UNL d   1      12.527   0.724   6.416 -0.00 -0.25    -0.776 OA
DOCKED: ATOM     44  H   UNL d   1      11.985   0.187   5.823 -0.27 +0.01    +0.167 HD
DOCKED: ENDBRANCH  41  43
DOCKED: ENDBRANCH  40  41
DOCKED: ENDBRANCH  39  40
DOCKED: ENDBRANCH  22  39
DOCKED: BRANCH  12  45
DOCKED: ATOM     45  C   UNL d   1      24.832   7.080   4.446 -0.02 +0.00    +0.004 C 
DOCKED: ATOM     46  C   UNL d   1      25.079   8.075   3.598 -0.01 +0.00    +0.012 C 
DOCKED: ENDBRANCH  12  45
DOCKED: BRANCH  17  47
DOCKED: ATOM     47  C   UNL d   1      17.636   9.893   5.623 -0.09 +0.00    +0.004 C 
DOCKED: ATOM     48  C   UNL d   1      16.870   9.773   6.710 -0.05 +0.00    +0.012 C 
DOCKED: ENDBRANCH  17  47
DOCKED: TORSDOF 12
DOCKED: TER
DOCKED: ENDMDL
________________________________________________________________________________


	BEGINNING GENETIC ALGORITHM DOCKING 80 of 100
Run: 80 Seed: 132391372 352856167 [ Run 80 of 100 GA/GALS ]
Beginning LAMARCKIAN GENETIC ALGORITHM (LGA), with a maximum of 25000000 energy evaluations.

Final-Value: -9.418


	FINAL GENETIC ALGORITHM DOCKED STATE
	_______________________________________________


Detailed state:  trans 4.693 5.491 -16.031 quatxyzw -0.530801 -0.684846 0.330938 -0.373786 center 8.781 34.984 -0.736 ntor 12 -103.5442 81.4079 -139.7108 130.2111 100.7125 155.0009 62.1572 128.7988 -117.1041 103.7250 165.3281 -178.4095
State:	  4.693   5.491 -16.031  -0.572 -0.738  0.357 -136.101   -103.54   81.41 -139.71  130.21  100.71  155.00   62.16  128.80 -117.10  103.72  165.33 -178.41

DOCKED: MODEL       80
DOCKED: USER    Run = 80
DOCKED: USER    DPF = D:/Protein_go_brrr/autodock/final/mut_Y35F/heme_Co/dock.dpf
DOCKED: USER  
DOCKED: USER    Estimated Free Energy of Binding    =   -2.55 kcal/mol  [=(1)+(2)+(3)-(4)]
DOCKED: USER    Estimated Inhibition Constant, Ki   =   13.56 mM (millimolar)  [Temperature = 298.15 K]
DOCKED: USER    
DOCKED: USER    (1) Final Intermolecular Energy     =   -6.13 kcal/mol
DOCKED: USER        vdW + Hbond + desolv Energy     =   -6.30 kcal/mol
DOCKED: USER        Electrostatic Energy            =   +0.17 kcal/mol
DOCKED: USER    (2) Final Total Internal Energy     =   -3.29 kcal/mol
DOCKED: USER    (3) Torsional Free Energy           =   +3.58 kcal/mol
DOCKED: USER    (4) Unbound System's Energy  [=(2)] =   -3.29 kcal/mol
DOCKED: USER    
DOCKED: USER    
DOCKED: USER    NEWDPF move heme_Co_opt.pdbqt
DOCKED: USER    NEWDPF about 8.781000 34.984000 -0.736000
DOCKED: USER    NEWDPF tran0 4.693199 5.491191 -16.031133
DOCKED: USER    NEWDPF quaternion0 -0.530801 -0.684846 0.330938 -0.373786
DOCKED: USER    NEWDPF axisangle0 -0.572283 -0.738367 0.356801 -136.101429
DOCKED: USER    NEWDPF quat0 -0.572283 -0.738367 0.356801 -136.101429
DOCKED: USER    NEWDPF dihe0 -103.54 81.41 -139.71 130.21 100.71 155.00 62.16 128.80 -117.10 103.72 165.33 -178.41 
DOCKED: USER  keepresnum = 1 
DOCKED: USER  
DOCKED: REMARK  12 active torsions:
DOCKED: REMARK  status: ('A' for Active; 'I' for Inactive)
DOCKED: REMARK    1  A    between atoms: C_6  and  C_10 
DOCKED: REMARK    2  A    between atoms: C_10  and  C_11 
DOCKED: REMARK    3  A    between atoms: C_11  and  C_12 
DOCKED: REMARK    4  A    between atoms: C_12  and  O_14 
DOCKED: REMARK    5  A    between atoms: C_17  and  C_20 
DOCKED: REMARK    6  A    between atoms: C_24  and  C_27 
DOCKED: REMARK    7  A    between atoms: C_31  and  C_34 
DOCKED: REMARK    8  A    between atoms: C_34  and  C_35 
DOCKED: REMARK    9  A    between atoms: C_35  and  C_36 
DOCKED: REMARK   10  A    between atoms: C_36  and  O_38 
DOCKED: REMARK   11  A    between atoms: FE_43  and  C_44 
DOCKED: REMARK   12  A    between atoms: C_44  and  O_45 
DOCKED: USER                              x       y       z     vdW  Elec       q    Type
DOCKED: USER                           _______ _______ _______ _____ _____    ______ ____
DOCKED: ROOT
DOCKED: ATOM      1  C   UNL d   1       5.970   3.762 -16.340 -0.23 -0.01    +0.064 A 
DOCKED: ATOM      2  C   UNL d   1       1.272   4.200 -15.750 -0.03 -0.00    +0.064 C 
DOCKED: ATOM      3  C   UNL d   1       1.769   8.887 -14.965 -0.26 -0.01    +0.064 A 
DOCKED: ATOM      4  C   UNL d   1       6.521   8.533 -15.945 -0.15 -0.01    +0.064 A 
DOCKED: ATOM      5  C   UNL d   1       4.654   3.531 -16.200 -0.21 -0.00    +0.066 A 
DOCKED: ATOM      6  C   UNL d   1       4.090   2.261 -16.428 -0.13 +0.00    -0.021 A 
DOCKED: ATOM      7  C   UNL d   1       2.724   2.399 -16.278 -0.12 -0.00    -0.025 A 
DOCKED: ATOM      8  C   UNL d   1       2.515   3.742 -15.949 -0.12 -0.00    +0.066 A 
DOCKED: ATOM      9  C   UNL d   1       1.645   1.317 -16.436 -0.07 +0.00    +0.051 C 
DOCKED: ATOM     10  C   UNL d   1       0.962   5.559 -15.382 -0.17 -0.01    +0.066 A 
DOCKED: ATOM     11  C   UNL d   1      -0.306   6.067 -15.022 -0.18 +0.00    -0.021 A 
DOCKED: ATOM     12  C   UNL d   1      -0.131   7.435 -14.795 -0.22 -0.00    +0.000 A 
DOCKED: ATOM     13  C   UNL d   1       1.228   7.657 -15.020 -0.25 -0.01    +0.070 A 
DOCKED: ATOM     14  C   UNL d   1      -1.565   5.263 -14.822 -0.13 -0.00    +0.052 C 
DOCKED: ATOM     15  C   UNL d   1       3.135   9.302 -15.219 -0.25 -0.01    +0.066 A 
DOCKED: ATOM     16  C   UNL d   1       3.598  10.609 -15.288 -0.23 +0.00    -0.021 A 
DOCKED: ATOM     17  C   UNL d   1       4.967  10.512 -15.573 -0.21 -0.00    +0.000 A 
DOCKED: ATOM     18  C   UNL d   1       5.236   9.149 -15.639 -0.16 -0.01    +0.070 A 
DOCKED: ATOM     19  C   UNL d   1       2.756  11.849 -15.091 -0.15 -0.00    +0.052 C 
DOCKED: ATOM     20  C   UNL d   1       6.787   7.214 -16.099 -0.23 -0.01    +0.066 A 
DOCKED: ATOM     21  C   UNL d   1       8.057   6.746 -16.430 -0.19 +0.00    -0.025 A 
DOCKED: ATOM     22  C   UNL d   1       7.935   5.371 -16.522 -0.20 +0.00    -0.021 A 
DOCKED: ATOM     23  C   UNL d   1       6.584   5.068 -16.253 -0.24 -0.01    +0.066 A 
DOCKED: ATOM     24  C   UNL d   1       9.321   7.568 -16.666 -0.15 -0.01    +0.051 C 
DOCKED: ATOM     25  N   UNL d   1       3.694   4.466 -15.888 -0.16 +0.02    -0.248 N 
DOCKED: ATOM     26  N   UNL d   1       1.897   6.512 -15.319 -0.18 +0.05    -0.248 N 
DOCKED: ATOM     27  N   UNL d   1       4.116   8.459 -15.453 -0.15 +0.06    -0.248 N 
DOCKED: ATOM     28  N   UNL d   1       5.885   6.181 -15.999 -0.21 +0.05    -0.248 N 
DOCKED: ATOM     29 FE   UNL d   1       3.921   6.581 -15.658 -0.06 -0.00    +0.000 Fe
DOCKED: ENDROOT
DOCKED: BRANCH   6  30
DOCKED: ATOM     30  C   UNL d   1       4.834   0.998 -16.852 -0.09 +0.00    +0.052 C 
DOCKED: BRANCH  30  31
DOCKED: ATOM     31  C   UNL d   1       4.473   0.619 -18.288 -0.02 -0.00    +0.115 C 
DOCKED: BRANCH  31  32
DOCKED: ATOM     32  C   UNL d   1       4.850   1.696 -19.282 -0.01 -0.00    +0.139 C 
DOCKED: ATOM     33  O   UNL d   1       4.262   2.767 -19.259 +0.01 +0.02    -0.650 OA
DOCKED: BRANCH  32  34
DOCKED: ATOM     34  O   UNL d   1       5.856   1.531 -20.171 +0.00 +0.03    -0.776 OA
DOCKED: ATOM     35  H   UNL d   1       6.711   1.979 -20.114 +0.00 -0.01    +0.167 HD
DOCKED: ENDBRANCH  32  34
DOCKED: ENDBRANCH  31  32
DOCKED: ENDBRANCH  30  31
DOCKED: ENDBRANCH   6  30
DOCKED: BRANCH  29  36
DOCKED: ATOM     36  C   UNL d   1       3.569   6.729 -17.719 -0.06 -0.02    +0.190 C 
DOCKED: BRANCH  36  37
DOCKED: ATOM     37  O   UNL d   1       3.297   5.969 -18.861 -0.00 +0.02    -0.399 OA
DOCKED: ATOM     38  H   UNL d   1       3.762   5.099 -18.707 +0.02 -0.01    +0.209 HD
DOCKED: ENDBRANCH  36  37
DOCKED: ENDBRANCH  29  36
DOCKED: BRANCH  22  39
DOCKED: ATOM     39  C   UNL d   1       9.046   4.414 -16.912 -0.20 -0.00    +0.052 C 
DOCKED: BRANCH  39  40
DOCKED: ATOM     40  C   UNL d   1       9.282   4.447 -18.431 -0.08 -0.01    +0.115 C 
DOCKED: BRANCH  40  41
DOCKED: ATOM     41  C   UNL d   1       8.319   3.596 -19.232 -0.03 -0.01    +0.139 C 
DOCKED: ATOM     42  O   UNL d   1       8.627   2.446 -19.512 +0.01 +0.04    -0.650 OA
DOCKED: BRANCH  41  43
DOCKED: ATOM     43  O   UNL d   1       7.090   4.043 -19.572 +0.02 +0.04    -0.776 OA
DOCKED: ATOM     44  H   UNL d   1       6.293   3.508 -19.461 +0.01 -0.01    +0.167 HD
DOCKED: ENDBRANCH  41  43
DOCKED: ENDBRANCH  40  41
DOCKED: ENDBRANCH  39  40
DOCKED: ENDBRANCH  22  39
DOCKED: BRANCH  12  45
DOCKED: ATOM     45  C   UNL d   1      -1.082   8.547 -14.375 -0.20 -0.00    +0.004 C 
DOCKED: ATOM     46  C   UNL d   1      -1.046   9.369 -13.330 -0.24 -0.00    +0.012 C 
DOCKED: ENDBRANCH  12  45
DOCKED: BRANCH  17  47
DOCKED: ATOM     47  C   UNL d   1       5.968  11.592 -15.823 -0.17 -0.00    +0.004 C 
DOCKED: ATOM     48  C   UNL d   1       6.540  12.306 -14.850 -0.22 +0.00    +0.012 C 
DOCKED: ENDBRANCH  17  47
DOCKED: TORSDOF 12
DOCKED: TER
DOCKED: ENDMDL
________________________________________________________________________________


	BEGINNING GENETIC ALGORITHM DOCKING 81 of 100
Run: 81 Seed: 1879165382 1306181497 [ Run 81 of 100 GA/GALS ]
Beginning LAMARCKIAN GENETIC ALGORITHM (LGA), with a maximum of 25000000 energy evaluations.

Final-Value: -11.617


	FINAL GENETIC ALGORITHM DOCKED STATE
	_______________________________________________


Detailed state:  trans 12.141 10.809 10.631 quatxyzw 0.473125 -0.710066 -0.464203 0.237641 center 8.781 34.984 -0.736 ntor 12 119.1248 88.9964 -34.4006 127.7955 121.2646 121.1350 -128.9490 -28.9635 -123.5687 -160.4020 -177.0914 163.1753
State:	 12.141  10.809  10.631   0.487 -0.731 -0.478 152.505    119.12   89.00  -34.40  127.80  121.26  121.14 -128.95  -28.96 -123.57 -160.40 -177.09  163.18

DOCKED: MODEL       81
DOCKED: USER    Run = 81
DOCKED: USER    DPF = D:/Protein_go_brrr/autodock/final/mut_Y35F/heme_Co/dock.dpf
DOCKED: USER  
DOCKED: USER    Estimated Free Energy of Binding    =   -4.06 kcal/mol  [=(1)+(2)+(3)-(4)]
DOCKED: USER    Estimated Inhibition Constant, Ki   =    1.06 mM (millimolar)  [Temperature = 298.15 K]
DOCKED: USER    
DOCKED: USER    (1) Final Intermolecular Energy     =   -7.64 kcal/mol
DOCKED: USER        vdW + Hbond + desolv Energy     =   -4.80 kcal/mol
DOCKED: USER        Electrostatic Energy            =   -2.84 kcal/mol
DOCKED: USER    (2) Final Total Internal Energy     =   -3.98 kcal/mol
DOCKED: USER    (3) Torsional Free Energy           =   +3.58 kcal/mol
DOCKED: USER    (4) Unbound System's Energy  [=(2)] =   -3.98 kcal/mol
DOCKED: USER    
DOCKED: USER    
DOCKED: USER    NEWDPF move heme_Co_opt.pdbqt
DOCKED: USER    NEWDPF about 8.781000 34.984000 -0.736000
DOCKED: USER    NEWDPF tran0 12.140660 10.809001 10.631100
DOCKED: USER    NEWDPF quaternion0 0.473125 -0.710066 -0.464203 0.237641
DOCKED: USER    NEWDPF axisangle0 0.487079 -0.731008 -0.477893 152.505281
DOCKED: USER    NEWDPF quat0 0.487079 -0.731008 -0.477893 152.505281
DOCKED: USER    NEWDPF dihe0 119.12 89.00 -34.40 127.80 121.26 121.14 -128.95 -28.96 -123.57 -160.40 -177.09 163.18 
DOCKED: USER  keepresnum = 1 
DOCKED: USER  
DOCKED: REMARK  12 active torsions:
DOCKED: REMARK  status: ('A' for Active; 'I' for Inactive)
DOCKED: REMARK    1  A    between atoms: C_6  and  C_10 
DOCKED: REMARK    2  A    between atoms: C_10  and  C_11 
DOCKED: REMARK    3  A    between atoms: C_11  and  C_12 
DOCKED: REMARK    4  A    between atoms: C_12  and  O_14 
DOCKED: REMARK    5  A    between atoms: C_17  and  C_20 
DOCKED: REMARK    6  A    between atoms: C_24  and  C_27 
DOCKED: REMARK    7  A    between atoms: C_31  and  C_34 
DOCKED: REMARK    8  A    between atoms: C_34  and  C_35 
DOCKED: REMARK    9  A    between atoms: C_35  and  C_36 
DOCKED: REMARK   10  A    between atoms: C_36  and  O_38 
DOCKED: REMARK   11  A    between atoms: FE_43  and  C_44 
DOCKED: REMARK   12  A    between atoms: C_44  and  O_45 
DOCKED: USER                              x       y       z     vdW  Elec       q    Type
DOCKED: USER                           _______ _______ _______ _____ _____    ______ ____
DOCKED: ROOT
DOCKED: ATOM      1  C   UNL d   1      12.632  10.991  12.738 -0.03 +0.02    +0.064 A 
DOCKED: ATOM      2  C   UNL d   1      14.073  13.402   8.902 -0.03 +0.01    +0.064 C 
DOCKED: ATOM      3  C   UNL d   1      11.628  10.431   6.070 -0.09 +0.01    +0.064 A 
DOCKED: ATOM      4  C   UNL d   1       9.833   8.187   9.995 -0.06 +0.04    +0.064 A 
DOCKED: ATOM      5  C   UNL d   1      13.234  11.846  11.896 -0.03 +0.02    +0.066 A 
DOCKED: ATOM      6  C   UNL d   1      14.002  12.934  12.357 -0.01 -0.01    -0.021 A 
DOCKED: ATOM      7  C   UNL d   1      14.399  13.643  11.240 -0.01 -0.00    -0.025 A 
DOCKED: ATOM      8  C   UNL d   1      13.870  12.950  10.146 -0.02 +0.01    +0.066 A 
DOCKED: ATOM      9  C   UNL d   1      15.242  14.926  11.189 -0.00 +0.01    +0.051 C 
DOCKED: ATOM     10  C   UNL d   1      13.591  12.742   7.714 -0.04 +0.01    +0.066 A 
DOCKED: ATOM     11  C   UNL d   1      13.887  13.088   6.378 -0.04 -0.00    -0.021 A 
DOCKED: ATOM     12  C   UNL d   1      13.165  12.203   5.573 -0.09 +0.00    +0.000 A 
DOCKED: ATOM     13  C   UNL d   1      12.493  11.377   6.475 -0.08 +0.01    +0.070 A 
DOCKED: ATOM     14  C   UNL d   1      14.872  14.135   5.924 -0.02 +0.00    +0.052 C 
DOCKED: ATOM     15  C   UNL d   1      10.814   9.529   6.861 -0.14 +0.01    +0.066 A 
DOCKED: ATOM     16  C   UNL d   1       9.832   8.673   6.383 -0.20 -0.00    -0.021 A 
DOCKED: ATOM     17  C   UNL d   1       9.310   8.026   7.512 -0.25 +0.00    +0.000 A 
DOCKED: ATOM     18  C   UNL d   1      10.029   8.527   8.591 -0.17 +0.03    +0.070 A 
DOCKED: ATOM     19  C   UNL d   1       9.442   8.510   4.931 -0.30 +0.01    +0.052 C 
DOCKED: ATOM     20  C   UNL d   1      10.460   8.725  11.069 -0.11 +0.03    +0.066 A 
DOCKED: ATOM     21  C   UNL d   1      10.160   8.341  12.374 -0.11 -0.01    -0.025 A 
DOCKED: ATOM     22  C   UNL d   1      10.973   9.112  13.185 -0.06 -0.01    -0.021 A 
DOCKED: ATOM     23  C   UNL d   1      11.725   9.943  12.328 -0.05 +0.02    +0.066 A 
DOCKED: ATOM     24  C   UNL d   1       9.136   7.305  12.828 -0.13 +0.02    +0.051 C 
DOCKED: ATOM     25  N   UNL d   1      13.150  11.829  10.522 -0.02 -0.05    -0.248 N 
DOCKED: ATOM     26  N   UNL d   1      12.796  11.669   7.768 -0.04 -0.03    -0.248 N 
DOCKED: ATOM     27  N   UNL d   1      10.895   9.442   8.170 -0.10 -0.07    -0.248 N 
DOCKED: ATOM     28  N   UNL d   1      11.416   9.714  11.046 -0.05 -0.09    -0.248 N 
DOCKED: ATOM     29 FE   UNL d   1      11.955  10.563   9.279 -0.02 +0.00    +0.000 Fe
DOCKED: ENDROOT
DOCKED: BRANCH   6  30
DOCKED: ATOM     30  C   UNL d   1      14.266  13.309  13.811 -0.01 +0.01    +0.052 C 
DOCKED: BRANCH  30  31
DOCKED: ATOM     31  C   UNL d   1      13.229  14.320  14.301 -0.04 +0.06    +0.115 C 
DOCKED: BRANCH  31  32
DOCKED: ATOM     32  C   UNL d   1      11.810  13.834  14.100 +0.06 +0.17    +0.139 C 
DOCKED: ATOM     33  O   UNL d   1      11.189  13.380  15.050 -0.03 -1.25    -0.650 OA
DOCKED: BRANCH  32  34
DOCKED: ATOM     34  O   UNL d   1      11.181  13.931  12.905 -0.34 -0.96    -0.776 OA
DOCKED: ATOM     35  H   UNL d   1      10.903  13.172  12.374 +0.02 +0.16    +0.167 HD
DOCKED: ENDBRANCH  32  34
DOCKED: ENDBRANCH  31  32
DOCKED: ENDBRANCH  30  31
DOCKED: ENDBRANCH   6  30
DOCKED: BRANCH  29  36
DOCKED: ATOM     36  C   UNL d   1      10.435  11.993   9.477 -0.16 +0.05    +0.190 C 
DOCKED: BRANCH  36  37
DOCKED: ATOM     37  O   UNL d   1       9.888  12.922  10.368 -0.18 -0.16    -0.399 OA
DOCKED: ATOM     38  H   UNL d   1      10.147  12.592  11.273 +0.06 +0.12    +0.209 HD
DOCKED: ENDBRANCH  36  37
DOCKED: ENDBRANCH  29  36
DOCKED: BRANCH  22  39
DOCKED: ATOM     39  C   UNL d   1      10.973   9.093  14.702 -0.03 +0.02    +0.052 C 
DOCKED: BRANCH  39  40
DOCKED: ATOM     40  C   UNL d   1      10.075  10.210  15.260 -0.07 +0.06    +0.115 C 
DOCKED: BRANCH  40  41
DOCKED: ATOM     41  C   UNL d   1       9.153  10.839  14.236 -0.15 +0.13    +0.139 C 
DOCKED: ATOM     42  O   UNL d   1       7.952  10.621  14.298 -0.21 -0.48    -0.650 OA
DOCKED: BRANCH  41  43
DOCKED: ATOM     43  O   UNL d   1       9.611  11.708  13.307 -0.16 -0.99    -0.776 OA
DOCKED: ATOM     44  H   UNL d   1      10.386  12.266  13.455 +0.02 +0.24    +0.167 HD
DOCKED: ENDBRANCH  41  43
DOCKED: ENDBRANCH  40  41
DOCKED: ENDBRANCH  39  40
DOCKED: ENDBRANCH  22  39
DOCKED: BRANCH  12  45
DOCKED: ATOM     45  C   UNL d   1      13.047  12.031   4.064 -0.22 -0.00    +0.004 C 
DOCKED: ATOM     46  C   UNL d   1      13.344  10.994   3.285 -0.34 -0.00    +0.012 C 
DOCKED: ENDBRANCH  12  45
DOCKED: BRANCH  17  47
DOCKED: ATOM     47  C   UNL d   1       8.188   7.045   7.615 -0.36 +0.00    +0.004 C 
DOCKED: ATOM     48  C   UNL d   1       8.369   5.725   7.709 -0.30 +0.01    +0.012 C 
DOCKED: ENDBRANCH  17  47
DOCKED: TORSDOF 12
DOCKED: TER
DOCKED: ENDMDL
________________________________________________________________________________


	BEGINNING GENETIC ALGORITHM DOCKING 82 of 100
Run: 82 Seed: 130429641 752797703 [ Run 82 of 100 GA/GALS ]
Beginning LAMARCKIAN GENETIC ALGORITHM (LGA), with a maximum of 25000000 energy evaluations.

Final-Value: -10.014


	FINAL GENETIC ALGORITHM DOCKED STATE
	_______________________________________________


Detailed state:  trans -4.134 -10.825 -13.417 quatxyzw -0.104939 0.347772 0.899912 0.241247 center 8.781 34.984 -0.736 ntor 12 54.5054 67.0804 109.7583 -64.0812 -25.9062 87.5427 -136.8352 -159.6019 123.7990 -68.1099 25.3498 15.9163
State:	 -4.134 -10.825 -13.417  -0.108  0.358  0.927 152.080     54.51   67.08  109.76  -64.08  -25.91   87.54 -136.84 -159.60  123.80  -68.11   25.35   15.92

DOCKED: MODEL       82
DOCKED: USER    Run = 82
DOCKED: USER    DPF = D:/Protein_go_brrr/autodock/final/mut_Y35F/heme_Co/dock.dpf
DOCKED: USER  
DOCKED: USER    Estimated Free Energy of Binding    =   -4.14 kcal/mol  [=(1)+(2)+(3)-(4)]
DOCKED: USER    Estimated Inhibition Constant, Ki   =  922.84 uM (micromolar)  [Temperature = 298.15 K]
DOCKED: USER    
DOCKED: USER    (1) Final Intermolecular Energy     =   -7.72 kcal/mol
DOCKED: USER        vdW + Hbond + desolv Energy     =   -7.58 kcal/mol
DOCKED: USER        Electrostatic Energy            =   -0.14 kcal/mol
DOCKED: USER    (2) Final Total Internal Energy     =   -2.29 kcal/mol
DOCKED: USER    (3) Torsional Free Energy           =   +3.58 kcal/mol
DOCKED: USER    (4) Unbound System's Energy  [=(2)] =   -2.29 kcal/mol
DOCKED: USER    
DOCKED: USER    
DOCKED: USER    NEWDPF move heme_Co_opt.pdbqt
DOCKED: USER    NEWDPF about 8.781000 34.984000 -0.736000
DOCKED: USER    NEWDPF tran0 -4.134019 -10.824901 -13.416591
DOCKED: USER    NEWDPF quaternion0 -0.104939 0.347772 0.899912 0.241247
DOCKED: USER    NEWDPF axisangle0 -0.108133 0.358356 0.927302 152.079640
DOCKED: USER    NEWDPF quat0 -0.108133 0.358356 0.927302 152.079640
DOCKED: USER    NEWDPF dihe0 54.51 67.08 109.76 -64.08 -25.91 87.54 -136.84 -159.60 123.80 -68.11 25.35 15.92 
DOCKED: USER  keepresnum = 1 
DOCKED: USER  
DOCKED: REMARK  12 active torsions:
DOCKED: REMARK  status: ('A' for Active; 'I' for Inactive)
DOCKED: REMARK    1  A    between atoms: C_6  and  C_10 
DOCKED: REMARK    2  A    between atoms: C_10  and  C_11 
DOCKED: REMARK    3  A    between atoms: C_11  and  C_12 
DOCKED: REMARK    4  A    between atoms: C_12  and  O_14 
DOCKED: REMARK    5  A    between atoms: C_17  and  C_20 
DOCKED: REMARK    6  A    between atoms: C_24  and  C_27 
DOCKED: REMARK    7  A    between atoms: C_31  and  C_34 
DOCKED: REMARK    8  A    between atoms: C_34  and  C_35 
DOCKED: REMARK    9  A    between atoms: C_35  and  C_36 
DOCKED: REMARK   10  A    between atoms: C_36  and  O_38 
DOCKED: REMARK   11  A    between atoms: FE_43  and  C_44 
DOCKED: REMARK   12  A    between atoms: C_44  and  O_45 
DOCKED: USER                              x       y       z     vdW  Elec       q    Type
DOCKED: USER                           _______ _______ _______ _____ _____    ______ ____
DOCKED: ROOT
DOCKED: ATOM      1  C   UNL d   1      -1.983 -10.653 -13.664 -0.20 -0.00    +0.064 A 
DOCKED: ATOM      2  C   UNL d   1      -5.361  -7.436 -12.741 -0.16 -0.00    +0.064 C 
DOCKED: ATOM      3  C   UNL d   1      -8.736 -10.781 -13.238 -0.15 -0.00    +0.064 A 
DOCKED: ATOM      4  C   UNL d   1      -5.284 -14.161 -13.802 -0.20 +0.00    +0.064 A 
DOCKED: ATOM      5  C   UNL d   1      -2.661  -9.521 -13.411 -0.19 -0.00    +0.066 A 
DOCKED: ATOM      6  C   UNL d   1      -2.006  -8.305 -13.129 -0.23 +0.00    -0.021 A 
DOCKED: ATOM      7  C   UNL d   1      -2.991  -7.381 -12.840 -0.16 -0.00    -0.025 A 
DOCKED: ATOM      8  C   UNL d   1      -4.203  -8.066 -12.973 -0.09 -0.00    +0.066 A 
DOCKED: ATOM      9  C   UNL d   1      -2.813  -5.905 -12.451 -0.26 +0.00    +0.051 C 
DOCKED: ATOM     10  C   UNL d   1      -6.657  -8.051 -12.878 -0.13 -0.01    +0.066 A 
DOCKED: ATOM     11  C   UNL d   1      -7.911  -7.408 -12.786 -0.11 +0.00    -0.021 A 
DOCKED: ATOM     12  C   UNL d   1      -8.877  -8.406 -12.939 -0.15 -0.00    +0.000 A 
DOCKED: ATOM     13  C   UNL d   1      -8.144  -9.579 -13.125 -0.13 -0.01    +0.070 A 
DOCKED: ATOM     14  C   UNL d   1      -8.145  -5.925 -12.657 -0.04 -0.00    +0.052 C 
DOCKED: ATOM     15  C   UNL d   1      -8.135 -12.092 -13.383 -0.14 -0.00    +0.066 A 
DOCKED: ATOM     16  C   UNL d   1      -8.799 -13.310 -13.349 -0.17 -0.00    -0.021 A 
DOCKED: ATOM     17  C   UNL d   1      -7.807 -14.288 -13.508 -0.20 +0.00    +0.000 A 
DOCKED: ATOM     18  C   UNL d   1      -6.614 -13.586 -13.645 -0.18 -0.00    +0.070 A 
DOCKED: ATOM     19  C   UNL d   1     -10.290 -13.492 -13.171 -0.15 +0.00    +0.052 C 
DOCKED: ATOM     20  C   UNL d   1      -4.101 -13.503 -13.850 -0.17 +0.00    +0.066 A 
DOCKED: ATOM     21  C   UNL d   1      -2.883 -14.169 -13.967 -0.14 -0.00    -0.025 A 
DOCKED: ATOM     22  C   UNL d   1      -1.916 -13.181 -13.959 -0.18 -0.00    -0.021 A 
DOCKED: ATOM     23  C   UNL d   1      -2.596 -11.952 -13.824 -0.18 -0.00    +0.066 A 
DOCKED: ATOM     24  C   UNL d   1      -2.651 -15.674 -14.062 -0.21 +0.01    +0.051 C 
DOCKED: ATOM     25  N   UNL d   1      -4.029  -9.392 -13.332 -0.08 +0.01    -0.248 N 
DOCKED: ATOM     26  N   UNL d   1      -6.803  -9.354 -13.144 -0.05 +0.02    -0.248 N 
DOCKED: ATOM     27  N   UNL d   1      -6.843 -12.283 -13.534 -0.07 +0.01    -0.248 N 
DOCKED: ATOM     28  N   UNL d   1      -3.919 -12.142 -13.755 -0.10 +0.01    -0.248 N 
DOCKED: ATOM     29 FE   UNL d   1      -5.517 -10.925 -13.440 -0.03 -0.00    +0.000 Fe
DOCKED: ENDROOT
DOCKED: BRANCH   6  30
DOCKED: ATOM     30  C   UNL d   1      -0.500  -8.077 -13.064 -0.30 +0.00    +0.052 C 
DOCKED: BRANCH  30  31
DOCKED: ATOM     31  C   UNL d   1      -0.032  -7.234 -14.250 -0.15 +0.01    +0.115 C 
DOCKED: BRANCH  31  32
DOCKED: ATOM     32  C   UNL d   1      -0.374  -7.870 -15.581 -0.05 +0.01    +0.139 C 
DOCKED: ATOM     33  O   UNL d   1      -1.413  -7.561 -16.145 +0.03 -0.02    -0.650 OA
DOCKED: BRANCH  32  34
DOCKED: ATOM     34  O   UNL d   1       0.460  -8.740 -16.195 +0.05 -0.04    -0.776 OA
DOCKED: ATOM     35  H   UNL d   1       0.856  -9.510 -15.765 +0.03 +0.01    +0.167 HD
DOCKED: ENDBRANCH  32  34
DOCKED: ENDBRANCH  31  32
DOCKED: ENDBRANCH  30  31
DOCKED: ENDBRANCH   6  30
DOCKED: BRANCH  29  36
DOCKED: ATOM     36  C   UNL d   1      -5.294 -11.131 -11.366 -0.37 -0.04    +0.190 C 
DOCKED: BRANCH  36  37
DOCKED: ATOM     37  O   UNL d   1      -4.393 -11.537 -10.377 -0.21 +0.11    -0.399 OA
DOCKED: ATOM     38  H   UNL d   1      -4.027 -12.406 -10.704 -0.36 -0.11    +0.209 HD
DOCKED: ENDBRANCH  36  37
DOCKED: ENDBRANCH  29  36
DOCKED: BRANCH  22  39
DOCKED: ATOM     39  C   UNL d   1      -0.418 -13.416 -14.013 -0.21 -0.00    +0.052 C 
DOCKED: BRANCH  39  40
DOCKED: ATOM     40  C   UNL d   1       0.184 -12.797 -15.285 -0.08 -0.00    +0.115 C 
DOCKED: BRANCH  40  41
DOCKED: ATOM     41  C   UNL d   1       0.982 -11.532 -15.048 -0.13 +0.01    +0.139 C 
DOCKED: ATOM     42  O   UNL d   1       0.784 -10.882 -14.031 -0.46 -0.09    -0.650 OA
DOCKED: BRANCH  41  43
DOCKED: ATOM     43  O   UNL d   1       1.969 -11.147 -15.886 -0.08 -0.03    -0.776 OA
DOCKED: ATOM     44  H   UNL d   1       1.924 -10.330 -16.400 +0.02 +0.01    +0.167 HD
DOCKED: ENDBRANCH  41  43
DOCKED: ENDBRANCH  40  41
DOCKED: ENDBRANCH  39  40
DOCKED: ENDBRANCH  22  39
DOCKED: BRANCH  12  45
DOCKED: ATOM     45  C   UNL d   1     -10.400  -8.385 -12.949 -0.21 -0.00    +0.004 C 
DOCKED: ATOM     46  C   UNL d   1     -11.270  -8.211 -11.958 -0.27 -0.00    +0.012 C 
DOCKED: ENDBRANCH  12  45
DOCKED: BRANCH  17  47
DOCKED: ATOM     47  C   UNL d   1      -7.923 -15.777 -13.488 -0.26 +0.00    +0.004 C 
DOCKED: ATOM     48  C   UNL d   1      -8.592 -16.452 -12.550 -0.30 +0.00    +0.012 C 
DOCKED: ENDBRANCH  17  47
DOCKED: TORSDOF 12
DOCKED: TER
DOCKED: ENDMDL
________________________________________________________________________________


	BEGINNING GENETIC ALGORITHM DOCKING 83 of 100
Run: 83 Seed: 1995649194 664810721 [ Run 83 of 100 GA/GALS ]
Beginning LAMARCKIAN GENETIC ALGORITHM (LGA), with a maximum of 25000000 energy evaluations.

Final-Value: -10.566


	FINAL GENETIC ALGORITHM DOCKED STATE
	_______________________________________________


Detailed state:  trans 16.062 -0.133 5.914 quatxyzw 0.393393 0.256745 -0.216358 -0.855870 center 8.781 34.984 -0.736 ntor 12 35.3748 108.6532 45.2931 116.1480 101.9241 132.0315 -121.2202 -8.2840 -35.0367 -50.6559 -160.6958 -9.0109
State:	 16.062  -0.133   5.914   0.761  0.496 -0.418 -62.288     35.37  108.65   45.29  116.15  101.92  132.03 -121.22   -8.28  -35.04  -50.66 -160.70   -9.01

DOCKED: MODEL       83
DOCKED: USER    Run = 83
DOCKED: USER    DPF = D:/Protein_go_brrr/autodock/final/mut_Y35F/heme_Co/dock.dpf
DOCKED: USER  
DOCKED: USER    Estimated Free Energy of Binding    =   -5.24 kcal/mol  [=(1)+(2)+(3)-(4)]
DOCKED: USER    Estimated Inhibition Constant, Ki   =  144.33 uM (micromolar)  [Temperature = 298.15 K]
DOCKED: USER    
DOCKED: USER    (1) Final Intermolecular Energy     =   -8.82 kcal/mol
DOCKED: USER        vdW + Hbond + desolv Energy     =   -6.65 kcal/mol
DOCKED: USER        Electrostatic Energy            =   -2.17 kcal/mol
DOCKED: USER    (2) Final Total Internal Energy     =   -1.75 kcal/mol
DOCKED: USER    (3) Torsional Free Energy           =   +3.58 kcal/mol
DOCKED: USER    (4) Unbound System's Energy  [=(2)] =   -1.75 kcal/mol
DOCKED: USER    
DOCKED: USER    
DOCKED: USER    NEWDPF move heme_Co_opt.pdbqt
DOCKED: USER    NEWDPF about 8.781000 34.984000 -0.736000
DOCKED: USER    NEWDPF tran0 16.061626 -0.133471 5.913750
DOCKED: USER    NEWDPF quaternion0 0.393393 0.256745 -0.216358 -0.855870
DOCKED: USER    NEWDPF axisangle0 0.760633 0.496422 -0.418333 -62.288100
DOCKED: USER    NEWDPF quat0 0.760633 0.496422 -0.418333 -62.288100
DOCKED: USER    NEWDPF dihe0 35.37 108.65 45.29 116.15 101.92 132.03 -121.22 -8.28 -35.04 -50.66 -160.70 -9.01 
DOCKED: USER  keepresnum = 1 
DOCKED: USER  
DOCKED: REMARK  12 active torsions:
DOCKED: REMARK  status: ('A' for Active; 'I' for Inactive)
DOCKED: REMARK    1  A    between atoms: C_6  and  C_10 
DOCKED: REMARK    2  A    between atoms: C_10  and  C_11 
DOCKED: REMARK    3  A    between atoms: C_11  and  C_12 
DOCKED: REMARK    4  A    between atoms: C_12  and  O_14 
DOCKED: REMARK    5  A    between atoms: C_17  and  C_20 
DOCKED: REMARK    6  A    between atoms: C_24  and  C_27 
DOCKED: REMARK    7  A    between atoms: C_31  and  C_34 
DOCKED: REMARK    8  A    between atoms: C_34  and  C_35 
DOCKED: REMARK    9  A    between atoms: C_35  and  C_36 
DOCKED: REMARK   10  A    between atoms: C_36  and  O_38 
DOCKED: REMARK   11  A    between atoms: FE_43  and  C_44 
DOCKED: REMARK   12  A    between atoms: C_44  and  O_45 
DOCKED: USER                              x       y       z     vdW  Elec       q    Type
DOCKED: USER                           _______ _______ _______ _____ _____    ______ ____
DOCKED: ROOT
DOCKED: ATOM      1  C   UNL d   1      14.620   1.157   6.899 -0.18 +0.02    +0.064 A 
DOCKED: ATOM      2  C   UNL d   1      15.078  -3.573   6.723 -0.19 +0.02    +0.064 C 
DOCKED: ATOM      3  C   UNL d   1      18.698  -3.144   3.634 -0.14 +0.01    +0.064 A 
DOCKED: ATOM      4  C   UNL d   1      18.502   1.694   4.095 -0.22 +0.02    +0.064 A 
DOCKED: ATOM      5  C   UNL d   1      14.455  -0.168   7.050 -0.19 +0.02    +0.066 A 
DOCKED: ATOM      6  C   UNL d   1      13.516  -0.707   7.950 -0.22 -0.01    -0.021 A 
DOCKED: ATOM      7  C   UNL d   1      13.669  -2.079   7.912 -0.20 -0.01    -0.025 A 
DOCKED: ATOM      8  C   UNL d   1      14.683  -2.319   6.978 -0.18 +0.01    +0.066 A 
DOCKED: ATOM      9  C   UNL d   1      12.898  -3.136   8.717 -0.19 +0.01    +0.051 C 
DOCKED: ATOM     10  C   UNL d   1      16.094  -3.918   5.760 -0.13 +0.02    +0.066 A 
DOCKED: ATOM     11  C   UNL d   1      16.455  -5.219   5.344 -0.12 -0.01    -0.021 A 
DOCKED: ATOM     12  C   UNL d   1      17.510  -5.064   4.441 -0.08 +0.00    +0.000 A 
DOCKED: ATOM     13  C   UNL d   1      17.706  -3.685   4.362 -0.10 +0.01    +0.070 A 
DOCKED: ATOM     14  C   UNL d   1      15.762  -6.501   5.724 -0.13 +0.03    +0.052 C 
DOCKED: ATOM     15  C   UNL d   1      19.075  -1.753   3.482 -0.19 +0.01    +0.066 A 
DOCKED: ATOM     16  C   UNL d   1      20.201  -1.271   2.830 -0.19 -0.00    -0.021 A 
DOCKED: ATOM     17  C   UNL d   1      20.150   0.124   2.962 -0.26 +0.00    +0.000 A 
DOCKED: ATOM     18  C   UNL d   1      18.984   0.385   3.673 -0.25 +0.01    +0.070 A 
DOCKED: ATOM     19  C   UNL d   1      21.242  -2.120   2.134 -0.09 +0.01    +0.052 C 
DOCKED: ATOM     20  C   UNL d   1      17.417   1.967   4.860 -0.20 +0.02    +0.066 A 
DOCKED: ATOM     21  C   UNL d   1      17.076   3.265   5.230 -0.17 -0.01    -0.025 A 
DOCKED: ATOM     22  C   UNL d   1      15.944   3.144   6.015 -0.13 -0.01    -0.021 A 
DOCKED: ATOM     23  C   UNL d   1      15.656   1.765   6.096 -0.16 +0.02    +0.066 A 
DOCKED: ATOM     24  C   UNL d   1      17.803   4.558   4.871 -0.21 +0.02    +0.051 C 
DOCKED: ATOM     25  N   UNL d   1      15.184  -1.153   6.424 -0.07 -0.05    -0.248 N 
DOCKED: ATOM     26  N   UNL d   1      16.812  -2.991   5.117 +0.01 -0.05    -0.248 N 
DOCKED: ATOM     27  N   UNL d   1      18.385  -0.757   3.992 -0.12 -0.04    -0.248 N 
DOCKED: ATOM     28  N   UNL d   1      16.546   1.049   5.400 -0.05 -0.06    -0.248 N 
DOCKED: ATOM     29 FE   UNL d   1      16.879  -0.940   5.136 -0.04 +0.00    +0.000 Fe
DOCKED: ENDROOT
DOCKED: BRANCH   6  30
DOCKED: ATOM     30  C   UNL d   1      12.577   0.076   8.862 -0.14 +0.03    +0.052 C 
DOCKED: BRANCH  30  31
DOCKED: ATOM     31  C   UNL d   1      13.336   0.634  10.065 -0.11 +0.05    +0.115 C 
DOCKED: BRANCH  31  32
DOCKED: ATOM     32  C   UNL d   1      12.846   2.006  10.472 -0.02 +0.14    +0.139 C 
DOCKED: ATOM     33  O   UNL d   1      12.217   2.136  11.511 -0.10 -0.61    -0.650 OA
DOCKED: BRANCH  32  34
DOCKED: ATOM     34  O   UNL d   1      13.123   3.113   9.743 -0.57 -1.03    -0.776 OA
DOCKED: ATOM     35  H   UNL d   1      13.237   3.117   8.783 +0.02 +0.19    +0.167 HD
DOCKED: ENDBRANCH  32  34
DOCKED: ENDBRANCH  31  32
DOCKED: ENDBRANCH  30  31
DOCKED: ENDBRANCH   6  30
DOCKED: BRANCH  29  36
DOCKED: ATOM     36  C   UNL d   1      18.060  -0.996   6.867 -0.04 +0.03    +0.190 C 
DOCKED: BRANCH  36  37
DOCKED: ATOM     37  O   UNL d   1      18.024  -0.777   8.248 -0.00 -0.05    -0.399 OA
DOCKED: ATOM     38  H   UNL d   1      17.109  -0.424   8.428 +0.01 +0.03    +0.209 HD
DOCKED: ENDBRANCH  36  37
DOCKED: ENDBRANCH  29  36
DOCKED: BRANCH  22  39
DOCKED: ATOM     39  C   UNL d   1      15.222   4.289   6.702 -0.10 +0.02    +0.052 C 
DOCKED: BRANCH  39  40
DOCKED: ATOM     40  C   UNL d   1      14.096   4.833   5.808 -0.21 +0.05    +0.115 C 
DOCKED: BRANCH  40  41
DOCKED: ATOM     41  C   UNL d   1      12.726   4.825   6.455 -0.03 +0.11    +0.139 C 
DOCKED: ATOM     42  O   UNL d   1      12.049   5.843   6.434 -0.12 -0.44    -0.650 OA
DOCKED: BRANCH  41  43
DOCKED: ATOM     43  O   UNL d   1      12.195   3.699   6.979 -0.28 -0.89    -0.776 OA
DOCKED: ATOM     44  H   UNL d   1      12.671   3.146   7.613 +0.04 +0.18    +0.167 HD
DOCKED: ENDBRANCH  41  43
DOCKED: ENDBRANCH  40  41
DOCKED: ENDBRANCH  39  40
DOCKED: ENDBRANCH  22  39
DOCKED: BRANCH  12  45
DOCKED: ATOM     45  C   UNL d   1      18.339  -6.054   3.633 -0.05 +0.00    +0.004 C 
DOCKED: ATOM     46  C   UNL d   1      18.340  -6.321   2.329 -0.06 +0.00    +0.012 C 
DOCKED: ENDBRANCH  12  45
DOCKED: BRANCH  17  47
DOCKED: ATOM     47  C   UNL d   1      21.128   1.161   2.515 -0.26 +0.00    +0.004 C 
DOCKED: ATOM     48  C   UNL d   1      21.200   1.614   1.261 -0.25 +0.00    +0.012 C 
DOCKED: ENDBRANCH  17  47
DOCKED: TORSDOF 12
DOCKED: TER
DOCKED: ENDMDL
________________________________________________________________________________


	BEGINNING GENETIC ALGORITHM DOCKING 84 of 100
Run: 84 Seed: 1278578116 285025638 [ Run 84 of 100 GA/GALS ]
Beginning LAMARCKIAN GENETIC ALGORITHM (LGA), with a maximum of 25000000 energy evaluations.

Final-Value: -10.795


	FINAL GENETIC ALGORITHM DOCKED STATE
	_______________________________________________


Detailed state:  trans 14.203 11.300 4.551 quatxyzw -0.024556 0.554253 0.760032 -0.338456 center 8.781 34.984 -0.736 ntor 12 125.4023 126.8403 -7.7935 -106.7586 164.6034 128.4972 179.5077 177.0387 -108.8297 -37.9732 -15.3258 180.0000
State:	 14.203  11.300   4.551  -0.026  0.589  0.808 -140.434    125.40  126.84   -7.79 -106.76  164.60  128.50  179.51  177.04 -108.83  -37.97  -15.33  180.00

DOCKED: MODEL       84
DOCKED: USER    Run = 84
DOCKED: USER    DPF = D:/Protein_go_brrr/autodock/final/mut_Y35F/heme_Co/dock.dpf
DOCKED: USER  
DOCKED: USER    Estimated Free Energy of Binding    =   -6.34 kcal/mol  [=(1)+(2)+(3)-(4)]
DOCKED: USER    Estimated Inhibition Constant, Ki   =   22.40 uM (micromolar)  [Temperature = 298.15 K]
DOCKED: USER    
DOCKED: USER    (1) Final Intermolecular Energy     =   -9.92 kcal/mol
DOCKED: USER        vdW + Hbond + desolv Energy     =   -6.95 kcal/mol
DOCKED: USER        Electrostatic Energy            =   -2.98 kcal/mol
DOCKED: USER    (2) Final Total Internal Energy     =   -0.87 kcal/mol
DOCKED: USER    (3) Torsional Free Energy           =   +3.58 kcal/mol
DOCKED: USER    (4) Unbound System's Energy  [=(2)] =   -0.87 kcal/mol
DOCKED: USER    
DOCKED: USER    
DOCKED: USER    NEWDPF move heme_Co_opt.pdbqt
DOCKED: USER    NEWDPF about 8.781000 34.984000 -0.736000
DOCKED: USER    NEWDPF tran0 14.202687 11.299907 4.551399
DOCKED: USER    NEWDPF quaternion0 -0.024556 0.554253 0.760032 -0.338456
DOCKED: USER    NEWDPF axisangle0 -0.026097 0.589015 0.807701 -140.434364
DOCKED: USER    NEWDPF quat0 -0.026097 0.589015 0.807701 -140.434364
DOCKED: USER    NEWDPF dihe0 125.40 126.84 -7.79 -106.76 164.60 128.50 179.51 177.04 -108.83 -37.97 -15.33 180.00 
DOCKED: USER  keepresnum = 1 
DOCKED: USER  
DOCKED: REMARK  12 active torsions:
DOCKED: REMARK  status: ('A' for Active; 'I' for Inactive)
DOCKED: REMARK    1  A    between atoms: C_6  and  C_10 
DOCKED: REMARK    2  A    between atoms: C_10  and  C_11 
DOCKED: REMARK    3  A    between atoms: C_11  and  C_12 
DOCKED: REMARK    4  A    between atoms: C_12  and  O_14 
DOCKED: REMARK    5  A    between atoms: C_17  and  C_20 
DOCKED: REMARK    6  A    between atoms: C_24  and  C_27 
DOCKED: REMARK    7  A    between atoms: C_31  and  C_34 
DOCKED: REMARK    8  A    between atoms: C_34  and  C_35 
DOCKED: REMARK    9  A    between atoms: C_35  and  C_36 
DOCKED: REMARK   10  A    between atoms: C_36  and  O_38 
DOCKED: REMARK   11  A    between atoms: FE_43  and  C_44 
DOCKED: REMARK   12  A    between atoms: C_44  and  O_45 
DOCKED: USER                              x       y       z     vdW  Elec       q    Type
DOCKED: USER                           _______ _______ _______ _____ _____    ______ ____
DOCKED: ROOT
DOCKED: ATOM      1  C   UNL d   1      15.135   9.549   5.435 -0.04 +0.02    +0.064 A 
DOCKED: ATOM      2  C   UNL d   1      16.868  13.787   4.155 -0.09 +0.00    +0.064 C 
DOCKED: ATOM      3  C   UNL d   1      12.629  15.010   2.321 -0.17 -0.02    +0.064 A 
DOCKED: ATOM      4  C   UNL d   1      10.732  10.841   3.962 -0.25 -0.01    +0.064 A 
DOCKED: ATOM      5  C   UNL d   1      15.929  10.603   5.187 +0.13 +0.02    +0.066 A 
DOCKED: ATOM      6  C   UNL d   1      17.261  10.658   5.644 -0.05 -0.01    -0.021 A 
DOCKED: ATOM      7  C   UNL d   1      17.752  11.900   5.289 -0.05 -0.01    -0.025 A 
DOCKED: ATOM      8  C   UNL d   1      16.706  12.542   4.618 +0.04 +0.01    +0.066 A 
DOCKED: ATOM      9  C   UNL d   1      19.150  12.474   5.566 -0.04 +0.01    +0.051 C 
DOCKED: ATOM     10  C   UNL d   1      15.858  14.517   3.429 -0.09 -0.01    +0.066 A 
DOCKED: ATOM     11  C   UNL d   1      16.014  15.769   2.796 -0.08 +0.01    -0.021 A 
DOCKED: ATOM     12  C   UNL d   1      14.763  16.100   2.266 -0.11 -0.00    +0.000 A 
DOCKED: ATOM     13  C   UNL d   1      13.943  15.023   2.603 -0.12 -0.02    +0.070 A 
DOCKED: ATOM     14  C   UNL d   1      17.302  16.535   2.637 -0.05 -0.01    +0.052 C 
DOCKED: ATOM     15  C   UNL d   1      11.630  14.009   2.640 -0.23 -0.01    +0.066 A 
DOCKED: ATOM     16  C   UNL d   1      10.260  14.123   2.447 -0.38 +0.00    -0.021 A 
DOCKED: ATOM     17  C   UNL d   1       9.708  12.924   2.921 -0.38 -0.00    +0.000 A 
DOCKED: ATOM     18  C   UNL d   1      10.791  12.164   3.351 -0.09 -0.01    +0.070 A 
DOCKED: ATOM     19  C   UNL d   1       9.555  15.318   1.846 -0.41 -0.01    +0.052 C 
DOCKED: ATOM     20  C   UNL d   1      11.762  10.120   4.467 -0.20 +0.00    +0.066 A 
DOCKED: ATOM     21  C   UNL d   1      11.575   8.875   5.062 -0.20 -0.00    -0.025 A 
DOCKED: ATOM     22  C   UNL d   1      12.831   8.465   5.471 -0.15 -0.00    -0.021 A 
DOCKED: ATOM     23  C   UNL d   1      13.727   9.494   5.112 -0.13 +0.01    +0.066 A 
DOCKED: ATOM     24  C   UNL d   1      10.262   8.120   5.252 -0.24 +0.01    +0.051 C 
DOCKED: ATOM     25  N   UNL d   1      15.566  11.759   4.535 -0.03 -0.06    -0.248 N 
DOCKED: ATOM     26  N   UNL d   1      14.620  14.041   3.257 -0.07 +0.03    -0.248 N 
DOCKED: ATOM     27  N   UNL d   1      11.916  12.853   3.197 -0.14 +0.05    -0.248 N 
DOCKED: ATOM     28  N   UNL d   1      13.083  10.499   4.506 -0.10 -0.02    -0.248 N 
DOCKED: ATOM     29 FE   UNL d   1      13.631  12.335   3.827 -0.04 -0.00    +0.000 Fe
DOCKED: ENDROOT
DOCKED: BRANCH   6  30
DOCKED: ATOM     30  C   UNL d   1      17.990   9.592   6.455 -0.05 +0.01    +0.052 C 
DOCKED: BRANCH  30  31
DOCKED: ATOM     31  C   UNL d   1      18.237   8.346   5.605 -0.11 +0.04    +0.115 C 
DOCKED: BRANCH  31  32
DOCKED: ATOM     32  C   UNL d   1      19.257   8.586   4.513 -0.19 +0.09    +0.139 C 
DOCKED: ATOM     33  O   UNL d   1      20.328   9.102   4.794 -0.01 -0.36    -0.650 OA
DOCKED: BRANCH  32  34
DOCKED: ATOM     34  O   UNL d   1      19.042   8.201   3.233 -0.53 -1.06    -0.776 OA
DOCKED: ATOM     35  H   UNL d   1      19.041   8.804   2.477 -0.40 +0.19    +0.167 HD
DOCKED: ENDBRANCH  32  34
DOCKED: ENDBRANCH  31  32
DOCKED: ENDBRANCH  30  31
DOCKED: ENDBRANCH   6  30
DOCKED: BRANCH  29  36
DOCKED: ATOM     36  C   UNL d   1      13.306  13.160   5.726 -0.05 +0.00    +0.190 C 
DOCKED: BRANCH  36  37
DOCKED: ATOM     37  O   UNL d   1      13.686  13.052   7.068 -0.01 -0.02    -0.399 OA
DOCKED: ATOM     38  H   UNL d   1      14.500  12.475   7.059 +0.02 +0.02    +0.209 HD
DOCKED: ENDBRANCH  36  37
DOCKED: ENDBRANCH  29  36
DOCKED: BRANCH  22  39
DOCKED: ATOM     39  C   UNL d   1      13.137   7.183   6.223 -0.14 +0.02    +0.052 C 
DOCKED: BRANCH  39  40
DOCKED: ATOM     40  C   UNL d   1      12.788   7.331   7.713 -0.07 +0.05    +0.115 C 
DOCKED: BRANCH  40  41
DOCKED: ATOM     41  C   UNL d   1      12.067   6.140   8.308 -0.04 +0.16    +0.139 C 
DOCKED: ATOM     42  O   UNL d   1      11.146   5.628   7.687 -0.43 -1.11    -0.650 OA
DOCKED: BRANCH  41  43
DOCKED: ATOM     43  O   UNL d   1      12.468   5.572   9.466 -0.04 -1.10    -0.776 OA
DOCKED: ATOM     44  H   UNL d   1      13.240   5.883   9.957 +0.01 +0.14    +0.167 HD
DOCKED: ENDBRANCH  41  43
DOCKED: ENDBRANCH  40  41
DOCKED: ENDBRANCH  39  40
DOCKED: ENDBRANCH  22  39
DOCKED: BRANCH  12  45
DOCKED: ATOM     45  C   UNL d   1      14.256  17.294   1.469 -0.09 -0.00    +0.004 C 
DOCKED: ATOM     46  C   UNL d   1      13.358  18.225   1.780 -0.07 -0.01    +0.012 C 
DOCKED: ENDBRANCH  12  45
DOCKED: BRANCH  17  47
DOCKED: ATOM     47  C   UNL d   1       8.278  12.508   3.026 -0.46 -0.00    +0.004 C 
DOCKED: ATOM     48  C   UNL d   1       7.854  11.262   2.803 -0.51 -0.00    +0.012 C 
DOCKED: ENDBRANCH  17  47
DOCKED: TORSDOF 12
DOCKED: TER
DOCKED: ENDMDL
________________________________________________________________________________


	BEGINNING GENETIC ALGORITHM DOCKING 85 of 100
Run: 85 Seed: 199692445 548544114 [ Run 85 of 100 GA/GALS ]
Beginning LAMARCKIAN GENETIC ALGORITHM (LGA), with a maximum of 25000000 energy evaluations.

Final-Value: -10.474


	FINAL GENETIC ALGORITHM DOCKED STATE
	_______________________________________________


Detailed state:  trans 16.010 -0.195 5.952 quatxyzw 0.397746 0.263613 -0.189815 -0.858065 center 8.781 34.984 -0.736 ntor 12 -151.2172 105.0550 -30.3095 116.9820 79.2344 127.4805 43.8264 -162.5066 144.8659 -43.5791 -145.5334 14.7754
State:	 16.010  -0.195   5.952   0.775  0.513 -0.370 -61.800   -151.22  105.06  -30.31  116.98   79.23  127.48   43.83 -162.51  144.87  -43.58 -145.53   14.78

DOCKED: MODEL       85
DOCKED: USER    Run = 85
DOCKED: USER    DPF = D:/Protein_go_brrr/autodock/final/mut_Y35F/heme_Co/dock.dpf
DOCKED: USER  
DOCKED: USER    Estimated Free Energy of Binding    =   -4.63 kcal/mol  [=(1)+(2)+(3)-(4)]
DOCKED: USER    Estimated Inhibition Constant, Ki   =  406.80 uM (micromolar)  [Temperature = 298.15 K]
DOCKED: USER    
DOCKED: USER    (1) Final Intermolecular Energy     =   -8.21 kcal/mol
DOCKED: USER        vdW + Hbond + desolv Energy     =   -6.24 kcal/mol
DOCKED: USER        Electrostatic Energy            =   -1.97 kcal/mol
DOCKED: USER    (2) Final Total Internal Energy     =   -2.27 kcal/mol
DOCKED: USER    (3) Torsional Free Energy           =   +3.58 kcal/mol
DOCKED: USER    (4) Unbound System's Energy  [=(2)] =   -2.27 kcal/mol
DOCKED: USER    
DOCKED: USER    
DOCKED: USER    NEWDPF move heme_Co_opt.pdbqt
DOCKED: USER    NEWDPF about 8.781000 34.984000 -0.736000
DOCKED: USER    NEWDPF tran0 16.010484 -0.194959 5.951772
DOCKED: USER    NEWDPF quaternion0 0.397746 0.263613 -0.189815 -0.858065
DOCKED: USER    NEWDPF axisangle0 0.774518 0.513325 -0.369621 -61.799903
DOCKED: USER    NEWDPF quat0 0.774518 0.513325 -0.369621 -61.799903
DOCKED: USER    NEWDPF dihe0 -151.22 105.06 -30.31 116.98 79.23 127.48 43.83 -162.51 144.87 -43.58 -145.53 14.78 
DOCKED: USER  keepresnum = 1 
DOCKED: USER  
DOCKED: REMARK  12 active torsions:
DOCKED: REMARK  status: ('A' for Active; 'I' for Inactive)
DOCKED: REMARK    1  A    between atoms: C_6  and  C_10 
DOCKED: REMARK    2  A    between atoms: C_10  and  C_11 
DOCKED: REMARK    3  A    between atoms: C_11  and  C_12 
DOCKED: REMARK    4  A    between atoms: C_12  and  O_14 
DOCKED: REMARK    5  A    between atoms: C_17  and  C_20 
DOCKED: REMARK    6  A    between atoms: C_24  and  C_27 
DOCKED: REMARK    7  A    between atoms: C_31  and  C_34 
DOCKED: REMARK    8  A    between atoms: C_34  and  C_35 
DOCKED: REMARK    9  A    between atoms: C_35  and  C_36 
DOCKED: REMARK   10  A    between atoms: C_36  and  O_38 
DOCKED: REMARK   11  A    between atoms: FE_43  and  C_44 
DOCKED: REMARK   12  A    between atoms: C_44  and  O_45 
DOCKED: USER                              x       y       z     vdW  Elec       q    Type
DOCKED: USER                           _______ _______ _______ _____ _____    ______ ____
DOCKED: ROOT
DOCKED: ATOM      1  C   UNL d   1      14.495   1.000   6.947 -0.20 +0.02    +0.064 A 
DOCKED: ATOM      2  C   UNL d   1      15.190  -3.696   6.672 -0.19 +0.02    +0.064 C 
DOCKED: ATOM      3  C   UNL d   1      18.819  -3.019   3.640 -0.14 +0.01    +0.064 A 
DOCKED: ATOM      4  C   UNL d   1      18.378   1.792   4.205 -0.21 +0.02    +0.064 A 
DOCKED: ATOM      5  C   UNL d   1      14.395  -0.334   7.066 -0.20 +0.01    +0.066 A 
DOCKED: ATOM      6  C   UNL d   1      13.473  -0.939   7.943 -0.22 -0.01    -0.021 A 
DOCKED: ATOM      7  C   UNL d   1      13.694  -2.301   7.876 -0.20 -0.01    -0.025 A 
DOCKED: ATOM      8  C   UNL d   1      14.730  -2.469   6.950 -0.18 +0.01    +0.066 A 
DOCKED: ATOM      9  C   UNL d   1      12.968  -3.413   8.648 -0.18 +0.01    +0.051 C 
DOCKED: ATOM     10  C   UNL d   1      16.233  -3.969   5.715 -0.12 +0.02    +0.066 A 
DOCKED: ATOM     11  C   UNL d   1      16.663  -5.240   5.276 -0.10 -0.01    -0.021 A 
DOCKED: ATOM     12  C   UNL d   1      17.719  -5.013   4.389 -0.08 +0.00    +0.000 A 
DOCKED: ATOM     13  C   UNL d   1      17.847  -3.625   4.344 -0.10 +0.01    +0.070 A 
DOCKED: ATOM     14  C   UNL d   1      16.029  -6.564   5.619 -0.13 +0.03    +0.052 C 
DOCKED: ATOM     15  C   UNL d   1      19.128  -1.608   3.524 -0.19 +0.01    +0.066 A 
DOCKED: ATOM     16  C   UNL d   1      20.237  -1.057   2.896 -0.20 -0.00    -0.021 A 
DOCKED: ATOM     17  C   UNL d   1      20.115   0.331   3.059 -0.26 +0.00    +0.000 A 
DOCKED: ATOM     18  C   UNL d   1      18.929   0.518   3.760 -0.24 +0.02    +0.070 A 
DOCKED: ATOM     19  C   UNL d   1      21.326  -1.837   2.196 -0.09 +0.01    +0.052 C 
DOCKED: ATOM     20  C   UNL d   1      17.272   1.993   4.962 -0.19 +0.02    +0.066 A 
DOCKED: ATOM     21  C   UNL d   1      16.863   3.264   5.356 -0.16 -0.01    -0.025 A 
DOCKED: ATOM     22  C   UNL d   1      15.729   3.070   6.124 -0.13 -0.01    -0.021 A 
DOCKED: ATOM     23  C   UNL d   1      15.509   1.677   6.170 -0.16 +0.02    +0.066 A 
DOCKED: ATOM     24  C   UNL d   1      17.529   4.599   5.035 -0.20 +0.02    +0.051 C 
DOCKED: ATOM     25  N   UNL d   1      15.179  -1.268   6.428 -0.08 -0.05    -0.248 N 
DOCKED: ATOM     26  N   UNL d   1      16.911  -2.993   5.102 -0.00 -0.05    -0.248 N 
DOCKED: ATOM     27  N   UNL d   1      18.384  -0.659   4.046 -0.12 -0.04    -0.248 N 
DOCKED: ATOM     28  N   UNL d   1      16.442   1.021   5.470 -0.05 -0.06    -0.248 N 
DOCKED: ATOM     29 FE   UNL d   1      16.876  -0.942   5.167 -0.04 +0.00    +0.000 Fe
DOCKED: ENDROOT
DOCKED: BRANCH   6  30
DOCKED: ATOM     30  C   UNL d   1      12.485  -0.224   8.859 -0.18 +0.02    +0.052 C 
DOCKED: BRANCH  30  31
DOCKED: ATOM     31  C   UNL d   1      13.227   0.652   9.869 -0.12 +0.06    +0.115 C 
DOCKED: BRANCH  31  32
DOCKED: ATOM     32  C   UNL d   1      14.514   0.017  10.349 -0.03 +0.04    +0.139 C 
DOCKED: ATOM     33  O   UNL d   1      14.485  -0.766  11.286 +0.02 -0.13    -0.650 OA
DOCKED: BRANCH  32  34
DOCKED: ATOM     34  O   UNL d   1      15.700   0.251   9.740 +0.03 -0.16    -0.776 OA
DOCKED: ATOM     35  H   UNL d   1      16.455  -0.353   9.769 +0.01 +0.03    +0.167 HD
DOCKED: ENDBRANCH  32  34
DOCKED: ENDBRANCH  31  32
DOCKED: ENDBRANCH  30  31
DOCKED: ENDBRANCH   6  30
DOCKED: BRANCH  29  36
DOCKED: ATOM     36  C   UNL d   1      18.038  -0.979   6.911 -0.04 +0.03    +0.190 C 
DOCKED: BRANCH  36  37
DOCKED: ATOM     37  O   UNL d   1      17.992  -0.729   8.286 -0.00 -0.05    -0.399 OA
DOCKED: ATOM     38  H   UNL d   1      17.103  -0.302   8.440 +0.01 +0.03    +0.209 HD
DOCKED: ENDBRANCH  36  37
DOCKED: ENDBRANCH  29  36
DOCKED: BRANCH  22  39
DOCKED: ATOM     39  C   UNL d   1      14.943   4.161   6.826 -0.11 +0.02    +0.052 C 
DOCKED: BRANCH  39  40
DOCKED: ATOM     40  C   UNL d   1      13.520   4.260   6.253 -0.16 +0.07    +0.115 C 
DOCKED: BRANCH  40  41
DOCKED: ATOM     41  C   UNL d   1      12.425   4.279   7.299 -0.14 +0.16    +0.139 C 
DOCKED: ATOM     42  O   UNL d   1      12.638   3.784   8.397 -0.15 -1.09    -0.650 OA
DOCKED: BRANCH  41  43
DOCKED: ATOM     43  O   UNL d   1      11.247   4.905   7.084 -0.45 -1.16    -0.776 OA
DOCKED: ATOM     44  H   UNL d   1      11.151   5.626   6.448 +0.05 +0.14    +0.167 HD
DOCKED: ENDBRANCH  41  43
DOCKED: ENDBRANCH  40  41
DOCKED: ENDBRANCH  39  40
DOCKED: ENDBRANCH  22  39
DOCKED: BRANCH  12  45
DOCKED: ATOM     45  C   UNL d   1      18.605  -5.942   3.570 -0.05 +0.00    +0.004 C 
DOCKED: ATOM     46  C   UNL d   1      18.644  -6.169   2.260 -0.06 +0.00    +0.012 C 
DOCKED: ENDBRANCH  12  45
DOCKED: BRANCH  17  47
DOCKED: ATOM     47  C   UNL d   1      21.045   1.425   2.647 -0.25 +0.00    +0.004 C 
DOCKED: ATOM     48  C   UNL d   1      21.439   1.622   1.387 -0.26 +0.00    +0.012 C 
DOCKED: ENDBRANCH  17  47
DOCKED: TORSDOF 12
DOCKED: TER
DOCKED: ENDMDL
________________________________________________________________________________


	BEGINNING GENETIC ALGORITHM DOCKING 86 of 100
Run: 86 Seed: 457202219 1003278036 [ Run 86 of 100 GA/GALS ]
Beginning LAMARCKIAN GENETIC ALGORITHM (LGA), with a maximum of 25000000 energy evaluations.

Final-Value: -10.347


	FINAL GENETIC ALGORITHM DOCKED STATE
	_______________________________________________


Detailed state:  trans 18.374 5.638 4.607 quatxyzw -0.525764 0.011597 0.038565 0.849677 center 8.781 34.984 -0.736 ntor 12 9.6785 141.8899 136.2210 97.8652 -87.6018 84.5435 176.3882 -35.6239 65.1069 -152.8584 -157.0647 155.6309
State:	 18.374   5.638   4.607  -0.997  0.022  0.073 63.647      9.68  141.89  136.22   97.87  -87.60   84.54  176.39  -35.62   65.11 -152.86 -157.06  155.63

DOCKED: MODEL       86
DOCKED: USER    Run = 86
DOCKED: USER    DPF = D:/Protein_go_brrr/autodock/final/mut_Y35F/heme_Co/dock.dpf
DOCKED: USER  
DOCKED: USER    Estimated Free Energy of Binding    =   -4.54 kcal/mol  [=(1)+(2)+(3)-(4)]
DOCKED: USER    Estimated Inhibition Constant, Ki   =  470.05 uM (micromolar)  [Temperature = 298.15 K]
DOCKED: USER    
DOCKED: USER    (1) Final Intermolecular Energy     =   -8.12 kcal/mol
DOCKED: USER        vdW + Hbond + desolv Energy     =   -6.32 kcal/mol
DOCKED: USER        Electrostatic Energy            =   -1.80 kcal/mol
DOCKED: USER    (2) Final Total Internal Energy     =   -2.23 kcal/mol
DOCKED: USER    (3) Torsional Free Energy           =   +3.58 kcal/mol
DOCKED: USER    (4) Unbound System's Energy  [=(2)] =   -2.23 kcal/mol
DOCKED: USER    
DOCKED: USER    
DOCKED: USER    NEWDPF move heme_Co_opt.pdbqt
DOCKED: USER    NEWDPF about 8.781000 34.984000 -0.736000
DOCKED: USER    NEWDPF tran0 18.373832 5.637759 4.606847
DOCKED: USER    NEWDPF quaternion0 -0.525764 0.011597 0.038565 0.849677
DOCKED: USER    NEWDPF axisangle0 -0.997079 0.021993 0.073137 63.646956
DOCKED: USER    NEWDPF quat0 -0.997079 0.021993 0.073137 63.646956
DOCKED: USER    NEWDPF dihe0 9.68 141.89 136.22 97.87 -87.60 84.54 176.39 -35.62 65.11 -152.86 -157.06 155.63 
DOCKED: USER  keepresnum = 1 
DOCKED: USER  
DOCKED: REMARK  12 active torsions:
DOCKED: REMARK  status: ('A' for Active; 'I' for Inactive)
DOCKED: REMARK    1  A    between atoms: C_6  and  C_10 
DOCKED: REMARK    2  A    between atoms: C_10  and  C_11 
DOCKED: REMARK    3  A    between atoms: C_11  and  C_12 
DOCKED: REMARK    4  A    between atoms: C_12  and  O_14 
DOCKED: REMARK    5  A    between atoms: C_17  and  C_20 
DOCKED: REMARK    6  A    between atoms: C_24  and  C_27 
DOCKED: REMARK    7  A    between atoms: C_31  and  C_34 
DOCKED: REMARK    8  A    between atoms: C_34  and  C_35 
DOCKED: REMARK    9  A    between atoms: C_35  and  C_36 
DOCKED: REMARK   10  A    between atoms: C_36  and  O_38 
DOCKED: REMARK   11  A    between atoms: FE_43  and  C_44 
DOCKED: REMARK   12  A    between atoms: C_44  and  O_45 
DOCKED: USER                              x       y       z     vdW  Elec       q    Type
DOCKED: USER                           _______ _______ _______ _____ _____    ______ ____
DOCKED: ROOT
DOCKED: ATOM      1  C   UNL d   1      16.523   6.768   4.714 -0.21 +0.02    +0.064 A 
DOCKED: ATOM      2  C   UNL d   1      17.411   2.155   3.977 -0.31 +0.02    +0.064 C 
DOCKED: ATOM      3  C   UNL d   1      22.108   3.029   3.924 -0.09 +0.03    +0.064 A 
DOCKED: ATOM      4  C   UNL d   1      21.242   7.680   5.060 -0.08 +0.04    +0.064 A 
DOCKED: ATOM      5  C   UNL d   1      16.419   5.450   4.480 -0.25 +0.02    +0.066 A 
DOCKED: ATOM      6  C   UNL d   1      15.178   4.784   4.490 -0.31 -0.01    -0.021 A 
DOCKED: ATOM      7  C   UNL d   1      15.443   3.443   4.299 -0.40 -0.01    -0.025 A 
DOCKED: ATOM      8  C   UNL d   1      16.833   3.349   4.164 -0.27 +0.02    +0.066 A 
DOCKED: ATOM      9  C   UNL d   1      14.439   2.282   4.243 -0.47 +0.01    +0.051 C 
DOCKED: ATOM     10  C   UNL d   1      18.829   1.964   3.802 -0.18 +0.02    +0.066 A 
DOCKED: ATOM     11  C   UNL d   1      19.482   0.759   3.464 -0.26 -0.01    -0.021 A 
DOCKED: ATOM     12  C   UNL d   1      20.851   1.044   3.451 -0.17 +0.00    +0.000 A 
DOCKED: ATOM     13  C   UNL d   1      20.930   2.400   3.769 -0.12 +0.03    +0.070 A 
DOCKED: ATOM     14  C   UNL d   1      18.818  -0.541   3.088 -0.28 +0.01    +0.052 C 
DOCKED: ATOM     15  C   UNL d   1      22.374   4.404   4.300 -0.06 +0.04    +0.066 A 
DOCKED: ATOM     16  C   UNL d   1      23.615   4.954   4.584 -0.04 -0.01    -0.021 A 
DOCKED: ATOM     17  C   UNL d   1      23.371   6.295   4.915 -0.04 +0.00    +0.000 A 
DOCKED: ATOM     18  C   UNL d   1      21.995   6.461   4.789 -0.07 +0.05    +0.070 A 
DOCKED: ATOM     19  C   UNL d   1      24.934   4.216   4.535 -0.01 +0.01    +0.052 C 
DOCKED: ATOM     20  C   UNL d   1      19.898   7.842   5.028 -0.12 +0.04    +0.066 A 
DOCKED: ATOM     21  C   UNL d   1      19.288   9.054   5.344 -0.11 -0.01    -0.025 A 
DOCKED: ATOM     22  C   UNL d   1      17.928   8.829   5.224 -0.14 -0.01    -0.021 A 
DOCKED: ATOM     23  C   UNL d   1      17.775   7.477   4.850 -0.20 +0.03    +0.066 A 
DOCKED: ATOM     24  C   UNL d   1      19.965  10.357   5.758 -0.05 +0.01    +0.051 C 
DOCKED: ATOM     25  N   UNL d   1      17.462   4.578   4.266 -0.15 -0.11    -0.248 N 
DOCKED: ATOM     26  N   UNL d   1      19.704   2.967   3.926 -0.09 -0.12    -0.248 N 
DOCKED: ATOM     27  N   UNL d   1      21.431   5.307   4.451 -0.06 -0.20    -0.248 N 
DOCKED: ATOM     28  N   UNL d   1      18.965   6.875   4.733 -0.13 -0.18    -0.248 N 
DOCKED: ATOM     29 FE   UNL d   1      19.564   4.968   4.364 -0.05 +0.00    +0.000 Fe
DOCKED: ENDROOT
DOCKED: BRANCH   6  30
DOCKED: ATOM     30  C   UNL d   1      13.812   5.410   4.755 -0.28 +0.02    +0.052 C 
DOCKED: BRANCH  30  31
DOCKED: ATOM     31  C   UNL d   1      13.660   5.761   6.235 -0.16 +0.05    +0.115 C 
DOCKED: BRANCH  31  32
DOCKED: ATOM     32  C   UNL d   1      12.546   4.982   6.901 -0.15 +0.12    +0.139 C 
DOCKED: ATOM     33  O   UNL d   1      12.464   3.776   6.719 -0.47 -0.63    -0.650 OA
DOCKED: BRANCH  32  34
DOCKED: ATOM     34  O   UNL d   1      11.658   5.570   7.735 -0.32 -1.14    -0.776 OA
DOCKED: ATOM     35  H   UNL d   1      11.620   6.522   7.905 +0.03 +0.16    +0.167 HD
DOCKED: ENDBRANCH  32  34
DOCKED: ENDBRANCH  31  32
DOCKED: ENDBRANCH  30  31
DOCKED: ENDBRANCH   6  30
DOCKED: BRANCH  29  36
DOCKED: ATOM     36  C   UNL d   1      19.439   4.509   6.406 -0.04 +0.06    +0.190 C 
DOCKED: BRANCH  36  37
DOCKED: ATOM     37  O   UNL d   1      18.943   4.981   7.626 +0.00 -0.09    -0.399 OA
DOCKED: ATOM     38  H   UNL d   1      18.142   5.525   7.384 +0.02 +0.05    +0.209 HD
DOCKED: ENDBRANCH  36  37
DOCKED: ENDBRANCH  29  36
DOCKED: BRANCH  22  39
DOCKED: ATOM     39  C   UNL d   1      16.840   9.845   5.518 -0.00 +0.02    +0.052 C 
DOCKED: BRANCH  39  40
DOCKED: ATOM     40  C   UNL d   1      16.184   9.558   6.879 -0.04 +0.02    +0.115 C 
DOCKED: BRANCH  40  41
DOCKED: ATOM     41  C   UNL d   1      17.035   8.732   7.822 -0.01 +0.03    +0.139 C 
DOCKED: ATOM     42  O   UNL d   1      17.622   9.288   8.739 +0.01 -0.10    -0.650 OA
DOCKED: BRANCH  41  43
DOCKED: ATOM     43  O   UNL d   1      17.093   7.385   7.730 +0.03 -0.17    -0.776 OA
DOCKED: ATOM     44  H   UNL d   1      17.908   6.890   7.884 +0.01 +0.04    +0.167 HD
DOCKED: ENDBRANCH  41  43
DOCKED: ENDBRANCH  40  41
DOCKED: ENDBRANCH  39  40
DOCKED: ENDBRANCH  22  39
DOCKED: BRANCH  12  45
DOCKED: ATOM     45  C   UNL d   1      22.084   0.200   3.158 -0.12 +0.00    +0.004 C 
DOCKED: ATOM     46  C   UNL d   1      22.718  -0.040   2.013 -0.13 +0.00    +0.012 C 
DOCKED: ENDBRANCH  12  45
DOCKED: BRANCH  17  47
DOCKED: ATOM     47  C   UNL d   1      24.320   7.354   5.369 -0.01 +0.00    +0.004 C 
DOCKED: ATOM     48  C   UNL d   1      24.347   7.837   6.613 +0.00 +0.00    +0.012 C 
DOCKED: ENDBRANCH  17  47
DOCKED: TORSDOF 12
DOCKED: TER
DOCKED: ENDMDL
________________________________________________________________________________


	BEGINNING GENETIC ALGORITHM DOCKING 87 of 100
Run: 87 Seed: 1983827679 1152025724 [ Run 87 of 100 GA/GALS ]
Beginning LAMARCKIAN GENETIC ALGORITHM (LGA), with a maximum of 25000000 energy evaluations.

Final-Value: -11.879


	FINAL GENETIC ALGORITHM DOCKED STATE
	_______________________________________________


Detailed state:  trans 14.237 11.363 4.584 quatxyzw 0.740401 0.584685 -0.284218 0.170792 center 8.781 34.984 -0.736 ntor 12 42.8047 12.1477 -38.4752 -49.3438 -85.4879 -180.0000 -154.4278 -40.2120 -63.6947 -69.5118 -1.2734 151.5228
State:	 14.237  11.363   4.584   0.751  0.593 -0.288 160.332     42.80   12.15  -38.48  -49.34  -85.49 -180.00 -154.43  -40.21  -63.69  -69.51   -1.27  151.52

DOCKED: MODEL       87
DOCKED: USER    Run = 87
DOCKED: USER    DPF = D:/Protein_go_brrr/autodock/final/mut_Y35F/heme_Co/dock.dpf
DOCKED: USER  
DOCKED: USER    Estimated Free Energy of Binding    =   -7.46 kcal/mol  [=(1)+(2)+(3)-(4)]
DOCKED: USER    Estimated Inhibition Constant, Ki   =    3.42 uM (micromolar)  [Temperature = 298.15 K]
DOCKED: USER    
DOCKED: USER    (1) Final Intermolecular Energy     =  -11.04 kcal/mol
DOCKED: USER        vdW + Hbond + desolv Energy     =   -8.28 kcal/mol
DOCKED: USER        Electrostatic Energy            =   -2.75 kcal/mol
DOCKED: USER    (2) Final Total Internal Energy     =   -0.84 kcal/mol
DOCKED: USER    (3) Torsional Free Energy           =   +3.58 kcal/mol
DOCKED: USER    (4) Unbound System's Energy  [=(2)] =   -0.84 kcal/mol
DOCKED: USER    
DOCKED: USER    
DOCKED: USER    NEWDPF move heme_Co_opt.pdbqt
DOCKED: USER    NEWDPF about 8.781000 34.984000 -0.736000
DOCKED: USER    NEWDPF tran0 14.236821 11.362551 4.584452
DOCKED: USER    NEWDPF quaternion0 0.740401 0.584685 -0.284218 0.170792
DOCKED: USER    NEWDPF axisangle0 0.751442 0.593404 -0.288456 160.332264
DOCKED: USER    NEWDPF quat0 0.751442 0.593404 -0.288456 160.332264
DOCKED: USER    NEWDPF dihe0 42.80 12.15 -38.48 -49.34 -85.49 -180.00 -154.43 -40.21 -63.69 -69.51 -1.27 151.52 
DOCKED: USER  keepresnum = 1 
DOCKED: USER  
DOCKED: REMARK  12 active torsions:
DOCKED: REMARK  status: ('A' for Active; 'I' for Inactive)
DOCKED: REMARK    1  A    between atoms: C_6  and  C_10 
DOCKED: REMARK    2  A    between atoms: C_10  and  C_11 
DOCKED: REMARK    3  A    between atoms: C_11  and  C_12 
DOCKED: REMARK    4  A    between atoms: C_12  and  O_14 
DOCKED: REMARK    5  A    between atoms: C_17  and  C_20 
DOCKED: REMARK    6  A    between atoms: C_24  and  C_27 
DOCKED: REMARK    7  A    between atoms: C_31  and  C_34 
DOCKED: REMARK    8  A    between atoms: C_34  and  C_35 
DOCKED: REMARK    9  A    between atoms: C_35  and  C_36 
DOCKED: REMARK   10  A    between atoms: C_36  and  O_38 
DOCKED: REMARK   11  A    between atoms: FE_43  and  C_44 
DOCKED: REMARK   12  A    between atoms: C_44  and  O_45 
DOCKED: USER                              x       y       z     vdW  Elec       q    Type
DOCKED: USER                           _______ _______ _______ _____ _____    ______ ____
DOCKED: ROOT
DOCKED: ATOM      1  C   UNL d   1      14.849   9.438   5.383 -0.07 +0.02    +0.064 A 
DOCKED: ATOM      2  C   UNL d   1      10.681  11.040   3.748 -0.26 -0.01    +0.064 C 
DOCKED: ATOM      3  C   UNL d   1      12.524  15.417   3.230 -0.08 -0.01    +0.064 A 
DOCKED: ATOM      4  C   UNL d   1      16.892  13.718   4.531 -0.06 +0.00    +0.064 A 
DOCKED: ATOM      5  C   UNL d   1      13.565   9.563   5.009 -0.14 +0.01    +0.066 A 
DOCKED: ATOM      6  C   UNL d   1      12.692   8.458   4.953 -0.20 -0.00    -0.021 A 
DOCKED: ATOM      7  C   UNL d   1      11.491   8.925   4.456 -0.26 -0.00    -0.025 A 
DOCKED: ATOM      8  C   UNL d   1      11.676  10.295   4.246 -0.22 -0.00    +0.066 A 
DOCKED: ATOM      9  C   UNL d   1      10.209   8.123   4.183 -0.31 +0.00    +0.051 C 
DOCKED: ATOM     10  C   UNL d   1      10.770  12.461   3.523 -0.18 -0.01    +0.066 A 
DOCKED: ATOM     11  C   UNL d   1       9.720  13.322   3.136 -0.43 +0.00    -0.021 A 
DOCKED: ATOM     12  C   UNL d   1      10.284  14.593   2.996 -0.34 -0.00    +0.000 A 
DOCKED: ATOM     13  C   UNL d   1      11.630  14.416   3.319 -0.17 -0.01    +0.070 A 
DOCKED: ATOM     14  C   UNL d   1       8.265  12.952   3.009 -0.35 -0.00    +0.052 C 
DOCKED: ATOM     15  C   UNL d   1      13.953  15.399   3.473 -0.05 -0.01    +0.066 A 
DOCKED: ATOM     16  C   UNL d   1      14.843  16.433   3.221 -0.04 +0.01    -0.021 A 
DOCKED: ATOM     17  C   UNL d   1      16.105  15.947   3.593 -0.04 -0.00    +0.000 A 
DOCKED: ATOM     18  C   UNL d   1      15.881  14.656   4.059 -0.05 -0.00    +0.070 A 
DOCKED: ATOM     19  C   UNL d   1      14.477  17.789   2.659 -0.04 -0.02    +0.052 C 
DOCKED: ATOM     20  C   UNL d   1      16.710  12.430   4.907 -0.01 +0.01    +0.066 A 
DOCKED: ATOM     21  C   UNL d   1      17.767  11.616   5.308 -0.04 -0.01    -0.025 A 
DOCKED: ATOM     22  C   UNL d   1      17.204  10.384   5.588 -0.04 -0.01    -0.021 A 
DOCKED: ATOM     23  C   UNL d   1      15.822  10.505   5.330 +0.10 +0.02    +0.066 A 
DOCKED: ATOM     24  C   UNL d   1      19.245  11.986   5.401 -0.05 +0.01    +0.051 C 
DOCKED: ATOM     25  N   UNL d   1      12.950  10.719   4.586 -0.09 -0.01    -0.248 N 
DOCKED: ATOM     26  N   UNL d   1      11.911  13.139   3.692 -0.11 +0.03    -0.248 N 
DOCKED: ATOM     27  N   UNL d   1      14.593  14.353   3.944 -0.03 +0.02    -0.248 N 
DOCKED: ATOM     28  N   UNL d   1      15.519  11.741   4.916 -0.05 -0.05    -0.248 N 
DOCKED: ATOM     29 FE   UNL d   1      13.823  12.643   4.247 -0.03 -0.00    +0.000 Fe
DOCKED: ENDROOT
DOCKED: BRANCH   6  30
DOCKED: ATOM     30  C   UNL d   1      13.035   7.010   5.286 -0.24 +0.01    +0.052 C 
DOCKED: BRANCH  30  31
DOCKED: ATOM     31  C   UNL d   1      12.947   6.771   6.793 -0.12 +0.05    +0.115 C 
DOCKED: BRANCH  31  32
DOCKED: ATOM     32  C   UNL d   1      11.838   5.809   7.162 -0.17 +0.13    +0.139 C 
DOCKED: ATOM     33  O   UNL d   1      11.993   4.612   6.972 -0.38 -0.77    -0.650 OA
DOCKED: BRANCH  32  34
DOCKED: ATOM     34  O   UNL d   1      10.690   6.227   7.743 -0.45 -1.01    -0.776 OA
DOCKED: ATOM     35  H   UNL d   1      10.232   7.047   7.515 +0.05 +0.12    +0.167 HD
DOCKED: ENDBRANCH  32  34
DOCKED: ENDBRANCH  31  32
DOCKED: ENDBRANCH  30  31
DOCKED: ENDBRANCH   6  30
DOCKED: BRANCH  29  36
DOCKED: ATOM     36  C   UNL d   1      14.220  11.994   2.294 -0.19 -0.00    +0.190 C 
DOCKED: BRANCH  36  37
DOCKED: ATOM     37  O   UNL d   1      13.791  11.100   1.308 -0.71 +0.01    -0.399 OA
DOCKED: ATOM     38  H   UNL d   1      14.436  10.340   1.352 -0.42 -0.02    +0.209 HD
DOCKED: ENDBRANCH  36  37
DOCKED: ENDBRANCH  29  36
DOCKED: BRANCH  22  39
DOCKED: ATOM     39  C   UNL d   1      17.967   9.145   6.015 -0.08 +0.02    +0.052 C 
DOCKED: BRANCH  39  40
DOCKED: ATOM     40  C   UNL d   1      18.026   8.121   4.869 -0.19 +0.06    +0.115 C 
DOCKED: BRANCH  40  41
DOCKED: ATOM     41  C   UNL d   1      19.371   8.034   4.178 -0.12 +0.13    +0.139 C 
DOCKED: ATOM     42  O   UNL d   1      20.152   7.150   4.498 -0.05 -0.64    -0.650 OA
DOCKED: BRANCH  41  43
DOCKED: ATOM     43  O   UNL d   1      19.698   8.855   3.156 -0.40 -0.97    -0.776 OA
DOCKED: ATOM     44  H   UNL d   1      19.044   9.190   2.529 -0.37 +0.16    +0.167 HD
DOCKED: ENDBRANCH  41  43
DOCKED: ENDBRANCH  40  41
DOCKED: ENDBRANCH  39  40
DOCKED: ENDBRANCH  22  39
DOCKED: BRANCH  12  45
DOCKED: ATOM     45  C   UNL d   1       9.707  15.949   2.615 -0.34 -0.00    +0.004 C 
DOCKED: ATOM     46  C   UNL d   1       9.053  16.336   1.523 -0.38 -0.00    +0.012 C 
DOCKED: ENDBRANCH  12  45
DOCKED: BRANCH  17  47
DOCKED: ATOM     47  C   UNL d   1      17.446  16.595   3.485 -0.03 -0.00    +0.004 C 
DOCKED: ATOM     48  C   UNL d   1      18.370  16.233   2.592 -0.05 -0.00    +0.012 C 
DOCKED: ENDBRANCH  17  47
DOCKED: TORSDOF 12
DOCKED: TER
DOCKED: ENDMDL
________________________________________________________________________________


	BEGINNING GENETIC ALGORITHM DOCKING 88 of 100
Run: 88 Seed: 1026223724 1171369079 [ Run 88 of 100 GA/GALS ]
Beginning LAMARCKIAN GENETIC ALGORITHM (LGA), with a maximum of 25000000 energy evaluations.

Final-Value: -10.915


	FINAL GENETIC ALGORITHM DOCKED STATE
	_______________________________________________


Detailed state:  trans 12.123 11.371 6.717 quatxyzw -0.602518 -0.698564 -0.382287 0.053254 center 8.781 34.984 -0.736 ntor 12 178.4016 115.5965 44.5206 118.2336 -96.9711 130.4018 -127.0903 28.2303 -141.9956 117.8677 -174.6714 44.0739
State:	 12.123  11.371   6.717  -0.603 -0.700 -0.383 173.895    178.40  115.60   44.52  118.23  -96.97  130.40 -127.09   28.23 -142.00  117.87 -174.67   44.07

DOCKED: MODEL       88
DOCKED: USER    Run = 88
DOCKED: USER    DPF = D:/Protein_go_brrr/autodock/final/mut_Y35F/heme_Co/dock.dpf
DOCKED: USER  
DOCKED: USER    Estimated Free Energy of Binding    =   -5.11 kcal/mol  [=(1)+(2)+(3)-(4)]
DOCKED: USER    Estimated Inhibition Constant, Ki   =  179.58 uM (micromolar)  [Temperature = 298.15 K]
DOCKED: USER    
DOCKED: USER    (1) Final Intermolecular Energy     =   -8.69 kcal/mol
DOCKED: USER        vdW + Hbond + desolv Energy     =   -6.92 kcal/mol
DOCKED: USER        Electrostatic Energy            =   -1.77 kcal/mol
DOCKED: USER    (2) Final Total Internal Energy     =   -2.23 kcal/mol
DOCKED: USER    (3) Torsional Free Energy           =   +3.58 kcal/mol
DOCKED: USER    (4) Unbound System's Energy  [=(2)] =   -2.23 kcal/mol
DOCKED: USER    
DOCKED: USER    
DOCKED: USER    NEWDPF move heme_Co_opt.pdbqt
DOCKED: USER    NEWDPF about 8.781000 34.984000 -0.736000
DOCKED: USER    NEWDPF tran0 12.122808 11.371221 6.716596
DOCKED: USER    NEWDPF quaternion0 -0.602518 -0.698564 -0.382287 0.053254
DOCKED: USER    NEWDPF axisangle0 -0.603375 -0.699557 -0.382831 173.894678
DOCKED: USER    NEWDPF quat0 -0.603375 -0.699557 -0.382831 173.894678
DOCKED: USER    NEWDPF dihe0 178.40 115.60 44.52 118.23 -96.97 130.40 -127.09 28.23 -142.00 117.87 -174.67 44.07 
DOCKED: USER  keepresnum = 1 
DOCKED: USER  
DOCKED: REMARK  12 active torsions:
DOCKED: REMARK  status: ('A' for Active; 'I' for Inactive)
DOCKED: REMARK    1  A    between atoms: C_6  and  C_10 
DOCKED: REMARK    2  A    between atoms: C_10  and  C_11 
DOCKED: REMARK    3  A    between atoms: C_11  and  C_12 
DOCKED: REMARK    4  A    between atoms: C_12  and  O_14 
DOCKED: REMARK    5  A    between atoms: C_17  and  C_20 
DOCKED: REMARK    6  A    between atoms: C_24  and  C_27 
DOCKED: REMARK    7  A    between atoms: C_31  and  C_34 
DOCKED: REMARK    8  A    between atoms: C_34  and  C_35 
DOCKED: REMARK    9  A    between atoms: C_35  and  C_36 
DOCKED: REMARK   10  A    between atoms: C_36  and  O_38 
DOCKED: REMARK   11  A    between atoms: FE_43  and  C_44 
DOCKED: REMARK   12  A    between atoms: C_44  and  O_45 
DOCKED: USER                              x       y       z     vdW  Elec       q    Type
DOCKED: USER                           _______ _______ _______ _____ _____    ______ ____
DOCKED: ROOT
DOCKED: ATOM      1  C   UNL d   1      12.587   9.255   6.864 -0.06 +0.01    +0.064 A 
DOCKED: ATOM      2  C   UNL d   1      12.117  12.170   3.137 -0.21 -0.01    +0.064 C 
DOCKED: ATOM      3  C   UNL d   1      10.770  15.721   6.037 -0.18 -0.01    +0.064 A 
DOCKED: ATOM      4  C   UNL d   1      11.615  12.877   9.891 -0.16 +0.02    +0.064 A 
DOCKED: ATOM      5  C   UNL d   1      12.522   9.780   5.630 -0.10 +0.01    +0.066 A 
DOCKED: ATOM      6  C   UNL d   1      12.918   9.056   4.488 -0.22 -0.00    -0.021 A 
DOCKED: ATOM      7  C   UNL d   1      12.801   9.914   3.412 -0.34 +0.00    -0.025 A 
DOCKED: ATOM      8  C   UNL d   1      12.324  11.119   3.941 -0.21 -0.00    +0.066 A 
DOCKED: ATOM      9  C   UNL d   1      13.123   9.626   1.938 -0.45 -0.01    +0.051 C 
DOCKED: ATOM     10  C   UNL d   1      11.603  13.440   3.586 -0.20 -0.01    +0.066 A 
DOCKED: ATOM     11  C   UNL d   1      11.232  14.534   2.775 -0.25 +0.00    -0.021 A 
DOCKED: ATOM     12  C   UNL d   1      10.839  15.555   3.646 -0.20 -0.00    +0.000 A 
DOCKED: ATOM     13  C   UNL d   1      10.988  15.005   4.919 -0.15 -0.01    +0.070 A 
DOCKED: ATOM     14  C   UNL d   1      11.172  14.549   1.269 -0.33 -0.02    +0.052 C 
DOCKED: ATOM     15  C   UNL d   1      10.925  15.331   7.424 -0.16 -0.00    +0.066 A 
DOCKED: ATOM     16  C   UNL d   1      10.824  16.163   8.530 -0.20 +0.00    -0.021 A 
DOCKED: ATOM     17  C   UNL d   1      11.069  15.348   9.644 -0.23 +0.00    +0.000 A 
DOCKED: ATOM     18  C   UNL d   1      11.284  14.074   9.129 -0.20 +0.01    +0.070 A 
DOCKED: ATOM     19  C   UNL d   1      10.512  17.643   8.488 -0.18 -0.01    +0.052 C 
DOCKED: ATOM     20  C   UNL d   1      11.914  11.647   9.407 -0.11 +0.01    +0.066 A 
DOCKED: ATOM     21  C   UNL d   1      12.251  10.582  10.239 -0.07 -0.01    -0.025 A 
DOCKED: ATOM     22  C   UNL d   1      12.509   9.517   9.396 -0.04 -0.01    -0.021 A 
DOCKED: ATOM     23  C   UNL d   1      12.325   9.992   8.080 -0.06 +0.01    +0.066 A 
DOCKED: ATOM     24  C   UNL d   1      12.344  10.584  11.763 -0.06 +0.02    +0.051 C 
DOCKED: ATOM     25  N   UNL d   1      12.137  11.063   5.311 -0.07 -0.01    -0.248 N 
DOCKED: ATOM     26  N   UNL d   1      11.396  13.708   4.880 -0.01 +0.02    -0.248 N 
DOCKED: ATOM     27  N   UNL d   1      11.221  14.107   7.802 -0.05 -0.01    -0.248 N 
DOCKED: ATOM     28  N   UNL d   1      11.967  11.282   8.082 -0.07 -0.04    -0.248 N 
DOCKED: ATOM     29 FE   UNL d   1      11.652  12.673   6.633 -0.04 +0.00    +0.000 Fe
DOCKED: ENDROOT
DOCKED: BRANCH   6  30
DOCKED: ATOM     30  C   UNL d   1      13.460   7.631   4.457 -0.25 +0.01    +0.052 C 
DOCKED: BRANCH  30  31
DOCKED: ATOM     31  C   UNL d   1      14.983   7.633   4.580 -0.18 +0.03    +0.115 C 
DOCKED: BRANCH  31  32
DOCKED: ATOM     32  C   UNL d   1      15.486   8.720   5.506 -0.09 +0.04    +0.139 C 
DOCKED: ATOM     33  O   UNL d   1      15.853   8.426   6.634 +0.02 -0.16    -0.650 OA
DOCKED: BRANCH  32  34
DOCKED: ATOM     34  O   UNL d   1      15.590  10.010   5.110 -0.50 -0.33    -0.776 OA
DOCKED: ATOM     35  H   UNL d   1      15.830  10.741   5.695 +0.03 +0.04    +0.167 HD
DOCKED: ENDBRANCH  32  34
DOCKED: ENDBRANCH  31  32
DOCKED: ENDBRANCH  30  31
DOCKED: ENDBRANCH   6  30
DOCKED: BRANCH  29  36
DOCKED: ATOM     36  C   UNL d   1      13.693  13.152   6.617 -0.04 +0.01    +0.190 C 
DOCKED: BRANCH  36  37
DOCKED: ATOM     37  O   UNL d   1      14.963  12.607   6.405 -0.00 -0.03    -0.399 OA
DOCKED: ATOM     38  H   UNL d   1      14.796  11.658   6.149 +0.03 +0.03    +0.209 HD
DOCKED: ENDBRANCH  36  37
DOCKED: ENDBRANCH  29  36
DOCKED: BRANCH  22  39
DOCKED: ATOM     39  C   UNL d   1      12.969   8.139   9.834 -0.03 +0.02    +0.052 C 
DOCKED: BRANCH  39  40
DOCKED: ATOM     40  C   UNL d   1      12.375   7.053   8.922 -0.08 +0.08    +0.115 C 
DOCKED: BRANCH  40  41
DOCKED: ATOM     41  C   UNL d   1      10.874   6.887   9.044 -0.10 +0.16    +0.139 C 
DOCKED: ATOM     42  O   UNL d   1      10.274   6.240   8.198 -0.33 -1.04    -0.650 OA
DOCKED: BRANCH  41  43
DOCKED: ATOM     43  O   UNL d   1      10.191   7.360  10.109 +0.01 -0.68    -0.776 OA
DOCKED: ATOM     44  H   UNL d   1      10.281   8.270  10.421 +0.04 +0.09    +0.167 HD
DOCKED: ENDBRANCH  41  43
DOCKED: ENDBRANCH  40  41
DOCKED: ENDBRANCH  39  40
DOCKED: ENDBRANCH  22  39
DOCKED: BRANCH  12  45
DOCKED: ATOM     45  C   UNL d   1      10.326  16.971   3.422 -0.20 -0.00    +0.004 C 
DOCKED: ATOM     46  C   UNL d   1       9.118  17.494   3.612 -0.32 -0.00    +0.012 C 
DOCKED: ENDBRANCH  12  45
DOCKED: BRANCH  17  47
DOCKED: ATOM     47  C   UNL d   1      11.154  15.710  11.090 -0.20 +0.00    +0.004 C 
DOCKED: ATOM     48  C   UNL d   1      12.253  15.540  11.829 -0.12 +0.00    +0.012 C 
DOCKED: ENDBRANCH  17  47
DOCKED: TORSDOF 12
DOCKED: TER
DOCKED: ENDMDL
________________________________________________________________________________


	BEGINNING GENETIC ALGORITHM DOCKING 89 of 100
Run: 89 Seed: 838791109 928207256 [ Run 89 of 100 GA/GALS ]
Beginning LAMARCKIAN GENETIC ALGORITHM (LGA), with a maximum of 25000000 energy evaluations.

Final-Value: -10.669


	FINAL GENETIC ALGORITHM DOCKED STATE
	_______________________________________________


Detailed state:  trans -6.851 -11.158 -12.973 quatxyzw -0.870021 0.223293 -0.017337 -0.439206 center 8.781 34.984 -0.736 ntor 12 149.8951 115.0166 -69.0401 55.7566 -98.8085 106.3546 -116.4543 -33.8011 -127.8758 -146.3971 -180.0000 152.6587
State:	 -6.851 -11.158 -12.973  -0.968  0.249 -0.019 -127.893    149.90  115.02  -69.04   55.76  -98.81  106.35 -116.45  -33.80 -127.88 -146.40 -180.00  152.66

DOCKED: MODEL       89
DOCKED: USER    Run = 89
DOCKED: USER    DPF = D:/Protein_go_brrr/autodock/final/mut_Y35F/heme_Co/dock.dpf
DOCKED: USER  
DOCKED: USER    Estimated Free Energy of Binding    =   -2.97 kcal/mol  [=(1)+(2)+(3)-(4)]
DOCKED: USER    Estimated Inhibition Constant, Ki   =    6.66 mM (millimolar)  [Temperature = 298.15 K]
DOCKED: USER    
DOCKED: USER    (1) Final Intermolecular Energy     =   -6.55 kcal/mol
DOCKED: USER        vdW + Hbond + desolv Energy     =   -6.54 kcal/mol
DOCKED: USER        Electrostatic Energy            =   -0.01 kcal/mol
DOCKED: USER    (2) Final Total Internal Energy     =   -4.12 kcal/mol
DOCKED: USER    (3) Torsional Free Energy           =   +3.58 kcal/mol
DOCKED: USER    (4) Unbound System's Energy  [=(2)] =   -4.12 kcal/mol
DOCKED: USER    
DOCKED: USER    
DOCKED: USER    NEWDPF move heme_Co_opt.pdbqt
DOCKED: USER    NEWDPF about 8.781000 34.984000 -0.736000
DOCKED: USER    NEWDPF tran0 -6.851266 -11.158391 -12.972947
DOCKED: USER    NEWDPF quaternion0 -0.870021 0.223293 -0.017337 -0.439206
DOCKED: USER    NEWDPF axisangle0 -0.968427 0.248549 -0.019297 -127.893477
DOCKED: USER    NEWDPF quat0 -0.968427 0.248549 -0.019297 -127.893477
DOCKED: USER    NEWDPF dihe0 149.90 115.02 -69.04 55.76 -98.81 106.35 -116.45 -33.80 -127.88 -146.40 -180.00 152.66 
DOCKED: USER  keepresnum = 1 
DOCKED: USER  
DOCKED: REMARK  12 active torsions:
DOCKED: REMARK  status: ('A' for Active; 'I' for Inactive)
DOCKED: REMARK    1  A    between atoms: C_6  and  C_10 
DOCKED: REMARK    2  A    between atoms: C_10  and  C_11 
DOCKED: REMARK    3  A    between atoms: C_11  and  C_12 
DOCKED: REMARK    4  A    between atoms: C_12  and  O_14 
DOCKED: REMARK    5  A    between atoms: C_17  and  C_20 
DOCKED: REMARK    6  A    between atoms: C_24  and  C_27 
DOCKED: REMARK    7  A    between atoms: C_31  and  C_34 
DOCKED: REMARK    8  A    between atoms: C_34  and  C_35 
DOCKED: REMARK    9  A    between atoms: C_35  and  C_36 
DOCKED: REMARK   10  A    between atoms: C_36  and  O_38 
DOCKED: REMARK   11  A    between atoms: FE_43  and  C_44 
DOCKED: REMARK   12  A    between atoms: C_44  and  O_45 
DOCKED: USER                              x       y       z     vdW  Elec       q    Type
DOCKED: USER                           _______ _______ _______ _____ _____    ______ ____
DOCKED: ROOT
DOCKED: ATOM      1  C   UNL d   1      -8.971 -11.277 -12.515 -0.24 -0.00    +0.064 A 
DOCKED: ATOM      2  C   UNL d   1      -6.000  -7.591 -12.963 -0.15 -0.00    +0.064 C 
DOCKED: ATOM      3  C   UNL d   1      -2.314 -10.581 -13.518 -0.21 -0.00    +0.064 A 
DOCKED: ATOM      4  C   UNL d   1      -5.383 -14.355 -13.450 -0.18 +0.00    +0.064 A 
DOCKED: ATOM      5  C   UNL d   1      -8.424 -10.051 -12.561 -0.21 -0.01    +0.066 A 
DOCKED: ATOM      6  C   UNL d   1      -9.207  -8.881 -12.504 -0.17 +0.00    -0.021 A 
DOCKED: ATOM      7  C   UNL d   1      -8.343  -7.815 -12.657 -0.09 +0.01    -0.025 A 
DOCKED: ATOM      8  C   UNL d   1      -7.068  -8.378 -12.784 -0.14 -0.01    +0.066 A 
DOCKED: ATOM      9  C   UNL d   1      -8.688  -6.318 -12.686 -0.04 -0.01    +0.051 C 
DOCKED: ATOM     10  C   UNL d   1      -4.648  -8.079 -13.077 -0.11 -0.00    +0.066 A 
DOCKED: ATOM     11  C   UNL d   1      -3.471  -7.300 -13.124 -0.14 -0.00    -0.021 A 
DOCKED: ATOM     12  C   UNL d   1      -2.412  -8.197 -13.283 -0.21 -0.00    +0.000 A 
DOCKED: ATOM     13  C   UNL d   1      -3.017  -9.454 -13.306 -0.17 -0.00    +0.070 A 
DOCKED: ATOM     14  C   UNL d   1      -3.381  -5.807 -12.933 -0.19 +0.00    +0.052 C 
DOCKED: ATOM     15  C   UNL d   1      -2.782 -11.949 -13.625 -0.20 -0.00    +0.066 A 
DOCKED: ATOM     16  C   UNL d   1      -2.022 -13.052 -13.989 -0.19 -0.00    -0.021 A 
DOCKED: ATOM     17  C   UNL d   1      -2.903 -14.143 -13.974 -0.17 +0.00    +0.000 A 
DOCKED: ATOM     18  C   UNL d   1      -4.131 -13.620 -13.583 -0.10 +0.00    +0.070 A 
DOCKED: ATOM     19  C   UNL d   1      -0.548 -13.029 -14.326 -0.19 -0.00    +0.052 C 
DOCKED: ATOM     20  C   UNL d   1      -6.606 -13.854 -13.156 -0.25 -0.00    +0.066 A 
DOCKED: ATOM     21  C   UNL d   1      -7.743 -14.657 -13.092 -0.26 -0.00    -0.025 A 
DOCKED: ATOM     22  C   UNL d   1      -8.788 -13.801 -12.796 -0.25 -0.00    -0.021 A 
DOCKED: ATOM     23  C   UNL d   1      -8.235 -12.506 -12.705 -0.23 -0.00    +0.066 A 
DOCKED: ATOM     24  C   UNL d   1      -7.833 -16.163 -13.322 -0.24 +0.01    +0.051 C 
DOCKED: ATOM     25  N   UNL d   1      -7.088  -9.762 -12.722 -0.08 +0.03    -0.248 N 
DOCKED: ATOM     26  N   UNL d   1      -4.363  -9.384 -13.126 -0.08 +0.01    -0.248 N 
DOCKED: ATOM     27  N   UNL d   1      -4.029 -12.306 -13.414 -0.14 +0.01    -0.248 N 
DOCKED: ATOM     28  N   UNL d   1      -6.915 -12.533 -12.925 -0.13 +0.03    -0.248 N 
DOCKED: ATOM     29 FE   UNL d   1      -5.470 -11.112 -13.088 -0.04 -0.00    +0.000 Fe
DOCKED: ENDROOT
DOCKED: BRANCH   6  30
DOCKED: ATOM     30  C   UNL d   1     -10.726  -8.808 -12.391 -0.21 -0.00    +0.052 C 
DOCKED: BRANCH  30  31
DOCKED: ATOM     31  C   UNL d   1     -11.361  -8.644 -13.772 -0.11 -0.00    +0.115 C 
DOCKED: BRANCH  31  32
DOCKED: ATOM     32  C   UNL d   1     -10.847  -9.661 -14.768 -0.06 +0.00    +0.139 C 
DOCKED: ATOM     33  O   UNL d   1     -11.610 -10.505 -15.213 -0.00 -0.02    -0.650 OA
DOCKED: BRANCH  32  34
DOCKED: ATOM     34  O   UNL d   1      -9.572  -9.639 -15.223 +0.03 +0.01    -0.776 OA
DOCKED: ATOM     35  H   UNL d   1      -9.059 -10.429 -15.441 +0.01 -0.00    +0.167 HD
DOCKED: ENDBRANCH  32  34
DOCKED: ENDBRANCH  31  32
DOCKED: ENDBRANCH  30  31
DOCKED: ENDBRANCH   6  30
DOCKED: BRANCH  29  36
DOCKED: ATOM     36  C   UNL d   1      -5.890 -10.885 -15.129 -0.02 -0.00    +0.190 C 
DOCKED: BRANCH  36  37
DOCKED: ATOM     37  O   UNL d   1      -6.934 -10.901 -16.060 +0.00 -0.00    -0.399 OA
DOCKED: ATOM     38  H   UNL d   1      -7.757 -11.061 -15.520 +0.02 +0.00    +0.209 HD
DOCKED: ENDBRANCH  36  37
DOCKED: ENDBRANCH  29  36
DOCKED: BRANCH  22  39
DOCKED: ATOM     39  C   UNL d   1     -10.246 -14.202 -12.673 -0.22 +0.01    +0.052 C 
DOCKED: BRANCH  39  40
DOCKED: ATOM     40  C   UNL d   1     -11.044 -13.730 -13.899 -0.11 +0.01    +0.115 C 
DOCKED: BRANCH  40  41
DOCKED: ATOM     41  C   UNL d   1     -10.228 -13.611 -15.169 -0.05 +0.01    +0.139 C 
DOCKED: ATOM     42  O   UNL d   1     -10.342 -14.467 -16.036 +0.01 -0.05    -0.650 OA
DOCKED: BRANCH  41  43
DOCKED: ATOM     43  O   UNL d   1      -9.440 -12.540 -15.410 +0.04 -0.03    -0.776 OA
DOCKED: ATOM     44  H   UNL d   1      -9.793 -11.645 -15.500 +0.02 +0.00    +0.167 HD
DOCKED: ENDBRANCH  41  43
DOCKED: ENDBRANCH  40  41
DOCKED: ENDBRANCH  39  40
DOCKED: ENDBRANCH  22  39
DOCKED: BRANCH  12  45
DOCKED: ATOM     45  C   UNL d   1      -0.904  -8.014 -13.394 -0.31 +0.00    +0.004 C 
DOCKED: ATOM     46  C   UNL d   1      -0.063  -7.288 -12.661 -0.38 +0.00    +0.012 C 
DOCKED: ENDBRANCH  12  45
DOCKED: BRANCH  17  47
DOCKED: ATOM     47  C   UNL d   1      -2.661 -15.570 -14.340 -0.22 +0.00    +0.004 C 
DOCKED: ATOM     48  C   UNL d   1      -3.327 -16.206 -15.307 -0.19 +0.00    +0.012 C 
DOCKED: ENDBRANCH  17  47
DOCKED: TORSDOF 12
DOCKED: TER
DOCKED: ENDMDL
________________________________________________________________________________


	BEGINNING GENETIC ALGORITHM DOCKING 90 of 100
Run: 90 Seed: 885936064 1232639265 [ Run 90 of 100 GA/GALS ]
Beginning LAMARCKIAN GENETIC ALGORITHM (LGA), with a maximum of 25000000 energy evaluations.

Final-Value: -10.114


	FINAL GENETIC ALGORITHM DOCKED STATE
	_______________________________________________


Detailed state:  trans 22.492 -3.974 -5.925 quatxyzw -0.020836 -0.070839 0.735748 -0.673218 center 8.781 34.984 -0.736 ntor 12 -106.7134 104.2637 -41.8693 -102.3516 36.2771 112.0273 40.5139 -27.9463 -180.0000 -149.4613 -171.4604 154.4923
State:	 22.492  -3.974  -5.925  -0.028 -0.096  0.995 -95.368   -106.71  104.26  -41.87 -102.35   36.28  112.03   40.51  -27.95 -180.00 -149.46 -171.46  154.49

DOCKED: MODEL       90
DOCKED: USER    Run = 90
DOCKED: USER    DPF = D:/Protein_go_brrr/autodock/final/mut_Y35F/heme_Co/dock.dpf
DOCKED: USER  
DOCKED: USER    Estimated Free Energy of Binding    =   -3.01 kcal/mol  [=(1)+(2)+(3)-(4)]
DOCKED: USER    Estimated Inhibition Constant, Ki   =    6.27 mM (millimolar)  [Temperature = 298.15 K]
DOCKED: USER    
DOCKED: USER    (1) Final Intermolecular Energy     =   -6.58 kcal/mol
DOCKED: USER        vdW + Hbond + desolv Energy     =   -4.70 kcal/mol
DOCKED: USER        Electrostatic Energy            =   -1.89 kcal/mol
DOCKED: USER    (2) Final Total Internal Energy     =   -3.53 kcal/mol
DOCKED: USER    (3) Torsional Free Energy           =   +3.58 kcal/mol
DOCKED: USER    (4) Unbound System's Energy  [=(2)] =   -3.53 kcal/mol
DOCKED: USER    
DOCKED: USER    
DOCKED: USER    NEWDPF move heme_Co_opt.pdbqt
DOCKED: USER    NEWDPF about 8.781000 34.984000 -0.736000
DOCKED: USER    NEWDPF tran0 22.491968 -3.974360 -5.924973
DOCKED: USER    NEWDPF quaternion0 -0.020836 -0.070839 0.735748 -0.673218
DOCKED: USER    NEWDPF axisangle0 -0.028178 -0.095801 0.995002 -95.368117
DOCKED: USER    NEWDPF quat0 -0.028178 -0.095801 0.995002 -95.368117
DOCKED: USER    NEWDPF dihe0 -106.71 104.26 -41.87 -102.35 36.28 112.03 40.51 -27.95 -180.00 -149.46 -171.46 154.49 
DOCKED: USER  keepresnum = 1 
DOCKED: USER  
DOCKED: REMARK  12 active torsions:
DOCKED: REMARK  status: ('A' for Active; 'I' for Inactive)
DOCKED: REMARK    1  A    between atoms: C_6  and  C_10 
DOCKED: REMARK    2  A    between atoms: C_10  and  C_11 
DOCKED: REMARK    3  A    between atoms: C_11  and  C_12 
DOCKED: REMARK    4  A    between atoms: C_12  and  O_14 
DOCKED: REMARK    5  A    between atoms: C_17  and  C_20 
DOCKED: REMARK    6  A    between atoms: C_24  and  C_27 
DOCKED: REMARK    7  A    between atoms: C_31  and  C_34 
DOCKED: REMARK    8  A    between atoms: C_34  and  C_35 
DOCKED: REMARK    9  A    between atoms: C_35  and  C_36 
DOCKED: REMARK   10  A    between atoms: C_36  and  O_38 
DOCKED: REMARK   11  A    between atoms: FE_43  and  C_44 
DOCKED: REMARK   12  A    between atoms: C_44  and  O_45 
DOCKED: USER                              x       y       z     vdW  Elec       q    Type
DOCKED: USER                           _______ _______ _______ _____ _____    ______ ____
DOCKED: ROOT
DOCKED: ATOM      1  C   UNL d   1      22.286  -5.874  -6.957 -0.01 +0.01    +0.064 A 
DOCKED: ATOM      2  C   UNL d   1      24.325  -4.685  -2.829 -0.02 +0.00    +0.064 C 
DOCKED: ATOM      3  C   UNL d   1      23.451  -0.066  -3.684 -0.08 +0.01    +0.064 A 
DOCKED: ATOM      4  C   UNL d   1      21.022  -1.286  -7.718 -0.17 -0.00    +0.064 A 
DOCKED: ATOM      5  C   UNL d   1      22.939  -5.885  -5.784 -0.01 +0.01    +0.066 A 
DOCKED: ATOM      6  C   UNL d   1      23.313  -7.085  -5.148 +0.00 -0.00    -0.021 A 
DOCKED: ATOM      7  C   UNL d   1      23.884  -6.735  -3.940 -0.00 -0.00    -0.025 A 
DOCKED: ATOM      8  C   UNL d   1      23.849  -5.337  -3.898 -0.01 +0.01    +0.066 A 
DOCKED: ATOM      9  C   UNL d   1      24.445  -7.670  -2.857 +0.00 +0.00    +0.051 C 
DOCKED: ATOM     10  C   UNL d   1      24.356  -3.249  -2.708 -0.04 +0.00    +0.066 A 
DOCKED: ATOM     11  C   UNL d   1      24.968  -2.502  -1.677 -0.04 -0.00    -0.021 A 
DOCKED: ATOM     12  C   UNL d   1      24.701  -1.159  -1.954 -0.07 +0.00    +0.000 A 
DOCKED: ATOM     13  C   UNL d   1      23.959  -1.184  -3.135 -0.09 +0.01    +0.070 A 
DOCKED: ATOM     14  C   UNL d   1      25.826  -3.051  -0.567 -0.02 +0.00    +0.052 C 
DOCKED: ATOM     15  C   UNL d   1      22.623   0.084  -4.865 -0.12 +0.00    +0.066 A 
DOCKED: ATOM     16  C   UNL d   1      22.010   1.252  -5.297 -0.20 -0.00    -0.021 A 
DOCKED: ATOM     17  C   UNL d   1      21.306   0.905  -6.459 -0.32 -0.00    +0.000 A 
DOCKED: ATOM     18  C   UNL d   1      21.560  -0.449  -6.654 -0.20 -0.00    +0.070 A 
DOCKED: ATOM     19  C   UNL d   1      22.111   2.599  -4.616 -0.26 +0.00    +0.052 C 
DOCKED: ATOM     20  C   UNL d   1      21.184  -2.621  -7.879 -0.12 +0.00    +0.066 A 
DOCKED: ATOM     21  C   UNL d   1      20.586  -3.323  -8.923 -0.11 -0.00    -0.025 A 
DOCKED: ATOM     22  C   UNL d   1      20.956  -4.643  -8.746 -0.07 -0.00    -0.021 A 
DOCKED: ATOM     23  C   UNL d   1      21.759  -4.684  -7.587 -0.05 +0.01    +0.066 A 
DOCKED: ATOM     24  C   UNL d   1      19.688  -2.766 -10.025 -0.20 -0.00    +0.051 C 
DOCKED: ATOM     25  N   UNL d   1      23.275  -4.784  -5.029 -0.01 -0.02    -0.248 N 
DOCKED: ATOM     26  N   UNL d   1      23.799  -2.445  -3.620 -0.05 -0.02    -0.248 N 
DOCKED: ATOM     27  N   UNL d   1      22.323  -0.911  -5.669 -0.12 -0.00    -0.248 N 
DOCKED: ATOM     28  N   UNL d   1      21.898  -3.463  -7.057 -0.06 -0.02    -0.248 N 
DOCKED: ATOM     29 FE   UNL d   1      22.770  -2.734  -5.371 -0.02 +0.00    +0.000 Fe
DOCKED: ENDROOT
DOCKED: BRANCH   6  30
DOCKED: ATOM     30  C   UNL d   1      23.053  -8.501  -5.652 +0.00 +0.00    +0.052 C 
DOCKED: BRANCH  30  31
DOCKED: ATOM     31  C   UNL d   1      21.681  -8.992  -5.191 +0.00 +0.02    +0.115 C 
DOCKED: BRANCH  31  32
DOCKED: ATOM     32  C   UNL d   1      20.966  -7.977  -4.325 -0.01 +0.04    +0.139 C 
DOCKED: ATOM     33  O   UNL d   1      21.140  -7.989  -3.116 +0.02 -0.14    -0.650 OA
DOCKED: BRANCH  32  34
DOCKED: ATOM     34  O   UNL d   1      20.171  -7.017  -4.854 +0.02 -0.48    -0.776 OA
DOCKED: ATOM     35  H   UNL d   1      20.385  -6.074  -4.856 +0.03 +0.11    +0.167 HD
DOCKED: ENDBRANCH  32  34
DOCKED: ENDBRANCH  31  32
DOCKED: ENDBRANCH  30  31
DOCKED: ENDBRANCH   6  30
DOCKED: BRANCH  29  36
DOCKED: ATOM     36  C   UNL d   1      21.018  -3.100  -4.279 -0.06 +0.02    +0.190 C 
DOCKED: BRANCH  36  37
DOCKED: ATOM     37  O   UNL d   1      19.991  -4.032  -4.100 -0.37 -0.21    -0.399 OA
DOCKED: ATOM     38  H   UNL d   1      20.117  -4.696  -4.834 -0.02 +0.15    +0.209 HD
DOCKED: ENDBRANCH  36  37
DOCKED: ENDBRANCH  29  36
DOCKED: BRANCH  22  39
DOCKED: ATOM     39  C   UNL d   1      20.506  -5.807  -9.610 -0.03 +0.00    +0.052 C 
DOCKED: BRANCH  39  40
DOCKED: ATOM     40  C   UNL d   1      19.432  -6.636  -8.887 -0.05 +0.03    +0.115 C 
DOCKED: BRANCH  40  41
DOCKED: ATOM     41  C   UNL d   1      18.647  -5.868  -7.844 -0.07 +0.12    +0.139 C 
DOCKED: ATOM     42  O   UNL d   1      17.471  -5.606  -8.053 -0.54 -0.73    -0.650 OA
DOCKED: BRANCH  41  43
DOCKED: ATOM     43  O   UNL d   1      19.187  -5.540  -6.649 +0.01 -0.94    -0.776 OA
DOCKED: ATOM     44  H   UNL d   1      19.805  -6.117  -6.182 +0.02 +0.14    +0.167 HD
DOCKED: ENDBRANCH  41  43
DOCKED: ENDBRANCH  40  41
DOCKED: ENDBRANCH  39  40
DOCKED: ENDBRANCH  22  39
DOCKED: BRANCH  12  45
DOCKED: ATOM     45  C   UNL d   1      25.075   0.140  -1.252 -0.07 +0.00    +0.004 C 
DOCKED: ATOM     46  C   UNL d   1      24.322   1.015  -0.590 -0.10 +0.00    +0.012 C 
DOCKED: ENDBRANCH  12  45
DOCKED: BRANCH  17  47
DOCKED: ATOM     47  C   UNL d   1      20.412   1.738  -7.317 -0.47 -0.00    +0.004 C 
DOCKED: ATOM     48  C   UNL d   1      20.363   3.070  -7.254 -0.52 -0.00    +0.012 C 
DOCKED: ENDBRANCH  17  47
DOCKED: TORSDOF 12
DOCKED: TER
DOCKED: ENDMDL
________________________________________________________________________________


	BEGINNING GENETIC ALGORITHM DOCKING 91 of 100
Run: 91 Seed: 375946714 1472297032 [ Run 91 of 100 GA/GALS ]
Beginning LAMARCKIAN GENETIC ALGORITHM (LGA), with a maximum of 25000000 energy evaluations.

Final-Value: -9.994


	FINAL GENETIC ALGORITHM DOCKED STATE
	_______________________________________________


Detailed state:  trans -17.735 3.207 5.726 quatxyzw -0.246169 0.968928 -0.022048 -0.009661 center 8.781 34.984 -0.736 ntor 12 -84.1614 98.4211 177.8745 101.0236 132.6819 158.7134 95.2677 163.9409 45.7531 -85.1591 -2.9650 -15.2031
State:	-17.735   3.207   5.726  -0.246  0.969 -0.022 -178.893    -84.16   98.42  177.87  101.02  132.68  158.71   95.27  163.94   45.75  -85.16   -2.97  -15.20

DOCKED: MODEL       91
DOCKED: USER    Run = 91
DOCKED: USER    DPF = D:/Protein_go_brrr/autodock/final/mut_Y35F/heme_Co/dock.dpf
DOCKED: USER  
DOCKED: USER    Estimated Free Energy of Binding    =   -4.21 kcal/mol  [=(1)+(2)+(3)-(4)]
DOCKED: USER    Estimated Inhibition Constant, Ki   =  816.90 uM (micromolar)  [Temperature = 298.15 K]
DOCKED: USER    
DOCKED: USER    (1) Final Intermolecular Energy     =   -7.79 kcal/mol
DOCKED: USER        vdW + Hbond + desolv Energy     =   -4.43 kcal/mol
DOCKED: USER        Electrostatic Energy            =   -3.36 kcal/mol
DOCKED: USER    (2) Final Total Internal Energy     =   -2.20 kcal/mol
DOCKED: USER    (3) Torsional Free Energy           =   +3.58 kcal/mol
DOCKED: USER    (4) Unbound System's Energy  [=(2)] =   -2.20 kcal/mol
DOCKED: USER    
DOCKED: USER    
DOCKED: USER    NEWDPF move heme_Co_opt.pdbqt
DOCKED: USER    NEWDPF about 8.781000 34.984000 -0.736000
DOCKED: USER    NEWDPF tran0 -17.735329 3.207101 5.725910
DOCKED: USER    NEWDPF quaternion0 -0.246169 0.968928 -0.022048 -0.009661
DOCKED: USER    NEWDPF axisangle0 -0.246180 0.968973 -0.022049 -178.892915
DOCKED: USER    NEWDPF quat0 -0.246180 0.968973 -0.022049 -178.892915
DOCKED: USER    NEWDPF dihe0 -84.16 98.42 177.87 101.02 132.68 158.71 95.27 163.94 45.75 -85.16 -2.97 -15.20 
DOCKED: USER  keepresnum = 1 
DOCKED: USER  
DOCKED: REMARK  12 active torsions:
DOCKED: REMARK  status: ('A' for Active; 'I' for Inactive)
DOCKED: REMARK    1  A    between atoms: C_6  and  C_10 
DOCKED: REMARK    2  A    between atoms: C_10  and  C_11 
DOCKED: REMARK    3  A    between atoms: C_11  and  C_12 
DOCKED: REMARK    4  A    between atoms: C_12  and  O_14 
DOCKED: REMARK    5  A    between atoms: C_17  and  C_20 
DOCKED: REMARK    6  A    between atoms: C_24  and  C_27 
DOCKED: REMARK    7  A    between atoms: C_31  and  C_34 
DOCKED: REMARK    8  A    between atoms: C_34  and  C_35 
DOCKED: REMARK    9  A    between atoms: C_35  and  C_36 
DOCKED: REMARK   10  A    between atoms: C_36  and  O_38 
DOCKED: REMARK   11  A    between atoms: FE_43  and  C_44 
DOCKED: REMARK   12  A    between atoms: C_44  and  O_45 
DOCKED: USER                              x       y       z     vdW  Elec       q    Type
DOCKED: USER                           _______ _______ _______ _____ _____    ______ ____
DOCKED: ROOT
DOCKED: ATOM      1  C   UNL d   1     -16.298   4.601   6.566 -0.13 +0.04    +0.064 A 
DOCKED: ATOM      2  C   UNL d   1     -16.026   1.523   2.952 -0.19 +0.01    +0.064 C 
DOCKED: ATOM      3  C   UNL d   1     -20.395  -0.120   3.974 -0.10 +0.01    +0.064 A 
DOCKED: ATOM      4  C   UNL d   1     -20.851   3.276   7.426 -0.08 +0.01    +0.064 A 
DOCKED: ATOM      5  C   UNL d   1     -15.888   3.856   5.527 -0.13 +0.03    +0.066 A 
DOCKED: ATOM      6  C   UNL d   1     -14.658   4.087   4.881 -0.16 -0.01    -0.021 A 
DOCKED: ATOM      7  C   UNL d   1     -14.595   3.206   3.819 -0.18 -0.01    -0.025 A 
DOCKED: ATOM      8  C   UNL d   1     -15.780   2.465   3.872 -0.16 +0.02    +0.066 A 
DOCKED: ATOM      9  C   UNL d   1     -13.468   3.057   2.784 -0.28 +0.01    +0.051 C 
DOCKED: ATOM     10  C   UNL d   1     -17.205   0.694   2.942 -0.18 +0.02    +0.066 A 
DOCKED: ATOM     11  C   UNL d   1     -17.457  -0.404   2.090 -0.23 -0.01    -0.021 A 
DOCKED: ATOM     12  C   UNL d   1     -18.736  -0.867   2.412 -0.19 +0.00    +0.000 A 
DOCKED: ATOM     13  C   UNL d   1     -19.163  -0.028   3.442 -0.09 +0.01    +0.070 A 
DOCKED: ATOM     14  C   UNL d   1     -16.488  -1.012   1.109 -0.25 +0.02    +0.052 C 
DOCKED: ATOM     15  C   UNL d   1     -21.016   0.693   5.000 -0.09 +0.00    +0.066 A 
DOCKED: ATOM     16  C   UNL d   1     -22.343   0.638   5.403 -0.08 -0.00    -0.021 A 
DOCKED: ATOM     17  C   UNL d   1     -22.480   1.617   6.397 -0.07 +0.00    +0.000 A 
DOCKED: ATOM     18  C   UNL d   1     -21.217   2.183   6.535 -0.10 +0.01    +0.070 A 
DOCKED: ATOM     19  C   UNL d   1     -23.389  -0.304   4.849 -0.03 +0.00    +0.052 C 
DOCKED: ATOM     20  C   UNL d   1     -19.652   3.900   7.516 -0.08 +0.02    +0.066 A 
DOCKED: ATOM     21  C   UNL d   1     -19.431   4.965   8.387 -0.05 -0.01    -0.025 A 
DOCKED: ATOM     22  C   UNL d   1     -18.119   5.349   8.182 -0.05 -0.01    -0.021 A 
DOCKED: ATOM     23  C   UNL d   1     -17.603   4.500   7.179 -0.11 +0.03    +0.066 A 
DOCKED: ATOM     24  C   UNL d   1     -20.428   5.599   9.354 -0.02 +0.01    +0.051 C 
DOCKED: ATOM     25  N   UNL d   1     -16.598   2.843   4.923 -0.12 -0.07    -0.248 N 
DOCKED: ATOM     26  N   UNL d   1     -18.215   0.879   3.799 -0.09 -0.05    -0.248 N 
DOCKED: ATOM     27  N   UNL d   1     -20.378   1.629   5.667 -0.04 -0.02    -0.248 N 
DOCKED: ATOM     28  N   UNL d   1     -18.529   3.624   6.772 -0.09 -0.08    -0.248 N 
DOCKED: ATOM     29 FE   UNL d   1     -18.600   2.202   5.320 -0.04 +0.00    +0.000 Fe
DOCKED: ENDROOT
DOCKED: BRANCH   6  30
DOCKED: ATOM     30  C   UNL d   1     -13.636   5.164   5.228 -0.18 +0.04    +0.052 C 
DOCKED: BRANCH  30  31
DOCKED: ATOM     31  C   UNL d   1     -12.766   4.720   6.403 -0.27 +0.15    +0.115 C 
DOCKED: BRANCH  31  32
DOCKED: ATOM     32  C   UNL d   1     -12.562   5.822   7.420 -0.23 +0.19    +0.139 C 
DOCKED: ATOM     33  O   UNL d   1     -12.483   6.981   7.042 +0.01 -0.63    -0.650 OA
DOCKED: BRANCH  32  34
DOCKED: ATOM     34  O   UNL d   1     -12.511   5.572   8.749 +0.17 -1.61    -0.776 OA
DOCKED: ATOM     35  H   UNL d   1     -13.285   5.549   9.328 +0.05 +0.38    +0.167 HD
DOCKED: ENDBRANCH  32  34
DOCKED: ENDBRANCH  31  32
DOCKED: ENDBRANCH  30  31
DOCKED: ENDBRANCH   6  30
DOCKED: BRANCH  29  36
DOCKED: ATOM     36  C   UNL d   1     -19.216   3.632   3.917 -0.03 +0.02    +0.190 C 
DOCKED: BRANCH  36  37
DOCKED: ATOM     37  O   UNL d   1     -18.735   4.575   3.002 +0.01 -0.04    -0.399 OA
DOCKED: ATOM     38  H   UNL d   1     -17.773   4.696   3.240 +0.02 +0.03    +0.209 HD
DOCKED: ENDBRANCH  36  37
DOCKED: ENDBRANCH  29  36
DOCKED: BRANCH  22  39
DOCKED: ATOM     39  C   UNL d   1     -17.424   6.510   8.868 -0.03 +0.02    +0.052 C 
DOCKED: BRANCH  39  40
DOCKED: ATOM     40  C   UNL d   1     -16.831   6.068  10.216 -0.06 +0.07    +0.115 C 
DOCKED: BRANCH  40  41
DOCKED: ATOM     41  C   UNL d   1     -15.415   5.537  10.132 -0.15 +0.17    +0.139 C 
DOCKED: ATOM     42  O   UNL d   1     -15.177   4.582   9.407 +0.09 -1.24    -0.650 OA
DOCKED: BRANCH  41  43
DOCKED: ATOM     43  O   UNL d   1     -14.390   6.145  10.769 +0.01 -1.23    -0.776 OA
DOCKED: ATOM     44  H   UNL d   1     -13.474   5.853  10.675 +0.05 +0.34    +0.167 HD
DOCKED: ENDBRANCH  41  43
DOCKED: ENDBRANCH  40  41
DOCKED: ENDBRANCH  39  40
DOCKED: ENDBRANCH  22  39
DOCKED: BRANCH  12  45
DOCKED: ATOM     45  C   UNL d   1     -19.590  -2.010   1.882 -0.18 +0.00    +0.004 C 
DOCKED: ATOM     46  C   UNL d   1     -19.711  -3.267   2.299 -0.23 +0.00    +0.012 C 
DOCKED: ENDBRANCH  12  45
DOCKED: BRANCH  17  47
DOCKED: ATOM     47  C   UNL d   1     -23.697   2.053   7.145 -0.02 +0.00    +0.004 C 
DOCKED: ATOM     48  C   UNL d   1     -23.883   1.824   8.447 -0.02 +0.00    +0.012 C 
DOCKED: ENDBRANCH  17  47
DOCKED: TORSDOF 12
DOCKED: TER
DOCKED: ENDMDL
________________________________________________________________________________


	BEGINNING GENETIC ALGORITHM DOCKING 92 of 100
Run: 92 Seed: 1769916602 539884411 [ Run 92 of 100 GA/GALS ]
Beginning LAMARCKIAN GENETIC ALGORITHM (LGA), with a maximum of 25000000 energy evaluations.

Final-Value: -9.655


	FINAL GENETIC ALGORITHM DOCKED STATE
	_______________________________________________


Detailed state:  trans 10.735 13.595 -10.877 quatxyzw -0.385059 -0.891906 -0.173215 -0.161956 center 8.781 34.984 -0.736 ntor 12 61.4566 142.0459 125.7198 115.7911 -95.7907 80.6480 -152.9434 -40.9237 116.1192 -146.2254 54.1416 150.7580
State:	 10.735  13.595 -10.877  -0.390 -0.904 -0.176 -161.359     61.46  142.05  125.72  115.79  -95.79   80.65 -152.94  -40.92  116.12 -146.23   54.14  150.76

DOCKED: MODEL       92
DOCKED: USER    Run = 92
DOCKED: USER    DPF = D:/Protein_go_brrr/autodock/final/mut_Y35F/heme_Co/dock.dpf
DOCKED: USER  
DOCKED: USER    Estimated Free Energy of Binding    =   -3.90 kcal/mol  [=(1)+(2)+(3)-(4)]
DOCKED: USER    Estimated Inhibition Constant, Ki   =    1.39 mM (millimolar)  [Temperature = 298.15 K]
DOCKED: USER    
DOCKED: USER    (1) Final Intermolecular Energy     =   -7.48 kcal/mol
DOCKED: USER        vdW + Hbond + desolv Energy     =   -7.76 kcal/mol
DOCKED: USER        Electrostatic Energy            =   +0.28 kcal/mol
DOCKED: USER    (2) Final Total Internal Energy     =   -2.18 kcal/mol
DOCKED: USER    (3) Torsional Free Energy           =   +3.58 kcal/mol
DOCKED: USER    (4) Unbound System's Energy  [=(2)] =   -2.18 kcal/mol
DOCKED: USER    
DOCKED: USER    
DOCKED: USER    NEWDPF move heme_Co_opt.pdbqt
DOCKED: USER    NEWDPF about 8.781000 34.984000 -0.736000
DOCKED: USER    NEWDPF tran0 10.735101 13.594978 -10.876669
DOCKED: USER    NEWDPF quaternion0 -0.385059 -0.891906 -0.173215 -0.161956
DOCKED: USER    NEWDPF axisangle0 -0.390210 -0.903839 -0.175532 -161.359060
DOCKED: USER    NEWDPF quat0 -0.390210 -0.903839 -0.175532 -161.359060
DOCKED: USER    NEWDPF dihe0 61.46 142.05 125.72 115.79 -95.79 80.65 -152.94 -40.92 116.12 -146.23 54.14 150.76 
DOCKED: USER  keepresnum = 1 
DOCKED: USER  
DOCKED: REMARK  12 active torsions:
DOCKED: REMARK  status: ('A' for Active; 'I' for Inactive)
DOCKED: REMARK    1  A    between atoms: C_6  and  C_10 
DOCKED: REMARK    2  A    between atoms: C_10  and  C_11 
DOCKED: REMARK    3  A    between atoms: C_11  and  C_12 
DOCKED: REMARK    4  A    between atoms: C_12  and  O_14 
DOCKED: REMARK    5  A    between atoms: C_17  and  C_20 
DOCKED: REMARK    6  A    between atoms: C_24  and  C_27 
DOCKED: REMARK    7  A    between atoms: C_31  and  C_34 
DOCKED: REMARK    8  A    between atoms: C_34  and  C_35 
DOCKED: REMARK    9  A    between atoms: C_35  and  C_36 
DOCKED: REMARK   10  A    between atoms: C_36  and  O_38 
DOCKED: REMARK   11  A    between atoms: FE_43  and  C_44 
DOCKED: REMARK   12  A    between atoms: C_44  and  O_45 
DOCKED: USER                              x       y       z     vdW  Elec       q    Type
DOCKED: USER                           _______ _______ _______ _____ _____    ______ ____
DOCKED: ROOT
DOCKED: ATOM      1  C   UNL d   1      12.498  12.327 -10.847 -0.16 -0.02    +0.064 A 
DOCKED: ATOM      2  C   UNL d   1       9.121  13.029 -14.121 -0.13 -0.00    +0.064 C 
DOCKED: ATOM      3  C   UNL d   1       6.725  15.849 -11.098 -0.06 +0.01    +0.064 A 
DOCKED: ATOM      4  C   UNL d   1      10.351  15.457  -7.879 -0.23 -0.00    +0.064 A 
DOCKED: ATOM      5  C   UNL d   1      11.733  12.283 -11.951 -0.21 -0.01    +0.066 A 
DOCKED: ATOM      6  C   UNL d   1      12.138  11.599 -13.114 -0.17 +0.00    -0.021 A 
DOCKED: ATOM      7  C   UNL d   1      11.165  11.825 -14.068 -0.12 +0.00    -0.025 A 
DOCKED: ATOM      8  C   UNL d   1      10.201  12.623 -13.442 -0.02 -0.00    +0.066 A 
DOCKED: ATOM      9  C   UNL d   1      11.131  11.318 -15.518 -0.08 -0.00    +0.051 C 
DOCKED: ATOM     10  C   UNL d   1       8.064  13.829 -13.553 -0.17 +0.00    +0.066 A 
DOCKED: ATOM     11  C   UNL d   1       6.841  14.170 -14.169 -0.14 -0.00    -0.021 A 
DOCKED: ATOM     12  C   UNL d   1       6.160  14.989 -13.264 -0.16 +0.00    +0.000 A 
DOCKED: ATOM     13  C   UNL d   1       7.010  15.077 -12.161 -0.19 +0.00    +0.070 A 
DOCKED: ATOM     14  C   UNL d   1       6.335  13.658 -15.493 -0.09 -0.00    +0.052 C 
DOCKED: ATOM     15  C   UNL d   1       7.508  16.096  -9.904 -0.15 +0.01    +0.066 A 
DOCKED: ATOM     16  C   UNL d   1       7.222  17.019  -8.908 -0.20 -0.00    -0.021 A 
DOCKED: ATOM     17  C   UNL d   1       8.267  16.912  -7.978 -0.25 +0.00    +0.000 A 
DOCKED: ATOM     18  C   UNL d   1       9.101  15.916  -8.474 -0.26 +0.01    +0.070 A 
DOCKED: ATOM     19  C   UNL d   1       6.017  17.933  -8.879 -0.16 +0.01    +0.052 C 
DOCKED: ATOM     20  C   UNL d   1      11.222  14.553  -8.386 -0.28 -0.01    +0.066 A 
DOCKED: ATOM     21  C   UNL d   1      12.410  14.221  -7.738 -0.28 +0.00    -0.025 A 
DOCKED: ATOM     22  C   UNL d   1      13.036  13.298  -8.556 -0.24 +0.01    -0.021 A 
DOCKED: ATOM     23  C   UNL d   1      12.198  13.121  -9.678 -0.24 -0.02    +0.066 A 
DOCKED: ATOM     24  C   UNL d   1      12.933  14.769  -6.413 -0.30 -0.02    +0.051 C 
DOCKED: ATOM     25  N   UNL d   1      10.524  12.916 -12.128 -0.15 +0.02    -0.248 N 
DOCKED: ATOM     26  N   UNL d   1       8.136  14.329 -12.315 -0.16 -0.01    -0.248 N 
DOCKED: ATOM     27  N   UNL d   1       8.635  15.474  -9.637 -0.16 -0.02    -0.248 N 
DOCKED: ATOM     28  N   UNL d   1      11.100  13.880  -9.580 -0.18 +0.04    -0.248 N 
DOCKED: ATOM     29 FE   UNL d   1       9.526  14.270 -10.806 -0.05 -0.00    +0.000 Fe
DOCKED: ENDROOT
DOCKED: BRANCH   6  30
DOCKED: ATOM     30  C   UNL d   1      13.443  10.836 -13.312 -0.23 -0.01    +0.052 C 
DOCKED: BRANCH  30  31
DOCKED: ATOM     31  C   UNL d   1      13.192   9.527 -14.061 -0.23 -0.03    +0.115 C 
DOCKED: BRANCH  31  32
DOCKED: ATOM     32  C   UNL d   1      12.354   8.555 -13.258 -0.32 -0.03    +0.139 C 
DOCKED: ATOM     33  O   UNL d   1      11.146   8.724 -13.180 -0.07 +0.09    -0.650 OA
DOCKED: BRANCH  32  34
DOCKED: ATOM     34  O   UNL d   1      12.894   7.469 -12.657 -0.53 +0.24    -0.776 OA
DOCKED: ATOM     35  H   UNL d   1      13.612   7.505 -12.011 -0.47 -0.12    +0.167 HD
DOCKED: ENDBRANCH  32  34
DOCKED: ENDBRANCH  31  32
DOCKED: ENDBRANCH  30  31
DOCKED: ENDBRANCH   6  30
DOCKED: BRANCH  29  36
DOCKED: ATOM     36  C   UNL d   1      10.605  15.804 -11.743 -0.04 -0.01    +0.190 C 
DOCKED: BRANCH  36  37
DOCKED: ATOM     37  O   UNL d   1      11.879  16.374 -11.835 +0.00 +0.03    -0.399 OA
DOCKED: ATOM     38  H   UNL d   1      12.510  15.623 -11.652 +0.02 -0.02    +0.209 HD
DOCKED: ENDBRANCH  36  37
DOCKED: ENDBRANCH  29  36
DOCKED: BRANCH  22  39
DOCKED: ATOM     39  C   UNL d   1      14.395  12.675  -8.300 -0.25 -0.01    +0.052 C 
DOCKED: BRANCH  39  40
DOCKED: ATOM     40  C   UNL d   1      15.444  13.243  -9.270 -0.10 -0.03    +0.115 C 
DOCKED: BRANCH  40  41
DOCKED: ATOM     41  C   UNL d   1      15.156  14.651  -9.747 -0.03 -0.03    +0.139 C 
DOCKED: ATOM     42  O   UNL d   1      15.700  15.594  -9.191 +0.02 +0.12    -0.650 OA
DOCKED: BRANCH  41  43
DOCKED: ATOM     43  O   UNL d   1      14.381  14.890 -10.829 +0.04 +0.12    -0.776 OA
DOCKED: ATOM     44  H   UNL d   1      13.666  15.540 -10.822 +0.02 -0.02    +0.167 HD
DOCKED: ENDBRANCH  41  43
DOCKED: ENDBRANCH  40  41
DOCKED: ENDBRANCH  39  40
DOCKED: ENDBRANCH  22  39
DOCKED: BRANCH  12  45
DOCKED: ATOM     45  C   UNL d   1       4.803  15.680 -13.306 -0.14 +0.00    +0.004 C 
DOCKED: ATOM     46  C   UNL d   1       3.673  15.408 -12.660 -0.20 +0.00    +0.012 C 
DOCKED: ENDBRANCH  12  45
DOCKED: BRANCH  17  47
DOCKED: ATOM     47  C   UNL d   1       8.523  17.700  -6.736 -0.11 +0.00    +0.004 C 
DOCKED: ATOM     48  C   UNL d   1       9.602  18.466  -6.559 -0.14 +0.00    +0.012 C 
DOCKED: ENDBRANCH  17  47
DOCKED: TORSDOF 12
DOCKED: TER
DOCKED: ENDMDL
________________________________________________________________________________


	BEGINNING GENETIC ALGORITHM DOCKING 93 of 100
Run: 93 Seed: 1008309702 424624100 [ Run 93 of 100 GA/GALS ]
Beginning LAMARCKIAN GENETIC ALGORITHM (LGA), with a maximum of 25000000 energy evaluations.

Final-Value: -8.600


	FINAL GENETIC ALGORITHM DOCKED STATE
	_______________________________________________


Detailed state:  trans -16.507 3.679 13.112 quatxyzw 0.130988 -0.812093 -0.290541 -0.488808 center 8.781 34.984 -0.736 ntor 12 46.6289 103.9722 36.0655 111.1456 -89.6598 139.2376 37.4496 100.4120 177.6724 88.2093 -176.3175 -178.1998
State:	-16.507   3.679  13.112   0.150 -0.931 -0.333 -121.476     46.63  103.97   36.07  111.15  -89.66  139.24   37.45  100.41  177.67   88.21 -176.32 -178.20

DOCKED: MODEL       93
DOCKED: USER    Run = 93
DOCKED: USER    DPF = D:/Protein_go_brrr/autodock/final/mut_Y35F/heme_Co/dock.dpf
DOCKED: USER  
DOCKED: USER    Estimated Free Energy of Binding    =   -2.32 kcal/mol  [=(1)+(2)+(3)-(4)]
DOCKED: USER    Estimated Inhibition Constant, Ki   =   19.77 mM (millimolar)  [Temperature = 298.15 K]
DOCKED: USER    
DOCKED: USER    (1) Final Intermolecular Energy     =   -5.90 kcal/mol
DOCKED: USER        vdW + Hbond + desolv Energy     =   -3.83 kcal/mol
DOCKED: USER        Electrostatic Energy            =   -2.08 kcal/mol
DOCKED: USER    (2) Final Total Internal Energy     =   -2.70 kcal/mol
DOCKED: USER    (3) Torsional Free Energy           =   +3.58 kcal/mol
DOCKED: USER    (4) Unbound System's Energy  [=(2)] =   -2.70 kcal/mol
DOCKED: USER    
DOCKED: USER    
DOCKED: USER    NEWDPF move heme_Co_opt.pdbqt
DOCKED: USER    NEWDPF about 8.781000 34.984000 -0.736000
DOCKED: USER    NEWDPF tran0 -16.506701 3.679464 13.111614
DOCKED: USER    NEWDPF quaternion0 0.130988 -0.812093 -0.290541 -0.488808
DOCKED: USER    NEWDPF axisangle0 0.150148 -0.930881 -0.333039 -121.475526
DOCKED: USER    NEWDPF quat0 0.150148 -0.930881 -0.333039 -121.475526
DOCKED: USER    NEWDPF dihe0 46.63 103.97 36.07 111.15 -89.66 139.24 37.45 100.41 177.67 88.21 -176.32 -178.20 
DOCKED: USER  keepresnum = 1 
DOCKED: USER  
DOCKED: REMARK  12 active torsions:
DOCKED: REMARK  status: ('A' for Active; 'I' for Inactive)
DOCKED: REMARK    1  A    between atoms: C_6  and  C_10 
DOCKED: REMARK    2  A    between atoms: C_10  and  C_11 
DOCKED: REMARK    3  A    between atoms: C_11  and  C_12 
DOCKED: REMARK    4  A    between atoms: C_12  and  O_14 
DOCKED: REMARK    5  A    between atoms: C_17  and  C_20 
DOCKED: REMARK    6  A    between atoms: C_24  and  C_27 
DOCKED: REMARK    7  A    between atoms: C_31  and  C_34 
DOCKED: REMARK    8  A    between atoms: C_34  and  C_35 
DOCKED: REMARK    9  A    between atoms: C_35  and  C_36 
DOCKED: REMARK   10  A    between atoms: C_36  and  O_38 
DOCKED: REMARK   11  A    between atoms: FE_43  and  C_44 
DOCKED: REMARK   12  A    between atoms: C_44  and  O_45 
DOCKED: USER                              x       y       z     vdW  Elec       q    Type
DOCKED: USER                           _______ _______ _______ _____ _____    ______ ____
DOCKED: ROOT
DOCKED: ATOM      1  C   UNL d   1     -14.788   4.746  12.322 -0.18 +0.06    +0.064 A 
DOCKED: ATOM      2  C   UNL d   1     -18.841   3.285  10.311 -0.18 +0.02    +0.064 C 
DOCKED: ATOM      3  C   UNL d   1     -20.104   1.090  14.362 -0.06 +0.00    +0.064 A 
DOCKED: ATOM      4  C   UNL d   1     -16.155   2.894  16.556 -0.05 +0.01    +0.064 A 
DOCKED: ATOM      5  C   UNL d   1     -15.785   4.478  11.464 -0.13 +0.06    +0.066 A 
DOCKED: ATOM      6  C   UNL d   1     -15.818   5.017  10.163 -0.16 -0.02    -0.021 A 
DOCKED: ATOM      7  C   UNL d   1     -17.007   4.608   9.592 -0.16 -0.02    -0.025 A 
DOCKED: ATOM      8  C   UNL d   1     -17.641   3.825  10.562 -0.16 +0.03    +0.066 A 
DOCKED: ATOM      9  C   UNL d   1     -17.540   4.936   8.189 -0.11 +0.03    +0.051 C 
DOCKED: ATOM     10  C   UNL d   1     -19.558   2.444  11.236 -0.14 +0.01    +0.066 A 
DOCKED: ATOM     11  C   UNL d   1     -20.752   1.735  10.982 -0.13 -0.00    -0.021 A 
DOCKED: ATOM     12  C   UNL d   1     -21.095   1.100  12.179 -0.09 +0.00    +0.000 A 
DOCKED: ATOM     13  C   UNL d   1     -20.082   1.458  13.069 -0.09 +0.00    +0.070 A 
DOCKED: ATOM     14  C   UNL d   1     -21.447   1.608   9.651 -0.11 +0.00    +0.052 C 
DOCKED: ATOM     15  C   UNL d   1     -19.174   1.411  15.426 -0.05 +0.00    +0.066 A 
DOCKED: ATOM     16  C   UNL d   1     -19.332   1.120  16.773 -0.03 -0.00    -0.021 A 
DOCKED: ATOM     17  C   UNL d   1     -18.196   1.640  17.411 -0.03 +0.00    +0.000 A 
DOCKED: ATOM     18  C   UNL d   1     -17.424   2.195  16.395 -0.05 +0.01    +0.070 A 
DOCKED: ATOM     19  C   UNL d   1     -20.508   0.389  17.381 -0.01 +0.00    +0.052 C 
DOCKED: ATOM     20  C   UNL d   1     -15.430   3.516  15.596 -0.06 +0.01    +0.066 A 
DOCKED: ATOM     21  C   UNL d   1     -14.241   4.185  15.879 -0.06 -0.01    -0.025 A 
DOCKED: ATOM     22  C   UNL d   1     -13.809   4.705  14.673 -0.11 -0.01    -0.021 A 
DOCKED: ATOM     23  C   UNL d   1     -14.769   4.334  13.708 -0.12 +0.04    +0.066 A 
DOCKED: ATOM     24  C   UNL d   1     -13.560   4.340  17.236 -0.05 +0.01    +0.051 C 
DOCKED: ATOM     25  N   UNL d   1     -16.905   3.722  11.729 -0.10 -0.13    -0.248 N 
DOCKED: ATOM     26  N   UNL d   1     -19.124   2.224  12.482 -0.08 -0.03    -0.248 N 
DOCKED: ATOM     27  N   UNL d   1     -18.052   2.067  15.231 +0.04 -0.03    -0.248 N 
DOCKED: ATOM     28  N   UNL d   1     -15.753   3.616  14.263 -0.04 -0.08    -0.248 N 
DOCKED: ATOM     29 FE   UNL d   1     -17.509   2.846  13.586 -0.03 +0.00    +0.000 Fe
DOCKED: ENDROOT
DOCKED: BRANCH   6  30
DOCKED: ATOM     30  C   UNL d   1     -14.784   5.949   9.539 -0.17 +0.08    +0.052 C 
DOCKED: BRANCH  30  31
DOCKED: ATOM     31  C   UNL d   1     -15.173   7.410   9.765 -0.08 +0.15    +0.115 C 
DOCKED: BRANCH  31  32
DOCKED: ATOM     32  C   UNL d   1     -16.516   7.551  10.449 -0.04 +0.10    +0.139 C 
DOCKED: ATOM     33  O   UNL d   1     -17.526   7.664   9.771 +0.03 -0.28    -0.650 OA
DOCKED: BRANCH  32  34
DOCKED: ATOM     34  O   UNL d   1     -16.643   7.507  11.795 +0.03 -0.47    -0.776 OA
DOCKED: ATOM     35  H   UNL d   1     -16.043   7.948  12.413 +0.02 +0.12    +0.167 HD
DOCKED: ENDBRANCH  32  34
DOCKED: ENDBRANCH  31  32
DOCKED: ENDBRANCH  30  31
DOCKED: ENDBRANCH   6  30
DOCKED: BRANCH  29  36
DOCKED: ATOM     36  C   UNL d   1     -18.486   4.656  13.992 -0.03 +0.03    +0.190 C 
DOCKED: BRANCH  36  37
DOCKED: ATOM     37  O   UNL d   1     -18.567   5.993  13.590 +0.00 -0.08    -0.399 OA
DOCKED: ATOM     38  H   UNL d   1     -17.809   6.116  12.952 +0.02 +0.06    +0.209 HD
DOCKED: ENDBRANCH  36  37
DOCKED: ENDBRANCH  29  36
DOCKED: BRANCH  22  39
DOCKED: ATOM     39  C   UNL d   1     -12.575   5.565  14.477 -0.18 +0.03    +0.052 C 
DOCKED: BRANCH  39  40
DOCKED: ATOM     40  C   UNL d   1     -12.834   7.004  14.954 -0.12 +0.07    +0.115 C 
DOCKED: BRANCH  40  41
DOCKED: ATOM     41  C   UNL d   1     -13.208   7.970  13.849 +0.00 +0.17    +0.139 C 
DOCKED: ATOM     42  O   UNL d   1     -12.518   8.962  13.663 -0.18 -0.97    -0.650 OA
DOCKED: BRANCH  41  43
DOCKED: ATOM     43  O   UNL d   1     -14.234   7.722  13.005 -0.54 -1.18    -0.776 OA
DOCKED: ATOM     44  H   UNL d   1     -15.080   7.366  13.307 +0.02 +0.14    +0.167 HD
DOCKED: ENDBRANCH  41  43
DOCKED: ENDBRANCH  40  41
DOCKED: ENDBRANCH  39  40
DOCKED: ENDBRANCH  22  39
DOCKED: BRANCH  12  45
DOCKED: ATOM     45  C   UNL d   1     -22.247   0.187  12.576 -0.04 +0.00    +0.004 C 
DOCKED: ATOM     46  C   UNL d   1     -22.289  -1.132  12.743 -0.03 -0.00    +0.012 C 
DOCKED: ENDBRANCH  12  45
DOCKED: BRANCH  17  47
DOCKED: ATOM     47  C   UNL d   1     -17.851   1.679  18.863 -0.01 +0.00    +0.004 C 
DOCKED: ATOM     48  C   UNL d   1     -17.808   2.805  19.581 -0.00 +0.00    +0.012 C 
DOCKED: ENDBRANCH  17  47
DOCKED: TORSDOF 12
DOCKED: TER
DOCKED: ENDMDL
________________________________________________________________________________


	BEGINNING GENETIC ALGORITHM DOCKING 94 of 100
Run: 94 Seed: 238454463 1634361761 [ Run 94 of 100 GA/GALS ]
Beginning LAMARCKIAN GENETIC ALGORITHM (LGA), with a maximum of 25000000 energy evaluations.

Final-Value: -9.519


	FINAL GENETIC ALGORITHM DOCKED STATE
	_______________________________________________


Detailed state:  trans -12.389 -18.069 -8.066 quatxyzw 0.561450 -0.263455 0.601743 -0.503260 center 8.781 34.984 -0.736 ntor 12 151.6225 104.8118 -75.1552 137.9786 97.5194 117.5287 -112.7374 -36.7688 -128.0423 -142.2371 176.6299 147.3694
State:	-12.389 -18.069  -8.066   0.650 -0.305  0.696 -119.568    151.62  104.81  -75.16  137.98   97.52  117.53 -112.74  -36.77 -128.04 -142.24  176.63  147.37

DOCKED: MODEL       94
DOCKED: USER    Run = 94
DOCKED: USER    DPF = D:/Protein_go_brrr/autodock/final/mut_Y35F/heme_Co/dock.dpf
DOCKED: USER  
DOCKED: USER    Estimated Free Energy of Binding    =   -1.86 kcal/mol  [=(1)+(2)+(3)-(4)]
DOCKED: USER    Estimated Inhibition Constant, Ki   =   43.13 mM (millimolar)  [Temperature = 298.15 K]
DOCKED: USER    
DOCKED: USER    (1) Final Intermolecular Energy     =   -5.44 kcal/mol
DOCKED: USER        vdW + Hbond + desolv Energy     =   -5.37 kcal/mol
DOCKED: USER        Electrostatic Energy            =   -0.07 kcal/mol
DOCKED: USER    (2) Final Total Internal Energy     =   -4.08 kcal/mol
DOCKED: USER    (3) Torsional Free Energy           =   +3.58 kcal/mol
DOCKED: USER    (4) Unbound System's Energy  [=(2)] =   -4.08 kcal/mol
DOCKED: USER    
DOCKED: USER    
DOCKED: USER    NEWDPF move heme_Co_opt.pdbqt
DOCKED: USER    NEWDPF about 8.781000 34.984000 -0.736000
DOCKED: USER    NEWDPF tran0 -12.388698 -18.068651 -8.065997
DOCKED: USER    NEWDPF quaternion0 0.561450 -0.263455 0.601743 -0.503260
DOCKED: USER    NEWDPF axisangle0 0.649725 -0.304877 0.696353 -119.568130
DOCKED: USER    NEWDPF quat0 0.649725 -0.304877 0.696353 -119.568130
DOCKED: USER    NEWDPF dihe0 151.62 104.81 -75.16 137.98 97.52 117.53 -112.74 -36.77 -128.04 -142.24 176.63 147.37 
DOCKED: USER  keepresnum = 1 
DOCKED: USER  
DOCKED: REMARK  12 active torsions:
DOCKED: REMARK  status: ('A' for Active; 'I' for Inactive)
DOCKED: REMARK    1  A    between atoms: C_6  and  C_10 
DOCKED: REMARK    2  A    between atoms: C_10  and  C_11 
DOCKED: REMARK    3  A    between atoms: C_11  and  C_12 
DOCKED: REMARK    4  A    between atoms: C_12  and  O_14 
DOCKED: REMARK    5  A    between atoms: C_17  and  C_20 
DOCKED: REMARK    6  A    between atoms: C_24  and  C_27 
DOCKED: REMARK    7  A    between atoms: C_31  and  C_34 
DOCKED: REMARK    8  A    between atoms: C_34  and  C_35 
DOCKED: REMARK    9  A    between atoms: C_35  and  C_36 
DOCKED: REMARK   10  A    between atoms: C_36  and  O_38 
DOCKED: REMARK   11  A    between atoms: FE_43  and  C_44 
DOCKED: REMARK   12  A    between atoms: C_44  and  O_45 
DOCKED: USER                              x       y       z     vdW  Elec       q    Type
DOCKED: USER                           _______ _______ _______ _____ _____    ______ ____
DOCKED: ROOT
DOCKED: ATOM      1  C   UNL d   1     -13.453 -18.095  -9.959 -0.07 +0.00    +0.064 A 
DOCKED: ATOM      2  C   UNL d   1      -9.349 -20.057  -8.572 -0.16 -0.00    +0.064 C 
DOCKED: ATOM      3  C   UNL d   1      -9.696 -17.878  -4.334 -0.19 -0.00    +0.064 A 
DOCKED: ATOM      4  C   UNL d   1     -14.077 -16.173  -5.584 -0.21 +0.01    +0.064 A 
DOCKED: ATOM      5  C   UNL d   1     -12.288 -18.762  -9.905 -0.07 +0.00    +0.066 A 
DOCKED: ATOM      6  C   UNL d   1     -11.856 -19.598 -10.953 -0.04 -0.00    -0.021 A 
DOCKED: ATOM      7  C   UNL d   1     -10.676 -20.182 -10.536 -0.06 -0.00    -0.025 A 
DOCKED: ATOM      8  C   UNL d   1     -10.430 -19.666  -9.259 -0.10 +0.00    +0.066 A 
DOCKED: ATOM      9  C   UNL d   1      -9.803 -21.191 -11.298 -0.07 +0.01    +0.051 C 
DOCKED: ATOM     10  C   UNL d   1      -9.000 -19.560  -7.265 -0.18 -0.00    +0.066 A 
DOCKED: ATOM     11  C   UNL d   1      -7.810 -19.823  -6.552 -0.22 +0.00    -0.021 A 
DOCKED: ATOM     12  C   UNL d   1      -7.936 -19.173  -5.322 -0.24 -0.00    +0.000 A 
DOCKED: ATOM     13  C   UNL d   1      -9.184 -18.552  -5.379 -0.20 -0.00    +0.070 A 
DOCKED: ATOM     14  C   UNL d   1      -6.606 -20.569  -7.070 -0.18 -0.00    +0.052 C 
DOCKED: ATOM     15  C   UNL d   1     -10.983 -17.224  -4.203 -0.19 +0.00    +0.066 A 
DOCKED: ATOM     16  C   UNL d   1     -11.509 -16.668  -3.045 -0.18 -0.00    -0.021 A 
DOCKED: ATOM     17  C   UNL d   1     -12.774 -16.177  -3.400 -0.23 +0.00    +0.000 A 
DOCKED: ATOM     18  C   UNL d   1     -12.912 -16.458  -4.756 -0.18 +0.01    +0.070 A 
DOCKED: ATOM     19  C   UNL d   1     -10.820 -16.628  -1.700 -0.18 +0.00    +0.052 C 
DOCKED: ATOM     20  C   UNL d   1     -14.269 -16.513  -6.881 -0.19 +0.01    +0.066 A 
DOCKED: ATOM     21  C   UNL d   1     -15.447 -16.214  -7.562 -0.15 -0.00    -0.025 A 
DOCKED: ATOM     22  C   UNL d   1     -15.285 -16.731  -8.834 -0.11 -0.00    -0.021 A 
DOCKED: ATOM     23  C   UNL d   1     -14.010 -17.335  -8.864 -0.12 +0.01    +0.066 A 
DOCKED: ATOM     24  C   UNL d   1     -16.677 -15.490  -7.021 -0.07 +0.00    +0.051 C 
DOCKED: ATOM     25  N   UNL d   1     -11.410 -18.779  -8.845 -0.05 -0.01    -0.248 N 
DOCKED: ATOM     26  N   UNL d   1      -9.802 -18.741  -6.576 -0.09 +0.00    -0.248 N 
DOCKED: ATOM     27  N   UNL d   1     -11.840 -17.108  -5.193 -0.11 -0.04    -0.248 N 
DOCKED: ATOM     28  N   UNL d   1     -13.392 -17.207  -7.683 -0.11 -0.04    -0.248 N 
DOCKED: ATOM     29 FE   UNL d   1     -11.640 -17.892  -6.912 -0.04 +0.00    +0.000 Fe
DOCKED: ENDROOT
DOCKED: BRANCH   6  30
DOCKED: ATOM     30  C   UNL d   1     -12.595 -19.878 -12.257 -0.02 +0.00    +0.052 C 
DOCKED: BRANCH  30  31
DOCKED: ATOM     31  C   UNL d   1     -13.343 -21.208 -12.176 -0.00 +0.01    +0.115 C 
DOCKED: BRANCH  31  32
DOCKED: ATOM     32  C   UNL d   1     -14.189 -21.320 -10.927 -0.00 +0.01    +0.139 C 
DOCKED: ATOM     33  O   UNL d   1     -15.401 -21.434 -11.030 +0.00 -0.02    -0.650 OA
DOCKED: BRANCH  32  34
DOCKED: ATOM     34  O   UNL d   1     -13.642 -21.347  -9.689 +0.01 -0.03    -0.776 OA
DOCKED: ATOM     35  H   UNL d   1     -14.063 -20.980  -8.900 +0.00 +0.00    +0.167 HD
DOCKED: ENDBRANCH  32  34
DOCKED: ENDBRANCH  31  32
DOCKED: ENDBRANCH  30  31
DOCKED: ENDBRANCH   6  30
DOCKED: BRANCH  29  36
DOCKED: ATOM     36  C   UNL d   1     -12.569 -19.678  -6.328 -0.03 +0.01    +0.190 C 
DOCKED: BRANCH  36  37
DOCKED: ATOM     37  O   UNL d   1     -13.428 -20.687  -6.777 -0.00 -0.01    -0.399 OA
DOCKED: ATOM     38  H   UNL d   1     -13.769 -20.360  -7.657 +0.01 +0.01    +0.209 HD
DOCKED: ENDBRANCH  36  37
DOCKED: ENDBRANCH  29  36
DOCKED: BRANCH  22  39
DOCKED: ATOM     39  C   UNL d   1     -16.328 -16.701  -9.936 -0.06 +0.00    +0.052 C 
DOCKED: BRANCH  39  40
DOCKED: ATOM     40  C   UNL d   1     -16.851 -18.117 -10.227 -0.01 +0.00    +0.115 C 
DOCKED: BRANCH  40  41
DOCKED: ATOM     41  C   UNL d   1     -16.883 -19.032  -9.020 -0.01 +0.00    +0.139 C 
DOCKED: ATOM     42  O   UNL d   1     -17.947 -19.232  -8.450 +0.00 -0.00    -0.650 OA
DOCKED: BRANCH  41  43
DOCKED: ATOM     43  O   UNL d   1     -15.785 -19.702  -8.608 +0.01 -0.02    -0.776 OA
DOCKED: ATOM     44  H   UNL d   1     -15.396 -20.425  -9.117 +0.00 +0.00    +0.167 HD
DOCKED: ENDBRANCH  41  43
DOCKED: ENDBRANCH  40  41
DOCKED: ENDBRANCH  39  40
DOCKED: ENDBRANCH  22  39
DOCKED: BRANCH  12  45
DOCKED: ATOM     45  C   UNL d   1      -7.018 -19.050  -4.113 -0.27 -0.00    +0.004 C 
DOCKED: ATOM     46  C   UNL d   1      -6.617 -17.978  -3.435 -0.37 -0.00    +0.012 C 
DOCKED: ENDBRANCH  12  45
DOCKED: BRANCH  17  47
DOCKED: ATOM     47  C   UNL d   1     -13.821 -15.536  -2.550 -0.25 +0.00    +0.004 C 
DOCKED: ATOM     48  C   UNL d   1     -13.747 -14.275  -2.116 -0.38 -0.00    +0.012 C 
DOCKED: ENDBRANCH  17  47
DOCKED: TORSDOF 12
DOCKED: TER
DOCKED: ENDMDL
________________________________________________________________________________


	BEGINNING GENETIC ALGORITHM DOCKING 95 of 100
Run: 95 Seed: 1696553310 1853857352 [ Run 95 of 100 GA/GALS ]
Beginning LAMARCKIAN GENETIC ALGORITHM (LGA), with a maximum of 25000000 energy evaluations.

Final-Value: -9.212


	FINAL GENETIC ALGORITHM DOCKED STATE
	_______________________________________________


Detailed state:  trans 17.450 0.044 4.904 quatxyzw -0.052141 -0.199436 -0.661793 -0.720789 center 8.781 34.984 -0.736 ntor 12 144.1014 96.8902 -150.7134 97.9736 -89.0388 84.6572 -122.3091 122.9638 30.1008 147.1708 178.3611 168.6875
State:	 17.450   0.044   4.904  -0.075 -0.288 -0.955 -87.761    144.10   96.89 -150.71   97.97  -89.04   84.66 -122.31  122.96   30.10  147.17  178.36  168.69

DOCKED: MODEL       95
DOCKED: USER    Run = 95
DOCKED: USER    DPF = D:/Protein_go_brrr/autodock/final/mut_Y35F/heme_Co/dock.dpf
DOCKED: USER  
DOCKED: USER    Estimated Free Energy of Binding    =   -3.59 kcal/mol  [=(1)+(2)+(3)-(4)]
DOCKED: USER    Estimated Inhibition Constant, Ki   =    2.34 mM (millimolar)  [Temperature = 298.15 K]
DOCKED: USER    
DOCKED: USER    (1) Final Intermolecular Energy     =   -7.17 kcal/mol
DOCKED: USER        vdW + Hbond + desolv Energy     =   -5.92 kcal/mol
DOCKED: USER        Electrostatic Energy            =   -1.25 kcal/mol
DOCKED: USER    (2) Final Total Internal Energy     =   -2.04 kcal/mol
DOCKED: USER    (3) Torsional Free Energy           =   +3.58 kcal/mol
DOCKED: USER    (4) Unbound System's Energy  [=(2)] =   -2.04 kcal/mol
DOCKED: USER    
DOCKED: USER    
DOCKED: USER    NEWDPF move heme_Co_opt.pdbqt
DOCKED: USER    NEWDPF about 8.781000 34.984000 -0.736000
DOCKED: USER    NEWDPF tran0 17.449538 0.044329 4.904344
DOCKED: USER    NEWDPF quaternion0 -0.052141 -0.199436 -0.661793 -0.720789
DOCKED: USER    NEWDPF axisangle0 -0.075222 -0.287722 -0.954755 -87.760706
DOCKED: USER    NEWDPF quat0 -0.075222 -0.287722 -0.954755 -87.760706
DOCKED: USER    NEWDPF dihe0 144.10 96.89 -150.71 97.97 -89.04 84.66 -122.31 122.96 30.10 147.17 178.36 168.69 
DOCKED: USER  keepresnum = 1 
DOCKED: USER  
DOCKED: REMARK  12 active torsions:
DOCKED: REMARK  status: ('A' for Active; 'I' for Inactive)
DOCKED: REMARK    1  A    between atoms: C_6  and  C_10 
DOCKED: REMARK    2  A    between atoms: C_10  and  C_11 
DOCKED: REMARK    3  A    between atoms: C_11  and  C_12 
DOCKED: REMARK    4  A    between atoms: C_12  and  O_14 
DOCKED: REMARK    5  A    between atoms: C_17  and  C_20 
DOCKED: REMARK    6  A    between atoms: C_24  and  C_27 
DOCKED: REMARK    7  A    between atoms: C_31  and  C_34 
DOCKED: REMARK    8  A    between atoms: C_34  and  C_35 
DOCKED: REMARK    9  A    between atoms: C_35  and  C_36 
DOCKED: REMARK   10  A    between atoms: C_36  and  O_38 
DOCKED: REMARK   11  A    between atoms: FE_43  and  C_44 
DOCKED: REMARK   12  A    between atoms: C_44  and  O_45 
DOCKED: USER                              x       y       z     vdW  Elec       q    Type
DOCKED: USER                           _______ _______ _______ _____ _____    ______ ____
DOCKED: ROOT
DOCKED: ATOM      1  C   UNL d   1      18.036   1.621   3.531 -0.14 +0.02    +0.064 A 
DOCKED: ATOM      2  C   UNL d   1      14.683   1.397   6.895 -0.20 +0.02    +0.064 C 
DOCKED: ATOM      3  C   UNL d   1      15.702  -3.208   7.657 -0.08 +0.01    +0.064 A 
DOCKED: ATOM      4  C   UNL d   1      19.389  -2.901   4.500 -0.07 +0.01    +0.064 A 
DOCKED: ATOM      5  C   UNL d   1      17.020   1.888   4.369 -0.25 +0.02    +0.066 A 
DOCKED: ATOM      6  C   UNL d   1      16.476   3.182   4.495 -0.30 -0.01    -0.021 A 
DOCKED: ATOM      7  C   UNL d   1      15.519   3.116   5.489 -0.22 -0.01    -0.025 A 
DOCKED: ATOM      8  C   UNL d   1      15.509   1.783   5.914 -0.18 +0.02    +0.066 A 
DOCKED: ATOM      9  C   UNL d   1      14.641   4.255   6.028 -0.20 +0.02    +0.051 C 
DOCKED: ATOM     10  C   UNL d   1      14.583   0.044   7.381 -0.16 +0.02    +0.066 A 
DOCKED: ATOM     11  C   UNL d   1      13.640  -0.453   8.307 -0.18 -0.01    -0.021 A 
DOCKED: ATOM     12  C   UNL d   1      13.958  -1.799   8.508 -0.13 +0.00    +0.000 A 
DOCKED: ATOM     13  C   UNL d   1      15.059  -2.027   7.683 -0.11 +0.01    +0.070 A 
DOCKED: ATOM     14  C   UNL d   1      12.465   0.300   8.875 -0.09 +0.03    +0.052 C 
DOCKED: ATOM     15  C   UNL d   1      16.880  -3.599   6.909 -0.05 +0.01    +0.066 A 
DOCKED: ATOM     16  C   UNL d   1      17.580  -4.790   7.038 -0.03 -0.00    -0.021 A 
DOCKED: ATOM     17  C   UNL d   1      18.646  -4.705   6.131 -0.02 +0.00    +0.000 A 
DOCKED: ATOM     18  C   UNL d   1      18.502  -3.471   5.506 -0.05 +0.01    +0.070 A 
DOCKED: ATOM     19  C   UNL d   1      17.224  -5.918   7.981 -0.02 +0.01    +0.052 C 
DOCKED: ATOM     20  C   UNL d   1      19.319  -1.669   3.941 -0.14 +0.01    +0.066 A 
DOCKED: ATOM     21  C   UNL d   1      20.253  -1.221   3.010 -0.19 -0.00    -0.025 A 
DOCKED: ATOM     22  C   UNL d   1      19.871   0.070   2.691 -0.29 -0.00    -0.021 A 
DOCKED: ATOM     23  C   UNL d   1      18.721   0.351   3.458 -0.27 +0.01    +0.066 A 
DOCKED: ATOM     24  C   UNL d   1      21.462  -1.977   2.465 -0.13 +0.01    +0.051 C 
DOCKED: ATOM     25  N   UNL d   1      16.424   0.999   5.234 -0.01 -0.06    -0.248 N 
DOCKED: ATOM     26  N   UNL d   1      15.401  -0.927   6.960 -0.08 -0.05    -0.248 N 
DOCKED: ATOM     27  N   UNL d   1      17.458  -2.827   6.015 -0.04 -0.04    -0.248 N 
DOCKED: ATOM     28  N   UNL d   1      18.385  -0.698   4.218 -0.11 -0.04    -0.248 N 
DOCKED: ATOM     29 FE   UNL d   1      16.974  -1.027   5.645 -0.04 +0.00    +0.000 Fe
DOCKED: ENDROOT
DOCKED: BRANCH   6  30
DOCKED: ATOM     30  C   UNL d   1      16.922   4.433   3.746 -0.26 +0.02    +0.052 C 
DOCKED: BRANCH  30  31
DOCKED: ATOM     31  C   UNL d   1      17.880   5.260   4.604 -0.21 +0.06    +0.115 C 
DOCKED: BRANCH  31  32
DOCKED: ATOM     32  C   UNL d   1      17.823   6.736   4.274 -0.27 +0.08    +0.139 C 
DOCKED: ATOM     33  O   UNL d   1      17.302   7.509   5.063 -0.00 -0.26    -0.650 OA
DOCKED: BRANCH  32  34
DOCKED: ATOM     34  O   UNL d   1      18.377   7.240   3.147 -0.39 -0.92    -0.776 OA
DOCKED: ATOM     35  H   UNL d   1      17.973   7.931   2.604 -0.23 +0.14    +0.167 HD
DOCKED: ENDBRANCH  32  34
DOCKED: ENDBRANCH  31  32
DOCKED: ENDBRANCH  30  31
DOCKED: ENDBRANCH   6  30
DOCKED: BRANCH  29  36
DOCKED: ATOM     36  C   UNL d   1      18.253  -0.263   7.119 -0.03 +0.03    +0.190 C 
DOCKED: BRANCH  36  37
DOCKED: ATOM     37  O   UNL d   1      19.436   0.461   7.302 -0.00 -0.05    -0.399 OA
DOCKED: ATOM     38  H   UNL d   1      19.891   0.436   6.415 +0.02 +0.03    +0.209 HD
DOCKED: ENDBRANCH  36  37
DOCKED: ENDBRANCH  29  36
DOCKED: BRANCH  22  39
DOCKED: ATOM     39  C   UNL d   1      20.614   0.999   1.749 -0.25 +0.02    +0.052 C 
DOCKED: BRANCH  39  40
DOCKED: ATOM     40  C   UNL d   1      21.657   1.828   2.515 -0.18 +0.04    +0.115 C 
DOCKED: BRANCH  40  41
DOCKED: ATOM     41  C   UNL d   1      21.207   2.287   3.886 -0.12 +0.05    +0.139 C 
DOCKED: ATOM     42  O   UNL d   1      20.784   3.426   4.027 +0.01 -0.37    -0.650 OA
DOCKED: BRANCH  41  43
DOCKED: ATOM     43  O   UNL d   1      21.177   1.445   4.943 +0.04 -0.17    -0.776 OA
DOCKED: ATOM     44  H   UNL d   1      20.495   1.493   5.626 +0.02 +0.03    +0.167 HD
DOCKED: ENDBRANCH  41  43
DOCKED: ENDBRANCH  40  41
DOCKED: ENDBRANCH  39  40
DOCKED: ENDBRANCH  22  39
DOCKED: BRANCH  12  45
DOCKED: ATOM     45  C   UNL d   1      13.340  -2.895   9.365 -0.12 +0.00    +0.004 C 
DOCKED: ATOM     46  C   UNL d   1      12.375  -3.770   9.090 -0.18 +0.00    +0.012 C 
DOCKED: ENDBRANCH  12  45
DOCKED: BRANCH  17  47
DOCKED: ATOM     47  C   UNL d   1      19.762  -5.665   5.879 -0.01 +0.00    +0.004 C 
DOCKED: ATOM     48  C   UNL d   1      21.033  -5.419   6.205 -0.00 +0.00    +0.012 C 
DOCKED: ENDBRANCH  17  47
DOCKED: TORSDOF 12
DOCKED: TER
DOCKED: ENDMDL
________________________________________________________________________________


	BEGINNING GENETIC ALGORITHM DOCKING 96 of 100
Run: 96 Seed: 1966853402 379730787 [ Run 96 of 100 GA/GALS ]
Beginning LAMARCKIAN GENETIC ALGORITHM (LGA), with a maximum of 25000000 energy evaluations.

Final-Value: -10.210


	FINAL GENETIC ALGORITHM DOCKED STATE
	_______________________________________________


Detailed state:  trans 2.315 -16.517 -9.677 quatxyzw -0.730071 0.144040 -0.663545 -0.077181 center 8.781 34.984 -0.736 ntor 12 139.9258 100.8879 35.1364 125.1217 70.2455 158.9106 -121.9553 143.5876 -135.0659 35.2058 177.8888 152.0471
State:	  2.315 -16.517  -9.677  -0.732  0.144 -0.666 -171.147    139.93  100.89   35.14  125.12   70.25  158.91 -121.96  143.59 -135.07   35.21  177.89  152.05

DOCKED: MODEL       96
DOCKED: USER    Run = 96
DOCKED: USER    DPF = D:/Protein_go_brrr/autodock/final/mut_Y35F/heme_Co/dock.dpf
DOCKED: USER  
DOCKED: USER    Estimated Free Energy of Binding    =   -4.03 kcal/mol  [=(1)+(2)+(3)-(4)]
DOCKED: USER    Estimated Inhibition Constant, Ki   =    1.12 mM (millimolar)  [Temperature = 298.15 K]
DOCKED: USER    
DOCKED: USER    (1) Final Intermolecular Energy     =   -7.61 kcal/mol
DOCKED: USER        vdW + Hbond + desolv Energy     =   -7.20 kcal/mol
DOCKED: USER        Electrostatic Energy            =   -0.40 kcal/mol
DOCKED: USER    (2) Final Total Internal Energy     =   -2.60 kcal/mol
DOCKED: USER    (3) Torsional Free Energy           =   +3.58 kcal/mol
DOCKED: USER    (4) Unbound System's Energy  [=(2)] =   -2.60 kcal/mol
DOCKED: USER    
DOCKED: USER    
DOCKED: USER    NEWDPF move heme_Co_opt.pdbqt
DOCKED: USER    NEWDPF about 8.781000 34.984000 -0.736000
DOCKED: USER    NEWDPF tran0 2.314571 -16.516828 -9.677004
DOCKED: USER    NEWDPF quaternion0 -0.730071 0.144040 -0.663545 -0.077181
DOCKED: USER    NEWDPF axisangle0 -0.732256 0.144471 -0.665530 -171.146912
DOCKED: USER    NEWDPF quat0 -0.732256 0.144471 -0.665530 -171.146912
DOCKED: USER    NEWDPF dihe0 139.93 100.89 35.14 125.12 70.25 158.91 -121.96 143.59 -135.07 35.21 177.89 152.05 
DOCKED: USER  keepresnum = 1 
DOCKED: USER  
DOCKED: REMARK  12 active torsions:
DOCKED: REMARK  status: ('A' for Active; 'I' for Inactive)
DOCKED: REMARK    1  A    between atoms: C_6  and  C_10 
DOCKED: REMARK    2  A    between atoms: C_10  and  C_11 
DOCKED: REMARK    3  A    between atoms: C_11  and  C_12 
DOCKED: REMARK    4  A    between atoms: C_12  and  O_14 
DOCKED: REMARK    5  A    between atoms: C_17  and  C_20 
DOCKED: REMARK    6  A    between atoms: C_24  and  C_27 
DOCKED: REMARK    7  A    between atoms: C_31  and  C_34 
DOCKED: REMARK    8  A    between atoms: C_34  and  C_35 
DOCKED: REMARK    9  A    between atoms: C_35  and  C_36 
DOCKED: REMARK   10  A    between atoms: C_36  and  O_38 
DOCKED: REMARK   11  A    between atoms: FE_43  and  C_44 
DOCKED: REMARK   12  A    between atoms: C_44  and  O_45 
DOCKED: USER                              x       y       z     vdW  Elec       q    Type
DOCKED: USER                           _______ _______ _______ _____ _____    ______ ____
DOCKED: ROOT
DOCKED: ATOM      1  C   UNL d   1       1.268 -16.317 -11.569 -0.22 -0.01    +0.064 A 
DOCKED: ATOM      2  C   UNL d   1       5.354 -14.486  -9.970 -0.25 -0.02    +0.064 C 
DOCKED: ATOM      3  C   UNL d   1       4.573 -16.404  -5.664 -0.18 -0.02    +0.064 A 
DOCKED: ATOM      4  C   UNL d   1       0.589 -18.605  -7.382 -0.25 -0.04    +0.064 A 
DOCKED: ATOM      5  C   UNL d   1       2.424 -15.646 -11.438 -0.21 -0.02    +0.066 A 
DOCKED: ATOM      6  C   UNL d   1       3.036 -14.994 -12.526 -0.16 +0.01    -0.021 A 
DOCKED: ATOM      7  C   UNL d   1       4.233 -14.484 -12.062 -0.20 +0.01    -0.025 A 
DOCKED: ATOM      8  C   UNL d   1       4.292 -14.832 -10.708 -0.22 -0.02    +0.066 A 
DOCKED: ATOM      9  C   UNL d   1       5.291 -13.697 -12.850 -0.12 -0.01    +0.051 C 
DOCKED: ATOM     10  C   UNL d   1       5.491 -14.777  -8.565 -0.23 -0.03    +0.066 A 
DOCKED: ATOM     11  C   UNL d   1       6.513 -14.322  -7.704 -0.19 +0.01    -0.021 A 
DOCKED: ATOM     12  C   UNL d   1       6.259 -14.893  -6.454 -0.18 -0.00    +0.000 A 
DOCKED: ATOM     13  C   UNL d   1       5.096 -15.642  -6.641 -0.20 -0.03    +0.070 A 
DOCKED: ATOM     14  C   UNL d   1       7.595 -13.332  -8.051 -0.16 -0.04    +0.052 C 
DOCKED: ATOM     15  C   UNL d   1       3.415 -17.276  -5.699 -0.18 -0.02    +0.066 A 
DOCKED: ATOM     16  C   UNL d   1       3.012 -18.148  -4.698 -0.16 +0.01    -0.021 A 
DOCKED: ATOM     17  C   UNL d   1       1.865 -18.787  -5.189 -0.20 -0.00    +0.000 A 
DOCKED: ATOM     18  C   UNL d   1       1.648 -18.240  -6.450 -0.23 -0.04    +0.070 A 
DOCKED: ATOM     19  C   UNL d   1       3.705 -18.335  -3.366 -0.15 -0.01    +0.052 C 
DOCKED: ATOM     20  C   UNL d   1       0.410 -18.149  -8.645 -0.27 -0.03    +0.066 A 
DOCKED: ATOM     21  C   UNL d   1      -0.627 -18.602  -9.458 -0.29 +0.01    -0.025 A 
DOCKED: ATOM     22  C   UNL d   1      -0.474 -17.939 -10.662 -0.28 +0.00    -0.021 A 
DOCKED: ATOM     23  C   UNL d   1       0.665 -17.116 -10.526 -0.26 -0.01    +0.066 A 
DOCKED: ATOM     24  C   UNL d   1      -1.699 -19.632  -9.114 -0.32 -0.01    +0.051 C 
DOCKED: ATOM     25  N   UNL d   1       3.181 -15.547 -10.293 -0.14 +0.11    -0.248 N 
DOCKED: ATOM     26  N   UNL d   1       4.602 -15.526  -7.903 -0.14 +0.11    -0.248 N 
DOCKED: ATOM     27  N   UNL d   1       2.608 -17.366  -6.732 -0.07 +0.12    -0.248 N 
DOCKED: ATOM     28  N   UNL d   1       1.204 -17.242  -9.307 -0.15 +0.10    -0.248 N 
DOCKED: ATOM     29 FE   UNL d   1       2.874 -16.511  -8.408 -0.05 -0.00    +0.000 Fe
DOCKED: ENDROOT
DOCKED: BRANCH   6  30
DOCKED: ATOM     30  C   UNL d   1       2.523 -14.941 -13.961 -0.10 -0.01    +0.052 C 
DOCKED: BRANCH  30  31
DOCKED: ATOM     31  C   UNL d   1       3.219 -15.998 -14.819 -0.02 -0.01    +0.115 C 
DOCKED: BRANCH  31  32
DOCKED: ATOM     32  C   UNL d   1       3.340 -17.329 -14.109 -0.00 -0.01    +0.139 C 
DOCKED: ATOM     33  O   UNL d   1       2.650 -18.270 -14.474 +0.01 -0.00    -0.650 OA
DOCKED: BRANCH  32  34
DOCKED: ATOM     34  O   UNL d   1       4.228 -17.530 -13.107 +0.03 +0.07    -0.776 OA
DOCKED: ATOM     35  H   UNL d   1       4.021 -17.989 -12.281 +0.01 -0.02    +0.167 HD
DOCKED: ENDBRANCH  32  34
DOCKED: ENDBRANCH  31  32
DOCKED: ENDBRANCH  30  31
DOCKED: ENDBRANCH   6  30
DOCKED: BRANCH  29  36
DOCKED: ATOM     36  C   UNL d   1       4.007 -18.104  -9.166 -0.05 -0.04    +0.190 C 
DOCKED: BRANCH  36  37
DOCKED: ATOM     37  O   UNL d   1       4.757 -18.510 -10.275 +0.00 +0.06    -0.399 OA
DOCKED: ATOM     38  H   UNL d   1       4.548 -17.840 -10.985 +0.02 -0.03    +0.209 HD
DOCKED: ENDBRANCH  36  37
DOCKED: ENDBRANCH  29  36
DOCKED: BRANCH  22  39
DOCKED: ATOM     39  C   UNL d   1      -1.338 -18.138 -11.893 -0.27 +0.01    +0.052 C 
DOCKED: BRANCH  39  40
DOCKED: ATOM     40  C   UNL d   1      -0.575 -18.925 -12.971 -0.13 +0.03    +0.115 C 
DOCKED: BRANCH  40  41
DOCKED: ATOM     41  C   UNL d   1      -0.984 -18.597 -14.391 -0.11 +0.05    +0.139 C 
DOCKED: ATOM     42  O   UNL d   1      -2.015 -19.076 -14.842 -0.02 -0.45    -0.650 OA
DOCKED: BRANCH  41  43
DOCKED: ATOM     43  O   UNL d   1      -0.287 -17.720 -15.147 +0.04 -0.15    -0.776 OA
DOCKED: ATOM     44  H   UNL d   1       0.678 -17.696 -15.157 +0.02 +0.02    +0.167 HD
DOCKED: ENDBRANCH  41  43
DOCKED: ENDBRANCH  40  41
DOCKED: ENDBRANCH  39  40
DOCKED: ENDBRANCH  22  39
DOCKED: BRANCH  12  45
DOCKED: ATOM     45  C   UNL d   1       6.965 -14.802  -5.108 -0.24 -0.00    +0.004 C 
DOCKED: ATOM     46  C   UNL d   1       6.547 -14.317  -3.942 -0.34 -0.01    +0.012 C 
DOCKED: ENDBRANCH  12  45
DOCKED: BRANCH  17  47
DOCKED: ATOM     47  C   UNL d   1       1.039 -19.869  -4.576 -0.15 -0.00    +0.004 C 
DOCKED: ATOM     48  C   UNL d   1       0.593 -19.833  -3.318 -0.27 -0.00    +0.012 C 
DOCKED: ENDBRANCH  17  47
DOCKED: TORSDOF 12
DOCKED: TER
DOCKED: ENDMDL
________________________________________________________________________________


	BEGINNING GENETIC ALGORITHM DOCKING 97 of 100
Run: 97 Seed: 1928656062 473645611 [ Run 97 of 100 GA/GALS ]
Beginning LAMARCKIAN GENETIC ALGORITHM (LGA), with a maximum of 25000000 energy evaluations.

Final-Value: -11.030


	FINAL GENETIC ALGORITHM DOCKED STATE
	_______________________________________________


Detailed state:  trans 11.637 11.887 6.959 quatxyzw -0.612533 -0.670953 -0.384938 0.162628 center 8.781 34.984 -0.736 ntor 12 -150.5102 117.9053 58.2914 116.6017 60.3412 114.3087 43.1768 -105.8833 155.6587 -63.4857 -156.7479 11.3667
State:	 11.637  11.887   6.959  -0.621 -0.680 -0.390 161.281   -150.51  117.91   58.29  116.60   60.34  114.31   43.18 -105.88  155.66  -63.49 -156.75   11.37

DOCKED: MODEL       97
DOCKED: USER    Run = 97
DOCKED: USER    DPF = D:/Protein_go_brrr/autodock/final/mut_Y35F/heme_Co/dock.dpf
DOCKED: USER  
DOCKED: USER    Estimated Free Energy of Binding    =   -5.17 kcal/mol  [=(1)+(2)+(3)-(4)]
DOCKED: USER    Estimated Inhibition Constant, Ki   =  161.67 uM (micromolar)  [Temperature = 298.15 K]
DOCKED: USER    
DOCKED: USER    (1) Final Intermolecular Energy     =   -8.75 kcal/mol
DOCKED: USER        vdW + Hbond + desolv Energy     =   -6.78 kcal/mol
DOCKED: USER        Electrostatic Energy            =   -1.97 kcal/mol
DOCKED: USER    (2) Final Total Internal Energy     =   -2.28 kcal/mol
DOCKED: USER    (3) Torsional Free Energy           =   +3.58 kcal/mol
DOCKED: USER    (4) Unbound System's Energy  [=(2)] =   -2.28 kcal/mol
DOCKED: USER    
DOCKED: USER    
DOCKED: USER    NEWDPF move heme_Co_opt.pdbqt
DOCKED: USER    NEWDPF about 8.781000 34.984000 -0.736000
DOCKED: USER    NEWDPF tran0 11.636664 11.886886 6.958856
DOCKED: USER    NEWDPF quaternion0 -0.612533 -0.670953 -0.384938 0.162628
DOCKED: USER    NEWDPF axisangle0 -0.620798 -0.680005 -0.390132 161.281022
DOCKED: USER    NEWDPF quat0 -0.620798 -0.680005 -0.390132 161.281022
DOCKED: USER    NEWDPF dihe0 -150.51 117.91 58.29 116.60 60.34 114.31 43.18 -105.88 155.66 -63.49 -156.75 11.37 
DOCKED: USER  keepresnum = 1 
DOCKED: USER  
DOCKED: REMARK  12 active torsions:
DOCKED: REMARK  status: ('A' for Active; 'I' for Inactive)
DOCKED: REMARK    1  A    between atoms: C_6  and  C_10 
DOCKED: REMARK    2  A    between atoms: C_10  and  C_11 
DOCKED: REMARK    3  A    between atoms: C_11  and  C_12 
DOCKED: REMARK    4  A    between atoms: C_12  and  O_14 
DOCKED: REMARK    5  A    between atoms: C_17  and  C_20 
DOCKED: REMARK    6  A    between atoms: C_24  and  C_27 
DOCKED: REMARK    7  A    between atoms: C_31  and  C_34 
DOCKED: REMARK    8  A    between atoms: C_34  and  C_35 
DOCKED: REMARK    9  A    between atoms: C_35  and  C_36 
DOCKED: REMARK   10  A    between atoms: C_36  and  O_38 
DOCKED: REMARK   11  A    between atoms: FE_43  and  C_44 
DOCKED: REMARK   12  A    between atoms: C_44  and  O_45 
DOCKED: USER                              x       y       z     vdW  Elec       q    Type
DOCKED: USER                           _______ _______ _______ _____ _____    ______ ____
DOCKED: ROOT
DOCKED: ATOM      1  C   UNL d   1      11.779   9.761   7.379 -0.10 +0.01    +0.064 A 
DOCKED: ATOM      2  C   UNL d   1      12.254  12.263   3.363 -0.23 -0.01    +0.064 C 
DOCKED: ATOM      3  C   UNL d   1      11.008  16.262   5.663 -0.17 -0.01    +0.064 A 
DOCKED: ATOM      4  C   UNL d   1      10.891  13.798   9.856 -0.23 +0.02    +0.064 A 
DOCKED: ATOM      5  C   UNL d   1      11.965  10.145   6.105 -0.11 +0.01    +0.066 A 
DOCKED: ATOM      6  C   UNL d   1      12.416   9.251   5.114 -0.16 -0.00    -0.021 A 
DOCKED: ATOM      7  C   UNL d   1      12.574   9.988   3.956 -0.26 -0.00    -0.025 A 
DOCKED: ATOM      8  C   UNL d   1      12.197  11.294   4.286 -0.18 -0.00    +0.066 A 
DOCKED: ATOM      9  C   UNL d   1      13.062   9.495   2.585 -0.50 -0.00    +0.051 C 
DOCKED: ATOM     10  C   UNL d   1      11.862  13.629   3.603 -0.17 -0.01    +0.066 A 
DOCKED: ATOM     11  C   UNL d   1      11.765  14.660   2.643 -0.21 +0.01    -0.021 A 
DOCKED: ATOM     12  C   UNL d   1      11.396  15.814   3.340 -0.14 -0.00    +0.000 A 
DOCKED: ATOM     13  C   UNL d   1      11.283  15.400   4.667 -0.15 -0.01    +0.070 A 
DOCKED: ATOM     14  C   UNL d   1      11.924  14.508   1.152 -0.39 -0.02    +0.052 C 
DOCKED: ATOM     15  C   UNL d   1      10.907  16.018   7.088 -0.12 -0.01    +0.066 A 
DOCKED: ATOM     16  C   UNL d   1      10.764  16.978   8.080 -0.10 +0.00    -0.021 A 
DOCKED: ATOM     17  C   UNL d   1      10.732  16.273   9.291 -0.22 +0.00    +0.000 A 
DOCKED: ATOM     18  C   UNL d   1      10.841  14.931   8.940 -0.24 +0.01    +0.070 A 
DOCKED: ATOM     19  C   UNL d   1      10.668  18.470   7.848 -0.15 -0.01    +0.052 C 
DOCKED: ATOM     20  C   UNL d   1      11.084  12.494   9.544 -0.19 +0.02    +0.066 A 
DOCKED: ATOM     21  C   UNL d   1      11.149  11.499  10.517 -0.17 -0.01    -0.025 A 
DOCKED: ATOM     22  C   UNL d   1      11.375  10.320   9.830 -0.13 -0.01    -0.021 A 
DOCKED: ATOM     23  C   UNL d   1      11.449  10.659   8.462 -0.13 +0.01    +0.066 A 
DOCKED: ATOM     24  C   UNL d   1      11.022  11.665  12.029 -0.17 +0.03    +0.051 C 
DOCKED: ATOM     25  N   UNL d   1      11.809  11.419   5.609 -0.07 -0.01    -0.248 N 
DOCKED: ATOM     26  N   UNL d   1      11.510  14.068   4.816 -0.07 +0.02    -0.248 N 
DOCKED: ATOM     27  N   UNL d   1      10.974  14.819   7.623 -0.12 +0.00    -0.248 N 
DOCKED: ATOM     28  N   UNL d   1      11.276  11.975   8.285 -0.01 -0.04    -0.248 N 
DOCKED: ATOM     29 FE   UNL d   1      11.366  13.218   6.679 -0.04 +0.00    +0.000 Fe
DOCKED: ENDROOT
DOCKED: BRANCH   6  30
DOCKED: ATOM     30  C   UNL d   1      12.756   7.777   5.305 -0.21 +0.01    +0.052 C 
DOCKED: BRANCH  30  31
DOCKED: ATOM     31  C   UNL d   1      14.065   7.623   6.079 -0.10 +0.03    +0.115 C 
DOCKED: BRANCH  31  32
DOCKED: ATOM     32  C   UNL d   1      14.979   8.817   5.909 -0.09 +0.03    +0.139 C 
DOCKED: ATOM     33  O   UNL d   1      15.743   8.858   4.956 -0.28 -0.28    -0.650 OA
DOCKED: BRANCH  32  34
DOCKED: ATOM     34  O   UNL d   1      14.947   9.871   6.757 +0.03 -0.15    -0.776 OA
DOCKED: ATOM     35  H   UNL d   1      15.226  10.767   6.522 +0.02 +0.03    +0.167 HD
DOCKED: ENDBRANCH  32  34
DOCKED: ENDBRANCH  31  32
DOCKED: ENDBRANCH  30  31
DOCKED: ENDBRANCH   6  30
DOCKED: BRANCH  29  36
DOCKED: ATOM     36  C   UNL d   1      13.435  13.440   6.938 -0.04 +0.01    +0.190 C 
DOCKED: BRANCH  36  37
DOCKED: ATOM     37  O   UNL d   1      14.606  12.728   7.217 -0.00 -0.03    -0.399 OA
DOCKED: ATOM     38  H   UNL d   1      14.323  11.771   7.247 +0.02 +0.02    +0.209 HD
DOCKED: ENDBRANCH  36  37
DOCKED: ENDBRANCH  29  36
DOCKED: BRANCH  22  39
DOCKED: ATOM     39  C   UNL d   1      11.573   8.956  10.464 -0.09 +0.02    +0.052 C 
DOCKED: BRANCH  39  40
DOCKED: ATOM     40  C   UNL d   1      10.399   8.024  10.124 -0.13 +0.07    +0.115 C 
DOCKED: BRANCH  40  41
DOCKED: ATOM     41  C   UNL d   1      10.755   6.884   9.193 -0.09 +0.16    +0.139 C 
DOCKED: ATOM     42  O   UNL d   1      11.878   6.401   9.241 -0.01 -0.79    -0.650 OA
DOCKED: BRANCH  41  43
DOCKED: ATOM     43  O   UNL d   1       9.840   6.327   8.370 -0.20 -1.22    -0.776 OA
DOCKED: ATOM     44  H   UNL d   1       9.424   6.817   7.649 +0.06 +0.14    +0.167 HD
DOCKED: ENDBRANCH  41  43
DOCKED: ENDBRANCH  40  41
DOCKED: ENDBRANCH  39  40
DOCKED: ENDBRANCH  22  39
DOCKED: BRANCH  12  45
DOCKED: ATOM     45  C   UNL d   1      11.120  17.247   2.904 -0.11 -0.00    +0.004 C 
DOCKED: ATOM     46  C   UNL d   1       9.977  17.923   2.824 -0.16 -0.00    +0.012 C 
DOCKED: ENDBRANCH  12  45
DOCKED: BRANCH  17  47
DOCKED: ATOM     47  C   UNL d   1      10.658  16.785  10.692 -0.22 +0.00    +0.004 C 
DOCKED: ATOM     48  C   UNL d   1       9.913  17.832  11.055 -0.21 +0.00    +0.012 C 
DOCKED: ENDBRANCH  17  47
DOCKED: TORSDOF 12
DOCKED: TER
DOCKED: ENDMDL
________________________________________________________________________________


	BEGINNING GENETIC ALGORITHM DOCKING 98 of 100
Run: 98 Seed: 1504162656 297112711 [ Run 98 of 100 GA/GALS ]
Beginning LAMARCKIAN GENETIC ALGORITHM (LGA), with a maximum of 25000000 energy evaluations.

Final-Value: -9.538


	FINAL GENETIC ALGORITHM DOCKED STATE
	_______________________________________________


Detailed state:  trans -10.362 -18.639 -9.659 quatxyzw -0.108311 -0.395129 0.874233 -0.260497 center 8.781 34.984 -0.736 ntor 12 -156.4755 113.7574 26.4247 119.1247 125.2892 116.1694 34.8638 108.2028 -79.3279 27.0778 -169.9312 -165.1902
State:	-10.362 -18.639  -9.659  -0.112 -0.409  0.905 -149.801   -156.48  113.76   26.42  119.12  125.29  116.17   34.86  108.20  -79.33   27.08 -169.93 -165.19

DOCKED: MODEL       98
DOCKED: USER    Run = 98
DOCKED: USER    DPF = D:/Protein_go_brrr/autodock/final/mut_Y35F/heme_Co/dock.dpf
DOCKED: USER  
DOCKED: USER    Estimated Free Energy of Binding    =   -3.55 kcal/mol  [=(1)+(2)+(3)-(4)]
DOCKED: USER    Estimated Inhibition Constant, Ki   =    2.52 mM (millimolar)  [Temperature = 298.15 K]
DOCKED: USER    
DOCKED: USER    (1) Final Intermolecular Energy     =   -7.13 kcal/mol
DOCKED: USER        vdW + Hbond + desolv Energy     =   -5.08 kcal/mol
DOCKED: USER        Electrostatic Energy            =   -2.05 kcal/mol
DOCKED: USER    (2) Final Total Internal Energy     =   -2.41 kcal/mol
DOCKED: USER    (3) Torsional Free Energy           =   +3.58 kcal/mol
DOCKED: USER    (4) Unbound System's Energy  [=(2)] =   -2.41 kcal/mol
DOCKED: USER    
DOCKED: USER    
DOCKED: USER    NEWDPF move heme_Co_opt.pdbqt
DOCKED: USER    NEWDPF about 8.781000 34.984000 -0.736000
DOCKED: USER    NEWDPF tran0 -10.361948 -18.639001 -9.659413
DOCKED: USER    NEWDPF quaternion0 -0.108311 -0.395129 0.874233 -0.260497
DOCKED: USER    NEWDPF axisangle0 -0.112184 -0.409259 0.905495 -149.800850
DOCKED: USER    NEWDPF quat0 -0.112184 -0.409259 0.905495 -149.800850
DOCKED: USER    NEWDPF dihe0 -156.48 113.76 26.42 119.12 125.29 116.17 34.86 108.20 -79.33 27.08 -169.93 -165.19 
DOCKED: USER  keepresnum = 1 
DOCKED: USER  
DOCKED: REMARK  12 active torsions:
DOCKED: REMARK  status: ('A' for Active; 'I' for Inactive)
DOCKED: REMARK    1  A    between atoms: C_6  and  C_10 
DOCKED: REMARK    2  A    between atoms: C_10  and  C_11 
DOCKED: REMARK    3  A    between atoms: C_11  and  C_12 
DOCKED: REMARK    4  A    between atoms: C_12  and  O_14 
DOCKED: REMARK    5  A    between atoms: C_17  and  C_20 
DOCKED: REMARK    6  A    between atoms: C_24  and  C_27 
DOCKED: REMARK    7  A    between atoms: C_31  and  C_34 
DOCKED: REMARK    8  A    between atoms: C_34  and  C_35 
DOCKED: REMARK    9  A    between atoms: C_35  and  C_36 
DOCKED: REMARK   10  A    between atoms: C_36  and  O_38 
DOCKED: REMARK   11  A    between atoms: FE_43  and  C_44 
DOCKED: REMARK   12  A    between atoms: C_44  and  O_45 
DOCKED: USER                              x       y       z     vdW  Elec       q    Type
DOCKED: USER                           _______ _______ _______ _____ _____    ______ ____
DOCKED: ROOT
DOCKED: ATOM      1  C   UNL d   1      -8.584 -19.422 -10.629 -0.19 +0.00    +0.064 A 
DOCKED: ATOM      2  C   UNL d   1     -10.135 -19.642  -6.139 -0.10 -0.00    +0.064 C 
DOCKED: ATOM      3  C   UNL d   1     -13.804 -16.782  -7.227 -0.19 +0.01    +0.064 A 
DOCKED: ATOM      4  C   UNL d   1     -12.458 -16.854 -11.901 -0.10 +0.01    +0.064 A 
DOCKED: ATOM      5  C   UNL d   1      -8.718 -19.663  -9.314 -0.16 -0.00    +0.066 A 
DOCKED: ATOM      6  C   UNL d   1      -7.856 -20.537  -8.623 -0.20 -0.00    -0.021 A 
DOCKED: ATOM      7  C   UNL d   1      -8.324 -20.615  -7.326 -0.14 +0.00    -0.025 A 
DOCKED: ATOM      8  C   UNL d   1      -9.441 -19.773  -7.277 -0.14 -0.00    +0.066 A 
DOCKED: ATOM      9  C   UNL d   1      -7.754 -21.445  -6.166 -0.09 -0.00    +0.051 C 
DOCKED: ATOM     10  C   UNL d   1     -11.280 -18.780  -5.987 -0.10 +0.00    +0.066 A 
DOCKED: ATOM     11  C   UNL d   1     -11.965 -18.492  -4.787 -0.09 -0.00    -0.021 A 
DOCKED: ATOM     12  C   UNL d   1     -13.028 -17.652  -5.132 -0.14 +0.00    +0.000 A 
DOCKED: ATOM     13  C   UNL d   1     -12.905 -17.481  -6.511 -0.12 +0.01    +0.070 A 
DOCKED: ATOM     14  C   UNL d   1     -11.557 -18.922  -3.401 -0.05 +0.00    +0.052 C 
DOCKED: ATOM     15  C   UNL d   1     -13.861 -16.549  -8.657 -0.19 +0.01    +0.066 A 
DOCKED: ATOM     16  C   UNL d   1     -14.896 -15.939  -9.351 -0.18 -0.00    -0.021 A 
DOCKED: ATOM     17  C   UNL d   1     -14.513 -15.960 -10.700 -0.14 +0.00    +0.000 A 
DOCKED: ATOM     18  C   UNL d   1     -13.263 -16.568 -10.720 -0.14 +0.01    +0.070 A 
DOCKED: ATOM     19  C   UNL d   1     -16.159 -15.384  -8.732 -0.14 +0.00    +0.052 C 
DOCKED: ATOM     20  C   UNL d   1     -11.280 -17.521 -11.954 -0.10 +0.01    +0.066 A 
DOCKED: ATOM     21  C   UNL d   1     -10.618 -17.766 -13.155 -0.08 -0.00    -0.025 A 
DOCKED: ATOM     22  C   UNL d   1      -9.483 -18.479 -12.817 -0.16 -0.00    -0.021 A 
DOCKED: ATOM     23  C   UNL d   1      -9.515 -18.646 -11.416 -0.18 +0.01    +0.066 A 
DOCKED: ATOM     24  C   UNL d   1     -11.055 -17.358 -14.560 -0.04 +0.01    +0.051 C 
DOCKED: ATOM     25  N   UNL d   1      -9.704 -19.166  -8.493 -0.09 +0.01    -0.248 N 
DOCKED: ATOM     26  N   UNL d   1     -11.816 -18.118  -7.018 +0.02 -0.02    -0.248 N 
DOCKED: ATOM     27  N   UNL d   1     -12.919 -16.933  -9.490 -0.08 -0.04    -0.248 N 
DOCKED: ATOM     28  N   UNL d   1     -10.602 -18.069 -10.890 -0.10 -0.02    -0.248 N 
DOCKED: ATOM     29 FE   UNL d   1     -11.405 -17.983  -9.024 -0.04 +0.00    +0.000 Fe
DOCKED: ENDROOT
DOCKED: BRANCH   6  30
DOCKED: ATOM     30  C   UNL d   1      -6.688 -21.319  -9.214 -0.20 +0.00    +0.052 C 
DOCKED: BRANCH  30  31
DOCKED: ATOM     31  C   UNL d   1      -7.173 -22.641  -9.808 -0.07 +0.02    +0.115 C 
DOCKED: BRANCH  31  32
DOCKED: ATOM     32  C   UNL d   1      -7.357 -22.567 -11.309 -0.09 +0.04    +0.139 C 
DOCKED: ATOM     33  O   UNL d   1      -8.462 -22.315 -11.767 +0.01 -0.18    -0.650 OA
DOCKED: BRANCH  32  34
DOCKED: ATOM     34  O   UNL d   1      -6.323 -22.725 -12.167 -0.01 -0.45    -0.776 OA
DOCKED: ATOM     35  H   UNL d   1      -6.330 -22.429 -13.088 +0.01 +0.18    +0.167 HD
DOCKED: ENDBRANCH  32  34
DOCKED: ENDBRANCH  31  32
DOCKED: ENDBRANCH  30  31
DOCKED: ENDBRANCH   6  30
DOCKED: BRANCH  29  36
DOCKED: ATOM     36  C   UNL d   1     -12.418 -19.789  -9.351 -0.03 +0.01    +0.190 C 
DOCKED: BRANCH  36  37
DOCKED: ATOM     37  O   UNL d   1     -12.255 -21.082  -9.858 -0.00 -0.02    -0.399 OA
DOCKED: ATOM     38  H   UNL d   1     -11.303 -21.123 -10.155 +0.02 +0.01    +0.209 HD
DOCKED: ENDBRANCH  36  37
DOCKED: ENDBRANCH  29  36
DOCKED: BRANCH  22  39
DOCKED: ATOM     39  C   UNL d   1      -8.461 -19.025 -13.797 -0.07 +0.02    +0.052 C 
DOCKED: BRANCH  39  40
DOCKED: ATOM     40  C   UNL d   1      -9.101 -20.078 -14.717 -0.10 +0.06    +0.115 C 
DOCKED: BRANCH  40  41
DOCKED: ATOM     41  C   UNL d   1      -8.113 -21.030 -15.358 +0.03 +0.15    +0.139 C 
DOCKED: ATOM     42  O   UNL d   1      -7.952 -20.999 -16.570 -0.14 -0.68    -0.650 OA
DOCKED: BRANCH  41  43
DOCKED: ATOM     43  O   UNL d   1      -7.338 -21.855 -14.618 -0.39 -1.36    -0.776 OA
DOCKED: ATOM     44  H   UNL d   1      -7.636 -22.235 -13.781 +0.01 +0.16    +0.167 HD
DOCKED: ENDBRANCH  41  43
DOCKED: ENDBRANCH  40  41
DOCKED: ENDBRANCH  39  40
DOCKED: ENDBRANCH  22  39
DOCKED: BRANCH  12  45
DOCKED: ATOM     45  C   UNL d   1     -14.127 -16.981  -4.320 -0.15 +0.00    +0.004 C 
DOCKED: ATOM     46  C   UNL d   1     -14.328 -15.698  -4.028 -0.23 +0.00    +0.012 C 
DOCKED: ENDBRANCH  12  45
DOCKED: BRANCH  17  47
DOCKED: ATOM     47  C   UNL d   1     -15.259 -15.501 -11.910 -0.09 +0.00    +0.004 C 
DOCKED: ATOM     48  C   UNL d   1     -14.990 -14.363 -12.554 -0.12 +0.00    +0.012 C 
DOCKED: ENDBRANCH  17  47
DOCKED: TORSDOF 12
DOCKED: TER
DOCKED: ENDMDL
________________________________________________________________________________


	BEGINNING GENETIC ALGORITHM DOCKING 99 of 100
Run: 99 Seed: 324377225 1064178119 [ Run 99 of 100 GA/GALS ]
Beginning LAMARCKIAN GENETIC ALGORITHM (LGA), with a maximum of 25000000 energy evaluations.

Final-Value: -10.918


	FINAL GENETIC ALGORITHM DOCKED STATE
	_______________________________________________


Detailed state:  trans 14.030 5.761 9.122 quatxyzw 0.731054 -0.667805 -0.139831 -0.006568 center 8.781 34.984 -0.736 ntor 12 150.8225 112.3165 -39.9787 132.6597 -41.6920 107.4433 -121.8627 -20.1468 -126.4409 -176.0025 -174.5254 -180.0000
State:	 14.030   5.761   9.122   0.731 -0.668 -0.140 -179.247    150.82  112.32  -39.98  132.66  -41.69  107.44 -121.86  -20.15 -126.44 -176.00 -174.53 -180.00

DOCKED: MODEL       99
DOCKED: USER    Run = 99
DOCKED: USER    DPF = D:/Protein_go_brrr/autodock/final/mut_Y35F/heme_Co/dock.dpf
DOCKED: USER  
DOCKED: USER    Estimated Free Energy of Binding    =   -3.51 kcal/mol  [=(1)+(2)+(3)-(4)]
DOCKED: USER    Estimated Inhibition Constant, Ki   =    2.69 mM (millimolar)  [Temperature = 298.15 K]
DOCKED: USER    
DOCKED: USER    (1) Final Intermolecular Energy     =   -7.09 kcal/mol
DOCKED: USER        vdW + Hbond + desolv Energy     =   -4.83 kcal/mol
DOCKED: USER        Electrostatic Energy            =   -2.26 kcal/mol
DOCKED: USER    (2) Final Total Internal Energy     =   -3.83 kcal/mol
DOCKED: USER    (3) Torsional Free Energy           =   +3.58 kcal/mol
DOCKED: USER    (4) Unbound System's Energy  [=(2)] =   -3.83 kcal/mol
DOCKED: USER    
DOCKED: USER    
DOCKED: USER    NEWDPF move heme_Co_opt.pdbqt
DOCKED: USER    NEWDPF about 8.781000 34.984000 -0.736000
DOCKED: USER    NEWDPF tran0 14.029968 5.760569 9.122289
DOCKED: USER    NEWDPF quaternion0 0.731054 -0.667805 -0.139831 -0.006568
DOCKED: USER    NEWDPF axisangle0 0.731070 -0.667820 -0.139834 -179.247322
DOCKED: USER    NEWDPF quat0 0.731070 -0.667820 -0.139834 -179.247322
DOCKED: USER    NEWDPF dihe0 150.82 112.32 -39.98 132.66 -41.69 107.44 -121.86 -20.15 -126.44 -176.00 -174.53 -180.00 
DOCKED: USER  keepresnum = 1 
DOCKED: USER  
DOCKED: REMARK  12 active torsions:
DOCKED: REMARK  status: ('A' for Active; 'I' for Inactive)
DOCKED: REMARK    1  A    between atoms: C_6  and  C_10 
DOCKED: REMARK    2  A    between atoms: C_10  and  C_11 
DOCKED: REMARK    3  A    between atoms: C_11  and  C_12 
DOCKED: REMARK    4  A    between atoms: C_12  and  O_14 
DOCKED: REMARK    5  A    between atoms: C_17  and  C_20 
DOCKED: REMARK    6  A    between atoms: C_24  and  C_27 
DOCKED: REMARK    7  A    between atoms: C_31  and  C_34 
DOCKED: REMARK    8  A    between atoms: C_34  and  C_35 
DOCKED: REMARK    9  A    between atoms: C_35  and  C_36 
DOCKED: REMARK   10  A    between atoms: C_36  and  O_38 
DOCKED: REMARK   11  A    between atoms: FE_43  and  C_44 
DOCKED: REMARK   12  A    between atoms: C_44  and  O_45 
DOCKED: USER                              x       y       z     vdW  Elec       q    Type
DOCKED: USER                           _______ _______ _______ _____ _____    ______ ____
DOCKED: ROOT
DOCKED: ATOM      1  C   UNL d   1      13.591   7.449  10.416 -0.01 +0.03    +0.064 A 
DOCKED: ATOM      2  C   UNL d   1      15.474   7.166   6.058 -0.10 +0.02    +0.064 C 
DOCKED: ATOM      3  C   UNL d   1      15.448   2.395   6.316 -0.14 +0.02    +0.064 A 
DOCKED: ATOM      4  C   UNL d   1      13.170   2.652  10.606 -0.06 +0.06    +0.064 A 
DOCKED: ATOM      5  C   UNL d   1      14.141   7.723   9.221 -0.00 +0.02    +0.066 A 
DOCKED: ATOM      6  C   UNL d   1      14.260   9.040   8.737 -0.01 -0.00    -0.021 A 
DOCKED: ATOM      7  C   UNL d   1      14.786   8.951   7.463 -0.01 -0.01    -0.025 A 
DOCKED: ATOM      8  C   UNL d   1      14.981   7.585   7.231 -0.02 +0.02    +0.066 A 
DOCKED: ATOM      9  C   UNL d   1      15.098  10.098   6.490 -0.06 +0.01    +0.051 C 
DOCKED: ATOM     10  C   UNL d   1      15.733   5.785   5.739 -0.11 +0.02    +0.066 A 
DOCKED: ATOM     11  C   UNL d   1      16.379   5.292   4.584 -0.25 -0.01    -0.021 A 
DOCKED: ATOM     12  C   UNL d   1      16.361   3.899   4.687 -0.27 +0.00    +0.000 A 
DOCKED: ATOM     13  C   UNL d   1      15.719   3.645   5.899 -0.12 +0.02    +0.070 A 
DOCKED: ATOM     14  C   UNL d   1      17.046   6.119   3.514 -0.30 +0.03    +0.052 C 
DOCKED: ATOM     15  C   UNL d   1      14.751   1.954   7.508 -0.11 +0.02    +0.066 A 
DOCKED: ATOM     16  C   UNL d   1      14.376   0.652   7.808 -0.15 -0.01    -0.021 A 
DOCKED: ATOM     17  C   UNL d   1      13.717   0.722   9.043 -0.13 +0.00    +0.000 A 
DOCKED: ATOM     18  C   UNL d   1      13.757   2.063   9.409 -0.10 +0.05    +0.070 A 
DOCKED: ATOM     19  C   UNL d   1      14.646  -0.559   6.944 -0.20 +0.01    +0.052 C 
DOCKED: ATOM     20  C   UNL d   1      13.121   3.964  10.940 -0.03 +0.07    +0.066 A 
DOCKED: ATOM     21  C   UNL d   1      12.497   4.412  12.102 -0.05 -0.02    -0.025 A 
DOCKED: ATOM     22  C   UNL d   1      12.628   5.789  12.089 -0.04 -0.01    -0.021 A 
DOCKED: ATOM     23  C   UNL d   1      13.320   6.116  10.903 -0.04 +0.04    +0.066 A 
DOCKED: ATOM     24  C   UNL d   1      11.792   3.573  13.164 -0.06 +0.03    +0.051 C 
DOCKED: ATOM     25  N   UNL d   1      14.596   6.801   8.305 +0.00 -0.09    -0.248 N 
DOCKED: ATOM     26  N   UNL d   1      15.391   4.787   6.560 -0.03 -0.08    -0.248 N 
DOCKED: ATOM     27  N   UNL d   1      14.353   2.772   8.457 -0.05 -0.13    -0.248 N 
DOCKED: ATOM     28  N   UNL d   1      13.619   5.014  10.204 -0.04 -0.21    -0.248 N 
DOCKED: ATOM     29 FE   UNL d   1      14.466   4.667   8.389 -0.01 +0.00    +0.000 Fe
DOCKED: ENDROOT
DOCKED: BRANCH   6  30
DOCKED: ATOM     30  C   UNL d   1      13.808  10.313   9.445 -0.02 +0.01    +0.052 C 
DOCKED: BRANCH  30  31
DOCKED: ATOM     31  C   UNL d   1      12.365  10.652   9.071 -0.07 +0.02    +0.115 C 
DOCKED: BRANCH  31  32
DOCKED: ATOM     32  C   UNL d   1      11.428   9.480   9.267 -0.11 +0.04    +0.139 C 
DOCKED: ATOM     33  O   UNL d   1      10.621   9.503  10.184 -0.01 -0.23    -0.650 OA
DOCKED: BRANCH  32  34
DOCKED: ATOM     34  O   UNL d   1      11.419   8.420   8.425 +0.05 -0.33    -0.776 OA
DOCKED: ATOM     35  H   UNL d   1      11.231   7.511   8.698 +0.03 +0.12    +0.167 HD
DOCKED: ENDBRANCH  32  34
DOCKED: ENDBRANCH  31  32
DOCKED: ENDBRANCH  30  31
DOCKED: ENDBRANCH   6  30
DOCKED: BRANCH  29  36
DOCKED: ATOM     36  C   UNL d   1      12.599   4.856   7.455 -0.15 +0.20    +0.190 C 
DOCKED: BRANCH  36  37
DOCKED: ATOM     37  O   UNL d   1      11.394   5.565   7.506 -0.49 -0.59    -0.399 OA
DOCKED: ATOM     38  H   UNL d   1      11.494   6.185   8.282 +0.04 +0.29    +0.209 HD
DOCKED: ENDBRANCH  36  37
DOCKED: ENDBRANCH  29  36
DOCKED: BRANCH  22  39
DOCKED: ATOM     39  C   UNL d   1      12.059   6.737  13.128 -0.02 +0.02    +0.052 C 
DOCKED: BRANCH  39  40
DOCKED: ATOM     40  C   UNL d   1      10.555   6.958  12.895 -0.06 +0.06    +0.115 C 
DOCKED: BRANCH  40  41
DOCKED: ATOM     41  C   UNL d   1       9.995   6.231  11.691 -0.06 +0.16    +0.139 C 
DOCKED: ATOM     42  O   UNL d   1       9.128   5.384  11.852 -0.48 -0.94    -0.650 OA
DOCKED: BRANCH  41  43
DOCKED: ATOM     43  O   UNL d   1      10.366   6.553  10.432 +0.04 -1.14    -0.776 OA
DOCKED: ATOM     44  H   UNL d   1      10.580   7.457  10.169 +0.03 +0.14    +0.167 HD
DOCKED: ENDBRANCH  41  43
DOCKED: ENDBRANCH  40  41
DOCKED: ENDBRANCH  39  40
DOCKED: ENDBRANCH  22  39
DOCKED: BRANCH  12  45
DOCKED: ATOM     45  C   UNL d   1      16.891   2.785   3.793 -0.38 +0.00    +0.004 C 
DOCKED: ATOM     46  C   UNL d   1      17.728   1.786   4.059 -0.33 +0.00    +0.012 C 
DOCKED: ENDBRANCH  12  45
DOCKED: BRANCH  17  47
DOCKED: ATOM     47  C   UNL d   1      13.043  -0.356   9.827 -0.15 +0.00    +0.004 C 
DOCKED: ATOM     48  C   UNL d   1      11.975  -1.028   9.389 -0.20 +0.00    +0.012 C 
DOCKED: ENDBRANCH  17  47
DOCKED: TORSDOF 12
DOCKED: TER
DOCKED: ENDMDL
________________________________________________________________________________


	BEGINNING GENETIC ALGORITHM DOCKING 100 of 100
Run: 100 Seed: 1255626821 653341131 [ Run 100 of 100 GA/GALS ]
Beginning LAMARCKIAN GENETIC ALGORITHM (LGA), with a maximum of 25000000 energy evaluations.

Final-Value: -10.073


	FINAL GENETIC ALGORITHM DOCKED STATE
	_______________________________________________


Detailed state:  trans 13.073 3.717 10.052 quatxyzw 0.326544 0.524953 -0.293094 -0.729307 center 8.781 34.984 -0.736 ntor 12 -13.0363 112.3059 -169.1643 -8.6609 -39.5104 139.5334 -146.6672 -39.0014 -170.3771 -110.5652 -5.9735 -7.0728
State:	 13.073   3.717  10.052   0.477  0.767 -0.428 -86.343    -13.04  112.31 -169.16   -8.66  -39.51  139.53 -146.67  -39.00 -170.38 -110.57   -5.97   -7.07

DOCKED: MODEL      100
DOCKED: USER    Run = 100
DOCKED: USER    DPF = D:/Protein_go_brrr/autodock/final/mut_Y35F/heme_Co/dock.dpf
DOCKED: USER  
DOCKED: USER    Estimated Free Energy of Binding    =   -4.22 kcal/mol  [=(1)+(2)+(3)-(4)]
DOCKED: USER    Estimated Inhibition Constant, Ki   =  813.16 uM (micromolar)  [Temperature = 298.15 K]
DOCKED: USER    
DOCKED: USER    (1) Final Intermolecular Energy     =   -7.79 kcal/mol
DOCKED: USER        vdW + Hbond + desolv Energy     =   -5.57 kcal/mol
DOCKED: USER        Electrostatic Energy            =   -2.23 kcal/mol
DOCKED: USER    (2) Final Total Internal Energy     =   -2.28 kcal/mol
DOCKED: USER    (3) Torsional Free Energy           =   +3.58 kcal/mol
DOCKED: USER    (4) Unbound System's Energy  [=(2)] =   -2.28 kcal/mol
DOCKED: USER    
DOCKED: USER    
DOCKED: USER    NEWDPF move heme_Co_opt.pdbqt
DOCKED: USER    NEWDPF about 8.781000 34.984000 -0.736000
DOCKED: USER    NEWDPF tran0 13.072905 3.716542 10.052331
DOCKED: USER    NEWDPF quaternion0 0.326544 0.524953 -0.293094 -0.729307
DOCKED: USER    NEWDPF axisangle0 0.477274 0.767266 -0.428383 -86.343332
DOCKED: USER    NEWDPF quat0 0.477274 0.767266 -0.428383 -86.343332
DOCKED: USER    NEWDPF dihe0 -13.04 112.31 -169.16 -8.66 -39.51 139.53 -146.67 -39.00 -170.38 -110.57 -5.97 -7.07 
DOCKED: USER  keepresnum = 1 
DOCKED: USER  
DOCKED: REMARK  12 active torsions:
DOCKED: REMARK  status: ('A' for Active; 'I' for Inactive)
DOCKED: REMARK    1  A    between atoms: C_6  and  C_10 
DOCKED: REMARK    2  A    between atoms: C_10  and  C_11 
DOCKED: REMARK    3  A    between atoms: C_11  and  C_12 
DOCKED: REMARK    4  A    between atoms: C_12  and  O_14 
DOCKED: REMARK    5  A    between atoms: C_17  and  C_20 
DOCKED: REMARK    6  A    between atoms: C_24  and  C_27 
DOCKED: REMARK    7  A    between atoms: C_31  and  C_34 
DOCKED: REMARK    8  A    between atoms: C_34  and  C_35 
DOCKED: REMARK    9  A    between atoms: C_35  and  C_36 
DOCKED: REMARK   10  A    between atoms: C_36  and  O_38 
DOCKED: REMARK   11  A    between atoms: FE_43  and  C_44 
DOCKED: REMARK   12  A    between atoms: C_44  and  O_45 
DOCKED: USER                              x       y       z     vdW  Elec       q    Type
DOCKED: USER                           _______ _______ _______ _____ _____    ______ ____
DOCKED: ROOT
DOCKED: ATOM      1  C   UNL d   1      12.433   4.854  11.788 -0.04 +0.06    +0.064 A 
DOCKED: ATOM      2  C   UNL d   1      12.878   0.183  11.015 -0.09 +0.03    +0.064 C 
DOCKED: ATOM      3  C   UNL d   1      13.987   1.008   6.441 -0.29 +0.02    +0.064 A 
DOCKED: ATOM      4  C   UNL d   1      13.917   5.795   7.301 -0.08 +0.03    +0.064 A 
DOCKED: ATOM      5  C   UNL d   1      12.438   3.515  11.904 -0.03 +0.07    +0.066 A 
DOCKED: ATOM      6  C   UNL d   1      12.224   2.871  13.138 -0.05 -0.01    -0.021 A 
DOCKED: ATOM      7  C   UNL d   1      12.376   1.517  12.912 -0.04 -0.01    -0.025 A 
DOCKED: ATOM      8  C   UNL d   1      12.660   1.392  11.548 -0.08 +0.04    +0.066 A 
DOCKED: ATOM      9  C   UNL d   1      12.263   0.373  13.931 -0.01 +0.01    +0.051 C 
DOCKED: ATOM     10  C   UNL d   1      13.151  -0.046   9.618 -0.12 +0.03    +0.066 A 
DOCKED: ATOM     11  C   UNL d   1      13.249  -1.297   8.971 -0.15 -0.01    -0.021 A 
DOCKED: ATOM     12  C   UNL d   1      13.569  -1.027   7.638 -0.25 +0.00    +0.000 A 
DOCKED: ATOM     13  C   UNL d   1      13.630   0.365   7.567 -0.22 +0.02    +0.070 A 
DOCKED: ATOM     14  C   UNL d   1      12.957  -2.643   9.584 -0.11 +0.01    +0.052 C 
DOCKED: ATOM     15  C   UNL d   1      14.152   2.429   6.206 -0.26 +0.03    +0.066 A 
DOCKED: ATOM     16  C   UNL d   1      14.664   3.020   5.060 -0.36 -0.01    -0.021 A 
DOCKED: ATOM     17  C   UNL d   1      14.649   4.401   5.304 -0.27 +0.00    +0.000 A 
DOCKED: ATOM     18  C   UNL d   1      14.110   4.544   6.578 -0.14 +0.03    +0.070 A 
DOCKED: ATOM     19  C   UNL d   1      15.133   2.280   3.827 -0.51 +0.01    +0.052 C 
DOCKED: ATOM     20  C   UNL d   1      13.476   5.954   8.572 -0.06 +0.05    +0.066 A 
DOCKED: ATOM     21  C   UNL d   1      13.368   7.207   9.171 -0.03 -0.01    -0.025 A 
DOCKED: ATOM     22  C   UNL d   1      12.915   6.969  10.455 -0.04 -0.01    -0.021 A 
DOCKED: ATOM     23  C   UNL d   1      12.779   5.570  10.582 -0.02 +0.07    +0.066 A 
DOCKED: ATOM     24  C   UNL d   1      13.699   8.564   8.556 -0.02 +0.01    +0.051 C 
DOCKED: ATOM     25  N   UNL d   1      12.699   2.614  10.897 +0.02 -0.29    -0.248 N 
DOCKED: ATOM     26  N   UNL d   1      13.322   0.958   8.751 -0.11 -0.13    -0.248 N 
DOCKED: ATOM     27  N   UNL d   1      13.854   3.348   7.097 -0.11 -0.14    -0.248 N 
DOCKED: ATOM     28  N   UNL d   1      13.121   4.952   9.445 -0.06 -0.30    -0.248 N 
DOCKED: ATOM     29 FE   UNL d   1      13.310   3.006   8.885 -0.03 +0.00    +0.000 Fe
DOCKED: ENDROOT
DOCKED: BRANCH   6  30
DOCKED: ATOM     30  C   UNL d   1      11.966   3.543  14.482 -0.01 +0.02    +0.052 C 
DOCKED: BRANCH  30  31
DOCKED: ATOM     31  C   UNL d   1      10.516   4.015  14.579 -0.02 +0.04    +0.115 C 
DOCKED: BRANCH  31  32
DOCKED: ATOM     32  C   UNL d   1       9.674   3.535  13.416 -0.07 +0.09    +0.139 C 
DOCKED: ATOM     33  O   UNL d   1       9.184   2.416  13.450 -0.01 -0.29    -0.650 OA
DOCKED: BRANCH  32  34
DOCKED: ATOM     34  O   UNL d   1       9.404   4.325  12.351 -0.37 -1.00    -0.776 OA
DOCKED: ATOM     35  H   UNL d   1       9.506   5.287  12.348 +0.02 +0.19    +0.167 HD
DOCKED: ENDBRANCH  32  34
DOCKED: ENDBRANCH  31  32
DOCKED: ENDBRANCH  30  31
DOCKED: ENDBRANCH   6  30
DOCKED: BRANCH  29  36
DOCKED: ATOM     36  C   UNL d   1      15.282   2.969   9.596 -0.02 +0.07    +0.190 C 
DOCKED: BRANCH  36  37
DOCKED: ATOM     37  O   UNL d   1      16.045   3.019  10.767 +0.00 -0.10    -0.399 OA
DOCKED: ATOM     38  H   UNL d   1      15.379   3.116  11.503 +0.01 +0.06    +0.209 HD
DOCKED: ENDBRANCH  36  37
DOCKED: ENDBRANCH  29  36
DOCKED: BRANCH  22  39
DOCKED: ATOM     39  C   UNL d   1      12.689   8.027  11.519 -0.02 +0.02    +0.052 C 
DOCKED: BRANCH  39  40
DOCKED: ATOM     40  C   UNL d   1      11.221   8.487  11.524 -0.08 +0.05    +0.115 C 
DOCKED: BRANCH  40  41
DOCKED: ATOM     41  C   UNL d   1      10.229   7.404  11.894 -0.11 +0.09    +0.139 C 
DOCKED: ATOM     42  O   UNL d   1       9.797   7.353  13.037 +0.00 -0.30    -0.650 OA
DOCKED: BRANCH  41  43
DOCKED: ATOM     43  O   UNL d   1       9.740   6.545  10.973 -0.19 -0.99    -0.776 OA
DOCKED: ATOM     44  H   UNL d   1       8.944   6.018  11.125 +0.03 +0.24    +0.167 HD
DOCKED: ENDBRANCH  41  43
DOCKED: ENDBRANCH  40  41
DOCKED: ENDBRANCH  39  40
DOCKED: ENDBRANCH  22  39
DOCKED: BRANCH  12  45
DOCKED: ATOM     45  C   UNL d   1      13.804  -1.918   6.425 -0.26 +0.00    +0.004 C 
DOCKED: ATOM     46  C   UNL d   1      14.065  -3.220   6.345 -0.30 +0.00    +0.012 C 
DOCKED: ENDBRANCH  12  45
DOCKED: BRANCH  17  47
DOCKED: ATOM     47  C   UNL d   1      15.140   5.525   4.454 -0.27 +0.00    +0.004 C 
DOCKED: ATOM     48  C   UNL d   1      16.414   5.662   4.076 -0.33 +0.00    +0.012 C 
DOCKED: ENDBRANCH  17  47
DOCKED: TORSDOF 12
DOCKED: TER
DOCKED: ENDMDL
________________________________________________________________________________

DPF> analysis                             # perform a ranked cluster analysis


		CLUSTER ANALYSIS OF CONFORMATIONS
		_________________________________

Number of conformations = 100

RMSD cluster analysis will be performed using the ligand atoms only (48 / 48 total atoms).

Outputting structurally similar clusters, ranked in order of increasing energy.


________________________________________________________________________________

Number of distinct conformational clusters found = 53,  out of 100 runs,
Using an rmsd-tolerance of 2.0 A


	CLUSTERING HISTOGRAM
	____________________

________________________________________________________________________________
     |           |     |           |     |                                    
Clus | Lowest    | Run | Mean      | Num | Histogram                          
-ter | Binding   |     | Binding   | in  |                                    
Rank | Energy    |     | Energy    | Clus|    5    10   15   20   25   30   35
_____|___________|_____|___________|_____|____:____|____:____|____:____|____:___
   1 |     -7.96 |  53 |     -6.82 |   5 |#####
   2 |     -5.81 |  26 |     -4.98 |   2 |##
   3 |     -5.78 |  48 |     -5.05 |   7 |#######
   4 |     -5.72 |  35 |     -4.75 |   2 |##
   5 |     -5.70 |  28 |     -5.16 |   3 |###
   6 |     -5.48 |  47 |     -5.48 |   1 |#
   7 |     -5.44 |  37 |     -4.09 |   4 |####
   8 |     -5.32 |  34 |     -5.32 |   1 |#
   9 |     -5.24 |  83 |     -4.93 |   2 |##
  10 |     -5.13 |  65 |     -5.13 |   1 |#
  11 |     -4.83 |  49 |     -4.83 |   1 |#
  12 |     -4.71 |  39 |     -4.47 |   6 |######
  13 |     -4.63 |  72 |     -4.29 |   2 |##
  14 |     -4.49 |  69 |     -3.85 |   3 |###
  15 |     -4.37 |  57 |     -4.37 |   1 |#
  16 |     -4.35 |  78 |     -3.80 |   2 |##
  17 |     -4.27 |  52 |     -4.27 |   1 |#
  18 |     -4.23 |   8 |     -3.81 |   2 |##
  19 |     -4.22 | 100 |     -4.22 |   1 |#
  20 |     -4.21 |  91 |     -3.84 |   2 |##
  21 |     -4.15 |  41 |     -3.76 |   2 |##
  22 |     -4.15 |   6 |     -4.15 |   1 |#
  23 |     -4.09 |  60 |     -3.35 |   6 |######
  24 |     -4.06 |  81 |     -4.06 |   1 |#
  25 |     -3.99 |  76 |     -3.99 |   1 |#
  26 |     -3.93 |  24 |     -3.76 |   2 |##
  27 |     -3.90 |  92 |     -3.23 |   2 |##
  28 |     -3.87 |  44 |     -3.87 |   1 |#
  29 |     -3.61 |   1 |     -3.61 |   1 |#
  30 |     -3.59 |  95 |     -2.90 |   2 |##
  31 |     -3.59 |  66 |     -3.59 |   1 |#
  32 |     -3.58 |  33 |     -3.58 |   1 |#
  33 |     -3.55 |  98 |     -3.55 |   1 |#
  34 |     -3.52 |  23 |     -3.52 |   1 |#
  35 |     -3.51 |  99 |     -3.44 |   2 |##
  36 |     -3.48 |  55 |     -3.24 |   2 |##
  37 |     -3.46 |  19 |     -2.98 |   5 |#####
  38 |     -3.42 |  75 |     -3.42 |   1 |#
  39 |     -3.33 |   2 |     -3.33 |   1 |#
  40 |     -3.33 |  54 |     -3.33 |   1 |#
  41 |     -3.29 |  38 |     -3.29 |   1 |#
  42 |     -3.28 |  61 |     -3.28 |   1 |#
  43 |     -3.19 |  15 |     -3.19 |   1 |#
  44 |     -3.08 |  59 |     -3.08 |   1 |#
  45 |     -2.97 |  20 |     -2.97 |   1 |#
  46 |     -2.97 |  89 |     -2.86 |   2 |##
  47 |     -2.84 |  50 |     -2.84 |   1 |#
  48 |     -2.65 |  62 |     -2.65 |   1 |#
  49 |     -2.60 |  27 |     -2.57 |   3 |###
  50 |     -2.48 |  74 |     -2.48 |   1 |#
  51 |     -2.32 |  93 |     -2.32 |   1 |#
  52 |     -2.09 |  14 |     -2.09 |   1 |#
  53 |     -1.89 |  17 |     -1.89 |   1 |#
_____|___________|_____|___________|_____|______________________________________


Number of multi-member conformational clusters found = 23, out of 100 runs.

	RMSD TABLE
	__________

_____________________________________________________________________
     |      |      |           |         |                 |
Rank | Sub- | Run  | Binding   | Cluster | Reference       | Grep
     | Rank |      | Energy    | RMSD    | RMSD            | Pattern
_____|______|______|___________|_________|_________________|___________
   1      1     53       -7.96      0.00     22.19           RANKING
   1      2     87       -7.46      0.92     22.06           RANKING
   1      3     36       -6.41      1.44     21.93           RANKING
   1      4     84       -6.34      1.60     22.11           RANKING
   1      5     10       -5.94      1.70     22.44           RANKING
   2      1     26       -5.81      0.00     47.45           RANKING
   2      2     82       -4.14      0.94     47.74           RANKING
   3      1     48       -5.78      0.00     22.03           RANKING
   3      2     51       -5.44      1.11     22.66           RANKING
   3      3     97       -5.17      1.03     21.44           RANKING
   3      4     88       -5.11      1.48     21.76           RANKING
   3      5     43       -4.78      1.43     21.63           RANKING
   3      6     46       -4.65      0.97     21.57           RANKING
   3      7     73       -4.39      1.16     22.10           RANKING
   4      1     35       -5.72      0.00     37.09           RANKING
   4      2     31       -3.79      1.67     36.90           RANKING
   5      1     28       -5.70      0.00     21.89           RANKING
   5      2     16       -5.66      1.47     21.36           RANKING
   5      3     45       -4.12      0.96     21.86           RANKING
   6      1     47       -5.48      0.00     36.55           RANKING
   7      1     37       -5.44      0.00     51.00           RANKING
   7      2     96       -4.03      1.38     51.16           RANKING
   7      3     25       -3.47      1.35     51.30           RANKING
   7      4     22       -3.40      1.90     52.62           RANKING
   8      1     34       -5.32      0.00     38.16           RANKING
   9      1     83       -5.24      0.00     33.44           RANKING
   9      2     85       -4.63      0.96     33.70           RANKING
  10      1     65       -5.13      0.00     42.79           RANKING
  11      1     49       -4.83      0.00     23.59           RANKING
  12      1     39       -4.71      0.00     28.62           RANKING
  12      2     42       -4.68      0.33     28.69           RANKING
  12      3     58       -4.59      0.39     28.72           RANKING
  12      4     86       -4.54      0.48     28.68           RANKING
  12      5     21       -4.46      0.72     28.77           RANKING
  12      6     79       -3.82      1.96     29.90           RANKING
  13      1     72       -4.63      0.00     55.60           RANKING
  13      2     63       -3.94      0.93     56.25           RANKING
  14      1     69       -4.49      0.00     52.91           RANKING
  14      2      7       -4.36      0.70     53.20           RANKING
  14      3     18       -2.70      1.98     50.36           RANKING
  15      1     57       -4.37      0.00     38.03           RANKING
  16      1     78       -4.35      0.00     26.85           RANKING
  16      2     12       -3.25      1.51     25.53           RANKING
  17      1     52       -4.27      0.00     41.87           RANKING
  18      1      8       -4.23      0.00     41.92           RANKING
  18      2     56       -3.39      1.84     41.16           RANKING
  19      1    100       -4.22      0.00     30.23           RANKING
  20      1     91       -4.21      0.00     38.91           RANKING
  20      2      3       -3.46      1.18     38.70           RANKING
  21      1     41       -4.15      0.00     32.34           RANKING
  21      2      4       -3.36      1.72     32.42           RANKING
  22      1      6       -4.15      0.00     16.87           RANKING
  23      1     60       -4.09      0.00     21.75           RANKING
  23      2     11       -3.74      1.55     22.25           RANKING
  23      3     30       -3.61      1.95     20.45           RANKING
  23      4      5       -2.88      1.64     21.72           RANKING
  23      5     77       -2.88      1.55     22.71           RANKING
  23      6      9       -2.88      1.52     22.77           RANKING
  24      1     81       -4.06      0.00     23.11           RANKING
  25      1     76       -3.99      0.00     22.30           RANKING
  26      1     24       -3.93      0.00     45.71           RANKING
  26      2     13       -3.59      1.59     45.91           RANKING
  27      1     92       -3.90      0.00     23.46           RANKING
  27      2     70       -2.56      1.04     22.72           RANKING
  28      1     44       -3.87      0.00     25.53           RANKING
  29      1      1       -3.61      0.00     38.04           RANKING
  30      1     95       -3.59      0.00     33.41           RANKING
  30      2     40       -2.21      1.88     35.09           RANKING
  31      1     66       -3.59      0.00     29.38           RANKING
  32      1     33       -3.58      0.00     20.41           RANKING
  33      1     98       -3.55      0.00     56.13           RANKING
  34      1     23       -3.52      0.00     22.06           RANKING
  35      1     99       -3.51      0.00     28.18           RANKING
  35      2     68       -3.38      0.33     28.20           RANKING
  36      1     55       -3.48      0.00     39.21           RANKING
  36      2     90       -3.01      1.15     38.72           RANKING
  37      1     19       -3.46      0.00     55.51           RANKING
  37      2     67       -3.27      1.70     54.87           RANKING
  37      3     29       -3.23      1.19     55.27           RANKING
  37      4     32       -3.09      1.60     55.50           RANKING
  37      5     94       -1.86      1.60     55.79           RANKING
  38      1     75       -3.42      0.00     39.87           RANKING
  39      1      2       -3.33      0.00     51.38           RANKING
  40      1     54       -3.33      0.00     35.24           RANKING
  41      1     38       -3.29      0.00     35.09           RANKING
  42      1     61       -3.28      0.00     52.99           RANKING
  43      1     15       -3.19      0.00     33.70           RANKING
  44      1     59       -3.08      0.00     24.97           RANKING
  45      1     20       -2.97      0.00     34.82           RANKING
  46      1     89       -2.97      0.00     48.49           RANKING
  46      2     64       -2.75      0.89     47.98           RANKING
  47      1     50       -2.84      0.00     56.54           RANKING
  48      1     62       -2.65      0.00     53.92           RANKING
  49      1     27       -2.60      0.00     32.46           RANKING
  49      2     71       -2.56      0.28     32.60           RANKING
  49      3     80       -2.55      0.96     32.90           RANKING
  50      1     74       -2.48      0.00     24.45           RANKING
  51      1     93       -2.32      0.00     39.40           RANKING
  52      1     14       -2.09      0.00     21.42           RANKING
  53      1     17       -1.89      0.00     55.25           RANKING
_______________________________________________________________________



	INFORMATION ENTROPY ANALYSIS FOR THIS CLUSTERING
	________________________________________________


Information entropy for this clustering = 0.81  (rmstol = 2.00 Angstrom)

_______________________________________________________________________


	STATISTICAL MECHANICAL ANALYSIS
	_______________________________


Partition function, Q =   100.67            at Temperature, T = 298.15 K
Free energy,        A ~ -2732.45 kcal/mol   at Temperature, T = 298.15 K
Internal energy,    U =    -3.97 kcal/mol   at Temperature, T = 298.15 K
Entropy,            S =     9.15 kcal/mol/K at Temperature, T = 298.15 K

_______________________________________________________________________


	LOWEST ENERGY DOCKED CONFORMATION from EACH CLUSTER
	___________________________________________________



Keeping original residue number (specified in the input PDBQ file) for outputting.

MODEL       53
USER    Run = 53
USER    Cluster Rank = 1
USER    Number of conformations in this cluster = 5
USER  
USER    RMSD from reference structure       = 22.192 A
USER  
USER    Estimated Free Energy of Binding    =   -7.96 kcal/mol  [=(1)+(2)+(3)-(4)]
USER    Estimated Inhibition Constant, Ki   =    1.46 uM (micromolar)  [Temperature = 298.15 K]
USER    
USER    (1) Final Intermolecular Energy     =  -11.54 kcal/mol
USER        vdW + Hbond + desolv Energy     =   -8.60 kcal/mol
USER        Electrostatic Energy            =   -2.94 kcal/mol
USER    (2) Final Total Internal Energy     =   -0.82 kcal/mol
USER    (3) Torsional Free Energy           =   +3.58 kcal/mol
USER    (4) Unbound System's Energy  [=(2)] =   -0.82 kcal/mol
USER    
USER    
USER  
USER    DPF = D:/Protein_go_brrr/autodock/final/mut_Y35F/heme_Co/dock.dpf
USER    NEWDPF move	heme_Co_opt.pdbqt
USER    NEWDPF about	8.781000 34.984000 -0.736000
USER    NEWDPF tran0	13.877182 11.396128 4.490320
USER    NEWDPF axisangle0	-0.749539 -0.574579 0.328710 -164.947286
USER    NEWDPF quaternion0	-0.743082 -0.569629 0.325878 -0.130982
USER    NEWDPF dihe0	-7.02 52.03 -66.25 -86.13 -84.35 146.29 68.86 -32.39 -47.30 -70.29 -1.47 130.59 
USER  
USER                              x       y       z    vdW   Elec        q     RMS 
ATOM      1  C   UNL d   1      14.527   9.585   5.497 -0.09 +0.02    +0.064    22.192
ATOM      2  C   UNL d   1      10.311  10.941   3.767 -0.31 -0.01    +0.064    22.192
ATOM      3  C   UNL d   1      12.089  15.247   2.704 -0.14 -0.02    +0.064    22.192
ATOM      4  C   UNL d   1      16.501  13.757   4.110 -0.08 +0.00    +0.064    22.192
ATOM      5  C   UNL d   1      13.235   9.651   5.135 -0.12 +0.01    +0.066    22.192
ATOM      6  C   UNL d   1      12.376   8.539   5.225 -0.17 -0.00    -0.021    22.192
ATOM      7  C   UNL d   1      11.160   8.932   4.701 -0.25 -0.00    -0.025    22.192
ATOM      8  C   UNL d   1      11.324  10.270   4.329 -0.22 -0.00    +0.066    22.192
ATOM      9  C   UNL d   1       9.883   8.090   4.549 -0.21 +0.01    +0.051    22.192
ATOM     10  C   UNL d   1      10.379  12.327   3.375 -0.17 -0.01    +0.066    22.192
ATOM     11  C   UNL d   1       9.311  13.126   2.911 -0.44 +0.00    -0.021    22.192
ATOM     12  C   UNL d   1       9.857  14.377   2.613 -0.42 -0.00    +0.000    22.192
ATOM     13  C   UNL d   1      11.210  14.254   2.928 -0.23 -0.01    +0.070    22.192
ATOM     14  C   UNL d   1       7.858  12.729   2.856 -0.25 -0.00    +0.052    22.192
ATOM     15  C   UNL d   1      13.523  15.272   2.920 -0.09 -0.02    +0.066    22.192
ATOM     16  C   UNL d   1      14.396  16.279   2.533 -0.08 +0.01    -0.021    22.192
ATOM     17  C   UNL d   1      15.670  15.852   2.934 -0.08 -0.00    +0.000    22.192
ATOM     18  C   UNL d   1      15.470  14.622   3.552 -0.07 -0.01    +0.070    22.192
ATOM     19  C   UNL d   1      14.003  17.555   1.823 -0.09 -0.03    +0.052    22.192
ATOM     20  C   UNL d   1      16.342  12.519   4.638 -0.01 +0.01    +0.066    22.192
ATOM     21  C   UNL d   1      17.416  11.769   5.110 -0.04 -0.01    -0.025    22.192
ATOM     22  C   UNL d   1      16.874  10.572   5.543 -0.01 -0.01    -0.021    22.192
ATOM     23  C   UNL d   1      15.486  10.649   5.300 +0.01 +0.02    +0.066    22.192
ATOM     24  C   UNL d   1      18.891  12.163   5.131 -0.07 +0.01    +0.051    22.192
ATOM     25  N   UNL d   1      12.599  10.744   4.592 -0.09 -0.01    -0.248    22.192
ATOM     26  N   UNL d   1      11.513  13.032   3.441 -0.14 +0.04    -0.248    22.192
ATOM     27  N   UNL d   1      14.184  14.294   3.498 -0.04 +0.03    -0.248    22.192
ATOM     28  N   UNL d   1      15.160  11.824   4.750 -0.07 -0.04    -0.248    22.192
ATOM     29 FE   UNL d   1      13.441  12.624   4.014 -0.04 -0.00    +0.000    22.192
ATOM     30  C   UNL d   1      12.743   7.144   5.719 -0.20 +0.02    +0.052    22.192
ATOM     31  C   UNL d   1      12.690   7.083   7.245 -0.10 +0.05    +0.115    22.192
ATOM     32  C   UNL d   1      11.898   5.895   7.749 -0.09 +0.16    +0.139    22.192
ATOM     33  O   UNL d   1      10.718   5.791   7.452 -0.36 -0.99    -0.650    22.192
ATOM     34  O   UNL d   1      12.469   4.912   8.483 -0.07 -1.26    -0.776    22.192
ATOM     35  H   UNL d   1      13.422   4.809   8.607 +0.02 +0.16    +0.167    22.192
ATOM     36  C   UNL d   1      13.811  11.755   2.142 -0.35 -0.01    +0.190    22.192
ATOM     37  O   UNL d   1      13.782  10.538   1.453 -0.47 +0.02    -0.399    22.192
ATOM     38  H   UNL d   1      14.428   9.953   1.939 -0.40 -0.05    +0.209    22.192
ATOM     39  C   UNL d   1      17.660   9.399   6.098 -0.08 +0.01    +0.052    22.192
ATOM     40  C   UNL d   1      17.295   8.102   5.357 -0.14 +0.04    +0.115    22.192
ATOM     41  C   UNL d   1      18.336   7.637   4.362 -0.25 +0.09    +0.139    22.192
ATOM     42  O   UNL d   1      19.041   6.676   4.638 -0.05 -0.49    -0.650    22.192
ATOM     43  O   UNL d   1      18.451   8.200   3.138 -0.56 -0.76    -0.776    22.192
ATOM     44  H   UNL d   1      17.729   8.200   2.497 -0.48 +0.09    +0.167    22.192
ATOM     45  C   UNL d   1       9.255  15.674   2.087 -0.42 -0.00    +0.004    22.192
ATOM     46  C   UNL d   1       9.162  16.145   0.846 -0.41 -0.00    +0.012    22.192
ATOM     47  C   UNL d   1      17.001  16.497   2.725 -0.06 -0.00    +0.004    22.192
ATOM     48  C   UNL d   1      17.904  16.055   1.847 -0.10 -0.00    +0.012    22.192
TER
ENDMDL
MODEL       26
USER    Run = 26
USER    Cluster Rank = 2
USER    Number of conformations in this cluster = 2
USER  
USER    RMSD from reference structure       = 47.447 A
USER  
USER    Estimated Free Energy of Binding    =   -5.81 kcal/mol  [=(1)+(2)+(3)-(4)]
USER    Estimated Inhibition Constant, Ki   =   54.86 uM (micromolar)  [Temperature = 298.15 K]
USER    
USER    (1) Final Intermolecular Energy     =   -9.39 kcal/mol
USER        vdW + Hbond + desolv Energy     =   -8.54 kcal/mol
USER        Electrostatic Energy            =   -0.85 kcal/mol
USER    (2) Final Total Internal Energy     =   -0.64 kcal/mol
USER    (3) Torsional Free Energy           =   +3.58 kcal/mol
USER    (4) Unbound System's Energy  [=(2)] =   -0.64 kcal/mol
USER    
USER    
USER  
USER    DPF = D:/Protein_go_brrr/autodock/final/mut_Y35F/heme_Co/dock.dpf
USER    NEWDPF move	heme_Co_opt.pdbqt
USER    NEWDPF about	8.781000 34.984000 -0.736000
USER    NEWDPF tran0	-3.742387 -10.885209 -13.432833
USER    NEWDPF axisangle0	0.098097 -0.359642 -0.927920 -153.760987
USER    NEWDPF quaternion0	0.095537 -0.350255 -0.903700 -0.226983
USER    NEWDPF dihe0	21.24 86.89 -125.18 -95.95 -16.61 90.51 -88.39 -36.91 -30.90 -56.90 50.44 18.18 
USER  
USER                              x       y       z    vdW   Elec        q     RMS 
ATOM      1  C   UNL d   1      -1.589 -10.788 -13.695 -0.22 -0.00    +0.064    47.447
ATOM      2  C   UNL d   1      -4.847  -7.453 -12.761 -0.16 -0.00    +0.064    47.447
ATOM      3  C   UNL d   1      -8.339 -10.682 -13.225 -0.14 -0.00    +0.064    47.447
ATOM      4  C   UNL d   1      -5.009 -14.181 -13.799 -0.18 +0.00    +0.064    47.447
ATOM      5  C   UNL d   1      -2.225  -9.633 -13.441 -0.20 -0.00    +0.066    47.447
ATOM      6  C   UNL d   1      -1.527  -8.440 -13.168 -0.26 +0.00    -0.021    47.447
ATOM      7  C   UNL d   1      -2.477  -7.481 -12.876 -0.20 -0.00    -0.025    47.447
ATOM      8  C   UNL d   1      -3.713  -8.125 -12.999 -0.08 -0.00    +0.066    47.447
ATOM      9  C   UNL d   1      -2.245  -6.011 -12.493 -0.27 +0.00    +0.051    47.447
ATOM     10  C   UNL d   1      -6.165  -8.024 -12.888 -0.13 -0.01    +0.066    47.447
ATOM     11  C   UNL d   1      -7.395  -7.338 -12.789 -0.14 +0.00    -0.021    47.447
ATOM     12  C   UNL d   1      -8.396  -8.303 -12.932 -0.14 -0.00    +0.000    47.447
ATOM     13  C   UNL d   1      -7.705  -9.500 -13.119 -0.12 -0.01    +0.070    47.447
ATOM     14  C   UNL d   1      -7.577  -5.847 -12.664 -0.09 -0.00    +0.052    47.447
ATOM     15  C   UNL d   1      -7.784 -12.013 -13.368 -0.13 -0.00    +0.066    47.447
ATOM     16  C   UNL d   1      -8.489 -13.208 -13.326 -0.17 +0.00    -0.021    47.447
ATOM     17  C   UNL d   1      -7.533 -14.220 -13.488 -0.22 +0.00    +0.000    47.447
ATOM     18  C   UNL d   1      -6.318 -13.560 -13.635 -0.19 -0.00    +0.070    47.447
ATOM     19  C   UNL d   1      -9.985 -13.337 -13.138 -0.18 +0.00    +0.052    47.447
ATOM     20  C   UNL d   1      -3.805 -13.564 -13.857 -0.15 +0.00    +0.066    47.447
ATOM     21  C   UNL d   1      -2.612 -14.272 -13.980 -0.14 -0.00    -0.025    47.447
ATOM     22  C   UNL d   1      -1.610 -13.318 -13.982 -0.18 -0.00    -0.021    47.447
ATOM     23  C   UNL d   1      -2.247 -12.066 -13.847 -0.19 -0.00    +0.066    47.447
ATOM     24  C   UNL d   1      -2.432 -15.785 -14.071 -0.21 +0.01    +0.051    47.447
ATOM     25  N   UNL d   1      -3.587  -9.457 -13.354 -0.09 +0.01    -0.248    47.447
ATOM     26  N   UNL d   1      -6.358  -9.322 -13.148 -0.05 +0.02    -0.248    47.447
ATOM     27  N   UNL d   1      -6.501 -12.249 -13.528 -0.07 +0.02    -0.248    47.447
ATOM     28  N   UNL d   1      -3.575 -12.210 -13.768 -0.11 +0.01    -0.248    47.447
ATOM     29 FE   UNL d   1      -5.128 -10.938 -13.447 -0.03 -0.00    +0.000    47.447
ATOM     30  C   UNL d   1      -0.013  -8.264 -13.114 -0.21 +0.00    +0.052    47.447
ATOM     31  C   UNL d   1       0.409  -7.004 -13.869 -0.20 +0.02    +0.115    47.447
ATOM     32  C   UNL d   1       1.623  -6.342 -13.255 -0.25 +0.06    +0.139    47.447
ATOM     33  O   UNL d   1       2.468  -5.842 -13.982 -0.49 -0.51    -0.650    47.447
ATOM     34  O   UNL d   1       1.784  -6.240 -11.915 -0.01 -0.35    -0.776    47.447
ATOM     35  H   UNL d   1       1.294  -6.765 -11.267 -0.15 +0.01    +0.167    47.447
ATOM     36  C   UNL d   1      -4.899 -11.145 -11.374 -0.35 -0.04    +0.190    47.447
ATOM     37  O   UNL d   1      -3.989 -11.538 -10.387 -0.19 +0.10    -0.399    47.447
ATOM     38  H   UNL d   1      -3.385 -12.190 -10.840 -0.41 -0.10    +0.209    47.447
ATOM     39  C   UNL d   1      -0.122 -13.605 -14.044 -0.20 -0.00    +0.052    47.447
ATOM     40  C   UNL d   1       0.503 -12.964 -15.294 -0.08 -0.00    +0.115    47.447
ATOM     41  C   UNL d   1       1.551 -11.911 -14.999 -0.08 +0.00    +0.139    47.447
ATOM     42  O   UNL d   1       2.735 -12.203 -15.093 -0.03 +0.02    -0.650    47.447
ATOM     43  O   UNL d   1       1.214 -10.633 -14.718 -0.52 -0.15    -0.776    47.447
ATOM     44  H   UNL d   1       1.498  -9.889 -15.265 +0.03 +0.03    +0.167    47.447
ATOM     45  C   UNL d   1      -9.917  -8.228 -12.933 -0.19 -0.00    +0.004    47.447
ATOM     46  C   UNL d   1     -10.801  -8.572 -12.000 -0.22 -0.00    +0.012    47.447
ATOM     47  C   UNL d   1      -7.701 -15.704 -13.462 -0.26 +0.00    +0.004    47.447
ATOM     48  C   UNL d   1      -8.529 -16.337 -12.628 -0.29 +0.00    +0.012    47.447
TER
ENDMDL
MODEL       48
USER    Run = 48
USER    Cluster Rank = 3
USER    Number of conformations in this cluster = 7
USER  
USER    RMSD from reference structure       = 22.034 A
USER  
USER    Estimated Free Energy of Binding    =   -5.78 kcal/mol  [=(1)+(2)+(3)-(4)]
USER    Estimated Inhibition Constant, Ki   =   58.40 uM (micromolar)  [Temperature = 298.15 K]
USER    
USER    (1) Final Intermolecular Energy     =   -9.36 kcal/mol
USER        vdW + Hbond + desolv Energy     =   -6.77 kcal/mol
USER        Electrostatic Energy            =   -2.59 kcal/mol
USER    (2) Final Total Internal Energy     =   -2.20 kcal/mol
USER    (3) Torsional Free Energy           =   +3.58 kcal/mol
USER    (4) Unbound System's Energy  [=(2)] =   -2.20 kcal/mol
USER    
USER    
USER  
USER    DPF = D:/Protein_go_brrr/autodock/final/mut_Y35F/heme_Co/dock.dpf
USER    NEWDPF move	heme_Co_opt.pdbqt
USER    NEWDPF about	8.781000 34.984000 -0.736000
USER    NEWDPF tran0	11.427637 11.580495 7.074650
USER    NEWDPF axisangle0	0.666719 0.651471 0.362037 -160.659155
USER    NEWDPF quaternion0	0.657245 0.642214 0.356893 -0.167981
USER    NEWDPF dihe0	130.97 101.93 75.87 107.48 75.43 119.54 -179.84 8.21 -56.65 -52.65 -136.36 -19.03 
USER  
USER                              x       y       z    vdW   Elec        q     RMS 
ATOM      1  C   UNL d   1      11.361   9.454   7.509 -0.12 +0.02    +0.064    22.034
ATOM      2  C   UNL d   1      11.892  11.871   3.448 -0.17 -0.01    +0.064    22.034
ATOM      3  C   UNL d   1      11.208  15.992   5.768 -0.17 -0.01    +0.064    22.034
ATOM      4  C   UNL d   1      11.046  13.575   9.987 -0.22 +0.02    +0.064    22.034
ATOM      5  C   UNL d   1      11.520   9.809   6.223 -0.12 +0.01    +0.066    22.034
ATOM      6  C   UNL d   1      11.820   8.867   5.219 -0.18 -0.00    -0.021    22.034
ATOM      7  C   UNL d   1      11.995   9.577   4.047 -0.27 -0.00    -0.025    22.034
ATOM      8  C   UNL d   1      11.780  10.918   4.382 -0.19 -0.00    +0.066    22.034
ATOM      9  C   UNL d   1      12.354   9.028   2.658 -0.45 -0.00    +0.051    22.034
ATOM     10  C   UNL d   1      11.663  13.273   3.694 -0.19 -0.01    +0.066    22.034
ATOM     11  C   UNL d   1      11.627  14.303   2.729 -0.24 +0.00    -0.021    22.034
ATOM     12  C   UNL d   1      11.422  15.493   3.432 -0.15 -0.00    +0.000    22.034
ATOM     13  C   UNL d   1      11.336  15.101   4.768 -0.14 -0.01    +0.070    22.034
ATOM     14  C   UNL d   1      11.691  14.128   1.234 -0.36 -0.02    +0.052    22.034
ATOM     15  C   UNL d   1      11.156  15.767   7.199 -0.19 -0.01    +0.066    22.034
ATOM     16  C   UNL d   1      11.170  16.742   8.186 -0.18 +0.00    -0.021    22.034
ATOM     17  C   UNL d   1      11.126  16.050   9.405 -0.22 +0.00    +0.000    22.034
ATOM     18  C   UNL d   1      11.071  14.702   9.063 -0.23 +0.01    +0.070    22.034
ATOM     19  C   UNL d   1      11.224  18.234   7.945 -0.13 -0.01    +0.052    22.034
ATOM     20  C   UNL d   1      11.080  12.256   9.679 -0.19 +0.02    +0.066    22.034
ATOM     21  C   UNL d   1      11.088  11.264  10.657 -0.16 -0.01    -0.025    22.034
ATOM     22  C   UNL d   1      11.149  10.065   9.972 -0.14 -0.01    -0.021    22.034
ATOM     23  C   UNL d   1      11.188  10.388   8.598 -0.15 +0.01    +0.066    22.034
ATOM     24  C   UNL d   1      11.060  11.450  12.172 -0.16 +0.03    +0.051    22.034
ATOM     25  N   UNL d   1      11.478  11.090   5.723 +0.03 -0.01    -0.248    22.034
ATOM     26  N   UNL d   1      11.425  13.752   4.919 -0.01 +0.02    -0.248    22.034
ATOM     27  N   UNL d   1      11.122  14.570   7.742 -0.10 -0.00    -0.248    22.034
ATOM     28  N   UNL d   1      11.149  11.713   8.417 -0.08 -0.04    -0.248    22.034
ATOM     29 FE   UNL d   1      11.288  12.932   6.795 -0.04 +0.00    +0.000    22.034
ATOM     30  C   UNL d   1      12.008   7.366   5.408 -0.22 +0.01    +0.052    22.034
ATOM     31  C   UNL d   1      13.023   7.086   6.515 -0.11 +0.04    +0.115    22.034
ATOM     32  C   UNL d   1      12.439   6.253   7.637 -0.13 +0.11    +0.139    22.034
ATOM     33  O   UNL d   1      11.848   5.217   7.371 -0.30 -0.85    -0.650    22.034
ATOM     34  O   UNL d   1      12.591   6.594   8.937 +0.03 -0.63    -0.776    22.034
ATOM     35  H   UNL d   1      11.860   6.687   9.564 +0.02 +0.17    +0.167    22.034
ATOM     36  C   UNL d   1      13.379  12.929   6.944 -0.05 +0.01    +0.190    22.034
ATOM     37  O   UNL d   1      14.485  12.086   7.093 -0.00 -0.04    -0.399    22.034
ATOM     38  H   UNL d   1      14.099  11.196   7.330 +0.02 +0.03    +0.209    22.034
ATOM     39  C   UNL d   1      11.232   8.691  10.609 -0.11 +0.02    +0.052    22.034
ATOM     40  C   UNL d   1       9.835   8.198  11.019 -0.06 +0.06    +0.115    22.034
ATOM     41  C   UNL d   1       9.424   6.885  10.385 -0.09 +0.15    +0.139    22.034
ATOM     42  O   UNL d   1       8.722   6.109  11.017 -0.29 -0.82    -0.650    22.034
ATOM     43  O   UNL d   1       9.739   6.586   9.105 +0.07 -1.15    -0.776    22.034
ATOM     44  H   UNL d   1      10.601   6.231   8.852 +0.03 +0.31    +0.167    22.034
ATOM     45  C   UNL d   1      11.281  16.946   2.997 -0.12 -0.00    +0.004    22.034
ATOM     46  C   UNL d   1      10.195  17.694   2.817 -0.16 -0.00    +0.012    22.034
ATOM     47  C   UNL d   1      11.181  16.574  10.802 -0.19 +0.00    +0.004    22.034
ATOM     48  C   UNL d   1      10.358  17.515  11.270 -0.20 +0.00    +0.012    22.034
TER
ENDMDL
MODEL       35
USER    Run = 35
USER    Cluster Rank = 4
USER    Number of conformations in this cluster = 2
USER  
USER    RMSD from reference structure       = 37.094 A
USER  
USER    Estimated Free Energy of Binding    =   -5.72 kcal/mol  [=(1)+(2)+(3)-(4)]
USER    Estimated Inhibition Constant, Ki   =   64.26 uM (micromolar)  [Temperature = 298.15 K]
USER    
USER    (1) Final Intermolecular Energy     =   -9.30 kcal/mol
USER        vdW + Hbond + desolv Energy     =   -5.51 kcal/mol
USER        Electrostatic Energy            =   -3.79 kcal/mol
USER    (2) Final Total Internal Energy     =   -0.72 kcal/mol
USER    (3) Torsional Free Energy           =   +3.58 kcal/mol
USER    (4) Unbound System's Energy  [=(2)] =   -0.72 kcal/mol
USER    
USER    
USER  
USER    DPF = D:/Protein_go_brrr/autodock/final/mut_Y35F/heme_Co/dock.dpf
USER    NEWDPF move	heme_Co_opt.pdbqt
USER    NEWDPF about	8.781000 34.984000 -0.736000
USER    NEWDPF tran0	-11.629200 5.016391 16.456508
USER    NEWDPF axisangle0	0.407134 -0.892933 -0.192124 -58.059643
USER    NEWDPF quaternion0	0.197568 -0.433309 -0.093231 -0.874367
USER    NEWDPF dihe0	8.17 109.51 59.43 115.62 138.12 151.21 -164.77 123.89 105.69 70.15 41.31 150.09 
USER  
USER                              x       y       z    vdW   Elec        q     RMS 
ATOM      1  C   UNL d   1     -12.133   6.340  14.810 -0.10 +0.04    +0.064    37.094
ATOM      2  C   UNL d   1     -14.314   2.524  16.624 -0.10 +0.01    +0.064    37.094
ATOM      3  C   UNL d   1     -10.654   1.804  19.609 -0.10 +0.00    +0.064    37.094
ATOM      4  C   UNL d   1      -8.583   5.917  18.041 -0.15 +0.01    +0.064    37.094
ATOM      5  C   UNL d   1     -12.981   5.329  15.061 -0.11 +0.03    +0.066    37.094
ATOM      6  C   UNL d   1     -14.233   5.228  14.424 -0.09 -0.01    -0.021    37.094
ATOM      7  C   UNL d   1     -14.871   4.132  14.970 -0.08 -0.01    -0.025    37.094
ATOM      8  C   UNL d   1     -13.976   3.602  15.906 -0.08 +0.01    +0.066    37.094
ATOM      9  C   UNL d   1     -16.270   3.593  14.636 -0.04 +0.01    +0.051    37.094
ATOM     10  C   UNL d   1     -13.449   1.893  17.590 -0.09 +0.00    +0.066    37.094
ATOM     11  C   UNL d   1     -13.689   0.681  18.273 -0.07 -0.00    -0.021    37.094
ATOM     12  C   UNL d   1     -12.604   0.493  19.134 -0.08 +0.00    +0.000    37.094
ATOM     13  C   UNL d   1     -11.779   1.594  18.904 -0.11 +0.00    +0.070    37.094
ATOM     14  C   UNL d   1     -14.837  -0.265  18.034 -0.06 -0.00    +0.052    37.094
ATOM     15  C   UNL d   1      -9.716   2.907  19.540 -0.06 +0.00    +0.066    37.094
ATOM     16  C   UNL d   1      -8.650   3.137  20.398 -0.08 -0.00    -0.021    37.094
ATOM     17  C   UNL d   1      -8.051   4.324  19.951 -0.11 +0.00    +0.000    37.094
ATOM     18  C   UNL d   1      -8.792   4.716  18.841 -0.14 +0.01    +0.070    37.094
ATOM     19  C   UNL d   1      -8.258   2.257  21.564 -0.04 +0.00    +0.052    37.094
ATOM     20  C   UNL d   1      -9.341   6.364  17.012 -0.18 +0.01    +0.066    37.094
ATOM     21  C   UNL d   1      -9.060   7.553  16.343 -0.20 -0.01    -0.025    37.094
ATOM     22  C   UNL d   1     -10.050   7.686  15.387 -0.18 -0.01    -0.021    37.094
ATOM     23  C   UNL d   1     -10.900   6.569  15.529 -0.15 +0.02    +0.066    37.094
ATOM     24  C   UNL d   1      -7.915   8.526  16.614 -0.19 +0.01    +0.051    37.094
ATOM     25  N   UNL d   1     -12.794   4.320  15.979 -0.05 -0.05    -0.248    37.094
ATOM     26  N   UNL d   1     -12.264   2.410  17.930 -0.09 -0.01    -0.248    37.094
ATOM     27  N   UNL d   1      -9.793   3.866  18.644 -0.09 -0.00    -0.248    37.094
ATOM     28  N   UNL d   1     -10.476   5.767  16.513 -0.12 -0.04    -0.248    37.094
ATOM     29 FE   UNL d   1     -11.203   4.082  17.389 -0.03 +0.00    +0.000    37.094
ATOM     30  C   UNL d   1     -14.811   6.195  13.396 -0.11 +0.04    +0.052    37.094
ATOM     31  C   UNL d   1     -15.217   5.450  12.125 -0.15 +0.10    +0.115    37.094
ATOM     32  C   UNL d   1     -14.026   5.079  11.268 -0.10 +0.23    +0.139    37.094
ATOM     33  O   UNL d   1     -13.209   4.275  11.691 -0.62 -1.15    -0.650    37.094
ATOM     34  O   UNL d   1     -13.859   5.574  10.020 -0.06 -1.57    -0.776    37.094
ATOM     35  H   UNL d   1     -14.441   6.230   9.612 +0.03 +0.26    +0.167    37.094
ATOM     36  C   UNL d   1     -12.352   5.236  18.709 -0.02 +0.01    +0.190    37.094
ATOM     37  O   UNL d   1     -13.543   5.962  18.808 +0.00 -0.03    -0.399    37.094
ATOM     38  H   UNL d   1     -13.940   5.928  17.893 +0.01 +0.03    +0.209    37.094
ATOM     39  C   UNL d   1     -10.202   8.858  14.435 -0.13 +0.03    +0.052    37.094
ATOM     40  C   UNL d   1     -11.416   9.718  14.824 -0.11 +0.07    +0.115    37.094
ATOM     41  C   UNL d   1     -12.524   9.739  13.791 -0.04 +0.17    +0.139    37.094
ATOM     42  O   UNL d   1     -12.594  10.676  13.009 -0.66 -1.05    -0.650    37.094
ATOM     43  O   UNL d   1     -13.386   8.708  13.653 -0.34 -1.09    -0.776    37.094
ATOM     44  H   UNL d   1     -14.018   8.463  14.342 +0.02 +0.13    +0.167    37.094
ATOM     45  C   UNL d   1     -12.245  -0.603  20.128 -0.04 +0.00    +0.004    37.094
ATOM     46  C   UNL d   1     -11.322  -1.559  20.067 -0.06 +0.00    +0.012    37.094
ATOM     47  C   UNL d   1      -6.904   5.088  20.526 -0.06 +0.00    +0.004    37.094
ATOM     48  C   UNL d   1      -5.748   5.275  19.885 -0.10 +0.00    +0.012    37.094
TER
ENDMDL
MODEL       28
USER    Run = 28
USER    Cluster Rank = 5
USER    Number of conformations in this cluster = 3
USER  
USER    RMSD from reference structure       = 21.892 A
USER  
USER    Estimated Free Energy of Binding    =   -5.70 kcal/mol  [=(1)+(2)+(3)-(4)]
USER    Estimated Inhibition Constant, Ki   =   66.37 uM (micromolar)  [Temperature = 298.15 K]
USER    
USER    (1) Final Intermolecular Energy     =   -9.28 kcal/mol
USER        vdW + Hbond + desolv Energy     =   -6.59 kcal/mol
USER        Electrostatic Energy            =   -2.69 kcal/mol
USER    (2) Final Total Internal Energy     =   -0.87 kcal/mol
USER    (3) Torsional Free Energy           =   +3.58 kcal/mol
USER    (4) Unbound System's Energy  [=(2)] =   -0.87 kcal/mol
USER    
USER    
USER  
USER    DPF = D:/Protein_go_brrr/autodock/final/mut_Y35F/heme_Co/dock.dpf
USER    NEWDPF move	heme_Co_opt.pdbqt
USER    NEWDPF about	8.781000 34.984000 -0.736000
USER    NEWDPF tran0	11.858209 11.786814 7.609851
USER    NEWDPF axisangle0	-0.675110 -0.721276 -0.154878 120.893367
USER    NEWDPF quaternion0	-0.587276 -0.627436 -0.134728 0.493233
USER    NEWDPF dihe0	-96.51 103.94 73.25 151.62 137.42 143.59 -20.63 136.36 -105.52 -45.79 -9.65 -178.31 
USER  
USER                              x       y       z    vdW   Elec        q     RMS 
ATOM      1  C   UNL d   1      11.158  10.589   9.280 -0.15 +0.02    +0.064    21.892
ATOM      2  C   UNL d   1      12.676   9.423   4.927 -0.18 +0.01    +0.064    21.892
ATOM      3  C   UNL d   1      13.002  14.046   3.762 -0.10 -0.01    +0.064    21.892
ATOM      4  C   UNL d   1      11.824  15.264   8.322 -0.14 +0.00    +0.064    21.892
ATOM      5  C   UNL d   1      11.514   9.931   8.165 -0.11 +0.02    +0.066    21.892
ATOM      6  C   UNL d   1      11.615   8.526   8.126 -0.09 -0.01    -0.021    21.892
ATOM      7  C   UNL d   1      12.077   8.195   6.868 -0.10 -0.01    -0.025    21.892
ATOM      8  C   UNL d   1      12.223   9.409   6.188 -0.09 +0.01    +0.066    21.892
ATOM      9  C   UNL d   1      12.376   6.794   6.312 -0.18 +0.02    +0.051    21.892
ATOM     10  C   UNL d   1      12.834  10.621   4.140 -0.20 +0.00    +0.066    21.892
ATOM     11  C   UNL d   1      13.169  10.692   2.770 -0.35 +0.00    -0.021    21.892
ATOM     12  C   UNL d   1      13.253  12.051   2.456 -0.36 -0.00    +0.000    21.892
ATOM     13  C   UNL d   1      12.952  12.706   3.650 -0.17 -0.01    +0.070    21.892
ATOM     14  C   UNL d   1      13.300   9.527   1.823 -0.41 -0.00    +0.052    21.892
ATOM     15  C   UNL d   1      12.773  14.880   4.925 -0.06 -0.01    +0.066    21.892
ATOM     16  C   UNL d   1      12.983  16.249   5.010 -0.04 +0.00    -0.021    21.892
ATOM     17  C   UNL d   1      12.647  16.605   6.324 -0.06 -0.00    +0.000    21.892
ATOM     18  C   UNL d   1      12.241  15.423   6.934 -0.10 -0.00    +0.070    21.892
ATOM     19  C   UNL d   1      13.476  17.132   3.885 -0.03 -0.01    +0.052    21.892
ATOM     20  C   UNL d   1      11.508  14.113   8.961 -0.18 +0.01    +0.066    21.892
ATOM     21  C   UNL d   1      11.157  14.083  10.309 -0.22 -0.01    -0.025    21.892
ATOM     22  C   UNL d   1      10.931  12.751  10.606 -0.22 -0.01    -0.021    21.892
ATOM     23  C   UNL d   1      11.169  12.028   9.418 -0.18 +0.01    +0.066    21.892
ATOM     24  C   UNL d   1      11.060  15.262  11.273 -0.07 +0.02    +0.051    21.892
ATOM     25  N   UNL d   1      11.876  10.500   6.965 -0.06 -0.04    -0.248    21.892
ATOM     26  N   UNL d   1      12.643  11.841   4.653 -0.08 +0.00    -0.248    21.892
ATOM     27  N   UNL d   1      12.358  14.412   6.081 -0.05 +0.01    -0.248    21.892
ATOM     28  N   UNL d   1      11.521  12.848   8.421 -0.06 -0.03    -0.248    21.892
ATOM     29 FE   UNL d   1      12.130  12.573   6.500 -0.03 +0.00    +0.000    21.892
ATOM     30  C   UNL d   1      11.354   7.563   9.280 -0.12 +0.04    +0.052    21.892
ATOM     31  C   UNL d   1       9.854   7.431   9.540 -0.15 +0.10    +0.115    21.892
ATOM     32  C   UNL d   1       9.149   6.633   8.465 -0.11 +0.15    +0.139    21.892
ATOM     33  O   UNL d   1       7.979   6.875   8.206 -0.02 -0.38    -0.650    21.892
ATOM     34  O   UNL d   1       9.787   5.685   7.740 -0.23 -1.46    -0.776    21.892
ATOM     35  H   UNL d   1      10.118   5.818   6.842 +0.06 +0.17    +0.167    21.892
ATOM     36  C   UNL d   1      14.116  12.356   7.136 -0.03 +0.02    +0.190    21.892
ATOM     37  O   UNL d   1      14.986  11.481   7.793 +0.00 -0.05    -0.399    21.892
ATOM     38  H   UNL d   1      14.398  10.764   8.162 +0.01 +0.03    +0.209    21.892
ATOM     39  C   UNL d   1      10.570  12.204  11.974 -0.20 +0.04    +0.052    21.892
ATOM     40  C   UNL d   1      11.810  12.148  12.881 -0.11 +0.07    +0.115    21.892
ATOM     41  C   UNL d   1      11.626  12.805  14.233 +0.02 +0.16    +0.139    21.892
ATOM     42  O   UNL d   1      11.811  14.009  14.343 -0.57 -0.84    -0.650    21.892
ATOM     43  O   UNL d   1      11.177  12.114  15.304 -0.02 -0.81    -0.776    21.892
ATOM     44  H   UNL d   1      11.750  11.539  15.827 +0.01 +0.10    +0.167    21.892
ATOM     45  C   UNL d   1      13.564  12.801   1.168 -0.46 -0.00    +0.004    21.892
ATOM     46  C   UNL d   1      13.063  13.935   0.684 -0.45 -0.00    +0.012    21.892
ATOM     47  C   UNL d   1      12.736  17.931   7.005 -0.05 -0.00    +0.004    21.892
ATOM     48  C   UNL d   1      11.673  18.602   7.455 -0.09 -0.00    +0.012    21.892
TER
ENDMDL
MODEL       47
USER    Run = 47
USER    Cluster Rank = 6
USER    Number of conformations in this cluster = 1
USER  
USER    RMSD from reference structure       = 36.546 A
USER  
USER    Estimated Free Energy of Binding    =   -5.48 kcal/mol  [=(1)+(2)+(3)-(4)]
USER    Estimated Inhibition Constant, Ki   =   96.12 uM (micromolar)  [Temperature = 298.15 K]
USER    
USER    (1) Final Intermolecular Energy     =   -9.06 kcal/mol
USER        vdW + Hbond + desolv Energy     =   -7.17 kcal/mol
USER        Electrostatic Energy            =   -1.89 kcal/mol
USER    (2) Final Total Internal Energy     =   -0.69 kcal/mol
USER    (3) Torsional Free Energy           =   +3.58 kcal/mol
USER    (4) Unbound System's Energy  [=(2)] =   -0.69 kcal/mol
USER    
USER    
USER  
USER    DPF = D:/Protein_go_brrr/autodock/final/mut_Y35F/heme_Co/dock.dpf
USER    NEWDPF move	heme_Co_opt.pdbqt
USER    NEWDPF about	8.781000 34.984000 -0.736000
USER    NEWDPF tran0	22.119248 -0.817084 -7.822088
USER    NEWDPF axisangle0	0.459139 -0.309384 -0.832750 110.811367
USER    NEWDPF quaternion0	0.377960 -0.254683 -0.685514 0.567762
USER    NEWDPF dihe0	29.65 -104.60 -129.76 120.62 63.67 -133.96 -152.53 167.69 -56.98 -82.20 -168.14 161.91 
USER  
USER                              x       y       z    vdW   Elec        q     RMS 
ATOM      1  C   UNL d   1      21.964  -2.725  -6.797 -0.12 +0.00    +0.064    36.546
ATOM      2  C   UNL d   1      23.604   1.520  -5.417 -0.08 -0.00    +0.064    36.546
ATOM      3  C   UNL d   1      22.958   3.244  -9.826 -0.10 -0.04    +0.064    36.546
ATOM      4  C   UNL d   1      20.920  -0.966 -11.160 -0.19 -0.01    +0.064    36.546
ATOM      5  C   UNL d   1      22.493  -1.702  -6.105 -0.13 +0.00    +0.066    36.546
ATOM      6  C   UNL d   1      22.765  -1.794  -4.726 -0.15 -0.00    -0.021    36.546
ATOM      7  C   UNL d   1      23.219  -0.552  -4.326 -0.12 -0.00    -0.025    36.546
ATOM      8  C   UNL d   1      23.221   0.238  -5.480 -0.10 +0.00    +0.066    36.546
ATOM      9  C   UNL d   1      23.638  -0.111  -2.915 -0.10 +0.01    +0.051    36.546
ATOM     10  C   UNL d   1      23.664   2.402  -6.556 -0.05 -0.01    +0.066    36.546
ATOM     11  C   UNL d   1      24.188   3.712  -6.581 -0.06 +0.00    -0.021    36.546
ATOM     12  C   UNL d   1      23.991   4.190  -7.880 -0.10 -0.00    +0.000    36.546
ATOM     13  C   UNL d   1      23.374   3.135  -8.552 -0.09 -0.03    +0.070    36.546
ATOM     14  C   UNL d   1      24.912   4.406  -5.456 -0.03 -0.00    +0.052    36.546
ATOM     15  C   UNL d   1      22.260   2.279 -10.652 -0.14 -0.03    +0.066    36.546
ATOM     16  C   UNL d   1      21.730   2.506 -11.914 -0.19 +0.01    -0.021    36.546
ATOM     17  C   UNL d   1      21.139   1.295 -12.302 -0.23 -0.00    +0.000    36.546
ATOM     18  C   UNL d   1      21.371   0.417 -11.249 -0.17 -0.02    +0.070    36.546
ATOM     19  C   UNL d   1      21.800   3.813 -12.672 -0.19 -0.04    +0.052    36.546
ATOM     20  C   UNL d   1      21.059  -1.813 -10.112 -0.15 -0.01    +0.066    36.546
ATOM     21  C   UNL d   1      20.551  -3.110 -10.131 -0.13 +0.00    -0.025    36.546
ATOM     22  C   UNL d   1      20.862  -3.651  -8.897 -0.11 -0.00    -0.021    36.546
ATOM     23  C   UNL d   1      21.540  -2.645  -8.176 -0.11 +0.00    +0.066    36.546
ATOM     24  C   UNL d   1      19.787  -3.794 -11.262 -0.14 -0.01    +0.051    36.546
ATOM     25  N   UNL d   1      22.782  -0.450  -6.599 -0.06 +0.01    -0.248    36.546
ATOM     26  N   UNL d   1      23.228   2.035  -7.765 -0.02 +0.05    -0.248    36.546
ATOM     27  N   UNL d   1      22.015   1.045 -10.272 -0.08 +0.07    -0.248    36.546
ATOM     28  N   UNL d   1      21.660  -1.530  -8.907 -0.07 +0.02    -0.248    36.546
ATOM     29 FE   UNL d   1      22.375   0.338  -8.545 -0.03 -0.00    +0.000    36.546
ATOM     30  C   UNL d   1      22.516  -3.001  -3.828 -0.17 +0.01    +0.052    36.546
ATOM     31  C   UNL d   1      21.066  -3.021  -3.344 -0.15 +0.02    +0.115    36.546
ATOM     32  C   UNL d   1      20.339  -4.285  -3.750 -0.26 +0.06    +0.139    36.546
ATOM     33  O   UNL d   1      20.537  -5.318  -3.128 -0.01 -0.29    -0.650    36.546
ATOM     34  O   UNL d   1      19.434  -4.300  -4.756 -0.40 -0.88    -0.776    36.546
ATOM     35  H   UNL d   1      19.428  -3.673  -5.492 -0.51 +0.06    +0.167    36.546
ATOM     36  C   UNL d   1      20.511   0.931  -7.792 -0.32 -0.04    +0.190    36.546
ATOM     37  O   UNL d   1      19.897   1.846  -6.930 -0.23 +0.10    -0.399    36.546
ATOM     38  H   UNL d   1      19.045   2.096  -7.385 -0.41 -0.15    +0.209    36.546
ATOM     39  C   UNL d   1      20.469  -5.036  -8.419 -0.10 +0.01    +0.052    36.546
ATOM     40  C   UNL d   1      19.190  -4.974  -7.568 -0.15 +0.08    +0.115    36.546
ATOM     41  C   UNL d   1      17.909  -5.176  -8.349 -0.04 +0.11    +0.139    36.546
ATOM     42  O   UNL d   1      17.683  -4.469  -9.321 +0.03 -0.17    -0.650    36.546
ATOM     43  O   UNL d   1      17.047  -6.175  -8.055 -0.54 -0.86    -0.776    36.546
ATOM     44  H   UNL d   1      16.775  -6.835  -8.706 +0.03 +0.08    +0.167    36.546
ATOM     45  C   UNL d   1      24.329   5.508  -8.564 -0.12 -0.00    +0.004    36.546
ATOM     46  C   UNL d   1      25.201   5.783  -9.530 -0.08 -0.00    +0.012    36.546
ATOM     47  C   UNL d   1      20.362   0.965 -13.534 -0.28 -0.00    +0.004    36.546
ATOM     48  C   UNL d   1      20.708   1.376 -14.756 -0.24 -0.00    +0.012    36.546
TER
ENDMDL
MODEL       37
USER    Run = 37
USER    Cluster Rank = 7
USER    Number of conformations in this cluster = 4
USER  
USER    RMSD from reference structure       = 50.998 A
USER  
USER    Estimated Free Energy of Binding    =   -5.44 kcal/mol  [=(1)+(2)+(3)-(4)]
USER    Estimated Inhibition Constant, Ki   =  102.57 uM (micromolar)  [Temperature = 298.15 K]
USER    
USER    (1) Final Intermolecular Energy     =   -9.02 kcal/mol
USER        vdW + Hbond + desolv Energy     =   -8.22 kcal/mol
USER        Electrostatic Energy            =   -0.80 kcal/mol
USER    (2) Final Total Internal Energy     =   -0.89 kcal/mol
USER    (3) Torsional Free Energy           =   +3.58 kcal/mol
USER    (4) Unbound System's Energy  [=(2)] =   -0.89 kcal/mol
USER    
USER    
USER  
USER    DPF = D:/Protein_go_brrr/autodock/final/mut_Y35F/heme_Co/dock.dpf
USER    NEWDPF move	heme_Co_opt.pdbqt
USER    NEWDPF about	8.781000 34.984000 -0.736000
USER    NEWDPF tran0	2.290029 -16.619456 -9.714998
USER    NEWDPF axisangle0	-0.733247 0.138709 -0.665664 -171.240457
USER    NEWDPF quaternion0	-0.731106 0.138304 -0.663720 -0.076367
USER    NEWDPF dihe0	61.37 109.89 53.25 120.52 69.17 156.57 -179.50 -179.90 -93.82 -54.27 -8.25 179.19 
USER  
USER                              x       y       z    vdW   Elec        q     RMS 
ATOM      1  C   UNL d   1       1.241 -16.445 -11.608 -0.21 -0.01    +0.064    50.998
ATOM      2  C   UNL d   1       5.314 -14.569 -10.028 -0.24 -0.02    +0.064    50.998
ATOM      3  C   UNL d   1       4.549 -16.453  -5.705 -0.17 -0.02    +0.064    50.998
ATOM      4  C   UNL d   1       0.581 -18.699  -7.400 -0.24 -0.04    +0.064    50.998
ATOM      5  C   UNL d   1       2.392 -15.764 -11.484 -0.20 -0.02    +0.066    50.998
ATOM      6  C   UNL d   1       2.999 -15.117 -12.578 -0.15 +0.00    -0.021    50.998
ATOM      7  C   UNL d   1       4.192 -14.593 -12.119 -0.18 +0.01    -0.025    50.998
ATOM      8  C   UNL d   1       4.254 -14.929 -10.762 -0.21 -0.02    +0.066    50.998
ATOM      9  C   UNL d   1       5.244 -13.806 -12.915 -0.12 -0.01    +0.051    50.998
ATOM     10  C   UNL d   1       5.454 -14.846  -8.620 -0.22 -0.03    +0.066    50.998
ATOM     11  C   UNL d   1       6.473 -14.375  -7.764 -0.19 +0.01    -0.021    50.998
ATOM     12  C   UNL d   1       6.223 -14.937  -6.509 -0.19 -0.00    +0.000    50.998
ATOM     13  C   UNL d   1       5.066 -15.696  -6.688 -0.19 -0.03    +0.070    50.998
ATOM     14  C   UNL d   1       7.547 -13.380  -8.120 -0.17 -0.04    +0.052    50.998
ATOM     15  C   UNL d   1       3.398 -17.334  -5.731 -0.17 -0.02    +0.066    50.998
ATOM     16  C   UNL d   1       3.002 -18.200  -4.722 -0.16 +0.01    -0.021    50.998
ATOM     17  C   UNL d   1       1.859 -18.853  -5.207 -0.19 -0.00    +0.000    50.998
ATOM     18  C   UNL d   1       1.638 -18.318  -6.472 -0.22 -0.04    +0.070    50.998
ATOM     19  C   UNL d   1       3.697 -18.371  -3.389 -0.15 -0.01    +0.052    50.998
ATOM     20  C   UNL d   1       0.398 -18.257  -8.667 -0.26 -0.03    +0.066    50.998
ATOM     21  C   UNL d   1      -0.635 -18.725  -9.476 -0.29 +0.01    -0.025    50.998
ATOM     22  C   UNL d   1      -0.488 -18.071 -10.686 -0.28 +0.00    -0.021    50.998
ATOM     23  C   UNL d   1       0.644 -17.239 -10.558 -0.25 -0.01    +0.066    50.998
ATOM     24  C   UNL d   1      -1.700 -19.760  -9.122 -0.30 -0.01    +0.051    50.998
ATOM     25  N   UNL d   1       3.149 -15.649 -10.340 -0.14 +0.10    -0.248    50.998
ATOM     26  N   UNL d   1       4.571 -15.595  -7.951 -0.14 +0.11    -0.248    50.998
ATOM     27  N   UNL d   1       2.591 -17.439  -6.763 -0.11 +0.12    -0.248    50.998
ATOM     28  N   UNL d   1       1.185 -17.350  -9.338 -0.17 +0.09    -0.248    50.998
ATOM     29 FE   UNL d   1       2.850 -16.598  -8.447 -0.05 -0.00    +0.000    50.998
ATOM     30  C   UNL d   1       2.485 -15.081 -14.013 -0.09 -0.01    +0.052    50.998
ATOM     31  C   UNL d   1       1.316 -14.105 -14.142 -0.14 -0.01    +0.115    50.998
ATOM     32  C   UNL d   1       1.777 -12.678 -14.348 -0.16 -0.01    +0.139    50.998
ATOM     33  O   UNL d   1       2.591 -12.430 -15.225 -0.04 +0.02    -0.650    50.998
ATOM     34  O   UNL d   1       1.278 -11.650 -13.622 -0.18 -0.00    -0.776    50.998
ATOM     35  H   UNL d   1       1.306 -11.603 -12.656 -0.37 -0.03    +0.167    50.998
ATOM     36  C   UNL d   1       3.995 -18.190  -9.191 -0.04 -0.04    +0.190    50.998
ATOM     37  O   UNL d   1       4.718 -18.614 -10.310 +0.00 +0.06    -0.399    50.998
ATOM     38  H   UNL d   1       4.592 -17.891 -10.986 +0.02 -0.03    +0.209    50.998
ATOM     39  C   UNL d   1      -1.351 -18.288 -11.914 -0.27 +0.01    +0.052    50.998
ATOM     40  C   UNL d   1      -0.923 -19.563 -12.660 -0.14 +0.03    +0.115    50.998
ATOM     41  C   UNL d   1      -2.011 -20.609 -12.784 -0.14 +0.07    +0.139    50.998
ATOM     42  O   UNL d   1      -2.733 -20.838 -11.824 -0.02 -0.29    -0.650    50.998
ATOM     43  O   UNL d   1      -2.262 -21.238 -13.954 -0.08 -0.77    -0.776    50.998
ATOM     44  H   UNL d   1      -1.596 -21.764 -14.414 +0.01 +0.12    +0.167    50.998
ATOM     45  C   UNL d   1       6.929 -14.829  -5.164 -0.25 -0.00    +0.004    50.998
ATOM     46  C   UNL d   1       6.539 -14.265  -4.024 -0.34 -0.01    +0.012    50.998
ATOM     47  C   UNL d   1       1.042 -19.935  -4.583 -0.14 -0.00    +0.004    50.998
ATOM     48  C   UNL d   1       0.614 -19.900  -3.319 -0.27 -0.00    +0.012    50.998
TER
ENDMDL
MODEL       34
USER    Run = 34
USER    Cluster Rank = 8
USER    Number of conformations in this cluster = 1
USER  
USER    RMSD from reference structure       = 38.157 A
USER  
USER    Estimated Free Energy of Binding    =   -5.32 kcal/mol  [=(1)+(2)+(3)-(4)]
USER    Estimated Inhibition Constant, Ki   =  126.44 uM (micromolar)  [Temperature = 298.15 K]
USER    
USER    (1) Final Intermolecular Energy     =   -8.90 kcal/mol
USER        vdW + Hbond + desolv Energy     =   -6.17 kcal/mol
USER        Electrostatic Energy            =   -2.73 kcal/mol
USER    (2) Final Total Internal Energy     =   -0.71 kcal/mol
USER    (3) Torsional Free Energy           =   +3.58 kcal/mol
USER    (4) Unbound System's Energy  [=(2)] =   -0.71 kcal/mol
USER    
USER    
USER  
USER    DPF = D:/Protein_go_brrr/autodock/final/mut_Y35F/heme_Co/dock.dpf
USER    NEWDPF move	heme_Co_opt.pdbqt
USER    NEWDPF about	8.781000 34.984000 -0.736000
USER    NEWDPF tran0	-16.627040 4.651999 10.060677
USER    NEWDPF axisangle0	-0.121679 0.930901 0.344408 147.690172
USER    NEWDPF quaternion0	-0.116875 0.894143 0.330809 0.278235
USER    NEWDPF dihe0	-101.52 148.40 29.29 115.47 137.17 157.24 148.88 -171.96 -95.22 -100.27 -22.23 -33.11 
USER  
USER                              x       y       z    vdW   Elec        q     RMS 
ATOM      1  C   UNL d   1     -14.568   5.341  10.108 +0.06 +0.11    +0.064    38.157
ATOM      2  C   UNL d   1     -17.679   4.808   6.551 -0.08 +0.02    +0.064    38.157
ATOM      3  C   UNL d   1     -20.843   2.867   9.559 -0.10 +0.01    +0.064    38.157
ATOM      4  C   UNL d   1     -17.834   3.754  13.276 -0.06 +0.02    +0.064    38.157
ATOM      5  C   UNL d   1     -15.172   5.305   8.908 -0.02 +0.10    +0.066    38.157
ATOM      6  C   UNL d   1     -14.580   5.859   7.756 -0.13 -0.03    -0.021    38.157
ATOM      7  C   UNL d   1     -15.496   5.722   6.732 -0.09 -0.02    -0.025    38.157
ATOM      8  C   UNL d   1     -16.601   5.076   7.298 -0.10 +0.04    +0.066    38.157
ATOM      9  C   UNL d   1     -15.353   6.178   5.272 -0.05 +0.02    +0.051    38.157
ATOM     10  C   UNL d   1     -18.850   4.123   7.039 -0.09 +0.02    +0.066    38.157
ATOM     11  C   UNL d   1     -19.954   3.689   6.274 -0.08 -0.00    -0.021    38.157
ATOM     12  C   UNL d   1     -20.859   3.123   7.175 -0.09 +0.00    +0.000    38.157
ATOM     13  C   UNL d   1     -20.238   3.242   8.418 -0.03 +0.02    +0.070    38.157
ATOM     14  C   UNL d   1     -20.071   3.734   4.772 -0.05 +0.01    +0.052    38.157
ATOM     15  C   UNL d   1     -20.372   2.966  10.926 -0.10 +0.01    +0.066    38.157
ATOM     16  C   UNL d   1     -21.106   2.694  12.072 -0.05 -0.00    -0.021    38.157
ATOM     17  C   UNL d   1     -20.243   2.951  13.147 -0.06 +0.00    +0.000    38.157
ATOM     18  C   UNL d   1     -19.041   3.345  12.569 -0.08 +0.01    +0.070    38.157
ATOM     19  C   UNL d   1     -22.542   2.220  12.101 -0.02 +0.00    +0.052    38.157
ATOM     20  C   UNL d   1     -16.682   4.224  12.739 -0.10 +0.03    +0.066    38.157
ATOM     21  C   UNL d   1     -15.602   4.620  13.524 -0.10 -0.01    -0.025    38.157
ATOM     22  C   UNL d   1     -14.635   5.055  12.637 -0.17 -0.02    -0.021    38.157
ATOM     23  C   UNL d   1     -15.182   4.913  11.344 -0.18 +0.08    +0.066    38.157
ATOM     24  C   UNL d   1     -15.503   4.605  15.047 -0.06 +0.01    +0.051    38.157
ATOM     25  N   UNL d   1     -16.425   4.800   8.644 -0.11 -0.22    -0.248    38.157
ATOM     26  N   UNL d   1     -18.999   3.796   8.327 -0.09 -0.09    -0.248    38.157
ATOM     27  N   UNL d   1     -19.163   3.372  11.247 -0.09 -0.05    -0.248    38.157
ATOM     28  N   UNL d   1     -16.422   4.412  11.401 -0.11 -0.18    -0.248    38.157
ATOM     29 FE   UNL d   1     -17.873   4.044  10.025 -0.03 +0.00    +0.000    38.157
ATOM     30  C   UNL d   1     -13.228   6.560   7.676 -0.20 +0.07    +0.052    38.157
ATOM     31  C   UNL d   1     -12.102   5.600   8.058 -0.18 +0.19    +0.115    38.157
ATOM     32  C   UNL d   1     -11.671   4.726   6.900 -0.27 +0.20    +0.139    38.157
ATOM     33  O   UNL d   1     -11.945   5.063   5.758 -0.38 -0.62    -0.650    38.157
ATOM     34  O   UNL d   1     -10.946   3.598   7.083 -0.45 -1.13    -0.776    38.157
ATOM     35  H   UNL d   1     -10.004   3.518   6.877 -0.28 +0.12    +0.167    38.157
ATOM     36  C   UNL d   1     -18.570   6.013  10.199 -0.01 +0.06    +0.190    38.157
ATOM     37  O   UNL d   1     -18.376   7.310   9.714 +0.01 -0.12    -0.399    38.157
ATOM     38  H   UNL d   1     -18.133   7.191   8.753 +0.02 +0.07    +0.209    38.157
ATOM     39  C   UNL d   1     -13.287   5.637  13.020 -0.14 +0.05    +0.052    38.157
ATOM     40  C   UNL d   1     -12.390   4.558  13.648 -0.25 +0.08    +0.115    38.157
ATOM     41  C   UNL d   1     -11.827   3.559  12.659 -0.44 +0.13    +0.139    38.157
ATOM     42  O   UNL d   1     -12.498   3.234  11.689 -0.42 -1.13    -0.650    38.157
ATOM     43  O   UNL d   1     -10.568   3.081  12.771 -0.57 -0.67    -0.776    38.157
ATOM     44  H   UNL d   1     -10.152   2.909  13.625 -0.08 +0.10    +0.167    38.157
ATOM     45  C   UNL d   1     -22.224   2.469   7.004 -0.07 +0.00    +0.004    38.157
ATOM     46  C   UNL d   1     -22.589   1.193   7.085 -0.09 +0.00    +0.012    38.157
ATOM     47  C   UNL d   1     -20.505   2.892  14.616 -0.04 +0.00    +0.004    38.157
ATOM     48  C   UNL d   1     -19.903   2.030  15.439 -0.05 +0.00    +0.012    38.157
TER
ENDMDL
MODEL       83
USER    Run = 83
USER    Cluster Rank = 9
USER    Number of conformations in this cluster = 2
USER  
USER    RMSD from reference structure       = 33.437 A
USER  
USER    Estimated Free Energy of Binding    =   -5.24 kcal/mol  [=(1)+(2)+(3)-(4)]
USER    Estimated Inhibition Constant, Ki   =  144.33 uM (micromolar)  [Temperature = 298.15 K]
USER    
USER    (1) Final Intermolecular Energy     =   -8.82 kcal/mol
USER        vdW + Hbond + desolv Energy     =   -6.65 kcal/mol
USER        Electrostatic Energy            =   -2.17 kcal/mol
USER    (2) Final Total Internal Energy     =   -1.75 kcal/mol
USER    (3) Torsional Free Energy           =   +3.58 kcal/mol
USER    (4) Unbound System's Energy  [=(2)] =   -1.75 kcal/mol
USER    
USER    
USER  
USER    DPF = D:/Protein_go_brrr/autodock/final/mut_Y35F/heme_Co/dock.dpf
USER    NEWDPF move	heme_Co_opt.pdbqt
USER    NEWDPF about	8.781000 34.984000 -0.736000
USER    NEWDPF tran0	16.061626 -0.133471 5.913750
USER    NEWDPF axisangle0	0.760633 0.496422 -0.418333 -62.288100
USER    NEWDPF quaternion0	0.393393 0.256745 -0.216358 -0.855870
USER    NEWDPF dihe0	35.37 108.65 45.29 116.15 101.92 132.03 -121.22 -8.28 -35.04 -50.66 -160.70 -9.01 
USER  
USER                              x       y       z    vdW   Elec        q     RMS 
ATOM      1  C   UNL d   1      14.620   1.157   6.899 -0.18 +0.02    +0.064    33.437
ATOM      2  C   UNL d   1      15.078  -3.573   6.723 -0.19 +0.02    +0.064    33.437
ATOM      3  C   UNL d   1      18.698  -3.144   3.634 -0.14 +0.01    +0.064    33.437
ATOM      4  C   UNL d   1      18.502   1.694   4.095 -0.22 +0.02    +0.064    33.437
ATOM      5  C   UNL d   1      14.455  -0.168   7.050 -0.19 +0.02    +0.066    33.437
ATOM      6  C   UNL d   1      13.516  -0.707   7.950 -0.22 -0.01    -0.021    33.437
ATOM      7  C   UNL d   1      13.669  -2.079   7.912 -0.20 -0.01    -0.025    33.437
ATOM      8  C   UNL d   1      14.683  -2.319   6.978 -0.18 +0.01    +0.066    33.437
ATOM      9  C   UNL d   1      12.898  -3.136   8.717 -0.19 +0.01    +0.051    33.437
ATOM     10  C   UNL d   1      16.094  -3.918   5.760 -0.13 +0.02    +0.066    33.437
ATOM     11  C   UNL d   1      16.455  -5.219   5.344 -0.12 -0.01    -0.021    33.437
ATOM     12  C   UNL d   1      17.510  -5.064   4.441 -0.08 +0.00    +0.000    33.437
ATOM     13  C   UNL d   1      17.706  -3.685   4.362 -0.10 +0.01    +0.070    33.437
ATOM     14  C   UNL d   1      15.762  -6.501   5.724 -0.13 +0.03    +0.052    33.437
ATOM     15  C   UNL d   1      19.075  -1.753   3.482 -0.19 +0.01    +0.066    33.437
ATOM     16  C   UNL d   1      20.201  -1.271   2.830 -0.19 -0.00    -0.021    33.437
ATOM     17  C   UNL d   1      20.150   0.124   2.962 -0.26 +0.00    +0.000    33.437
ATOM     18  C   UNL d   1      18.984   0.385   3.673 -0.25 +0.01    +0.070    33.437
ATOM     19  C   UNL d   1      21.242  -2.120   2.134 -0.09 +0.01    +0.052    33.437
ATOM     20  C   UNL d   1      17.417   1.967   4.860 -0.20 +0.02    +0.066    33.437
ATOM     21  C   UNL d   1      17.076   3.265   5.230 -0.17 -0.01    -0.025    33.437
ATOM     22  C   UNL d   1      15.944   3.144   6.015 -0.13 -0.01    -0.021    33.437
ATOM     23  C   UNL d   1      15.656   1.765   6.096 -0.16 +0.02    +0.066    33.437
ATOM     24  C   UNL d   1      17.803   4.558   4.871 -0.21 +0.02    +0.051    33.437
ATOM     25  N   UNL d   1      15.184  -1.153   6.424 -0.07 -0.05    -0.248    33.437
ATOM     26  N   UNL d   1      16.812  -2.991   5.117 +0.01 -0.05    -0.248    33.437
ATOM     27  N   UNL d   1      18.385  -0.757   3.992 -0.12 -0.04    -0.248    33.437
ATOM     28  N   UNL d   1      16.546   1.049   5.400 -0.05 -0.06    -0.248    33.437
ATOM     29 FE   UNL d   1      16.879  -0.940   5.136 -0.04 +0.00    +0.000    33.437
ATOM     30  C   UNL d   1      12.577   0.076   8.862 -0.14 +0.03    +0.052    33.437
ATOM     31  C   UNL d   1      13.336   0.634  10.065 -0.11 +0.05    +0.115    33.437
ATOM     32  C   UNL d   1      12.846   2.006  10.472 -0.02 +0.14    +0.139    33.437
ATOM     33  O   UNL d   1      12.217   2.136  11.511 -0.10 -0.61    -0.650    33.437
ATOM     34  O   UNL d   1      13.123   3.113   9.743 -0.57 -1.03    -0.776    33.437
ATOM     35  H   UNL d   1      13.237   3.117   8.783 +0.02 +0.19    +0.167    33.437
ATOM     36  C   UNL d   1      18.060  -0.996   6.867 -0.04 +0.03    +0.190    33.437
ATOM     37  O   UNL d   1      18.024  -0.777   8.248 -0.00 -0.05    -0.399    33.437
ATOM     38  H   UNL d   1      17.109  -0.424   8.428 +0.01 +0.03    +0.209    33.437
ATOM     39  C   UNL d   1      15.222   4.289   6.702 -0.10 +0.02    +0.052    33.437
ATOM     40  C   UNL d   1      14.096   4.833   5.808 -0.21 +0.05    +0.115    33.437
ATOM     41  C   UNL d   1      12.726   4.825   6.455 -0.03 +0.11    +0.139    33.437
ATOM     42  O   UNL d   1      12.049   5.843   6.434 -0.12 -0.44    -0.650    33.437
ATOM     43  O   UNL d   1      12.195   3.699   6.979 -0.28 -0.89    -0.776    33.437
ATOM     44  H   UNL d   1      12.671   3.146   7.613 +0.04 +0.18    +0.167    33.437
ATOM     45  C   UNL d   1      18.339  -6.054   3.633 -0.05 +0.00    +0.004    33.437
ATOM     46  C   UNL d   1      18.340  -6.321   2.329 -0.06 +0.00    +0.012    33.437
ATOM     47  C   UNL d   1      21.128   1.161   2.515 -0.26 +0.00    +0.004    33.437
ATOM     48  C   UNL d   1      21.200   1.614   1.261 -0.25 +0.00    +0.012    33.437
TER
ENDMDL
MODEL       65
USER    Run = 65
USER    Cluster Rank = 10
USER    Number of conformations in this cluster = 1
USER  
USER    RMSD from reference structure       = 42.795 A
USER  
USER    Estimated Free Energy of Binding    =   -5.13 kcal/mol  [=(1)+(2)+(3)-(4)]
USER    Estimated Inhibition Constant, Ki   =  175.02 uM (micromolar)  [Temperature = 298.15 K]
USER    
USER    (1) Final Intermolecular Energy     =   -8.70 kcal/mol
USER        vdW + Hbond + desolv Energy     =   -7.72 kcal/mol
USER        Electrostatic Energy            =   -0.98 kcal/mol
USER    (2) Final Total Internal Energy     =   -1.84 kcal/mol
USER    (3) Torsional Free Energy           =   +3.58 kcal/mol
USER    (4) Unbound System's Energy  [=(2)] =   -1.84 kcal/mol
USER    
USER    
USER  
USER    DPF = D:/Protein_go_brrr/autodock/final/mut_Y35F/heme_Co/dock.dpf
USER    NEWDPF move	heme_Co_opt.pdbqt
USER    NEWDPF about	8.781000 34.984000 -0.736000
USER    NEWDPF tran0	4.992466 -9.216995 8.943335
USER    NEWDPF axisangle0	-0.207818 -0.000860 0.978167 137.355812
USER    NEWDPF quaternion0	-0.193593 -0.000801 0.911213 0.363610
USER    NEWDPF dihe0	43.27 108.85 -53.85 115.40 -102.27 131.61 -82.51 88.57 76.62 47.41 -0.84 -175.61 
USER  
USER                              x       y       z    vdW   Elec        q     RMS 
ATOM      1  C   UNL d   1       6.901  -8.182   8.910 -0.13 -0.01    +0.064    42.795
ATOM      2  C   UNL d   1       2.990  -7.590  11.550 -0.23 -0.05    +0.064    42.795
ATOM      3  C   UNL d   1       0.716 -10.927   8.996 -0.19 -0.01    +0.064    42.795
ATOM      4  C   UNL d   1       4.818 -11.822   6.538 -0.14 -0.01    +0.064    42.795
ATOM      5  C   UNL d   1       5.988  -7.749   9.796 -0.13 -0.01    +0.066    42.795
ATOM      6  C   UNL d   1       6.300  -6.800  10.788 -0.11 +0.01    -0.021    42.795
ATOM      7  C   UNL d   1       5.169  -6.649  11.565 -0.16 +0.01    -0.025    42.795
ATOM      8  C   UNL d   1       4.210  -7.499  11.005 -0.18 -0.03    +0.066    42.795
ATOM      9  C   UNL d   1       4.982  -5.743  12.792 -0.11 -0.05    +0.051    42.795
ATOM     10  C   UNL d   1       1.932  -8.417  11.027 -0.19 -0.03    +0.066    42.795
ATOM     11  C   UNL d   1       0.591  -8.451  11.468 -0.26 +0.01    -0.021    42.795
ATOM     12  C   UNL d   1      -0.051  -9.429  10.704 -0.25 -0.00    +0.000    42.795
ATOM     13  C   UNL d   1       0.940  -9.910   9.847 -0.17 -0.01    +0.070    42.795
ATOM     14  C   UNL d   1      -0.037  -7.533  12.486 -0.32 -0.03    +0.052    42.795
ATOM     15  C   UNL d   1       1.633 -11.580   8.082 -0.20 -0.01    +0.066    42.795
ATOM     16  C   UNL d   1       1.377 -12.721   7.335 -0.27 +0.00    -0.021    42.795
ATOM     17  C   UNL d   1       2.557 -12.984   6.626 -0.30 -0.00    +0.000    42.795
ATOM     18  C   UNL d   1       3.438 -11.970   6.986 -0.20 -0.01    +0.070    42.795
ATOM     19  C   UNL d   1       0.073 -13.487   7.324 -0.23 -0.01    +0.052    42.795
ATOM     20  C   UNL d   1       5.720 -10.895   6.940 +0.03 -0.01    +0.066    42.795
ATOM     21  C   UNL d   1       7.029 -10.876   6.464 -0.17 +0.00    -0.025    42.795
ATOM     22  C   UNL d   1       7.645  -9.819   7.108 -0.21 +0.00    -0.021    42.795
ATOM     23  C   UNL d   1       6.677  -9.248   7.962 -0.15 -0.01    +0.066    42.795
ATOM     24  C   UNL d   1       7.668 -11.831   5.459 -0.31 -0.01    +0.051    42.795
ATOM     25  N   UNL d   1       4.688  -8.189   9.903 -0.11 +0.05    -0.248    42.795
ATOM     26  N   UNL d   1       2.123  -9.259  10.005 +0.01 +0.04    -0.248    42.795
ATOM     27  N   UNL d   1       2.864 -11.170   7.877 -0.13 +0.03    -0.248    42.795
ATOM     28  N   UNL d   1       5.511  -9.898   7.864 -0.10 +0.02    -0.248    42.795
ATOM     29 FE   UNL d   1       3.725  -9.768   8.828 -0.04 -0.00    +0.000    42.795
ATOM     30  C   UNL d   1       7.654  -6.137  11.019 -0.08 -0.01    +0.052    42.795
ATOM     31  C   UNL d   1       7.831  -4.938  10.087 -0.16 -0.01    +0.115    42.795
ATOM     32  C   UNL d   1       8.784  -5.228   8.947 -0.25 +0.01    +0.139    42.795
ATOM     33  O   UNL d   1       8.609  -4.689   7.865 -0.09 +0.02    -0.650    42.795
ATOM     34  O   UNL d   1       9.861  -6.034   9.100 +0.06 -0.15    -0.776    42.795
ATOM     35  H   UNL d   1       9.862  -6.847   9.624 +0.04 +0.03    +0.167    42.795
ATOM     36  C   UNL d   1       4.415 -11.059  10.329 -0.02 -0.02    +0.190    42.795
ATOM     37  O   UNL d   1       5.397 -11.197  11.315 +0.00 +0.04    -0.399    42.795
ATOM     38  H   UNL d   1       5.988 -10.401  11.202 +0.02 -0.02    +0.209    42.795
ATOM     39  C   UNL d   1       9.103  -9.426   6.957 -0.21 -0.02    +0.052    42.795
ATOM     40  C   UNL d   1      10.012 -10.419   7.699 -0.15 -0.00    +0.115    42.795
ATOM     41  C   UNL d   1      11.148  -9.774   8.465 -0.01 +0.07    +0.139    42.795
ATOM     42  O   UNL d   1      12.277 -10.233   8.360 -0.57 -0.51    -0.650    42.795
ATOM     43  O   UNL d   1      10.966  -8.651   9.194 -0.05 -0.37    -0.776    42.795
ATOM     44  H   UNL d   1      10.498  -7.879   8.851 +0.03 +0.07    +0.167    42.795
ATOM     45  C   UNL d   1      -1.482  -9.949  10.671 -0.30 -0.00    +0.004    42.795
ATOM     46  C   UNL d   1      -2.449  -9.766   9.777 -0.43 -0.00    +0.012    42.795
ATOM     47  C   UNL d   1       2.889 -14.119   5.713 -0.36 -0.00    +0.004    42.795
ATOM     48  C   UNL d   1       3.938 -14.925   5.890 -0.25 -0.00    +0.012    42.795
TER
ENDMDL
MODEL       49
USER    Run = 49
USER    Cluster Rank = 11
USER    Number of conformations in this cluster = 1
USER  
USER    RMSD from reference structure       = 23.590 A
USER  
USER    Estimated Free Energy of Binding    =   -4.83 kcal/mol  [=(1)+(2)+(3)-(4)]
USER    Estimated Inhibition Constant, Ki   =  289.74 uM (micromolar)  [Temperature = 298.15 K]
USER    
USER    (1) Final Intermolecular Energy     =   -8.41 kcal/mol
USER        vdW + Hbond + desolv Energy     =   -6.65 kcal/mol
USER        Electrostatic Energy            =   -1.76 kcal/mol
USER    (2) Final Total Internal Energy     =   -2.38 kcal/mol
USER    (3) Torsional Free Energy           =   +3.58 kcal/mol
USER    (4) Unbound System's Energy  [=(2)] =   -2.38 kcal/mol
USER    
USER    
USER  
USER    DPF = D:/Protein_go_brrr/autodock/final/mut_Y35F/heme_Co/dock.dpf
USER    NEWDPF move	heme_Co_opt.pdbqt
USER    NEWDPF about	8.781000 34.984000 -0.736000
USER    NEWDPF tran0	15.375062 9.844629 5.156351
USER    NEWDPF axisangle0	0.097383 -0.502394 -0.859137 167.105501
USER    NEWDPF quaternion0	0.096768 -0.499217 -0.853704 0.112288
USER    NEWDPF dihe0	-143.10 114.79 -7.90 125.76 51.50 144.49 59.29 149.87 119.71 164.53 6.74 12.75 
USER  
USER                              x       y       z    vdW   Elec        q     RMS 
ATOM      1  C   UNL d   1      17.126   8.680   5.697 -0.09 +0.02    +0.064    23.590
ATOM      2  C   UNL d   1      16.491  13.331   4.942 -0.07 +0.00    +0.064    23.590
ATOM      3  C   UNL d   1      11.966  12.539   3.628 -0.19 -0.01    +0.064    23.590
ATOM      4  C   UNL d   1      12.475   7.835   4.761 -0.23 +0.01    +0.064    23.590
ATOM      5  C   UNL d   1      17.296  10.005   5.552 -0.03 +0.02    +0.066    23.590
ATOM      6  C   UNL d   1      18.496  10.648   5.913 -0.06 -0.01    -0.021    23.590
ATOM      7  C   UNL d   1      18.298  12.000   5.713 -0.05 -0.00    -0.025    23.590
ATOM      8  C   UNL d   1      16.993  12.122   5.224 -0.06 +0.01    +0.066    23.590
ATOM      9  C   UNL d   1      19.290  13.146   5.969 -0.02 +0.00    +0.051    23.590
ATOM     10  C   UNL d   1      15.170  13.553   4.410 -0.07 +0.00    +0.066    23.590
ATOM     11  C   UNL d   1      14.635  14.780   3.962 -0.05 +0.00    -0.021    23.590
ATOM     12  C   UNL d   1      13.316  14.520   3.581 -0.10 -0.00    +0.000    23.590
ATOM     13  C   UNL d   1      13.148  13.154   3.812 -0.13 -0.01    +0.070    23.590
ATOM     14  C   UNL d   1      15.383  16.082   3.825 -0.03 -0.01    +0.052    23.590
ATOM     15  C   UNL d   1      11.603  11.156   3.866 -0.22 -0.01    +0.066    23.590
ATOM     16  C   UNL d   1      10.327  10.616   3.793 -0.32 +0.00    -0.021    23.590
ATOM     17  C   UNL d   1      10.468   9.260   4.122 -0.33 +0.00    +0.000    23.590
ATOM     18  C   UNL d   1      11.827   9.075   4.353 -0.23 +0.00    +0.070    23.590
ATOM     19  C   UNL d   1       9.071  11.378   3.431 -0.35 -0.00    +0.052    23.590
ATOM     20  C   UNL d   1      13.780   7.652   5.075 -0.18 +0.01    +0.066    23.590
ATOM     21  C   UNL d   1      14.279   6.419   5.490 -0.18 -0.01    -0.025    23.590
ATOM     22  C   UNL d   1      15.623   6.625   5.739 -0.12 -0.01    -0.021    23.590
ATOM     23  C   UNL d   1      15.878   7.987   5.473 -0.12 +0.02    +0.066    23.590
ATOM     24  C   UNL d   1      13.508   5.112   5.660 -0.18 +0.02    +0.051    23.590
ATOM     25  N   UNL d   1      16.351  10.901   5.109 -0.04 -0.09    -0.248    23.590
ATOM     26  N   UNL d   1      14.286  12.560   4.260 -0.07 -0.01    -0.248    23.590
ATOM     27  N   UNL d   1      12.468  10.232   4.221 -0.12 -0.00    -0.248    23.590
ATOM     28  N   UNL d   1      14.764   8.613   5.074 -0.09 -0.07    -0.248    23.590
ATOM     29 FE   UNL d   1      14.295  10.543   4.639 -0.04 +0.00    +0.000    23.590
ATOM     30  C   UNL d   1      19.740   9.990   6.500 -0.03 +0.01    +0.052    23.590
ATOM     31  C   UNL d   1      20.701   9.571   5.388 -0.05 +0.04    +0.115    23.590
ATOM     32  C   UNL d   1      20.094   8.542   4.458 -0.16 +0.11    +0.139    23.590
ATOM     33  O   UNL d   1      19.903   7.405   4.863 -0.04 -0.50    -0.650    23.590
ATOM     34  O   UNL d   1      19.708   8.851   3.199 -0.38 -0.96    -0.776    23.590
ATOM     35  H   UNL d   1      18.961   8.441   2.743 -0.26 +0.23    +0.167    23.590
ATOM     36  C   UNL d   1      13.883  10.922   6.659 -0.04 +0.02    +0.190    23.590
ATOM     37  O   UNL d   1      14.492  11.109   7.904 -0.00 -0.05    -0.399    23.590
ATOM     38  H   UNL d   1      15.472  11.051   7.722 +0.01 +0.03    +0.209    23.590
ATOM     39  C   UNL d   1      16.590   5.582   6.266 -0.08 +0.02    +0.052    23.590
ATOM     40  C   UNL d   1      17.657   5.248   5.210 -0.15 +0.05    +0.115    23.590
ATOM     41  C   UNL d   1      17.261   5.594   3.790 -0.26 +0.07    +0.139    23.590
ATOM     42  O   UNL d   1      16.413   4.919   3.224 -0.06 -0.27    -0.650    23.590
ATOM     43  O   UNL d   1      17.755   6.683   3.160 -0.08 -0.64    -0.776    23.590
ATOM     44  H   UNL d   1      18.363   7.300   3.589 +0.03 +0.16    +0.167    23.590
ATOM     45  C   UNL d   1      12.208  15.394   3.010 -0.15 -0.00    +0.004    23.590
ATOM     46  C   UNL d   1      11.573  15.336   1.843 -0.29 -0.00    +0.012    23.590
ATOM     47  C   UNL d   1       9.426   8.200   4.268 -0.39 +0.00    +0.004    23.590
ATOM     48  C   UNL d   1       8.279   8.195   3.585 -0.47 +0.00    +0.012    23.590
TER
ENDMDL
MODEL       39
USER    Run = 39
USER    Cluster Rank = 12
USER    Number of conformations in this cluster = 6
USER  
USER    RMSD from reference structure       = 28.620 A
USER  
USER    Estimated Free Energy of Binding    =   -4.71 kcal/mol  [=(1)+(2)+(3)-(4)]
USER    Estimated Inhibition Constant, Ki   =  353.78 uM (micromolar)  [Temperature = 298.15 K]
USER    
USER    (1) Final Intermolecular Energy     =   -8.29 kcal/mol
USER        vdW + Hbond + desolv Energy     =   -6.17 kcal/mol
USER        Electrostatic Energy            =   -2.12 kcal/mol
USER    (2) Final Total Internal Energy     =   -1.97 kcal/mol
USER    (3) Torsional Free Energy           =   +3.58 kcal/mol
USER    (4) Unbound System's Energy  [=(2)] =   -1.97 kcal/mol
USER    
USER    
USER  
USER    DPF = D:/Protein_go_brrr/autodock/final/mut_Y35F/heme_Co/dock.dpf
USER    NEWDPF move	heme_Co_opt.pdbqt
USER    NEWDPF about	8.781000 34.984000 -0.736000
USER    NEWDPF tran0	18.110108 5.641568 4.722320
USER    NEWDPF axisangle0	-0.994604 0.004323 0.103655 64.253947
USER    NEWDPF quaternion0	-0.528928 0.002299 0.055123 0.846872
USER    NEWDPF dihe0	18.98 103.38 -147.67 101.76 135.73 83.16 -169.60 108.70 62.56 146.33 -163.38 -180.00 
USER  
USER                              x       y       z    vdW   Elec        q     RMS 
ATOM      1  C   UNL d   1      16.285   6.805   4.900 -0.19 +0.02    +0.064    28.620
ATOM      2  C   UNL d   1      17.062   2.184   4.093 -0.33 +0.02    +0.064    28.620
ATOM      3  C   UNL d   1      21.771   2.972   3.893 -0.10 +0.03    +0.064    28.620
ATOM      4  C   UNL d   1      21.029   7.626   5.099 -0.09 +0.04    +0.064    28.620
ATOM      5  C   UNL d   1      16.149   5.491   4.659 -0.22 +0.02    +0.066    28.620
ATOM      6  C   UNL d   1      14.897   4.848   4.703 -0.28 -0.01    -0.021    28.620
ATOM      7  C   UNL d   1      15.131   3.504   4.491 -0.39 -0.01    -0.025    28.620
ATOM      8  C   UNL d   1      16.513   3.386   4.310 -0.29 +0.02    +0.066    28.620
ATOM      9  C   UNL d   1      14.103   2.362   4.458 -0.34 +0.01    +0.051    28.620
ATOM     10  C   UNL d   1      18.470   1.968   3.870 -0.20 +0.02    +0.066    28.620
ATOM     11  C   UNL d   1      19.089   0.755   3.499 -0.28 -0.01    -0.021    28.620
ATOM     12  C   UNL d   1      20.462   1.014   3.444 -0.20 +0.00    +0.000    28.620
ATOM     13  C   UNL d   1      20.577   2.365   3.771 -0.14 +0.03    +0.070    28.620
ATOM     14  C   UNL d   1      18.389  -0.529   3.133 -0.26 +0.01    +0.052    28.620
ATOM     15  C   UNL d   1      22.074   4.338   4.273 -0.02 +0.04    +0.066    28.620
ATOM     16  C   UNL d   1      23.334   4.862   4.521 -0.05 -0.01    -0.021    28.620
ATOM     17  C   UNL d   1      23.126   6.204   4.871 -0.05 +0.00    +0.000    28.620
ATOM     18  C   UNL d   1      21.750   6.397   4.792 -0.07 +0.05    +0.070    28.620
ATOM     19  C   UNL d   1      24.637   4.100   4.421 -0.02 +0.01    +0.052    28.620
ATOM     20  C   UNL d   1      19.688   7.813   5.113 -0.12 +0.04    +0.066    28.620
ATOM     21  C   UNL d   1      19.111   9.033   5.460 -0.10 -0.01    -0.025    28.620
ATOM     22  C   UNL d   1      17.745   8.835   5.383 -0.12 -0.01    -0.021    28.620
ATOM     23  C   UNL d   1      17.554   7.489   5.002 -0.18 +0.03    +0.066    28.620
ATOM     24  C   UNL d   1      19.826  10.320   5.864 -0.05 +0.01    +0.051    28.620
ATOM     25  N   UNL d   1      17.168   4.602   4.402 -0.16 -0.10    -0.248    28.620
ATOM     26  N   UNL d   1      19.368   2.954   3.974 -0.08 -0.12    -0.248    28.620
ATOM     27  N   UNL d   1      21.154   5.257   4.463 -0.05 -0.20    -0.248    28.620
ATOM     28  N   UNL d   1      18.728   6.867   4.840 -0.12 -0.16    -0.248    28.620
ATOM     29 FE   UNL d   1      19.279   4.952   4.435 -0.04 +0.00    +0.000    28.620
ATOM     30  C   UNL d   1      13.553   5.496   5.019 -0.23 +0.02    +0.052    28.620
ATOM     31  C   UNL d   1      13.391   5.692   6.526 -0.16 +0.06    +0.115    28.620
ATOM     32  C   UNL d   1      12.201   4.941   7.081 -0.18 +0.15    +0.139    28.620
ATOM     33  O   UNL d   1      12.159   3.724   6.981 -0.33 -0.75    -0.650    28.620
ATOM     34  O   UNL d   1      11.196   5.570   7.734 -0.37 -1.38    -0.776    28.620
ATOM     35  H   UNL d   1      11.051   6.526   7.716 +0.04 +0.17    +0.167    28.620
ATOM     36  C   UNL d   1      19.213   4.476   6.475 -0.03 +0.05    +0.190    28.620
ATOM     37  O   UNL d   1      18.784   4.955   7.718 +0.00 -0.09    -0.399    28.620
ATOM     38  H   UNL d   1      18.516   5.901   7.549 +0.02 +0.05    +0.209    28.620
ATOM     39  C   UNL d   1      16.686   9.867   5.722 -0.07 +0.02    +0.052    28.620
ATOM     40  C   UNL d   1      16.504   9.978   7.245 -0.02 +0.02    +0.115    28.620
ATOM     41  C   UNL d   1      16.566   8.655   7.980 -0.00 +0.03    +0.139    28.620
ATOM     42  O   UNL d   1      15.560   8.226   8.526 +0.02 -0.14    -0.650    28.620
ATOM     43  O   UNL d   1      17.681   7.891   7.975 +0.02 -0.16    -0.776    28.620
ATOM     44  H   UNL d   1      17.650   6.927   7.919 +0.01 +0.04    +0.167    28.620
ATOM     45  C   UNL d   1      21.669   0.151   3.103 -0.15 +0.00    +0.004    28.620
ATOM     46  C   UNL d   1      22.301  -0.036   1.947 -0.16 +0.00    +0.012    28.620
ATOM     47  C   UNL d   1      24.109   7.241   5.303 -0.02 +0.00    +0.004    28.620
ATOM     48  C   UNL d   1      24.392   8.333   4.588 -0.01 +0.00    +0.012    28.620
TER
ENDMDL
MODEL       72
USER    Run = 72
USER    Cluster Rank = 13
USER    Number of conformations in this cluster = 2
USER  
USER    RMSD from reference structure       = 55.603 A
USER  
USER    Estimated Free Energy of Binding    =   -4.63 kcal/mol  [=(1)+(2)+(3)-(4)]
USER    Estimated Inhibition Constant, Ki   =  403.05 uM (micromolar)  [Temperature = 298.15 K]
USER    
USER    (1) Final Intermolecular Energy     =   -8.21 kcal/mol
USER        vdW + Hbond + desolv Energy     =   -4.95 kcal/mol
USER        Electrostatic Energy            =   -3.26 kcal/mol
USER    (2) Final Total Internal Energy     =   -1.46 kcal/mol
USER    (3) Torsional Free Energy           =   +3.58 kcal/mol
USER    (4) Unbound System's Energy  [=(2)] =   -1.46 kcal/mol
USER    
USER    
USER  
USER    DPF = D:/Protein_go_brrr/autodock/final/mut_Y35F/heme_Co/dock.dpf
USER    NEWDPF move	heme_Co_opt.pdbqt
USER    NEWDPF about	8.781000 34.984000 -0.736000
USER    NEWDPF tran0	-6.952126 -17.963046 -16.751840
USER    NEWDPF axisangle0	0.742112 0.477749 -0.470133 86.330011
USER    NEWDPF quaternion0	0.507680 0.326829 -0.321619 0.729387
USER    NEWDPF dihe0	60.14 107.58 -42.71 -115.00 -85.09 153.01 -147.43 156.70 157.67 -147.15 2.72 -18.68 
USER  
USER                              x       y       z    vdW   Elec        q     RMS 
ATOM      1  C   UNL d   1      -7.459 -19.825 -17.747 -0.06 +0.05    +0.064    55.603
ATOM      2  C   UNL d   1      -9.365 -17.574 -14.017 -0.13 +0.01    +0.064    55.603
ATOM      3  C   UNL d   1      -5.898 -14.290 -14.180 -0.19 +0.00    +0.064    55.603
ATOM      4  C   UNL d   1      -4.154 -16.352 -18.226 -0.03 +0.02    +0.064    55.603
ATOM      5  C   UNL d   1      -8.214 -19.472 -16.694 -0.08 +0.04    +0.066    55.603
ATOM      6  C   UNL d   1      -9.393 -20.163 -16.354 -0.06 -0.01    -0.021    55.603
ATOM      7  C   UNL d   1      -9.954 -19.492 -15.285 -0.05 -0.01    -0.025    55.603
ATOM      8  C   UNL d   1      -9.085 -18.431 -15.008 -0.10 +0.02    +0.066    55.603
ATOM      9  C   UNL d   1     -11.258 -19.824 -14.543 -0.02 +0.01    +0.051    55.603
ATOM     10  C   UNL d   1      -8.518 -16.470 -13.642 -0.17 +0.01    +0.066    55.603
ATOM     11  C   UNL d   1      -8.683 -15.621 -12.526 -0.29 -0.00    -0.021    55.603
ATOM     12  C   UNL d   1      -7.656 -14.675 -12.596 -0.34 +0.00    +0.000    55.603
ATOM     13  C   UNL d   1      -6.936 -15.023 -13.739 -0.20 +0.01    +0.070    55.603
ATOM     14  C   UNL d   1      -9.702 -15.780 -11.427 -0.34 +0.00    +0.052    55.603
ATOM     15  C   UNL d   1      -5.080 -14.473 -15.363 -0.10 +0.01    +0.066    55.603
ATOM     16  C   UNL d   1      -4.116 -13.597 -15.840 -0.06 -0.00    -0.021    55.603
ATOM     17  C   UNL d   1      -3.611 -14.186 -17.009 -0.03 +0.00    +0.000    55.603
ATOM     18  C   UNL d   1      -4.298 -15.388 -17.143 -0.04 +0.01    +0.070    55.603
ATOM     19  C   UNL d   1      -3.727 -12.285 -15.196 -0.07 +0.00    +0.052    55.603
ATOM     20  C   UNL d   1      -4.870 -17.484 -18.424 -0.05 +0.03    +0.066    55.603
ATOM     21  C   UNL d   1      -4.663 -18.312 -19.524 -0.03 -0.01    -0.025    55.603
ATOM     22  C   UNL d   1      -5.583 -19.338 -19.398 -0.05 -0.01    -0.021    55.603
ATOM     23  C   UNL d   1      -6.319 -19.075 -18.223 -0.04 +0.05    +0.066    55.603
ATOM     24  C   UNL d   1      -3.653 -18.127 -20.653 -0.01 +0.01    +0.051    55.603
ATOM     25  N   UNL d   1      -7.996 -18.398 -15.861 -0.09 -0.14    -0.248    55.603
ATOM     26  N   UNL d   1      -7.424 -16.142 -14.339 -0.13 -0.06    -0.248    55.603
ATOM     27  N   UNL d   1      -5.186 -15.512 -16.162 -0.06 -0.06    -0.248    55.603
ATOM     28  N   UNL d   1      -5.893 -17.953 -17.632 -0.04 -0.15    -0.248    55.603
ATOM     29 FE   UNL d   1      -6.506 -16.871 -16.023 -0.03 +0.00    +0.000    55.603
ATOM     30  C   UNL d   1      -9.986 -21.364 -17.084 -0.02 +0.02    +0.052    55.603
ATOM     31  C   UNL d   1      -9.384 -22.665 -16.555 -0.02 +0.05    +0.115    55.603
ATOM     32  C   UNL d   1      -8.021 -22.458 -15.930 -0.03 +0.14    +0.139    55.603
ATOM     33  O   UNL d   1      -7.942 -22.079 -14.771 -0.54 -0.71    -0.650    55.603
ATOM     34  O   UNL d   1      -6.876 -22.726 -16.601 -0.07 -1.30    -0.776    55.603
ATOM     35  H   UNL d   1      -6.644 -22.340 -17.457 -0.00 +0.24    +0.167    55.603
ATOM     36  C   UNL d   1      -7.871 -15.822 -17.219 -0.02 +0.03    +0.190    55.603
ATOM     37  O   UNL d   1      -9.147 -15.903 -17.786 +0.00 -0.05    -0.399    55.603
ATOM     38  H   UNL d   1      -9.464 -16.825 -17.574 +0.01 +0.03    +0.209    55.603
ATOM     39  C   UNL d   1      -5.781 -20.469 -20.389 -0.02 +0.02    +0.052    55.603
ATOM     40  C   UNL d   1      -4.755 -21.588 -20.148 -0.02 +0.05    +0.115    55.603
ATOM     41  C   UNL d   1      -4.258 -21.683 -18.721 +0.08 +0.15    +0.139    55.603
ATOM     42  O   UNL d   1      -3.604 -20.762 -18.252 -0.35 -0.85    -0.650    55.603
ATOM     43  O   UNL d   1      -4.590 -22.721 -17.921 -0.23 -1.11    -0.776    55.603
ATOM     44  H   UNL d   1      -5.460 -23.140 -17.949 -0.00 +0.19    +0.167    55.603
ATOM     45  C   UNL d   1      -7.264 -13.501 -11.709 -0.44 -0.00    +0.004    55.603
ATOM     46  C   UNL d   1      -7.113 -12.211 -11.997 -0.37 -0.00    +0.012    55.603
ATOM     47  C   UNL d   1      -2.601 -13.668 -17.978 -0.01 +0.00    +0.004    55.603
ATOM     48  C   UNL d   1      -2.911 -13.218 -19.196 -0.00 +0.00    +0.012    55.603
TER
ENDMDL
MODEL       69
USER    Run = 69
USER    Cluster Rank = 14
USER    Number of conformations in this cluster = 3
USER  
USER    RMSD from reference structure       = 52.914 A
USER  
USER    Estimated Free Energy of Binding    =   -4.49 kcal/mol  [=(1)+(2)+(3)-(4)]
USER    Estimated Inhibition Constant, Ki   =  507.34 uM (micromolar)  [Temperature = 298.15 K]
USER    
USER    (1) Final Intermolecular Energy     =   -8.07 kcal/mol
USER        vdW + Hbond + desolv Energy     =   -6.06 kcal/mol
USER        Electrostatic Energy            =   -2.02 kcal/mol
USER    (2) Final Total Internal Energy     =   -1.57 kcal/mol
USER    (3) Torsional Free Energy           =   +3.58 kcal/mol
USER    (4) Unbound System's Energy  [=(2)] =   -1.57 kcal/mol
USER    
USER    
USER  
USER    DPF = D:/Protein_go_brrr/autodock/final/mut_Y35F/heme_Co/dock.dpf
USER    NEWDPF move	heme_Co_opt.pdbqt
USER    NEWDPF about	8.781000 34.984000 -0.736000
USER    NEWDPF tran0	-4.801012 -15.418080 -15.831869
USER    NEWDPF axisangle0	-0.800528 -0.540168 0.259564 -91.991278
USER    NEWDPF quaternion0	-0.575809 -0.388535 0.186701 -0.694713
USER    NEWDPF dihe0	127.97 109.08 71.35 -50.02 105.42 142.03 -67.81 -32.22 54.29 -29.65 31.53 -0.29 
USER  
USER                              x       y       z    vdW   Elec        q     RMS 
ATOM      1  C   UNL d   1      -5.281 -17.209 -16.962 +0.03 +0.04    +0.064    52.914
ATOM      2  C   UNL d   1      -7.810 -14.584 -13.908 -0.17 +0.00    +0.064    52.914
ATOM      3  C   UNL d   1      -3.978 -11.876 -13.006 -0.24 -0.01    +0.064    52.914
ATOM      4  C   UNL d   1      -1.481 -14.299 -16.405 -0.02 +0.00    +0.064    52.914
ATOM      5  C   UNL d   1      -6.244 -16.713 -16.167 -0.10 +0.03    +0.066    52.914
ATOM      6  C   UNL d   1      -7.563 -17.205 -16.195 -0.10 -0.01    -0.021    52.914
ATOM      7  C   UNL d   1      -8.298 -16.425 -15.324 -0.10 -0.01    -0.025    52.914
ATOM      8  C   UNL d   1      -7.393 -15.502 -14.789 -0.13 +0.01    +0.066    52.914
ATOM      9  C   UNL d   1      -9.795 -16.531 -14.997 -0.06 +0.01    +0.051    52.914
ATOM     10  C   UNL d   1      -6.947 -13.611 -13.286 -0.21 -0.00    +0.066    52.914
ATOM     11  C   UNL d   1      -7.293 -12.715 -12.252 -0.32 +0.00    -0.021    52.914
ATOM     12  C   UNL d   1      -6.156 -11.940 -12.005 -0.35 -0.00    +0.000    52.914
ATOM     13  C   UNL d   1      -5.200 -12.428 -12.896 -0.22 -0.01    +0.070    52.914
ATOM     14  C   UNL d   1      -8.598 -12.683 -11.498 -0.25 -0.01    +0.052    52.914
ATOM     15  C   UNL d   1      -2.892 -12.217 -13.903 -0.17 -0.00    +0.066    52.914
ATOM     16  C   UNL d   1      -1.707 -11.513 -14.066 -0.19 +0.00    -0.021    52.914
ATOM     17  C   UNL d   1      -0.985 -12.207 -15.047 -0.10 -0.00    +0.000    52.914
ATOM     18  C   UNL d   1      -1.781 -13.293 -15.394 -0.06 +0.00    +0.070    52.914
ATOM     19  C   UNL d   1      -1.322 -10.258 -13.315 -0.30 -0.00    +0.052    52.914
ATOM     20  C   UNL d   1      -2.277 -15.313 -16.820 -0.03 +0.01    +0.066    52.914
ATOM     21  C   UNL d   1      -1.892 -16.196 -17.827 -0.02 -0.00    -0.025    52.914
ATOM     22  C   UNL d   1      -2.956 -17.064 -17.989 -0.05 -0.01    -0.021    52.914
ATOM     23  C   UNL d   1      -3.951 -16.657 -17.074 -0.08 +0.02    +0.066    52.914
ATOM     24  C   UNL d   1      -0.582 -16.200 -18.611 -0.00 +0.00    +0.051    52.914
ATOM     25  N   UNL d   1      -6.111 -15.661 -15.289 -0.10 -0.06    -0.248    52.914
ATOM     26  N   UNL d   1      -5.661 -13.475 -13.630 -0.13 +0.00    -0.248    52.914
ATOM     27  N   UNL d   1      -2.922 -13.250 -14.715 -0.07 -0.01    -0.248    52.914
ATOM     28  N   UNL d   1      -3.544 -15.596 -16.367 -0.05 -0.06    -0.248    52.914
ATOM     29 FE   UNL d   1      -4.420 -14.386 -14.987 -0.03 +0.00    +0.000    52.914
ATOM     30  C   UNL d   1      -8.099 -18.322 -17.085 -0.08 +0.02    +0.052    52.914
ATOM     31  C   UNL d   1      -8.551 -19.513 -16.239 -0.09 +0.07    +0.115    52.914
ATOM     32  C   UNL d   1      -7.929 -20.814 -16.697 -0.05 +0.14    +0.139    52.914
ATOM     33  O   UNL d   1      -7.934 -21.779 -15.948 -0.45 -0.79    -0.650    52.914
ATOM     34  O   UNL d   1      -7.406 -20.963 -17.937 -0.02 -0.68    -0.776    52.914
ATOM     35  H   UNL d   1      -6.496 -21.240 -18.114 -0.00 +0.21    +0.167    52.914
ATOM     36  C   UNL d   1      -5.202 -13.177 -16.511 -0.02 +0.01    +0.190    52.914
ATOM     37  O   UNL d   1      -6.158 -13.149 -17.531 +0.00 -0.02    -0.399    52.914
ATOM     38  H   UNL d   1      -6.559 -14.062 -17.532 +0.01 +0.02    +0.209    52.914
ATOM     39  C   UNL d   1      -3.033 -18.180 -19.014 -0.04 +0.02    +0.052    52.914
ATOM     40  C   UNL d   1      -2.731 -19.539 -18.360 -0.06 +0.07    +0.115    52.914
ATOM     41  C   UNL d   1      -3.526 -20.696 -18.928 -0.04 +0.11    +0.139    52.914
ATOM     42  O   UNL d   1      -2.969 -21.504 -19.658 -0.01 -0.29    -0.650    52.914
ATOM     43  O   UNL d   1      -4.815 -20.910 -18.581 -0.55 -1.01    -0.776    52.914
ATOM     44  H   UNL d   1      -5.544 -20.394 -18.947 +0.00 +0.15    +0.167    52.914
ATOM     45  C   UNL d   1      -5.860 -10.814 -11.024 -0.33 -0.00    +0.004    52.914
ATOM     46  C   UNL d   1      -6.449  -9.633 -10.857 -0.44 -0.00    +0.012    52.914
ATOM     47  C   UNL d   1       0.331 -11.879 -15.674 -0.10 +0.00    +0.004    52.914
ATOM     48  C   UNL d   1       1.507 -12.197 -15.128 -0.16 -0.00    +0.012    52.914
TER
ENDMDL
MODEL       57
USER    Run = 57
USER    Cluster Rank = 15
USER    Number of conformations in this cluster = 1
USER  
USER    RMSD from reference structure       = 38.034 A
USER  
USER    Estimated Free Energy of Binding    =   -4.37 kcal/mol  [=(1)+(2)+(3)-(4)]
USER    Estimated Inhibition Constant, Ki   =  626.73 uM (micromolar)  [Temperature = 298.15 K]
USER    
USER    (1) Final Intermolecular Energy     =   -7.95 kcal/mol
USER        vdW + Hbond + desolv Energy     =   -7.08 kcal/mol
USER        Electrostatic Energy            =   -0.87 kcal/mol
USER    (2) Final Total Internal Energy     =   -1.84 kcal/mol
USER    (3) Torsional Free Energy           =   +3.58 kcal/mol
USER    (4) Unbound System's Energy  [=(2)] =   -1.84 kcal/mol
USER    
USER    
USER  
USER    DPF = D:/Protein_go_brrr/autodock/final/mut_Y35F/heme_Co/dock.dpf
USER    NEWDPF move	heme_Co_opt.pdbqt
USER    NEWDPF about	8.781000 34.984000 -0.736000
USER    NEWDPF tran0	-10.703593 0.275997 -6.919762
USER    NEWDPF axisangle0	0.301065 -0.952786 0.039472 -150.889401
USER    NEWDPF quaternion0	0.291402 -0.922207 0.038206 -0.251314
USER    NEWDPF dihe0	-4.03 124.24 136.91 48.12 -99.26 83.76 129.82 -12.75 -25.16 -179.28 -171.63 -180.00 
USER  
USER                              x       y       z    vdW   Elec        q     RMS 
ATOM      1  C   UNL d   1      -9.244   1.876  -7.082 -0.21 -0.00    +0.064    38.034
ATOM      2  C   UNL d   1     -10.298  -1.787  -9.925 -0.16 +0.01    +0.064    38.034
ATOM      3  C   UNL d   1     -13.395  -3.454  -6.691 -0.23 +0.01    +0.064    38.034
ATOM      4  C   UNL d   1     -12.622   0.482  -3.940 -0.23 +0.00    +0.064    38.034
ATOM      5  C   UNL d   1      -9.278   0.978  -8.080 -0.17 +0.00    +0.066    38.034
ATOM      6  C   UNL d   1      -8.544   1.155  -9.269 -0.16 -0.00    -0.021    38.034
ATOM      7  C   UNL d   1      -8.871   0.101 -10.099 -0.10 -0.00    -0.025    38.034
ATOM      8  C   UNL d   1      -9.777  -0.682  -9.376 -0.13 +0.01    +0.066    38.034
ATOM      9  C   UNL d   1      -8.359  -0.172 -11.522 -0.05 +0.00    +0.051    38.034
ATOM     10  C   UNL d   1     -11.216  -2.668  -9.248 -0.19 +0.01    +0.066    38.034
ATOM     11  C   UNL d   1     -11.689  -3.914  -9.714 -0.16 -0.00    -0.021    38.034
ATOM     12  C   UNL d   1     -12.588  -4.380  -8.750 -0.26 +0.00    +0.000    38.034
ATOM     13  C   UNL d   1     -12.587  -3.393  -7.764 -0.23 +0.01    +0.070    38.034
ATOM     14  C   UNL d   1     -11.227  -4.637 -10.953 -0.11 -0.00    +0.052    38.034
ATOM     15  C   UNL d   1     -13.562  -2.504  -5.609 -0.22 +0.01    +0.066    38.034
ATOM     16  C   UNL d   1     -14.519  -2.557  -4.606 -0.26 -0.00    -0.021    38.034
ATOM     17  C   UNL d   1     -14.302  -1.423  -3.812 -0.27 +0.00    +0.000    38.034
ATOM     18  C   UNL d   1     -13.214  -0.773  -4.385 -0.21 +0.01    +0.070    38.034
ATOM     19  C   UNL d   1     -15.564  -3.640  -4.448 -0.24 +0.01    +0.052    38.034
ATOM     20  C   UNL d   1     -11.620   1.177  -4.531 -0.22 +0.00    +0.066    38.034
ATOM     21  C   UNL d   1     -11.161   2.392  -4.028 -0.20 -0.00    -0.025    38.034
ATOM     22  C   UNL d   1     -10.167   2.804  -4.897 -0.22 -0.00    -0.021    38.034
ATOM     23  C   UNL d   1     -10.077   1.817  -5.902 -0.19 -0.00    +0.066    38.034
ATOM     24  C   UNL d   1     -11.658   3.136  -2.792 -0.06 +0.00    +0.051    38.034
ATOM     25  N   UNL d   1     -10.043  -0.165  -8.120 -0.04 -0.01    -0.248    38.034
ATOM     26  N   UNL d   1     -11.716  -2.386  -8.039 -0.14 -0.04    -0.248    38.034
ATOM     27  N   UNL d   1     -12.818  -1.429  -5.471 -0.01 -0.03    -0.248    38.034
ATOM     28  N   UNL d   1     -10.956   0.831  -5.685 -0.12 +0.01    -0.248    38.034
ATOM     29 FE   UNL d   1     -11.512  -0.832  -6.714 -0.06 +0.00    +0.000    38.034
ATOM     30  C   UNL d   1      -7.636   2.331  -9.611 -0.14 +0.01    +0.052    38.034
ATOM     31  C   UNL d   1      -8.440   3.461 -10.255 -0.07 +0.03    +0.115    38.034
ATOM     32  C   UNL d   1      -7.813   4.819 -10.025 -0.09 +0.07    +0.139    38.034
ATOM     33  O   UNL d   1      -6.775   4.902  -9.386 -0.48 -0.62    -0.650    38.034
ATOM     34  O   UNL d   1      -8.341   5.951 -10.547 -0.08 -0.32    -0.776    38.034
ATOM     35  H   UNL d   1      -9.069   5.968 -11.183 +0.01 +0.04    +0.167    38.034
ATOM     36  C   UNL d   1     -12.906   0.284  -7.812 -0.04 +0.01    +0.190    38.034
ATOM     37  O   UNL d   1     -13.298   1.593  -8.111 +0.00 -0.02    -0.399    38.034
ATOM     38  H   UNL d   1     -12.564   2.168  -7.756 +0.02 +0.01    +0.209    38.034
ATOM     39  C   UNL d   1      -9.396   4.106  -4.799 -0.26 +0.02    +0.052    38.034
ATOM     40  C   UNL d   1     -10.238   5.277  -5.333 -0.11 +0.05    +0.115    38.034
ATOM     41  C   UNL d   1     -11.566   4.868  -5.933 -0.05 +0.02    +0.139    38.034
ATOM     42  O   UNL d   1     -12.595   5.383  -5.516 +0.03 -0.06    -0.650    38.034
ATOM     43  O   UNL d   1     -11.641   4.015  -6.978 +0.06 -0.11    -0.776    38.034
ATOM     44  H   UNL d   1     -12.345   3.359  -7.063 +0.02 +0.01    +0.167    38.034
ATOM     45  C   UNL d   1     -13.427  -5.645  -8.638 -0.34 +0.00    +0.004    38.034
ATOM     46  C   UNL d   1     -13.138  -6.907  -8.947 -0.38 -0.00    +0.012    38.034
ATOM     47  C   UNL d   1     -15.067  -0.925  -2.629 -0.22 +0.00    +0.004    38.034
ATOM     48  C   UNL d   1     -15.651   0.274  -2.581 -0.12 +0.00    +0.012    38.034
TER
ENDMDL
MODEL       78
USER    Run = 78
USER    Cluster Rank = 16
USER    Number of conformations in this cluster = 2
USER  
USER    RMSD from reference structure       = 26.849 A
USER  
USER    Estimated Free Energy of Binding    =   -4.35 kcal/mol  [=(1)+(2)+(3)-(4)]
USER    Estimated Inhibition Constant, Ki   =  643.86 uM (micromolar)  [Temperature = 298.15 K]
USER    
USER    (1) Final Intermolecular Energy     =   -7.93 kcal/mol
USER        vdW + Hbond + desolv Energy     =   -7.15 kcal/mol
USER        Electrostatic Energy            =   -0.78 kcal/mol
USER    (2) Final Total Internal Energy     =   -0.89 kcal/mol
USER    (3) Torsional Free Energy           =   +3.58 kcal/mol
USER    (4) Unbound System's Energy  [=(2)] =   -0.89 kcal/mol
USER    
USER    
USER  
USER    DPF = D:/Protein_go_brrr/autodock/final/mut_Y35F/heme_Co/dock.dpf
USER    NEWDPF move	heme_Co_opt.pdbqt
USER    NEWDPF about	8.781000 34.984000 -0.736000
USER    NEWDPF tran0	-0.940084 11.094274 -12.720782
USER    NEWDPF axisangle0	-0.758912 -0.313040 0.571016 -82.341690
USER    NEWDPF quaternion0	-0.499596 -0.206076 0.375904 -0.752750
USER    NEWDPF dihe0	33.54 112.64 179.25 106.03 133.59 137.19 -32.99 107.75 -76.92 115.53 20.39 26.51 
USER  
USER                              x       y       z    vdW   Elec        q     RMS 
ATOM      1  C   UNL d   1      -1.761   9.202 -13.400 -0.17 -0.00    +0.064    26.849
ATOM      2  C   UNL d   1      -2.568  11.824  -9.517 -0.26 -0.01    +0.064    26.849
ATOM      3  C   UNL d   1       0.883  14.866 -10.806 -0.23 -0.00    +0.064    26.849
ATOM      4  C   UNL d   1       1.464  12.420 -14.971 -0.11 -0.00    +0.064    26.849
ATOM      5  C   UNL d   1      -2.210   9.675 -12.226 -0.20 -0.00    +0.066    26.849
ATOM      6  C   UNL d   1      -3.295   9.084 -11.549 -0.19 +0.00    -0.021    26.849
ATOM      7  C   UNL d   1      -3.539   9.863 -10.434 -0.23 +0.00    -0.025    26.849
ATOM      8  C   UNL d   1      -2.584  10.884 -10.471 -0.22 -0.01    +0.066    26.849
ATOM      9  C   UNL d   1      -4.627   9.665  -9.368 -0.13 -0.01    +0.051    26.849
ATOM     10  C   UNL d   1      -1.608  12.897  -9.457 -0.19 -0.01    +0.066    26.849
ATOM     11  C   UNL d   1      -1.450  13.831  -8.409 -0.22 +0.01    -0.021    26.849
ATOM     12  C   UNL d   1      -0.434  14.703  -8.810 -0.22 -0.00    +0.000    26.849
ATOM     13  C   UNL d   1      -0.040  14.232 -10.062 -0.23 -0.01    +0.070    26.849
ATOM     14  C   UNL d   1      -2.166  13.813  -7.083 -0.22 -0.03    +0.052    26.849
ATOM     15  C   UNL d   1       1.369  14.549 -12.135 -0.17 -0.00    +0.066    26.849
ATOM     16  C   UNL d   1       2.219  15.328 -12.908 -0.14 +0.00    -0.021    26.849
ATOM     17  C   UNL d   1       2.388  14.628 -14.111 -0.12 -0.00    +0.000    26.849
ATOM     18  C   UNL d   1       1.638  13.465 -13.970 -0.13 -0.00    +0.070    26.849
ATOM     19  C   UNL d   1       2.813  16.655 -12.491 -0.09 +0.00    +0.052    26.849
ATOM     20  C   UNL d   1       0.673  11.324 -14.890 -0.12 -0.00    +0.066    26.849
ATOM     21  C   UNL d   1       0.561  10.409 -15.934 -0.09 +0.00    -0.025    26.849
ATOM     22  C   UNL d   1      -0.340   9.454 -15.499 -0.11 +0.00    -0.021    26.849
ATOM     23  C   UNL d   1      -0.746   9.844 -14.204 -0.17 -0.00    +0.066    26.849
ATOM     24  C   UNL d   1       1.262  10.451 -17.289 -0.04 -0.00    +0.051    26.849
ATOM     25  N   UNL d   1      -1.744  10.789 -11.567 -0.03 +0.02    -0.248    26.849
ATOM     26  N   UNL d   1      -0.711  13.107 -10.427 -0.06 +0.03    -0.248    26.849
ATOM     27  N   UNL d   1       1.022  13.466 -12.793 -0.05 +0.01    -0.248    26.849
ATOM     28  N   UNL d   1      -0.137  10.977 -13.833 -0.06 +0.01    -0.248    26.849
ATOM     29 FE   UNL d   1      -0.278  12.205 -12.219 -0.06 -0.00    +0.000    26.849
ATOM     30  C   UNL d   1      -4.103   7.875 -12.006 -0.14 +0.00    +0.052    26.849
ATOM     31  C   UNL d   1      -3.719   6.636 -11.198 -0.19 +0.01    +0.115    26.849
ATOM     32  C   UNL d   1      -4.725   6.320 -10.112 -0.22 +0.06    +0.139    26.849
ATOM     33  O   UNL d   1      -4.407   5.575  -9.197 -0.38 -0.37    -0.650    26.849
ATOM     34  O   UNL d   1      -5.958   6.877 -10.092 -0.48 -0.67    -0.776    26.849
ATOM     35  H   UNL d   1      -6.443   7.153 -10.882 +0.03 +0.07    +0.167    26.849
ATOM     36  C   UNL d   1      -1.854  13.250 -13.124 -0.07 -0.01    +0.190    26.849
ATOM     37  O   UNL d   1      -3.178  13.116 -13.554 -0.00 +0.02    -0.399    26.849
ATOM     38  H   UNL d   1      -3.422  12.171 -13.345 +0.02 -0.01    +0.209    26.849
ATOM     39  C   UNL d   1      -0.830   8.271 -16.312 -0.06 -0.00    +0.052    26.849
ATOM     40  C   UNL d   1      -0.656   6.962 -15.525 -0.12 -0.01    +0.115    26.849
ATOM     41  C   UNL d   1       0.784   6.526 -15.349 -0.21 -0.01    +0.139    26.849
ATOM     42  O   UNL d   1       1.168   5.497 -15.887 -0.02 +0.05    -0.650    26.849
ATOM     43  O   UNL d   1       1.680   7.288 -14.684 +0.00 +0.20    -0.776    26.849
ATOM     44  H   UNL d   1       2.618   7.061 -14.632 -0.50 -0.09    +0.167    26.849
ATOM     45  C   UNL d   1       0.218  15.910  -8.149 -0.18 -0.00    +0.004    26.849
ATOM     46  C   UNL d   1       1.349  16.012  -7.456 -0.27 +0.00    +0.012    26.849
ATOM     47  C   UNL d   1       3.143  15.012 -15.340 -0.06 -0.00    +0.004    26.849
ATOM     48  C   UNL d   1       4.252  14.391 -15.749 -0.06 -0.00    +0.012    26.849
TER
ENDMDL
MODEL       52
USER    Run = 52
USER    Cluster Rank = 17
USER    Number of conformations in this cluster = 1
USER  
USER    RMSD from reference structure       = 41.870 A
USER  
USER    Estimated Free Energy of Binding    =   -4.27 kcal/mol  [=(1)+(2)+(3)-(4)]
USER    Estimated Inhibition Constant, Ki   =  746.55 uM (micromolar)  [Temperature = 298.15 K]
USER    
USER    (1) Final Intermolecular Energy     =   -7.85 kcal/mol
USER        vdW + Hbond + desolv Energy     =   -7.00 kcal/mol
USER        Electrostatic Energy            =   -0.85 kcal/mol
USER    (2) Final Total Internal Energy     =   -2.18 kcal/mol
USER    (3) Torsional Free Energy           =   +3.58 kcal/mol
USER    (4) Unbound System's Energy  [=(2)] =   -2.18 kcal/mol
USER    
USER    
USER  
USER    DPF = D:/Protein_go_brrr/autodock/final/mut_Y35F/heme_Co/dock.dpf
USER    NEWDPF move	heme_Co_opt.pdbqt
USER    NEWDPF about	8.781000 34.984000 -0.736000
USER    NEWDPF tran0	-17.675625 -1.886331 -0.867644
USER    NEWDPF axisangle0	-0.875368 0.152193 0.458877 -69.661421
USER    NEWDPF quaternion0	-0.499970 0.086926 0.262089 -0.820843
USER    NEWDPF dihe0	-163.73 111.94 -140.13 -41.31 141.50 136.05 36.35 -36.39 179.99 -150.93 -171.91 0.83 
USER  
USER                              x       y       z    vdW   Elec        q     RMS 
ATOM      1  C   UNL d   1     -19.472  -3.106  -0.883 -0.05 +0.03    +0.064    41.870
ATOM      2  C   UNL d   1     -17.475  -0.403   2.480 -0.27 +0.02    +0.064    41.870
ATOM      3  C   UNL d   1     -13.740   0.454  -0.373 -0.18 +0.01    +0.064    41.870
ATOM      4  C   UNL d   1     -15.939  -1.984  -3.962 -0.13 +0.01    +0.064    41.870
ATOM      5  C   UNL d   1     -19.184  -2.460   0.258 -0.10 +0.03    +0.066    41.870
ATOM      6  C   UNL d   1     -20.087  -2.412   1.338 -0.10 -0.01    -0.021    41.870
ATOM      7  C   UNL d   1     -19.512  -1.608   2.303 -0.16 -0.01    -0.025    41.870
ATOM      8  C   UNL d   1     -18.277  -1.213   1.777 -0.20 +0.02    +0.066    41.870
ATOM      9  C   UNL d   1     -20.091  -1.216   3.671 -0.11 +0.01    +0.051    41.870
ATOM     10  C   UNL d   1     -16.177   0.035   2.033 -0.24 +0.02    +0.066    41.870
ATOM     11  C   UNL d   1     -15.230   0.768   2.780 -0.30 -0.01    -0.021    41.870
ATOM     12  C   UNL d   1     -14.149   1.001   1.925 -0.32 +0.00    +0.000    41.870
ATOM     13  C   UNL d   1     -14.509   0.383   0.728 -0.24 +0.01    +0.070    41.870
ATOM     14  C   UNL d   1     -15.331   1.129   4.240 -0.31 +0.01    +0.052    41.870
ATOM     15  C   UNL d   1     -13.982  -0.077  -1.700 -0.18 +0.01    +0.066    41.870
ATOM     16  C   UNL d   1     -13.214   0.156  -2.832 -0.30 -0.00    -0.021    41.870
ATOM     17  C   UNL d   1     -13.845  -0.543  -3.871 -0.24 +0.00    +0.000    41.870
ATOM     18  C   UNL d   1     -14.943  -1.164  -3.284 -0.19 +0.01    +0.070    41.870
ATOM     19  C   UNL d   1     -11.960   1.001  -2.883 -0.32 -0.00    +0.052    41.870
ATOM     20  C   UNL d   1     -17.061  -2.526  -3.431 -0.10 +0.02    +0.066    41.870
ATOM     21  C   UNL d   1     -17.961  -3.267  -4.193 -0.06 -0.00    -0.025    41.870
ATOM     22  C   UNL d   1     -18.976  -3.628  -3.326 -0.06 -0.01    -0.021    41.870
ATOM     23  C   UNL d   1     -18.647  -3.075  -2.070 -0.02 +0.03    +0.066    41.870
ATOM     24  C   UNL d   1     -17.871  -3.598  -5.681 -0.04 +0.00    +0.051    41.870
ATOM     25  N   UNL d   1     -18.045  -1.731   0.514 -0.09 -0.12    -0.248    41.870
ATOM     26  N   UNL d   1     -15.711  -0.248   0.812 -0.13 -0.07    -0.248    41.870
ATOM     27  N   UNL d   1     -15.010  -0.839  -1.998 -0.06 -0.05    -0.248    41.870
ATOM     28  N   UNL d   1     -17.490  -2.406  -2.130 +0.05 -0.12    -0.248    41.870
ATOM     29 FE   UNL d   1     -16.439  -1.261  -0.818 -0.05 +0.00    +0.000    41.870
ATOM     30  C   UNL d   1     -21.472  -3.048   1.395 -0.04 +0.01    +0.052    41.870
ATOM     31  C   UNL d   1     -22.524  -2.095   0.828 -0.01 +0.01    +0.115    41.870
ATOM     32  C   UNL d   1     -21.932  -0.767   0.406 -0.00 +0.01    +0.139    41.870
ATOM     33  O   UNL d   1     -21.926   0.166   1.195 +0.02 -0.05    -0.650    41.870
ATOM     34  O   UNL d   1     -21.362  -0.590  -0.809 +0.02 -0.08    -0.776    41.870
ATOM     35  H   UNL d   1     -20.830   0.180  -1.052 +0.01 +0.02    +0.167    41.870
ATOM     36  C   UNL d   1     -17.544   0.432  -1.374 -0.04 +0.03    +0.190    41.870
ATOM     37  O   UNL d   1     -18.832   0.977  -1.354 +0.00 -0.04    -0.399    41.870
ATOM     38  H   UNL d   1     -19.401   0.276  -0.929 +0.02 +0.03    +0.209    41.870
ATOM     39  C   UNL d   1     -20.222  -4.406  -3.704 -0.02 +0.01    +0.052    41.870
ATOM     40  C   UNL d   1     -20.098  -5.876  -3.268 -0.04 +0.01    +0.115    41.870
ATOM     41  C   UNL d   1     -19.124  -6.110  -2.132 -0.11 +0.05    +0.139    41.870
ATOM     42  O   UNL d   1     -19.555  -6.275  -0.999 -0.48 -0.40    -0.650    41.870
ATOM     43  O   UNL d   1     -17.796  -6.229  -2.349 -0.08 -0.21    -0.776    41.870
ATOM     44  H   UNL d   1     -17.264  -6.928  -1.946 -0.44 -0.11    +0.167    41.870
ATOM     45  C   UNL d   1     -12.816   1.716   2.107 -0.45 +0.00    +0.004    41.870
ATOM     46  C   UNL d   1     -12.540   2.920   2.598 -0.41 +0.00    +0.012    41.870
ATOM     47  C   UNL d   1     -13.504  -0.607  -5.323 -0.19 +0.00    +0.004    41.870
ATOM     48  C   UNL d   1     -13.201  -1.740  -5.961 -0.24 +0.00    +0.012    41.870
TER
ENDMDL
MODEL        8
USER    Run = 8
USER    Cluster Rank = 18
USER    Number of conformations in this cluster = 2
USER  
USER    RMSD from reference structure       = 41.924 A
USER  
USER    Estimated Free Energy of Binding    =   -4.23 kcal/mol  [=(1)+(2)+(3)-(4)]
USER    Estimated Inhibition Constant, Ki   =  788.98 uM (micromolar)  [Temperature = 298.15 K]
USER    
USER    (1) Final Intermolecular Energy     =   -7.81 kcal/mol
USER        vdW + Hbond + desolv Energy     =   -6.15 kcal/mol
USER        Electrostatic Energy            =   -1.67 kcal/mol
USER    (2) Final Total Internal Energy     =   -1.67 kcal/mol
USER    (3) Torsional Free Energy           =   +3.58 kcal/mol
USER    (4) Unbound System's Energy  [=(2)] =   -1.67 kcal/mol
USER    
USER    
USER  
USER    DPF = D:/Protein_go_brrr/autodock/final/mut_Y35F/heme_Co/dock.dpf
USER    NEWDPF move	heme_Co_opt.pdbqt
USER    NEWDPF about	8.781000 34.984000 -0.736000
USER    NEWDPF tran0	-17.208231 -1.373346 -1.613411
USER    NEWDPF axisangle0	-0.599710 0.761562 0.245705 -126.473479
USER    NEWDPF quaternion0	-0.535466 0.679979 0.219384 -0.450305
USER    NEWDPF dihe0	-21.94 107.37 69.79 155.59 133.66 146.57 -147.16 120.32 -134.67 -177.35 -21.20 3.70 
USER  
USER                              x       y       z    vdW   Elec        q     RMS 
ATOM      1  C   UNL d   1     -17.950  -0.845   0.358 -0.12 +0.02    +0.064    41.924
ATOM      2  C   UNL d   1     -14.104   0.524  -2.080 -0.24 +0.01    +0.064    41.924
ATOM      3  C   UNL d   1     -15.159  -2.579  -5.558 -0.13 +0.01    +0.064    41.924
ATOM      4  C   UNL d   1     -19.298  -3.717  -3.270 -0.05 +0.01    +0.064    41.924
ATOM      5  C   UNL d   1     -16.803  -0.269  -0.036 -0.13 +0.02    +0.066    41.924
ATOM      6  C   UNL d   1     -16.197   0.769   0.699 -0.13 -0.00    -0.021    41.924
ATOM      7  C   UNL d   1     -15.094   1.178  -0.025 -0.15 -0.00    -0.025    41.924
ATOM      8  C   UNL d   1     -15.064   0.361  -1.161 -0.16 +0.01    +0.066    41.924
ATOM      9  C   UNL d   1     -14.097   2.293   0.326 -0.17 +0.01    +0.051    41.924
ATOM     10  C   UNL d   1     -13.978  -0.286  -3.267 -0.22 +0.01    +0.066    41.924
ATOM     11  C   UNL d   1     -12.917  -0.259  -4.197 -0.21 -0.00    -0.021    41.924
ATOM     12  C   UNL d   1     -13.248  -1.176  -5.199 -0.20 +0.00    +0.000    41.924
ATOM     13  C   UNL d   1     -14.477  -1.702  -4.800 -0.17 +0.01    +0.070    41.924
ATOM     14  C   UNL d   1     -11.637   0.527  -4.068 -0.22 +0.00    +0.052    41.924
ATOM     15  C   UNL d   1     -16.457  -3.180  -5.326 -0.09 +0.01    +0.066    41.924
ATOM     16  C   UNL d   1     -17.171  -3.967  -6.219 -0.05 -0.00    -0.021    41.924
ATOM     17  C   UNL d   1     -18.367  -4.296  -5.565 -0.03 +0.00    +0.000    41.924
ATOM     18  C   UNL d   1     -18.280  -3.695  -4.313 -0.05 +0.01    +0.070    41.924
ATOM     19  C   UNL d   1     -16.710  -4.360  -7.605 -0.06 +0.00    +0.052    41.924
ATOM     20  C   UNL d   1     -19.273  -3.070  -2.080 -0.07 +0.03    +0.066    41.924
ATOM     21  C   UNL d   1     -20.329  -3.139  -1.174 -0.05 -0.01    -0.025    41.924
ATOM     22  C   UNL d   1     -19.956  -2.344  -0.105 -0.07 -0.01    -0.021    41.924
ATOM     23  C   UNL d   1     -18.686  -1.815  -0.421 -0.08 +0.03    +0.066    41.924
ATOM     24  C   UNL d   1     -21.638  -3.908  -1.326 -0.02 +0.01    +0.051    41.924
ATOM     25  N   UNL d   1     -16.108  -0.548  -1.191 -0.09 -0.07    -0.248    41.924
ATOM     26  N   UNL d   1     -14.890  -1.204  -3.604 -0.12 -0.03    -0.248    41.924
ATOM     27  N   UNL d   1     -17.143  -3.014  -4.218 -0.05 -0.04    -0.248    41.924
ATOM     28  N   UNL d   1     -18.270  -2.250  -1.616 -0.04 -0.11    -0.248    41.924
ATOM     29 FE   UNL d   1     -16.659  -1.856  -2.792 -0.03 +0.00    +0.000    41.924
ATOM     30  C   UNL d   1     -16.711   1.386   1.995 -0.12 +0.01    +0.052    41.924
ATOM     31  C   UNL d   1     -16.741   0.343   3.112 -0.27 +0.03    +0.115    41.924
ATOM     32  C   UNL d   1     -15.493  -0.513   3.135 -0.40 +0.05    +0.139    41.924
ATOM     33  O   UNL d   1     -14.492  -0.101   3.701 -0.44 -0.27    -0.650    41.924
ATOM     34  O   UNL d   1     -15.462  -1.750   2.587 -0.05 -0.27    -0.776    41.924
ATOM     35  H   UNL d   1     -16.238  -2.317   2.479 -0.36 +0.05    +0.167    41.924
ATOM     36  C   UNL d   1     -17.651  -0.215  -3.640 -0.02 +0.02    +0.190    41.924
ATOM     37  O   UNL d   1     -18.041   1.104  -3.387 +0.00 -0.03    -0.399    41.924
ATOM     38  H   UNL d   1     -17.800   1.264  -2.432 +0.01 +0.02    +0.209    41.924
ATOM     39  C   UNL d   1     -20.806  -2.060   1.118 -0.05 +0.01    +0.052    41.924
ATOM     40  C   UNL d   1     -20.290  -2.849   2.333 -0.13 +0.03    +0.115    41.924
ATOM     41  C   UNL d   1     -19.124  -3.766   2.032 -0.17 +0.09    +0.139    41.924
ATOM     42  O   UNL d   1     -19.324  -4.965   1.897 -0.11 -0.55    -0.650    41.924
ATOM     43  O   UNL d   1     -17.878  -3.286   1.822 +0.12 -0.83    -0.776    41.924
ATOM     44  H   UNL d   1     -17.312  -2.979   2.542 -0.50 +0.06    +0.167    41.924
ATOM     45  C   UNL d   1     -12.540  -1.627  -6.469 -0.17 +0.00    +0.004    41.924
ATOM     46  C   UNL d   1     -12.528  -2.809  -7.081 -0.27 +0.00    +0.012    41.924
ATOM     47  C   UNL d   1     -19.545  -5.068  -6.061 -0.01 +0.00    +0.004    41.924
ATOM     48  C   UNL d   1     -19.890  -6.269  -5.592 -0.01 +0.00    +0.012    41.924
TER
ENDMDL
MODEL      100
USER    Run = 100
USER    Cluster Rank = 19
USER    Number of conformations in this cluster = 1
USER  
USER    RMSD from reference structure       = 30.230 A
USER  
USER    Estimated Free Energy of Binding    =   -4.22 kcal/mol  [=(1)+(2)+(3)-(4)]
USER    Estimated Inhibition Constant, Ki   =  813.16 uM (micromolar)  [Temperature = 298.15 K]
USER    
USER    (1) Final Intermolecular Energy     =   -7.79 kcal/mol
USER        vdW + Hbond + desolv Energy     =   -5.57 kcal/mol
USER        Electrostatic Energy            =   -2.23 kcal/mol
USER    (2) Final Total Internal Energy     =   -2.28 kcal/mol
USER    (3) Torsional Free Energy           =   +3.58 kcal/mol
USER    (4) Unbound System's Energy  [=(2)] =   -2.28 kcal/mol
USER    
USER    
USER  
USER    DPF = D:/Protein_go_brrr/autodock/final/mut_Y35F/heme_Co/dock.dpf
USER    NEWDPF move	heme_Co_opt.pdbqt
USER    NEWDPF about	8.781000 34.984000 -0.736000
USER    NEWDPF tran0	13.072905 3.716542 10.052331
USER    NEWDPF axisangle0	0.477274 0.767266 -0.428383 -86.343332
USER    NEWDPF quaternion0	0.326544 0.524953 -0.293094 -0.729307
USER    NEWDPF dihe0	-13.04 112.31 -169.16 -8.66 -39.51 139.53 -146.67 -39.00 -170.38 -110.57 -5.97 -7.07 
USER  
USER                              x       y       z    vdW   Elec        q     RMS 
ATOM      1  C   UNL d   1      12.433   4.854  11.788 -0.04 +0.06    +0.064    30.230
ATOM      2  C   UNL d   1      12.878   0.183  11.015 -0.09 +0.03    +0.064    30.230
ATOM      3  C   UNL d   1      13.987   1.008   6.441 -0.29 +0.02    +0.064    30.230
ATOM      4  C   UNL d   1      13.917   5.795   7.301 -0.08 +0.03    +0.064    30.230
ATOM      5  C   UNL d   1      12.438   3.515  11.904 -0.03 +0.07    +0.066    30.230
ATOM      6  C   UNL d   1      12.224   2.871  13.138 -0.05 -0.01    -0.021    30.230
ATOM      7  C   UNL d   1      12.376   1.517  12.912 -0.04 -0.01    -0.025    30.230
ATOM      8  C   UNL d   1      12.660   1.392  11.548 -0.08 +0.04    +0.066    30.230
ATOM      9  C   UNL d   1      12.263   0.373  13.931 -0.01 +0.01    +0.051    30.230
ATOM     10  C   UNL d   1      13.151  -0.046   9.618 -0.12 +0.03    +0.066    30.230
ATOM     11  C   UNL d   1      13.249  -1.297   8.971 -0.15 -0.01    -0.021    30.230
ATOM     12  C   UNL d   1      13.569  -1.027   7.638 -0.25 +0.00    +0.000    30.230
ATOM     13  C   UNL d   1      13.630   0.365   7.567 -0.22 +0.02    +0.070    30.230
ATOM     14  C   UNL d   1      12.957  -2.643   9.584 -0.11 +0.01    +0.052    30.230
ATOM     15  C   UNL d   1      14.152   2.429   6.206 -0.26 +0.03    +0.066    30.230
ATOM     16  C   UNL d   1      14.664   3.020   5.060 -0.36 -0.01    -0.021    30.230
ATOM     17  C   UNL d   1      14.649   4.401   5.304 -0.27 +0.00    +0.000    30.230
ATOM     18  C   UNL d   1      14.110   4.544   6.578 -0.14 +0.03    +0.070    30.230
ATOM     19  C   UNL d   1      15.133   2.280   3.827 -0.51 +0.01    +0.052    30.230
ATOM     20  C   UNL d   1      13.476   5.954   8.572 -0.06 +0.05    +0.066    30.230
ATOM     21  C   UNL d   1      13.368   7.207   9.171 -0.03 -0.01    -0.025    30.230
ATOM     22  C   UNL d   1      12.915   6.969  10.455 -0.04 -0.01    -0.021    30.230
ATOM     23  C   UNL d   1      12.779   5.570  10.582 -0.02 +0.07    +0.066    30.230
ATOM     24  C   UNL d   1      13.699   8.564   8.556 -0.02 +0.01    +0.051    30.230
ATOM     25  N   UNL d   1      12.699   2.614  10.897 +0.02 -0.29    -0.248    30.230
ATOM     26  N   UNL d   1      13.322   0.958   8.751 -0.11 -0.13    -0.248    30.230
ATOM     27  N   UNL d   1      13.854   3.348   7.097 -0.11 -0.14    -0.248    30.230
ATOM     28  N   UNL d   1      13.121   4.952   9.445 -0.06 -0.30    -0.248    30.230
ATOM     29 FE   UNL d   1      13.310   3.006   8.885 -0.03 +0.00    +0.000    30.230
ATOM     30  C   UNL d   1      11.966   3.543  14.482 -0.01 +0.02    +0.052    30.230
ATOM     31  C   UNL d   1      10.516   4.015  14.579 -0.02 +0.04    +0.115    30.230
ATOM     32  C   UNL d   1       9.674   3.535  13.416 -0.07 +0.09    +0.139    30.230
ATOM     33  O   UNL d   1       9.184   2.416  13.450 -0.01 -0.29    -0.650    30.230
ATOM     34  O   UNL d   1       9.404   4.325  12.351 -0.37 -1.00    -0.776    30.230
ATOM     35  H   UNL d   1       9.506   5.287  12.348 +0.02 +0.19    +0.167    30.230
ATOM     36  C   UNL d   1      15.282   2.969   9.596 -0.02 +0.07    +0.190    30.230
ATOM     37  O   UNL d   1      16.045   3.019  10.767 +0.00 -0.10    -0.399    30.230
ATOM     38  H   UNL d   1      15.379   3.116  11.503 +0.01 +0.06    +0.209    30.230
ATOM     39  C   UNL d   1      12.689   8.027  11.519 -0.02 +0.02    +0.052    30.230
ATOM     40  C   UNL d   1      11.221   8.487  11.524 -0.08 +0.05    +0.115    30.230
ATOM     41  C   UNL d   1      10.229   7.404  11.894 -0.11 +0.09    +0.139    30.230
ATOM     42  O   UNL d   1       9.797   7.353  13.037 +0.00 -0.30    -0.650    30.230
ATOM     43  O   UNL d   1       9.740   6.545  10.973 -0.19 -0.99    -0.776    30.230
ATOM     44  H   UNL d   1       8.944   6.018  11.125 +0.03 +0.24    +0.167    30.230
ATOM     45  C   UNL d   1      13.804  -1.918   6.425 -0.26 +0.00    +0.004    30.230
ATOM     46  C   UNL d   1      14.065  -3.220   6.345 -0.30 +0.00    +0.012    30.230
ATOM     47  C   UNL d   1      15.140   5.525   4.454 -0.27 +0.00    +0.004    30.230
ATOM     48  C   UNL d   1      16.414   5.662   4.076 -0.33 +0.00    +0.012    30.230
TER
ENDMDL
MODEL       91
USER    Run = 91
USER    Cluster Rank = 20
USER    Number of conformations in this cluster = 2
USER  
USER    RMSD from reference structure       = 38.915 A
USER  
USER    Estimated Free Energy of Binding    =   -4.21 kcal/mol  [=(1)+(2)+(3)-(4)]
USER    Estimated Inhibition Constant, Ki   =  816.90 uM (micromolar)  [Temperature = 298.15 K]
USER    
USER    (1) Final Intermolecular Energy     =   -7.79 kcal/mol
USER        vdW + Hbond + desolv Energy     =   -4.43 kcal/mol
USER        Electrostatic Energy            =   -3.36 kcal/mol
USER    (2) Final Total Internal Energy     =   -2.20 kcal/mol
USER    (3) Torsional Free Energy           =   +3.58 kcal/mol
USER    (4) Unbound System's Energy  [=(2)] =   -2.20 kcal/mol
USER    
USER    
USER  
USER    DPF = D:/Protein_go_brrr/autodock/final/mut_Y35F/heme_Co/dock.dpf
USER    NEWDPF move	heme_Co_opt.pdbqt
USER    NEWDPF about	8.781000 34.984000 -0.736000
USER    NEWDPF tran0	-17.735329 3.207101 5.725910
USER    NEWDPF axisangle0	-0.246180 0.968973 -0.022049 -178.892915
USER    NEWDPF quaternion0	-0.246169 0.968928 -0.022048 -0.009661
USER    NEWDPF dihe0	-84.16 98.42 177.87 101.02 132.68 158.71 95.27 163.94 45.75 -85.16 -2.97 -15.20 
USER  
USER                              x       y       z    vdW   Elec        q     RMS 
ATOM      1  C   UNL d   1     -16.298   4.601   6.566 -0.13 +0.04    +0.064    38.915
ATOM      2  C   UNL d   1     -16.026   1.523   2.952 -0.19 +0.01    +0.064    38.915
ATOM      3  C   UNL d   1     -20.395  -0.120   3.974 -0.10 +0.01    +0.064    38.915
ATOM      4  C   UNL d   1     -20.851   3.276   7.426 -0.08 +0.01    +0.064    38.915
ATOM      5  C   UNL d   1     -15.888   3.856   5.527 -0.13 +0.03    +0.066    38.915
ATOM      6  C   UNL d   1     -14.658   4.087   4.881 -0.16 -0.01    -0.021    38.915
ATOM      7  C   UNL d   1     -14.595   3.206   3.819 -0.18 -0.01    -0.025    38.915
ATOM      8  C   UNL d   1     -15.780   2.465   3.872 -0.16 +0.02    +0.066    38.915
ATOM      9  C   UNL d   1     -13.468   3.057   2.784 -0.28 +0.01    +0.051    38.915
ATOM     10  C   UNL d   1     -17.205   0.694   2.942 -0.18 +0.02    +0.066    38.915
ATOM     11  C   UNL d   1     -17.457  -0.404   2.090 -0.23 -0.01    -0.021    38.915
ATOM     12  C   UNL d   1     -18.736  -0.867   2.412 -0.19 +0.00    +0.000    38.915
ATOM     13  C   UNL d   1     -19.163  -0.028   3.442 -0.09 +0.01    +0.070    38.915
ATOM     14  C   UNL d   1     -16.488  -1.012   1.109 -0.25 +0.02    +0.052    38.915
ATOM     15  C   UNL d   1     -21.016   0.693   5.000 -0.09 +0.00    +0.066    38.915
ATOM     16  C   UNL d   1     -22.343   0.638   5.403 -0.08 -0.00    -0.021    38.915
ATOM     17  C   UNL d   1     -22.480   1.617   6.397 -0.07 +0.00    +0.000    38.915
ATOM     18  C   UNL d   1     -21.217   2.183   6.535 -0.10 +0.01    +0.070    38.915
ATOM     19  C   UNL d   1     -23.389  -0.304   4.849 -0.03 +0.00    +0.052    38.915
ATOM     20  C   UNL d   1     -19.652   3.900   7.516 -0.08 +0.02    +0.066    38.915
ATOM     21  C   UNL d   1     -19.431   4.965   8.387 -0.05 -0.01    -0.025    38.915
ATOM     22  C   UNL d   1     -18.119   5.349   8.182 -0.05 -0.01    -0.021    38.915
ATOM     23  C   UNL d   1     -17.603   4.500   7.179 -0.11 +0.03    +0.066    38.915
ATOM     24  C   UNL d   1     -20.428   5.599   9.354 -0.02 +0.01    +0.051    38.915
ATOM     25  N   UNL d   1     -16.598   2.843   4.923 -0.12 -0.07    -0.248    38.915
ATOM     26  N   UNL d   1     -18.215   0.879   3.799 -0.09 -0.05    -0.248    38.915
ATOM     27  N   UNL d   1     -20.378   1.629   5.667 -0.04 -0.02    -0.248    38.915
ATOM     28  N   UNL d   1     -18.529   3.624   6.772 -0.09 -0.08    -0.248    38.915
ATOM     29 FE   UNL d   1     -18.600   2.202   5.320 -0.04 +0.00    +0.000    38.915
ATOM     30  C   UNL d   1     -13.636   5.164   5.228 -0.18 +0.04    +0.052    38.915
ATOM     31  C   UNL d   1     -12.766   4.720   6.403 -0.27 +0.15    +0.115    38.915
ATOM     32  C   UNL d   1     -12.562   5.822   7.420 -0.23 +0.19    +0.139    38.915
ATOM     33  O   UNL d   1     -12.483   6.981   7.042 +0.01 -0.63    -0.650    38.915
ATOM     34  O   UNL d   1     -12.511   5.572   8.749 +0.17 -1.61    -0.776    38.915
ATOM     35  H   UNL d   1     -13.285   5.549   9.328 +0.05 +0.38    +0.167    38.915
ATOM     36  C   UNL d   1     -19.216   3.632   3.917 -0.03 +0.02    +0.190    38.915
ATOM     37  O   UNL d   1     -18.735   4.575   3.002 +0.01 -0.04    -0.399    38.915
ATOM     38  H   UNL d   1     -17.773   4.696   3.240 +0.02 +0.03    +0.209    38.915
ATOM     39  C   UNL d   1     -17.424   6.510   8.868 -0.03 +0.02    +0.052    38.915
ATOM     40  C   UNL d   1     -16.831   6.068  10.216 -0.06 +0.07    +0.115    38.915
ATOM     41  C   UNL d   1     -15.415   5.537  10.132 -0.15 +0.17    +0.139    38.915
ATOM     42  O   UNL d   1     -15.177   4.582   9.407 +0.09 -1.24    -0.650    38.915
ATOM     43  O   UNL d   1     -14.390   6.145  10.769 +0.01 -1.23    -0.776    38.915
ATOM     44  H   UNL d   1     -13.474   5.853  10.675 +0.05 +0.34    +0.167    38.915
ATOM     45  C   UNL d   1     -19.590  -2.010   1.882 -0.18 +0.00    +0.004    38.915
ATOM     46  C   UNL d   1     -19.711  -3.267   2.299 -0.23 +0.00    +0.012    38.915
ATOM     47  C   UNL d   1     -23.697   2.053   7.145 -0.02 +0.00    +0.004    38.915
ATOM     48  C   UNL d   1     -23.883   1.824   8.447 -0.02 +0.00    +0.012    38.915
TER
ENDMDL
MODEL       41
USER    Run = 41
USER    Cluster Rank = 21
USER    Number of conformations in this cluster = 2
USER  
USER    RMSD from reference structure       = 32.337 A
USER  
USER    Estimated Free Energy of Binding    =   -4.15 kcal/mol  [=(1)+(2)+(3)-(4)]
USER    Estimated Inhibition Constant, Ki   =  908.52 uM (micromolar)  [Temperature = 298.15 K]
USER    
USER    (1) Final Intermolecular Energy     =   -7.73 kcal/mol
USER        vdW + Hbond + desolv Energy     =   -5.70 kcal/mol
USER        Electrostatic Energy            =   -2.03 kcal/mol
USER    (2) Final Total Internal Energy     =   -2.28 kcal/mol
USER    (3) Torsional Free Energy           =   +3.58 kcal/mol
USER    (4) Unbound System's Energy  [=(2)] =   -2.28 kcal/mol
USER    
USER    
USER  
USER    DPF = D:/Protein_go_brrr/autodock/final/mut_Y35F/heme_Co/dock.dpf
USER    NEWDPF move	heme_Co_opt.pdbqt
USER    NEWDPF about	8.781000 34.984000 -0.736000
USER    NEWDPF tran0	8.872866 2.599670 12.986832
USER    NEWDPF axisangle0	-0.406090 0.158038 0.900064 125.087722
USER    NEWDPF quaternion0	-0.360350 0.140238 0.798684 0.461069
USER    NEWDPF dihe0	180.00 120.87 -30.60 33.02 87.19 128.32 40.91 -45.50 162.64 -161.14 -157.94 -21.34 
USER  
USER                              x       y       z    vdW   Elec        q     RMS 
ATOM      1  C   UNL d   1      10.399   4.045  13.532 -0.06 +0.04    +0.064    32.337
ATOM      2  C   UNL d   1       5.679   4.011  14.109 -0.17 +0.01    +0.064    32.337
ATOM      3  C   UNL d   1       5.366  -0.053  11.616 -0.22 -0.02    +0.064    32.337
ATOM      4  C   UNL d   1      10.220  -0.245  11.344 -0.10 +0.03    +0.064    32.337
ATOM      5  C   UNL d   1       9.129   4.353  13.842 -0.06 +0.03    +0.066    32.337
ATOM      6  C   UNL d   1       8.804   5.463  14.646 -0.04 -0.01    -0.021    32.337
ATOM      7  C   UNL d   1       7.435   5.435  14.829 -0.08 -0.00    -0.025    32.337
ATOM      8  C   UNL d   1       6.982   4.320  14.116 -0.09 +0.01    +0.066    32.337
ATOM      9  C   UNL d   1       6.573   6.413  15.642 -0.10 +0.01    +0.051    32.337
ATOM     10  C   UNL d   1       5.117   2.899  13.382 -0.14 +0.00    +0.066    32.337
ATOM     11  C   UNL d   1       3.746   2.604  13.220 -0.17 +0.00    -0.021    32.337
ATOM     12  C   UNL d   1       3.684   1.416  12.486 -0.22 -0.00    +0.000    32.337
ATOM     13  C   UNL d   1       5.017   1.083  12.244 -0.18 -0.01    +0.070    32.337
ATOM     14  C   UNL d   1       2.590   3.463  13.662 -0.36 -0.00    +0.052    32.337
ATOM     15  C   UNL d   1       6.688  -0.577  11.330 -0.20 -0.00    +0.066    32.337
ATOM     16  C   UNL d   1       6.981  -1.828  10.806 -0.27 +0.00    -0.021    32.337
ATOM     17  C   UNL d   1       8.380  -1.889  10.728 -0.21 +0.00    +0.000    32.337
ATOM     18  C   UNL d   1       8.830  -0.659  11.196 -0.14 +0.02    +0.070    32.337
ATOM     19  C   UNL d   1       5.964  -2.877  10.416 -0.06 -0.02    +0.052    32.337
ATOM     20  C   UNL d   1      10.683   0.911  11.877 -0.06 +0.04    +0.066    32.337
ATOM     21  C   UNL d   1      12.044   1.181  11.998 -0.09 -0.01    -0.025    32.337
ATOM     22  C   UNL d   1      12.126   2.424  12.599 -0.07 -0.01    -0.021    32.337
ATOM     23  C   UNL d   1      10.800   2.849  12.828 -0.05 +0.05    +0.066    32.337
ATOM     24  C   UNL d   1      13.211   0.290  11.580 -0.05 +0.02    +0.051    32.337
ATOM     25  N   UNL d   1       8.009   3.635  13.489 -0.05 -0.10    -0.248    32.337
ATOM     26  N   UNL d   1       5.880   2.010  12.738 -0.08 -0.02    -0.248    32.337
ATOM     27  N   UNL d   1       7.796   0.085  11.574 -0.10 -0.05    -0.248    32.337
ATOM     28  N   UNL d   1       9.924   1.935  12.394 -0.07 -0.19    -0.248    32.337
ATOM     29 FE   UNL d   1       7.900   1.755  12.474 -0.02 +0.00    +0.000    32.337
ATOM     30  C   UNL d   1       9.783   6.450  15.273 -0.02 +0.01    +0.052    32.337
ATOM     31  C   UNL d   1      10.516   5.806  16.449 -0.00 +0.02    +0.115    32.337
ATOM     32  C   UNL d   1       9.794   4.588  16.982 -0.00 +0.02    +0.139    32.337
ATOM     33  O   UNL d   1       8.947   4.723  17.852 +0.00 -0.05    -0.650    32.337
ATOM     34  O   UNL d   1      10.021   3.347  16.491 +0.01 -0.10    -0.776    32.337
ATOM     35  H   UNL d   1       9.622   2.540  16.845 +0.00 +0.01    +0.167    32.337
ATOM     36  C   UNL d   1       8.031   0.855  14.363 -0.02 +0.02    +0.190    32.337
ATOM     37  O   UNL d   1       8.512   1.055  15.661 +0.00 -0.02    -0.399    32.337
ATOM     38  H   UNL d   1       8.823   2.003  15.677 +0.01 +0.02    +0.209    32.337
ATOM     39  C   UNL d   1      13.412   3.129  12.989 -0.03 +0.02    +0.052    32.337
ATOM     40  C   UNL d   1      14.051   3.808  11.767 -0.03 +0.06    +0.115    32.337
ATOM     41  C   UNL d   1      13.142   3.904  10.559 +0.05 +0.17    +0.139    32.337
ATOM     42  O   UNL d   1      12.467   4.910  10.398 -0.11 -1.13    -0.650    32.337
ATOM     43  O   UNL d   1      13.122   2.945   9.607 -0.56 -0.99    -0.776    32.337
ATOM     44  H   UNL d   1      13.871   2.356   9.447 +0.02 +0.11    +0.167    32.337
ATOM     45  C   UNL d   1       2.525   0.573  11.972 -0.39 -0.00    +0.004    32.337
ATOM     46  C   UNL d   1       1.267   0.907  11.694 -0.58 -0.00    +0.012    32.337
ATOM     47  C   UNL d   1       9.264  -3.015  10.301 -0.21 +0.00    +0.004    32.337
ATOM     48  C   UNL d   1       9.293  -3.498   9.057 -0.37 +0.00    +0.012    32.337
TER
ENDMDL
MODEL        6
USER    Run = 6
USER    Cluster Rank = 22
USER    Number of conformations in this cluster = 1
USER  
USER    RMSD from reference structure       = 16.873 A
USER  
USER    Estimated Free Energy of Binding    =   -4.15 kcal/mol  [=(1)+(2)+(3)-(4)]
USER    Estimated Inhibition Constant, Ki   =  910.69 uM (micromolar)  [Temperature = 298.15 K]
USER    
USER    (1) Final Intermolecular Energy     =   -7.73 kcal/mol
USER        vdW + Hbond + desolv Energy     =   -6.28 kcal/mol
USER        Electrostatic Energy            =   -1.44 kcal/mol
USER    (2) Final Total Internal Energy     =   -2.19 kcal/mol
USER    (3) Torsional Free Energy           =   +3.58 kcal/mol
USER    (4) Unbound System's Energy  [=(2)] =   -2.19 kcal/mol
USER    
USER    
USER  
USER    DPF = D:/Protein_go_brrr/autodock/final/mut_Y35F/heme_Co/dock.dpf
USER    NEWDPF move	heme_Co_opt.pdbqt
USER    NEWDPF about	8.781000 34.984000 -0.736000
USER    NEWDPF tran0	10.258897 17.227860 8.324496
USER    NEWDPF axisangle0	0.443648 0.891937 0.087319 -132.443691
USER    NEWDPF quaternion0	0.405988 0.816224 0.079907 -0.403196
USER    NEWDPF dihe0	76.19 122.82 132.91 81.05 108.60 92.28 -159.44 -38.12 44.48 -153.82 -18.96 157.14 
USER  
USER                              x       y       z    vdW   Elec        q     RMS 
ATOM      1  C   UNL d   1      10.611  16.316  10.264 -0.17 +0.01    +0.064    16.873
ATOM      2  C   UNL d   1      11.285  14.747   5.826 -0.09 -0.01    +0.064    16.873
ATOM      3  C   UNL d   1       9.260  18.706   4.078 -0.19 -0.01    +0.064    16.873
ATOM      4  C   UNL d   1       8.910  20.501   8.586 -0.17 -0.01    +0.064    16.873
ATOM      5  C   UNL d   1      10.911  15.581   9.181 -0.22 +0.01    +0.066    16.873
ATOM      6  C   UNL d   1      11.596  14.354   9.277 -0.18 -0.00    -0.021    16.873
ATOM      7  C   UNL d   1      11.809  13.914   7.986 -0.13 -0.00    -0.025    16.873
ATOM      8  C   UNL d   1      11.231  14.882   7.157 -0.12 -0.00    +0.066    16.873
ATOM      9  C   UNL d   1      12.528  12.634   7.532 -0.10 +0.00    +0.051    16.873
ATOM     10  C   UNL d   1      10.697  15.678   4.896 -0.21 -0.01    +0.066    16.873
ATOM     11  C   UNL d   1      10.597  15.522   3.496 -0.22 +0.00    -0.021    16.873
ATOM     12  C   UNL d   1       9.999  16.689   3.012 -0.22 -0.00    +0.000    16.873
ATOM     13  C   UNL d   1       9.767  17.462   4.150 -0.21 -0.02    +0.070    16.873
ATOM     14  C   UNL d   1      10.966  14.293   2.706 -0.32 -0.01    +0.052    16.873
ATOM     15  C   UNL d   1       9.006  19.658   5.141 -0.08 -0.01    +0.066    16.873
ATOM     16  C   UNL d   1       8.616  20.981   4.985 -0.08 +0.00    -0.021    16.873
ATOM     17  C   UNL d   1       8.516  21.504   6.282 -0.11 -0.00    +0.000    16.873
ATOM     18  C   UNL d   1       8.838  20.450   7.131 -0.11 -0.01    +0.070    16.873
ATOM     19  C   UNL d   1       8.365  21.671   3.662 -0.09 -0.01    +0.052    16.873
ATOM     20  C   UNL d   1       9.304  19.515   9.427 -0.20 -0.01    +0.066    16.873
ATOM     21  C   UNL d   1       9.366  19.696  10.807 -0.14 +0.00    -0.025    16.873
ATOM     22  C   UNL d   1       9.826  18.496  11.319 -0.18 -0.00    -0.021    16.873
ATOM     23  C   UNL d   1      10.034  17.640  10.217 -0.18 +0.01    +0.066    16.873
ATOM     24  C   UNL d   1       9.024  20.956  11.598 -0.07 -0.00    +0.051    16.873
ATOM     25  N   UNL d   1      10.663  15.923   7.871 -0.16 +0.03    -0.248    16.873
ATOM     26  N   UNL d   1      10.138  16.826   5.293 -0.13 +0.07    -0.248    16.873
ATOM     27  N   UNL d   1       9.153  19.376   6.416 -0.15 +0.06    -0.248    16.873
ATOM     28  N   UNL d   1       9.721  18.254   9.069 -0.14 +0.03    -0.248    16.873
ATOM     29 FE   UNL d   1       9.862  17.753   7.104 -0.05 -0.00    +0.000    16.873
ATOM     30  C   UNL d   1      12.090  13.686  10.556 -0.14 +0.01    +0.052    16.873
ATOM     31  C   UNL d   1      10.911  13.278  11.439 -0.10 +0.07    +0.115    16.873
ATOM     32  C   UNL d   1      11.150  13.590  12.901 +0.02 +0.17    +0.139    16.873
ATOM     33  O   UNL d   1      11.148  14.753  13.276 -0.45 -0.97    -0.650    16.873
ATOM     34  O   UNL d   1      11.321  12.614  13.824 -0.17 -0.92    -0.776    16.873
ATOM     35  H   UNL d   1      12.113  12.064  13.893 +0.02 +0.11    +0.167    16.873
ATOM     36  C   UNL d   1      11.835  18.459   7.041 -0.05 -0.02    +0.190    16.873
ATOM     37  O   UNL d   1      12.939  18.754   7.848 -0.00 +0.02    -0.399    16.873
ATOM     38  H   UNL d   1      12.703  18.392   8.748 +0.02 -0.00    +0.209    16.873
ATOM     39  C   UNL d   1      10.109  18.216  12.783 -0.14 +0.02    +0.052    16.873
ATOM     40  C   UNL d   1      11.619  18.289  13.067 -0.06 +0.03    +0.115    16.873
ATOM     41  C   UNL d   1      12.411  19.069  12.039 -0.02 +0.01    +0.139    16.873
ATOM     42  O   UNL d   1      12.733  20.224  12.282 +0.01 -0.03    -0.650    16.873
ATOM     43  O   UNL d   1      12.848  18.497  10.895 +0.03 -0.05    -0.776    16.873
ATOM     44  H   UNL d   1      12.821  18.953  10.044 +0.01 +0.00    +0.167    16.873
ATOM     45  C   UNL d   1       9.604  17.152   1.616 -0.25 -0.00    +0.004    16.873
ATOM     46  C   UNL d   1       8.614  16.756   0.820 -0.38 -0.00    +0.012    16.873
ATOM     47  C   UNL d   1       8.197  22.893   6.729 -0.10 -0.00    +0.004    16.873
ATOM     48  C   UNL d   1       6.953  23.339   6.916 -0.11 -0.00    +0.012    16.873
TER
ENDMDL
MODEL       60
USER    Run = 60
USER    Cluster Rank = 23
USER    Number of conformations in this cluster = 6
USER  
USER    RMSD from reference structure       = 21.752 A
USER  
USER    Estimated Free Energy of Binding    =   -4.09 kcal/mol  [=(1)+(2)+(3)-(4)]
USER    Estimated Inhibition Constant, Ki   =    1.01 mM (millimolar)  [Temperature = 298.15 K]
USER    
USER    (1) Final Intermolecular Energy     =   -7.67 kcal/mol
USER        vdW + Hbond + desolv Energy     =   -7.25 kcal/mol
USER        Electrostatic Energy            =   -0.42 kcal/mol
USER    (2) Final Total Internal Energy     =   -2.34 kcal/mol
USER    (3) Torsional Free Energy           =   +3.58 kcal/mol
USER    (4) Unbound System's Energy  [=(2)] =   -2.34 kcal/mol
USER    
USER    
USER  
USER    DPF = D:/Protein_go_brrr/autodock/final/mut_Y35F/heme_Co/dock.dpf
USER    NEWDPF move	heme_Co_opt.pdbqt
USER    NEWDPF about	8.781000 34.984000 -0.736000
USER    NEWDPF tran0	9.150171 14.874038 -10.540681
USER    NEWDPF axisangle0	0.786250 -0.510871 0.347593 74.326097
USER    NEWDPF quaternion0	0.474962 -0.308610 0.209976 0.796920
USER    NEWDPF dihe0	31.60 125.26 179.95 94.97 93.64 94.27 24.74 33.64 5.25 -59.03 5.62 17.97 
USER  
USER                              x       y       z    vdW   Elec        q     RMS 
ATOM      1  C   UNL d   1       7.187  15.785 -10.722 -0.11 +0.01    +0.064    21.752
ATOM      2  C   UNL d   1      10.567  16.113  -7.393 -0.19 -0.00    +0.064    21.752
ATOM      3  C   UNL d   1      13.169  12.806  -9.656 -0.18 -0.02    +0.064    21.752
ATOM      4  C   UNL d   1       9.913  12.734 -13.269 -0.01 -0.00    +0.064    21.752
ATOM      5  C   UNL d   1       7.903  16.091  -9.627 -0.20 +0.01    +0.066    21.752
ATOM      6  C   UNL d   1       7.498  17.096  -8.726 -0.20 -0.00    -0.021    21.752
ATOM      7  C   UNL d   1       8.494  17.202  -7.775 -0.20 -0.00    -0.025    21.752
ATOM      8  C   UNL d   1       9.455  16.248  -8.126 -0.23 +0.00    +0.066    21.752
ATOM      9  C   UNL d   1       8.553  18.161  -6.576 -0.13 +0.01    +0.051    21.752
ATOM     10  C   UNL d   1      11.598  15.142  -7.662 -0.22 -0.01    +0.066    21.752
ATOM     11  C   UNL d   1      12.719  14.855  -6.853 -0.28 +0.01    -0.021    21.752
ATOM     12  C   UNL d   1      13.459  13.885  -7.535 -0.26 -0.00    +0.000    21.752
ATOM     13  C   UNL d   1      12.730  13.643  -8.700 -0.22 -0.01    +0.070    21.752
ATOM     14  C   UNL d   1      12.994  15.413  -5.480 -0.14 -0.04    +0.052    21.752
ATOM     15  C   UNL d   1      12.574  12.480 -10.937 -0.17 -0.02    +0.066    21.752
ATOM     16  C   UNL d   1      13.152  11.718 -11.943 -0.19 +0.01    -0.021    21.752
ATOM     17  C   UNL d   1      12.217  11.697 -12.988 -0.18 -0.00    +0.000    21.752
ATOM     18  C   UNL d   1      11.132  12.436 -12.529 -0.17 -0.01    +0.070    21.752
ATOM     19  C   UNL d   1      14.516  11.067 -11.877 -0.29 -0.02    +0.052    21.752
ATOM     20  C   UNL d   1       8.882  13.521 -12.877 -0.19 +0.00    +0.066    21.752
ATOM     21  C   UNL d   1       7.779  13.762 -13.692 -0.19 -0.00    -0.025    21.752
ATOM     22  C   UNL d   1       6.962  14.616 -12.972 -0.20 -0.00    -0.021    21.752
ATOM     23  C   UNL d   1       7.619  14.865 -11.749 -0.21 +0.00    +0.066    21.752
ATOM     24  C   UNL d   1       7.523  13.223 -15.097 -0.13 -0.00    +0.051    21.752
ATOM     25  N   UNL d   1       9.112  15.541  -9.266 -0.16 -0.01    -0.248    21.752
ATOM     26  N   UNL d   1      11.577  14.362  -8.748 -0.15 +0.04    -0.248    21.752
ATOM     27  N   UNL d   1      11.392  12.912 -11.316 -0.16 +0.04    -0.248    21.752
ATOM     28  N   UNL d   1       8.783  14.206 -11.688 -0.18 +0.00    -0.248    21.752
ATOM     29 FE   UNL d   1      10.317  14.148 -10.355 -0.05 -0.00    +0.000    21.752
ATOM     30  C   UNL d   1       6.248  17.963  -8.833 -0.16 +0.01    +0.052    21.752
ATOM     31  C   UNL d   1       5.071  17.298  -8.121 -0.19 +0.06    +0.115    21.752
ATOM     32  C   UNL d   1       3.787  18.085  -8.270 -0.11 +0.05    +0.139    21.752
ATOM     33  O   UNL d   1       3.367  18.735  -7.324 -0.08 -0.38    -0.650    21.752
ATOM     34  O   UNL d   1       3.106  18.134  -9.439 +0.06 -0.10    -0.776    21.752
ATOM     35  H   UNL d   1       3.126  17.436 -10.108 +0.04 +0.02    +0.167    21.752
ATOM     36  C   UNL d   1      11.208  15.809 -11.273 -0.03 -0.01    +0.190    21.752
ATOM     37  O   UNL d   1      10.931  16.923 -12.072 +0.00 +0.02    -0.399    21.752
ATOM     38  H   UNL d   1       9.935  16.991 -12.080 +0.02 -0.01    +0.209    21.752
ATOM     39  C   UNL d   1       5.655  15.208 -13.466 -0.15 +0.00    +0.052    21.752
ATOM     40  C   UNL d   1       4.489  14.776 -12.562 -0.22 +0.01    +0.115    21.752
ATOM     41  C   UNL d   1       3.823  15.913 -11.815 -0.17 +0.01    +0.139    21.752
ATOM     42  O   UNL d   1       2.794  15.698 -11.191 -0.05 -0.03    -0.650    21.752
ATOM     43  O   UNL d   1       4.382  17.141 -11.747 +0.05 -0.04    -0.776    21.752
ATOM     44  H   UNL d   1       4.016  17.849 -11.201 +0.03 +0.01    +0.167    21.752
ATOM     45  C   UNL d   1      14.752  13.149  -7.213 -0.28 -0.00    +0.004    21.752
ATOM     46  C   UNL d   1      14.965  12.036  -6.515 -0.45 -0.00    +0.012    21.752
ATOM     47  C   UNL d   1      12.320  11.085 -14.347 -0.14 -0.00    +0.004    21.752
ATOM     48  C   UNL d   1      12.282   9.769 -14.567 -0.21 -0.00    +0.012    21.752
TER
ENDMDL
MODEL       81
USER    Run = 81
USER    Cluster Rank = 24
USER    Number of conformations in this cluster = 1
USER  
USER    RMSD from reference structure       = 23.110 A
USER  
USER    Estimated Free Energy of Binding    =   -4.06 kcal/mol  [=(1)+(2)+(3)-(4)]
USER    Estimated Inhibition Constant, Ki   =    1.06 mM (millimolar)  [Temperature = 298.15 K]
USER    
USER    (1) Final Intermolecular Energy     =   -7.64 kcal/mol
USER        vdW + Hbond + desolv Energy     =   -4.80 kcal/mol
USER        Electrostatic Energy            =   -2.84 kcal/mol
USER    (2) Final Total Internal Energy     =   -3.98 kcal/mol
USER    (3) Torsional Free Energy           =   +3.58 kcal/mol
USER    (4) Unbound System's Energy  [=(2)] =   -3.98 kcal/mol
USER    
USER    
USER  
USER    DPF = D:/Protein_go_brrr/autodock/final/mut_Y35F/heme_Co/dock.dpf
USER    NEWDPF move	heme_Co_opt.pdbqt
USER    NEWDPF about	8.781000 34.984000 -0.736000
USER    NEWDPF tran0	12.140660 10.809001 10.631100
USER    NEWDPF axisangle0	0.487079 -0.731008 -0.477893 152.505281
USER    NEWDPF quaternion0	0.473125 -0.710066 -0.464203 0.237641
USER    NEWDPF dihe0	119.12 89.00 -34.40 127.80 121.26 121.14 -128.95 -28.96 -123.57 -160.40 -177.09 163.18 
USER  
USER                              x       y       z    vdW   Elec        q     RMS 
ATOM      1  C   UNL d   1      12.632  10.991  12.738 -0.03 +0.02    +0.064    23.110
ATOM      2  C   UNL d   1      14.073  13.402   8.902 -0.03 +0.01    +0.064    23.110
ATOM      3  C   UNL d   1      11.628  10.431   6.070 -0.09 +0.01    +0.064    23.110
ATOM      4  C   UNL d   1       9.833   8.187   9.995 -0.06 +0.04    +0.064    23.110
ATOM      5  C   UNL d   1      13.234  11.846  11.896 -0.03 +0.02    +0.066    23.110
ATOM      6  C   UNL d   1      14.002  12.934  12.357 -0.01 -0.01    -0.021    23.110
ATOM      7  C   UNL d   1      14.399  13.643  11.240 -0.01 -0.00    -0.025    23.110
ATOM      8  C   UNL d   1      13.870  12.950  10.146 -0.02 +0.01    +0.066    23.110
ATOM      9  C   UNL d   1      15.242  14.926  11.189 -0.00 +0.01    +0.051    23.110
ATOM     10  C   UNL d   1      13.591  12.742   7.714 -0.04 +0.01    +0.066    23.110
ATOM     11  C   UNL d   1      13.887  13.088   6.378 -0.04 -0.00    -0.021    23.110
ATOM     12  C   UNL d   1      13.165  12.203   5.573 -0.09 +0.00    +0.000    23.110
ATOM     13  C   UNL d   1      12.493  11.377   6.475 -0.08 +0.01    +0.070    23.110
ATOM     14  C   UNL d   1      14.872  14.135   5.924 -0.02 +0.00    +0.052    23.110
ATOM     15  C   UNL d   1      10.814   9.529   6.861 -0.14 +0.01    +0.066    23.110
ATOM     16  C   UNL d   1       9.832   8.673   6.383 -0.20 -0.00    -0.021    23.110
ATOM     17  C   UNL d   1       9.310   8.026   7.512 -0.25 +0.00    +0.000    23.110
ATOM     18  C   UNL d   1      10.029   8.527   8.591 -0.17 +0.03    +0.070    23.110
ATOM     19  C   UNL d   1       9.442   8.510   4.931 -0.30 +0.01    +0.052    23.110
ATOM     20  C   UNL d   1      10.460   8.725  11.069 -0.11 +0.03    +0.066    23.110
ATOM     21  C   UNL d   1      10.160   8.341  12.374 -0.11 -0.01    -0.025    23.110
ATOM     22  C   UNL d   1      10.973   9.112  13.185 -0.06 -0.01    -0.021    23.110
ATOM     23  C   UNL d   1      11.725   9.943  12.328 -0.05 +0.02    +0.066    23.110
ATOM     24  C   UNL d   1       9.136   7.305  12.828 -0.13 +0.02    +0.051    23.110
ATOM     25  N   UNL d   1      13.150  11.829  10.522 -0.02 -0.05    -0.248    23.110
ATOM     26  N   UNL d   1      12.796  11.669   7.768 -0.04 -0.03    -0.248    23.110
ATOM     27  N   UNL d   1      10.895   9.442   8.170 -0.10 -0.07    -0.248    23.110
ATOM     28  N   UNL d   1      11.416   9.714  11.046 -0.05 -0.09    -0.248    23.110
ATOM     29 FE   UNL d   1      11.955  10.563   9.279 -0.02 +0.00    +0.000    23.110
ATOM     30  C   UNL d   1      14.266  13.309  13.811 -0.01 +0.01    +0.052    23.110
ATOM     31  C   UNL d   1      13.229  14.320  14.301 -0.04 +0.06    +0.115    23.110
ATOM     32  C   UNL d   1      11.810  13.834  14.100 +0.06 +0.17    +0.139    23.110
ATOM     33  O   UNL d   1      11.189  13.380  15.050 -0.03 -1.25    -0.650    23.110
ATOM     34  O   UNL d   1      11.181  13.931  12.905 -0.34 -0.96    -0.776    23.110
ATOM     35  H   UNL d   1      10.903  13.172  12.374 +0.02 +0.16    +0.167    23.110
ATOM     36  C   UNL d   1      10.435  11.993   9.477 -0.16 +0.05    +0.190    23.110
ATOM     37  O   UNL d   1       9.888  12.922  10.368 -0.18 -0.16    -0.399    23.110
ATOM     38  H   UNL d   1      10.147  12.592  11.273 +0.06 +0.12    +0.209    23.110
ATOM     39  C   UNL d   1      10.973   9.093  14.702 -0.03 +0.02    +0.052    23.110
ATOM     40  C   UNL d   1      10.075  10.210  15.260 -0.07 +0.06    +0.115    23.110
ATOM     41  C   UNL d   1       9.153  10.839  14.236 -0.15 +0.13    +0.139    23.110
ATOM     42  O   UNL d   1       7.952  10.621  14.298 -0.21 -0.48    -0.650    23.110
ATOM     43  O   UNL d   1       9.611  11.708  13.307 -0.16 -0.99    -0.776    23.110
ATOM     44  H   UNL d   1      10.386  12.266  13.455 +0.02 +0.24    +0.167    23.110
ATOM     45  C   UNL d   1      13.047  12.031   4.064 -0.22 -0.00    +0.004    23.110
ATOM     46  C   UNL d   1      13.344  10.994   3.285 -0.34 -0.00    +0.012    23.110
ATOM     47  C   UNL d   1       8.188   7.045   7.615 -0.36 +0.00    +0.004    23.110
ATOM     48  C   UNL d   1       8.369   5.725   7.709 -0.30 +0.01    +0.012    23.110
TER
ENDMDL
MODEL       76
USER    Run = 76
USER    Cluster Rank = 25
USER    Number of conformations in this cluster = 1
USER  
USER    RMSD from reference structure       = 22.296 A
USER  
USER    Estimated Free Energy of Binding    =   -3.99 kcal/mol  [=(1)+(2)+(3)-(4)]
USER    Estimated Inhibition Constant, Ki   =    1.19 mM (millimolar)  [Temperature = 298.15 K]
USER    
USER    (1) Final Intermolecular Energy     =   -7.57 kcal/mol
USER        vdW + Hbond + desolv Energy     =   -6.49 kcal/mol
USER        Electrostatic Energy            =   -1.08 kcal/mol
USER    (2) Final Total Internal Energy     =   -0.66 kcal/mol
USER    (3) Torsional Free Energy           =   +3.58 kcal/mol
USER    (4) Unbound System's Energy  [=(2)] =   -0.66 kcal/mol
USER    
USER    
USER  
USER    DPF = D:/Protein_go_brrr/autodock/final/mut_Y35F/heme_Co/dock.dpf
USER    NEWDPF move	heme_Co_opt.pdbqt
USER    NEWDPF about	8.781000 34.984000 -0.736000
USER    NEWDPF tran0	1.379638 15.006657 -10.238765
USER    NEWDPF axisangle0	-0.378440 0.893327 0.242383 -170.829666
USER    NEWDPF quaternion0	-0.377229 0.890468 0.241607 -0.079941
USER    NEWDPF dihe0	-121.95 97.29 62.06 119.26 115.56 165.73 70.10 -180.00 -56.50 61.27 -31.59 -178.61 
USER  
USER                              x       y       z    vdW   Elec        q     RMS 
ATOM      1  C   UNL d   1       2.419  16.114  -8.686 -0.22 +0.01    +0.064    22.296
ATOM      2  C   UNL d   1       3.275  15.556 -13.330 -0.13 +0.00    +0.064    22.296
ATOM      3  C   UNL d   1      -0.344  12.455 -13.664 -0.11 -0.00    +0.064    22.296
ATOM      4  C   UNL d   1      -1.480  13.300  -9.010 -0.21 -0.01    +0.064    22.296
ATOM      5  C   UNL d   1       2.941  16.162  -9.923 -0.18 +0.01    +0.066    22.296
ATOM      6  C   UNL d   1       3.998  17.031 -10.254 -0.14 -0.00    -0.021    22.296
ATOM      7  C   UNL d   1       4.227  16.882 -11.608 -0.11 -0.00    -0.025    22.296
ATOM      8  C   UNL d   1       3.312  15.917 -12.041 -0.16 +0.00    +0.066    22.296
ATOM      9  C   UNL d   1       5.264  17.614 -12.474 -0.05 +0.00    +0.051    22.296
ATOM     10  C   UNL d   1       2.386  14.554 -13.863 -0.12 -0.00    +0.066    22.296
ATOM     11  C   UNL d   1       2.393  14.031 -15.174 -0.08 +0.00    -0.021    22.296
ATOM     12  C   UNL d   1       1.330  13.126 -15.243 -0.10 -0.00    +0.000    22.296
ATOM     13  C   UNL d   1       0.763  13.154 -13.968 -0.12 -0.00    +0.070    22.296
ATOM     14  C   UNL d   1       3.415  14.319 -16.244 -0.04 -0.00    +0.052    22.296
ATOM     15  C   UNL d   1      -1.090  12.408 -12.421 -0.05 -0.00    +0.066    22.296
ATOM     16  C   UNL d   1      -2.309  11.778 -12.216 -0.14 +0.00    -0.021    22.296
ATOM     17  C   UNL d   1      -2.642  12.021 -10.876 -0.16 -0.00    +0.000    22.296
ATOM     18  C   UNL d   1      -1.587  12.768 -10.363 -0.16 -0.01    +0.070    22.296
ATOM     19  C   UNL d   1      -3.081  11.001 -13.259 -0.08 -0.00    +0.052    22.296
ATOM     20  C   UNL d   1      -0.507  14.101  -8.513 -0.22 -0.02    +0.066    22.296
ATOM     21  C   UNL d   1      -0.533  14.578  -7.205 -0.25 +0.01    -0.025    22.296
ATOM     22  C   UNL d   1       0.594  15.369  -7.074 -0.25 +0.01    -0.021    22.296
ATOM     23  C   UNL d   1       1.250  15.344  -8.323 -0.19 -0.00    +0.066    22.296
ATOM     24  C   UNL d   1      -1.590  14.311  -6.136 -0.21 -0.05    +0.051    22.296
ATOM     25  N   UNL d   1       2.507  15.448 -11.017 -0.18 -0.01    -0.248    22.296
ATOM     26  N   UNL d   1       1.437  13.975 -13.119 -0.10 +0.00    -0.248    22.296
ATOM     27  N   UNL d   1      -0.696  13.005 -11.319 -0.11 +0.02    -0.248    22.296
ATOM     28  N   UNL d   1       0.586  14.580  -9.197 -0.17 +0.03    -0.248    22.296
ATOM     29 FE   UNL d   1       0.810  14.155 -11.173 -0.06 -0.00    +0.000    22.296
ATOM     30  C   UNL d   1       4.693  18.016  -9.319 -0.12 +0.01    +0.052    22.296
ATOM     31  C   UNL d   1       5.173  17.308  -8.053 -0.20 +0.06    +0.115    22.296
ATOM     32  C   UNL d   1       6.668  17.439  -7.850 -0.17 +0.07    +0.139    22.296
ATOM     33  O   UNL d   1       7.430  17.012  -8.705 -0.01 -0.14    -0.650    22.296
ATOM     34  O   UNL d   1       7.193  18.060  -6.769 -0.51 -0.55    -0.776    22.296
ATOM     35  H   UNL d   1       7.833  18.784  -6.815 +0.03 +0.06    +0.167    22.296
ATOM     36  C   UNL d   1      -0.299  15.857 -11.689 -0.06 -0.01    +0.190    22.296
ATOM     37  O   UNL d   1      -0.172  17.203 -12.048 -0.00 +0.02    -0.399    22.296
ATOM     38  H   UNL d   1       0.761  17.449 -11.793 +0.02 -0.01    +0.209    22.296
ATOM     39  C   UNL d   1       0.978  16.155  -5.834 -0.20 -0.01    +0.052    22.296
ATOM     40  C   UNL d   1       0.131  17.433  -5.717 -0.10 -0.04    +0.115    22.296
ATOM     41  C   UNL d   1       0.938  18.710  -5.617 -0.09 +0.02    +0.139    22.296
ATOM     42  O   UNL d   1       1.936  18.733  -4.910 -0.46 -0.49    -0.650    22.296
ATOM     43  O   UNL d   1       0.637  19.801  -6.355 +0.03 -0.03    -0.776    22.296
ATOM     44  H   UNL d   1      -0.166  20.319  -6.212 +0.01 -0.01    +0.167    22.296
ATOM     45  C   UNL d   1       0.800  12.229 -16.353 -0.06 -0.00    +0.004    22.296
ATOM     46  C   UNL d   1       0.815  10.905 -16.479 -0.07 -0.00    +0.012    22.296
ATOM     47  C   UNL d   1      -3.869  11.642 -10.114 -0.17 -0.00    +0.004    22.296
ATOM     48  C   UNL d   1      -3.968  10.531  -9.379 -0.29 -0.00    +0.012    22.296
TER
ENDMDL
MODEL       24
USER    Run = 24
USER    Cluster Rank = 26
USER    Number of conformations in this cluster = 2
USER  
USER    RMSD from reference structure       = 45.710 A
USER  
USER    Estimated Free Energy of Binding    =   -3.93 kcal/mol  [=(1)+(2)+(3)-(4)]
USER    Estimated Inhibition Constant, Ki   =    1.31 mM (millimolar)  [Temperature = 298.15 K]
USER    
USER    (1) Final Intermolecular Energy     =   -7.51 kcal/mol
USER        vdW + Hbond + desolv Energy     =   -6.72 kcal/mol
USER        Electrostatic Energy            =   -0.79 kcal/mol
USER    (2) Final Total Internal Energy     =   -2.21 kcal/mol
USER    (3) Torsional Free Energy           =   +3.58 kcal/mol
USER    (4) Unbound System's Energy  [=(2)] =   -2.21 kcal/mol
USER    
USER    
USER  
USER    DPF = D:/Protein_go_brrr/autodock/final/mut_Y35F/heme_Co/dock.dpf
USER    NEWDPF move	heme_Co_opt.pdbqt
USER    NEWDPF about	8.781000 34.984000 -0.736000
USER    NEWDPF tran0	-1.791548 -9.182111 -13.758362
USER    NEWDPF axisangle0	-0.296019 -0.821801 0.486842 -140.978840
USER    NEWDPF quaternion0	-0.279021 -0.774614 0.458888 -0.333981
USER    NEWDPF dihe0	156.82 108.49 53.92 -27.46 -89.73 149.53 -128.82 -80.46 -135.33 72.11 180.00 -16.46 
USER  
USER                              x       y       z    vdW   Elec        q     RMS 
ATOM      1  C   UNL d   1       0.131  -9.955 -14.409 -0.17 +0.00    +0.064    45.710
ATOM      2  C   UNL d   1      -3.875 -12.109 -13.022 -0.28 -0.01    +0.064    45.710
ATOM      3  C   UNL d   1      -5.827  -7.879 -11.960 -0.20 -0.01    +0.064    45.710
ATOM      4  C   UNL d   1      -1.892  -5.634 -13.732 -0.12 +0.00    +0.064    45.710
ATOM      5  C   UNL d   1      -0.807 -10.856 -14.074 -0.21 -0.00    +0.066    45.710
ATOM      6  C   UNL d   1      -0.635 -12.235 -14.307 -0.19 +0.00    -0.021    45.710
ATOM      7  C   UNL d   1      -1.809 -12.853 -13.924 -0.19 +0.00    -0.025    45.710
ATOM      8  C   UNL d   1      -2.641 -11.828 -13.459 -0.22 -0.01    +0.066    45.710
ATOM      9  C   UNL d   1      -2.151 -14.349 -13.988 -0.15 +0.01    +0.051    45.710
ATOM     10  C   UNL d   1      -4.791 -11.125 -12.502 -0.26 -0.01    +0.066    45.710
ATOM     11  C   UNL d   1      -6.043 -11.374 -11.899 -0.33 +0.00    -0.021    45.710
ATOM     12  C   UNL d   1      -6.589 -10.123 -11.596 -0.34 -0.00    +0.000    45.710
ATOM     13  C   UNL d   1      -5.626  -9.208 -12.022 -0.20 -0.01    +0.070    45.710
ATOM     14  C   UNL d   1      -6.617 -12.725 -11.560 -0.16 -0.02    +0.052    45.710
ATOM     15  C   UNL d   1      -4.967  -6.798 -12.401 -0.16 -0.00    +0.066    45.710
ATOM     16  C   UNL d   1      -5.295  -5.450 -12.441 -0.17 +0.00    -0.021    45.710
ATOM     17  C   UNL d   1      -4.165  -4.799 -12.953 -0.14 +0.00    +0.000    45.710
ATOM     18  C   UNL d   1      -3.227  -5.802 -13.170 -0.14 +0.00    +0.070    45.710
ATOM     19  C   UNL d   1      -6.618  -4.857 -12.009 -0.10 +0.00    +0.052    45.710
ATOM     20  C   UNL d   1      -0.995  -6.603 -14.032 -0.12 +0.00    +0.066    45.710
ATOM     21  C   UNL d   1       0.243  -6.320 -14.603 -0.10 -0.00    -0.025    45.710
ATOM     22  C   UNL d   1       0.860  -7.544 -14.783 -0.14 -0.00    -0.021    45.710
ATOM     23  C   UNL d   1      -0.045  -8.523 -14.320 -0.18 +0.00    +0.066    45.710
ATOM     24  C   UNL d   1       0.805  -4.950 -14.978 -0.08 +0.01    +0.051    45.710
ATOM     25  N   UNL d   1      -2.043 -10.581 -13.535 -0.15 +0.02    -0.248    45.710
ATOM     26  N   UNL d   1      -4.516  -9.817 -12.518 -0.10 +0.02    -0.248    45.710
ATOM     27  N   UNL d   1      -3.750  -6.983 -12.859 -0.09 -0.00    -0.248    45.710
ATOM     28  N   UNL d   1      -1.170  -7.958 -13.867 -0.10 -0.01    -0.248    45.710
ATOM     29 FE   UNL d   1      -2.944  -8.674 -13.178 -0.05 -0.00    +0.000    45.710
ATOM     30  C   UNL d   1       0.576 -12.905 -14.946 -0.14 -0.00    +0.052    45.710
ATOM     31  C   UNL d   1       0.343 -13.125 -16.440 -0.02 +0.00    +0.115    45.710
ATOM     32  C   UNL d   1      -0.301 -11.928 -17.106 -0.01 +0.00    +0.139    45.710
ATOM     33  O   UNL d   1       0.389 -11.163 -17.764 +0.02 -0.01    -0.650    45.710
ATOM     34  O   UNL d   1      -1.633 -11.699 -17.039 +0.03 -0.01    -0.776    45.710
ATOM     35  H   UNL d   1      -2.038 -10.823 -17.096 +0.01 +0.00    +0.167    45.710
ATOM     36  C   UNL d   1      -3.687  -8.784 -15.135 -0.02 -0.00    +0.190    45.710
ATOM     37  O   UNL d   1      -3.648  -9.557 -16.300 +0.00 -0.00    -0.399    45.710
ATOM     38  H   UNL d   1      -2.979 -10.273 -16.110 +0.02 +0.00    +0.209    45.710
ATOM     39  C   UNL d   1       2.218  -7.759 -15.425 -0.14 +0.01    +0.052    45.710
ATOM     40  C   UNL d   1       3.342  -7.588 -14.389 -0.11 +0.04    +0.115    45.710
ATOM     41  C   UNL d   1       4.238  -6.391 -14.631 -0.06 +0.09    +0.139    45.710
ATOM     42  O   UNL d   1       3.743  -5.274 -14.684 -0.32 -0.55    -0.650    45.710
ATOM     43  O   UNL d   1       5.582  -6.514 -14.704 -0.21 -0.40    -0.776    45.710
ATOM     44  H   UNL d   1       6.018  -7.063 -15.367 +0.03 +0.04    +0.167    45.710
ATOM     45  C   UNL d   1      -7.893  -9.691 -10.938 -0.36 -0.00    +0.004    45.710
ATOM     46  C   UNL d   1      -9.114 -10.215 -11.010 -0.47 -0.00    +0.012    45.710
ATOM     47  C   UNL d   1      -3.961  -3.355 -13.277 -0.07 +0.00    +0.004    45.710
ATOM     48  C   UNL d   1      -3.825  -2.891 -14.522 -0.06 +0.00    +0.012    45.710
TER
ENDMDL
MODEL       92
USER    Run = 92
USER    Cluster Rank = 27
USER    Number of conformations in this cluster = 2
USER  
USER    RMSD from reference structure       = 23.461 A
USER  
USER    Estimated Free Energy of Binding    =   -3.90 kcal/mol  [=(1)+(2)+(3)-(4)]
USER    Estimated Inhibition Constant, Ki   =    1.39 mM (millimolar)  [Temperature = 298.15 K]
USER    
USER    (1) Final Intermolecular Energy     =   -7.48 kcal/mol
USER        vdW + Hbond + desolv Energy     =   -7.76 kcal/mol
USER        Electrostatic Energy            =   +0.28 kcal/mol
USER    (2) Final Total Internal Energy     =   -2.18 kcal/mol
USER    (3) Torsional Free Energy           =   +3.58 kcal/mol
USER    (4) Unbound System's Energy  [=(2)] =   -2.18 kcal/mol
USER    
USER    
USER  
USER    DPF = D:/Protein_go_brrr/autodock/final/mut_Y35F/heme_Co/dock.dpf
USER    NEWDPF move	heme_Co_opt.pdbqt
USER    NEWDPF about	8.781000 34.984000 -0.736000
USER    NEWDPF tran0	10.735101 13.594978 -10.876669
USER    NEWDPF axisangle0	-0.390210 -0.903839 -0.175532 -161.359060
USER    NEWDPF quaternion0	-0.385059 -0.891906 -0.173215 -0.161956
USER    NEWDPF dihe0	61.46 142.05 125.72 115.79 -95.79 80.65 -152.94 -40.92 116.12 -146.23 54.14 150.76 
USER  
USER                              x       y       z    vdW   Elec        q     RMS 
ATOM      1  C   UNL d   1      12.498  12.327 -10.847 -0.16 -0.02    +0.064    23.461
ATOM      2  C   UNL d   1       9.121  13.029 -14.121 -0.13 -0.00    +0.064    23.461
ATOM      3  C   UNL d   1       6.725  15.849 -11.098 -0.06 +0.01    +0.064    23.461
ATOM      4  C   UNL d   1      10.351  15.457  -7.879 -0.23 -0.00    +0.064    23.461
ATOM      5  C   UNL d   1      11.733  12.283 -11.951 -0.21 -0.01    +0.066    23.461
ATOM      6  C   UNL d   1      12.138  11.599 -13.114 -0.17 +0.00    -0.021    23.461
ATOM      7  C   UNL d   1      11.165  11.825 -14.068 -0.12 +0.00    -0.025    23.461
ATOM      8  C   UNL d   1      10.201  12.623 -13.442 -0.02 -0.00    +0.066    23.461
ATOM      9  C   UNL d   1      11.131  11.318 -15.518 -0.08 -0.00    +0.051    23.461
ATOM     10  C   UNL d   1       8.064  13.829 -13.553 -0.17 +0.00    +0.066    23.461
ATOM     11  C   UNL d   1       6.841  14.170 -14.169 -0.14 -0.00    -0.021    23.461
ATOM     12  C   UNL d   1       6.160  14.989 -13.264 -0.16 +0.00    +0.000    23.461
ATOM     13  C   UNL d   1       7.010  15.077 -12.161 -0.19 +0.00    +0.070    23.461
ATOM     14  C   UNL d   1       6.335  13.658 -15.493 -0.09 -0.00    +0.052    23.461
ATOM     15  C   UNL d   1       7.508  16.096  -9.904 -0.15 +0.01    +0.066    23.461
ATOM     16  C   UNL d   1       7.222  17.019  -8.908 -0.20 -0.00    -0.021    23.461
ATOM     17  C   UNL d   1       8.267  16.912  -7.978 -0.25 +0.00    +0.000    23.461
ATOM     18  C   UNL d   1       9.101  15.916  -8.474 -0.26 +0.01    +0.070    23.461
ATOM     19  C   UNL d   1       6.017  17.933  -8.879 -0.16 +0.01    +0.052    23.461
ATOM     20  C   UNL d   1      11.222  14.553  -8.386 -0.28 -0.01    +0.066    23.461
ATOM     21  C   UNL d   1      12.410  14.221  -7.738 -0.28 +0.00    -0.025    23.461
ATOM     22  C   UNL d   1      13.036  13.298  -8.556 -0.24 +0.01    -0.021    23.461
ATOM     23  C   UNL d   1      12.198  13.121  -9.678 -0.24 -0.02    +0.066    23.461
ATOM     24  C   UNL d   1      12.933  14.769  -6.413 -0.30 -0.02    +0.051    23.461
ATOM     25  N   UNL d   1      10.524  12.916 -12.128 -0.15 +0.02    -0.248    23.461
ATOM     26  N   UNL d   1       8.136  14.329 -12.315 -0.16 -0.01    -0.248    23.461
ATOM     27  N   UNL d   1       8.635  15.474  -9.637 -0.16 -0.02    -0.248    23.461
ATOM     28  N   UNL d   1      11.100  13.880  -9.580 -0.18 +0.04    -0.248    23.461
ATOM     29 FE   UNL d   1       9.526  14.270 -10.806 -0.05 -0.00    +0.000    23.461
ATOM     30  C   UNL d   1      13.443  10.836 -13.312 -0.23 -0.01    +0.052    23.461
ATOM     31  C   UNL d   1      13.192   9.527 -14.061 -0.23 -0.03    +0.115    23.461
ATOM     32  C   UNL d   1      12.354   8.555 -13.258 -0.32 -0.03    +0.139    23.461
ATOM     33  O   UNL d   1      11.146   8.724 -13.180 -0.07 +0.09    -0.650    23.461
ATOM     34  O   UNL d   1      12.894   7.469 -12.657 -0.53 +0.24    -0.776    23.461
ATOM     35  H   UNL d   1      13.612   7.505 -12.011 -0.47 -0.12    +0.167    23.461
ATOM     36  C   UNL d   1      10.605  15.804 -11.743 -0.04 -0.01    +0.190    23.461
ATOM     37  O   UNL d   1      11.879  16.374 -11.835 +0.00 +0.03    -0.399    23.461
ATOM     38  H   UNL d   1      12.510  15.623 -11.652 +0.02 -0.02    +0.209    23.461
ATOM     39  C   UNL d   1      14.395  12.675  -8.300 -0.25 -0.01    +0.052    23.461
ATOM     40  C   UNL d   1      15.444  13.243  -9.270 -0.10 -0.03    +0.115    23.461
ATOM     41  C   UNL d   1      15.156  14.651  -9.747 -0.03 -0.03    +0.139    23.461
ATOM     42  O   UNL d   1      15.700  15.594  -9.191 +0.02 +0.12    -0.650    23.461
ATOM     43  O   UNL d   1      14.381  14.890 -10.829 +0.04 +0.12    -0.776    23.461
ATOM     44  H   UNL d   1      13.666  15.540 -10.822 +0.02 -0.02    +0.167    23.461
ATOM     45  C   UNL d   1       4.803  15.680 -13.306 -0.14 +0.00    +0.004    23.461
ATOM     46  C   UNL d   1       3.673  15.408 -12.660 -0.20 +0.00    +0.012    23.461
ATOM     47  C   UNL d   1       8.523  17.700  -6.736 -0.11 +0.00    +0.004    23.461
ATOM     48  C   UNL d   1       9.602  18.466  -6.559 -0.14 +0.00    +0.012    23.461
TER
ENDMDL
MODEL       44
USER    Run = 44
USER    Cluster Rank = 28
USER    Number of conformations in this cluster = 1
USER  
USER    RMSD from reference structure       = 25.533 A
USER  
USER    Estimated Free Energy of Binding    =   -3.87 kcal/mol  [=(1)+(2)+(3)-(4)]
USER    Estimated Inhibition Constant, Ki   =    1.45 mM (millimolar)  [Temperature = 298.15 K]
USER    
USER    (1) Final Intermolecular Energy     =   -7.45 kcal/mol
USER        vdW + Hbond + desolv Energy     =   -5.69 kcal/mol
USER        Electrostatic Energy            =   -1.76 kcal/mol
USER    (2) Final Total Internal Energy     =   -2.28 kcal/mol
USER    (3) Torsional Free Energy           =   +3.58 kcal/mol
USER    (4) Unbound System's Energy  [=(2)] =   -2.28 kcal/mol
USER    
USER    
USER  
USER    DPF = D:/Protein_go_brrr/autodock/final/mut_Y35F/heme_Co/dock.dpf
USER    NEWDPF move	heme_Co_opt.pdbqt
USER    NEWDPF about	8.781000 34.984000 -0.736000
USER    NEWDPF tran0	17.907146 8.742421 5.246148
USER    NEWDPF axisangle0	-0.312627 0.387635 0.867181 130.663924
USER    NEWDPF quaternion0	-0.284097 0.352260 0.788043 0.417360
USER    NEWDPF dihe0	163.79 131.03 40.91 50.98 105.44 137.38 -130.57 -178.82 -136.41 138.62 -176.77 9.50 
USER  
USER                              x       y       z    vdW   Elec        q     RMS 
ATOM      1  C   UNL d   1      19.715   9.931   5.437 -0.07 +0.02    +0.064    25.533
ATOM      2  C   UNL d   1      15.109  11.112   5.341 -0.09 +0.01    +0.064    25.533
ATOM      3  C   UNL d   1      13.924   6.568   4.458 -0.08 +0.01    +0.064    25.533
ATOM      4  C   UNL d   1      18.589   5.272   4.935 -0.14 +0.03    +0.064    25.533
ATOM      5  C   UNL d   1      18.546  10.593   5.440 -0.06 +0.02    +0.066    25.533
ATOM      6  C   UNL d   1      18.467  11.967   5.740 -0.05 -0.00    -0.021    25.533
ATOM      7  C   UNL d   1      17.126  12.300   5.733 -0.06 -0.00    -0.025    25.533
ATOM      8  C   UNL d   1      16.447  11.119   5.413 -0.02 +0.02    +0.066    25.533
ATOM      9  C   UNL d   1      16.494  13.671   6.015 -0.03 +0.00    +0.051    25.533
ATOM     10  C   UNL d   1      14.326   9.952   4.994 -0.09 +0.02    +0.066    25.533
ATOM     11  C   UNL d   1      12.934   9.913   4.764 -0.17 -0.00    -0.021    25.533
ATOM     12  C   UNL d   1      12.616   8.577   4.505 -0.25 +0.00    +0.000    25.533
ATOM     13  C   UNL d   1      13.835   7.904   4.583 -0.19 +0.01    +0.070    25.533
ATOM     14  C   UNL d   1      12.005  11.098   4.707 -0.20 -0.00    +0.052    25.533
ATOM     15  C   UNL d   1      15.088   5.710   4.562 -0.17 +0.02    +0.066    25.533
ATOM     16  C   UNL d   1      15.089   4.322   4.568 -0.33 -0.01    -0.021    25.533
ATOM     17  C   UNL d   1      16.432   3.944   4.707 -0.27 +0.00    +0.000    25.533
ATOM     18  C   UNL d   1      17.148   5.135   4.759 -0.20 +0.03    +0.070    25.533
ATOM     19  C   UNL d   1      13.864   3.444   4.447 -0.40 +0.02    +0.052    25.533
ATOM     20  C   UNL d   1      19.296   6.419   5.074 -0.13 +0.04    +0.066    25.533
ATOM     21  C   UNL d   1      20.675   6.422   5.274 -0.10 -0.02    -0.025    25.533
ATOM     22  C   UNL d   1      21.032   7.752   5.393 -0.07 -0.01    -0.021    25.533
ATOM     23  C   UNL d   1      19.842   8.501   5.272 -0.10 +0.03    +0.066    25.533
ATOM     24  C   UNL d   1      21.605   5.215   5.367 -0.07 +0.02    +0.051    25.533
ATOM     25  N   UNL d   1      17.302  10.048   5.220 -0.05 -0.10    -0.248    25.533
ATOM     26  N   UNL d   1      14.876   8.746   4.822 -0.05 -0.08    -0.248    25.533
ATOM     27  N   UNL d   1      16.313   6.166   4.700 -0.14 -0.08    -0.248    25.533
ATOM     28  N   UNL d   1      18.789   7.697   5.081 -0.10 -0.13    -0.248    25.533
ATOM     29 FE   UNL d   1      16.781   7.991   4.945 -0.04 +0.00    +0.000    25.533
ATOM     30  C   UNL d   1      19.628  12.889   6.096 -0.02 +0.01    +0.052    25.533
ATOM     31  C   UNL d   1      19.822  12.948   7.611 -0.00 +0.01    +0.115    25.533
ATOM     32  C   UNL d   1      19.682  11.590   8.264 +0.00 +0.01    +0.139    25.533
ATOM     33  O   UNL d   1      20.686  10.959   8.561 +0.00 -0.06    -0.650    25.533
ATOM     34  O   UNL d   1      18.474  11.065   8.577 +0.01 -0.09    -0.776    25.533
ATOM     35  H   UNL d   1      18.313  10.123   8.725 +0.00 +0.02    +0.167    25.533
ATOM     36  C   UNL d   1      16.599   7.874   7.030 -0.01 +0.05    +0.190    25.533
ATOM     37  O   UNL d   1      16.947   8.527   8.217 +0.01 -0.07    -0.399    25.533
ATOM     38  H   UNL d   1      17.193   9.453   7.938 +0.01 +0.04    +0.209    25.533
ATOM     39  C   UNL d   1      22.432   8.266   5.674 -0.03 +0.02    +0.052    25.533
ATOM     40  C   UNL d   1      23.002   8.989   4.443 -0.04 +0.05    +0.115    25.533
ATOM     41  C   UNL d   1      22.823   8.239   3.140 +0.06 +0.15    +0.139    25.533
ATOM     42  O   UNL d   1      22.992   7.028   3.118 -0.47 -0.89    -0.650    25.533
ATOM     43  O   UNL d   1      22.397   8.857   2.016 -0.10 -1.00    -0.776    25.533
ATOM     44  H   UNL d   1      22.769   9.695   1.712 +0.03 +0.11    +0.167    25.533
ATOM     45  C   UNL d   1      11.310   7.865   4.176 -0.36 +0.00    +0.004    25.533
ATOM     46  C   UNL d   1      10.316   8.212   3.363 -0.43 +0.00    +0.012    25.533
ATOM     47  C   UNL d   1      17.030   2.582   4.838 -0.27 +0.00    +0.004    25.533
ATOM     48  C   UNL d   1      17.317   1.799   3.795 -0.36 +0.00    +0.012    25.533
TER
ENDMDL
MODEL        1
USER    Run = 1
USER    Cluster Rank = 29
USER    Number of conformations in this cluster = 1
USER  
USER    RMSD from reference structure       = 38.044 A
USER  
USER    Estimated Free Energy of Binding    =   -3.61 kcal/mol  [=(1)+(2)+(3)-(4)]
USER    Estimated Inhibition Constant, Ki   =    2.27 mM (millimolar)  [Temperature = 298.15 K]
USER    
USER    (1) Final Intermolecular Energy     =   -7.19 kcal/mol
USER        vdW + Hbond + desolv Energy     =   -6.88 kcal/mol
USER        Electrostatic Energy            =   -0.31 kcal/mol
USER    (2) Final Total Internal Energy     =   -2.19 kcal/mol
USER    (3) Torsional Free Energy           =   +3.58 kcal/mol
USER    (4) Unbound System's Energy  [=(2)] =   -2.19 kcal/mol
USER    
USER    
USER  
USER    DPF = D:/Protein_go_brrr/autodock/final/mut_Y35F/heme_Co/dock.dpf
USER    NEWDPF move	heme_Co_opt.pdbqt
USER    NEWDPF about	8.781000 34.984000 -0.736000
USER    NEWDPF tran0	-12.294468 0.519598 -4.335591
USER    NEWDPF axisangle0	-0.462882 0.873111 0.153030 -174.152668
USER    NEWDPF quaternion0	-0.462279 0.871974 0.152831 -0.051005
USER    NEWDPF dihe0	-147.24 92.33 -145.40 129.25 79.91 137.20 47.85 170.34 157.86 13.91 -162.32 139.96 
USER  
USER                              x       y       z    vdW   Elec        q     RMS 
ATOM      1  C   UNL d   1     -11.562   2.045  -2.975 -0.07 +0.00    +0.064    38.044
ATOM      2  C   UNL d   1     -10.286   0.823  -7.389 -0.13 -0.00    +0.064    38.044
ATOM      3  C   UNL d   1     -13.333  -2.856  -7.292 -0.17 +0.01    +0.064    38.044
ATOM      4  C   UNL d   1     -14.931  -1.400  -2.934 -0.20 +0.01    +0.064    38.044
ATOM      5  C   UNL d   1     -10.963   1.960  -4.174 -0.23 -0.00    +0.066    38.044
ATOM      6  C   UNL d   1     -10.036   2.923  -4.617 -0.24 -0.00    -0.021    38.044
ATOM      7  C   UNL d   1      -9.686   2.576  -5.907 -0.24 -0.00    -0.025    38.044
ATOM      8  C   UNL d   1     -10.402   1.408  -6.190 -0.12 -0.00    +0.066    38.044
ATOM      9  C   UNL d   1      -8.717   3.306  -6.849 -0.11 +0.02    +0.051    38.044
ATOM     10  C   UNL d   1     -10.963  -0.395  -7.762 -0.05 +0.00    +0.066    38.044
ATOM     11  C   UNL d   1     -10.776  -1.134  -8.950 -0.15 -0.00    -0.021    38.044
ATOM     12  C   UNL d   1     -11.674  -2.203  -8.894 -0.17 +0.00    +0.000    38.044
ATOM     13  C   UNL d   1     -12.331  -2.045  -7.674 -0.15 +0.01    +0.070    38.044
ATOM     14  C   UNL d   1      -9.736  -0.872 -10.010 -0.14 +0.00    +0.052    38.044
ATOM     15  C   UNL d   1     -14.152  -2.807  -6.096 -0.18 +0.01    +0.066    38.044
ATOM     16  C   UNL d   1     -15.268  -3.587  -5.830 -0.15 -0.00    -0.021    38.044
ATOM     17  C   UNL d   1     -15.734  -3.169  -4.575 -0.19 +0.00    +0.000    38.044
ATOM     18  C   UNL d   1     -14.852  -2.175  -4.166 -0.22 +0.01    +0.070    38.044
ATOM     19  C   UNL d   1     -15.828  -4.657  -6.741 -0.08 +0.00    +0.052    38.044
ATOM     20  C   UNL d   1     -14.137  -0.370  -2.555 -0.24 +0.01    +0.066    38.044
ATOM     21  C   UNL d   1     -14.335   0.321  -1.362 -0.23 -0.00    -0.025    38.044
ATOM     22  C   UNL d   1     -13.360   1.302  -1.333 -0.25 -0.00    -0.021    38.044
ATOM     23  C   UNL d   1     -12.618   1.166  -2.525 -0.24 +0.00    +0.066    38.044
ATOM     24  C   UNL d   1     -15.413   0.073  -0.309 -0.15 +0.01    +0.051    38.044
ATOM     25  N   UNL d   1     -11.197   1.000  -5.133 -0.16 +0.00    -0.248    38.044
ATOM     26  N   UNL d   1     -11.861  -0.984  -6.965 -0.11 -0.03    -0.248    38.044
ATOM     27  N   UNL d   1     -13.941  -1.964  -5.110 -0.14 -0.02    -0.248    38.044
ATOM     28  N   UNL d   1     -13.086   0.157  -3.268 -0.19 -0.02    -0.248    38.044
ATOM     29 FE   UNL d   1     -12.651  -0.569  -5.117 -0.05 +0.00    +0.000    38.044
ATOM     30  C   UNL d   1      -9.577   4.162  -3.854 -0.25 +0.01    +0.052    38.044
ATOM     31  C   UNL d   1     -10.635   5.263  -3.933 -0.13 +0.02    +0.115    38.044
ATOM     32  C   UNL d   1     -11.532   5.116  -5.143 -0.06 +0.02    +0.139    38.044
ATOM     33  O   UNL d   1     -11.149   5.528  -6.228 +0.01 -0.16    -0.650    38.044
ATOM     34  O   UNL d   1     -12.733   4.497  -5.075 +0.05 -0.06    -0.776    38.044
ATOM     35  H   UNL d   1     -13.149   4.035  -5.816 +0.02 +0.01    +0.167    38.044
ATOM     36  C   UNL d   1     -13.974   0.801  -5.992 -0.04 +0.01    +0.190    38.044
ATOM     37  O   UNL d   1     -14.179   2.167  -6.214 +0.00 -0.02    -0.399    38.044
ATOM     38  H   UNL d   1     -13.622   2.625  -5.523 +0.02 +0.01    +0.209    38.044
ATOM     39  C   UNL d   1     -13.198   2.349  -0.247 -0.16 +0.01    +0.052    38.044
ATOM     40  C   UNL d   1     -13.365   3.763  -0.828 -0.10 +0.01    +0.115    38.044
ATOM     41  C   UNL d   1     -13.025   4.879   0.137 -0.12 +0.02    +0.139    38.044
ATOM     42  O   UNL d   1     -13.537   4.887   1.247 -0.10 -0.14    -0.650    38.044
ATOM     43  O   UNL d   1     -12.103   5.821  -0.163 -0.42 -0.11    -0.776    38.044
ATOM     44  H   UNL d   1     -11.464   6.147   0.485 -0.05 +0.03    +0.167    38.044
ATOM     45  C   UNL d   1     -11.971  -3.360  -9.838 -0.17 +0.00    +0.004    38.044
ATOM     46  C   UNL d   1     -11.900  -4.675  -9.647 -0.26 +0.00    +0.012    38.044
ATOM     47  C   UNL d   1     -16.939  -3.609  -3.810 -0.17 +0.00    +0.004    38.044
ATOM     48  C   UNL d   1     -17.159  -4.874  -3.445 -0.21 +0.00    +0.012    38.044
TER
ENDMDL
MODEL       95
USER    Run = 95
USER    Cluster Rank = 30
USER    Number of conformations in this cluster = 2
USER  
USER    RMSD from reference structure       = 33.407 A
USER  
USER    Estimated Free Energy of Binding    =   -3.59 kcal/mol  [=(1)+(2)+(3)-(4)]
USER    Estimated Inhibition Constant, Ki   =    2.34 mM (millimolar)  [Temperature = 298.15 K]
USER    
USER    (1) Final Intermolecular Energy     =   -7.17 kcal/mol
USER        vdW + Hbond + desolv Energy     =   -5.92 kcal/mol
USER        Electrostatic Energy            =   -1.25 kcal/mol
USER    (2) Final Total Internal Energy     =   -2.04 kcal/mol
USER    (3) Torsional Free Energy           =   +3.58 kcal/mol
USER    (4) Unbound System's Energy  [=(2)] =   -2.04 kcal/mol
USER    
USER    
USER  
USER    DPF = D:/Protein_go_brrr/autodock/final/mut_Y35F/heme_Co/dock.dpf
USER    NEWDPF move	heme_Co_opt.pdbqt
USER    NEWDPF about	8.781000 34.984000 -0.736000
USER    NEWDPF tran0	17.449538 0.044329 4.904344
USER    NEWDPF axisangle0	-0.075222 -0.287722 -0.954755 -87.760706
USER    NEWDPF quaternion0	-0.052141 -0.199436 -0.661793 -0.720789
USER    NEWDPF dihe0	144.10 96.89 -150.71 97.97 -89.04 84.66 -122.31 122.96 30.10 147.17 178.36 168.69 
USER  
USER                              x       y       z    vdW   Elec        q     RMS 
ATOM      1  C   UNL d   1      18.036   1.621   3.531 -0.14 +0.02    +0.064    33.407
ATOM      2  C   UNL d   1      14.683   1.397   6.895 -0.20 +0.02    +0.064    33.407
ATOM      3  C   UNL d   1      15.702  -3.208   7.657 -0.08 +0.01    +0.064    33.407
ATOM      4  C   UNL d   1      19.389  -2.901   4.500 -0.07 +0.01    +0.064    33.407
ATOM      5  C   UNL d   1      17.020   1.888   4.369 -0.25 +0.02    +0.066    33.407
ATOM      6  C   UNL d   1      16.476   3.182   4.495 -0.30 -0.01    -0.021    33.407
ATOM      7  C   UNL d   1      15.519   3.116   5.489 -0.22 -0.01    -0.025    33.407
ATOM      8  C   UNL d   1      15.509   1.783   5.914 -0.18 +0.02    +0.066    33.407
ATOM      9  C   UNL d   1      14.641   4.255   6.028 -0.20 +0.02    +0.051    33.407
ATOM     10  C   UNL d   1      14.583   0.044   7.381 -0.16 +0.02    +0.066    33.407
ATOM     11  C   UNL d   1      13.640  -0.453   8.307 -0.18 -0.01    -0.021    33.407
ATOM     12  C   UNL d   1      13.958  -1.799   8.508 -0.13 +0.00    +0.000    33.407
ATOM     13  C   UNL d   1      15.059  -2.027   7.683 -0.11 +0.01    +0.070    33.407
ATOM     14  C   UNL d   1      12.465   0.300   8.875 -0.09 +0.03    +0.052    33.407
ATOM     15  C   UNL d   1      16.880  -3.599   6.909 -0.05 +0.01    +0.066    33.407
ATOM     16  C   UNL d   1      17.580  -4.790   7.038 -0.03 -0.00    -0.021    33.407
ATOM     17  C   UNL d   1      18.646  -4.705   6.131 -0.02 +0.00    +0.000    33.407
ATOM     18  C   UNL d   1      18.502  -3.471   5.506 -0.05 +0.01    +0.070    33.407
ATOM     19  C   UNL d   1      17.224  -5.918   7.981 -0.02 +0.01    +0.052    33.407
ATOM     20  C   UNL d   1      19.319  -1.669   3.941 -0.14 +0.01    +0.066    33.407
ATOM     21  C   UNL d   1      20.253  -1.221   3.010 -0.19 -0.00    -0.025    33.407
ATOM     22  C   UNL d   1      19.871   0.070   2.691 -0.29 -0.00    -0.021    33.407
ATOM     23  C   UNL d   1      18.721   0.351   3.458 -0.27 +0.01    +0.066    33.407
ATOM     24  C   UNL d   1      21.462  -1.977   2.465 -0.13 +0.01    +0.051    33.407
ATOM     25  N   UNL d   1      16.424   0.999   5.234 -0.01 -0.06    -0.248    33.407
ATOM     26  N   UNL d   1      15.401  -0.927   6.960 -0.08 -0.05    -0.248    33.407
ATOM     27  N   UNL d   1      17.458  -2.827   6.015 -0.04 -0.04    -0.248    33.407
ATOM     28  N   UNL d   1      18.385  -0.698   4.218 -0.11 -0.04    -0.248    33.407
ATOM     29 FE   UNL d   1      16.974  -1.027   5.645 -0.04 +0.00    +0.000    33.407
ATOM     30  C   UNL d   1      16.922   4.433   3.746 -0.26 +0.02    +0.052    33.407
ATOM     31  C   UNL d   1      17.880   5.260   4.604 -0.21 +0.06    +0.115    33.407
ATOM     32  C   UNL d   1      17.823   6.736   4.274 -0.27 +0.08    +0.139    33.407
ATOM     33  O   UNL d   1      17.302   7.509   5.063 -0.00 -0.26    -0.650    33.407
ATOM     34  O   UNL d   1      18.377   7.240   3.147 -0.39 -0.92    -0.776    33.407
ATOM     35  H   UNL d   1      17.973   7.931   2.604 -0.23 +0.14    +0.167    33.407
ATOM     36  C   UNL d   1      18.253  -0.263   7.119 -0.03 +0.03    +0.190    33.407
ATOM     37  O   UNL d   1      19.436   0.461   7.302 -0.00 -0.05    -0.399    33.407
ATOM     38  H   UNL d   1      19.891   0.436   6.415 +0.02 +0.03    +0.209    33.407
ATOM     39  C   UNL d   1      20.614   0.999   1.749 -0.25 +0.02    +0.052    33.407
ATOM     40  C   UNL d   1      21.657   1.828   2.515 -0.18 +0.04    +0.115    33.407
ATOM     41  C   UNL d   1      21.207   2.287   3.886 -0.12 +0.05    +0.139    33.407
ATOM     42  O   UNL d   1      20.784   3.426   4.027 +0.01 -0.37    -0.650    33.407
ATOM     43  O   UNL d   1      21.177   1.445   4.943 +0.04 -0.17    -0.776    33.407
ATOM     44  H   UNL d   1      20.495   1.493   5.626 +0.02 +0.03    +0.167    33.407
ATOM     45  C   UNL d   1      13.340  -2.895   9.365 -0.12 +0.00    +0.004    33.407
ATOM     46  C   UNL d   1      12.375  -3.770   9.090 -0.18 +0.00    +0.012    33.407
ATOM     47  C   UNL d   1      19.762  -5.665   5.879 -0.01 +0.00    +0.004    33.407
ATOM     48  C   UNL d   1      21.033  -5.419   6.205 -0.00 +0.00    +0.012    33.407
TER
ENDMDL
MODEL       66
USER    Run = 66
USER    Cluster Rank = 31
USER    Number of conformations in this cluster = 1
USER  
USER    RMSD from reference structure       = 29.381 A
USER  
USER    Estimated Free Energy of Binding    =   -3.59 kcal/mol  [=(1)+(2)+(3)-(4)]
USER    Estimated Inhibition Constant, Ki   =    2.36 mM (millimolar)  [Temperature = 298.15 K]
USER    
USER    (1) Final Intermolecular Energy     =   -7.16 kcal/mol
USER        vdW + Hbond + desolv Energy     =   -5.56 kcal/mol
USER        Electrostatic Energy            =   -1.60 kcal/mol
USER    (2) Final Total Internal Energy     =   -2.22 kcal/mol
USER    (3) Torsional Free Energy           =   +3.58 kcal/mol
USER    (4) Unbound System's Energy  [=(2)] =   -2.22 kcal/mol
USER    
USER    
USER  
USER    DPF = D:/Protein_go_brrr/autodock/final/mut_Y35F/heme_Co/dock.dpf
USER    NEWDPF move	heme_Co_opt.pdbqt
USER    NEWDPF about	8.781000 34.984000 -0.736000
USER    NEWDPF tran0	19.701606 4.577268 4.638130
USER    NEWDPF axisangle0	0.044055 0.333157 0.941842 178.681295
USER    NEWDPF quaternion0	0.044053 0.333135 0.941779 0.011508
USER    NEWDPF dihe0	35.49 141.67 129.07 134.00 -26.85 82.52 16.52 -38.56 -165.14 -149.25 -3.00 153.67 
USER  
USER                              x       y       z    vdW   Elec        q     RMS 
ATOM      1  C   UNL d   1      21.590   3.640   4.117 -0.04 +0.04    +0.064    29.381
ATOM      2  C   UNL d   1      20.482   8.066   5.457 -0.09 +0.03    +0.064    29.381
ATOM      3  C   UNL d   1      15.834   6.959   5.404 -0.13 +0.02    +0.064    29.381
ATOM      4  C   UNL d   1      16.961   2.332   4.412 -0.27 +0.02    +0.064    29.381
ATOM      5  C   UNL d   1      21.626   4.940   4.452 -0.04 +0.05    +0.066    29.381
ATOM      6  C   UNL d   1      22.840   5.629   4.644 -0.06 -0.01    -0.021    29.381
ATOM      7  C   UNL d   1      22.513   6.906   5.055 -0.06 -0.01    -0.025    29.381
ATOM      8  C   UNL d   1      21.115   6.948   5.080 -0.09 +0.05    +0.066    29.381
ATOM      9  C   UNL d   1      23.468   8.054   5.414 -0.02 +0.02    +0.051    29.381
ATOM     10  C   UNL d   1      19.048   8.211   5.488 -0.10 +0.03    +0.066    29.381
ATOM     11  C   UNL d   1      18.325   9.397   5.738 -0.09 -0.01    -0.021    29.381
ATOM     12  C   UNL d   1      16.972   9.046   5.713 -0.10 +0.00    +0.000    29.381
ATOM     13  C   UNL d   1      16.970   7.679   5.437 -0.13 +0.02    +0.070    29.381
ATOM     14  C   UNL d   1      18.905  10.780   5.892 -0.06 +0.01    +0.052    29.381
ATOM     15  C   UNL d   1      15.653   5.537   5.187 -0.16 +0.02    +0.066    29.381
ATOM     16  C   UNL d   1      14.465   4.830   5.309 -0.25 -0.01    -0.021    29.381
ATOM     17  C   UNL d   1      14.785   3.495   5.026 -0.34 +0.00    +0.000    29.381
ATOM     18  C   UNL d   1      16.145   3.495   4.736 -0.26 +0.02    +0.070    29.381
ATOM     19  C   UNL d   1      13.124   5.427   5.676 -0.18 +0.02    +0.052    29.381
ATOM     20  C   UNL d   1      18.301   2.294   4.211 -0.19 +0.02    +0.066    29.381
ATOM     21  C   UNL d   1      18.979   1.107   3.941 -0.24 -0.01    -0.025    29.381
ATOM     22  C   UNL d   1      20.311   1.458   3.822 -0.17 -0.01    -0.021    29.381
ATOM     23  C   UNL d   1      20.382   2.851   4.040 -0.11 +0.03    +0.066    29.381
ATOM     24  C   UNL d   1      18.390  -0.296   3.821 -0.22 +0.01    +0.051    29.381
ATOM     25  N   UNL d   1      20.539   5.745   4.705 -0.05 -0.20    -0.248    29.381
ATOM     26  N   UNL d   1      18.223   7.186   5.246 -0.09 -0.11    -0.248    29.381
ATOM     27  N   UNL d   1      16.635   4.722   4.872 -0.12 -0.08    -0.248    29.381
ATOM     28  N   UNL d   1      19.167   3.360   4.278 -0.08 -0.12    -0.248    29.381
ATOM     29 FE   UNL d   1      18.472   5.200   4.792 -0.04 +0.00    +0.000    29.381
ATOM     30  C   UNL d   1      24.245   5.049   4.516 -0.03 +0.02    +0.052    29.381
ATOM     31  C   UNL d   1      24.675   5.003   3.050 -0.04 +0.04    +0.115    29.381
ATOM     32  C   UNL d   1      23.761   5.812   2.154 -0.03 +0.13    +0.139    29.381
ATOM     33  O   UNL d   1      23.067   5.238   1.328 +0.10 -0.78    -0.650    29.381
ATOM     34  O   UNL d   1      23.649   7.156   2.270 -0.54 -0.85    -0.776    29.381
ATOM     35  H   UNL d   1      24.366   7.738   2.557 +0.01 +0.10    +0.167    29.381
ATOM     36  C   UNL d   1      18.785   4.778   6.821 -0.02 +0.05    +0.190    29.381
ATOM     37  O   UNL d   1      19.391   3.863   7.688 +0.00 -0.08    -0.399    29.381
ATOM     38  H   UNL d   1      20.164   3.495   7.174 +0.01 +0.04    +0.209    29.381
ATOM     39  C   UNL d   1      21.456   0.493   3.578 -0.12 +0.01    +0.052    29.381
ATOM     40  C   UNL d   1      22.265   0.274   4.868 -0.03 +0.02    +0.115    29.381
ATOM     41  C   UNL d   1      21.486   0.516   6.143 -0.02 +0.02    +0.139    29.381
ATOM     42  O   UNL d   1      21.027  -0.439   6.755 +0.01 -0.07    -0.650    29.381
ATOM     43  O   UNL d   1      21.356   1.753   6.672 +0.02 -0.12    -0.776    29.381
ATOM     44  H   UNL d   1      20.514   2.090   7.004 +0.01 +0.03    +0.167    29.381
ATOM     45  C   UNL d   1      15.689   9.845   5.897 -0.10 +0.00    +0.004    29.381
ATOM     46  C   UNL d   1      14.620   9.960   5.113 -0.12 +0.00    +0.012    29.381
ATOM     47  C   UNL d   1      13.921   2.278   5.065 -0.46 +0.00    +0.004    29.381
ATOM     48  C   UNL d   1      13.122   1.973   6.091 -0.45 +0.01    +0.012    29.381
TER
ENDMDL
MODEL       33
USER    Run = 33
USER    Cluster Rank = 32
USER    Number of conformations in this cluster = 1
USER  
USER    RMSD from reference structure       = 20.406 A
USER  
USER    Estimated Free Energy of Binding    =   -3.58 kcal/mol  [=(1)+(2)+(3)-(4)]
USER    Estimated Inhibition Constant, Ki   =    2.39 mM (millimolar)  [Temperature = 298.15 K]
USER    
USER    (1) Final Intermolecular Energy     =   -7.16 kcal/mol
USER        vdW + Hbond + desolv Energy     =   -6.22 kcal/mol
USER        Electrostatic Energy            =   -0.94 kcal/mol
USER    (2) Final Total Internal Energy     =   -2.26 kcal/mol
USER    (3) Torsional Free Energy           =   +3.58 kcal/mol
USER    (4) Unbound System's Energy  [=(2)] =   -2.26 kcal/mol
USER    
USER    
USER  
USER    DPF = D:/Protein_go_brrr/autodock/final/mut_Y35F/heme_Co/dock.dpf
USER    NEWDPF move	heme_Co_opt.pdbqt
USER    NEWDPF about	8.781000 34.984000 -0.736000
USER    NEWDPF tran0	6.109103 16.692206 -9.839861
USER    NEWDPF axisangle0	0.473102 -0.868248 0.149396 107.519498
USER    NEWDPF quaternion0	0.381578 -0.700281 0.120495 0.591172
USER    NEWDPF dihe0	-167.41 109.92 21.12 65.24 115.60 138.59 35.94 107.22 -179.92 -98.39 -170.49 -11.70 
USER  
USER                              x       y       z    vdW   Elec        q     RMS 
ATOM      1  C   UNL d   1       5.151  18.101  -8.494 -0.12 +0.02    +0.064    20.406
ATOM      2  C   UNL d   1       9.617  16.496  -8.787 -0.18 +0.00    +0.064    20.406
ATOM      3  C   UNL d   1       8.340  13.466 -12.255 -0.22 +0.00    +0.064    20.406
ATOM      4  C   UNL d   1       3.859  15.360 -12.241 -0.19 +0.00    +0.064    20.406
ATOM      5  C   UNL d   1       6.457  17.859  -8.294 -0.17 +0.02    +0.066    20.406
ATOM      6  C   UNL d   1       7.226  18.612  -7.386 -0.14 -0.01    -0.021    20.406
ATOM      7  C   UNL d   1       8.526  18.157  -7.491 -0.14 -0.00    -0.025    20.406
ATOM      8  C   UNL d   1       8.491  17.136  -8.447 -0.17 +0.01    +0.066    20.406
ATOM      9  C   UNL d   1       9.763  18.655  -6.730 -0.12 +0.00    +0.051    20.406
ATOM     10  C   UNL d   1       9.674  15.415  -9.740 -0.19 -0.00    +0.066    20.406
ATOM     11  C   UNL d   1      10.796  14.610 -10.037 -0.19 +0.00    -0.021    20.406
ATOM     12  C   UNL d   1      10.394  13.733 -11.048 -0.25 -0.00    +0.000    20.406
ATOM     13  C   UNL d   1       9.058  14.058 -11.284 -0.23 -0.00    +0.070    20.406
ATOM     14  C   UNL d   1      12.122  14.631  -9.322 -0.16 -0.01    +0.052    20.406
ATOM     15  C   UNL d   1       6.973  13.715 -12.669 -0.30 +0.00    +0.066    20.406
ATOM     16  C   UNL d   1       6.336  13.170 -13.775 -0.28 -0.00    -0.021    20.406
ATOM     17  C   UNL d   1       5.044  13.715 -13.776 -0.23 +0.00    +0.000    20.406
ATOM     18  C   UNL d   1       4.989  14.539 -12.657 -0.22 +0.00    +0.070    20.406
ATOM     19  C   UNL d   1       6.954  12.193 -14.750 -0.19 +0.00    +0.052    20.406
ATOM     20  C   UNL d   1       3.812  16.234 -11.207 -0.16 +0.01    +0.066    20.406
ATOM     21  C   UNL d   1       2.678  16.995 -10.928 -0.11 -0.00    -0.025    20.406
ATOM     22  C   UNL d   1       3.011  17.773  -9.835 -0.08 -0.00    -0.021    20.406
ATOM     23  C   UNL d   1       4.346  17.456  -9.506 -0.13 +0.01    +0.066    20.406
ATOM     24  C   UNL d   1       1.349  16.995 -11.678 -0.06 -0.00    +0.051    20.406
ATOM     25  N   UNL d   1       7.221  16.926  -8.957 -0.13 -0.05    -0.248    20.406
ATOM     26  N   UNL d   1       8.609  15.037 -10.454 -0.15 -0.01    -0.248    20.406
ATOM     27  N   UNL d   1       6.165  14.538 -12.039 -0.20 -0.03    -0.248    20.406
ATOM     28  N   UNL d   1       4.835  16.526 -10.336 -0.03 -0.04    -0.248    20.406
ATOM     29 FE   UNL d   1       6.658  15.662 -10.589 -0.06 +0.00    +0.000    20.406
ATOM     30  C   UNL d   1       6.737  19.769  -6.521 +0.01 +0.02    +0.052    20.406
ATOM     31  C   UNL d   1       6.808  21.086  -7.294 -0.03 +0.02    +0.115    20.406
ATOM     32  C   UNL d   1       7.379  20.908  -8.685 -0.01 +0.01    +0.139    20.406
ATOM     33  O   UNL d   1       8.576  21.074  -8.869 +0.01 -0.01    -0.650    20.406
ATOM     34  O   UNL d   1       6.613  20.522  -9.731 +0.02 -0.05    -0.776    20.406
ATOM     35  H   UNL d   1       6.961  20.286 -10.602 +0.01 +0.00    +0.167    20.406
ATOM     36  C   UNL d   1       7.249  17.225 -11.856 -0.05 +0.01    +0.190    20.406
ATOM     37  O   UNL d   1       7.546  18.591 -11.876 +0.00 -0.00    -0.399    20.406
ATOM     38  H   UNL d   1       7.369  18.906 -10.945 +0.02 +0.01    +0.209    20.406
ATOM     39  C   UNL d   1       2.113  18.811  -9.188 -0.04 +0.00    +0.052    20.406
ATOM     40  C   UNL d   1       1.259  18.174  -8.079 -0.05 +0.01    +0.115    20.406
ATOM     41  C   UNL d   1       2.012  17.891  -6.795 -0.08 +0.06    +0.139    20.406
ATOM     42  O   UNL d   1       2.168  16.732  -6.436 +0.02 -0.33    -0.650    20.406
ATOM     43  O   UNL d   1       2.592  18.879  -6.080 -0.41 -0.69    -0.776    20.406
ATOM     44  H   UNL d   1       2.267  19.789  -6.091 +0.01 +0.07    +0.167    20.406
ATOM     45  C   UNL d   1      11.109  12.619 -11.801 -0.27 -0.00    +0.004    20.406
ATOM     46  C   UNL d   1      11.723  11.527 -11.353 -0.26 -0.00    +0.012    20.406
ATOM     47  C   UNL d   1       3.936  13.540 -14.763 -0.16 -0.00    +0.004    20.406
ATOM     48  C   UNL d   1       2.971  12.626 -14.634 -0.18 -0.00    +0.012    20.406
TER
ENDMDL
MODEL       98
USER    Run = 98
USER    Cluster Rank = 33
USER    Number of conformations in this cluster = 1
USER  
USER    RMSD from reference structure       = 56.129 A
USER  
USER    Estimated Free Energy of Binding    =   -3.55 kcal/mol  [=(1)+(2)+(3)-(4)]
USER    Estimated Inhibition Constant, Ki   =    2.52 mM (millimolar)  [Temperature = 298.15 K]
USER    
USER    (1) Final Intermolecular Energy     =   -7.13 kcal/mol
USER        vdW + Hbond + desolv Energy     =   -5.08 kcal/mol
USER        Electrostatic Energy            =   -2.05 kcal/mol
USER    (2) Final Total Internal Energy     =   -2.41 kcal/mol
USER    (3) Torsional Free Energy           =   +3.58 kcal/mol
USER    (4) Unbound System's Energy  [=(2)] =   -2.41 kcal/mol
USER    
USER    
USER  
USER    DPF = D:/Protein_go_brrr/autodock/final/mut_Y35F/heme_Co/dock.dpf
USER    NEWDPF move	heme_Co_opt.pdbqt
USER    NEWDPF about	8.781000 34.984000 -0.736000
USER    NEWDPF tran0	-10.361948 -18.639001 -9.659413
USER    NEWDPF axisangle0	-0.112184 -0.409259 0.905495 -149.800850
USER    NEWDPF quaternion0	-0.108311 -0.395129 0.874233 -0.260497
USER    NEWDPF dihe0	-156.48 113.76 26.42 119.12 125.29 116.17 34.86 108.20 -79.33 27.08 -169.93 -165.19 
USER  
USER                              x       y       z    vdW   Elec        q     RMS 
ATOM      1  C   UNL d   1      -8.584 -19.422 -10.629 -0.19 +0.00    +0.064    56.129
ATOM      2  C   UNL d   1     -10.135 -19.642  -6.139 -0.10 -0.00    +0.064    56.129
ATOM      3  C   UNL d   1     -13.804 -16.782  -7.227 -0.19 +0.01    +0.064    56.129
ATOM      4  C   UNL d   1     -12.458 -16.854 -11.901 -0.10 +0.01    +0.064    56.129
ATOM      5  C   UNL d   1      -8.718 -19.663  -9.314 -0.16 -0.00    +0.066    56.129
ATOM      6  C   UNL d   1      -7.856 -20.537  -8.623 -0.20 -0.00    -0.021    56.129
ATOM      7  C   UNL d   1      -8.324 -20.615  -7.326 -0.14 +0.00    -0.025    56.129
ATOM      8  C   UNL d   1      -9.441 -19.773  -7.277 -0.14 -0.00    +0.066    56.129
ATOM      9  C   UNL d   1      -7.754 -21.445  -6.166 -0.09 -0.00    +0.051    56.129
ATOM     10  C   UNL d   1     -11.280 -18.780  -5.987 -0.10 +0.00    +0.066    56.129
ATOM     11  C   UNL d   1     -11.965 -18.492  -4.787 -0.09 -0.00    -0.021    56.129
ATOM     12  C   UNL d   1     -13.028 -17.652  -5.132 -0.14 +0.00    +0.000    56.129
ATOM     13  C   UNL d   1     -12.905 -17.481  -6.511 -0.12 +0.01    +0.070    56.129
ATOM     14  C   UNL d   1     -11.557 -18.922  -3.401 -0.05 +0.00    +0.052    56.129
ATOM     15  C   UNL d   1     -13.861 -16.549  -8.657 -0.19 +0.01    +0.066    56.129
ATOM     16  C   UNL d   1     -14.896 -15.939  -9.351 -0.18 -0.00    -0.021    56.129
ATOM     17  C   UNL d   1     -14.513 -15.960 -10.700 -0.14 +0.00    +0.000    56.129
ATOM     18  C   UNL d   1     -13.263 -16.568 -10.720 -0.14 +0.01    +0.070    56.129
ATOM     19  C   UNL d   1     -16.159 -15.384  -8.732 -0.14 +0.00    +0.052    56.129
ATOM     20  C   UNL d   1     -11.280 -17.521 -11.954 -0.10 +0.01    +0.066    56.129
ATOM     21  C   UNL d   1     -10.618 -17.766 -13.155 -0.08 -0.00    -0.025    56.129
ATOM     22  C   UNL d   1      -9.483 -18.479 -12.817 -0.16 -0.00    -0.021    56.129
ATOM     23  C   UNL d   1      -9.515 -18.646 -11.416 -0.18 +0.01    +0.066    56.129
ATOM     24  C   UNL d   1     -11.055 -17.358 -14.560 -0.04 +0.01    +0.051    56.129
ATOM     25  N   UNL d   1      -9.704 -19.166  -8.493 -0.09 +0.01    -0.248    56.129
ATOM     26  N   UNL d   1     -11.816 -18.118  -7.018 +0.02 -0.02    -0.248    56.129
ATOM     27  N   UNL d   1     -12.919 -16.933  -9.490 -0.08 -0.04    -0.248    56.129
ATOM     28  N   UNL d   1     -10.602 -18.069 -10.890 -0.10 -0.02    -0.248    56.129
ATOM     29 FE   UNL d   1     -11.405 -17.983  -9.024 -0.04 +0.00    +0.000    56.129
ATOM     30  C   UNL d   1      -6.688 -21.319  -9.214 -0.20 +0.00    +0.052    56.129
ATOM     31  C   UNL d   1      -7.173 -22.641  -9.808 -0.07 +0.02    +0.115    56.129
ATOM     32  C   UNL d   1      -7.357 -22.567 -11.309 -0.09 +0.04    +0.139    56.129
ATOM     33  O   UNL d   1      -8.462 -22.315 -11.767 +0.01 -0.18    -0.650    56.129
ATOM     34  O   UNL d   1      -6.323 -22.725 -12.167 -0.01 -0.45    -0.776    56.129
ATOM     35  H   UNL d   1      -6.330 -22.429 -13.088 +0.01 +0.18    +0.167    56.129
ATOM     36  C   UNL d   1     -12.418 -19.789  -9.351 -0.03 +0.01    +0.190    56.129
ATOM     37  O   UNL d   1     -12.255 -21.082  -9.858 -0.00 -0.02    -0.399    56.129
ATOM     38  H   UNL d   1     -11.303 -21.123 -10.155 +0.02 +0.01    +0.209    56.129
ATOM     39  C   UNL d   1      -8.461 -19.025 -13.797 -0.07 +0.02    +0.052    56.129
ATOM     40  C   UNL d   1      -9.101 -20.078 -14.717 -0.10 +0.06    +0.115    56.129
ATOM     41  C   UNL d   1      -8.113 -21.030 -15.358 +0.03 +0.15    +0.139    56.129
ATOM     42  O   UNL d   1      -7.952 -20.999 -16.570 -0.14 -0.68    -0.650    56.129
ATOM     43  O   UNL d   1      -7.338 -21.855 -14.618 -0.39 -1.36    -0.776    56.129
ATOM     44  H   UNL d   1      -7.636 -22.235 -13.781 +0.01 +0.16    +0.167    56.129
ATOM     45  C   UNL d   1     -14.127 -16.981  -4.320 -0.15 +0.00    +0.004    56.129
ATOM     46  C   UNL d   1     -14.328 -15.698  -4.028 -0.23 +0.00    +0.012    56.129
ATOM     47  C   UNL d   1     -15.259 -15.501 -11.910 -0.09 +0.00    +0.004    56.129
ATOM     48  C   UNL d   1     -14.990 -14.363 -12.554 -0.12 +0.00    +0.012    56.129
TER
ENDMDL
MODEL       23
USER    Run = 23
USER    Cluster Rank = 34
USER    Number of conformations in this cluster = 1
USER  
USER    RMSD from reference structure       = 22.061 A
USER  
USER    Estimated Free Energy of Binding    =   -3.52 kcal/mol  [=(1)+(2)+(3)-(4)]
USER    Estimated Inhibition Constant, Ki   =    2.64 mM (millimolar)  [Temperature = 298.15 K]
USER    
USER    (1) Final Intermolecular Energy     =   -7.10 kcal/mol
USER        vdW + Hbond + desolv Energy     =   -6.91 kcal/mol
USER        Electrostatic Energy            =   -0.19 kcal/mol
USER    (2) Final Total Internal Energy     =   -2.19 kcal/mol
USER    (3) Torsional Free Energy           =   +3.58 kcal/mol
USER    (4) Unbound System's Energy  [=(2)] =   -2.19 kcal/mol
USER    
USER    
USER  
USER    DPF = D:/Protein_go_brrr/autodock/final/mut_Y35F/heme_Co/dock.dpf
USER    NEWDPF move	heme_Co_opt.pdbqt
USER    NEWDPF about	8.781000 34.984000 -0.736000
USER    NEWDPF tran0	10.590220 14.517636 -9.631985
USER    NEWDPF axisangle0	-0.205091 0.975961 -0.073743 -110.387114
USER    NEWDPF quaternion0	-0.168397 0.801347 -0.060549 -0.570806
USER    NEWDPF dihe0	-161.92 111.45 -62.28 129.19 137.32 139.36 48.21 -120.96 164.93 4.80 -159.99 -179.73 
USER  
USER                              x       y       z    vdW   Elec        q     RMS 
ATOM      1  C   UNL d   1      10.259  15.560  -7.756 -0.19 -0.00    +0.064    22.061
ATOM      2  C   UNL d   1      13.919  12.999  -9.386 -0.19 -0.02    +0.064    22.061
ATOM      3  C   UNL d   1      11.438  11.884 -13.314 -0.14 -0.01    +0.064    22.061
ATOM      4  C   UNL d   1       7.834  14.806 -11.851 -0.21 +0.00    +0.064    22.061
ATOM      5  C   UNL d   1      11.428  14.912  -7.896 -0.25 -0.01    +0.066    22.061
ATOM      6  C   UNL d   1      12.474  15.048  -6.962 -0.26 +0.01    -0.021    22.061
ATOM      7  C   UNL d   1      13.542  14.321  -7.452 -0.21 +0.01    -0.025    22.061
ATOM      8  C   UNL d   1      13.096  13.760  -8.654 -0.18 -0.01    +0.066    22.061
ATOM      9  C   UNL d   1      14.934  14.152  -6.825 -0.20 -0.02    +0.051    22.061
ATOM     10  C   UNL d   1      13.542  12.359 -10.621 -0.12 -0.02    +0.066    22.061
ATOM     11  C   UNL d   1      14.311  11.436 -11.363 -0.24 +0.01    -0.021    22.061
ATOM     12  C   UNL d   1      13.562  11.125 -12.501 -0.25 -0.00    +0.000    22.061
ATOM     13  C   UNL d   1      12.389  11.868 -12.364 -0.18 -0.01    +0.070    22.061
ATOM     14  C   UNL d   1      15.628  10.834 -10.946 -0.23 -0.02    +0.052    22.061
ATOM     15  C   UNL d   1      10.196  12.630 -13.360 -0.01 -0.00    +0.066    22.061
ATOM     16  C   UNL d   1       9.325  12.714 -14.437 -0.10 +0.00    -0.021    22.061
ATOM     17  C   UNL d   1       8.286  13.558 -14.021 -0.16 -0.00    +0.000    22.061
ATOM     18  C   UNL d   1       8.597  13.910 -12.712 -0.20 +0.00    +0.070    22.061
ATOM     19  C   UNL d   1       9.507  12.019 -15.768 -0.09 -0.00    +0.052    22.061
ATOM     20  C   UNL d   1       8.161  15.231 -10.607 -0.13 +0.00    +0.066    22.061
ATOM     21  C   UNL d   1       7.365  16.122  -9.893 -0.16 -0.00    -0.025    22.061
ATOM     22  C   UNL d   1       8.024  16.336  -8.696 -0.26 -0.00    -0.021    22.061
ATOM     23  C   UNL d   1       9.206  15.566  -8.745 -0.28 +0.00    +0.066    22.061
ATOM     24  C   UNL d   1       6.049  16.757 -10.336 -0.16 +0.01    +0.051    22.061
ATOM     25  N   UNL d   1      11.789  14.105  -8.951 -0.14 +0.04    -0.248    22.061
ATOM     26  N   UNL d   1      12.354  12.570 -11.200 -0.13 +0.06    -0.248    22.061
ATOM     27  N   UNL d   1       9.756  13.364 -12.362 -0.13 +0.01    -0.248    22.061
ATOM     28  N   UNL d   1       9.294  14.898  -9.901 -0.18 +0.00    -0.248    22.061
ATOM     29 FE   UNL d   1      10.709  13.714 -10.756 -0.05 -0.00    +0.000    22.061
ATOM     30  C   UNL d   1      12.463  15.907  -5.703 -0.14 -0.03    +0.052    22.061
ATOM     31  C   UNL d   1      12.637  17.384  -6.058 -0.15 -0.07    +0.115    22.061
ATOM     32  C   UNL d   1      13.174  17.581  -7.459 -0.06 -0.04    +0.139    22.061
ATOM     33  O   UNL d   1      14.375  17.476  -7.662 +0.02 +0.20    -0.650    22.061
ATOM     34  O   UNL d   1      12.360  17.825  -8.512 +0.04 +0.12    -0.776    22.061
ATOM     35  H   UNL d   1      12.636  17.766  -9.437 +0.01 -0.02    +0.167    22.061
ATOM     36  C   UNL d   1      11.666  15.397 -11.559 -0.03 -0.02    +0.190    22.061
ATOM     37  O   UNL d   1      12.398  16.536 -11.209 +0.00 +0.04    -0.399    22.061
ATOM     38  H   UNL d   1      12.444  16.514 -10.212 +0.03 -0.02    +0.209    22.061
ATOM     39  C   UNL d   1       7.571  17.279  -7.598 -0.22 +0.02    +0.052    22.061
ATOM     40  C   UNL d   1       7.909  18.735  -7.958 -0.10 +0.02    +0.115    22.061
ATOM     41  C   UNL d   1       7.475  19.752  -6.924 -0.08 +0.04    +0.139    22.061
ATOM     42  O   UNL d   1       7.202  19.376  -5.793 -0.38 -0.36    -0.650    22.061
ATOM     43  O   UNL d   1       7.463  21.076  -7.192 +0.03 -0.09    -0.776    22.061
ATOM     44  H   UNL d   1       8.247  21.551  -7.499 +0.01 +0.01    +0.167    22.061
ATOM     45  C   UNL d   1      13.810  10.202 -13.687 -0.27 -0.00    +0.004    22.061
ATOM     46  C   UNL d   1      13.115   9.158 -14.132 -0.30 -0.00    +0.012    22.061
ATOM     47  C   UNL d   1       7.102  14.059 -14.781 -0.12 -0.00    +0.004    22.061
ATOM     48  C   UNL d   1       5.841  13.754 -14.466 -0.18 +0.00    +0.012    22.061
TER
ENDMDL
MODEL       99
USER    Run = 99
USER    Cluster Rank = 35
USER    Number of conformations in this cluster = 2
USER  
USER    RMSD from reference structure       = 28.181 A
USER  
USER    Estimated Free Energy of Binding    =   -3.51 kcal/mol  [=(1)+(2)+(3)-(4)]
USER    Estimated Inhibition Constant, Ki   =    2.69 mM (millimolar)  [Temperature = 298.15 K]
USER    
USER    (1) Final Intermolecular Energy     =   -7.09 kcal/mol
USER        vdW + Hbond + desolv Energy     =   -4.83 kcal/mol
USER        Electrostatic Energy            =   -2.26 kcal/mol
USER    (2) Final Total Internal Energy     =   -3.83 kcal/mol
USER    (3) Torsional Free Energy           =   +3.58 kcal/mol
USER    (4) Unbound System's Energy  [=(2)] =   -3.83 kcal/mol
USER    
USER    
USER  
USER    DPF = D:/Protein_go_brrr/autodock/final/mut_Y35F/heme_Co/dock.dpf
USER    NEWDPF move	heme_Co_opt.pdbqt
USER    NEWDPF about	8.781000 34.984000 -0.736000
USER    NEWDPF tran0	14.029968 5.760569 9.122289
USER    NEWDPF axisangle0	0.731070 -0.667820 -0.139834 -179.247322
USER    NEWDPF quaternion0	0.731054 -0.667805 -0.139831 -0.006568
USER    NEWDPF dihe0	150.82 112.32 -39.98 132.66 -41.69 107.44 -121.86 -20.15 -126.44 -176.00 -174.53 -180.00 
USER  
USER                              x       y       z    vdW   Elec        q     RMS 
ATOM      1  C   UNL d   1      13.591   7.449  10.416 -0.01 +0.03    +0.064    28.181
ATOM      2  C   UNL d   1      15.474   7.166   6.058 -0.10 +0.02    +0.064    28.181
ATOM      3  C   UNL d   1      15.448   2.395   6.316 -0.14 +0.02    +0.064    28.181
ATOM      4  C   UNL d   1      13.170   2.652  10.606 -0.06 +0.06    +0.064    28.181
ATOM      5  C   UNL d   1      14.141   7.723   9.221 -0.00 +0.02    +0.066    28.181
ATOM      6  C   UNL d   1      14.260   9.040   8.737 -0.01 -0.00    -0.021    28.181
ATOM      7  C   UNL d   1      14.786   8.951   7.463 -0.01 -0.01    -0.025    28.181
ATOM      8  C   UNL d   1      14.981   7.585   7.231 -0.02 +0.02    +0.066    28.181
ATOM      9  C   UNL d   1      15.098  10.098   6.490 -0.06 +0.01    +0.051    28.181
ATOM     10  C   UNL d   1      15.733   5.785   5.739 -0.11 +0.02    +0.066    28.181
ATOM     11  C   UNL d   1      16.379   5.292   4.584 -0.25 -0.01    -0.021    28.181
ATOM     12  C   UNL d   1      16.361   3.899   4.687 -0.27 +0.00    +0.000    28.181
ATOM     13  C   UNL d   1      15.719   3.645   5.899 -0.12 +0.02    +0.070    28.181
ATOM     14  C   UNL d   1      17.046   6.119   3.514 -0.30 +0.03    +0.052    28.181
ATOM     15  C   UNL d   1      14.751   1.954   7.508 -0.11 +0.02    +0.066    28.181
ATOM     16  C   UNL d   1      14.376   0.652   7.808 -0.15 -0.01    -0.021    28.181
ATOM     17  C   UNL d   1      13.717   0.722   9.043 -0.13 +0.00    +0.000    28.181
ATOM     18  C   UNL d   1      13.757   2.063   9.409 -0.10 +0.05    +0.070    28.181
ATOM     19  C   UNL d   1      14.646  -0.559   6.944 -0.20 +0.01    +0.052    28.181
ATOM     20  C   UNL d   1      13.121   3.964  10.940 -0.03 +0.07    +0.066    28.181
ATOM     21  C   UNL d   1      12.497   4.412  12.102 -0.05 -0.02    -0.025    28.181
ATOM     22  C   UNL d   1      12.628   5.789  12.089 -0.04 -0.01    -0.021    28.181
ATOM     23  C   UNL d   1      13.320   6.116  10.903 -0.04 +0.04    +0.066    28.181
ATOM     24  C   UNL d   1      11.792   3.573  13.164 -0.06 +0.03    +0.051    28.181
ATOM     25  N   UNL d   1      14.596   6.801   8.305 +0.00 -0.09    -0.248    28.181
ATOM     26  N   UNL d   1      15.391   4.787   6.560 -0.03 -0.08    -0.248    28.181
ATOM     27  N   UNL d   1      14.353   2.772   8.457 -0.05 -0.13    -0.248    28.181
ATOM     28  N   UNL d   1      13.619   5.014  10.204 -0.04 -0.21    -0.248    28.181
ATOM     29 FE   UNL d   1      14.466   4.667   8.389 -0.01 +0.00    +0.000    28.181
ATOM     30  C   UNL d   1      13.808  10.313   9.445 -0.02 +0.01    +0.052    28.181
ATOM     31  C   UNL d   1      12.365  10.652   9.071 -0.07 +0.02    +0.115    28.181
ATOM     32  C   UNL d   1      11.428   9.480   9.267 -0.11 +0.04    +0.139    28.181
ATOM     33  O   UNL d   1      10.621   9.503  10.184 -0.01 -0.23    -0.650    28.181
ATOM     34  O   UNL d   1      11.419   8.420   8.425 +0.05 -0.33    -0.776    28.181
ATOM     35  H   UNL d   1      11.231   7.511   8.698 +0.03 +0.12    +0.167    28.181
ATOM     36  C   UNL d   1      12.599   4.856   7.455 -0.15 +0.20    +0.190    28.181
ATOM     37  O   UNL d   1      11.394   5.565   7.506 -0.49 -0.59    -0.399    28.181
ATOM     38  H   UNL d   1      11.494   6.185   8.282 +0.04 +0.29    +0.209    28.181
ATOM     39  C   UNL d   1      12.059   6.737  13.128 -0.02 +0.02    +0.052    28.181
ATOM     40  C   UNL d   1      10.555   6.958  12.895 -0.06 +0.06    +0.115    28.181
ATOM     41  C   UNL d   1       9.995   6.231  11.691 -0.06 +0.16    +0.139    28.181
ATOM     42  O   UNL d   1       9.128   5.384  11.852 -0.48 -0.94    -0.650    28.181
ATOM     43  O   UNL d   1      10.366   6.553  10.432 +0.04 -1.14    -0.776    28.181
ATOM     44  H   UNL d   1      10.580   7.457  10.169 +0.03 +0.14    +0.167    28.181
ATOM     45  C   UNL d   1      16.891   2.785   3.793 -0.38 +0.00    +0.004    28.181
ATOM     46  C   UNL d   1      17.728   1.786   4.059 -0.33 +0.00    +0.012    28.181
ATOM     47  C   UNL d   1      13.043  -0.356   9.827 -0.15 +0.00    +0.004    28.181
ATOM     48  C   UNL d   1      11.975  -1.028   9.389 -0.20 +0.00    +0.012    28.181
TER
ENDMDL
MODEL       55
USER    Run = 55
USER    Cluster Rank = 36
USER    Number of conformations in this cluster = 2
USER  
USER    RMSD from reference structure       = 39.212 A
USER  
USER    Estimated Free Energy of Binding    =   -3.48 kcal/mol  [=(1)+(2)+(3)-(4)]
USER    Estimated Inhibition Constant, Ki   =    2.83 mM (millimolar)  [Temperature = 298.15 K]
USER    
USER    (1) Final Intermolecular Energy     =   -7.06 kcal/mol
USER        vdW + Hbond + desolv Energy     =   -4.55 kcal/mol
USER        Electrostatic Energy            =   -2.50 kcal/mol
USER    (2) Final Total Internal Energy     =   -2.81 kcal/mol
USER    (3) Torsional Free Energy           =   +3.58 kcal/mol
USER    (4) Unbound System's Energy  [=(2)] =   -2.81 kcal/mol
USER    
USER    
USER  
USER    DPF = D:/Protein_go_brrr/autodock/final/mut_Y35F/heme_Co/dock.dpf
USER    NEWDPF move	heme_Co_opt.pdbqt
USER    NEWDPF about	8.781000 34.984000 -0.736000
USER    NEWDPF tran0	21.931598 -4.684521 -5.907241
USER    NEWDPF axisangle0	0.034389 0.170008 -0.984843 85.076471
USER    NEWDPF quaternion0	0.023250 0.114939 -0.665834 0.736826
USER    NEWDPF dihe0	7.66 85.59 119.57 -101.89 -14.57 101.98 53.03 -84.84 165.59 145.25 -156.37 -177.75 
USER  
USER                              x       y       z    vdW   Elec        q     RMS 
ATOM      1  C   UNL d   1      21.447  -6.437  -7.095 -0.02 +0.01    +0.064    39.212
ATOM      2  C   UNL d   1      23.404  -5.937  -2.790 -0.02 +0.01    +0.064    39.212
ATOM      3  C   UNL d   1      23.446  -1.188  -3.319 -0.08 +0.01    +0.064    39.212
ATOM      4  C   UNL d   1      21.095  -1.652  -7.553 -0.13 -0.00    +0.064    39.212
ATOM      5  C   UNL d   1      22.012  -6.651  -5.895 -0.01 +0.01    +0.066    39.212
ATOM      6  C   UNL d   1      22.118  -7.940  -5.339 -0.00 -0.00    -0.021    39.212
ATOM      7  C   UNL d   1      22.666  -7.787  -4.080 +0.00 -0.00    -0.025    39.212
ATOM      8  C   UNL d   1      22.885  -6.413  -3.929 -0.01 +0.01    +0.066    39.212
ATOM      9  C   UNL d   1      22.976  -8.882  -3.048 +0.00 +0.00    +0.051    39.212
ATOM     10  C   UNL d   1      23.689  -4.543  -2.554 -0.03 +0.01    +0.066    39.212
ATOM     11  C   UNL d   1      24.360  -3.997  -1.439 -0.03 -0.00    -0.021    39.212
ATOM     12  C   UNL d   1      24.362  -2.611  -1.621 -0.07 +0.00    +0.000    39.212
ATOM     13  C   UNL d   1      23.705  -2.416  -2.836 -0.09 +0.01    +0.070    39.212
ATOM     14  C   UNL d   1      25.032  -4.772  -0.334 -0.01 +0.00    +0.052    39.212
ATOM     15  C   UNL d   1      22.736  -0.805  -4.524 -0.08 +0.00    +0.066    39.212
ATOM     16  C   UNL d   1      22.376   0.484  -4.892 -0.14 -0.00    -0.021    39.212
ATOM     17  C   UNL d   1      21.696   0.355  -6.111 -0.27 -0.00    +0.000    39.212
ATOM     18  C   UNL d   1      21.710  -1.006  -6.400 -0.20 -0.00    +0.070    39.212
ATOM     19  C   UNL d   1      22.679   1.738  -4.103 -0.17 +0.00    +0.052    39.212
ATOM     20  C   UNL d   1      21.020  -2.980  -7.811 -0.13 +0.00    +0.066    39.212
ATOM     21  C   UNL d   1      20.371  -3.484  -8.936 -0.11 -0.00    -0.025    39.212
ATOM     22  C   UNL d   1      20.481  -4.859  -8.845 -0.08 -0.00    -0.021    39.212
ATOM     23  C   UNL d   1      21.188  -5.129  -7.654 -0.06 +0.01    +0.066    39.212
ATOM     24  C   UNL d   1      19.662  -2.694 -10.033 -0.19 -0.00    +0.051    39.212
ATOM     25  N   UNL d   1      22.494  -5.686  -5.041 -0.01 -0.04    -0.248    39.212
ATOM     26  N   UNL d   1      23.348  -3.588  -3.426 -0.04 -0.02    -0.248    39.212
ATOM     27  N   UNL d   1      22.311  -1.669  -5.419 -0.12 -0.01    -0.248    39.212
ATOM     28  N   UNL d   1      21.514  -3.994  -7.024 -0.07 -0.03    -0.248    39.212
ATOM     29 FE   UNL d   1      22.396  -3.559  -5.244 -0.02 +0.00    +0.000    39.212
ATOM     30  C   UNL d   1      21.636  -9.244  -5.966 +0.00 +0.01    +0.052    39.212
ATOM     31  C   UNL d   1      20.109  -9.321  -5.938 -0.00 +0.03    +0.115    39.212
ATOM     32  C   UNL d   1      19.499  -8.323  -4.977 -0.05 +0.07    +0.139    39.212
ATOM     33  O   UNL d   1      19.532  -8.548  -3.776 +0.01 -0.26    -0.650    39.212
ATOM     34  O   UNL d   1      18.955  -7.159  -5.401 +0.13 -1.01    -0.776    39.212
ATOM     35  H   UNL d   1      18.873  -6.904  -6.330 +0.02 +0.21    +0.167    39.212
ATOM     36  C   UNL d   1      20.541  -3.664  -4.273 +0.08 +0.05    +0.190    39.212
ATOM     37  O   UNL d   1      19.296  -4.299  -4.315 -0.65 -0.47    -0.399    39.212
ATOM     38  H   UNL d   1      19.159  -4.531  -5.276 -0.22 +0.34    +0.209    39.212
ATOM     39  C   UNL d   1      19.882  -5.856  -9.820 -0.05 +0.00    +0.052    39.212
ATOM     40  C   UNL d   1      18.368  -5.996  -9.589 -0.09 +0.02    +0.115    39.212
ATOM     41  C   UNL d   1      17.957  -6.012  -8.132 -0.08 +0.12    +0.139    39.212
ATOM     42  O   UNL d   1      18.324  -5.106  -7.397 -0.14 -0.86    -0.650    39.212
ATOM     43  O   UNL d   1      17.122  -6.954  -7.639 -0.25 -0.93    -0.776    39.212
ATOM     44  H   UNL d   1      17.348  -7.499  -6.874 +0.01 +0.22    +0.167    39.212
ATOM     45  C   UNL d   1      24.923  -1.457  -0.801 -0.06 +0.00    +0.004    39.212
ATOM     46  C   UNL d   1      24.302  -0.509  -0.103 -0.09 +0.00    +0.012    39.212
ATOM     47  C   UNL d   1      21.026   1.398  -6.945 -0.40 -0.00    +0.004    39.212
ATOM     48  C   UNL d   1      20.368   2.440  -6.432 -0.52 -0.00    +0.012    39.212
TER
ENDMDL
MODEL       19
USER    Run = 19
USER    Cluster Rank = 37
USER    Number of conformations in this cluster = 5
USER  
USER    RMSD from reference structure       = 55.511 A
USER  
USER    Estimated Free Energy of Binding    =   -3.46 kcal/mol  [=(1)+(2)+(3)-(4)]
USER    Estimated Inhibition Constant, Ki   =    2.90 mM (millimolar)  [Temperature = 298.15 K]
USER    
USER    (1) Final Intermolecular Energy     =   -7.04 kcal/mol
USER        vdW + Hbond + desolv Energy     =   -6.18 kcal/mol
USER        Electrostatic Energy            =   -0.86 kcal/mol
USER    (2) Final Total Internal Energy     =   -2.07 kcal/mol
USER    (3) Torsional Free Energy           =   +3.58 kcal/mol
USER    (4) Unbound System's Energy  [=(2)] =   -2.07 kcal/mol
USER    
USER    
USER  
USER    DPF = D:/Protein_go_brrr/autodock/final/mut_Y35F/heme_Co/dock.dpf
USER    NEWDPF move	heme_Co_opt.pdbqt
USER    NEWDPF about	8.781000 34.984000 -0.736000
USER    NEWDPF tran0	-11.285306 -18.445120 -7.256417
USER    NEWDPF axisangle0	-0.403024 0.176685 -0.897972 132.561291
USER    NEWDPF quaternion0	-0.368979 0.161759 -0.822118 0.402257
USER    NEWDPF dihe0	-55.94 101.56 -163.29 8.01 -87.60 81.46 67.79 120.62 -30.49 155.87 20.58 165.43 
USER  
USER                              x       y       z    vdW   Elec        q     RMS 
ATOM      1  C   UNL d   1     -11.298 -19.327  -9.241 -0.08 +0.00    +0.064    55.511
ATOM      2  C   UNL d   1      -7.950 -19.087  -5.873 -0.25 -0.00    +0.064    55.511
ATOM      3  C   UNL d   1     -10.794 -16.342  -3.188 -0.01 +0.00    +0.064    55.511
ATOM      4  C   UNL d   1     -14.371 -16.892  -6.439 -0.16 +0.01    +0.064    55.511
ATOM      5  C   UNL d   1     -10.161 -19.433  -8.534 -0.13 +0.00    +0.066    55.511
ATOM      6  C   UNL d   1      -9.085 -20.234  -8.964 -0.15 -0.00    -0.021    55.511
ATOM      7  C   UNL d   1      -8.126 -20.179  -7.972 -0.21 +0.00    -0.025    55.511
ATOM      8  C   UNL d   1      -8.649 -19.334  -6.988 -0.22 -0.00    +0.066    55.511
ATOM      9  C   UNL d   1      -6.764 -20.889  -7.938 -0.23 -0.00    +0.051    55.511
ATOM     10  C   UNL d   1      -8.396 -18.211  -4.818 -0.24 -0.01    +0.066    55.511
ATOM     11  C   UNL d   1      -7.651 -17.800  -3.691 -0.27 +0.00    -0.021    55.511
ATOM     12  C   UNL d   1      -8.503 -16.998  -2.927 -0.28 -0.00    +0.000    55.511
ATOM     13  C   UNL d   1      -9.697 -16.968  -3.649 -0.21 -0.00    +0.070    55.511
ATOM     14  C   UNL d   1      -6.195 -18.089  -3.431 -0.25 -0.01    +0.052    55.511
ATOM     15  C   UNL d   1     -12.118 -16.256  -3.774 -0.22 +0.00    +0.066    55.511
ATOM     16  C   UNL d   1     -13.248 -15.717  -3.177 -0.24 -0.00    -0.021    55.511
ATOM     17  C   UNL d   1     -14.283 -15.875  -4.110 -0.20 +0.00    +0.000    55.511
ATOM     18  C   UNL d   1     -13.696 -16.485  -5.213 -0.19 +0.01    +0.070    55.511
ATOM     19  C   UNL d   1     -13.301 -15.098  -1.798 -0.28 -0.00    +0.052    55.511
ATOM     20  C   UNL d   1     -13.840 -17.563  -7.489 -0.13 +0.01    +0.066    55.511
ATOM     21  C   UNL d   1     -14.600 -17.930  -8.598 -0.07 -0.00    -0.025    55.511
ATOM     22  C   UNL d   1     -13.733 -18.609  -9.435 -0.05 -0.00    -0.021    55.511
ATOM     23  C   UNL d   1     -12.481 -18.632  -8.785 -0.07 +0.00    +0.066    55.511
ATOM     24  C   UNL d   1     -16.083 -17.666  -8.839 -0.04 +0.00    +0.051    55.511
ATOM     25  N   UNL d   1      -9.906 -18.853  -7.312 -0.06 +0.00    -0.248    55.511
ATOM     26  N   UNL d   1      -9.612 -17.655  -4.819 -0.17 +0.01    -0.248    55.511
ATOM     27  N   UNL d   1     -12.413 -16.724  -4.966 -0.10 -0.05    -0.248    55.511
ATOM     28  N   UNL d   1     -12.542 -18.003  -7.606 -0.06 -0.03    -0.248    55.511
ATOM     29 FE   UNL d   1     -11.236 -17.725  -6.072 -0.05 +0.00    +0.000    55.511
ATOM     30  C   UNL d   1      -9.029 -21.075 -10.235 -0.11 +0.01    +0.052    55.511
ATOM     31  C   UNL d   1      -8.143 -20.405 -11.284 -0.15 +0.03    +0.115    55.511
ATOM     32  C   UNL d   1      -7.423 -21.410 -12.158 -0.00 +0.07    +0.139    55.511
ATOM     33  O   UNL d   1      -6.636 -22.193 -11.650 -0.03 -0.30    -0.650    55.511
ATOM     34  O   UNL d   1      -7.659 -21.503 -13.488 -0.05 -0.70    -0.776    55.511
ATOM     35  H   UNL d   1      -8.521 -21.709 -13.874 +0.01 +0.10    +0.167    55.511
ATOM     36  C   UNL d   1     -11.812 -19.553  -5.221 -0.04 +0.00    +0.190    55.511
ATOM     37  O   UNL d   1     -12.546 -20.716  -5.472 +0.00 -0.00    -0.399    55.511
ATOM     38  H   UNL d   1     -13.064 -20.519  -6.301 +0.01 +0.00    +0.209    55.511
ATOM     39  C   UNL d   1     -14.110 -19.253 -10.756 -0.02 +0.00    +0.052    55.511
ATOM     40  C   UNL d   1     -14.474 -20.734 -10.553 -0.00 +0.00    +0.115    55.511
ATOM     41  C   UNL d   1     -13.757 -21.400  -9.398 -0.00 +0.00    +0.139    55.511
ATOM     42  O   UNL d   1     -12.795 -22.121  -9.627 +0.00 -0.02    -0.650    55.511
ATOM     43  O   UNL d   1     -14.095 -21.152  -8.114 +0.01 -0.02    -0.776    55.511
ATOM     44  H   UNL d   1     -13.482 -21.289  -7.380 +0.00 +0.00    +0.167    55.511
ATOM     45  C   UNL d   1      -8.322 -16.245  -1.616 -0.43 -0.00    +0.004    55.511
ATOM     46  C   UNL d   1      -7.268 -16.151  -0.810 -0.53 -0.00    +0.012    55.511
ATOM     47  C   UNL d   1     -15.734 -15.540  -3.991 -0.16 +0.00    +0.004    55.511
ATOM     48  C   UNL d   1     -16.697 -16.459  -3.894 -0.08 -0.00    +0.012    55.511
TER
ENDMDL
MODEL       75
USER    Run = 75
USER    Cluster Rank = 38
USER    Number of conformations in this cluster = 1
USER  
USER    RMSD from reference structure       = 39.873 A
USER  
USER    Estimated Free Energy of Binding    =   -3.42 kcal/mol  [=(1)+(2)+(3)-(4)]
USER    Estimated Inhibition Constant, Ki   =    3.10 mM (millimolar)  [Temperature = 298.15 K]
USER    
USER    (1) Final Intermolecular Energy     =   -7.00 kcal/mol
USER        vdW + Hbond + desolv Energy     =   -6.08 kcal/mol
USER        Electrostatic Energy            =   -0.92 kcal/mol
USER    (2) Final Total Internal Energy     =   -2.11 kcal/mol
USER    (3) Torsional Free Energy           =   +3.58 kcal/mol
USER    (4) Unbound System's Energy  [=(2)] =   -2.11 kcal/mol
USER    
USER    
USER  
USER    DPF = D:/Protein_go_brrr/autodock/final/mut_Y35F/heme_Co/dock.dpf
USER    NEWDPF move	heme_Co_opt.pdbqt
USER    NEWDPF about	8.781000 34.984000 -0.736000
USER    NEWDPF tran0	-14.236828 -0.410170 -5.164728
USER    NEWDPF axisangle0	0.264835 -0.183970 0.946582 162.067425
USER    NEWDPF quaternion0	0.261599 -0.181722 0.935015 0.155853
USER    NEWDPF dihe0	94.76 105.88 -144.30 -63.37 -87.64 81.03 -105.09 119.43 -47.59 145.52 14.13 173.14 
USER  
USER                              x       y       z    vdW   Elec        q     RMS 
ATOM      1  C   UNL d   1     -13.027   0.115  -6.890 -0.08 +0.00    +0.064    39.873
ATOM      2  C   UNL d   1     -12.536   1.019  -2.247 -0.31 +0.00    +0.064    39.873
ATOM      3  C   UNL d   1     -16.772  -1.007  -1.366 -0.12 +0.02    +0.064    39.873
ATOM      4  C   UNL d   1     -17.120  -2.284  -6.047 -0.02 +0.00    +0.064    39.873
ATOM      5  C   UNL d   1     -12.598   0.544  -5.691 -0.13 +0.00    +0.066    39.873
ATOM      6  C   UNL d   1     -11.334   1.141  -5.518 -0.20 -0.00    -0.021    39.873
ATOM      7  C   UNL d   1     -11.187   1.380  -4.166 -0.27 +0.00    -0.025    39.873
ATOM      8  C   UNL d   1     -12.374   0.934  -3.574 -0.24 +0.00    +0.066    39.873
ATOM      9  C   UNL d   1      -9.983   2.003  -3.445 -0.35 -0.00    +0.051    39.873
ATOM     10  C   UNL d   1     -13.731   0.611  -1.552 -0.24 +0.01    +0.066    39.873
ATOM     11  C   UNL d   1     -14.018   0.803  -0.183 -0.25 -0.00    -0.021    39.873
ATOM     12  C   UNL d   1     -15.261   0.206   0.046 -0.18 +0.00    +0.000    39.873
ATOM     13  C   UNL d   1     -15.645  -0.293  -1.199 -0.12 +0.02    +0.070    39.873
ATOM     14  C   UNL d   1     -13.191   1.590   0.800 -0.33 +0.01    +0.052    39.873
ATOM     15  C   UNL d   1     -17.292  -1.638  -2.563 -0.09 +0.02    +0.066    39.873
ATOM     16  C   UNL d   1     -18.390  -2.485  -2.637 -0.07 -0.01    -0.021    39.873
ATOM     17  C   UNL d   1     -18.492  -2.858  -3.984 -0.05 +0.00    +0.000    39.873
ATOM     18  C   UNL d   1     -17.456  -2.193  -4.632 -0.04 +0.01    +0.070    39.873
ATOM     19  C   UNL d   1     -19.263  -2.892  -1.471 -0.09 +0.02    +0.052    39.873
ATOM     20  C   UNL d   1     -16.067  -1.717  -6.682 -0.03 +0.00    +0.066    39.873
ATOM     21  C   UNL d   1     -15.828  -1.907  -8.042 -0.02 -0.00    -0.025    39.873
ATOM     22  C   UNL d   1     -14.670  -1.203  -8.319 -0.02 -0.00    -0.021    39.873
ATOM     23  C   UNL d   1     -14.250  -0.624  -7.103 -0.04 +0.00    +0.066    39.873
ATOM     24  C   UNL d   1     -16.651  -2.735  -9.025 -0.01 +0.00    +0.051    39.873
ATOM     25  N   UNL d   1     -13.268   0.417  -4.495 -0.09 -0.02    -0.248    39.873
ATOM     26  N   UNL d   1     -14.745   0.002  -2.175 -0.12 -0.03    -0.248    39.873
ATOM     27  N   UNL d   1     -16.744  -1.501  -3.750 -0.05 -0.04    -0.248    39.873
ATOM     28  N   UNL d   1     -15.091  -0.934  -6.109 -0.02 -0.02    -0.248    39.873
ATOM     29 FE   UNL d   1     -15.110  -0.599  -4.104 -0.03 +0.00    +0.000    39.873
ATOM     30  C   UNL d   1     -10.290   1.389  -6.602 -0.16 -0.00    +0.052    39.873
ATOM     31  C   UNL d   1     -10.360   2.834  -7.095 -0.12 +0.02    +0.115    39.873
ATOM     32  C   UNL d   1      -9.002   3.503  -7.117 -0.12 +0.06    +0.139    39.873
ATOM     33  O   UNL d   1      -8.601   4.013  -8.152 -0.14 -0.43    -0.650    39.873
ATOM     34  O   UNL d   1      -8.231   3.598  -6.009 -0.43 -0.43    -0.776    39.873
ATOM     35  H   UNL d   1      -7.573   2.940  -5.746 -0.44 -0.02    +0.167    39.873
ATOM     36  C   UNL d   1     -13.960  -2.323  -3.782 -0.32 +0.02    +0.190    39.873
ATOM     37  O   UNL d   1     -13.215  -3.305  -4.443 +0.07 -0.03    -0.399    39.873
ATOM     38  H   UNL d   1     -13.376  -3.138  -5.414 +0.08 +0.03    +0.209    39.873
ATOM     39  C   UNL d   1     -13.975  -1.148  -9.667 -0.02 +0.00    +0.052    39.873
ATOM     40  C   UNL d   1     -13.027  -2.347  -9.837 -0.04 +0.01    +0.115    39.873
ATOM     41  C   UNL d   1     -12.252  -2.713  -8.589 -0.16 +0.01    +0.139    39.873
ATOM     42  O   UNL d   1     -11.078  -2.383  -8.495 -0.04 -0.11    -0.650    39.873
ATOM     43  O   UNL d   1     -12.845  -3.319  -7.537 +0.04 -0.09    -0.776    39.873
ATOM     44  H   UNL d   1     -12.662  -3.068  -6.622 +0.06 +0.03    +0.167    39.873
ATOM     45  C   UNL d   1     -16.134   0.067   1.286 -0.24 +0.00    +0.004    39.873
ATOM     46  C   UNL d   1     -15.979  -0.683   2.374 -0.42 +0.00    +0.012    39.873
ATOM     47  C   UNL d   1     -19.444  -3.802  -4.643 -0.03 +0.00    +0.004    39.873
ATOM     48  C   UNL d   1     -19.085  -4.996  -5.121 -0.03 +0.00    +0.012    39.873
TER
ENDMDL
MODEL        2
USER    Run = 2
USER    Cluster Rank = 39
USER    Number of conformations in this cluster = 1
USER  
USER    RMSD from reference structure       = 51.379 A
USER  
USER    Estimated Free Energy of Binding    =   -3.33 kcal/mol  [=(1)+(2)+(3)-(4)]
USER    Estimated Inhibition Constant, Ki   =    3.61 mM (millimolar)  [Temperature = 298.15 K]
USER    
USER    (1) Final Intermolecular Energy     =   -6.91 kcal/mol
USER        vdW + Hbond + desolv Energy     =   -7.37 kcal/mol
USER        Electrostatic Energy            =   +0.46 kcal/mol
USER    (2) Final Total Internal Energy     =   -3.25 kcal/mol
USER    (3) Torsional Free Energy           =   +3.58 kcal/mol
USER    (4) Unbound System's Energy  [=(2)] =   -3.25 kcal/mol
USER    
USER    
USER  
USER    DPF = D:/Protein_go_brrr/autodock/final/mut_Y35F/heme_Co/dock.dpf
USER    NEWDPF move	heme_Co_opt.pdbqt
USER    NEWDPF about	8.781000 34.984000 -0.736000
USER    NEWDPF tran0	2.072379 -17.133804 -7.645818
USER    NEWDPF axisangle0	0.955013 0.272733 0.116477 -155.432654
USER    NEWDPF quaternion0	0.933149 0.266489 0.113810 -0.212752
USER    NEWDPF dihe0	-93.17 125.65 -70.66 -104.43 152.35 95.21 33.17 -45.16 -113.59 -153.20 167.43 150.18 
USER  
USER                              x       y       z    vdW   Elec        q     RMS 
ATOM      1  C   UNL d   1       0.409 -18.287  -6.858 -0.17 -0.05    +0.064    51.379
ATOM      2  C   UNL d   1       1.480 -16.815 -11.251 -0.22 -0.01    +0.064    51.379
ATOM      3  C   UNL d   1       5.231 -14.384  -9.563 -0.26 -0.02    +0.064    51.379
ATOM      4  C   UNL d   1       4.385 -16.186  -5.125 -0.22 -0.02    +0.064    51.379
ATOM      5  C   UNL d   1       0.405 -18.034  -8.177 -0.28 -0.03    +0.066    51.379
ATOM      6  C   UNL d   1      -0.521 -18.637  -9.051 -0.29 +0.01    -0.021    51.379
ATOM      7  C   UNL d   1      -0.191 -18.224 -10.327 -0.26 +0.00    -0.025    51.379
ATOM      8  C   UNL d   1       0.910 -17.375 -10.176 -0.24 -0.02    +0.066    51.379
ATOM      9  C   UNL d   1      -0.877 -18.606 -11.647 -0.25 +0.01    +0.051    51.379
ATOM     10  C   UNL d   1       2.599 -15.908 -11.191 -0.19 -0.02    +0.066    51.379
ATOM     11  C   UNL d   1       3.153 -15.179 -12.266 -0.16 +0.01    -0.021    51.379
ATOM     12  C   UNL d   1       4.242 -14.476 -11.745 -0.22 -0.00    +0.000    51.379
ATOM     13  C   UNL d   1       4.265 -14.817 -10.393 -0.23 -0.03    +0.070    51.379
ATOM     14  C   UNL d   1       2.603 -15.100 -13.667 -0.11 -0.01    +0.052    51.379
ATOM     15  C   UNL d   1       5.437 -14.678  -8.159 -0.23 -0.03    +0.066    51.379
ATOM     16  C   UNL d   1       6.537 -14.315  -7.394 -0.17 +0.01    -0.021    51.379
ATOM     17  C   UNL d   1       6.299 -14.835  -6.114 -0.17 -0.00    +0.000    51.379
ATOM     18  C   UNL d   1       5.060 -15.461  -6.194 -0.22 -0.03    +0.070    51.379
ATOM     19  C   UNL d   1       7.725 -13.522  -7.890 -0.19 -0.05    +0.052    51.379
ATOM     20  C   UNL d   1       3.222 -16.876  -5.202 -0.24 -0.02    +0.066    51.379
ATOM     21  C   UNL d   1       2.691 -17.564  -4.113 -0.23 +0.01    -0.025    51.379
ATOM     22  C   UNL d   1       1.530 -18.156  -4.575 -0.27 +0.01    -0.021    51.379
ATOM     23  C   UNL d   1       1.415 -17.807  -5.938 -0.28 -0.04    +0.066    51.379
ATOM     24  C   UNL d   1       3.272 -17.670  -2.706 -0.27 -0.01    +0.051    51.379
ATOM     25  N   UNL d   1       1.298 -17.234  -8.854 +0.02 +0.12    -0.248    51.379
ATOM     26  N   UNL d   1       3.238 -15.638 -10.048 -0.14 +0.11    -0.248    51.379
ATOM     27  N   UNL d   1       4.590 -15.374  -7.434 -0.16 +0.11    -0.248    51.379
ATOM     28  N   UNL d   1       2.438 -17.034  -6.322 -0.02 +0.13    -0.248    51.379
ATOM     29 FE   UNL d   1       3.040 -16.250  -8.099 -0.04 -0.00    +0.000    51.379
ATOM     30  C   UNL d   1      -1.616 -19.628  -8.672 -0.28 -0.02    +0.052    51.379
ATOM     31  C   UNL d   1      -1.268 -21.030  -9.170 -0.12 -0.02    +0.115    51.379
ATOM     32  C   UNL d   1      -0.030 -21.588  -8.502 -0.05 -0.04    +0.139    51.379
ATOM     33  O   UNL d   1       1.052 -21.490  -9.062 +0.03 +0.10    -0.650    51.379
ATOM     34  O   UNL d   1      -0.071 -22.155  -7.274 +0.02 +0.27    -0.776    51.379
ATOM     35  H   UNL d   1       0.153 -21.694  -6.454 -0.00 -0.09    +0.167    51.379
ATOM     36  C   UNL d   1       4.090 -18.009  -8.546 -0.06 -0.05    +0.190    51.379
ATOM     37  O   UNL d   1       4.142 -19.377  -8.264 +0.00 +0.07    -0.399    51.379
ATOM     38  H   UNL d   1       3.288 -19.574  -7.786 +0.03 -0.05    +0.209    51.379
ATOM     39  C   UNL d   1       0.620 -19.059  -3.764 -0.30 -0.03    +0.052    51.379
ATOM     40  C   UNL d   1       0.740 -20.517  -4.239 -0.14 -0.06    +0.115    51.379
ATOM     41  C   UNL d   1       2.019 -20.827  -4.988 -0.06 -0.04    +0.139    51.379
ATOM     42  O   UNL d   1       2.982 -21.262  -4.372 +0.03 +0.10    -0.650    51.379
ATOM     43  O   UNL d   1       2.098 -20.720  -6.333 +0.05 +0.24    -0.776    51.379
ATOM     44  H   UNL d   1       1.581 -21.276  -6.929 +0.02 -0.05    +0.167    51.379
ATOM     45  C   UNL d   1       5.247 -13.512 -12.362 -0.17 -0.00    +0.004    51.379
ATOM     46  C   UNL d   1       6.555 -13.640 -12.569 -0.13 -0.00    +0.012    51.379
ATOM     47  C   UNL d   1       7.166 -14.810  -4.898 -0.25 -0.00    +0.004    51.379
ATOM     48  C   UNL d   1       6.735 -14.429  -3.693 -0.31 -0.01    +0.012    51.379
TER
ENDMDL
MODEL       54
USER    Run = 54
USER    Cluster Rank = 40
USER    Number of conformations in this cluster = 1
USER  
USER    RMSD from reference structure       = 35.243 A
USER  
USER    Estimated Free Energy of Binding    =   -3.33 kcal/mol  [=(1)+(2)+(3)-(4)]
USER    Estimated Inhibition Constant, Ki   =    3.64 mM (millimolar)  [Temperature = 298.15 K]
USER    
USER    (1) Final Intermolecular Energy     =   -6.91 kcal/mol
USER        vdW + Hbond + desolv Energy     =   -5.38 kcal/mol
USER        Electrostatic Energy            =   -1.53 kcal/mol
USER    (2) Final Total Internal Energy     =   -1.92 kcal/mol
USER    (3) Torsional Free Energy           =   +3.58 kcal/mol
USER    (4) Unbound System's Energy  [=(2)] =   -1.92 kcal/mol
USER    
USER    
USER  
USER    DPF = D:/Protein_go_brrr/autodock/final/mut_Y35F/heme_Co/dock.dpf
USER    NEWDPF move	heme_Co_opt.pdbqt
USER    NEWDPF about	8.781000 34.984000 -0.736000
USER    NEWDPF tran0	10.861196 -1.524107 9.657740
USER    NEWDPF axisangle0	-0.479750 -0.206801 -0.852686 156.981110
USER    NEWDPF quaternion0	-0.470104 -0.202643 -0.835540 0.199529
USER    NEWDPF dihe0	-102.10 111.72 -155.11 116.92 140.14 78.42 -177.45 114.32 17.76 148.58 169.96 176.58 
USER  
USER                              x       y       z    vdW   Elec        q     RMS 
ATOM      1  C   UNL d   1      10.979  -3.085   8.152 -0.27 +0.01    +0.064    35.243
ATOM      2  C   UNL d   1      13.993   0.369   9.417 -0.10 +0.02    +0.064    35.243
ATOM      3  C   UNL d   1      10.759   2.127  12.463 -0.06 +0.05    +0.064    35.243
ATOM      4  C   UNL d   1       7.811  -1.613  11.472 -0.13 -0.00    +0.064    35.243
ATOM      5  C   UNL d   1      12.026  -2.249   8.248 -0.26 +0.02    +0.066    35.243
ATOM      6  C   UNL d   1      13.227  -2.473   7.546 -0.28 -0.00    -0.021    35.243
ATOM      7  C   UNL d   1      14.106  -1.481   7.934 -0.17 -0.01    -0.025    35.243
ATOM      8  C   UNL d   1      13.399  -0.685   8.843 -0.14 +0.02    +0.066    35.243
ATOM      9  C   UNL d   1      15.559  -1.277   7.478 -0.12 +0.01    +0.051    35.243
ATOM     10  C   UNL d   1      13.338   1.259  10.342 -0.09 +0.04    +0.066    35.243
ATOM     11  C   UNL d   1      13.860   2.460  10.871 -0.07 -0.01    -0.021    35.243
ATOM     12  C   UNL d   1      12.894   2.954  11.753 -0.07 +0.00    +0.000    35.243
ATOM     13  C   UNL d   1      11.853   2.028  11.688 -0.06 +0.07    +0.070    35.243
ATOM     14  C   UNL d   1      15.154   3.122  10.473 -0.02 +0.02    +0.052    35.243
ATOM     15  C   UNL d   1       9.619   1.238  12.563 -0.08 +0.03    +0.066    35.243
ATOM     16  C   UNL d   1       8.589   1.321  13.489 -0.06 -0.01    -0.021    35.243
ATOM     17  C   UNL d   1       7.737   0.243  13.209 -0.06 +0.00    +0.000    35.243
ATOM     18  C   UNL d   1       8.308  -0.405  12.119 -0.10 +0.01    +0.070    35.243
ATOM     19  C   UNL d   1       8.458   2.378  14.563 -0.03 +0.01    +0.052    35.243
ATOM     20  C   UNL d   1       8.394  -2.310  10.467 -0.21 +0.00    +0.066    35.243
ATOM     21  C   UNL d   1       7.837  -3.478   9.952 -0.27 +0.00    -0.025    35.243
ATOM     22  C   UNL d   1       8.714  -3.909   8.973 -0.34 -0.00    -0.021    35.243
ATOM     23  C   UNL d   1       9.777  -2.981   8.948 -0.23 +0.01    +0.066    35.243
ATOM     24  C   UNL d   1       6.543  -4.163  10.384 -0.16 -0.01    +0.051    35.243
ATOM     25  N   UNL d   1      12.106  -1.134   9.051 -0.13 -0.08    -0.248    35.243
ATOM     26  N   UNL d   1      12.099   1.034  10.793 -0.08 -0.19    -0.248    35.243
ATOM     27  N   UNL d   1       9.443   0.197  11.780 -0.09 -0.10    -0.248    35.243
ATOM     28  N   UNL d   1       9.588  -2.013   9.852 -0.14 -0.05    -0.248    35.243
ATOM     29 FE   UNL d   1      10.693  -0.432  10.495 -0.04 +0.00    +0.000    35.243
ATOM     30  C   UNL d   1      13.531  -3.639   6.611 -0.15 +0.02    +0.052    35.243
ATOM     31  C   UNL d   1      14.478  -4.633   7.283 -0.12 +0.05    +0.115    35.243
ATOM     32  C   UNL d   1      15.109  -5.588   6.292 -0.11 +0.09    +0.139    35.243
ATOM     33  O   UNL d   1      15.686  -5.142   5.312 -0.02 -0.22    -0.650    35.243
ATOM     34  O   UNL d   1      15.098  -6.928   6.481 -0.34 -1.17    -0.776    35.243
ATOM     35  H   UNL d   1      15.871  -7.447   6.743 +0.01 +0.13    +0.167    35.243
ATOM     36  C   UNL d   1      11.676  -1.654  11.886 -0.04 +0.03    +0.190    35.243
ATOM     37  O   UNL d   1      11.823  -2.984  12.293 +0.00 -0.04    -0.399    35.243
ATOM     38  H   UNL d   1      11.216  -3.504  11.695 +0.03 +0.02    +0.209    35.243
ATOM     39  C   UNL d   1       8.566  -5.179   8.157 -0.39 -0.00    +0.052    35.243
ATOM     40  C   UNL d   1       9.082  -6.395   8.945 -0.19 +0.01    +0.115    35.243
ATOM     41  C   UNL d   1      10.304  -6.116   9.794 -0.10 +0.03    +0.139    35.243
ATOM     42  O   UNL d   1      11.388  -6.563   9.447 +0.11 -0.30    -0.650    35.243
ATOM     43  O   UNL d   1      10.247  -5.312  10.879 +0.06 -0.07    -0.776    35.243
ATOM     44  H   UNL d   1      10.996  -4.774  11.167 +0.03 +0.02    +0.167    35.243
ATOM     45  C   UNL d   1      12.829   4.197  12.630 -0.05 +0.00    +0.004    35.243
ATOM     46  C   UNL d   1      12.095   5.301  12.514 -0.06 +0.01    +0.012    35.243
ATOM     47  C   UNL d   1       6.502  -0.207  13.919 -0.06 -0.00    +0.004    35.243
ATOM     48  C   UNL d   1       5.298  -0.254  13.345 -0.13 -0.00    +0.012    35.243
TER
ENDMDL
MODEL       38
USER    Run = 38
USER    Cluster Rank = 41
USER    Number of conformations in this cluster = 1
USER  
USER    RMSD from reference structure       = 35.094 A
USER  
USER    Estimated Free Energy of Binding    =   -3.29 kcal/mol  [=(1)+(2)+(3)-(4)]
USER    Estimated Inhibition Constant, Ki   =    3.87 mM (millimolar)  [Temperature = 298.15 K]
USER    
USER    (1) Final Intermolecular Energy     =   -6.87 kcal/mol
USER        vdW + Hbond + desolv Energy     =   -5.95 kcal/mol
USER        Electrostatic Energy            =   -0.92 kcal/mol
USER    (2) Final Total Internal Energy     =   -2.37 kcal/mol
USER    (3) Torsional Free Energy           =   +3.58 kcal/mol
USER    (4) Unbound System's Energy  [=(2)] =   -2.37 kcal/mol
USER    
USER    
USER  
USER    DPF = D:/Protein_go_brrr/autodock/final/mut_Y35F/heme_Co/dock.dpf
USER    NEWDPF move	heme_Co_opt.pdbqt
USER    NEWDPF about	8.781000 34.984000 -0.736000
USER    NEWDPF tran0	3.687584 2.339175 -15.925731
USER    NEWDPF axisangle0	0.895119 0.399252 -0.198391 135.388640
USER    NEWDPF quaternion0	0.828139 0.369377 -0.183546 0.379548
USER    NEWDPF dihe0	-126.32 103.31 -31.23 121.38 90.22 153.61 31.90 -157.90 109.22 140.89 16.56 32.04 
USER  
USER                              x       y       z    vdW   Elec        q     RMS 
ATOM      1  C   UNL d   1       3.143   0.248 -15.714 -0.08 +0.00    +0.064    35.094
ATOM      2  C   UNL d   1       0.535   4.203 -16.118 -0.11 -0.00    +0.064    35.094
ATOM      3  C   UNL d   1       4.494   6.874 -15.978 -0.23 -0.01    +0.064    35.094
ATOM      4  C   UNL d   1       7.203   2.833 -15.953 -0.12 -0.00    +0.064    35.094
ATOM      5  C   UNL d   1       2.138   1.134 -15.798 -0.09 +0.00    +0.066    35.094
ATOM      6  C   UNL d   1       0.795   0.730 -15.934 -0.06 -0.00    -0.021    35.094
ATOM      7  C   UNL d   1       0.045   1.881 -16.073 -0.06 -0.00    -0.025    35.094
ATOM      8  C   UNL d   1       0.959   2.938 -16.000 -0.10 -0.00    +0.066    35.094
ATOM      9  C   UNL d   1      -1.474   1.998 -16.270 -0.03 +0.00    +0.051    35.094
ATOM     10  C   UNL d   1       1.397   5.354 -16.029 -0.15 -0.00    +0.066    35.094
ATOM     11  C   UNL d   1       0.996   6.708 -16.004 -0.16 +0.00    -0.021    35.094
ATOM     12  C   UNL d   1       2.170   7.465 -15.959 -0.20 -0.00    +0.000    35.094
ATOM     13  C   UNL d   1       3.197   6.520 -15.947 -0.20 -0.01    +0.070    35.094
ATOM     14  C   UNL d   1      -0.420   7.218 -15.930 -0.11 -0.00    +0.052    35.094
ATOM     15  C   UNL d   1       5.675   6.034 -16.023 -0.28 -0.01    +0.066    35.094
ATOM     16  C   UNL d   1       6.983   6.463 -16.200 -0.23 +0.00    -0.021    35.094
ATOM     17  C   UNL d   1       7.768   5.301 -16.196 -0.22 -0.00    +0.000    35.094
ATOM     18  C   UNL d   1       6.875   4.253 -15.999 -0.26 -0.01    +0.070    35.094
ATOM     19  C   UNL d   1       7.420   7.902 -16.361 -0.18 -0.01    +0.052    35.094
ATOM     20  C   UNL d   1       6.343   1.792 -15.850 -0.18 -0.00    +0.066    35.094
ATOM     21  C   UNL d   1       6.776   0.467 -15.853 -0.14 -0.00    -0.025    35.094
ATOM     22  C   UNL d   1       5.630  -0.300 -15.755 -0.10 -0.00    -0.021    35.094
ATOM     23  C   UNL d   1       4.545   0.601 -15.710 -0.08 +0.00    +0.066    35.094
ATOM     24  C   UNL d   1       8.210  -0.043 -15.963 -0.15 -0.00    +0.051    35.094
ATOM     25  N   UNL d   1       2.262   2.504 -15.824 -0.08 -0.00    -0.248    35.094
ATOM     26  N   UNL d   1       2.726   5.244 -15.933 -0.15 +0.03    -0.248    35.094
ATOM     27  N   UNL d   1       5.635   4.724 -15.931 -0.23 +0.03    -0.248    35.094
ATOM     28  N   UNL d   1       4.972   1.868 -15.769 -0.08 -0.00    -0.248    35.094
ATOM     29 FE   UNL d   1       4.050   3.677 -15.880 -0.05 -0.00    +0.000    35.094
ATOM     30  C   UNL d   1       0.280  -0.704 -16.007 -0.03 +0.00    +0.052    35.094
ATOM     31  C   UNL d   1      -0.290  -1.140 -14.658 -0.06 +0.01    +0.115    35.094
ATOM     32  C   UNL d   1       0.790  -1.382 -13.626 -0.13 +0.03    +0.139    35.094
ATOM     33  O   UNL d   1       1.181  -2.522 -13.421 +0.00 -0.22    -0.650    35.094
ATOM     34  O   UNL d   1       1.379  -0.367 -12.951 +0.07 -0.13    -0.776    35.094
ATOM     35  H   UNL d   1       2.335  -0.258 -12.858 +0.07 +0.04    +0.167    35.094
ATOM     36  C   UNL d   1       3.951   3.524 -17.968 -0.04 -0.01    +0.190    35.094
ATOM     37  O   UNL d   1       3.202   2.968 -19.010 -0.00 +0.01    -0.399    35.094
ATOM     38  H   UNL d   1       2.562   2.346 -18.563 +0.01 -0.00    +0.209    35.094
ATOM     39  C   UNL d   1       5.582  -1.816 -15.772 -0.07 +0.01    +0.052    35.094
ATOM     40  C   UNL d   1       4.675  -2.343 -14.648 -0.13 +0.05    +0.115    35.094
ATOM     41  C   UNL d   1       4.883  -1.667 -13.309 -0.20 +0.08    +0.139    35.094
ATOM     42  O   UNL d   1       5.926  -1.066 -13.098 -0.05 -0.22    -0.650    35.094
ATOM     43  O   UNL d   1       3.910  -1.636 -12.371 -0.23 -0.65    -0.776    35.094
ATOM     44  H   UNL d   1       2.973  -1.706 -12.592 +0.06 +0.12    +0.167    35.094
ATOM     45  C   UNL d   1       2.439   8.963 -15.906 -0.21 -0.00    +0.004    35.094
ATOM     46  C   UNL d   1       2.961   9.716 -14.941 -0.32 -0.00    +0.012    35.094
ATOM     47  C   UNL d   1       9.237   5.142 -16.409 -0.26 -0.00    +0.004    35.094
ATOM     48  C   UNL d   1      10.159   5.573 -15.544 -0.35 -0.00    +0.012    35.094
TER
ENDMDL
MODEL       61
USER    Run = 61
USER    Cluster Rank = 42
USER    Number of conformations in this cluster = 1
USER  
USER    RMSD from reference structure       = 52.994 A
USER  
USER    Estimated Free Energy of Binding    =   -3.28 kcal/mol  [=(1)+(2)+(3)-(4)]
USER    Estimated Inhibition Constant, Ki   =    3.93 mM (millimolar)  [Temperature = 298.15 K]
USER    
USER    (1) Final Intermolecular Energy     =   -6.86 kcal/mol
USER        vdW + Hbond + desolv Energy     =   -5.77 kcal/mol
USER        Electrostatic Energy            =   -1.09 kcal/mol
USER    (2) Final Total Internal Energy     =   -2.69 kcal/mol
USER    (3) Torsional Free Energy           =   +3.58 kcal/mol
USER    (4) Unbound System's Energy  [=(2)] =   -2.69 kcal/mol
USER    
USER    
USER  
USER    DPF = D:/Protein_go_brrr/autodock/final/mut_Y35F/heme_Co/dock.dpf
USER    NEWDPF move	heme_Co_opt.pdbqt
USER    NEWDPF about	8.781000 34.984000 -0.736000
USER    NEWDPF tran0	1.990167 -20.177615 -1.246560
USER    NEWDPF axisangle0	0.922571 0.373097 0.098292 -159.916277
USER    NEWDPF quaternion0	0.908438 0.367381 0.096787 -0.174368
USER    NEWDPF dihe0	146.36 110.25 153.91 -108.61 121.54 137.65 -81.03 -29.17 75.12 -75.85 20.69 -10.92 
USER  
USER                              x       y       z    vdW   Elec        q     RMS 
ATOM      1  C   UNL d   1       0.672 -21.660  -0.363 -0.12 +0.02    +0.064    52.994
ATOM      2  C   UNL d   1       1.017 -19.914  -4.773 -0.10 -0.04    +0.064    52.994
ATOM      3  C   UNL d   1       4.344 -16.806  -3.323 -0.19 -0.02    +0.064    52.994
ATOM      4  C   UNL d   1       4.288 -18.831   1.101 -0.17 -0.01    +0.064    52.994
ATOM      5  C   UNL d   1       0.495 -21.387  -1.666 -0.12 +0.02    +0.066    52.994
ATOM      6  C   UNL d   1      -0.367 -22.147  -2.479 -0.14 -0.00    -0.021    52.994
ATOM      7  C   UNL d   1      -0.246 -21.651  -3.762 -0.13 +0.01    -0.025    52.994
ATOM      8  C   UNL d   1       0.672 -20.599  -3.675 -0.17 -0.02    +0.066    52.994
ATOM      9  C   UNL d   1      -0.960 -22.138  -5.033 -0.06 -0.03    +0.051    52.994
ATOM     10  C   UNL d   1       1.932 -18.801  -4.775 -0.18 -0.03    +0.066    52.994
ATOM     11  C   UNL d   1       2.227 -17.953  -5.865 -0.23 +0.01    -0.021    52.994
ATOM     12  C   UNL d   1       3.197 -17.054  -5.414 -0.25 -0.00    +0.000    52.994
ATOM     13  C   UNL d   1       3.412 -17.410  -4.082 -0.18 -0.02    +0.070    52.994
ATOM     14  C   UNL d   1       1.546 -17.960  -7.210 -0.24 -0.03    +0.052    52.994
ATOM     15  C   UNL d   1       4.733 -17.080  -1.953 -0.13 -0.02    +0.066    52.994
ATOM     16  C   UNL d   1       5.803 -16.517  -1.273 -0.19 +0.01    -0.021    52.994
ATOM     17  C   UNL d   1       5.793 -17.099   0.002 -0.18 -0.00    +0.000    52.994
ATOM     18  C   UNL d   1       4.702 -17.963   0.005 -0.09 -0.02    +0.070    52.994
ATOM     19  C   UNL d   1       6.758 -15.489  -1.838 -0.24 -0.02    +0.052    52.994
ATOM     20  C   UNL d   1       3.285 -19.741   1.097 -0.17 -0.00    +0.066    52.994
ATOM     21  C   UNL d   1       3.005 -20.543   2.201 -0.11 +0.00    -0.025    52.994
ATOM     22  C   UNL d   1       1.948 -21.349   1.818 -0.10 -0.00    -0.021    52.994
ATOM     23  C   UNL d   1       1.641 -21.004   0.485 -0.12 +0.01    +0.066    52.994
ATOM     24  C   UNL d   1       3.722 -20.556   3.548 -0.07 -0.00    +0.051    52.994
ATOM     25  N   UNL d   1       1.143 -20.409  -2.387 -0.12 -0.01    -0.248    52.994
ATOM     26  N   UNL d   1       2.606 -18.429  -3.681 -0.11 +0.06    -0.248    52.994
ATOM     27  N   UNL d   1       4.113 -17.948  -1.185 -0.10 +0.06    -0.248    52.994
ATOM     28  N   UNL d   1       2.449 -20.032   0.044 -0.12 -0.01    -0.248    52.994
ATOM     29 FE   UNL d   1       2.716 -19.107  -1.747 -0.04 -0.00    +0.000    52.994
ATOM     30  C   UNL d   1      -1.203 -23.347  -2.046 -0.09 +0.01    +0.052    52.994
ATOM     31  C   UNL d   1      -2.675 -22.959  -1.918 -0.04 +0.07    +0.115    52.994
ATOM     32  C   UNL d   1      -3.124 -22.864  -0.475 -0.02 +0.10    +0.139    52.994
ATOM     33  O   UNL d   1      -4.006 -22.074  -0.171 -0.36 -0.74    -0.650    52.994
ATOM     34  O   UNL d   1      -2.612 -23.663   0.489 +0.01 -0.23    -0.776    52.994
ATOM     35  H   UNL d   1      -2.426 -23.373   1.393 +0.02 +0.04    +0.167    52.994
ATOM     36  C   UNL d   1       4.050 -20.607  -2.350 -0.03 -0.02    +0.190    52.994
ATOM     37  O   UNL d   1       4.128 -21.966  -2.672 +0.00 +0.03    -0.399    52.994
ATOM     38  H   UNL d   1       3.208 -22.319  -2.518 +0.02 -0.01    +0.209    52.994
ATOM     39  C   UNL d   1       1.316 -22.434   2.669 -0.05 +0.00    +0.052    52.994
ATOM     40  C   UNL d   1       0.152 -21.865   3.498 -0.06 +0.01    +0.115    52.994
ATOM     41  C   UNL d   1      -1.218 -22.111   2.903 -0.07 +0.02    +0.139    52.994
ATOM     42  O   UNL d   1      -1.969 -22.912   3.441 +0.02 -0.06    -0.650    52.994
ATOM     43  O   UNL d   1      -1.668 -21.406   1.842 +0.04 -0.32    -0.776    52.994
ATOM     44  H   UNL d   1      -2.392 -21.716   1.281 +0.03 +0.10    +0.167    52.994
ATOM     45  C   UNL d   1       3.927 -15.894  -6.077 -0.26 -0.00    +0.004    52.994
ATOM     46  C   UNL d   1       5.221 -15.719  -6.335 -0.25 -0.00    +0.012    52.994
ATOM     47  C   UNL d   1       6.745 -16.924   1.139 -0.20 -0.00    +0.004    52.994
ATOM     48  C   UNL d   1       6.507 -16.127   2.184 -0.29 -0.00    +0.012    52.994
TER
ENDMDL
MODEL       15
USER    Run = 15
USER    Cluster Rank = 43
USER    Number of conformations in this cluster = 1
USER  
USER    RMSD from reference structure       = 33.704 A
USER  
USER    Estimated Free Energy of Binding    =   -3.19 kcal/mol  [=(1)+(2)+(3)-(4)]
USER    Estimated Inhibition Constant, Ki   =    4.63 mM (millimolar)  [Temperature = 298.15 K]
USER    
USER    (1) Final Intermolecular Energy     =   -6.76 kcal/mol
USER        vdW + Hbond + desolv Energy     =   -3.78 kcal/mol
USER        Electrostatic Energy            =   -2.99 kcal/mol
USER    (2) Final Total Internal Energy     =   -3.28 kcal/mol
USER    (3) Torsional Free Energy           =   +3.58 kcal/mol
USER    (4) Unbound System's Energy  [=(2)] =   -3.28 kcal/mol
USER    
USER    
USER  
USER    DPF = D:/Protein_go_brrr/autodock/final/mut_Y35F/heme_Co/dock.dpf
USER    NEWDPF move	heme_Co_opt.pdbqt
USER    NEWDPF about	8.781000 34.984000 -0.736000
USER    NEWDPF tran0	-15.812594 8.264006 7.542912
USER    NEWDPF axisangle0	0.917315 0.397745 0.018222 -118.098311
USER    NEWDPF quaternion0	0.786697 0.341110 0.015627 -0.514302
USER    NEWDPF dihe0	-8.15 92.24 -61.45 122.14 153.51 123.30 45.00 -31.47 149.95 -156.39 -155.00 165.03 
USER  
USER                              x       y       z    vdW   Elec        q     RMS 
ATOM      1  C   UNL d   1     -17.356   7.754   8.983 -0.00 +0.03    +0.064    33.704
ATOM      2  C   UNL d   1     -16.373   6.101   4.634 -0.01 +0.02    +0.064    33.704
ATOM      3  C   UNL d   1     -12.934   9.380   4.125 -0.10 +0.01    +0.064    33.704
ATOM      4  C   UNL d   1     -13.660  10.834   8.710 -0.06 +0.06    +0.064    33.704
ATOM      5  C   UNL d   1     -17.364   7.085   7.818 +0.00 +0.03    +0.066    33.704
ATOM      6  C   UNL d   1     -18.205   5.977   7.599 -0.02 -0.01    -0.021    33.704
ATOM      7  C   UNL d   1     -17.899   5.487   6.345 -0.02 -0.01    -0.025    33.704
ATOM      8  C   UNL d   1     -16.898   6.327   5.846 -0.00 +0.02    +0.066    33.704
ATOM      9  C   UNL d   1     -18.517   4.275   5.630 -0.07 +0.01    +0.051    33.704
ATOM     10  C   UNL d   1     -15.359   6.927   4.028 -0.03 +0.02    +0.066    33.704
ATOM     11  C   UNL d   1     -14.868   6.827   2.708 -0.06 -0.00    -0.021    33.704
ATOM     12  C   UNL d   1     -13.869   7.797   2.585 -0.06 +0.00    +0.000    33.704
ATOM     13  C   UNL d   1     -13.833   8.424   3.831 -0.08 +0.01    +0.070    33.704
ATOM     14  C   UNL d   1     -15.398   5.924   1.624 -0.04 +0.01    +0.052    33.704
ATOM     15  C   UNL d   1     -12.723  10.092   5.369 -0.09 +0.02    +0.066    33.704
ATOM     16  C   UNL d   1     -11.682  10.965   5.651 -0.18 -0.00    -0.021    33.704
ATOM     17  C   UNL d   1     -11.885  11.386   6.973 -0.20 +0.00    +0.000    33.704
ATOM     18  C   UNL d   1     -13.048  10.746   7.389 -0.10 +0.04    +0.070    33.704
ATOM     19  C   UNL d   1     -10.577  11.351   4.693 -0.26 +0.00    +0.052    33.704
ATOM     20  C   UNL d   1     -14.740  10.156   9.164 +0.03 +0.07    +0.066    33.704
ATOM     21  C   UNL d   1     -15.213  10.298  10.467 -0.05 -0.03    -0.025    33.704
ATOM     22  C   UNL d   1     -16.296   9.444  10.566 -0.04 -0.01    -0.021    33.704
ATOM     23  C   UNL d   1     -16.424   8.809   9.313 -0.02 +0.04    +0.066    33.704
ATOM     24  C   UNL d   1     -14.649  11.189  11.571 -0.09 +0.04    +0.051    33.704
ATOM     25  N   UNL d   1     -16.551   7.330   6.735 +0.01 -0.10    -0.248    33.704
ATOM     26  N   UNL d   1     -14.773   7.934   4.684 -0.02 -0.07    -0.248    33.704
ATOM     27  N   UNL d   1     -13.503   9.961   6.419 -0.02 -0.11    -0.248    33.704
ATOM     28  N   UNL d   1     -15.483   9.235   8.462 -0.03 -0.19    -0.248    33.704
ATOM     29 FE   UNL d   1     -14.937   8.725   6.571 -0.01 +0.00    +0.000    33.704
ATOM     30  C   UNL d   1     -19.194   5.375   8.592 -0.04 +0.01    +0.052    33.704
ATOM     31  C   UNL d   1     -18.453   4.666   9.726 -0.09 +0.04    +0.115    33.704
ATOM     32  C   UNL d   1     -17.143   4.062   9.270 -0.19 +0.10    +0.139    33.704
ATOM     33  O   UNL d   1     -17.138   2.953   8.757 -0.34 -0.48    -0.650    33.704
ATOM     34  O   UNL d   1     -15.971   4.733   9.368 -0.03 -0.92    -0.776    33.704
ATOM     35  H   UNL d   1     -15.900   5.677   9.564 +0.03 +0.17    +0.167    33.704
ATOM     36  C   UNL d   1     -13.697   7.206   7.313 -0.10 +0.19    +0.190    33.704
ATOM     37  O   UNL d   1     -13.683   6.094   8.162 -0.12 -0.62    -0.399    33.704
ATOM     38  H   UNL d   1     -14.460   6.229   8.774 +0.05 +0.30    +0.209    33.704
ATOM     39  C   UNL d   1     -17.118   9.207  11.819 -0.01 +0.02    +0.052    33.704
ATOM     40  C   UNL d   1     -16.581   7.995  12.600 -0.03 +0.06    +0.115    33.704
ATOM     41  C   UNL d   1     -15.170   7.589  12.229 -0.06 +0.17    +0.139    33.704
ATOM     42  O   UNL d   1     -14.255   7.827  13.005 -0.56 -1.00    -0.650    33.704
ATOM     43  O   UNL d   1     -14.904   6.891  11.103 -0.04 -1.13    -0.776    33.704
ATOM     44  H   UNL d   1     -15.333   6.050  10.900 +0.03 +0.19    +0.167    33.704
ATOM     45  C   UNL d   1     -12.963   8.215   1.434 -0.00 +0.00    +0.004    33.704
ATOM     46  C   UNL d   1     -12.910   9.350   0.742 -0.09 -0.00    +0.012    33.704
ATOM     47  C   UNL d   1     -11.047  12.276   7.831 -0.31 +0.00    +0.004    33.704
ATOM     48  C   UNL d   1     -11.541  13.294   8.539 -0.28 +0.00    +0.012    33.704
TER
ENDMDL
MODEL       59
USER    Run = 59
USER    Cluster Rank = 44
USER    Number of conformations in this cluster = 1
USER  
USER    RMSD from reference structure       = 24.967 A
USER  
USER    Estimated Free Energy of Binding    =   -3.08 kcal/mol  [=(1)+(2)+(3)-(4)]
USER    Estimated Inhibition Constant, Ki   =    5.54 mM (millimolar)  [Temperature = 298.15 K]
USER    
USER    (1) Final Intermolecular Energy     =   -6.66 kcal/mol
USER        vdW + Hbond + desolv Energy     =   -6.80 kcal/mol
USER        Electrostatic Energy            =   +0.14 kcal/mol
USER    (2) Final Total Internal Energy     =   -2.12 kcal/mol
USER    (3) Torsional Free Energy           =   +3.58 kcal/mol
USER    (4) Unbound System's Energy  [=(2)] =   -2.12 kcal/mol
USER    
USER    
USER  
USER    DPF = D:/Protein_go_brrr/autodock/final/mut_Y35F/heme_Co/dock.dpf
USER    NEWDPF move	heme_Co_opt.pdbqt
USER    NEWDPF about	8.781000 34.984000 -0.736000
USER    NEWDPF tran0	9.499569 12.767700 -13.331588
USER    NEWDPF axisangle0	0.700146 0.630109 0.335795 113.912803
USER    NEWDPF quaternion0	0.586902 0.528192 0.281482 0.545277
USER    NEWDPF dihe0	166.38 123.01 -156.04 127.73 67.56 139.09 -128.10 -20.05 -136.14 -81.30 180.00 -38.52 
USER  
USER                              x       y       z    vdW   Elec        q     RMS 
ATOM      1  C   UNL d   1       9.622  11.441 -15.047 -0.02 -0.00    +0.064    24.967
ATOM      2  C   UNL d   1       6.596  14.931 -13.916 -0.11 +0.00    +0.064    24.967
ATOM      3  C   UNL d   1       8.720  15.447  -9.667 -0.22 +0.00    +0.064    24.967
ATOM      4  C   UNL d   1      12.061  12.153 -10.952 -0.21 -0.02    +0.064    24.967
ATOM      5  C   UNL d   1       8.617  12.332 -15.035 -0.10 -0.00    +0.066    24.967
ATOM      6  C   UNL d   1       7.788  12.538 -16.155 -0.08 +0.00    -0.021    24.967
ATOM      7  C   UNL d   1       6.926  13.567 -15.830 -0.07 +0.00    -0.025    24.967
ATOM      8  C   UNL d   1       7.255  13.934 -14.520 -0.11 -0.00    +0.066    24.967
ATOM      9  C   UNL d   1       5.831  14.193 -16.707 -0.03 -0.00    +0.051    24.967
ATOM     10  C   UNL d   1       6.847  15.360 -12.563 -0.15 +0.00    +0.066    24.967
ATOM     11  C   UNL d   1       6.098  16.303 -11.825 -0.13 -0.00    -0.021    24.967
ATOM     12  C   UNL d   1       6.737  16.431 -10.588 -0.13 +0.00    +0.000    24.967
ATOM     13  C   UNL d   1       7.817  15.551 -10.658 -0.17 +0.01    +0.070    24.967
ATOM     14  C   UNL d   1       4.808  16.952 -12.255 -0.09 +0.00    +0.052    24.967
ATOM     15  C   UNL d   1       9.917  14.632  -9.595 -0.27 -0.00    +0.066    24.967
ATOM     16  C   UNL d   1      10.886  14.679  -8.603 -0.30 +0.00    -0.021    24.967
ATOM     17  C   UNL d   1      11.853  13.733  -8.970 -0.30 -0.00    +0.000    24.967
ATOM     18  C   UNL d   1      11.387  13.169 -10.153 -0.27 -0.01    +0.070    24.967
ATOM     19  C   UNL d   1      10.858  15.586  -7.392 -0.23 -0.00    +0.052    24.967
ATOM     20  C   UNL d   1      11.671  11.652 -12.148 -0.22 -0.01    +0.066    24.967
ATOM     21  C   UNL d   1      12.422  10.703 -12.838 -0.25 +0.01    -0.025    24.967
ATOM     22  C   UNL d   1      11.729  10.457 -14.009 -0.18 +0.00    -0.021    24.967
ATOM     23  C   UNL d   1      10.586  11.284 -13.981 +0.02 -0.00    +0.066    24.967
ATOM     24  C   UNL d   1      13.747  10.075 -12.412 -0.34 -0.02    +0.051    24.967
ATOM     25  N   UNL d   1       8.295  13.181 -14.001 -0.11 -0.00    -0.248    24.967
ATOM     26  N   UNL d   1       7.849  14.863 -11.831 -0.15 -0.01    -0.248    24.967
ATOM     27  N   UNL d   1      10.248  13.750 -10.511 -0.18 +0.03    -0.248    24.967
ATOM     28  N   UNL d   1      10.548  12.011 -12.858 +0.05 +0.02    -0.248    24.967
ATOM     29 FE   UNL d   1       9.331  13.480 -12.154 -0.05 -0.00    +0.000    24.967
ATOM     30  C   UNL d   1       7.884  11.827 -17.501 -0.04 -0.00    +0.052    24.967
ATOM     31  C   UNL d   1       8.695  12.661 -18.493 -0.01 -0.01    +0.115    24.967
ATOM     32  C   UNL d   1       9.921  13.281 -17.859 -0.01 -0.01    +0.139    24.967
ATOM     33  O   UNL d   1      11.019  12.781 -18.059 +0.00 +0.04    -0.650    24.967
ATOM     34  O   UNL d   1       9.851  14.406 -17.110 +0.01 +0.04    -0.776    24.967
ATOM     35  H   UNL d   1      10.541  14.695 -16.496 +0.00 -0.01    +0.167    24.967
ATOM     36  C   UNL d   1      10.466  14.931 -13.154 -0.04 -0.01    +0.190    24.967
ATOM     37  O   UNL d   1      10.802  15.399 -14.429 +0.00 +0.02    -0.399    24.967
ATOM     38  H   UNL d   1      10.187  14.918 -15.049 +0.02 -0.01    +0.209    24.967
ATOM     39  C   UNL d   1      12.179   9.527 -15.119 -0.17 -0.01    +0.052    24.967
ATOM     40  C   UNL d   1      12.266   8.078 -14.611 -0.28 -0.02    +0.115    24.967
ATOM     41  C   UNL d   1      11.011   7.262 -14.833 -0.28 -0.02    +0.139    24.967
ATOM     42  O   UNL d   1      11.061   6.268 -15.545 -0.01 +0.08    -0.650    24.967
ATOM     43  O   UNL d   1       9.854   7.550 -14.197 +0.06 +0.15    -0.776    24.967
ATOM     44  H   UNL d   1       9.203   6.873 -13.970 -0.49 -0.07    +0.167    24.967
ATOM     45  C   UNL d   1       6.442  17.265  -9.348 -0.18 +0.00    +0.004    24.967
ATOM     46  C   UNL d   1       6.177  16.894  -8.098 -0.31 +0.01    +0.012    24.967
ATOM     47  C   UNL d   1      13.151  13.392  -8.315 -0.30 -0.00    +0.004    24.967
ATOM     48  C   UNL d   1      13.286  13.201  -7.000 -0.37 -0.00    +0.012    24.967
TER
ENDMDL
MODEL       20
USER    Run = 20
USER    Cluster Rank = 45
USER    Number of conformations in this cluster = 1
USER  
USER    RMSD from reference structure       = 34.816 A
USER  
USER    Estimated Free Energy of Binding    =   -2.97 kcal/mol  [=(1)+(2)+(3)-(4)]
USER    Estimated Inhibition Constant, Ki   =    6.61 mM (millimolar)  [Temperature = 298.15 K]
USER    
USER    (1) Final Intermolecular Energy     =   -6.55 kcal/mol
USER        vdW + Hbond + desolv Energy     =   -5.91 kcal/mol
USER        Electrostatic Energy            =   -0.65 kcal/mol
USER    (2) Final Total Internal Energy     =   -2.27 kcal/mol
USER    (3) Torsional Free Energy           =   +3.58 kcal/mol
USER    (4) Unbound System's Energy  [=(2)] =   -2.27 kcal/mol
USER    
USER    
USER  
USER    DPF = D:/Protein_go_brrr/autodock/final/mut_Y35F/heme_Co/dock.dpf
USER    NEWDPF move	heme_Co_opt.pdbqt
USER    NEWDPF about	8.781000 34.984000 -0.736000
USER    NEWDPF tran0	0.887509 2.738181 -14.618141
USER    NEWDPF axisangle0	0.959956 -0.003789 -0.280124 134.396397
USER    NEWDPF quaternion0	0.884937 -0.003493 -0.258233 0.387545
USER    NEWDPF dihe0	-166.05 127.43 84.45 106.27 125.94 128.38 32.06 -56.75 -176.22 -140.58 -173.60 -39.67 
USER  
USER                              x       y       z    vdW   Elec        q     RMS 
ATOM      1  C   UNL d   1      -0.506   1.429 -13.589 -0.14 +0.00    +0.064    34.816
ATOM      2  C   UNL d   1      -0.563   6.103 -14.463 -0.17 -0.00    +0.064    34.816
ATOM      3  C   UNL d   1       3.808   5.837 -16.373 -0.20 -0.01    +0.064    34.816
ATOM      4  C   UNL d   1       3.732   1.002 -15.842 -0.09 +0.00    +0.064    34.816
ATOM      5  C   UNL d   1      -0.828   2.732 -13.654 -0.15 +0.00    +0.066    34.816
ATOM      6  C   UNL d   1      -2.089   3.211 -13.248 -0.14 -0.00    -0.021    34.816
ATOM      7  C   UNL d   1      -2.108   4.564 -13.525 -0.15 -0.00    -0.025    34.816
ATOM      8  C   UNL d   1      -0.854   4.855 -14.073 -0.17 -0.00    +0.066    34.816
ATOM      9  C   UNL d   1      -3.256   5.558 -13.291 -0.12 +0.00    +0.051    34.816
ATOM     10  C   UNL d   1       0.709   6.502 -15.011 -0.23 -0.01    +0.066    34.816
ATOM     11  C   UNL d   1       1.124   7.818 -15.309 -0.23 +0.00    -0.021    34.816
ATOM     12  C   UNL d   1       2.404   7.711 -15.861 -0.20 -0.00    +0.000    34.816
ATOM     13  C   UNL d   1       2.679   6.344 -15.848 -0.16 -0.01    +0.070    34.816
ATOM     14  C   UNL d   1       0.372   9.084 -14.990 -0.21 -0.00    +0.052    34.816
ATOM     15  C   UNL d   1       4.228   4.455 -16.491 -0.20 -0.00    +0.066    34.816
ATOM     16  C   UNL d   1       5.342   3.988 -17.175 -0.13 +0.00    -0.021    34.816
ATOM     17  C   UNL d   1       5.322   2.594 -17.027 -0.12 -0.00    +0.000    34.816
ATOM     18  C   UNL d   1       4.204   2.320 -16.247 -0.13 -0.00    +0.070    34.816
ATOM     19  C   UNL d   1       6.340   4.849 -17.916 -0.08 -0.00    +0.052    34.816
ATOM     20  C   UNL d   1       2.601   0.706 -15.157 -0.08 +0.00    +0.066    34.816
ATOM     21  C   UNL d   1       2.235  -0.605 -14.859 -0.10 -0.00    -0.025    34.816
ATOM     22  C   UNL d   1       1.032  -0.511 -14.184 -0.11 -0.00    -0.021    34.816
ATOM     23  C   UNL d   1       0.715   0.862 -14.114 -0.13 +0.00    +0.066    34.816
ATOM     24  C   UNL d   1       2.984  -1.886 -15.216 -0.09 +0.01    +0.051    34.816
ATOM     25  N   UNL d   1      -0.038   3.740 -14.159 -0.04 +0.00    -0.248    34.816
ATOM     26  N   UNL d   1       1.677   5.619 -15.282 -0.14 +0.03    -0.248    34.816
ATOM     27  N   UNL d   1       3.560   3.449 -15.971 -0.14 +0.01    -0.248    34.816
ATOM     28  N   UNL d   1       1.661   1.602 -14.704 -0.08 -0.01    -0.248    34.816
ATOM     29 FE   UNL d   1       1.868   3.582 -15.118 -0.04 -0.00    +0.000    34.816
ATOM     30  C   UNL d   1      -3.243   2.382 -12.698 -0.10 +0.00    +0.052    34.816
ATOM     31  C   UNL d   1      -4.138   1.886 -13.833 -0.03 +0.00    +0.115    34.816
ATOM     32  C   UNL d   1      -3.627   2.304 -15.195 -0.01 +0.00    +0.139    34.816
ATOM     33  O   UNL d   1      -4.098   3.292 -15.737 +0.01 -0.00    -0.650    34.816
ATOM     34  O   UNL d   1      -2.624   1.642 -15.819 +0.01 -0.01    -0.776    34.816
ATOM     35  H   UNL d   1      -2.182   1.956 -16.619 +0.01 +0.00    +0.167    34.816
ATOM     36  C   UNL d   1       0.817   3.340 -16.916 -0.06 -0.00    +0.190    34.816
ATOM     37  O   UNL d   1      -0.401   2.900 -17.444 -0.01 +0.00    -0.399    34.816
ATOM     38  H   UNL d   1      -1.011   2.829 -16.657 +0.02 -0.00    +0.209    34.816
ATOM     39  C   UNL d   1       0.205  -1.684 -13.693 -0.13 +0.01    +0.052    34.816
ATOM     40  C   UNL d   1       0.992  -2.509 -12.661 -0.20 +0.04    +0.115    34.816
ATOM     41  C   UNL d   1       1.917  -1.693 -11.783 -0.32 +0.07    +0.139    34.816
ATOM     42  O   UNL d   1       1.458  -1.107 -10.813 -0.08 -0.19    -0.650    34.816
ATOM     43  O   UNL d   1       3.252  -1.666 -11.991 -0.48 -0.66    -0.776    34.816
ATOM     44  H   UNL d   1       3.675  -1.009 -12.559 +0.07 +0.08    +0.167    34.816
ATOM     45  C   UNL d   1       3.400   8.740 -16.379 -0.18 -0.00    +0.004    34.816
ATOM     46  C   UNL d   1       4.454   9.298 -15.789 -0.26 -0.00    +0.012    34.816
ATOM     47  C   UNL d   1       6.236   1.561 -17.602 -0.08 -0.00    +0.004    34.816
ATOM     48  C   UNL d   1       7.178   0.934 -16.893 -0.11 -0.00    +0.012    34.816
TER
ENDMDL
MODEL       89
USER    Run = 89
USER    Cluster Rank = 46
USER    Number of conformations in this cluster = 2
USER  
USER    RMSD from reference structure       = 48.494 A
USER  
USER    Estimated Free Energy of Binding    =   -2.97 kcal/mol  [=(1)+(2)+(3)-(4)]
USER    Estimated Inhibition Constant, Ki   =    6.66 mM (millimolar)  [Temperature = 298.15 K]
USER    
USER    (1) Final Intermolecular Energy     =   -6.55 kcal/mol
USER        vdW + Hbond + desolv Energy     =   -6.54 kcal/mol
USER        Electrostatic Energy            =   -0.01 kcal/mol
USER    (2) Final Total Internal Energy     =   -4.12 kcal/mol
USER    (3) Torsional Free Energy           =   +3.58 kcal/mol
USER    (4) Unbound System's Energy  [=(2)] =   -4.12 kcal/mol
USER    
USER    
USER  
USER    DPF = D:/Protein_go_brrr/autodock/final/mut_Y35F/heme_Co/dock.dpf
USER    NEWDPF move	heme_Co_opt.pdbqt
USER    NEWDPF about	8.781000 34.984000 -0.736000
USER    NEWDPF tran0	-6.851266 -11.158391 -12.972947
USER    NEWDPF axisangle0	-0.968427 0.248549 -0.019297 -127.893477
USER    NEWDPF quaternion0	-0.870021 0.223293 -0.017337 -0.439206
USER    NEWDPF dihe0	149.90 115.02 -69.04 55.76 -98.81 106.35 -116.45 -33.80 -127.88 -146.40 -180.00 152.66 
USER  
USER                              x       y       z    vdW   Elec        q     RMS 
ATOM      1  C   UNL d   1      -8.971 -11.277 -12.515 -0.24 -0.00    +0.064    48.494
ATOM      2  C   UNL d   1      -6.000  -7.591 -12.963 -0.15 -0.00    +0.064    48.494
ATOM      3  C   UNL d   1      -2.314 -10.581 -13.518 -0.21 -0.00    +0.064    48.494
ATOM      4  C   UNL d   1      -5.383 -14.355 -13.450 -0.18 +0.00    +0.064    48.494
ATOM      5  C   UNL d   1      -8.424 -10.051 -12.561 -0.21 -0.01    +0.066    48.494
ATOM      6  C   UNL d   1      -9.207  -8.881 -12.504 -0.17 +0.00    -0.021    48.494
ATOM      7  C   UNL d   1      -8.343  -7.815 -12.657 -0.09 +0.01    -0.025    48.494
ATOM      8  C   UNL d   1      -7.068  -8.378 -12.784 -0.14 -0.01    +0.066    48.494
ATOM      9  C   UNL d   1      -8.688  -6.318 -12.686 -0.04 -0.01    +0.051    48.494
ATOM     10  C   UNL d   1      -4.648  -8.079 -13.077 -0.11 -0.00    +0.066    48.494
ATOM     11  C   UNL d   1      -3.471  -7.300 -13.124 -0.14 -0.00    -0.021    48.494
ATOM     12  C   UNL d   1      -2.412  -8.197 -13.283 -0.21 -0.00    +0.000    48.494
ATOM     13  C   UNL d   1      -3.017  -9.454 -13.306 -0.17 -0.00    +0.070    48.494
ATOM     14  C   UNL d   1      -3.381  -5.807 -12.933 -0.19 +0.00    +0.052    48.494
ATOM     15  C   UNL d   1      -2.782 -11.949 -13.625 -0.20 -0.00    +0.066    48.494
ATOM     16  C   UNL d   1      -2.022 -13.052 -13.989 -0.19 -0.00    -0.021    48.494
ATOM     17  C   UNL d   1      -2.903 -14.143 -13.974 -0.17 +0.00    +0.000    48.494
ATOM     18  C   UNL d   1      -4.131 -13.620 -13.583 -0.10 +0.00    +0.070    48.494
ATOM     19  C   UNL d   1      -0.548 -13.029 -14.326 -0.19 -0.00    +0.052    48.494
ATOM     20  C   UNL d   1      -6.606 -13.854 -13.156 -0.25 -0.00    +0.066    48.494
ATOM     21  C   UNL d   1      -7.743 -14.657 -13.092 -0.26 -0.00    -0.025    48.494
ATOM     22  C   UNL d   1      -8.788 -13.801 -12.796 -0.25 -0.00    -0.021    48.494
ATOM     23  C   UNL d   1      -8.235 -12.506 -12.705 -0.23 -0.00    +0.066    48.494
ATOM     24  C   UNL d   1      -7.833 -16.163 -13.322 -0.24 +0.01    +0.051    48.494
ATOM     25  N   UNL d   1      -7.088  -9.762 -12.722 -0.08 +0.03    -0.248    48.494
ATOM     26  N   UNL d   1      -4.363  -9.384 -13.126 -0.08 +0.01    -0.248    48.494
ATOM     27  N   UNL d   1      -4.029 -12.306 -13.414 -0.14 +0.01    -0.248    48.494
ATOM     28  N   UNL d   1      -6.915 -12.533 -12.925 -0.13 +0.03    -0.248    48.494
ATOM     29 FE   UNL d   1      -5.470 -11.112 -13.088 -0.04 -0.00    +0.000    48.494
ATOM     30  C   UNL d   1     -10.726  -8.808 -12.391 -0.21 -0.00    +0.052    48.494
ATOM     31  C   UNL d   1     -11.361  -8.644 -13.772 -0.11 -0.00    +0.115    48.494
ATOM     32  C   UNL d   1     -10.847  -9.661 -14.768 -0.06 +0.00    +0.139    48.494
ATOM     33  O   UNL d   1     -11.610 -10.505 -15.213 -0.00 -0.02    -0.650    48.494
ATOM     34  O   UNL d   1      -9.572  -9.639 -15.223 +0.03 +0.01    -0.776    48.494
ATOM     35  H   UNL d   1      -9.059 -10.429 -15.441 +0.01 -0.00    +0.167    48.494
ATOM     36  C   UNL d   1      -5.890 -10.885 -15.129 -0.02 -0.00    +0.190    48.494
ATOM     37  O   UNL d   1      -6.934 -10.901 -16.060 +0.00 -0.00    -0.399    48.494
ATOM     38  H   UNL d   1      -7.757 -11.061 -15.520 +0.02 +0.00    +0.209    48.494
ATOM     39  C   UNL d   1     -10.246 -14.202 -12.673 -0.22 +0.01    +0.052    48.494
ATOM     40  C   UNL d   1     -11.044 -13.730 -13.899 -0.11 +0.01    +0.115    48.494
ATOM     41  C   UNL d   1     -10.228 -13.611 -15.169 -0.05 +0.01    +0.139    48.494
ATOM     42  O   UNL d   1     -10.342 -14.467 -16.036 +0.01 -0.05    -0.650    48.494
ATOM     43  O   UNL d   1      -9.440 -12.540 -15.410 +0.04 -0.03    -0.776    48.494
ATOM     44  H   UNL d   1      -9.793 -11.645 -15.500 +0.02 +0.00    +0.167    48.494
ATOM     45  C   UNL d   1      -0.904  -8.014 -13.394 -0.31 +0.00    +0.004    48.494
ATOM     46  C   UNL d   1      -0.063  -7.288 -12.661 -0.38 +0.00    +0.012    48.494
ATOM     47  C   UNL d   1      -2.661 -15.570 -14.340 -0.22 +0.00    +0.004    48.494
ATOM     48  C   UNL d   1      -3.327 -16.206 -15.307 -0.19 +0.00    +0.012    48.494
TER
ENDMDL
MODEL       50
USER    Run = 50
USER    Cluster Rank = 47
USER    Number of conformations in this cluster = 1
USER  
USER    RMSD from reference structure       = 56.541 A
USER  
USER    Estimated Free Energy of Binding    =   -2.84 kcal/mol  [=(1)+(2)+(3)-(4)]
USER    Estimated Inhibition Constant, Ki   =    8.31 mM (millimolar)  [Temperature = 298.15 K]
USER    
USER    (1) Final Intermolecular Energy     =   -6.42 kcal/mol
USER        vdW + Hbond + desolv Energy     =   -5.08 kcal/mol
USER        Electrostatic Energy            =   -1.34 kcal/mol
USER    (2) Final Total Internal Energy     =   -2.20 kcal/mol
USER    (3) Torsional Free Energy           =   +3.58 kcal/mol
USER    (4) Unbound System's Energy  [=(2)] =   -2.20 kcal/mol
USER    
USER    
USER  
USER    DPF = D:/Protein_go_brrr/autodock/final/mut_Y35F/heme_Co/dock.dpf
USER    NEWDPF move	heme_Co_opt.pdbqt
USER    NEWDPF about	8.781000 34.984000 -0.736000
USER    NEWDPF tran0	-9.484985 -19.546824 -8.286696
USER    NEWDPF axisangle0	-0.144435 -0.210276 0.966914 -158.613695
USER    NEWDPF quaternion0	-0.141927 -0.206624 0.950123 -0.185549
USER    NEWDPF dihe0	-168.42 135.20 9.65 64.47 132.41 123.10 40.05 -143.84 177.07 -50.63 -166.20 -156.91 
USER  
USER                              x       y       z    vdW   Elec        q     RMS 
ATOM      1  C   UNL d   1      -7.613 -20.476  -8.879 -0.20 +0.00    +0.064    56.541
ATOM      2  C   UNL d   1      -9.247 -18.978  -4.671 -0.15 -0.00    +0.064    56.541
ATOM      3  C   UNL d   1     -13.155 -17.210  -6.776 -0.13 +0.01    +0.064    56.541
ATOM      4  C   UNL d   1     -11.692 -19.070 -11.026 -0.06 +0.00    +0.064    56.541
ATOM      5  C   UNL d   1      -7.756 -20.164  -7.580 -0.21 -0.00    +0.066    56.541
ATOM      6  C   UNL d   1      -6.828 -20.582  -6.605 -0.15 +0.00    -0.021    56.541
ATOM      7  C   UNL d   1      -7.319 -20.165  -5.384 -0.18 +0.00    -0.025    56.541
ATOM      8  C   UNL d   1      -8.515 -19.496  -5.666 -0.17 -0.00    +0.066    56.541
ATOM      9  C   UNL d   1      -6.698 -20.380  -3.995 -0.18 -0.01    +0.051    56.541
ATOM     10  C   UNL d   1     -10.476 -18.251  -4.868 -0.14 +0.00    +0.066    56.541
ATOM     11  C   UNL d   1     -11.217 -17.564  -3.882 -0.16 -0.00    -0.021    56.541
ATOM     12  C   UNL d   1     -12.349 -17.054  -4.523 -0.19 +0.00    +0.000    56.541
ATOM     13  C   UNL d   1     -12.210 -17.457  -5.852 -0.09 +0.01    +0.070    56.541
ATOM     14  C   UNL d   1     -10.802 -17.339  -2.450 -0.16 -0.00    +0.052    56.541
ATOM     15  C   UNL d   1     -13.199 -17.596  -8.173 -0.12 +0.01    +0.066    56.541
ATOM     16  C   UNL d   1     -14.272 -17.436  -9.038 -0.10 -0.00    -0.021    56.541
ATOM     17  C   UNL d   1     -13.856 -17.973 -10.264 -0.06 +0.00    +0.000    56.541
ATOM     18  C   UNL d   1     -12.551 -18.404 -10.054 -0.08 +0.01    +0.070    56.541
ATOM     19  C   UNL d   1     -15.600 -16.805  -8.680 -0.10 +0.00    +0.052    56.541
ATOM     20  C   UNL d   1     -10.452 -19.575 -10.821 -0.09 +0.01    +0.066    56.541
ATOM     21  C   UNL d   1      -9.739 -20.226 -11.825 -0.10 -0.00    -0.025    56.541
ATOM     22  C   UNL d   1      -8.547 -20.617 -11.243 -0.16 -0.00    -0.021    56.541
ATOM     23  C   UNL d   1      -8.598 -20.193  -9.898 -0.18 +0.00    +0.066    56.541
ATOM     24  C   UNL d   1     -10.179 -20.481 -13.264 -0.06 +0.01    +0.051    56.541
ATOM     25  N   UNL d   1      -8.807 -19.475  -7.019 -0.14 +0.01    -0.248    56.541
ATOM     26  N   UNL d   1     -11.050 -18.132  -6.070 -0.07 -0.01    -0.248    56.541
ATOM     27  N   UNL d   1     -12.203 -18.192  -8.790 -0.02 -0.02    -0.248    56.541
ATOM     28  N   UNL d   1      -9.750 -19.564  -9.638 -0.10 -0.00    -0.248    56.541
ATOM     29 FE   UNL d   1     -10.605 -18.796  -7.960 -0.04 +0.00    +0.000    56.541
ATOM     30  C   UNL d   1      -5.574 -21.416  -6.842 -0.10 -0.01    +0.052    56.541
ATOM     31  C   UNL d   1      -5.923 -22.902  -6.919 -0.06 -0.01    +0.115    56.541
ATOM     32  C   UNL d   1      -7.384 -23.167  -6.627 -0.02 -0.00    +0.139    56.541
ATOM     33  O   UNL d   1      -7.740 -23.371  -5.476 +0.02 +0.00    -0.650    56.541
ATOM     34  O   UNL d   1      -8.327 -23.140  -7.598 +0.03 -0.02    -0.776    56.541
ATOM     35  H   UNL d   1      -9.278 -23.202  -7.435 +0.01 +0.00    +0.167    56.541
ATOM     36  C   UNL d   1     -11.423 -20.669  -7.493 -0.03 +0.00    +0.190    56.541
ATOM     37  O   UNL d   1     -11.095 -22.018  -7.324 +0.00 -0.01    -0.399    56.541
ATOM     38  H   UNL d   1     -10.116 -22.021  -7.131 +0.02 +0.00    +0.209    56.541
ATOM     39  C   UNL d   1      -7.452 -21.412 -11.929 -0.10 +0.02    +0.052    56.541
ATOM     40  C   UNL d   1      -8.012 -22.725 -12.502 -0.08 +0.05    +0.115    56.541
ATOM     41  C   UNL d   1      -7.776 -22.910 -13.986 -0.08 +0.11    +0.139    56.541
ATOM     42  O   UNL d   1      -7.277 -21.999 -14.631 -0.48 -1.17    -0.650    56.541
ATOM     43  O   UNL d   1      -8.023 -24.087 -14.603 -0.00 -0.39    -0.776    56.541
ATOM     44  H   UNL d   1      -8.559 -24.782 -14.200 +0.01 +0.05    +0.167    56.541
ATOM     45  C   UNL d   1     -13.530 -16.223  -4.041 -0.24 +0.00    +0.004    56.541
ATOM     46  C   UNL d   1     -13.565 -15.043  -3.428 -0.31 +0.00    +0.012    56.541
ATOM     47  C   UNL d   1     -14.613 -18.133 -11.541 -0.03 +0.00    +0.004    56.541
ATOM     48  C   UNL d   1     -14.350 -17.433 -12.647 -0.03 +0.00    +0.012    56.541
TER
ENDMDL
MODEL       62
USER    Run = 62
USER    Cluster Rank = 48
USER    Number of conformations in this cluster = 1
USER  
USER    RMSD from reference structure       = 53.922 A
USER  
USER    Estimated Free Energy of Binding    =   -2.65 kcal/mol  [=(1)+(2)+(3)-(4)]
USER    Estimated Inhibition Constant, Ki   =   11.46 mM (millimolar)  [Temperature = 298.15 K]
USER    
USER    (1) Final Intermolecular Energy     =   -6.23 kcal/mol
USER        vdW + Hbond + desolv Energy     =   -5.50 kcal/mol
USER        Electrostatic Energy            =   -0.72 kcal/mol
USER    (2) Final Total Internal Energy     =   -2.09 kcal/mol
USER    (3) Torsional Free Energy           =   +3.58 kcal/mol
USER    (4) Unbound System's Energy  [=(2)] =   -2.09 kcal/mol
USER    
USER    
USER  
USER    DPF = D:/Protein_go_brrr/autodock/final/mut_Y35F/heme_Co/dock.dpf
USER    NEWDPF move	heme_Co_opt.pdbqt
USER    NEWDPF about	8.781000 34.984000 -0.736000
USER    NEWDPF tran0	0.957343 -21.085470 -0.585022
USER    NEWDPF axisangle0	-0.923190 -0.316531 -0.218010 162.690057
USER    NEWDPF quaternion0	-0.912677 -0.312926 -0.215527 0.150484
USER    NEWDPF dihe0	126.53 131.48 145.84 115.19 122.26 79.53 -178.50 -14.96 -105.67 -178.91 -10.57 176.68 
USER  
USER                              x       y       z    vdW   Elec        q     RMS 
ATOM      1  C   UNL d   1      -0.581 -22.576  -0.227 -0.07 +0.02    +0.064    53.922
ATOM      2  C   UNL d   1       0.789 -20.279  -4.159 -0.16 -0.03    +0.064    53.922
ATOM      3  C   UNL d   1       3.841 -17.640  -1.599 -0.11 -0.02    +0.064    53.922
ATOM      4  C   UNL d   1       2.739 -20.235   2.365 -0.14 -0.00    +0.064    53.922
ATOM      5  C   UNL d   1      -0.457 -22.117  -1.483 -0.09 +0.03    +0.066    53.922
ATOM      6  C   UNL d   1      -1.151 -22.698  -2.563 -0.12 -0.01    -0.021    53.922
ATOM      7  C   UNL d   1      -0.733 -22.042  -3.704 -0.14 +0.00    -0.025    53.922
ATOM      8  C   UNL d   1       0.186 -21.080  -3.271 -0.17 -0.01    +0.066    53.922
ATOM      9  C   UNL d   1      -1.170 -22.301  -5.154 -0.05 -0.03    +0.051    53.922
ATOM     10  C   UNL d   1       1.727 -19.243  -3.804 -0.19 -0.02    +0.066    53.922
ATOM     11  C   UNL d   1       2.287 -18.279  -4.671 -0.21 +0.01    -0.021    53.922
ATOM     12  C   UNL d   1       3.170 -17.520  -3.897 -0.23 -0.00    +0.000    53.922
ATOM     13  C   UNL d   1       3.074 -18.067  -2.618 -0.22 -0.01    +0.070    53.922
ATOM     14  C   UNL d   1       1.916 -18.055  -6.114 -0.27 -0.02    +0.052    53.922
ATOM     15  C   UNL d   1       3.910 -18.124  -0.234 -0.14 -0.01    +0.066    53.922
ATOM     16  C   UNL d   1       4.828 -17.735   0.732 -0.10 +0.01    -0.021    53.922
ATOM     17  C   UNL d   1       4.515 -18.482   1.876 -0.20 -0.00    +0.000    53.922
ATOM     18  C   UNL d   1       3.417 -19.259   1.522 -0.18 -0.01    +0.070    53.922
ATOM     19  C   UNL d   1       5.923 -16.710   0.538 -0.26 -0.01    +0.052    53.922
ATOM     20  C   UNL d   1       1.725 -21.063   2.017 -0.12 +0.00    +0.066    53.922
ATOM     21  C   UNL d   1       1.179 -21.985   2.906 -0.06 -0.00    -0.025    53.922
ATOM     22  C   UNL d   1       0.200 -22.655   2.195 -0.06 -0.00    -0.021    53.922
ATOM     23  C   UNL d   1       0.205 -22.111   0.893 -0.10 +0.01    +0.066    53.922
ATOM     24  C   UNL d   1       1.583 -22.232   4.357 -0.03 -0.00    +0.051    53.922
ATOM     25  N   UNL d   1       0.372 -21.100  -1.899 -0.09 -0.07    -0.248    53.922
ATOM     26  N   UNL d   1       2.160 -19.072  -2.551 -0.14 +0.03    -0.248    53.922
ATOM     27  N   UNL d   1       3.103 -19.041   0.250 -0.13 +0.01    -0.248    53.922
ATOM     28  N   UNL d   1       1.129 -21.149   0.780 -0.10 -0.04    -0.248    53.922
ATOM     29 FE   UNL d   1       1.817 -20.011  -0.758 -0.04 +0.00    +0.000    53.922
ATOM     30  C   UNL d   1      -2.108 -23.883  -2.497 -0.06 +0.01    +0.052    53.922
ATOM     31  C   UNL d   1      -3.436 -23.467  -1.866 -0.07 +0.04    +0.115    53.922
ATOM     32  C   UNL d   1      -4.267 -22.600  -2.788 -0.07 +0.05    +0.139    53.922
ATOM     33  O   UNL d   1      -4.493 -22.980  -3.928 -0.02 -0.00    -0.650    53.922
ATOM     34  O   UNL d   1      -4.813 -21.432  -2.377 +0.02 -0.73    -0.776    53.922
ATOM     35  H   UNL d   1      -4.644 -20.576  -2.794 -0.31 +0.08    +0.167    53.922
ATOM     36  C   UNL d   1       3.190 -21.506  -1.281 -0.04 -0.01    +0.190    53.922
ATOM     37  O   UNL d   1       3.559 -22.827  -1.003 +0.00 +0.01    -0.399    53.922
ATOM     38  H   UNL d   1       2.764 -23.225  -0.551 +0.01 -0.00    +0.209    53.922
ATOM     39  C   UNL d   1      -0.646 -23.798   2.725 -0.02 +0.00    +0.052    53.922
ATOM     40  C   UNL d   1       0.121 -25.127   2.636 -0.00 +0.00    +0.115    53.922
ATOM     41  C   UNL d   1       1.471 -25.025   1.957 -0.00 +0.00    +0.139    53.922
ATOM     42  O   UNL d   1       2.472 -25.388   2.559 +0.00 +0.01    -0.650    53.922
ATOM     43  O   UNL d   1       1.592 -24.625   0.672 +0.01 -0.02    -0.776    53.922
ATOM     44  H   UNL d   1       2.384 -24.186   0.337 +0.01 +0.00    +0.167    53.922
ATOM     45  C   UNL d   1       4.073 -16.336  -4.214 -0.30 -0.00    +0.004    53.922
ATOM     46  C   UNL d   1       3.958 -15.050  -3.895 -0.47 -0.00    +0.012    53.922
ATOM     47  C   UNL d   1       5.203 -18.530   3.201 -0.13 -0.00    +0.004    53.922
ATOM     48  C   UNL d   1       4.767 -17.878   4.282 -0.15 -0.00    +0.012    53.922
TER
ENDMDL
MODEL       27
USER    Run = 27
USER    Cluster Rank = 49
USER    Number of conformations in this cluster = 3
USER  
USER    RMSD from reference structure       = 32.457 A
USER  
USER    Estimated Free Energy of Binding    =   -2.60 kcal/mol  [=(1)+(2)+(3)-(4)]
USER    Estimated Inhibition Constant, Ki   =   12.35 mM (millimolar)  [Temperature = 298.15 K]
USER    
USER    (1) Final Intermolecular Energy     =   -6.18 kcal/mol
USER        vdW + Hbond + desolv Energy     =   -6.35 kcal/mol
USER        Electrostatic Energy            =   +0.17 kcal/mol
USER    (2) Final Total Internal Energy     =   -4.06 kcal/mol
USER    (3) Torsional Free Energy           =   +3.58 kcal/mol
USER    (4) Unbound System's Energy  [=(2)] =   -4.06 kcal/mol
USER    
USER    
USER  
USER    DPF = D:/Protein_go_brrr/autodock/final/mut_Y35F/heme_Co/dock.dpf
USER    NEWDPF move	heme_Co_opt.pdbqt
USER    NEWDPF about	8.781000 34.984000 -0.736000
USER    NEWDPF tran0	4.251751 5.736457 -16.075527
USER    NEWDPF axisangle0	-0.606480 -0.719756 0.337837 -129.405402
USER    NEWDPF quaternion0	-0.548320 -0.650733 0.305440 -0.427315
USER    NEWDPF dihe0	44.08 131.76 -150.31 84.47 88.88 97.19 28.85 117.36 172.42 144.31 -170.45 168.29 
USER  
USER                              x       y       z    vdW   Elec        q     RMS 
ATOM      1  C   UNL d   1       5.300   3.896 -16.555 -0.20 -0.00    +0.064    32.457
ATOM      2  C   UNL d   1       0.726   4.824 -15.646 -0.14 -0.00    +0.064    32.457
ATOM      3  C   UNL d   1       1.807   9.370 -14.650 -0.27 -0.01    +0.064    32.457
ATOM      4  C   UNL d   1       6.422   8.543 -15.946 -0.16 -0.01    +0.064    32.457
ATOM      5  C   UNL d   1       3.976   3.807 -16.345 -0.18 -0.00    +0.066    32.457
ATOM      6  C   UNL d   1       3.256   2.624 -16.603 -0.12 +0.00    -0.021    32.457
ATOM      7  C   UNL d   1       1.926   2.906 -16.359 -0.11 +0.00    -0.025    32.457
ATOM      8  C   UNL d   1       1.893   4.242 -15.948 -0.13 -0.00    +0.066    32.457
ATOM      9  C   UNL d   1       0.722   1.964 -16.505 -0.07 +0.00    +0.051    32.457
ATOM     10  C   UNL d   1       0.596   6.185 -15.189 -0.21 -0.01    +0.066    32.457
ATOM     11  C   UNL d   1      -0.581   6.811 -14.724 -0.19 +0.00    -0.021    32.457
ATOM     12  C   UNL d   1      -0.236   8.134 -14.437 -0.22 -0.00    +0.000    32.457
ATOM     13  C   UNL d   1       1.124   8.215 -14.735 -0.28 -0.01    +0.070    32.457
ATOM     14  C   UNL d   1      -1.912   6.144 -14.487 -0.14 -0.00    +0.052    32.457
ATOM     15  C   UNL d   1       3.195   9.644 -14.968 -0.28 -0.01    +0.066    32.457
ATOM     16  C   UNL d   1       3.802  10.892 -14.997 -0.24 +0.00    -0.021    32.457
ATOM     17  C   UNL d   1       5.133  10.658 -15.373 -0.22 -0.00    +0.000    32.457
ATOM     18  C   UNL d   1       5.237   9.280 -15.527 -0.14 -0.01    +0.070    32.457
ATOM     19  C   UNL d   1       3.122  12.205 -14.682 -0.17 -0.00    +0.052    32.457
ATOM     20  C   UNL d   1       6.524   7.213 -16.185 -0.23 -0.01    +0.066    32.457
ATOM     21  C   UNL d   1       7.710   6.625 -16.620 -0.18 +0.00    -0.025    32.457
ATOM     22  C   UNL d   1       7.425   5.281 -16.776 -0.19 +0.00    -0.021    32.457
ATOM     23  C   UNL d   1       6.065   5.117 -16.438 -0.23 -0.01    +0.066    32.457
ATOM     24  C   UNL d   1       9.046   7.313 -16.892 -0.14 -0.01    +0.051    32.457
ATOM     25  N   UNL d   1       3.150   4.824 -15.924 -0.16 +0.02    -0.248    32.457
ATOM     26  N   UNL d   1       1.638   7.022 -15.136 -0.17 +0.05    -0.248    32.457
ATOM     27  N   UNL d   1       4.057   8.711 -15.307 -0.18 +0.06    -0.248    32.457
ATOM     28  N   UNL d   1       5.515   6.284 -16.082 -0.20 +0.05    -0.248    32.457
ATOM     29 FE   UNL d   1       3.634   6.882 -15.597 -0.06 -0.00    +0.000    32.457
ATOM     30  C   UNL d   1       3.823   1.313 -17.138 -0.07 +0.00    +0.052    32.457
ATOM     31  C   UNL d   1       3.867   1.331 -18.666 -0.02 -0.00    +0.115    32.457
ATOM     32  C   UNL d   1       3.139   2.522 -19.250 -0.01 -0.00    +0.139    32.457
ATOM     33  O   UNL d   1       2.011   2.377 -19.697 +0.00 +0.01    -0.650    32.457
ATOM     34  O   UNL d   1       3.679   3.763 -19.252 +0.02 +0.03    -0.776    32.457
ATOM     35  H   UNL d   1       4.611   3.950 -19.432 +0.01 -0.01    +0.167    32.457
ATOM     36  C   UNL d   1       3.185   7.192 -17.622 -0.06 -0.02    +0.190    32.457
ATOM     37  O   UNL d   1       3.529   6.783 -18.914 -0.00 +0.02    -0.399    32.457
ATOM     38  H   UNL d   1       4.000   5.912 -18.791 +0.02 -0.01    +0.209    32.457
ATOM     39  C   UNL d   1       8.393   4.229 -17.285 -0.16 -0.00    +0.052    32.457
ATOM     40  C   UNL d   1       8.299   4.101 -18.814 -0.05 -0.01    +0.115    32.457
ATOM     41  C   UNL d   1       6.887   4.147 -19.360 -0.02 -0.01    +0.139    32.457
ATOM     42  O   UNL d   1       6.356   3.111 -19.733 +0.01 +0.03    -0.650    32.457
ATOM     43  O   UNL d   1       6.165   5.289 -19.365 +0.02 +0.05    -0.776    32.457
ATOM     44  H   UNL d   1       5.211   5.301 -19.209 +0.01 -0.01    +0.167    32.457
ATOM     45  C   UNL d   1      -1.026   9.320 -13.900 -0.23 -0.00    +0.004    32.457
ATOM     46  C   UNL d   1      -1.445   9.596 -12.667 -0.25 -0.00    +0.012    32.457
ATOM     47  C   UNL d   1       6.236  11.631 -15.628 -0.18 -0.00    +0.004    32.457
ATOM     48  C   UNL d   1       6.788  12.387 -14.675 -0.21 +0.00    +0.012    32.457
TER
ENDMDL
MODEL       74
USER    Run = 74
USER    Cluster Rank = 50
USER    Number of conformations in this cluster = 1
USER  
USER    RMSD from reference structure       = 24.446 A
USER  
USER    Estimated Free Energy of Binding    =   -2.48 kcal/mol  [=(1)+(2)+(3)-(4)]
USER    Estimated Inhibition Constant, Ki   =   15.20 mM (millimolar)  [Temperature = 298.15 K]
USER    
USER    (1) Final Intermolecular Energy     =   -6.06 kcal/mol
USER        vdW + Hbond + desolv Energy     =   -5.21 kcal/mol
USER        Electrostatic Energy            =   -0.85 kcal/mol
USER    (2) Final Total Internal Energy     =   -2.31 kcal/mol
USER    (3) Torsional Free Energy           =   +3.58 kcal/mol
USER    (4) Unbound System's Energy  [=(2)] =   -2.31 kcal/mol
USER    
USER    
USER  
USER    DPF = D:/Protein_go_brrr/autodock/final/mut_Y35F/heme_Co/dock.dpf
USER    NEWDPF move	heme_Co_opt.pdbqt
USER    NEWDPF about	8.781000 34.984000 -0.736000
USER    NEWDPF tran0	0.610728 13.759257 -12.115038
USER    NEWDPF axisangle0	0.309221 -0.950944 0.009412 -154.638800
USER    NEWDPF quaternion0	0.301678 -0.927749 0.009183 -0.219516
USER    NEWDPF dihe0	-163.66 114.32 44.45 96.00 -94.33 139.79 29.29 -15.43 -176.47 99.40 -176.52 -4.13 
USER  
USER                              x       y       z    vdW   Elec        q     RMS 
ATOM      1  C   UNL d   1       2.067  15.370 -12.088 -0.18 +0.00    +0.064    24.446
ATOM      2  C   UNL d   1       1.158  11.936 -15.250 -0.13 -0.00    +0.064    24.446
ATOM      3  C   UNL d   1      -2.069  10.017 -12.294 -0.20 -0.00    +0.064    24.446
ATOM      4  C   UNL d   1      -1.437  13.730  -9.215 -0.19 -0.01    +0.064    24.446
ATOM      5  C   UNL d   1       2.082  14.552 -13.154 -0.15 -0.00    +0.066    24.446
ATOM      6  C   UNL d   1       2.866  14.822 -14.292 -0.10 +0.00    -0.021    24.446
ATOM      7  C   UNL d   1       2.581  13.835 -15.215 -0.09 +0.00    -0.025    24.446
ATOM      8  C   UNL d   1       1.648  12.997 -14.595 -0.12 -0.00    +0.066    24.446
ATOM      9  C   UNL d   1       3.156  13.674 -16.631 -0.04 -0.00    +0.051    24.446
ATOM     10  C   UNL d   1       0.215  11.004 -14.684 -0.13 -0.00    +0.066    24.446
ATOM     11  C   UNL d   1      -0.230   9.797 -15.266 -0.12 +0.00    -0.021    24.446
ATOM     12  C   UNL d   1      -1.167   9.256 -14.381 -0.16 -0.00    +0.000    24.446
ATOM     13  C   UNL d   1      -1.215  10.163 -13.323 -0.17 -0.00    +0.070    24.446
ATOM     14  C   UNL d   1       0.289   9.174 -16.536 -0.07 -0.00    +0.052    24.446
ATOM     15  C   UNL d   1      -2.287  10.881 -11.150 -0.19 -0.01    +0.066    24.446
ATOM     16  C   UNL d   1      -3.287  10.748 -10.198 -0.23 +0.00    -0.021    24.446
ATOM     17  C   UNL d   1      -3.111  11.818  -9.309 -0.24 -0.00    +0.000    24.446
ATOM     18  C   UNL d   1      -2.002  12.512  -9.782 -0.20 -0.01    +0.070    24.446
ATOM     19  C   UNL d   1      -4.332   9.654 -10.170 -0.23 -0.00    +0.052    24.446
ATOM     20  C   UNL d   1      -0.414  14.470  -9.706 -0.20 -0.01    +0.066    24.446
ATOM     21  C   UNL d   1       0.017  15.644  -9.091 -0.15 +0.00    -0.025    24.446
ATOM     22  C   UNL d   1       1.045  16.123  -9.881 -0.16 +0.00    -0.021    24.446
ATOM     23  C   UNL d   1       1.184  15.217 -10.954 -0.21 -0.00    +0.066    24.446
ATOM     24  C   UNL d   1      -0.538  16.288  -7.823 -0.10 -0.01    +0.051    24.446
ATOM     25  N   UNL d   1       1.325  13.414 -13.315 -0.07 +0.01    -0.248    24.446
ATOM     26  N   UNL d   1      -0.337  11.190 -13.481 -0.01 +0.01    -0.248    24.446
ATOM     27  N   UNL d   1      -1.556  11.943 -10.896 -0.05 +0.03    -0.248    24.446
ATOM     28  N   UNL d   1       0.301  14.217 -10.853 -0.19 +0.02    -0.248    24.446
ATOM     29 FE   UNL d   1      -0.200  12.637 -12.032 -0.06 -0.00    +0.000    24.446
ATOM     30  C   UNL d   1       3.782  16.023 -14.502 -0.05 -0.00    +0.052    24.446
ATOM     31  C   UNL d   1       3.031  17.155 -15.202 -0.01 -0.00    +0.115    24.446
ATOM     32  C   UNL d   1       1.581  16.810 -15.465 -0.01 -0.00    +0.139    24.446
ATOM     33  O   UNL d   1       1.244  16.443 -16.581 +0.00 +0.02    -0.650    24.446
ATOM     34  O   UNL d   1       0.645  16.847 -14.488 +0.02 +0.03    -0.776    24.446
ATOM     35  H   UNL d   1      -0.244  16.477 -14.572 +0.01 -0.01    +0.167    24.446
ATOM     36  C   UNL d   1      -1.550  13.833 -13.100 -0.07 -0.01    +0.190    24.446
ATOM     37  O   UNL d   1      -1.623  14.904 -13.996 -0.00 +0.02    -0.399    24.446
ATOM     38  H   UNL d   1      -0.673  15.152 -14.176 +0.02 -0.01    +0.209    24.446
ATOM     39  C   UNL d   1       1.805  17.416  -9.648 -0.09 +0.00    +0.052    24.446
ATOM     40  C   UNL d   1       3.126  17.144  -8.910 -0.17 +0.02    +0.115    24.446
ATOM     41  C   UNL d   1       3.002  17.102  -7.402 -0.12 +0.07    +0.139    24.446
ATOM     42  O   UNL d   1       3.357  16.099  -6.799 +0.04 -0.46    -0.650    24.446
ATOM     43  O   UNL d   1       2.591  18.177  -6.693 -0.17 -0.54    -0.776    24.446
ATOM     44  H   UNL d   1       1.787  18.666  -6.911 +0.02 +0.05    +0.167    24.446
ATOM     45  C   UNL d   1      -2.004   7.984 -14.405 -0.14 -0.00    +0.004    24.446
ATOM     46  C   UNL d   1      -1.725   6.755 -13.979 -0.16 -0.00    +0.012    24.446
ATOM     47  C   UNL d   1      -3.929  12.220  -8.126 -0.06 -0.00    +0.004    24.446
ATOM     48  C   UNL d   1      -4.598  13.373  -8.051 -0.14 -0.01    +0.012    24.446
TER
ENDMDL
MODEL       93
USER    Run = 93
USER    Cluster Rank = 51
USER    Number of conformations in this cluster = 1
USER  
USER    RMSD from reference structure       = 39.395 A
USER  
USER    Estimated Free Energy of Binding    =   -2.32 kcal/mol  [=(1)+(2)+(3)-(4)]
USER    Estimated Inhibition Constant, Ki   =   19.77 mM (millimolar)  [Temperature = 298.15 K]
USER    
USER    (1) Final Intermolecular Energy     =   -5.90 kcal/mol
USER        vdW + Hbond + desolv Energy     =   -3.83 kcal/mol
USER        Electrostatic Energy            =   -2.08 kcal/mol
USER    (2) Final Total Internal Energy     =   -2.70 kcal/mol
USER    (3) Torsional Free Energy           =   +3.58 kcal/mol
USER    (4) Unbound System's Energy  [=(2)] =   -2.70 kcal/mol
USER    
USER    
USER  
USER    DPF = D:/Protein_go_brrr/autodock/final/mut_Y35F/heme_Co/dock.dpf
USER    NEWDPF move	heme_Co_opt.pdbqt
USER    NEWDPF about	8.781000 34.984000 -0.736000
USER    NEWDPF tran0	-16.506701 3.679464 13.111614
USER    NEWDPF axisangle0	0.150148 -0.930881 -0.333039 -121.475526
USER    NEWDPF quaternion0	0.130988 -0.812093 -0.290541 -0.488808
USER    NEWDPF dihe0	46.63 103.97 36.07 111.15 -89.66 139.24 37.45 100.41 177.67 88.21 -176.32 -178.20 
USER  
USER                              x       y       z    vdW   Elec        q     RMS 
ATOM      1  C   UNL d   1     -14.788   4.746  12.322 -0.18 +0.06    +0.064    39.395
ATOM      2  C   UNL d   1     -18.841   3.285  10.311 -0.18 +0.02    +0.064    39.395
ATOM      3  C   UNL d   1     -20.104   1.090  14.362 -0.06 +0.00    +0.064    39.395
ATOM      4  C   UNL d   1     -16.155   2.894  16.556 -0.05 +0.01    +0.064    39.395
ATOM      5  C   UNL d   1     -15.785   4.478  11.464 -0.13 +0.06    +0.066    39.395
ATOM      6  C   UNL d   1     -15.818   5.017  10.163 -0.16 -0.02    -0.021    39.395
ATOM      7  C   UNL d   1     -17.007   4.608   9.592 -0.16 -0.02    -0.025    39.395
ATOM      8  C   UNL d   1     -17.641   3.825  10.562 -0.16 +0.03    +0.066    39.395
ATOM      9  C   UNL d   1     -17.540   4.936   8.189 -0.11 +0.03    +0.051    39.395
ATOM     10  C   UNL d   1     -19.558   2.444  11.236 -0.14 +0.01    +0.066    39.395
ATOM     11  C   UNL d   1     -20.752   1.735  10.982 -0.13 -0.00    -0.021    39.395
ATOM     12  C   UNL d   1     -21.095   1.100  12.179 -0.09 +0.00    +0.000    39.395
ATOM     13  C   UNL d   1     -20.082   1.458  13.069 -0.09 +0.00    +0.070    39.395
ATOM     14  C   UNL d   1     -21.447   1.608   9.651 -0.11 +0.00    +0.052    39.395
ATOM     15  C   UNL d   1     -19.174   1.411  15.426 -0.05 +0.00    +0.066    39.395
ATOM     16  C   UNL d   1     -19.332   1.120  16.773 -0.03 -0.00    -0.021    39.395
ATOM     17  C   UNL d   1     -18.196   1.640  17.411 -0.03 +0.00    +0.000    39.395
ATOM     18  C   UNL d   1     -17.424   2.195  16.395 -0.05 +0.01    +0.070    39.395
ATOM     19  C   UNL d   1     -20.508   0.389  17.381 -0.01 +0.00    +0.052    39.395
ATOM     20  C   UNL d   1     -15.430   3.516  15.596 -0.06 +0.01    +0.066    39.395
ATOM     21  C   UNL d   1     -14.241   4.185  15.879 -0.06 -0.01    -0.025    39.395
ATOM     22  C   UNL d   1     -13.809   4.705  14.673 -0.11 -0.01    -0.021    39.395
ATOM     23  C   UNL d   1     -14.769   4.334  13.708 -0.12 +0.04    +0.066    39.395
ATOM     24  C   UNL d   1     -13.560   4.340  17.236 -0.05 +0.01    +0.051    39.395
ATOM     25  N   UNL d   1     -16.905   3.722  11.729 -0.10 -0.13    -0.248    39.395
ATOM     26  N   UNL d   1     -19.124   2.224  12.482 -0.08 -0.03    -0.248    39.395
ATOM     27  N   UNL d   1     -18.052   2.067  15.231 +0.04 -0.03    -0.248    39.395
ATOM     28  N   UNL d   1     -15.753   3.616  14.263 -0.04 -0.08    -0.248    39.395
ATOM     29 FE   UNL d   1     -17.509   2.846  13.586 -0.03 +0.00    +0.000    39.395
ATOM     30  C   UNL d   1     -14.784   5.949   9.539 -0.17 +0.08    +0.052    39.395
ATOM     31  C   UNL d   1     -15.173   7.410   9.765 -0.08 +0.15    +0.115    39.395
ATOM     32  C   UNL d   1     -16.516   7.551  10.449 -0.04 +0.10    +0.139    39.395
ATOM     33  O   UNL d   1     -17.526   7.664   9.771 +0.03 -0.28    -0.650    39.395
ATOM     34  O   UNL d   1     -16.643   7.507  11.795 +0.03 -0.47    -0.776    39.395
ATOM     35  H   UNL d   1     -16.043   7.948  12.413 +0.02 +0.12    +0.167    39.395
ATOM     36  C   UNL d   1     -18.486   4.656  13.992 -0.03 +0.03    +0.190    39.395
ATOM     37  O   UNL d   1     -18.567   5.993  13.590 +0.00 -0.08    -0.399    39.395
ATOM     38  H   UNL d   1     -17.809   6.116  12.952 +0.02 +0.06    +0.209    39.395
ATOM     39  C   UNL d   1     -12.575   5.565  14.477 -0.18 +0.03    +0.052    39.395
ATOM     40  C   UNL d   1     -12.834   7.004  14.954 -0.12 +0.07    +0.115    39.395
ATOM     41  C   UNL d   1     -13.208   7.970  13.849 +0.00 +0.17    +0.139    39.395
ATOM     42  O   UNL d   1     -12.518   8.962  13.663 -0.18 -0.97    -0.650    39.395
ATOM     43  O   UNL d   1     -14.234   7.722  13.005 -0.54 -1.18    -0.776    39.395
ATOM     44  H   UNL d   1     -15.080   7.366  13.307 +0.02 +0.14    +0.167    39.395
ATOM     45  C   UNL d   1     -22.247   0.187  12.576 -0.04 +0.00    +0.004    39.395
ATOM     46  C   UNL d   1     -22.289  -1.132  12.743 -0.03 -0.00    +0.012    39.395
ATOM     47  C   UNL d   1     -17.851   1.679  18.863 -0.01 +0.00    +0.004    39.395
ATOM     48  C   UNL d   1     -17.808   2.805  19.581 -0.00 +0.00    +0.012    39.395
TER
ENDMDL
MODEL       14
USER    Run = 14
USER    Cluster Rank = 52
USER    Number of conformations in this cluster = 1
USER  
USER    RMSD from reference structure       = 21.417 A
USER  
USER    Estimated Free Energy of Binding    =   -2.09 kcal/mol  [=(1)+(2)+(3)-(4)]
USER    Estimated Inhibition Constant, Ki   =   29.47 mM (millimolar)  [Temperature = 298.15 K]
USER    
USER    (1) Final Intermolecular Energy     =   -5.67 kcal/mol
USER        vdW + Hbond + desolv Energy     =   -5.69 kcal/mol
USER        Electrostatic Energy            =   +0.02 kcal/mol
USER    (2) Final Total Internal Energy     =   -3.80 kcal/mol
USER    (3) Torsional Free Energy           =   +3.58 kcal/mol
USER    (4) Unbound System's Energy  [=(2)] =   -3.80 kcal/mol
USER    
USER    
USER  
USER    DPF = D:/Protein_go_brrr/autodock/final/mut_Y35F/heme_Co/dock.dpf
USER    NEWDPF move	heme_Co_opt.pdbqt
USER    NEWDPF about	8.781000 34.984000 -0.736000
USER    NEWDPF tran0	4.136140 15.848976 -11.092810
USER    NEWDPF axisangle0	-0.867886 0.476699 -0.139760 -81.549315
USER    NEWDPF quaternion0	-0.566804 0.311325 -0.091275 -0.757284
USER    NEWDPF dihe0	151.44 122.60 -66.62 115.53 161.76 99.86 -121.49 -13.75 -128.20 -177.83 -173.34 -179.74 
USER  
USER                              x       y       z    vdW   Elec        q     RMS 
ATOM      1  C   UNL d   1       2.013  16.288 -10.976 -0.14 +0.00    +0.064    21.417
ATOM      2  C   UNL d   1       5.725  17.757  -8.394 -0.19 +0.03    +0.064    21.417
ATOM      3  C   UNL d   1       8.617  14.821 -10.811 -0.22 +0.00    +0.064    21.417
ATOM      4  C   UNL d   1       4.915  13.589 -13.718 -0.21 +0.00    +0.064    21.417
ATOM      5  C   UNL d   1       2.808  16.878 -10.069 -0.13 +0.01    +0.066    21.417
ATOM      6  C   UNL d   1       2.334  17.880  -9.199 -0.08 -0.00    -0.021    21.417
ATOM      7  C   UNL d   1       3.421  18.319  -8.468 -0.10 -0.01    -0.025    21.417
ATOM      8  C   UNL d   1       4.506  17.556  -8.911 -0.16 +0.02    +0.066    21.417
ATOM      9  C   UNL d   1       3.452  19.414  -7.391 -0.06 +0.02    +0.051    21.417
ATOM     10  C   UNL d   1       6.895  17.003  -8.768 -0.20 +0.02    +0.066    21.417
ATOM     11  C   UNL d   1       8.170  17.069  -8.165 -0.22 -0.00    -0.021    21.417
ATOM     12  C   UNL d   1       8.993  16.200  -8.887 -0.23 +0.00    +0.000    21.417
ATOM     13  C   UNL d   1       8.159  15.660  -9.866 -0.14 +0.01    +0.070    21.417
ATOM     14  C   UNL d   1       8.531  17.845  -6.924 -0.14 +0.01    +0.052    21.417
ATOM     15  C   UNL d   1       7.911  14.213 -11.922 -0.25 +0.00    +0.066    21.417
ATOM     16  C   UNL d   1       8.476  13.469 -12.949 -0.22 -0.00    -0.021    21.417
ATOM     17  C   UNL d   1       7.413  13.114 -13.791 -0.21 +0.00    +0.000    21.417
ATOM     18  C   UNL d   1       6.276  13.656 -13.200 -0.29 +0.00    +0.070    21.417
ATOM     19  C   UNL d   1       9.945  13.139 -13.086 -0.14 -0.00    +0.052    21.417
ATOM     20  C   UNL d   1       3.809  14.181 -13.207 -0.13 +0.00    +0.066    21.417
ATOM     21  C   UNL d   1       2.560  14.073 -13.815 -0.15 +0.00    -0.025    21.417
ATOM     22  C   UNL d   1       1.698  14.818 -13.031 -0.16 +0.00    -0.021    21.417
ATOM     23  C   UNL d   1       2.472  15.357 -11.982 -0.19 +0.00    +0.066    21.417
ATOM     24  C   UNL d   1       2.209  13.315 -15.092 -0.12 -0.00    +0.051    21.417
ATOM     25  N   UNL d   1       4.155  16.651  -9.898 -0.09 -0.04    -0.248    21.417
ATOM     26  N   UNL d   1       6.878  16.104  -9.758 -0.05 -0.05    -0.248    21.417
ATOM     27  N   UNL d   1       6.615  14.329 -12.106 -0.22 -0.02    -0.248    21.417
ATOM     28  N   UNL d   1       3.751  14.976 -12.086 -0.16 -0.02    -0.248    21.417
ATOM     29 FE   UNL d   1       5.455  15.420 -11.069 -0.06 +0.00    +0.000    21.417
ATOM     30  C   UNL d   1       0.916  18.439  -9.142 -0.03 +0.00    +0.052    21.417
ATOM     31  C   UNL d   1       0.765  19.621 -10.099 -0.00 -0.00    +0.115    21.417
ATOM     32  C   UNL d   1       1.274  19.306 -11.489 -0.00 -0.00    +0.139    21.417
ATOM     33  O   UNL d   1       0.476  19.172 -12.405 +0.00 +0.02    -0.650    21.417
ATOM     34  O   UNL d   1       2.596  19.215 -11.766 +0.02 -0.00    -0.776    21.417
ATOM     35  H   UNL d   1       2.973  18.620 -12.429 +0.01 +0.00    +0.167    21.417
ATOM     36  C   UNL d   1       5.768  17.100 -12.283 -0.05 +0.01    +0.190    21.417
ATOM     37  O   UNL d   1       5.101  18.066 -13.043 -0.00 -0.00    -0.399    21.417
ATOM     38  H   UNL d   1       4.135  17.940 -12.827 +0.02 +0.00    +0.209    21.417
ATOM     39  C   UNL d   1       0.226  15.047 -13.317 -0.09 -0.00    +0.052    21.417
ATOM     40  C   UNL d   1       0.045  16.120 -14.403 -0.02 -0.00    +0.115    21.417
ATOM     41  C   UNL d   1       1.336  16.754 -14.877 -0.01 -0.00    +0.139    21.417
ATOM     42  O   UNL d   1       1.611  16.734 -16.068 +0.00 +0.02    -0.650    21.417
ATOM     43  O   UNL d   1       2.153  17.419 -14.030 +0.02 +0.02    -0.776    21.417
ATOM     44  H   UNL d   1       1.866  18.200 -13.538 +0.01 -0.00    +0.167    21.417
ATOM     45  C   UNL d   1      10.458  15.806  -8.753 -0.22 -0.00    +0.004    21.417
ATOM     46  C   UNL d   1      11.015  14.678  -8.322 -0.35 -0.00    +0.012    21.417
ATOM     47  C   UNL d   1       7.429  12.369 -15.085 -0.16 +0.00    +0.004    21.417
ATOM     48  C   UNL d   1       6.510  11.461 -15.424 -0.17 -0.00    +0.012    21.417
TER
ENDMDL
MODEL       17
USER    Run = 17
USER    Cluster Rank = 53
USER    Number of conformations in this cluster = 1
USER  
USER    RMSD from reference structure       = 55.249 A
USER  
USER    Estimated Free Energy of Binding    =   -1.89 kcal/mol  [=(1)+(2)+(3)-(4)]
USER    Estimated Inhibition Constant, Ki   =   41.48 mM (millimolar)  [Temperature = 298.15 K]
USER    
USER    (1) Final Intermolecular Energy     =   -5.47 kcal/mol
USER        vdW + Hbond + desolv Energy     =   -5.24 kcal/mol
USER        Electrostatic Energy            =   -0.22 kcal/mol
USER    (2) Final Total Internal Energy     =   -3.82 kcal/mol
USER    (3) Torsional Free Energy           =   +3.58 kcal/mol
USER    (4) Unbound System's Energy  [=(2)] =   -3.82 kcal/mol
USER    
USER    
USER  
USER    DPF = D:/Protein_go_brrr/autodock/final/mut_Y35F/heme_Co/dock.dpf
USER    NEWDPF move	heme_Co_opt.pdbqt
USER    NEWDPF about	8.781000 34.984000 -0.736000
USER    NEWDPF tran0	-9.563807 -19.036190 1.004041
USER    NEWDPF axisangle0	0.273012 0.552215 -0.787733 164.032681
USER    NEWDPF quaternion0	0.270366 0.546863 -0.780098 0.138891
USER    NEWDPF dihe0	54.18 120.57 -139.47 108.67 106.91 103.17 29.34 115.81 -180.00 135.79 -171.20 -179.91 
USER  
USER                              x       y       z    vdW   Elec        q     RMS 
ATOM      1  C   UNL d   1      -7.459 -19.548   0.846 -0.00 +0.01    +0.064    55.249
ATOM      2  C   UNL d   1     -10.839 -20.842   3.930 -0.07 -0.00    +0.064    55.249
ATOM      3  C   UNL d   1     -13.931 -17.846   1.858 -0.22 -0.00    +0.064    55.249
ATOM      4  C   UNL d   1     -10.613 -16.794  -1.541 -0.17 +0.00    +0.064    55.249
ATOM      5  C   UNL d   1      -8.145 -20.094   1.863 -0.06 +0.00    +0.066    55.249
ATOM      6  C   UNL d   1      -7.592 -21.098   2.683 -0.06 -0.00    -0.021    55.249
ATOM      7  C   UNL d   1      -8.584 -21.486   3.562 -0.04 -0.00    -0.025    55.249
ATOM      8  C   UNL d   1      -9.694 -20.692   3.252 -0.06 -0.00    +0.066    55.249
ATOM      9  C   UNL d   1      -8.506 -22.561   4.656 -0.01 +0.00    +0.051    55.249
ATOM     10  C   UNL d   1     -12.023 -20.054   3.700 -0.06 +0.00    +0.066    55.249
ATOM     11  C   UNL d   1     -13.207 -20.065   4.468 -0.07 -0.00    -0.021    55.249
ATOM     12  C   UNL d   1     -14.090 -19.180   3.844 -0.12 +0.00    +0.000    55.249
ATOM     13  C   UNL d   1     -13.377 -18.686   2.752 -0.13 +0.00    +0.070    55.249
ATOM     14  C   UNL d   1     -13.424 -20.807   5.762 -0.05 +0.00    +0.052    55.249
ATOM     15  C   UNL d   1     -13.360 -17.282   0.651 -0.21 -0.00    +0.066    55.249
ATOM     16  C   UNL d   1     -14.033 -16.537  -0.307 -0.21 +0.00    -0.021    55.249
ATOM     17  C   UNL d   1     -13.081 -16.233  -1.291 -0.19 -0.00    +0.000    55.249
ATOM     18  C   UNL d   1     -11.894 -16.805  -0.845 -0.14 -0.00    +0.070    55.249
ATOM     19  C   UNL d   1     -15.496 -16.158  -0.255 -0.10 -0.00    +0.052    55.249
ATOM     20  C   UNL d   1      -9.468 -17.416  -1.170 -0.18 +0.00    +0.066    55.249
ATOM     21  C   UNL d   1      -8.309 -17.362  -1.941 -0.23 +0.00    -0.025    55.249
ATOM     22  C   UNL d   1      -7.375 -18.123  -1.263 -0.22 -0.00    -0.021    55.249
ATOM     23  C   UNL d   1      -8.018 -18.617  -0.109 -0.14 +0.01    +0.066    55.249
ATOM     24  C   UNL d   1      -8.108 -16.638  -3.269 -0.31 -0.01    +0.051    55.249
ATOM     25  N   UNL d   1      -9.448 -19.817   2.207 -0.06 +0.00    -0.248    55.249
ATOM     26  N   UNL d   1     -12.109 -19.172   2.698 -0.07 +0.00    -0.248    55.249
ATOM     27  N   UNL d   1     -12.105 -17.447   0.298 -0.12 +0.01    -0.248    55.249
ATOM     28  N   UNL d   1      -9.287 -18.194  -0.050 -0.10 -0.00    -0.248    55.249
ATOM     29 FE   UNL d   1     -10.853 -18.561   1.194 -0.03 -0.00    +0.000    55.249
ATOM     30  C   UNL d   1      -6.198 -21.705   2.563 -0.06 +0.01    +0.052    55.249
ATOM     31  C   UNL d   1      -6.204 -22.874   1.579 -0.02 +0.02    +0.115    55.249
ATOM     32  C   UNL d   1      -7.584 -23.152   1.021 -0.00 +0.01    +0.139    55.249
ATOM     33  O   UNL d   1      -8.247 -24.067   1.486 +0.01 -0.02    -0.650    55.249
ATOM     34  O   UNL d   1      -8.133 -22.385   0.050 +0.03 -0.06    -0.776    55.249
ATOM     35  H   UNL d   1      -7.685 -22.149  -0.774 +0.01 +0.02    +0.167    55.249
ATOM     36  C   UNL d   1     -11.381 -20.249   0.069 -0.02 -0.00    +0.190    55.249
ATOM     37  O   UNL d   1     -10.847 -21.278  -0.714 +0.00 -0.00    -0.399    55.249
ATOM     38  H   UNL d   1      -9.858 -21.190  -0.613 +0.02 +0.00    +0.209    55.249
ATOM     39  C   UNL d   1      -5.962 -18.410  -1.738 -0.35 +0.01    +0.052    55.249
ATOM     40  C   UNL d   1      -5.963 -19.509  -2.812 -0.12 -0.00    +0.115    55.249
ATOM     41  C   UNL d   1      -6.746 -20.749  -2.437 -0.11 +0.02    +0.139    55.249
ATOM     42  O   UNL d   1      -6.143 -21.769  -2.132 -0.06 -0.20    -0.650    55.249
ATOM     43  O   UNL d   1      -8.094 -20.737  -2.344 +0.06 -0.04    -0.776    55.249
ATOM     44  H   UNL d   1      -8.567 -21.123  -1.594 +0.02 +0.01    +0.167    55.249
ATOM     45  C   UNL d   1     -15.511 -18.732   4.163 -0.19 -0.00    +0.004    55.249
ATOM     46  C   UNL d   1     -15.958 -17.626   4.752 -0.31 -0.00    +0.012    55.249
ATOM     47  C   UNL d   1     -13.246 -15.509  -2.587 -0.29 +0.00    +0.004    55.249
ATOM     48  C   UNL d   1     -13.193 -14.180  -2.700 -0.41 +0.00    +0.012    55.249
TER
ENDMDL


AVSFLD: # AVS field file
AVSFLD: #
AVSFLD: # Created by AutoDock
AVSFLD: #
AVSFLD: ndim=2           # number of dimensions in the field
AVSFLD: nspace=1         # number of physical coordinates
AVSFLD: veclen=7         # vector size
AVSFLD: dim1=48          # atoms
AVSFLD: dim2=53          # conformations
AVSFLD: data=Real       # data type (byte,integer,Real,double)
AVSFLD: field=uniform    # field coordinate layout
AVSFLD: label= x y z vdW Elec q RMS
AVSFLD: variable 1 file = D:/Protein_go_brrr/autodock/final/mut_Y35F/heme_Co/dock.dlg.pdb filetype = ascii offset = 5 stride = 12
AVSFLD: variable 2 file = D:/Protein_go_brrr/autodock/final/mut_Y35F/heme_Co/dock.dlg.pdb filetype = ascii offset = 6 stride = 12
AVSFLD: variable 3 file = D:/Protein_go_brrr/autodock/final/mut_Y35F/heme_Co/dock.dlg.pdb filetype = ascii offset = 7 stride = 12
AVSFLD: variable 4 file = D:/Protein_go_brrr/autodock/final/mut_Y35F/heme_Co/dock.dlg.pdb filetype = ascii offset = 8 stride = 12
AVSFLD: variable 5 file = D:/Protein_go_brrr/autodock/final/mut_Y35F/heme_Co/dock.dlg.pdb filetype = ascii offset = 9 stride = 12
AVSFLD: variable 6 file = D:/Protein_go_brrr/autodock/final/mut_Y35F/heme_Co/dock.dlg.pdb filetype = ascii offset = 10 stride = 12
AVSFLD: variable 7 file = D:/Protein_go_brrr/autodock/final/mut_Y35F/heme_Co/dock.dlg.pdb filetype = ascii offset = 11 stride = 12
AVSFLD: # end of file

>>> Closing the docking parameter file (DPF)...
This docking finished at:			8:33 16" p.m., 10/19/2025


________________________________________________________________________________

D:/autodockScripts/autodock4.exe: Successful Completion on "ACER"

Real= 28h 49m 45.58s,  CPU= 2m 07.02s,  System= 4m 42.41s
________________________________________________________________________________

